Protein in INSANE! Membrane UpperLeaflet>POPC=1.0 LowerLeaflet>POPC=1.0
248096
    1AU     AUC    1  15.202   5.683   7.497
    1AU     AUC    2  15.506   5.720   7.334
    1AU     AUC    3  15.478   5.698   7.672
    1AU     AUC    4  14.916   5.669   7.325
    1AU     AUC    5  14.913   5.668   7.675
    1AU     AUC    6  15.013   5.930   7.512
    1AU     AUC    7  15.354   5.957   7.503
    1AU     AUC    8  15.041   5.401   7.495
    1AU     AUC    9  15.402   5.445   7.491
    1AU     AUC   10  15.231   5.513   7.768
    1AU     AUC   11  15.181   5.840   7.777
    1AU     AUC   12  15.224   5.527   7.218
    1AU     AUC   13  15.224   5.861   7.227
    1AU     AUC   14  15.816   5.747   7.185
    1AU     AUC   15  15.849   5.736   7.506
    1AU     AUC   16  15.777   5.698   7.871
    1AU     AUC   17  14.620   5.650   7.145
    1AU     AUC   18  14.578   5.693   7.511
    1AU     AUC   19  14.628   5.660   7.848
    1AU     AUC   20  14.844   6.232   7.495
    1AU     AUC   21  15.189   6.292   7.493
    1AU     AUC   22  15.503   6.273   7.519
    1AU     AUC   23  14.866   5.084   7.495
    1AU     AUC   24  15.212   5.121   7.495
    1AU     AUC   25  15.604   5.164   7.466
    1AU     AUC   26  15.240   5.290   8.053
    1AU     AUC   27  15.189   5.613   8.096
    1AU     AUC   28  15.188   5.992   8.065
    1AU     AUC   29  15.228   5.336   6.928
    1AU     AUC   30  15.228   5.681   6.911
    1AU     AUC   31  15.247   6.037   6.932
    1AU     AUC   32  15.526   5.458   7.968
    1AU     AUC   33  15.496   5.823   8.013
    1AU     AUC   34  15.520   5.541   7.016
    1AU     AUC   35  15.547   5.902   7.011
    1AU     AUC   36  14.900   5.456   7.975
    1AU     AUC   37  14.898   5.815   7.985
    1AU     AUC   38  14.886   5.474   7.039
    1AU     AUC   39  14.896   5.845   7.014
    1AU     AUC   40  15.711   6.013   7.364
    1AU     AUC   41  15.647   5.981   7.717
    1AU     AUC   42  14.725   5.957   7.294
    1AU     AUC   43  14.702   5.975   7.685
    1AU     AUC   44  15.719   5.436   7.308
    1AU     AUC   45  15.725   5.410   7.638
    1AU     AUC   46  14.685   5.383   7.338
    1AU     AUC   47  14.716   5.383   7.669
    1AU     AUC   48  15.002   6.160   7.787
    1AU     AUC   49  15.337   6.160   7.810
    1AU     AUC   50  15.014   5.175   7.767
    1AU     AUC   51  15.426   5.193   7.796
    1AU     AUC   52  15.019   6.123   7.171
    1AU     AUC   53  15.412   6.163   7.183
    1AU     AUC   54  15.007   5.200   7.214
    1AU     AUC   55  15.399   5.229   7.170
    1AU    AUSL   56  15.774   5.599   8.229
    1AU    AUSL   57  15.634   5.130   8.094
    1AU     AUL   58  15.899   5.221   8.293
    1AU       S   59  16.045   4.835   8.095
    1AU     LIG   60  15.895   4.639   8.419
    1AU     LIG   61  16.105   4.269   8.583
    1AU       S   62  16.027   5.654   8.386
    1AU     LIG   63  16.011   5.830   8.779
    1AU     LIG   64  16.113   5.583   9.161
    1AU    AUSL   65  15.379   5.412   8.304
    1AU    AUSL   66  15.042   5.744   8.376
    1AU     AUL   67  15.226   5.591   8.635
    1AU       S   68  15.648   5.389   8.633
    1AU     LIG   69  15.604   5.583   9.001
    1AU     LIG   70  15.666   5.510   9.445
    1AU       S   71  14.510   5.551   8.669
    1AU     LIG   72  14.720   5.892   8.946
    1AU     LIG   73  14.684   5.966   9.402
    1AU    AUSL   74  15.392   5.830   8.174
    1AU    AUSL   75  15.800   6.019   8.148
    1AU     AUL   76  15.606   5.842   8.469
    1AU       S   77  15.217   6.093   8.623
    1AU     LIG   78  15.551   6.080   8.911
    1AU     LIG   79  15.830   5.997   9.251
    1AU       S   80  15.923   6.175   8.365
    1AU     LIG   81  16.333   6.165   8.445
    1AU     LIG   82  16.713   6.416   8.294
    1AU    AUSL   83  15.783   5.790   6.773
    1AU    AUSL   84  15.668   6.229   6.843
    1AU     AUL   85  15.812   6.091   6.520
    1AU       S   86  15.702   5.682   6.328
    1AU     LIG   87  16.058   5.743   6.070
    1AU     LIG   88  16.074   5.458   5.701
    1AU       S   89  16.044   6.356   6.819
    1AU     LIG   90  15.925   6.591   6.505
    1AU     LIG   91  16.139   6.852   6.192
    1AU    AUSL   92  15.439   5.542   6.727
    1AU    AUSL   93  15.756   5.462   7.055
    1AU     AUL   94  15.873   5.482   6.703
    1AU       S   95  15.812   4.720   6.671
    1AU     LIG   96  16.235   4.754   6.495
    1AU     LIG   97  16.544   4.660   6.159
    1AU       S   98  15.513   5.349   6.404
    1AU     LIG   99  15.422   5.144   5.975
    1AU     LIG  100  15.601   5.237   5.559
    1AU    AUSL  101  15.379   5.972   6.659
    1AU    AUSL  102  15.059   5.412   6.616
    1AU     AUL  103  15.240   5.721   6.421
    1AU       S  104  14.868   5.442   6.295
    1AU     LIG  105  14.956   5.323   5.853
    1AU     LIG  106  14.682   5.342   5.472
    1AU       S  107  15.694   5.447   6.243
    1AU     LIG  108  15.584   5.653   5.845
    1AU     LIG  109  15.744   5.749   5.416
    1AU    AUSL  110  14.681   5.624   8.172
    1AU    AUSL  111  14.927   6.073   8.141
    1AU     AUL  112  14.779   5.934   8.445
    1AU       S  113  14.442   5.617   8.366
    1AU     LIG  114  14.293   5.986   8.632
    1AU     LIG  115  14.234   5.959   9.101
    1AU       S  116  14.515   6.302   8.278
    1AU     LIG  117  14.311   6.504   8.603
    1AU     LIG  118  14.042   6.865   8.711
    1AU    AUSL  119  14.962   5.319   8.342
    1AU    AUSL  120  14.563   5.235   8.031
    1AU     AUL  121  14.640   5.198   8.324
    1AU       S  122  14.354   4.869   8.131
    1AU     LIG  123  13.963   4.667   8.281
    1AU     LIG  124  13.860   4.473   8.687
    1AU       S  125  14.750   5.488   8.658
    1AU     LIG  126  14.951   5.446   9.056
    1AU     LIG  127  14.819   5.459   9.502
    1AU    AUSL  128  14.681   5.570   6.749
    1AU    AUSL  129  14.934   5.262   6.996
    1AU     AUL  130  14.800   5.179   6.676
    1AU       S  131  14.499   5.500   6.476
    1AU     LIG  132  14.195   5.608   6.118
    1AU     LIG  133  14.223   5.580   5.636
    1AU       S  134  14.353   5.003   6.647
    1AU     LIG  135  14.366   4.547   6.524
    1AU     LIG  136  14.104   4.220   6.253
    1AU    AUSL  137  15.032   5.813   6.825
    1AU    AUSL  138  14.586   5.950   6.904
    1AU     AUL  139  14.794   5.858   6.543
    1AU       S  140  14.422   6.085   6.711
    1AU     LIG  141  14.060   6.312   6.671
    1AU     LIG  142  13.849   6.570   6.351
    1AU       S  143  14.608   5.352   6.243
    1AU     LIG  144  14.648   5.719   5.916
    1AU     LIG  145  14.618   5.864   5.454
    1AU    AUSL  146  15.887   6.292   7.567
    1AU    AUSL  147  15.894   6.005   7.124
    1AU     AUL  148  16.053   6.386   7.286
    1AU       S  149  16.145   6.049   6.951
    1AU     LIG  150  16.282   5.950   6.530
    1AU     LIG  151  16.345   6.355   6.314
    1AU       S  152  16.379   6.234   7.953
    1AU     LIG  153  16.566   6.606   7.746
    1AU     LIG  154  16.878   6.690   7.381
    1AU    AUSL  155  16.156   5.956   7.443
    1AU    AUSL  156  16.158   5.566   7.677
    1AU     AUL  157  16.467   5.756   7.532
    1AU       S  158  16.322   6.163   7.694
    1AU     LIG  159  16.587   6.241   7.362
    1AU     LIG  160  17.037   6.204   7.263
    1AU       S  161  16.409   5.282   7.519
    1AU     LIG  162  16.681   5.093   7.794
    1AU     LIG  163  17.141   5.016   7.787
    1AU    AUSL  164  15.893   5.888   7.766
    1AU    AUSL  165  15.564   6.198   7.821
    1AU     AUL  166  15.910   6.296   7.908
    1AU       S  167  15.896   6.481   8.370
    1AU     LIG  168  16.264   6.661   8.191
    1AU     LIG  169  16.642   6.941   8.269
    1AU       S  170  16.240   5.947   7.948
    1AU     LIG  171  16.755   5.948   7.896
    1AU     LIG  172  16.995   6.331   7.772
    1AU    AUSL  173  14.550   6.189   7.522
    1AU    AUSL  174  14.555   5.965   7.943
    1AU     AUL  175  14.287   6.318   7.782
    1AU       S  176  14.422   6.047   8.140
    1AU     LIG  177  14.012   6.224   8.234
    1AU     LIG  178  13.751   6.566   8.408
    1AU       S  179  14.507   6.605   7.481
    1AU     LIG  180  14.045   6.526   7.361
    1AU     LIG  181  13.713   6.547   7.022
    1AU    AUSL  182  14.473   5.826   7.282
    1AU    AUSL  183  14.633   6.320   7.132
    1AU     AUL  184  14.326   6.152   7.182
    1AU       S  185  14.181   5.702   6.920
    1AU     LIG  186  13.827   6.027   7.023
    1AU     LIG  187  13.388   6.112   7.121
    1AU       S  188  14.460   6.532   6.909
    1AU     LIG  189  14.119   6.815   6.751
    1AU     LIG  190  14.030   7.051   6.348
    1AU    AUSL  191  14.259   5.883   7.653
    1AU    AUSL  192  14.251   5.487   7.394
    1AU     AUL  193  14.083   5.796   7.366
    1AU       S  194  14.001   5.440   7.675
    1AU     LIG  195  13.738   5.295   7.287
    1AU     LIG  196  13.367   5.082   7.031
    1AU       S  197  14.050   5.924   7.827
    1AU     LIG  198  13.783   6.165   7.675
    1AU     LIG  199  13.376   6.120   7.860
    1AU    AUSL  200  15.920   5.284   7.454
    1AU    AUSL  201  15.792   5.434   7.845
    1AU     AUL  202  16.114   5.303   7.880
    1AU       S  203  16.220   5.110   7.460
    1AU     LIG  204  16.457   4.740   7.467
    1AU     LIG  205  16.888   4.598   7.597
    1AU       S  206  16.274   4.825   7.934
    1AU     LIG  207  16.424   4.637   8.349
    1AU     LIG  208  16.531   4.504   8.786
    1AU    AUSL  209  16.116   5.593   7.220
    1AU    AUSL  210  15.818   5.009   7.156
    1AU     AUL  211  16.058   5.257   7.054
    1AU       S  212  16.442   5.346   7.292
    1AU     LIG  213  16.833   5.059   7.307
    1AU     LIG  214  17.291   4.961   7.292
    1AU       S  215  15.951   4.817   6.915
    1AU     LIG  216  16.165   4.385   6.891
    1AU     LIG  217  16.418   3.985   6.768
    1AU    AUSL  218  14.605   5.245   7.490
    1AU    AUSL  219  14.511   5.378   7.077
    1AU     AUL  220  14.239   5.168   7.303
    1AU       S  221  14.348   5.224   6.856
    1AU     LIG  222  13.916   5.001   6.868
    1AU     LIG  223  13.918   4.777   6.444
    1AU       S  224  13.993   5.330   7.966
    1AU     LIG  225  13.785   5.010   7.721
    1AU     LIG  226  13.488   4.820   7.446
    1AU    AUSL  227  14.459   5.538   7.771
    1AU    AUSL  228  14.677   4.929   7.748
    1AU     AUL  229  14.361   5.119   7.741
    1AU       S  230  14.523   4.683   7.856
    1AU     LIG  231  14.171   4.366   7.931
    1AU     LIG  232  13.993   4.134   8.314
    1AU       S  233  14.156   5.492   7.944
    1AU     LIG  234  13.652   5.675   7.956
    1AU     LIG  235  13.402   5.382   7.748
    1AU    AUSL  236  15.165   6.376   7.952
    1AU    AUSL  237  14.740   6.349   7.866
    1AU     AUL  238  14.974   6.396   8.250
    1AU       S  239  14.623   6.565   7.996
    1AU     LIG  240  14.191   6.707   8.138
    1AU     LIG  241  13.916   7.087   8.253
    1AU       S  242  15.119   6.774   8.001
    1AU     LIG  243  15.413   6.982   8.262
    1AU     LIG  244  15.423   7.428   8.388
    1AU    AUSL  245  14.984   6.570   7.601
    1AU    AUSL  246  15.331   6.608   7.272
    1AU     AUL  247  15.037   6.845   7.374
    1AU       S  248  15.135   7.011   7.835
    1AU     LIG  249  15.074   7.463   7.973
    1AU     LIG  250  14.691   7.733   8.085
    1AU       S  251  15.287   6.837   6.956
    1AU     LIG  252  15.337   7.260   7.157
    1AU     LIG  253  15.424   7.722   6.998
    1AU    AUSL  254  15.442   6.567   7.676
    1AU    AUSL  255  15.434   6.238   8.242
    1AU     AUL  256  15.519   6.521   8.043
    1AU       S  257  15.638   6.337   8.482
    1AU     LIG  258  15.989   6.351   8.832
    1AU     LIG  259  16.367   6.609   8.705
    1AU       S  260  15.378   6.853   7.733
    1AU     LIG  261  15.561   7.287   7.858
    1AU     LIG  262  15.536   7.733   7.997
    1AU    AUSL  263  15.257   4.944   8.109
    1AU    AUSL  264  15.812   4.973   7.718
    1AU     AUL  265  15.577   4.760   8.012
    1AU       S  266  15.157   4.429   8.101
    1AU     LIG  267  14.956   4.044   8.263
    1AU     LIG  268  14.868   3.559   8.332
    1AU       S  269  16.006   4.800   7.784
    1AU     LIG  270  16.082   4.341   8.020
    1AU     LIG  271  16.285   3.932   8.223
    1AU    AUSL  272  15.070   4.789   7.743
    1AU    AUSL  273  14.984   5.203   7.940
    1AU     AUL  274  14.904   4.873   8.093
    1AU       S  275  15.029   4.501   7.844
    1AU     LIG  276  14.712   4.198   7.807
    1AU     LIG  277  14.749   3.763   7.891
    1AU       S  278  14.484   4.660   8.160
    1AU     LIG  279  14.398   4.397   8.477
    1AU     LIG  280  14.217   4.119   8.793
    1AU    AUSL  281  15.408   5.033   7.682
    1AU    AUSL  282  15.037   4.886   7.335
    1AU     AUL  283  15.356   4.679   7.531
    1AU       S  284  14.877   4.563   7.366
    1AU     LIG  285  14.632   4.173   7.188
    1AU     LIG  286  14.785   3.701   7.152
    1AU       S  287  15.272   4.325   7.867
    1AU     LIG  288  15.249   3.886   7.870
    1AU     LIG  289  15.496   3.589   8.113
    1AU    AUSL  290  15.278   6.340   6.945
    1AU    AUSL  291  15.586   6.269   7.277
    1AU     AUL  292  15.641   6.542   7.047
    1AU       S  293  15.298   6.537   6.710
    1AU     LIG  294  15.564   6.941   6.567
    1AU     LIG  295  15.316   7.335   6.648
    1AU       S  296  16.332   6.300   6.883
    1AU     LIG  297  16.409   6.738   6.697
    1AU     LIG  298  16.699   7.147   6.674
    1AU    AUSL  299  15.018   6.301   7.290
    1AU    AUSL  300  14.908   6.219   6.807
    1AU     AUL  301  14.918   6.537   7.022
    1AU       S  302  15.110   6.790   6.663
    1AU     LIG  303  14.882   7.114   6.913
    1AU     LIG  304  14.926   7.568   7.031
    1AU       S  305  14.666   6.351   6.642
    1AU     LIG  306  14.382   6.586   6.364
    1AU     LIG  307  14.179   6.715   5.950
    1AU    AUSL  308  15.187   4.941   6.919
    1AU    AUSL  309  14.654   4.971   7.173
    1AU     AUL  310  14.896   4.823   6.967
    1AU       S  311  14.433   4.924   6.930
    1AU     LIG  312  14.182   4.573   7.013
    1AU     LIG  313  13.929   4.338   6.708
    1AU       S  314  15.115   4.419   7.163
    1AU     LIG  315  15.048   4.039   6.886
    1AU     LIG  316  15.033   3.556   6.736
    1AU    AUSL  317  15.424   5.058   7.268
    1AU    AUSL  318  15.543   5.151   6.843
    1AU     AUL  319  15.494   4.788   7.049
    1AU       S  320  15.048   4.307   7.399
    1AU     LIG  321  15.283   3.940   7.362
    1AU     LIG  322  15.447   3.737   7.004
    1AU       S  323  15.737   5.010   6.682
    1AU     LIG  324  15.849   4.967   6.226
    1AU     LIG  325  16.064   4.678   5.922
    2AU     AUC  326   1.623  21.077   7.502
    2AU     AUC  327   1.924  21.121   7.336
    2AU     AUC  328   1.898  21.096   7.674
    2AU     AUC  329   1.335  21.060   7.331
    2AU     AUC  330   1.338  21.056   7.684
    2AU     AUC  331   1.431  21.321   7.520
    2AU     AUC  332   1.770  21.354   7.507
    2AU     AUC  333   1.464  20.792   7.500
    2AU     AUC  334   1.825  20.843   7.494
    2AU     AUC  335   1.656  20.904   7.773
    2AU     AUC  336   1.603  21.232   7.784
    2AU     AUC  337   1.645  20.923   7.222
    2AU     AUC  338   1.639  21.257   7.231
    2AU     AUC  339   2.233  21.153   7.186
    2AU     AUC  340   2.268  21.142   7.505
    2AU     AUC  341   2.202  21.101   7.871
    2AU     AUC  342   1.038  21.038   7.156
    2AU     AUC  343   1.001  21.072   7.523
    2AU     AUC  344   1.053  21.039   7.864
    2AU     AUC  345   1.256  21.618   7.506
    2AU     AUC  346   1.599  21.685   7.499
    2AU     AUC  347   1.913  21.671   7.521
    2AU     AUC  348   1.294  20.472   7.497
    2AU     AUC  349   1.637  20.515   7.496
    2AU     AUC  350   2.030  20.565   7.468
    2AU     AUC  351   1.670  20.681   8.057
    2AU     AUC  352   1.619  21.003   8.102
    2AU     AUC  353   1.612  21.384   8.073
    2AU     AUC  354   1.650  20.733   6.929
    2AU     AUC  355   1.645  21.077   6.915
    2AU     AUC  356   1.657  21.435   6.935
    2AU     AUC  357   1.953  20.856   7.969
    2AU     AUC  358   1.920  21.219   8.016
    2AU     AUC  359   1.939  20.941   7.019
    2AU     AUC  360   1.960  21.304   7.013
    2AU     AUC  361   1.329  20.841   7.985
    2AU     AUC  362   1.325  21.202   7.996
    2AU     AUC  363   1.307  20.867   7.043
    2AU     AUC  364   1.310  21.235   7.021
    2AU     AUC  365   2.124  21.418   7.363
    2AU     AUC  366   2.064  21.382   7.718
    2AU     AUC  367   1.139  21.342   7.307
    2AU     AUC  368   1.122  21.358   7.698
    2AU     AUC  369   2.142  20.838   7.311
    2AU     AUC  370   2.151  20.812   7.638
    2AU     AUC  371   1.110  20.770   7.343
    2AU     AUC  372   1.143  20.767   7.674
    2AU     AUC  373   1.421  21.549   7.797
    2AU     AUC  374   1.755  21.555   7.815
    2AU     AUC  375   1.443  20.563   7.772
    2AU     AUC  376   1.854  20.590   7.797
    2AU     AUC  377   1.428  21.515   7.178
    2AU     AUC  378   1.821  21.562   7.185
    2AU     AUC  379   1.430  20.594   7.213
    2AU     AUC  380   1.822  20.628   7.173
    2AU    AUSL  381   2.204  20.999   8.229
    2AU    AUSL  382   2.062  20.527   8.089
    2AU     AUL  383   2.307  20.621   8.296
    2AU       S  384   2.484  20.242   8.095
    2AU     LIG  385   2.356  19.922   8.367
    2AU     LIG  386   2.446  19.571   8.645
    2AU       S  387   2.462  21.050   8.393
    2AU     LIG  388   2.419  21.196   8.819
    2AU     LIG  389   2.471  20.928   9.196
    2AU    AUSL  390   1.815  20.807   8.308
    2AU    AUSL  391   1.473  21.129   8.381
    2AU     AUL  392   1.670  20.978   8.637
    2AU       S  393   2.114  20.818   8.664
    2AU     LIG  394   1.968  20.970   9.057
    2AU     LIG  395   2.046  20.873   9.510
    2AU       S  396   0.935  20.932   8.676
    2AU     LIG  397   1.113  21.274   8.962
    2AU     LIG  398   1.056  21.341   9.418
    2AU    AUSL  399   1.820  21.227   8.180
    2AU    AUSL  400   2.227  21.420   8.147
    2AU     AUL  401   2.044  21.248   8.468
    2AU       S  402   1.651  21.480   8.628
    2AU     LIG  403   2.001  21.479   8.917
    2AU     LIG  404   2.211  21.356   9.307
    2AU       S  405   2.368  21.585   8.367
    2AU     LIG  406   2.791  21.754   8.464
    2AU     LIG  407   3.089  22.039   8.694
    2AU    AUSL  408   2.196  21.194   6.778
    2AU    AUSL  409   2.072  21.634   6.843
    2AU     AUL  410   2.227  21.485   6.523
    2AU       S  411   2.117  21.078   6.319
    2AU     LIG  412   2.483  21.207   6.070
    2AU     LIG  413   2.586  20.948   5.683
    2AU       S  414   2.432  21.782   6.812
    2AU     LIG  415   2.339  21.979   6.438
    2AU     LIG  416   2.570  22.260   6.141
    2AU    AUSL  417   1.858  20.939   6.730
    2AU    AUSL  418   2.176  20.864   7.058
    2AU     AUL  419   2.291  20.894   6.703
    2AU       S  420   2.274  20.127   6.717
    2AU     LIG  421   2.682  20.261   6.588
    2AU     LIG  422   2.931  20.224   6.204
    2AU       S  423   1.943  20.747   6.398
    2AU     LIG  424   1.899  20.560   5.939
    2AU     LIG  425   2.174  20.629   5.550
    2AU    AUSL  426   1.791  21.368   6.661
    2AU    AUSL  427   1.479  20.809   6.616
    2AU     AUL  428   1.657  21.115   6.425
    2AU       S  429   1.283  20.840   6.296
    2AU     LIG  430   1.386  20.692   5.878
    2AU     LIG  431   1.086  20.690   5.517
    2AU       S  432   2.174  20.837   6.228
    2AU     LIG  433   2.066  21.049   5.811
    2AU     LIG  434   2.221  21.137   5.359
    2AU    AUSL  435   1.111  21.001   8.186
    2AU    AUSL  436   1.355  21.467   8.160
    2AU     AUL  437   1.213  21.311   8.462
    2AU       S  438   0.875  20.993   8.377
    2AU     LIG  439   0.719  21.376   8.646
    2AU     LIG  440   0.626  21.398   9.102
    2AU       S  441   0.951  21.676   8.295
    2AU     LIG  442   0.888  21.891   8.647
    2AU     LIG  443   0.676  22.130   8.979
    2AU    AUSL  444   1.401  20.702   8.351
    2AU    AUSL  445   0.988  20.614   8.045
    2AU     AUL  446   1.083  20.576   8.337
    2AU       S  447   0.752  20.280   8.155
    2AU     LIG  448   0.394  20.012   8.351
    2AU     LIG  449   0.141  19.757   8.692
    2AU       S  450   1.191  20.868   8.670
    2AU     LIG  451   1.333  20.831   9.092
    2AU     LIG  452   1.121  20.817   9.516
    2AU    AUSL  453   1.099  20.961   6.749
    2AU    AUSL  454   1.358  20.660   6.996
    2AU     AUL  455   1.217  20.576   6.675
    2AU       S  456   0.915  20.893   6.470
    2AU     LIG  457   0.608  20.993   6.107
    2AU     LIG  458   0.633  20.957   5.620
    2AU       S  459   0.765  20.379   6.670
    2AU     LIG  460   0.843  19.896   6.676
    2AU     LIG  461   0.662  19.470   6.609
    2AU    AUSL  462   1.447  21.209   6.829
    2AU    AUSL  463   0.999  21.331   6.922
    2AU     AUL  464   1.207  21.251   6.550
    2AU       S  465   0.828  21.456   6.730
    2AU     LIG  466   0.475  21.700   6.669
    2AU     LIG  467   0.293  21.936   6.317
    2AU       S  468   1.018  20.733   6.243
    2AU     LIG  469   1.064  21.086   5.911
    2AU     LIG  470   1.075  21.212   5.459
    2AU    AUSL  471   2.297  21.699   7.564
    2AU    AUSL  472   2.307  21.418   7.123
    2AU     AUL  473   2.462  21.799   7.283
    2AU       S  474   2.552  21.468   6.949
    2AU     LIG  475   2.689  21.326   6.551
    2AU     LIG  476   2.714  21.681   6.251
    2AU       S  477   2.809  21.697   7.955
    2AU     LIG  478   2.933  22.067   7.679
    2AU     LIG  479   3.288  22.066   7.368
    2AU    AUSL  480   2.571  21.368   7.440
    2AU    AUSL  481   2.582  20.979   7.679
    2AU     AUL  482   2.885  21.182   7.532
    2AU       S  483   2.741  21.593   7.688
    2AU     LIG  484   2.980  21.656   7.331
    2AU     LIG  485   3.430  21.582   7.248
    2AU       S  486   2.840  20.707   7.525
    2AU     LIG  487   3.125  20.436   7.697
    2AU     LIG  488   3.491  20.242   7.902
    2AU    AUSL  489   2.309  21.294   7.761
    2AU    AUSL  490   1.981  21.595   7.825
    2AU     AUL  491   2.325  21.701   7.904
    2AU       S  492   2.319  21.904   8.346
    2AU     LIG  493   2.652  22.164   8.163
    2AU     LIG  494   2.885  22.529   8.344
    2AU       S  495   2.665  21.374   7.939
    2AU     LIG  496   3.159  21.341   7.916
    2AU     LIG  497   3.590  21.355   7.691
    2AU    AUSL  498   0.959  21.570   7.540
    2AU    AUSL  499   0.988  21.342   7.957
    2AU     AUL  500   0.702  21.686   7.809
    2AU       S  501   0.860  21.428   8.162
    2AU     LIG  502   0.453  21.605   8.267
    2AU     LIG  503   0.377  21.822   8.659
    2AU       S  504   0.910  21.981   7.501
    2AU     LIG  505   0.454  21.870   7.411
    2AU     LIG  506   0.035  21.939   7.579
    2AU    AUSL  507   0.883  21.211   7.300
    2AU    AUSL  508   1.037  21.703   7.148
    2AU     AUL  509   0.737  21.528   7.200
    2AU       S  510   0.587  21.089   6.956
    2AU     LIG  511   0.258  21.426   7.052
    2AU     LIG  512  44.908  21.407   7.353
    2AU       S  513   0.860  21.907   6.928
    2AU     LIG  514   0.708  22.160   6.574
    2AU     LIG  515   0.418  22.444   6.340
    2AU    AUSL  516   0.681  21.253   7.682
    2AU    AUSL  517   0.676  20.863   7.408
    2AU     AUL  518   0.493  21.181   7.407
    2AU       S  519   0.449  20.787   7.675
    2AU     LIG  520   0.182  20.783   7.322
    2AU     LIG  521  44.874  20.489   7.150
    2AU       S  522   0.484  21.278   7.887
    2AU     LIG  523   0.224  21.505   7.736
    2AU     LIG  524  44.797  21.506   7.847
    2AU    AUSL  525   2.352  20.692   7.455
    2AU    AUSL  526   2.216  20.837   7.844
    2AU     AUL  527   2.538  20.711   7.885
    2AU       S  528   2.647  20.536   7.456
    2AU     LIG  529   2.773  20.127   7.389
    2AU     LIG  530   3.221  20.007   7.444
    2AU       S  531   2.709  20.231   7.892
    2AU     LIG  532   2.910  19.953   8.221
    2AU     LIG  533   2.938  19.701   8.637
    2AU    AUSL  534   2.535  21.006   7.218
    2AU    AUSL  535   2.241  20.409   7.168
    2AU     AUL  536   2.476  20.661   7.047
    2AU       S  537   2.849  20.782   7.285
    2AU     LIG  538   3.124  20.434   7.165
    2AU     LIG  539   3.570  20.244   7.109
    2AU       S  540   2.380  20.204   6.989
    2AU     LIG  541   2.648  19.838   6.920
    2AU     LIG  542   2.849  19.757   6.508
    2AU    AUSL  543   1.035  20.620   7.490
    2AU    AUSL  544   0.936  20.775   7.085
    2AU     AUL  545   0.673  20.553   7.307
    2AU       S  546   0.769  20.625   6.858
    2AU     LIG  547   0.347  20.475   6.933
    2AU     LIG  548   0.252  20.088   6.725
    2AU       S  549   0.368  20.637   7.881
    2AU     LIG  550   0.291  20.317   7.540
    2AU     LIG  551   0.106  20.039   7.225
    2AU    AUSL  552   0.898  20.911   7.775
    2AU    AUSL  553   1.108  20.312   7.760
    2AU     AUL  554   0.807  20.482   7.741
    2AU       S  555   0.930  20.058   7.908
    2AU     LIG  556   0.572  19.727   7.930
    2AU     LIG  557   0.276  19.526   8.254
    2AU       S  558   0.556  20.828   7.921
    2AU     LIG  559   0.050  21.011   7.799
    2AU     LIG  560  44.836  20.601   7.662
    2AU    AUSL  561   1.585  21.769   7.959
    2AU    AUSL  562   1.159  21.731   7.879
    2AU     AUL  563   1.402  21.797   8.258
    2AU       S  564   1.049  21.939   7.996
    2AU     LIG  565   0.659  22.068   8.184
    2AU     LIG  566   0.489  22.315   8.528
    2AU       S  567   1.541  22.182   8.002
    2AU     LIG  568   1.794  22.502   8.275
    2AU     LIG  569   1.913  22.897   8.538
    2AU    AUSL  570   1.395  21.956   7.612
    2AU    AUSL  571   1.728  22.006   7.276
    2AU     AUL  572   1.414  22.225   7.392
    2AU       S  573   1.622  22.377   7.815
    2AU     LIG  574   1.435  22.716   7.957
    2AU     LIG  575   1.665  23.041   8.117
    2AU       S  576   1.689  22.240   7.003
    2AU     LIG  577   2.032  22.512   7.138
    2AU     LIG  578   2.098  22.987   7.074
    2AU    AUSL  579   1.856  21.959   7.674
    2AU    AUSL  580   1.860  21.636   8.246
    2AU     AUL  581   1.932  21.920   8.045
    2AU       S  582   2.071  21.741   8.480
    2AU     LIG  583   2.396  21.857   8.821
    2AU     LIG  584   2.630  22.264   8.717
    2AU       S  585   1.808  22.221   7.704
    2AU     LIG  586   2.158  22.381   7.925
    2AU     LIG  587   2.170  22.823   8.083
    2AU    AUSL  588   1.690  20.334   8.109
    2AU    AUSL  589   2.244  20.377   7.714
    2AU     AUL  590   2.016  20.157   8.010
    2AU       S  591   1.609  19.815   8.075
    2AU     LIG  592   1.280  19.499   8.205
    2AU     LIG  593   1.109  19.059   8.358
    2AU       S  594   2.429  20.221   7.766
    2AU     LIG  595   2.518  19.759   7.915
    2AU     LIG  596   2.746  19.475   8.206
    2AU    AUSL  597   1.504  20.182   7.741
    2AU    AUSL  598   1.410  20.591   7.947
    2AU     AUL  599   1.336  20.250   8.092
    2AU       S  600   1.450  19.882   7.825
    2AU     LIG  601   1.098  19.615   7.739
    2AU     LIG  602   0.845  19.284   7.978
    2AU       S  603   0.893  20.070   8.188
    2AU     LIG  604   0.817  19.680   8.376
    2AU     LIG  605   0.576  19.425   8.663
    2AU    AUSL  606   1.839  20.430   7.682
    2AU    AUSL  607   1.461  20.280   7.333
    2AU     AUL  608   1.790  20.076   7.533
    2AU       S  609   1.338  19.971   7.353
    2AU     LIG  610   1.024  19.817   7.151
    2AU     LIG  611   1.047  19.416   6.987
    2AU       S  612   1.681  19.688   7.828
    2AU     LIG  613   1.998  19.352   7.880
    2AU     LIG  614   2.010  18.912   8.043
    2AU    AUSL  615   1.681  21.739   6.947
    2AU    AUSL  616   1.992  21.672   7.278
    2AU     AUL  617   2.045  21.946   7.057
    2AU       S  618   1.698  21.965   6.729
    2AU     LIG  619   2.038  22.320   6.655
    2AU     LIG  620   2.019  22.791   6.616
    2AU       S  621   2.716  21.727   6.857
    2AU     LIG  622   2.800  22.136   6.618
    2AU     LIG  623   3.043  22.422   6.305
    2AU    AUSL  624   1.425  21.691   7.296
    2AU    AUSL  625   1.310  21.611   6.818
    2AU     AUL  626   1.320  21.927   7.023
    2AU       S  627   1.552  22.279   6.766
    2AU     LIG  628   1.605  22.737   6.946
    2AU     LIG  629   1.661  23.201   6.902
    2AU       S  630   1.054  21.731   6.657
    2AU     LIG  631   0.812  21.757   6.276
    2AU     LIG  632   0.666  22.117   6.009
    2AU    AUSL  633   1.613  20.341   6.917
    2AU    AUSL  634   1.081  20.361   7.161
    2AU     AUL  635   1.325  20.221   6.957
    2AU       S  636   0.863  20.327   6.929
    2AU     LIG  637   0.597  20.068   7.125
    2AU     LIG  638   0.388  19.670   7.010
    2AU       S  639   1.565  19.825   7.160
    2AU     LIG  640   1.365  19.760   6.765
    2AU     LIG  641   1.166  19.460   6.481
    2AU    AUSL  642   1.845  20.457   7.269
    2AU    AUSL  643   1.971  20.550   6.846
    2AU     AUL  644   1.913  20.188   7.050
    2AU       S  645   1.465  19.690   7.363
    2AU     LIG  646   1.854  19.410   7.359
    2AU     LIG  647   2.014  19.012   7.126
    2AU       S  648   2.170  20.415   6.697
    2AU     LIG  649   2.285  20.339   6.262
    2AU     LIG  650   2.496  19.940   6.165
    3AU     AUC  651  42.593  39.945   7.492
    3AU     AUC  652  42.896  39.986   7.329
    3AU     AUC  653  42.870  39.961   7.668
    3AU     AUC  654  42.305  39.932   7.320
    3AU     AUC  655  42.302  39.926   7.671
    3AU     AUC  656  42.402  40.190   7.511
    3AU     AUC  657  42.743  40.220   7.502
    3AU     AUC  658  42.433  39.662   7.487
    3AU     AUC  659  42.795  39.710   7.485
    3AU     AUC  660  42.624  39.773   7.761
    3AU     AUC  661  42.571  40.100   7.775
    3AU     AUC  662  42.615  39.793   7.211
    3AU     AUC  663  42.612  40.126   7.225
    3AU     AUC  664  43.206  40.015   7.179
    3AU     AUC  665  43.240  40.002   7.501
    3AU     AUC  666  43.169  39.960   7.866
    3AU     AUC  667  42.007  39.913   7.140
    3AU     AUC  668  41.967  39.951   7.508
    3AU     AUC  669  42.017  39.911   7.845
    3AU     AUC  670  42.231  40.492   7.498
    3AU     AUC  671  42.576  40.555   7.495
    3AU     AUC  672  42.890  40.535   7.519
    3AU     AUC  673  42.262  39.344   7.483
    3AU     AUC  674  42.608  39.384   7.483
    3AU     AUC  675  43.000  39.430   7.456
    3AU     AUC  676  42.632  39.546   8.044
    3AU     AUC  677  42.580  39.869   8.090
    3AU     AUC  678  42.578  40.249   8.064
    3AU     AUC  679  42.619  39.605   6.918
    3AU     AUC  680  42.615  39.949   6.907
    3AU     AUC  681  42.632  40.305   6.930
    3AU     AUC  682  42.918  39.718   7.961
    3AU     AUC  683  42.888  40.081   8.011
    3AU     AUC  684  42.911  39.811   7.009
    3AU     AUC  685  42.933  40.171   7.007
    3AU     AUC  686  42.292  39.710   7.969
    3AU     AUC  687  42.289  40.070   7.982
    3AU     AUC  688  42.275  39.738   7.032
    3AU     AUC  689  42.282  40.111   7.012
    3AU     AUC  690  43.099  40.278   7.361
    3AU     AUC  691  43.038  40.243   7.715
    3AU     AUC  692  42.112  40.220   7.292
    3AU     AUC  693  42.091  40.232   7.683
    3AU     AUC  694  43.113  39.704   7.301
    3AU     AUC  695  43.119  39.675   7.631
    3AU     AUC  696  42.077  39.645   7.331
    3AU     AUC  697  42.108  39.639   7.661
    3AU     AUC  698  42.391  40.419   7.789
    3AU     AUC  699  42.727  40.419   7.810
    3AU     AUC  700  42.411  39.432   7.755
    3AU     AUC  701  42.821  39.454   7.786
    3AU     AUC  702  42.406  40.387   7.173
    3AU     AUC  703  42.797  40.429   7.182
    3AU     AUC  704  42.401  39.465   7.203
    3AU     AUC  705  42.794  39.498   7.159
    3AU    AUSL  706  43.165  39.855   8.224
    3AU    AUSL  707  43.025  39.392   8.086
    3AU     AUL  708  43.298  39.473   8.277
    3AU       S  709  43.445  39.081   8.090
    3AU     LIG  710  43.307  38.756   8.359
    3AU     LIG  711  43.488  38.380   8.572
    3AU       S  712  43.414  39.905   8.377
    3AU     LIG  713  43.434  40.109   8.753
    3AU     LIG  714  43.587  39.907   9.140
    3AU    AUSL  715  42.768  39.669   8.296
    3AU    AUSL  716  42.432  39.993   8.367
    3AU     AUL  717  42.613  39.846   8.631
    3AU       S  718  43.021  39.623   8.606
    3AU     LIG  719  43.054  39.844   8.963
    3AU     LIG  720  43.146  39.793   9.406
    3AU       S  721  41.901  39.791   8.663
    3AU     LIG  722  42.087  40.155   8.929
    3AU     LIG  723  42.110  40.153   9.384
    3AU    AUSL  724  42.784  40.088   8.172
    3AU    AUSL  725  43.191  40.276   8.146
    3AU     AUL  726  42.999  40.095   8.469
    3AU       S  727  42.605  40.343   8.618
    3AU     LIG  728  42.943  40.336   8.909
    3AU     LIG  729  43.249  40.279   9.226
    3AU       S  730  43.311  40.433   8.363
    3AU     LIG  731  43.726  40.388   8.398
    3AU     LIG  732  44.117  40.600   8.265
    3AU    AUSL  733  43.167  40.063   6.765
    3AU    AUSL  734  43.049  40.497   6.841
    3AU     AUL  735  43.181  40.359   6.502
    3AU       S  736  43.086  39.941   6.313
    3AU     LIG  737  43.411  40.100   6.051
    3AU     LIG  738  43.483  39.883   5.634
    3AU       S  739  43.402  40.622   6.807
    3AU     LIG  740  43.178  40.881   6.536
    3AU     LIG  741  43.328  41.159   6.210
    3AU    AUSL  742  42.826  39.813   6.722
    3AU    AUSL  743  43.149  39.735   7.047
    3AU     AUL  744  43.264  39.763   6.696
    3AU       S  745  43.213  38.998   6.665
    3AU     LIG  746  43.631  39.052   6.487
    3AU     LIG  747  43.933  38.752   6.308
    3AU       S  748  42.915  39.623   6.385
    3AU     LIG  749  42.835  39.439   5.926
    3AU     LIG  750  43.043  39.527   5.488
    3AU    AUSL  751  42.761  40.242   6.654
    3AU    AUSL  752  42.446  39.683   6.608
    3AU     AUL  753  42.626  39.985   6.417
    3AU       S  754  42.229  39.723   6.291
    3AU     LIG  755  42.312  39.582   5.880
    3AU     LIG  756  42.105  39.405   5.496
    3AU       S  757  43.152  39.688   6.216
    3AU     LIG  758  42.983  39.919   5.825
    3AU     LIG  759  43.081  40.124   5.414
    3AU    AUSL  760  42.068  39.874   8.171
    3AU    AUSL  761  42.317  40.333   8.147
    3AU     AUL  762  42.171  40.176   8.445
    3AU       S  763  41.824  39.865   8.369
    3AU     LIG  764  41.619  40.179   8.689
    3AU     LIG  765  41.658  39.982   9.136
    3AU       S  766  41.910  40.540   8.280
    3AU     LIG  767  41.908  40.836   8.557
    3AU     LIG  768  41.584  41.123   8.693
    3AU    AUSL  769  42.353  39.568   8.333
    3AU    AUSL  770  41.959  39.485   8.024
    3AU     AUL  771  42.025  39.447   8.318
    3AU       S  772  41.779  39.084   8.113
    3AU     LIG  773  41.396  38.955   8.386
    3AU     LIG  774  41.101  38.709   8.711
    3AU       S  775  42.142  39.732   8.655
    3AU     LIG  776  42.149  39.683   9.109
    3AU     LIG  777  41.931  39.678   9.513
    3AU    AUSL  778  42.070  39.838   6.747
    3AU    AUSL  779  42.325  39.527   6.987
    3AU     AUL  780  42.191  39.446   6.664
    3AU       S  781  41.887  39.786   6.514
    3AU     LIG  782  41.499  39.947   6.395
    3AU     LIG  783  41.353  39.913   5.950
    3AU       S  784  41.727  39.302   6.649
    3AU     LIG  785  41.735  38.862   6.504
    3AU     LIG  786  41.595  38.450   6.303
    3AU    AUSL  787  42.418  40.082   6.824
    3AU    AUSL  788  41.969  40.217   6.901
    3AU     AUL  789  42.189  40.134   6.539
    3AU       S  790  41.806  40.339   6.708
    3AU     LIG  791  41.454  40.570   6.641
    3AU     LIG  792  41.279  40.833   6.304
    3AU       S  793  41.930  39.633   6.275
    3AU     LIG  794  41.902  40.044   6.062
    3AU     LIG  795  41.962  40.210   5.626
    3AU    AUSL  796  43.273  40.558   7.564
    3AU    AUSL  797  43.278  40.271   7.120
    3AU     AUL  798  43.435  40.654   7.275
    3AU       S  799  43.530  40.317   6.944
    3AU     LIG  800  43.635  40.183   6.531
    3AU     LIG  801  43.579  40.580   6.278
    3AU       S  802  43.772  40.466   7.889
    3AU     LIG  803  44.026  40.818   7.779
    3AU     LIG  804  44.374  41.080   7.673
    3AU    AUSL  805  43.545  40.225   7.436
    3AU    AUSL  806  43.551  39.833   7.669
    3AU     AUL  807  43.860  40.018   7.546
    3AU       S  808  43.718  40.442   7.649
    3AU     LIG  809  44.154  40.427   7.465
    3AU     LIG  810  44.584  40.661   7.395
    3AU       S  811  43.815  39.544   7.517
    3AU     LIG  812  44.112  39.330   7.777
    3AU     LIG  813  44.447  39.075   8.003
    3AU    AUSL  814  43.287  40.154   7.762
    3AU    AUSL  815  42.955  40.458   7.823
    3AU     AUL  816  43.305  40.558   7.906
    3AU       S  817  43.290  40.739   8.368
    3AU     LIG  818  43.675  40.872   8.171
    3AU     LIG  819  44.093  41.126   8.177
    3AU       S  820  43.627  40.211   7.938
    3AU     LIG  821  44.127  40.165   7.966
    3AU     LIG  822  44.446  40.519   7.868
    3AU    AUSL  823  41.932  40.448   7.525
    3AU    AUSL  824  41.953  40.215   7.938
    3AU     AUL  825  41.675  40.563   7.796
    3AU       S  826  41.816  40.293   8.146
    3AU     LIG  827  41.415  40.405   8.274
    3AU     LIG  828  41.276  40.714   8.564
    3AU       S  829  41.886  40.855   7.489
    3AU     LIG  830  41.414  40.759   7.427
    3AU     LIG  831  41.063  40.933   7.699
    3AU    AUSL  832  41.860  40.090   7.279
    3AU    AUSL  833  42.020  40.581   7.136
    3AU     AUL  834  41.714  40.420   7.180
    3AU       S  835  41.565  39.961   6.917
    3AU     LIG  836  41.208  40.294   7.010
    3AU     LIG  837  40.938  40.499   7.355
    3AU       S  838  41.851  40.789   6.892
    3AU     LIG  839  41.592  41.092   6.641
    3AU     LIG  840  41.251  41.346   6.419
    3AU    AUSL  841  41.649  40.134   7.655
    3AU    AUSL  842  41.644  39.746   7.387
    3AU     AUL  843  41.470  40.064   7.360
    3AU       S  844  41.398  39.687   7.641
    3AU     LIG  845  41.107  39.547   7.343
    3AU     LIG  846  40.718  39.375   7.132
    3AU       S  847  41.453  40.156   7.833
    3AU     LIG  848  41.168  40.455   7.825
    3AU     LIG  849  40.733  40.551   7.876
    3AU    AUSL  850  43.315  39.550   7.445
    3AU    AUSL  851  43.185  39.697   7.837
    3AU     AUL  852  43.511  39.575   7.870
    3AU       S  853  43.616  39.385   7.447
    3AU     LIG  854  43.834  39.002   7.442
    3AU     LIG  855  44.259  38.877   7.550
    3AU       S  856  43.676  39.105   7.910
    3AU     LIG  857  43.869  38.850   8.254
    3AU     LIG  858  44.023  38.582   8.613
    3AU    AUSL  859  43.510  39.862   7.214
    3AU    AUSL  860  43.214  39.278   7.145
    3AU     AUL  861  43.450  39.527   7.041
    3AU       S  862  43.832  39.626   7.281
    3AU     LIG  863  44.201  39.323   7.253
    3AU     LIG  864  44.616  39.071   7.159
    3AU       S  865  43.352  39.082   6.909
    3AU     LIG  866  43.557  38.642   6.804
    3AU     LIG  867  43.797  38.299   6.571
    3AU    AUSL  868  41.998  39.505   7.483
    3AU    AUSL  869  41.902  39.637   7.070
    3AU     AUL  870  41.637  39.418   7.306
    3AU       S  871  41.748  39.491   6.865
    3AU     LIG  872  41.314  39.368   6.908
    3AU     LIG  873  41.254  39.082   6.569
    3AU       S  874  41.363  39.666   7.804
    3AU     LIG  875  41.282  39.203   7.685
    3AU     LIG  876  40.849  39.125   7.573
    3AU    AUSL  877  41.848  39.789   7.770
    3AU    AUSL  878  42.072  39.184   7.733
    3AU     AUL  879  41.757  39.374   7.747
    3AU       S  880  41.921  38.927   7.826
    3AU     LIG  881  41.475  38.710   7.921
    3AU     LIG  882  41.195  38.493   8.256
    3AU       S  883  41.517  39.710   7.964
    3AU     LIG  884  41.018  39.470   8.055
    3AU     LIG  885  40.694  39.630   7.749
    3AU    AUSL  886  42.556  40.633   7.953
    3AU    AUSL  887  42.130  40.604   7.868
    3AU     AUL  888  42.364  40.662   8.247
    3AU       S  889  42.006  40.824   8.001
    3AU     LIG  890  41.567  40.900   8.163
    3AU     LIG  891  41.215  41.166   8.309
    3AU       S  892  42.525  41.049   8.009
    3AU     LIG  893  42.698  41.428   8.302
    3AU     LIG  894  42.872  41.838   8.525
    3AU    AUSL  895  42.372  40.835   7.610
    3AU    AUSL  896  42.715  40.874   7.275
    3AU     AUL  897  42.424  41.109   7.380
    3AU       S  898  42.585  41.245   7.829
    3AU     LIG  899  42.431  41.627   7.915
    3AU     LIG  900  42.466  41.936   8.231
    3AU       S  901  42.661  41.099   6.953
    3AU     LIG  902  42.874  41.457   7.080
    3AU     LIG  903  43.147  41.697   6.792
    3AU    AUSL  904  42.831  40.824   7.675
    3AU    AUSL  905  42.825  40.495   8.243
    3AU     AUL  906  42.911  40.777   8.046
    3AU       S  907  43.029  40.592   8.484
    3AU     LIG  908  43.383  40.613   8.830
    3AU     LIG  909  43.782  40.812   8.683
    3AU       S  910  42.792  41.091   7.715
    3AU     LIG  911  43.053  41.390   7.937
    3AU     LIG  912  42.948  41.844   8.016
    3AU    AUSL  913  42.653  39.197   8.094
    3AU    AUSL  914  43.212  39.241   7.714
    3AU     AUL  915  42.979  39.026   8.005
    3AU       S  916  42.523  38.688   8.092
    3AU     LIG  917  42.425  38.348   8.380
    3AU     LIG  918  42.442  38.017   8.727
    3AU       S  919  43.403  39.075   7.767
    3AU     LIG  920  43.525  38.614   7.921
    3AU     LIG  921  43.832  38.344   8.199
    3AU    AUSL  922  42.467  39.052   7.725
    3AU    AUSL  923  42.379  39.459   7.930
    3AU     AUL  924  42.293  39.128   8.077
    3AU       S  925  42.422  38.769   7.808
    3AU     LIG  926  42.260  38.382   7.770
    3AU     LIG  927  42.434  38.030   7.987
    3AU       S  928  41.934  38.805   8.109
    3AU     LIG  929  41.915  38.952   8.562
    3AU     LIG  930  41.591  38.840   8.875
    3AU    AUSL  931  42.807  39.294   7.668
    3AU    AUSL  932  42.439  39.147   7.317
    3AU     AUL  933  42.764  38.947   7.514
    3AU       S  934  42.304  38.818   7.334
    3AU     LIG  935  41.983  38.462   7.301
    3AU     LIG  936  41.933  38.054   7.037
    3AU       S  937  42.683  38.636   7.888
    3AU     LIG  938  43.001  38.412   8.073
    3AU     LIG  939  42.897  38.132   8.405
    3AU    AUSL  940  42.660  40.606   6.949
    3AU    AUSL  941  42.971  40.535   7.276
    3AU     AUL  942  43.020  40.812   7.050
    3AU       S  943  42.678  40.827   6.713
    3AU     LIG  944  42.881  41.308   6.553
    3AU     LIG  945  42.751  41.792   6.481
    3AU       S  946  43.680  40.575   6.839
    3AU     LIG  947  43.681  40.996   6.601
    3AU     LIG  948  43.783  41.430   6.437
    3AU    AUSL  949  42.404  40.565   7.298
    3AU    AUSL  950  42.292  40.488   6.808
    3AU     AUL  951  42.300  40.801   7.031
    3AU       S  952  42.475  41.057   6.665
    3AU     LIG  953  42.437  41.515   6.795
    3AU     LIG  954  42.563  41.932   6.950
    3AU       S  955  42.062  40.614   6.644
    3AU     LIG  956  41.810  40.760   6.309
    3AU     LIG  957  41.642  41.157   6.111
    3AU    AUSL  958  42.585  39.214   6.902
    3AU    AUSL  959  42.051  39.231   7.166
    3AU     AUL  960  42.292  39.091   6.949
    3AU       S  961  41.825  39.189   6.918
    3AU     LIG  962  41.550  38.862   6.986
    3AU     LIG  963  41.308  38.596   6.708
    3AU       S  964  42.539  38.697   7.131
    3AU     LIG  965  42.304  38.396   6.897
    3AU     LIG  966  42.288  38.030   6.624
    3AU    AUSL  967  42.820  39.330   7.254
    3AU    AUSL  968  42.942  39.423   6.830
    3AU     AUL  969  42.892  39.061   7.033
    3AU       S  970  42.497  38.563   7.350
    3AU     LIG  971  42.762  38.222   7.084
    3AU     LIG  972  42.800  37.933   6.688
    3AU       S  973  43.140  39.287   6.667
    3AU     LIG  974  43.211  39.179   6.205
    3AU     LIG  975  43.451  38.791   6.066
    4AU     AUC  976  35.882  38.140   7.505
    4AU     AUC  977  36.186  38.177   7.339
    4AU     AUC  978  36.158  38.158   7.677
    4AU     AUC  979  35.595  38.123   7.334
    4AU     AUC  980  35.592  38.124   7.685
    4AU     AUC  981  35.691  38.386   7.519
    4AU     AUC  982  36.032  38.415   7.507
    4AU     AUC  983  35.723  37.856   7.506
    4AU     AUC  984  36.085  37.904   7.501
    4AU     AUC  985  35.913  37.972   7.777
    4AU     AUC  986  35.860  38.299   7.784
    4AU     AUC  987  35.905  37.981   7.228
    4AU     AUC  988  35.902  38.315   7.232
    4AU     AUC  989  36.496  38.204   7.190
    4AU     AUC  990  36.530  38.198   7.510
    4AU     AUC  991  36.459  38.163   7.876
    4AU     AUC  992  35.298  38.101   7.157
    4AU     AUC  993  35.258  38.145   7.523
    4AU     AUC  994  35.307  38.113   7.860
    4AU     AUC  995  35.520  38.687   7.499
    4AU     AUC  996  35.864  38.748   7.493
    4AU     AUC  997  36.179  38.731   7.518
    4AU     AUC  998  35.552  37.538   7.508
    4AU     AUC  999  35.897  37.577   7.508
    4AU     AUC 1000  36.290  37.624   7.479
    4AU     AUC 1001  35.924  37.752   8.064
    4AU     AUC 1002  35.871  38.075   8.104
    4AU     AUC 1003  35.868  38.453   8.070
    4AU     AUC 1004  35.908  37.788   6.938
    4AU     AUC 1005  35.905  38.131   6.919
    4AU     AUC 1006  35.922  38.489   6.935
    4AU     AUC 1007  36.209  37.922   7.976
    4AU     AUC 1008  36.178  38.286   8.018
    4AU     AUC 1009  36.200  37.994   7.025
    4AU     AUC 1010  36.223  38.355   7.014
    4AU     AUC 1011  35.583  37.913   7.986
    4AU     AUC 1012  35.578  38.275   7.994
    4AU     AUC 1013  35.566  37.925   7.050
    4AU     AUC 1014  35.573  38.296   7.022
    4AU     AUC 1015  36.388  38.471   7.364
    4AU     AUC 1016  36.325  38.442   7.719
    4AU     AUC 1017  35.403  38.410   7.303
    4AU     AUC 1018  35.380  38.430   7.694
    4AU     AUC 1019  36.403  37.893   7.318
    4AU     AUC 1020  36.410  37.872   7.646
    4AU     AUC 1021  35.367  37.836   7.351
    4AU     AUC 1022  35.400  37.837   7.681
    4AU     AUC 1023  35.679  38.617   7.791
    4AU     AUC 1024  36.015  38.618   7.811
    4AU     AUC 1025  35.701  37.630   7.780
    4AU     AUC 1026  36.112  37.654   7.808
    4AU     AUC 1027  35.696  38.576   7.175
    4AU     AUC 1028  36.089  38.618   7.182
    4AU     AUC 1029  35.690  37.654   7.226
    4AU     AUC 1030  36.083  37.685   7.183
    4AU    AUSL 1031  36.456  38.062   8.236
    4AU    AUSL 1032  36.319  37.599   8.106
    4AU     AUL 1033  36.586  37.673   8.304
    4AU       S 1034  36.751  37.295   8.097
    4AU     LIG 1035  36.694  37.004   8.402
    4AU     LIG 1036  36.984  36.715   8.624
    4AU       S 1037  36.702  38.111   8.381
    4AU     LIG 1038  36.707  38.328   8.766
    4AU     LIG 1039  36.804  38.116   9.163
    4AU    AUSL 1040  36.060  37.878   8.312
    4AU    AUSL 1041  35.723  38.206   8.380
    4AU     AUL 1042  35.902  38.063   8.645
    4AU       S 1043  36.308  37.840   8.622
    4AU     LIG 1044  36.307  38.067   8.976
    4AU     LIG 1045  36.364  37.951   9.416
    4AU       S 1046  35.188  38.006   8.679
    4AU     LIG 1047  35.381  38.348   8.962
    4AU     LIG 1048  35.322  38.437   9.418
    4AU    AUSL 1049  36.075  38.295   8.181
    4AU    AUSL 1050  36.482  38.482   8.148
    4AU     AUL 1051  36.289  38.308   8.475
    4AU       S 1052  35.903  38.560   8.623
    4AU     LIG 1053  36.267  38.576   8.907
    4AU     LIG 1054  36.450  38.458   9.302
    4AU       S 1055  36.596  38.645   8.362
    4AU     LIG 1056  36.981  38.651   8.438
    4AU     LIG 1057  37.159  39.055   8.411
    4AU    AUSL 1058  36.459  38.241   6.778
    4AU    AUSL 1059  36.341  38.680   6.841
    4AU     AUL 1060  36.483  38.533   6.515
    4AU       S 1061  36.380  38.116   6.322
    4AU     LIG 1062  36.707  38.163   5.992
    4AU     LIG 1063  36.845  37.920   5.610
    4AU       S 1064  36.718  38.800   6.811
    4AU     LIG 1065  36.559  39.077   6.569
    4AU     LIG 1066  36.731  39.476   6.396
    4AU    AUSL 1067  36.117  37.989   6.736
    4AU    AUSL 1068  36.438  37.917   7.065
    4AU     AUL 1069  36.548  37.937   6.708
    4AU       S 1070  36.533  37.167   6.729
    4AU     LIG 1071  36.934  37.260   6.550
    4AU     LIG 1072  37.238  37.130   6.226
    4AU       S 1073  36.189  37.785   6.409
    4AU     LIG 1074  36.130  37.559   5.956
    4AU     LIG 1075  36.386  37.667   5.555
    4AU    AUSL 1076  36.054  38.418   6.664
    4AU    AUSL 1077  35.735  37.861   6.626
    4AU     AUL 1078  35.920  38.165   6.430
    4AU       S 1079  35.551  37.882   6.313
    4AU     LIG 1080  35.620  37.742   5.871
    4AU     LIG 1081  35.415  37.571   5.474
    4AU       S 1082  36.401  37.846   6.248
    4AU     LIG 1083  36.218  38.051   5.857
    4AU     LIG 1084  36.425  38.204   5.471
    4AU    AUSL 1085  35.362  38.081   8.183
    4AU    AUSL 1086  35.606  38.539   8.153
    4AU     AUL 1087  35.461  38.391   8.457
    4AU       S 1088  35.125  38.073   8.370
    4AU     LIG 1089  34.967  38.442   8.648
    4AU     LIG 1090  34.891  38.340   9.117
    4AU       S 1091  35.206  38.762   8.291
    4AU     LIG 1092  35.083  39.134   8.509
    4AU     LIG 1093  34.899  39.424   8.847
    4AU    AUSL 1094  35.645  37.779   8.353
    4AU    AUSL 1095  35.250  37.688   8.045
    4AU     AUL 1096  35.323  37.652   8.336
    4AU       S 1097  35.074  37.283   8.150
    4AU     LIG 1098  34.682  37.047   8.346
    4AU     LIG 1099  34.302  36.790   8.547
    4AU       S 1100  35.431  37.948   8.664
    4AU     LIG 1101  35.601  37.898   9.065
    4AU     LIG 1102  35.387  37.919   9.479
    4AU    AUSL 1103  35.357  38.019   6.760
    4AU    AUSL 1104  35.615  37.715   7.009
    4AU     AUL 1105  35.468  37.627   6.694
    4AU       S 1106  35.170  37.947   6.492
    4AU     LIG 1107  34.889  38.036   6.111
    4AU     LIG 1108  35.046  37.924   5.678
    4AU       S 1109  35.016  37.440   6.695
    4AU     LIG 1110  35.100  36.968   6.663
    4AU     LIG 1111  34.855  36.580   6.674
    4AU    AUSL 1112  35.708  38.263   6.831
    4AU    AUSL 1113  35.261  38.400   6.915
    4AU     AUL 1114  35.465  38.305   6.552
    4AU       S 1115  35.085  38.540   6.714
    4AU     LIG 1116  34.702  38.832   6.682
    4AU     LIG 1117  34.340  39.155   6.610
    4AU       S 1118  35.296  37.809   6.264
    4AU     LIG 1119  35.358  38.208   5.995
    4AU     LIG 1120  35.300  38.380   5.555
    4AU    AUSL 1121  36.563  38.754   7.561
    4AU    AUSL 1122  36.569  38.461   7.126
    4AU     AUL 1123  36.724  38.847   7.278
    4AU       S 1124  36.823  38.504   6.949
    4AU     LIG 1125  36.964  38.429   6.525
    4AU     LIG 1126  36.974  38.858   6.344
    4AU       S 1127  37.077  38.726   7.943
    4AU     LIG 1128  37.457  38.919   7.731
    4AU     LIG 1129  37.761  39.020   7.382
    4AU    AUSL 1130  36.836  38.420   7.442
    4AU    AUSL 1131  36.842  38.035   7.688
    4AU     AUL 1132  37.143  38.214   7.542
    4AU       S 1133  37.014  38.644   7.661
    4AU     LIG 1134  37.354  38.619   7.324
    4AU     LIG 1135  37.825  38.522   7.193
    4AU       S 1136  37.120  37.730   7.566
    4AU     LIG 1137  37.452  37.416   7.730
    4AU     LIG 1138  37.907  37.475   7.903
    4AU    AUSL 1139  36.573  38.354   7.764
    4AU    AUSL 1140  36.244  38.659   7.821
    4AU     AUL 1141  36.596  38.757   7.899
    4AU       S 1142  36.582  38.964   8.338
    4AU     LIG 1143  36.768  39.348   8.190
    4AU     LIG 1144  37.196  39.552   8.265
    4AU       S 1145  36.931  38.427   7.943
    4AU     LIG 1146  37.442  38.400   7.891
    4AU     LIG 1147  37.847  38.555   7.706
    4AU    AUSL 1148  35.223  38.641   7.531
    4AU    AUSL 1149  35.236  38.421   7.953
    4AU     AUL 1150  34.957  38.763   7.790
    4AU       S 1151  35.101  38.509   8.155
    4AU     LIG 1152  34.717  38.762   8.275
    4AU     LIG 1153  34.605  39.009   8.661
    4AU       S 1154  35.171  39.053   7.486
    4AU     LIG 1155  34.705  38.997   7.347
    4AU     LIG 1156  34.265  39.227   7.428
    4AU    AUSL 1157  35.149  38.278   7.294
    4AU    AUSL 1158  35.309  38.771   7.140
    4AU     AUL 1159  35.004  38.605   7.192
    4AU       S 1160  34.855  38.155   6.945
    4AU     LIG 1161  34.532  38.516   7.041
    4AU     LIG 1162  34.187  38.802   7.152
    4AU       S 1163  35.133  38.984   6.917
    4AU     LIG 1164  34.818  39.322   6.785
    4AU     LIG 1165  34.570  39.665   6.565
    4AU    AUSL 1166  34.938  38.331   7.669
    4AU    AUSL 1167  34.933  37.936   7.407
    4AU     AUL 1168  34.759  38.254   7.391
    4AU       S 1169  34.696  37.871   7.666
    4AU     LIG 1170  34.431  37.853   7.323
    4AU     LIG 1171  34.046  37.630   7.231
    4AU       S 1172  34.707  38.372   7.872
    4AU     LIG 1173  34.459  38.617   7.598
    4AU     LIG 1174  34.045  38.824   7.653
    4AU    AUSL 1175  36.614  37.746   7.465
    4AU    AUSL 1176  36.474  37.900   7.851
    4AU     AUL 1177  36.795  37.779   7.897
    4AU       S 1178  36.899  37.602   7.473
    4AU     LIG 1179  37.018  37.247   7.361
    4AU     LIG 1180  37.400  37.097   7.191
    4AU       S 1181  36.984  37.311   7.894
    4AU     LIG 1182  37.187  37.084   8.263
    4AU     LIG 1183  37.400  37.036   8.683
    4AU    AUSL 1184  36.799  38.054   7.226
    4AU    AUSL 1185  36.502  37.465   7.177
    4AU     AUL 1186  36.740  37.716   7.057
    4AU       S 1187  37.114  37.803   7.312
    4AU     LIG 1188  37.537  37.614   7.271
    4AU     LIG 1189  37.906  37.567   7.016
    4AU       S 1190  36.641  37.264   6.980
    4AU     LIG 1191  36.951  36.922   6.948
    4AU     LIG 1192  37.075  36.728   6.541
    4AU    AUSL 1193  35.290  37.697   7.505
    4AU    AUSL 1194  35.192  37.827   7.091
    4AU     AUL 1195  34.930  37.613   7.331
    4AU       S 1196  35.024  37.679   6.881
    4AU     LIG 1197  34.589  37.517   6.950
    4AU     LIG 1198  34.476  37.168   6.654
    4AU       S 1199  34.596  37.690   7.789
    4AU     LIG 1200  34.513  37.350   7.466
    4AU     LIG 1201  34.436  36.880   7.437
    4AU    AUSL 1202  35.140  37.987   7.785
    4AU    AUSL 1203  35.367  37.380   7.761
    4AU     AUL 1204  35.059  37.561   7.772
    4AU       S 1205  35.223  37.116   7.849
    4AU     LIG 1206  34.801  36.882   7.865
    4AU     LIG 1207  34.543  36.582   8.142
    4AU       S 1208  34.790  37.914   7.905
    4AU     LIG 1209  34.279  38.064   7.825
    4AU     LIG 1210  33.928  37.731   7.729
    4AU    AUSL 1211  35.844  38.832   7.949
    4AU    AUSL 1212  35.416  38.806   7.871
    4AU     AUL 1213  35.659  38.869   8.246
    4AU       S 1214  35.295  39.016   7.995
    4AU     LIG 1215  34.870  39.212   8.045
    4AU     LIG 1216  34.665  39.457   8.395
    4AU       S 1217  35.806  39.244   7.990
    4AU     LIG 1218  36.131  39.415   8.268
    4AU     LIG 1219  36.292  39.828   8.367
    4AU    AUSL 1220  35.657  39.025   7.602
    4AU    AUSL 1221  36.005  39.065   7.268
    4AU     AUL 1222  35.704  39.296   7.378
    4AU       S 1223  35.876  39.476   7.821
    4AU     LIG 1224  35.965  39.923   7.937
    4AU     LIG 1225  35.818  40.386   8.010
    4AU       S 1226  35.966  39.294   6.975
    4AU     LIG 1227  36.297  39.551   7.094
    4AU     LIG 1228  36.246  40.001   7.195
    4AU    AUSL 1229  36.117  39.023   7.670
    4AU    AUSL 1230  36.116  38.704   8.240
    4AU     AUL 1231  36.200  38.980   8.033
    4AU       S 1232  36.327  38.812   8.473
    4AU     LIG 1233  36.662  38.965   8.807
    4AU     LIG 1234  36.881  39.398   8.701
    4AU       S 1235  36.070  39.297   7.709
    4AU     LIG 1236  36.395  39.588   7.862
    4AU     LIG 1237  36.471  40.036   7.939
    4AU    AUSL 1238  35.947  37.404   8.124
    4AU    AUSL 1239  36.501  37.440   7.732
    4AU     AUL 1240  36.277  37.231   8.031
    4AU       S 1241  35.873  36.878   8.087
    4AU     LIG 1242  35.786  36.436   8.270
    4AU     LIG 1243  35.612  35.998   8.358
    4AU       S 1244  36.695  37.276   7.780
    4AU     LIG 1245  36.872  36.824   7.918
    4AU     LIG 1246  37.170  36.560   8.166
    4AU    AUSL 1247  35.762  37.247   7.758
    4AU    AUSL 1248  35.670  37.659   7.953
    4AU     AUL 1249  35.589  37.322   8.104
    4AU       S 1250  35.710  36.951   7.844
    4AU     LIG 1251  35.432  36.626   7.962
    4AU     LIG 1252  35.421  36.169   7.903
    4AU       S 1253  35.196  37.033   8.143
    4AU     LIG 1254  35.027  36.660   8.345
    4AU     LIG 1255  34.707  36.492   8.650
    4AU    AUSL 1256  36.097  37.493   7.695
    4AU    AUSL 1257  35.722  37.341   7.349
    4AU     AUL 1258  36.048  37.138   7.550
    4AU       S 1259  35.584  37.030   7.378
    4AU     LIG 1260  35.240  36.917   7.155
    4AU     LIG 1261  35.193  36.481   7.047
    4AU       S 1262  35.914  36.745   7.824
    4AU     LIG 1263  35.919  36.296   7.803
    4AU     LIG 1264  36.076  35.987   8.091
    4AU    AUSL 1265  35.952  38.796   6.941
    4AU    AUSL 1266  36.259  38.725   7.275
    4AU     AUL 1267  36.318  38.995   7.042
    4AU       S 1268  35.968  39.034   6.716
    4AU     LIG 1269  36.232  39.454   6.577
    4AU     LIG 1270  36.292  39.903   6.691
    4AU       S 1271  37.010  38.774   6.883
    4AU     LIG 1272  37.020  39.258   6.777
    4AU     LIG 1273  37.284  39.686   6.699
    4AU    AUSL 1274  35.696  38.754   7.291
    4AU    AUSL 1275  35.581  38.668   6.813
    4AU     AUL 1276  35.594  38.988   7.020
    4AU       S 1277  35.791  39.344   6.758
    4AU     LIG 1278  35.836  39.790   6.962
    4AU     LIG 1279  35.880  40.278   6.940
    4AU       S 1280  35.341  38.794   6.649
    4AU     LIG 1281  35.076  39.042   6.397
    4AU     LIG 1282  34.703  39.269   6.256
    4AU    AUSL 1283  35.871  37.396   6.932
    4AU    AUSL 1284  35.339  37.422   7.187
    4AU     AUL 1285  35.580  37.276   6.978
    4AU       S 1286  35.108  37.368   6.961
    4AU     LIG 1287  34.763  37.054   7.070
    4AU     LIG 1288  34.443  36.736   6.934
    4AU       S 1289  35.806  36.875   7.203
    4AU     LIG 1290  35.593  36.786   6.821
    4AU     LIG 1291  35.366  36.489   6.554
    4AU    AUSL 1292  36.107  37.516   7.281
    4AU    AUSL 1293  36.230  37.601   6.857
    4AU     AUL 1294  36.175  37.242   7.064
    4AU       S 1295  35.644  36.731   7.391
    4AU     LIG 1296  35.945  36.369   7.299
    4AU     LIG 1297  36.176  35.976   7.125
    4AU       S 1298  36.432  37.458   6.702
    4AU     LIG 1299  36.508  37.337   6.258
    4AU     LIG 1300  36.754  36.954   6.142
    5AU     AUC 1301  42.663  12.807   7.519
    5AU     AUC 1302  42.965  12.833   7.353
    5AU     AUC 1303  42.924  12.838   7.693
    5AU     AUC 1304  42.383  12.787   7.343
    5AU     AUC 1305  42.385  12.803   7.695
    5AU     AUC 1306  42.474  13.058   7.532
    5AU     AUC 1307  42.818  13.084   7.516
    5AU     AUC 1308  42.500  12.518   7.497
    5AU     AUC 1309  42.859  12.565   7.523
    5AU     AUC 1310  42.665  12.640   7.798
    5AU     AUC 1311  42.643  12.994   7.801
    5AU     AUC 1312  42.695  12.648   7.233
    5AU     AUC 1313  42.679  12.966   7.247
    5AU     AUC 1314  43.286  12.848   7.208
    5AU     AUC 1315  43.305  12.858   7.534
    5AU     AUC 1316  43.219  12.849   7.903
    5AU     AUC 1317  42.079  12.790   7.167
    5AU     AUC 1318  42.060  12.795   7.533
    5AU     AUC 1319  42.100  12.790   7.886
    5AU     AUC 1320  42.302  13.377   7.506
    5AU     AUC 1321  42.657  13.429   7.482
    5AU     AUC 1322  42.969  13.400   7.497
    5AU     AUC 1323  42.334  12.205   7.469
    5AU     AUC 1324  42.675  12.199   7.443
    5AU     AUC 1325  43.053  12.268   7.497
    5AU     AUC 1326  42.666  12.446   8.071
    5AU     AUC 1327  42.632  12.789   8.105
    5AU     AUC 1328  42.640  13.187   8.062
    5AU     AUC 1329  42.721  12.466   6.933
    5AU     AUC 1330  42.680  12.789   6.913
    5AU     AUC 1331  42.689  13.131   6.935
    5AU     AUC 1332  42.952  12.623   8.005
    5AU     AUC 1333  42.942  12.994   8.035
    5AU     AUC 1334  43.009  12.621   7.042
    5AU     AUC 1335  43.006  12.979   7.034
    5AU     AUC 1336  42.354  12.580   8.019
    5AU     AUC 1337  42.346  12.992   7.992
    5AU     AUC 1338  42.375  12.639   7.041
    5AU     AUC 1339  42.358  12.959   7.017
    5AU     AUC 1340  43.164  13.126   7.360
    5AU     AUC 1341  43.102  13.121   7.719
    5AU     AUC 1342  42.168  13.097   7.342
    5AU     AUC 1343  42.172  13.119   7.705
    5AU     AUC 1344  43.187  12.545   7.359
    5AU     AUC 1345  43.166  12.549   7.681
    5AU     AUC 1346  42.145  12.490   7.345
    5AU     AUC 1347  42.217  12.490   7.696
    5AU     AUC 1348  42.470  13.330   7.792
    5AU     AUC 1349  42.805  13.315   7.802
    5AU     AUC 1350  42.515  12.318   7.767
    5AU     AUC 1351  42.877  12.319   7.764
    5AU     AUC 1352  42.487  13.226   7.209
    5AU     AUC 1353  42.867  13.268   7.170
    5AU     AUC 1354  42.470  12.333   7.198
    5AU     AUC 1355  42.879  12.347   7.188
    5AU    AUSL 1356  43.206  12.762   8.276
    5AU    AUSL 1357  43.020  12.284   8.176
    5AU     AUL 1358  43.308  12.356   8.374
    5AU       S 1359  43.418  11.967   8.145
    5AU     LIG 1360  43.366  11.745   8.501
    5AU     LIG 1361  43.460  11.424   8.837
    5AU       S 1362  43.444  12.791   8.379
    5AU     LIG 1363  43.377  12.802   8.819
    5AU     LIG 1364  43.477  12.625   9.229
    5AU    AUSL 1365  42.785  12.609   8.316
    5AU    AUSL 1366  42.448  12.950   8.251
    5AU     AUL 1367  42.627  12.853   8.609
    5AU       S 1368  42.974  12.550   8.615
    5AU     LIG 1369  42.901  12.673   9.021
    5AU     LIG 1370  43.006  12.624   9.465
    5AU       S 1371  42.016  12.903   8.811
    5AU     LIG 1372  42.365  13.101   8.981
    5AU     LIG 1373  42.628  12.971   9.345
    5AU    AUSL 1374  42.852  13.027   8.234
    5AU    AUSL 1375  43.258  13.174   8.147
    5AU     AUL 1376  43.067  13.035   8.503
    5AU       S 1377  42.663  13.316   8.589
    5AU     LIG 1378  42.878  13.181   8.942
    5AU     LIG 1379  43.192  13.059   9.235
    5AU       S 1380  43.389  13.321   8.320
    5AU     LIG 1381  43.771  13.284   8.448
    5AU     LIG 1382  44.005  13.668   8.467
    5AU    AUSL 1383  43.247  12.863   6.777
    5AU    AUSL 1384  43.086  13.289   6.820
    5AU     AUL 1385  43.147  13.138   6.498
    5AU       S 1386  43.283  12.706   6.345
    5AU     LIG 1387  43.578  12.803   6.009
    5AU     LIG 1388  43.554  12.774   5.545
    5AU       S 1389  43.445  13.384   6.760
    5AU     LIG 1390  43.214  13.651   6.488
    5AU     LIG 1391  43.362  13.949   6.192
    5AU    AUSL 1392  42.952  12.558   6.721
    5AU    AUSL 1393  43.242  12.575   7.103
    5AU     AUL 1394  43.397  12.571   6.765
    5AU       S 1395  43.512  11.880   6.876
    5AU     LIG 1396  43.798  12.088   6.601
    5AU     LIG 1397  43.874  11.970   6.151
    5AU       S 1398  43.054  12.387   6.458
    5AU     LIG 1399  42.831  12.374   6.037
    5AU     LIG 1400  43.080  12.369   5.608
    5AU    AUSL 1401  42.814  12.959   6.817
    5AU    AUSL 1402  42.541  12.598   6.635
    5AU     AUL 1403  42.829  12.795   6.460
    5AU       S 1404  42.430  12.611   6.288
    5AU     LIG 1405  42.317  12.440   5.862
    5AU     LIG 1406  42.008  12.484   5.509
    5AU       S 1407  43.261  12.474   6.263
    5AU     LIG 1408  43.078  12.796   5.905
    5AU     LIG 1409  43.055  12.880   5.431
    5AU    AUSL 1410  42.040  12.798   8.220
    5AU    AUSL 1411  42.373  13.356   8.201
    5AU     AUL 1412  42.243  13.103   8.446
    5AU       S 1413  41.879  12.825   8.578
    5AU     LIG 1414  41.821  12.522   9.024
    5AU     LIG 1415  41.438  12.278   9.136
    5AU       S 1416  42.042  13.501   8.272
    5AU     LIG 1417  41.988  13.625   8.673
    5AU     LIG 1418  41.693  13.988   8.788
    5AU    AUSL 1419  42.367  12.554   8.379
    5AU    AUSL 1420  42.058  12.392   8.085
    5AU     AUL 1421  42.005  12.415   8.385
    5AU       S 1422  42.005  11.982   8.172
    5AU     LIG 1423  41.661  11.818   8.494
    5AU     LIG 1424  41.344  11.844   8.880
    5AU       S 1425  42.192  12.692   8.700
    5AU     LIG 1426  42.368  12.597   9.072
    5AU     LIG 1427  42.158  12.668   9.461
    5AU    AUSL 1428  42.190  12.769   6.820
    5AU    AUSL 1429  42.400  12.409   6.991
    5AU     AUL 1430  42.228  12.409   6.664
    5AU       S 1431  42.144  12.676   6.295
    5AU     LIG 1432  41.817  12.601   5.988
    5AU     LIG 1433  41.511  12.292   5.791
    5AU       S 1434  41.926  12.003   6.734
    5AU     LIG 1435  41.996  11.573   6.643
    5AU     LIG 1436  41.852  11.273   6.329
    5AU    AUSL 1437  42.466  13.042   6.594
    5AU    AUSL 1438  41.961  13.112   6.933
    5AU     AUL 1439  42.107  13.017   6.598
    5AU       S 1440  41.777  13.327   6.723
    5AU     LIG 1441  41.484  13.480   6.407
    5AU     LIG 1442  41.165  13.720   6.123
    5AU       S 1443  42.328  12.864   6.148
    5AU     LIG 1444  42.222  12.928   5.700
    5AU     LIG 1445  42.132  13.255   5.366
    5AU    AUSL 1446  43.339  13.421   7.530
    5AU    AUSL 1447  43.341  13.097   7.121
    5AU     AUL 1448  43.496  13.488   7.227
    5AU       S 1449  43.610  13.118   6.939
    5AU     LIG 1450  43.649  13.034   6.477
    5AU     LIG 1451  43.650  13.464   6.276
    5AU       S 1452  43.839  13.414   7.958
    5AU     LIG 1453  44.215  13.575   7.739
    5AU     LIG 1454  44.527  13.580   7.390
    5AU    AUSL 1455  43.607  13.077   7.445
    5AU    AUSL 1456  43.596  12.703   7.749
    5AU     AUL 1457  43.908  12.883   7.596
    5AU       S 1458  43.784  13.324   7.658
    5AU     LIG 1459  44.111  13.257   7.328
    5AU     LIG 1460  44.551  13.088   7.207
    5AU       S 1461  43.873  12.410   7.647
    5AU     LIG 1462  44.121  12.079   7.812
    5AU     LIG 1463  44.556  11.932   7.765
    5AU    AUSL 1464  43.338  13.035   7.766
    5AU    AUSL 1465  43.032  13.350   7.811
    5AU     AUL 1466  43.369  13.452   7.874
    5AU       S 1467  43.382  13.620   8.360
    5AU     LIG 1468  43.587  13.884   8.056
    5AU     LIG 1469  43.694  14.356   7.969
    5AU       S 1470  43.694  13.123   7.951
    5AU     LIG 1471  44.170  13.055   7.983
    5AU     LIG 1472  44.534  13.161   7.717
    5AU    AUSL 1473  41.954  13.335   7.550
    5AU    AUSL 1474  42.079  13.126   7.959
    5AU     AUL 1475  41.767  13.414   7.857
    5AU       S 1476  41.833  13.255   8.284
    5AU     LIG 1477  41.506  13.554   8.564
    5AU     LIG 1478  41.191  13.847   8.795
    5AU       S 1479  41.890  13.693   7.500
    5AU     LIG 1480  41.556  13.837   7.296
    5AU     LIG 1481  41.254  14.150   7.382
    5AU    AUSL 1482  41.965  12.967   7.324
    5AU    AUSL 1483  42.113  13.457   7.174
    5AU     AUL 1484  41.780  13.314   7.204
    5AU       S 1485  41.574  12.874   6.992
    5AU     LIG 1486  41.231  13.248   6.958
    5AU     LIG 1487  40.748  13.396   6.935
    5AU       S 1488  41.939  13.714   6.967
    5AU     LIG 1489  41.548  13.868   6.776
    5AU     LIG 1490  41.412  14.085   6.389
    5AU    AUSL 1491  41.759  12.976   7.728
    5AU    AUSL 1492  41.729  12.630   7.387
    5AU     AUL 1493  41.594  12.972   7.444
    5AU       S 1494  41.473  12.549   7.608
    5AU     LIG 1495  41.143  12.322   7.315
    5AU     LIG 1496  40.700  12.502   7.301
    5AU       S 1497  41.517  13.023   7.928
    5AU     LIG 1498  40.975  13.343   7.833
    5AU     LIG 1499  40.591  13.173   7.970
    5AU    AUSL 1500  43.386  12.406   7.523
    5AU    AUSL 1501  43.211  12.581   7.903
    5AU     AUL 1502  43.529  12.442   7.962
    5AU       S 1503  43.682  12.249   7.560
    5AU     LIG 1504  43.799  11.847   7.476
    5AU     LIG 1505  44.219  11.631   7.493
    5AU       S 1506  43.635  11.942   7.957
    5AU     LIG 1507  43.850  12.017   8.369
    5AU     LIG 1508  43.796  11.835   8.798
    5AU    AUSL 1509  43.600  12.687   7.279
    5AU    AUSL 1510  43.268  12.084   7.284
    5AU     AUL 1511  43.525  12.332   7.138
    5AU       S 1512  43.892  12.461   7.387
    5AU     LIG 1513  44.188  12.132   7.300
    5AU     LIG 1514  44.601  11.922   7.249
    5AU       S 1515  43.425  11.864   7.141
    5AU     LIG 1516  43.486  11.381   7.039
    5AU     LIG 1517  43.708  11.016   6.777
    5AU    AUSL 1518  41.932  12.261   7.512
    5AU    AUSL 1519  41.975  12.499   7.068
    5AU     AUL 1520  41.676  12.308   7.262
    5AU       S 1521  41.837  12.210   6.837
    5AU     LIG 1522  41.480  12.089   6.523
    5AU     LIG 1523  41.280  11.904   6.135
    5AU       S 1524  41.406  12.385   7.720
    5AU     LIG 1525  41.495  11.985   7.621
    5AU     LIG 1526  41.212  11.623   7.701
    5AU    AUSL 1527  41.973  12.622   7.748
    5AU    AUSL 1528  42.262  12.208   7.765
    5AU     AUL 1529  41.847  12.281   7.847
    5AU       S 1530  42.035  11.862   7.871
    5AU     LIG 1531  41.629  11.635   7.998
    5AU     LIG 1532  41.216  11.639   8.217
    5AU       S 1533  41.483  12.571   7.790
    5AU     LIG 1534  40.955  12.524   7.735
    5AU     LIG 1535  40.646  12.269   7.813
    5AU    AUSL 1536  42.640  13.542   7.917
    5AU    AUSL 1537  42.218  13.512   7.828
    5AU     AUL 1538  42.475  13.678   8.175
    5AU       S 1539  42.079  13.753   7.951
    5AU     LIG 1540  41.685  13.824   8.176
    5AU     LIG 1541  41.232  13.909   8.277
    5AU       S 1542  42.655  14.013   7.897
    5AU     LIG 1543  42.815  14.158   8.263
    5AU     LIG 1544  42.863  14.574   8.472
    5AU    AUSL 1545  42.450  13.751   7.574
    5AU    AUSL 1546  42.805  13.728   7.217
    5AU     AUL 1547  42.525  13.990   7.318
    5AU       S 1548  42.731  14.200   7.730
    5AU     LIG 1549  42.435  14.475   7.979
    5AU     LIG 1550  42.152  14.870   8.040
    5AU       S 1551  42.731  13.935   6.883
    5AU     LIG 1552  42.920  14.250   7.129
    5AU     LIG 1553  42.848  14.702   7.022
    5AU    AUSL 1554  42.915  13.700   7.622
    5AU    AUSL 1555  42.909  13.437   8.220
    5AU     AUL 1556  42.991  13.698   8.001
    5AU       S 1557  43.100  13.522   8.444
    5AU     LIG 1558  43.349  13.346   8.808
    5AU     LIG 1559  43.757  13.505   8.928
    5AU       S 1560  42.912  13.979   7.627
    5AU     LIG 1561  43.191  14.208   7.914
    5AU     LIG 1562  43.135  14.667   8.023
    5AU    AUSL 1563  42.738  12.193   7.869
    5AU    AUSL 1564  43.183  12.159   7.794
    5AU     AUL 1565  42.952  11.948   8.064
    5AU       S 1566  42.407  11.451   7.904
    5AU     LIG 1567  42.391  11.319   8.308
    5AU     LIG 1568  42.231  11.043   8.638
    5AU       S 1569  43.366  11.976   7.814
    5AU     LIG 1570  43.246  11.529   7.980
    5AU     LIG 1571  43.419  11.247   8.349
    5AU    AUSL 1572  42.497  11.894   7.639
    5AU    AUSL 1573  42.453  12.204   8.169
    5AU     AUL 1574  42.486  11.931   8.001
    5AU       S 1575  42.390  11.602   7.670
    5AU     LIG 1576  42.532  11.199   7.510
    5AU     LIG 1577  42.334  10.930   7.845
    5AU       S 1578  42.079  11.727   8.165
    5AU     LIG 1579  42.140  11.707   8.616
    5AU     LIG 1580  41.795  11.553   8.921
    5AU    AUSL 1581  42.925  11.911   7.577
    5AU    AUSL 1582  42.533  11.948   7.222
    5AU     AUL 1583  42.763  11.693   7.409
    5AU       S 1584  42.347  11.652   7.173
    5AU     LIG 1585  42.074  11.306   7.076
    5AU     LIG 1586  42.040  10.891   6.873
    5AU       S 1587  42.694  11.503   7.875
    5AU     LIG 1588  42.801  11.075   7.975
    5AU     LIG 1589  42.971  10.647   7.888
    5AU    AUSL 1590  42.701  13.449   6.905
    5AU    AUSL 1591  43.033  13.375   7.246
    5AU     AUL 1592  43.078  13.630   6.979
    5AU       S 1593  42.699  13.634   6.668
    5AU     LIG 1594  42.862  14.014   6.398
    5AU     LIG 1595  42.602  14.410   6.365
    5AU       S 1596  43.749  13.375   6.822
    5AU     LIG 1597  43.662  13.823   6.689
    5AU     LIG 1598  43.808  14.137   6.387
    5AU    AUSL 1599  42.505  13.429   7.323
    5AU    AUSL 1600  42.382  13.190   6.972
    5AU     AUL 1601  42.389  13.620   7.037
    5AU       S 1602  42.479  13.937   6.693
    5AU     LIG 1603  42.483  14.382   6.863
    5AU     LIG 1604  42.363  14.791   6.664
    5AU       S 1605  42.128  13.483   6.684
    5AU     LIG 1606  41.931  13.805   6.442
    5AU     LIG 1607  41.682  13.797   6.052
    5AU    AUSL 1608  42.700  12.151   6.866
    5AU    AUSL 1609  42.153  12.116   7.187
    5AU     AUL 1610  42.388  12.023   6.873
    5AU       S 1611  41.952  11.972   7.061
    5AU     LIG 1612  41.606  11.697   6.942
    5AU     LIG 1613  41.468  11.576   6.534
    5AU       S 1614  42.469  11.553   6.879
    5AU     LIG 1615  42.357  11.201   6.625
    5AU     LIG 1616  42.484  10.764   6.596
    5AU    AUSL 1617  42.870  12.206   7.285
    5AU    AUSL 1618  43.111  12.219   6.906
    5AU     AUL 1619  42.965  11.915   7.041
    5AU       S 1620  42.560  11.430   7.059
    5AU     LIG 1621  42.591  10.982   7.049
    5AU     LIG 1622  42.888  10.640   6.942
    5AU       S 1623  43.323  12.076   6.780
    5AU     LIG 1624  43.365  11.972   6.343
    5AU     LIG 1625  43.470  11.645   6.020
    6AU     AUC 1626  27.666   8.093   7.503
    6AU     AUC 1627  27.971   8.135   7.340
    6AU     AUC 1628  27.943   8.108   7.677
    6AU     AUC 1629  27.382   8.079   7.331
    6AU     AUC 1630  27.373   8.073   7.681
    6AU     AUC 1631  27.475   8.338   7.520
    6AU     AUC 1632  27.817   8.369   7.512
    6AU     AUC 1633  27.506   7.810   7.500
    6AU     AUC 1634  27.869   7.858   7.494
    6AU     AUC 1635  27.696   7.921   7.772
    6AU     AUC 1636  27.643   8.247   7.783
    6AU     AUC 1637  27.691   7.939   7.224
    6AU     AUC 1638  27.689   8.275   7.235
    6AU     AUC 1639  28.281   8.167   7.192
    6AU     AUC 1640  28.313   8.152   7.511
    6AU     AUC 1641  28.243   8.109   7.876
    6AU     AUC 1642  27.087   8.061   7.149
    6AU     AUC 1643  27.040   8.100   7.517
    6AU     AUC 1644  27.088   8.058   7.851
    6AU     AUC 1645  27.302   8.639   7.504
    6AU     AUC 1646  27.647   8.703   7.506
    6AU     AUC 1647  27.962   8.686   7.532
    6AU     AUC 1648  27.333   7.493   7.498
    6AU     AUC 1649  27.680   7.532   7.498
    6AU     AUC 1650  28.072   7.579   7.467
    6AU     AUC 1651  27.707   7.696   8.056
    6AU     AUC 1652  27.654   8.016   8.100
    6AU     AUC 1653  27.649   8.394   8.073
    6AU     AUC 1654  27.694   7.750   6.933
    6AU     AUC 1655  27.695   8.096   6.918
    6AU     AUC 1656  27.712   8.455   6.941
    6AU     AUC 1657  27.995   7.865   7.970
    6AU     AUC 1658  27.960   8.229   8.020
    6AU     AUC 1659  27.985   7.958   7.022
    6AU     AUC 1660  28.011   8.321   7.020
    6AU     AUC 1661  27.364   7.858   7.979
    6AU     AUC 1662  27.360   8.215   7.990
    6AU     AUC 1663  27.354   7.885   7.044
    6AU     AUC 1664  27.363   8.257   7.020
    6AU     AUC 1665  28.173   8.430   7.373
    6AU     AUC 1666  28.108   8.393   7.726
    6AU     AUC 1667  27.190   8.368   7.301
    6AU     AUC 1668  27.160   8.379   7.692
    6AU     AUC 1669  28.187   7.852   7.312
    6AU     AUC 1670  28.193   7.823   7.638
    6AU     AUC 1671  27.152   7.793   7.343
    6AU     AUC 1672  27.177   7.787   7.674
    6AU     AUC 1673  27.460   8.564   7.796
    6AU     AUC 1674  27.796   8.567   7.821
    6AU     AUC 1675  27.480   7.583   7.770
    6AU     AUC 1676  27.895   7.604   7.798
    6AU     AUC 1677  27.484   8.536   7.179
    6AU     AUC 1678  27.876   8.579   7.192
    6AU     AUC 1679  27.475   7.612   7.219
    6AU     AUC 1680  27.866   7.643   7.174
    6AU    AUSL 1681  28.241   8.003   8.231
    6AU    AUSL 1682  28.109   7.537   8.094
    6AU     AUL 1683  28.400   7.623   8.294
    6AU       S 1684  28.513   7.235   8.077
    6AU     LIG 1685  28.304   7.152   8.450
    6AU     LIG 1686  28.440   6.964   8.842
    6AU       S 1687  28.483   8.060   8.378
    6AU     LIG 1688  28.506   8.261   8.763
    6AU     LIG 1689  28.608   8.036   9.151
    6AU    AUSL 1690  27.844   7.814   8.300
    6AU    AUSL 1691  27.506   8.143   8.381
    6AU     AUL 1692  27.683   7.999   8.646
    6AU       S 1693  28.043   7.729   8.555
    6AU     LIG 1694  28.140   7.943   8.904
    6AU     LIG 1695  28.114   8.016   9.347
    6AU       S 1696  26.994   7.949   8.691
    6AU     LIG 1697  27.252   8.292   8.938
    6AU     LIG 1698  27.238   8.443   9.371
    6AU    AUSL 1699  27.856   8.233   8.180
    6AU    AUSL 1700  28.260   8.426   8.157
    6AU     AUL 1701  28.067   8.236   8.477
    6AU       S 1702  27.678   8.491   8.635
    6AU     LIG 1703  28.026   8.443   8.931
    6AU     LIG 1704  28.351   8.467   9.245
    6AU       S 1705  28.376   8.581   8.377
    6AU     LIG 1706  28.793   8.545   8.419
    6AU     LIG 1707  29.187   8.773   8.280
    6AU    AUSL 1708  28.248   8.211   6.786
    6AU    AUSL 1709  28.129   8.652   6.853
    6AU     AUL 1710  28.288   8.502   6.538
    6AU       S 1711  28.167   8.101   6.328
    6AU     LIG 1712  28.519   8.227   6.092
    6AU     LIG 1713  28.595   7.981   5.704
    6AU       S 1714  28.497   8.794   6.832
    6AU     LIG 1715  28.545   8.973   6.461
    6AU     LIG 1716  28.810   9.275   6.250
    6AU    AUSL 1717  27.907   7.963   6.729
    6AU    AUSL 1718  28.222   7.878   7.060
    6AU     AUL 1719  28.335   7.903   6.706
    6AU       S 1720  28.304   7.146   6.695
    6AU     LIG 1721  28.701   7.322   6.529
    6AU     LIG 1722  29.027   7.207   6.221
    6AU       S 1723  27.986   7.772   6.396
    6AU     LIG 1724  27.922   7.585   5.944
    6AU     LIG 1725  28.166   7.651   5.540
    6AU    AUSL 1726  27.844   8.393   6.669
    6AU    AUSL 1727  27.528   7.825   6.622
    6AU     AUL 1728  27.709   8.142   6.429
    6AU       S 1729  27.350   7.855   6.306
    6AU     LIG 1730  27.427   7.717   5.883
    6AU     LIG 1731  27.113   7.642   5.568
    6AU       S 1732  28.215   7.849   6.233
    6AU     LIG 1733  28.083   8.067   5.836
    6AU     LIG 1734  28.209   8.172   5.401
    6AU    AUSL 1735  27.147   8.019   8.176
    6AU    AUSL 1736  27.385   8.471   8.148
    6AU     AUL 1737  27.244   8.328   8.447
    6AU       S 1738  26.906   8.005   8.388
    6AU     LIG 1739  26.782   8.387   8.663
    6AU     LIG 1740  26.777   8.302   9.126
    6AU       S 1741  26.973   8.690   8.286
    6AU     LIG 1742  26.854   8.916   8.611
    6AU     LIG 1743  26.652   9.329   8.647
    6AU    AUSL 1744  27.429   7.717   8.346
    6AU    AUSL 1745  27.031   7.631   8.032
    6AU     AUL 1746  27.104   7.592   8.324
    6AU       S 1747  26.873   7.216   8.131
    6AU     LIG 1748  26.443   7.171   8.319
    6AU     LIG 1749  26.248   7.013   8.727
    6AU       S 1750  27.218   7.877   8.659
    6AU     LIG 1751  27.398   7.822   9.056
    6AU     LIG 1752  27.207   7.928   9.461
    6AU    AUSL 1753  27.150   7.981   6.755
    6AU    AUSL 1754  27.402   7.673   7.001
    6AU     AUL 1755  27.265   7.589   6.680
    6AU       S 1756  26.963   7.914   6.491
    6AU     LIG 1757  26.636   7.757   6.168
    6AU     LIG 1758  26.638   7.818   5.687
    6AU       S 1759  26.796   7.446   6.639
    6AU     LIG 1760  26.658   7.017   6.491
    6AU     LIG 1761  26.428   6.607   6.345
    6AU    AUSL 1762  27.501   8.225   6.832
    6AU    AUSL 1763  27.052   8.363   6.906
    6AU     AUL 1764  27.261   8.270   6.550
    6AU       S 1765  26.879   8.499   6.700
    6AU     LIG 1766  26.523   8.787   6.651
    6AU     LIG 1767  26.278   9.114   6.416
    6AU       S 1768  27.108   7.840   6.263
    6AU     LIG 1769  27.056   8.076   5.882
    6AU     LIG 1770  27.024   8.120   5.410
    6AU    AUSL 1771  28.344   8.708   7.579
    6AU    AUSL 1772  28.357   8.431   7.134
    6AU     AUL 1773  28.509   8.809   7.302
    6AU       S 1774  28.608   8.483   6.950
    6AU     LIG 1775  28.787   8.498   6.485
    6AU     LIG 1776  29.079   8.834   6.321
    6AU       S 1777  28.840   8.629   7.922
    6AU     LIG 1778  29.109   8.980   7.794
    6AU     LIG 1779  29.428   9.173   7.500
    6AU    AUSL 1780  28.619   8.377   7.452
    6AU    AUSL 1781  28.626   7.985   7.681
    6AU     AUL 1782  28.931   8.178   7.541
    6AU       S 1783  28.783   8.588   7.690
    6AU     LIG 1784  29.052   8.664   7.363
    6AU     LIG 1785  29.427   8.798   7.130
    6AU       S 1786  28.898   7.700   7.533
    6AU     LIG 1787  29.203   7.469   7.792
    6AU     LIG 1788  29.658   7.337   7.905
    6AU    AUSL 1789  28.356   8.303   7.774
    6AU    AUSL 1790  28.023   8.608   7.833
    6AU     AUL 1791  28.370   8.708   7.922
    6AU       S 1792  28.344   8.886   8.385
    6AU     LIG 1793  28.714   9.019   8.195
    6AU     LIG 1794  29.088   9.281   8.231
    6AU       S 1795  28.703   8.363   7.953
    6AU     LIG 1796  29.230   8.362   7.904
    6AU     LIG 1797  29.503   8.670   7.658
    6AU    AUSL 1798  27.000   8.601   7.528
    6AU    AUSL 1799  27.013   8.359   7.950
    6AU     AUL 1800  26.737   8.706   7.815
    6AU       S 1801  26.871   8.421   8.151
    6AU     LIG 1802  26.482   8.601   8.269
    6AU     LIG 1803  26.333   8.928   8.550
    6AU       S 1804  26.929   8.985   7.491
    6AU     LIG 1805  26.445   8.796   7.422
    6AU     LIG 1806  25.973   8.905   7.394
    6AU    AUSL 1807  26.942   8.238   7.285
    6AU    AUSL 1808  27.102   8.729   7.140
    6AU     AUL 1809  26.798   8.566   7.173
    6AU       S 1810  26.650   8.109   6.921
    6AU     LIG 1811  26.323   8.455   6.987
    6AU     LIG 1812  25.865   8.603   6.982
    6AU       S 1813  26.933   8.942   6.902
    6AU     LIG 1814  26.696   9.285   6.705
    6AU     LIG 1815  26.412   9.599   6.529
    6AU    AUSL 1816  26.722   8.285   7.654
    6AU    AUSL 1817  26.718   7.899   7.393
    6AU     AUL 1818  26.553   8.220   7.364
    6AU       S 1819  26.461   7.843   7.642
    6AU     LIG 1820  26.226   7.855   7.246
    6AU     LIG 1821  25.901   7.697   6.947
    6AU       S 1822  26.450   8.333   7.823
    6AU     LIG 1823  26.165   8.701   7.854
    6AU     LIG 1824  25.716   8.860   7.835
    6AU    AUSL 1825  28.398   7.700   7.454
    6AU    AUSL 1826  28.260   7.844   7.845
    6AU     AUL 1827  28.583   7.716   7.875
    6AU       S 1828  28.699   7.532   7.454
    6AU     LIG 1829  28.965   7.176   7.434
    6AU     LIG 1830  29.431   7.060   7.511
    6AU       S 1831  28.742   7.241   7.911
    6AU     LIG 1832  28.873   7.231   8.397
    6AU     LIG 1833  28.954   6.953   8.759
    6AU    AUSL 1834  28.580   8.018   7.223
    6AU    AUSL 1835  28.286   7.429   7.156
    6AU     AUL 1836  28.530   7.684   7.054
    6AU       S 1837  28.911   7.772   7.296
    6AU     LIG 1838  29.324   7.525   7.284
    6AU     LIG 1839  29.736   7.319   7.130
    6AU       S 1840  28.411   7.247   6.938
    6AU     LIG 1841  28.752   6.967   6.899
    6AU     LIG 1842  28.889   6.784   6.499
    6AU    AUSL 1843  27.068   7.654   7.499
    6AU    AUSL 1844  26.982   7.788   7.083
    6AU     AUL 1845  26.714   7.573   7.316
    6AU       S 1846  26.818   7.638   6.870
    6AU     LIG 1847  26.385   7.447   6.911
    6AU     LIG 1848  26.252   7.353   6.479
    6AU       S 1849  26.378   7.676   7.752
    6AU     LIG 1850  26.263   7.372   7.410
    6AU     LIG 1851  25.934   7.204   7.110
    6AU    AUSL 1852  26.906   7.936   7.784
    6AU    AUSL 1853  27.149   7.330   7.743
    6AU     AUL 1854  26.830   7.514   7.762
    6AU       S 1855  26.992   7.065   7.844
    6AU     LIG 1856  26.568   6.792   7.988
    6AU     LIG 1857  26.331   6.647   8.388
    6AU       S 1858  26.586   7.885   7.908
    6AU     LIG 1859  26.103   8.004   7.982
    6AU     LIG 1860  25.747   7.793   7.751
    6AU    AUSL 1861  27.620   8.779   7.965
    6AU    AUSL 1862  27.195   8.746   7.877
    6AU     AUL 1863  27.428   8.795   8.261
    6AU       S 1864  27.081   8.965   8.002
    6AU     LIG 1865  26.647   9.086   8.152
    6AU     LIG 1866  26.260   9.354   8.248
    6AU       S 1867  27.574   9.181   8.020
    6AU     LIG 1868  27.806   9.472   8.310
    6AU     LIG 1869  27.828   9.934   8.476
    6AU    AUSL 1870  27.434   8.977   7.618
    6AU    AUSL 1871  27.789   9.026   7.290
    6AU     AUL 1872  27.482   9.249   7.395
    6AU       S 1873  27.600   9.402   7.847
    6AU     LIG 1874  27.530   9.847   7.763
    6AU     LIG 1875  27.383  10.107   8.113
    6AU       S 1876  27.749   9.266   6.997
    6AU     LIG 1877  27.889   9.606   7.239
    6AU     LIG 1878  28.075   9.992   7.029
    6AU    AUSL 1879  27.895   8.977   7.693
    6AU    AUSL 1880  27.890   8.640   8.254
    6AU     AUL 1881  27.973   8.927   8.059
    6AU       S 1882  28.094   8.734   8.500
    6AU     LIG 1883  28.455   8.767   8.839
    6AU     LIG 1884  28.862   8.968   8.699
    6AU       S 1885  27.837   9.261   7.746
    6AU     LIG 1886  28.010   9.694   7.898
    6AU     LIG 1887  27.882  10.134   8.018
    6AU    AUSL 1888  27.729   7.356   8.114
    6AU    AUSL 1889  28.278   7.387   7.710
    6AU     AUL 1890  28.044   7.171   8.008
    6AU       S 1891  27.634   6.844   8.106
    6AU     LIG 1892  27.438   6.446   8.193
    6AU     LIG 1893  27.479   5.974   8.241
    6AU       S 1894  28.453   7.229   7.750
    6AU     LIG 1895  28.390   6.790   7.956
    6AU     LIG 1896  28.623   6.756   8.369
    6AU    AUSL 1897  27.544   7.195   7.748
    6AU    AUSL 1898  27.451   7.608   7.941
    6AU     AUL 1899  27.371   7.272   8.089
    6AU       S 1900  27.499   6.894   7.844
    6AU     LIG 1901  27.170   6.591   7.770
    6AU     LIG 1902  27.119   6.140   7.922
    6AU       S 1903  27.023   6.935   8.129
    6AU     LIG 1904  26.779   6.847   8.532
    6AU     LIG 1905  26.521   6.581   8.860
    6AU    AUSL 1906  27.874   7.448   7.685
    6AU    AUSL 1907  27.505   7.302   7.343
    6AU     AUL 1908  27.825   7.092   7.537
    6AU       S 1909  27.338   6.977   7.376
    6AU     LIG 1910  27.059   6.653   7.167
    6AU     LIG 1911  27.207   6.319   6.876
    6AU       S 1912  27.756   6.734   7.874
    6AU     LIG 1913  27.615   6.328   7.721
    6AU     LIG 1914  27.511   5.884   7.722
    6AU    AUSL 1915  27.739   8.764   6.957
    6AU    AUSL 1916  28.043   8.686   7.289
    6AU     AUL 1917  28.099   8.964   7.067
    6AU       S 1918  27.757   8.982   6.731
    6AU     LIG 1919  28.087   9.314   6.628
    6AU     LIG 1920  27.945   9.783   6.579
    6AU       S 1921  28.799   8.721   6.917
    6AU     LIG 1922  28.999   9.105   6.749
    6AU     LIG 1923  29.259   9.416   6.492
    6AU    AUSL 1924  27.483   8.712   7.304
    6AU    AUSL 1925  27.376   8.631   6.813
    6AU     AUL 1926  27.384   8.951   7.029
    6AU       S 1927  27.603   9.310   6.764
    6AU     LIG 1928  27.528   9.787   6.911
    6AU     LIG 1929  27.224  10.198   6.965
    6AU       S 1930  27.137   8.760   6.647
    6AU     LIG 1931  26.886   8.977   6.337
    6AU     LIG 1932  26.670   9.355   6.152
    6AU    AUSL 1933  27.654   7.350   6.925
    6AU    AUSL 1934  27.122   7.382   7.179
    6AU     AUL 1935  27.361   7.234   6.975
    6AU       S 1936  26.897   7.344   6.921
    6AU     LIG 1937  26.702   6.987   6.997
    6AU     LIG 1938  26.584   6.556   6.837
    6AU       S 1939  27.578   6.841   7.193
    6AU     LIG 1940  27.453   6.759   6.802
    6AU     LIG 1941  27.537   6.423   6.490
    6AU    AUSL 1942  27.893   7.469   7.271
    6AU    AUSL 1943  28.003   7.570   6.846
    6AU     AUL 1944  27.958   7.201   7.052
    6AU       S 1945  27.501   6.708   7.391
    6AU     LIG 1946  27.650   6.332   7.166
    6AU     LIG 1947  27.834   5.909   7.073
    6AU       S 1948  28.190   7.433   6.687
    6AU     LIG 1949  28.278   7.346   6.242
    6AU     LIG 1950  28.552   6.990   6.137
    7AU     AUC 1951  22.417  39.329   7.493
    7AU     AUC 1952  22.721  39.370   7.329
    7AU     AUC 1953  22.692  39.350   7.667
    7AU     AUC 1954  22.130  39.312   7.321
    7AU     AUC 1955  22.128  39.314   7.674
    7AU     AUC 1956  22.223  39.573   7.510
    7AU     AUC 1957  22.564  39.604   7.499
    7AU     AUC 1958  22.259  39.047   7.492
    7AU     AUC 1959  22.619  39.094   7.486
    7AU     AUC 1960  22.447  39.161   7.766
    7AU     AUC 1961  22.394  39.489   7.774
    7AU     AUC 1962  22.442  39.173   7.214
    7AU     AUC 1963  22.435  39.505   7.221
    7AU     AUC 1964  23.032  39.401   7.181
    7AU     AUC 1965  23.064  39.392   7.500
    7AU     AUC 1966  22.992  39.354   7.865
    7AU     AUC 1967  21.834  39.291   7.144
    7AU     AUC 1968  21.792  39.331   7.512
    7AU     AUC 1969  21.840  39.302   7.853
    7AU     AUC 1970  22.048  39.873   7.491
    7AU     AUC 1971  22.392  39.936   7.484
    7AU     AUC 1972  22.708  39.920   7.509
    7AU     AUC 1973  22.086  38.729   7.492
    7AU     AUC 1974  22.430  38.769   7.492
    7AU     AUC 1975  22.823  38.816   7.463
    7AU     AUC 1976  22.458  38.941   8.052
    7AU     AUC 1977  22.406  39.264   8.094
    7AU     AUC 1978  22.401  39.644   8.060
    7AU     AUC 1979  22.448  38.981   6.923
    7AU     AUC 1980  22.444  39.325   6.905
    7AU     AUC 1981  22.456  39.678   6.924
    7AU     AUC 1982  22.744  39.111   7.965
    7AU     AUC 1983  22.710  39.477   8.008
    7AU     AUC 1984  22.737  39.189   7.014
    7AU     AUC 1985  22.761  39.549   7.006
    7AU     AUC 1986  22.117  39.103   7.977
    7AU     AUC 1987  22.113  39.463   7.984
    7AU     AUC 1988  22.105  39.117   7.033
    7AU     AUC 1989  22.107  39.484   7.009
    7AU     AUC 1990  22.922  39.664   7.357
    7AU     AUC 1991  22.858  39.635   7.711
    7AU     AUC 1992  21.933  39.595   7.296
    7AU     AUC 1993  21.912  39.618   7.687
    7AU     AUC 1994  22.937  39.087   7.306
    7AU     AUC 1995  22.942  39.064   7.634
    7AU     AUC 1996  21.905  39.026   7.333
    7AU     AUC 1997  21.936  39.029   7.665
    7AU     AUC 1998  22.210  39.808   7.782
    7AU     AUC 1999  22.546  39.811   7.802
    7AU     AUC 2000  22.232  38.824   7.766
    7AU     AUC 2001  22.644  38.846   7.794
    7AU     AUC 2002  22.225  39.762   7.166
    7AU     AUC 2003  22.619  39.806   7.174
    7AU     AUC 2004  22.228  38.845   7.207
    7AU     AUC 2005  22.619  38.876   7.168
    7AU    AUSL 2006  22.993  39.254   8.223
    7AU    AUSL 2007  22.857  38.785   8.094
    7AU     AUL 2008  23.141  38.861   8.298
    7AU       S 2009  23.274  38.483   8.077
    7AU     LIG 2010  23.123  38.313   8.415
    7AU     LIG 2011  23.336  38.054   8.721
    7AU       S 2012  23.227  39.303   8.344
    7AU     LIG 2013  23.266  39.493   8.729
    7AU     LIG 2014  23.400  39.252   9.100
    7AU    AUSL 2015  22.595  39.068   8.296
    7AU    AUSL 2016  22.259  39.395   8.371
    7AU     AUL 2017  22.432  39.264   8.643
    7AU       S 2018  22.786  38.991   8.547
    7AU     LIG 2019  22.895  39.194   8.911
    7AU     LIG 2020  22.962  39.124   9.364
    7AU       S 2021  21.736  39.199   8.671
    7AU     LIG 2022  21.992  39.534   8.939
    7AU     LIG 2023  21.978  39.481   9.397
    7AU    AUSL 2024  22.609  39.485   8.170
    7AU    AUSL 2025  23.011  39.677   8.140
    7AU     AUL 2026  22.820  39.493   8.467
    7AU       S 2027  22.426  39.755   8.613
    7AU     LIG 2028  22.723  39.676   8.921
    7AU     LIG 2029  23.064  39.619   9.207
    7AU       S 2030  23.125  39.834   8.353
    7AU     LIG 2031  23.535  39.822   8.408
    7AU     LIG 2032  23.912  40.089   8.382
    7AU    AUSL 2033  22.998  39.439   6.775
    7AU    AUSL 2034  22.875  39.878   6.835
    7AU     AUL 2035  23.042  39.723   6.523
    7AU       S 2036  22.916  39.319   6.317
    7AU     LIG 2037  23.284  39.424   6.084
    7AU     LIG 2038  23.377  39.188   5.681
    7AU       S 2039  23.239  40.032   6.808
    7AU     LIG 2040  23.311  40.226   6.431
    7AU     LIG 2041  23.564  40.596   6.289
    7AU    AUSL 2042  22.658  39.187   6.723
    7AU    AUSL 2043  22.974  39.111   7.054
    7AU     AUL 2044  23.090  39.136   6.701
    7AU       S 2045  23.041  38.372   6.677
    7AU     LIG 2046  23.427  38.483   6.451
    7AU     LIG 2047  23.725  38.348   6.112
    7AU       S 2048  22.739  38.998   6.398
    7AU     LIG 2049  22.617  38.823   5.967
    7AU     LIG 2050  22.955  38.760   5.635
    7AU    AUSL 2051  22.596  39.614   6.649
    7AU    AUSL 2052  22.280  39.054   6.608
    7AU     AUL 2053  22.456  39.364   6.414
    7AU       S 2054  22.095  39.076   6.282
    7AU     LIG 2055  22.128  38.959   5.807
    7AU     LIG 2056  21.856  38.836   5.434
    7AU       S 2057  22.973  39.051   6.230
    7AU     LIG 2058  22.867  39.245   5.816
    7AU     LIG 2059  22.955  39.244   5.362
    7AU    AUSL 2060  21.900  39.267   8.173
    7AU    AUSL 2061  22.143  39.728   8.141
    7AU     AUL 2062  21.999  39.578   8.443
    7AU       S 2063  21.662  39.258   8.368
    7AU     LIG 2064  21.531  39.637   8.654
    7AU     LIG 2065  21.513  39.480   9.105
    7AU       S 2066  21.734  39.946   8.282
    7AU     LIG 2067  21.651  40.264   8.560
    7AU     LIG 2068  21.459  40.693   8.654
    7AU    AUSL 2069  22.183  38.968   8.347
    7AU    AUSL 2070  21.774  38.881   8.038
    7AU     AUL 2071  21.865  38.839   8.327
    7AU       S 2072  21.551  38.531   8.141
    7AU     LIG 2073  21.104  38.426   8.109
    7AU     LIG 2074  20.802  38.318   8.421
    7AU       S 2075  21.968  39.133   8.658
    7AU     LIG 2076  22.043  39.048   9.093
    7AU     LIG 2077  21.848  38.959   9.514
    7AU    AUSL 2078  21.900  39.209   6.737
    7AU    AUSL 2079  22.155  38.909   6.989
    7AU     AUL 2080  22.011  38.825   6.669
    7AU       S 2081  21.714  39.139   6.458
    7AU     LIG 2082  21.424  39.238   6.085
    7AU     LIG 2083  21.508  39.193   5.616
    7AU       S 2084  21.540  38.674   6.660
    7AU     LIG 2085  21.516  38.198   6.616
    7AU     LIG 2086  21.370  37.791   6.437
    7AU    AUSL 2087  22.248  39.457   6.816
    7AU    AUSL 2088  21.796  39.578   6.910
    7AU     AUL 2089  22.007  39.494   6.537
    7AU       S 2090  21.627  39.701   6.714
    7AU     LIG 2091  21.288  39.964   6.624
    7AU     LIG 2092  21.152  40.238   6.276
    7AU       S 2093  21.835  39.000   6.234
    7AU     LIG 2094  21.890  39.389   5.949
    7AU     LIG 2095  21.949  39.448   5.483
    7AU    AUSL 2096  23.093  39.946   7.555
    7AU    AUSL 2097  23.108  39.665   7.119
    7AU     AUL 2098  23.252  40.047   7.280
    7AU       S 2099  23.356  39.720   6.932
    7AU     LIG 2100  23.547  39.759   6.475
    7AU     LIG 2101  23.825  40.152   6.407
    7AU       S 2102  23.605  39.870   7.906
    7AU     LIG 2103  23.899  40.194   7.743
    7AU     LIG 2104  24.207  40.270   7.400
    7AU    AUSL 2105  23.372  39.615   7.437
    7AU    AUSL 2106  23.374  39.225   7.675
    7AU     AUL 2107  23.681  39.407   7.550
    7AU       S 2108  23.543  39.836   7.649
    7AU     LIG 2109  23.948  39.815   7.405
    7AU     LIG 2110  24.432  39.814   7.286
    7AU       S 2111  23.634  38.929   7.521
    7AU     LIG 2112  23.917  38.589   7.655
    7AU     LIG 2113  24.338  38.586   7.810
    7AU    AUSL 2114  23.107  39.546   7.759
    7AU    AUSL 2115  22.774  39.851   7.813
    7AU     AUL 2116  23.129  39.951   7.895
    7AU       S 2117  23.108  40.141   8.361
    7AU     LIG 2118  23.493  40.294   8.145
    7AU     LIG 2119  23.923  40.538   8.120
    7AU       S 2120  23.456  39.610   7.939
    7AU     LIG 2121  23.982  39.572   7.915
    7AU     LIG 2122  24.380  39.797   7.799
    7AU    AUSL 2123  21.747  39.832   7.527
    7AU    AUSL 2124  21.772  39.607   7.947
    7AU     AUL 2125  21.488  39.947   7.802
    7AU       S 2126  21.636  39.691   8.157
    7AU     LIG 2127  21.238  39.936   8.259
    7AU     LIG 2128  21.134  40.303   8.537
    7AU       S 2129  21.683  40.227   7.479
    7AU     LIG 2130  21.198  40.071   7.416
    7AU     LIG 2131  20.710  40.108   7.452
    7AU    AUSL 2132  21.680  39.469   7.291
    7AU    AUSL 2133  21.836  39.952   7.133
    7AU     AUL 2134  21.534  39.786   7.181
    7AU       S 2135  21.380  39.344   6.950
    7AU     LIG 2136  21.060  39.686   7.021
    7AU     LIG 2137  20.602  39.753   7.070
    7AU       S 2138  21.662  40.155   6.903
    7AU     LIG 2139  21.532  40.442   6.580
    7AU     LIG 2140  21.258  40.750   6.355
    7AU    AUSL 2141  21.469  39.516   7.668
    7AU    AUSL 2142  21.468  39.121   7.391
    7AU     AUL 2143  21.291  39.450   7.398
    7AU       S 2144  21.226  39.044   7.643
    7AU     LIG 2145  20.972  39.106   7.247
    7AU     LIG 2146  20.559  38.948   7.097
    7AU       S 2147  21.247  39.552   7.881
    7AU     LIG 2148  20.937  39.837   7.818
    7AU     LIG 2149  20.525  39.994   7.945
    7AU    AUSL 2150  23.144  38.940   7.451
    7AU    AUSL 2151  23.007  39.089   7.840
    7AU     AUL 2152  23.331  38.967   7.877
    7AU       S 2153  23.447  38.777   7.457
    7AU     LIG 2154  23.638  38.421   7.270
    7AU     LIG 2155  23.963  38.095   7.459
    7AU       S 2156  23.502  38.502   7.920
    7AU     LIG 2157  23.649  38.380   8.377
    7AU     LIG 2158  23.858  38.094   8.685
    7AU    AUSL 2159  23.333  39.252   7.216
    7AU    AUSL 2160  23.040  38.660   7.158
    7AU     AUL 2161  23.279  38.913   7.051
    7AU       S 2162  23.662  39.020   7.284
    7AU     LIG 2163  24.111  38.886   7.286
    7AU     LIG 2164  24.304  38.466   7.305
    7AU       S 2165  23.176  38.473   6.922
    7AU     LIG 2166  23.465  38.135   6.832
    7AU     LIG 2167  23.502  37.960   6.400
    7AU    AUSL 2168  21.829  38.881   7.482
    7AU    AUSL 2169  21.733  39.028   7.074
    7AU     AUL 2170  21.470  38.802   7.303
    7AU       S 2171  21.561  38.884   6.856
    7AU     LIG 2172  21.135  38.679   6.965
    7AU     LIG 2173  21.021  38.293   6.764
    7AU       S 2174  21.152  38.888   7.848
    7AU     LIG 2175  21.230  38.449   7.610
    7AU     LIG 2176  20.960  38.252   7.280
    7AU    AUSL 2177  21.683  39.173   7.762
    7AU    AUSL 2178  21.894  38.576   7.756
    7AU     AUL 2179  21.599  38.753   7.740
    7AU       S 2180  21.732  38.324   7.889
    7AU     LIG 2181  21.389  38.018   7.949
    7AU     LIG 2182  21.144  37.790   8.296
    7AU       S 2183  21.324  39.094   7.885
    7AU     LIG 2184  20.823  39.282   7.765
    7AU     LIG 2185  20.348  39.219   7.848
    7AU    AUSL 2186  22.374  40.029   7.940
    7AU    AUSL 2187  21.947  39.995   7.865
    7AU     AUL 2188  22.187  40.056   8.241
    7AU       S 2189  21.827  40.212   7.991
    7AU     LIG 2190  21.410  40.407   8.112
    7AU     LIG 2191  21.102  40.765   8.267
    7AU       S 2192  22.329  40.423   7.975
    7AU     LIG 2193  22.501  40.523   8.344
    7AU     LIG 2194  22.517  40.935   8.559
    7AU    AUSL 2195  22.180  40.212   7.588
    7AU    AUSL 2196  22.527  40.251   7.254
    7AU     AUL 2197  22.230  40.484   7.357
    7AU       S 2198  22.376  40.632   7.810
    7AU     LIG 2199  22.309  40.976   8.076
    7AU     LIG 2200  22.263  41.453   8.069
    7AU       S 2201  22.487  40.467   6.944
    7AU     LIG 2202  22.689  40.729   7.225
    7AU     LIG 2203  22.743  41.182   7.151
    7AU    AUSL 2204  22.645  40.212   7.656
    7AU    AUSL 2205  22.643  39.894   8.232
    7AU     AUL 2206  22.732  40.174   8.028
    7AU       S 2207  22.837  39.993   8.470
    7AU     LIG 2208  23.138  39.982   8.832
    7AU     LIG 2209  23.555  40.167   8.794
    7AU       S 2210  22.591  40.474   7.693
    7AU     LIG 2211  22.842  40.687   7.995
    7AU     LIG 2212  22.799  41.120   8.160
    7AU    AUSL 2213  22.480  38.596   8.103
    7AU    AUSL 2214  23.031  38.631   7.714
    7AU     AUL 2215  22.805  38.419   8.013
    7AU       S 2216  22.140  38.030   8.089
    7AU     LIG 2217  22.268  37.648   8.317
    7AU     LIG 2218  22.467  37.346   8.613
    7AU       S 2219  23.220  38.472   7.762
    7AU     LIG 2220  23.330  38.021   7.929
    7AU     LIG 2221  23.593  37.872   8.283
    7AU    AUSL 2222  22.287  38.443   7.738
    7AU    AUSL 2223  22.198  38.853   7.945
    7AU     AUL 2224  22.131  38.519   8.091
    7AU       S 2225  22.209  38.146   7.816
    7AU     LIG 2226  21.937  37.791   7.710
    7AU     LIG 2227  22.003  37.388   7.952
    7AU       S 2228  21.699  38.336   8.179
    7AU     LIG 2229  21.503  38.107   8.469
    7AU     LIG 2230  21.201  38.008   8.792
    7AU    AUSL 2231  22.627  38.685   7.680
    7AU    AUSL 2232  22.256  38.531   7.328
    7AU     AUL 2233  22.571  38.326   7.539
    7AU       S 2234  22.121  38.210   7.344
    7AU     LIG 2235  21.840  37.873   7.187
    7AU     LIG 2236  21.999  37.516   6.952
    7AU       S 2237  22.425  38.062   8.005
    7AU     LIG 2238  22.448  37.649   7.838
    7AU     LIG 2239  22.674  37.364   8.136
    7AU    AUSL 2240  22.480  39.972   6.935
    7AU    AUSL 2241  22.789  39.916   7.270
    7AU     AUL 2242  22.841  40.187   7.047
    7AU       S 2243  22.493  40.162   6.704
    7AU     LIG 2244  22.858  40.416   6.605
    7AU     LIG 2245  22.767  40.857   6.720
    7AU       S 2246  23.556  39.976   6.909
    7AU     LIG 2247  23.619  40.436   6.799
    7AU     LIG 2248  23.774  40.889   6.682
    7AU    AUSL 2249  22.223  39.939   7.282
    7AU    AUSL 2250  22.106  39.857   6.803
    7AU     AUL 2251  22.118  40.172   7.008
    7AU       S 2252  22.361  40.480   6.703
    7AU     LIG 2253  22.273  40.908   6.950
    7AU     LIG 2254  22.075  41.327   7.067
    7AU       S 2255  21.859  39.974   6.642
    7AU     LIG 2256  21.657  40.060   6.262
    7AU     LIG 2257  21.561  40.459   6.037
    7AU    AUSL 2258  22.410  38.588   6.914
    7AU    AUSL 2259  21.876  38.615   7.158
    7AU     AUL 2260  22.118  38.472   6.953
    7AU       S 2261  21.653  38.579   6.919
    7AU     LIG 2262  21.448  38.251   7.127
    7AU     LIG 2263  21.229  37.853   6.950
    7AU       S 2264  22.345  38.073   7.138
    7AU     LIG 2265  22.348  37.820   6.727
    7AU     LIG 2266  22.313  37.360   6.555
    7AU    AUSL 2267  22.644  38.702   7.266
    7AU    AUSL 2268  22.766  38.798   6.842
    7AU     AUL 2269  22.717  38.435   7.048
    7AU       S 2270  22.308  37.929   7.374
    7AU     LIG 2271  22.524  37.585   7.133
    7AU     LIG 2272  22.434  37.167   7.012
    7AU       S 2273  22.960  38.661   6.680
    7AU     LIG 2274  22.980  38.547   6.212
    7AU     LIG 2275  23.235  38.237   5.974
    8AU     AUC 2276  20.271  24.698   7.504
    8AU     AUC 2277  20.572  24.739   7.342
    8AU     AUC 2278  20.545  24.718   7.679
    8AU     AUC 2279  19.984  24.683   7.332
    8AU     AUC 2280  19.984  24.682   7.683
    8AU     AUC 2281  20.079  24.946   7.519
    8AU     AUC 2282  20.419  24.976   7.511
    8AU     AUC 2283  20.116  24.414   7.502
    8AU     AUC 2284  20.473  24.456   7.502
    8AU     AUC 2285  20.303  24.526   7.776
    8AU     AUC 2286  20.248  24.857   7.783
    8AU     AUC 2287  20.293  24.542   7.226
    8AU     AUC 2288  20.289  24.878   7.235
    8AU     AUC 2289  20.880  24.768   7.191
    8AU     AUC 2290  20.915  24.761   7.513
    8AU     AUC 2291  20.843  24.724   7.878
    8AU     AUC 2292  19.687  24.661   7.155
    8AU     AUC 2293  19.647  24.701   7.519
    8AU     AUC 2294  19.697  24.672   7.858
    8AU     AUC 2295  19.907  25.246   7.502
    8AU     AUC 2296  20.251  25.310   7.500
    8AU     AUC 2297  20.565  25.294   7.526
    8AU     AUC 2298  19.940  24.095   7.501
    8AU     AUC 2299  20.288  24.131   7.502
    8AU     AUC 2300  20.679  24.180   7.476
    8AU     AUC 2301  20.313  24.305   8.060
    8AU     AUC 2302  20.258  24.630   8.104
    8AU     AUC 2303  20.253  25.010   8.072
    8AU     AUC 2304  20.298  24.352   6.934
    8AU     AUC 2305  20.292  24.697   6.920
    8AU     AUC 2306  20.310  25.056   6.940
    8AU     AUC 2307  20.595  24.480   7.976
    8AU     AUC 2308  20.562  24.844   8.021
    8AU     AUC 2309  20.587  24.560   7.023
    8AU     AUC 2310  20.608  24.921   7.018
    8AU     AUC 2311  19.974  24.469   7.984
    8AU     AUC 2312  19.966  24.829   7.992
    8AU     AUC 2313  19.954  24.486   7.047
    8AU     AUC 2314  19.960  24.859   7.023
    8AU     AUC 2315  20.773  25.034   7.371
    8AU     AUC 2316  20.712  25.004   7.725
    8AU     AUC 2317  19.790  24.970   7.302
    8AU     AUC 2318  19.767  24.986   7.692
    8AU     AUC 2319  20.789  24.457   7.316
    8AU     AUC 2320  20.796  24.432   7.647
    8AU     AUC 2321  19.757  24.394   7.346
    8AU     AUC 2322  19.795  24.397   7.677
    8AU     AUC 2323  20.065  25.175   7.793
    8AU     AUC 2324  20.400  25.180   7.817
    8AU     AUC 2325  20.098  24.185   7.772
    8AU     AUC 2326  20.503  24.208   7.802
    8AU     AUC 2327  20.083  25.140   7.178
    8AU     AUC 2328  20.475  25.183   7.189
    8AU     AUC 2329  20.081  24.213   7.218
    8AU     AUC 2330  20.474  24.246   7.178
    8AU    AUSL 2331  20.840  24.623   8.237
    8AU    AUSL 2332  20.700  24.162   8.104
    8AU     AUL 2333  20.964  24.234   8.294
    8AU       S 2334  21.179  23.883   8.093
    8AU     LIG 2335  21.090  23.610   8.384
    8AU     LIG 2336  21.329  23.330   8.650
    8AU       S 2337  21.085  24.670   8.378
    8AU     LIG 2338  21.100  24.873   8.757
    8AU     LIG 2339  21.243  24.654   9.134
    8AU    AUSL 2340  20.447  24.437   8.318
    8AU    AUSL 2341  20.110  24.763   8.387
    8AU     AUL 2342  20.290  24.616   8.651
    8AU       S 2343  20.704  24.401   8.629
    8AU     LIG 2344  20.720  24.615   8.989
    8AU     LIG 2345  20.821  24.558   9.431
    8AU       S 2346  19.590  24.567   8.676
    8AU     LIG 2347  19.844  24.924   8.935
    8AU     LIG 2348  19.839  24.944   9.396
    8AU    AUSL 2349  20.457  24.852   8.181
    8AU    AUSL 2350  20.863  25.043   8.156
    8AU     AUL 2351  20.670  24.864   8.479
    8AU       S 2352  20.279  25.116   8.631
    8AU     LIG 2353  20.614  25.106   8.919
    8AU     LIG 2354  20.927  25.042   9.233
    8AU       S 2355  20.981  25.202   8.371
    8AU     LIG 2356  21.392  25.191   8.422
    8AU     LIG 2357  21.768  25.445   8.305
    8AU    AUSL 2358  20.843  24.813   6.773
    8AU    AUSL 2359  20.728  25.247   6.848
    8AU     AUL 2360  20.856  25.114   6.509
    8AU       S 2361  20.763  24.694   6.324
    8AU     LIG 2362  21.094  24.742   6.014
    8AU     LIG 2363  21.225  24.467   5.651
    8AU       S 2364  21.104  25.349   6.818
    8AU     LIG 2365  20.930  25.622   6.568
    8AU     LIG 2366  21.045  25.891   6.230
    8AU    AUSL 2367  20.503  24.560   6.735
    8AU    AUSL 2368  20.825  24.488   7.061
    8AU     AUL 2369  20.939  24.512   6.707
    8AU       S 2370  20.917  23.757   6.684
    8AU     LIG 2371  21.331  23.835   6.501
    8AU     LIG 2372  21.722  23.575   6.444
    8AU       S 2373  20.573  24.368   6.417
    8AU     LIG 2374  20.460  24.142   6.017
    8AU     LIG 2375  20.806  24.151   5.702
    8AU    AUSL 2376  20.437  24.990   6.668
    8AU    AUSL 2377  20.123  24.430   6.622
    8AU     AUL 2378  20.303  24.743   6.430
    8AU       S 2379  19.941  24.456   6.308
    8AU     LIG 2380  20.048  24.448   5.867
    8AU     LIG 2381  19.739  24.466   5.509
    8AU       S 2382  20.759  24.450   6.253
    8AU     LIG 2383  20.603  24.609   5.850
    8AU     LIG 2384  20.775  24.609   5.420
    8AU    AUSL 2385  19.752  24.641   8.181
    8AU    AUSL 2386  19.992  25.087   8.146
    8AU     AUL 2387  19.846  24.951   8.448
    8AU       S 2388  19.511  24.629   8.372
    8AU     LIG 2389  19.373  24.994   8.665
    8AU     LIG 2390  19.386  24.821   9.124
    8AU       S 2391  19.575  25.310   8.282
    8AU     LIG 2392  19.505  25.497   8.637
    8AU     LIG 2393  19.180  25.790   8.758
    8AU    AUSL 2394  20.033  24.337   8.350
    8AU    AUSL 2395  19.637  24.251   8.046
    8AU     AUL 2396  19.716  24.211   8.335
    8AU       S 2397  19.373  23.922   8.159
    8AU     LIG 2398  18.921  23.772   8.272
    8AU     LIG 2399  18.619  23.561   8.627
    8AU       S 2400  19.818  24.505   8.670
    8AU     LIG 2401  19.822  24.460   9.135
    8AU     LIG 2402  19.654  24.479   9.572
    8AU    AUSL 2403  19.744  24.585   6.757
    8AU    AUSL 2404  20.005  24.275   7.002
    8AU     AUL 2405  19.863  24.193   6.684
    8AU       S 2406  19.564  24.512   6.481
    8AU     LIG 2407  19.248  24.608   6.124
    8AU     LIG 2408  19.258  24.679   5.648
    8AU       S 2409  19.402  24.048   6.667
    8AU     LIG 2410  19.492  23.617   6.557
    8AU     LIG 2411  19.225  23.254   6.533
    8AU    AUSL 2412  20.094  24.827   6.835
    8AU    AUSL 2413  19.650  24.965   6.917
    8AU     AUL 2414  19.851  24.874   6.554
    8AU       S 2415  19.475  25.108   6.717
    8AU     LIG 2416  19.102  25.392   6.692
    8AU     LIG 2417  18.784  25.714   6.548
    8AU       S 2418  19.681  24.379   6.250
    8AU     LIG 2419  19.704  24.800   6.016
    8AU     LIG 2420  19.671  24.989   5.581
    8AU    AUSL 2421  20.947  25.318   7.571
    8AU    AUSL 2422  20.951  25.020   7.130
    8AU     AUL 2423  21.112  25.407   7.283
    8AU       S 2424  21.210  25.058   6.955
    8AU     LIG 2425  21.324  24.973   6.517
    8AU     LIG 2426  21.345  25.411   6.342
    8AU       S 2427  21.459  25.254   7.923
    8AU     LIG 2428  21.777  25.568   7.786
    8AU     LIG 2429  22.238  25.655   7.720
    8AU    AUSL 2430  21.218  24.983   7.447
    8AU    AUSL 2431  21.226  24.596   7.682
    8AU     AUL 2432  21.533  24.783   7.545
    8AU       S 2433  21.387  25.195   7.690
    8AU     LIG 2434  21.638  25.273   7.357
    8AU     LIG 2435  22.007  25.520   7.260
    8AU       S 2436  21.480  24.302   7.527
    8AU     LIG 2437  21.784  24.360   7.830
    8AU     LIG 2438  22.253  24.228   7.892
    8AU    AUSL 2439  20.960  24.916   7.774
    8AU    AUSL 2440  20.627  25.220   7.828
    8AU     AUL 2441  20.977  25.321   7.914
    8AU       S 2442  20.954  25.510   8.376
    8AU     LIG 2443  21.319  25.670   8.171
    8AU     LIG 2444  21.698  25.963   8.212
    8AU       S 2445  21.300  24.973   7.956
    8AU     LIG 2446  21.779  24.894   7.963
    8AU     LIG 2447  22.052  25.138   7.665
    8AU    AUSL 2448  19.612  25.194   7.530
    8AU    AUSL 2449  19.620  24.976   7.949
    8AU     AUL 2450  19.345  25.319   7.787
    8AU       S 2451  19.483  25.059   8.151
    8AU     LIG 2452  19.075  25.237   8.257
    8AU     LIG 2453  18.803  25.570   8.443
    8AU       S 2454  19.568  25.614   7.493
    8AU     LIG 2455  19.116  25.569   7.384
    8AU     LIG 2456  18.751  25.902   7.406
    8AU    AUSL 2457  19.533  24.832   7.290
    8AU    AUSL 2458  19.695  25.336   7.142
    8AU     AUL 2459  19.388  25.162   7.196
    8AU       S 2460  19.246  24.718   6.933
    8AU     LIG 2461  18.915  25.079   7.039
    8AU     LIG 2462  18.725  25.527   7.044
    8AU       S 2463  19.521  25.550   6.927
    8AU     LIG 2464  19.206  25.894   6.786
    8AU     LIG 2465  18.910  26.235   6.599
    8AU    AUSL 2466  19.323  24.883   7.664
    8AU    AUSL 2467  19.323  24.486   7.407
    8AU     AUL 2468  19.141  24.795   7.381
    8AU       S 2469  19.088  24.422   7.687
    8AU     LIG 2470  18.818  24.292   7.383
    8AU     LIG 2471  18.397  24.317   7.182
    8AU       S 2472  19.107  24.920   7.846
    8AU     LIG 2473  18.810  25.199   7.797
    8AU     LIG 2474  18.469  25.233   8.108
    8AU    AUSL 2475  20.989  24.311   7.461
    8AU    AUSL 2476  20.861  24.462   7.853
    8AU     AUL 2477  21.190  24.355   7.893
    8AU       S 2478  21.286  24.160   7.467
    8AU     LIG 2479  21.288  23.755   7.373
    8AU     LIG 2480  21.637  23.488   7.381
    8AU       S 2481  21.428  23.912   7.895
    8AU     LIG 2482  21.634  23.692   8.283
    8AU     LIG 2483  21.836  23.441   8.661
    8AU    AUSL 2484  21.186  24.618   7.226
    8AU    AUSL 2485  20.894  24.031   7.166
    8AU     AUL 2486  21.124  24.280   7.054
    8AU       S 2487  21.501  24.386   7.295
    8AU     LIG 2488  21.635  23.989   7.094
    8AU     LIG 2489  22.024  23.714   7.094
    8AU       S 2490  21.042  23.833   6.928
    8AU     LIG 2491  21.435  23.526   6.899
    8AU     LIG 2492  21.623  23.121   6.677
    8AU    AUSL 2493  19.687  24.252   7.496
    8AU    AUSL 2494  19.581  24.389   7.086
    8AU     AUL 2495  19.318  24.169   7.320
    8AU       S 2496  19.418  24.247   6.875
    8AU     LIG 2497  18.997  24.052   6.945
    8AU     LIG 2498  18.946  23.726   6.630
    8AU       S 2499  19.028  24.273   7.926
    8AU     LIG 2500  19.021  23.874   7.672
    8AU     LIG 2501  18.839  23.690   7.284
    8AU    AUSL 2502  19.540  24.546   7.775
    8AU    AUSL 2503  19.744  23.941   7.765
    8AU     AUL 2504  19.453  24.125   7.753
    8AU       S 2505  19.566  23.692   7.912
    8AU     LIG 2506  19.187  23.402   8.013
    8AU     LIG 2507  18.814  23.260   8.261
    8AU       S 2508  19.210  24.478   7.940
    8AU     LIG 2509  18.688  24.627   7.864
    8AU     LIG 2510  18.404  24.269   7.709
    8AU    AUSL 2511  20.226  25.394   7.959
    8AU    AUSL 2512  19.800  25.362   7.872
    8AU     AUL 2513  20.032  25.413   8.255
    8AU       S 2514  19.672  25.576   8.007
    8AU     LIG 2515  19.266  25.724   8.221
    8AU     LIG 2516  18.950  26.071   8.380
    8AU       S 2517  20.178  25.794   8.008
    8AU     LIG 2518  20.497  26.008   8.263
    8AU     LIG 2519  20.651  26.444   8.369
    8AU    AUSL 2520  20.044  25.583   7.609
    8AU    AUSL 2521  20.391  25.628   7.281
    8AU     AUL 2522  20.085  25.855   7.387
    8AU       S 2523  20.213  26.029   7.839
    8AU     LIG 2524  20.257  26.456   8.036
    8AU     LIG 2525  20.356  26.878   8.248
    8AU       S 2526  20.357  25.869   6.992
    8AU     LIG 2527  20.589  26.251   7.077
    8AU     LIG 2528  20.527  26.734   7.043
    8AU    AUSL 2529  20.502  25.588   7.684
    8AU    AUSL 2530  20.496  25.260   8.249
    8AU     AUL 2531  20.580  25.541   8.050
    8AU       S 2532  20.698  25.361   8.490
    8AU     LIG 2533  21.051  25.383   8.836
    8AU     LIG 2534  21.424  25.630   8.693
    8AU       S 2535  20.439  25.867   7.734
    8AU     LIG 2536  20.692  26.256   7.847
    8AU     LIG 2537  20.758  26.723   7.935
    8AU    AUSL 2538  20.337  23.948   8.107
    8AU    AUSL 2539  20.900  24.010   7.741
    8AU     AUL 2540  20.692  23.802   8.048
    8AU       S 2541  20.096  23.412   8.111
    8AU     LIG 2542  20.057  23.000   8.305
    8AU     LIG 2543  20.315  22.749   8.602
    8AU       S 2544  21.116  23.860   7.820
    8AU     LIG 2545  21.341  23.420   7.944
    8AU     LIG 2546  21.635  23.181   8.249
    8AU    AUSL 2547  20.136  23.805   7.742
    8AU    AUSL 2548  20.059  24.212   7.950
    8AU     AUL 2549  19.976  23.883   8.097
    8AU       S 2550  20.058  23.500   7.836
    8AU     LIG 2551  19.781  23.095   7.864
    8AU     LIG 2552  19.736  22.650   8.087
    8AU       S 2553  19.520  23.741   8.191
    8AU     LIG 2554  19.629  23.343   8.298
    8AU     LIG 2555  19.511  23.152   8.680
    8AU    AUSL 2556  20.492  24.022   7.686
    8AU    AUSL 2557  20.111  23.898   7.333
    8AU     AUL 2558  20.408  23.677   7.529
    8AU       S 2559  19.939  23.570   7.361
    8AU     LIG 2560  19.667  23.260   7.103
    8AU     LIG 2561  19.669  22.830   6.899
    8AU       S 2562  20.342  23.435   7.982
    8AU     LIG 2563  20.296  23.030   7.837
    8AU     LIG 2564  20.423  22.681   8.078
    8AU    AUSL 2565  20.340  25.367   6.948
    8AU    AUSL 2566  20.646  25.289   7.282
    8AU     AUL 2567  20.705  25.561   7.052
    8AU       S 2568  20.359  25.603   6.723
    8AU     LIG 2569  20.626  26.014   6.590
    8AU     LIG 2570  20.484  26.451   6.605
    8AU       S 2571  21.397  25.291   6.893
    8AU     LIG 2572  21.401  25.748   6.781
    8AU     LIG 2573  21.456  26.103   6.485
    8AU    AUSL 2574  20.081  25.317   7.295
    8AU    AUSL 2575  19.972  25.233   6.817
    8AU     AUL 2576  19.983  25.554   7.023
    8AU       S 2577  20.180  25.912   6.763
    8AU     LIG 2578  20.103  26.350   6.964
    8AU     LIG 2579  20.017  26.825   7.077
    8AU       S 2580  19.725  25.363   6.653
    8AU     LIG 2581  19.450  25.612   6.395
    8AU     LIG 2582  19.145  25.931   6.242
    8AU    AUSL 2583  20.265  23.960   6.920
    8AU    AUSL 2584  19.726  23.981   7.175
    8AU     AUL 2585  19.972  23.836   6.967
    8AU       S 2586  19.504  23.935   6.942
    8AU     LIG 2587  19.253  23.566   7.011
    8AU     LIG 2588  18.853  23.303   6.896
    8AU       S 2589  20.162  23.419   7.169
    8AU     LIG 2590  20.061  23.161   6.780
    8AU     LIG 2591  20.009  22.736   6.536
    8AU    AUSL 2592  20.498  24.072   7.274
    8AU    AUSL 2593  20.620  24.172   6.851
    8AU     AUL 2594  20.576  23.807   7.050
    8AU       S 2595  20.076  23.272   7.402
    8AU     LIG 2596  20.127  22.855   7.185
    8AU     LIG 2597  20.318  22.533   6.893
    8AU       S 2598  20.821  24.036   6.688
    8AU     LIG 2599  20.909  23.974   6.226
    8AU     LIG 2600  21.196  23.723   5.964
    9AU     AUC 2601  18.934  13.048   7.497
    9AU     AUC 2602  19.236  13.088   7.336
    9AU     AUC 2603  19.208  13.062   7.673
    9AU     AUC 2604  18.646  13.038   7.325
    9AU     AUC 2605  18.648  13.032   7.675
    9AU     AUC 2606  18.746  13.296   7.517
    9AU     AUC 2607  19.087  13.324   7.509
    9AU     AUC 2608  18.772  12.766   7.491
    9AU     AUC 2609  19.132  12.810   7.489
    9AU     AUC 2610  18.961  12.872   7.768
    9AU     AUC 2611  18.914  13.202   7.781
    9AU     AUC 2612  18.954  12.896   7.216
    9AU     AUC 2613  18.954  13.231   7.230
    9AU     AUC 2614  19.546  13.115   7.186
    9AU     AUC 2615  19.580  13.102   7.508
    9AU     AUC 2616  19.508  13.058   7.873
    9AU     AUC 2617  18.349  13.021   7.147
    9AU     AUC 2618  18.311  13.057   7.511
    9AU     AUC 2619  18.360  13.022   7.850
    9AU     AUC 2620  18.579  13.598   7.505
    9AU     AUC 2621  18.922  13.658   7.504
    9AU     AUC 2622  19.236  13.638   7.528
    9AU     AUC 2623  18.595  12.449   7.485
    9AU     AUC 2624  18.941  12.487   7.485
    9AU     AUC 2625  19.334  12.530   7.459
    9AU     AUC 2626  18.968  12.645   8.048
    9AU     AUC 2627  18.920  12.969   8.096
    9AU     AUC 2628  18.922  13.349   8.071
    9AU     AUC 2629  18.957  12.711   6.922
    9AU     AUC 2630  18.954  13.055   6.913
    9AU     AUC 2631  18.975  13.412   6.938
    9AU     AUC 2632  19.254  12.816   7.966
    9AU     AUC 2633  19.229  13.181   8.016
    9AU     AUC 2634  19.249  12.913   7.016
    9AU     AUC 2635  19.274  13.274   7.014
    9AU     AUC 2636  18.632  12.814   7.973
    9AU     AUC 2637  18.631  13.174   7.987
    9AU     AUC 2638  18.613  12.846   7.037
    9AU     AUC 2639  18.624  13.219   7.019
    9AU     AUC 2640  19.441  13.380   7.367
    9AU     AUC 2641  19.380  13.344   7.722
    9AU     AUC 2642  18.457  13.325   7.299
    9AU     AUC 2643  18.435  13.338   7.691
    9AU     AUC 2644  19.451  12.804   7.307
    9AU     AUC 2645  19.454  12.773   7.635
    9AU     AUC 2646  18.416  12.751   7.333
    9AU     AUC 2647  18.451  12.748   7.663
    9AU     AUC 2648  18.737  13.522   7.796
    9AU     AUC 2649  19.071  13.522   7.819
    9AU     AUC 2650  18.743  12.535   7.760
    9AU     AUC 2651  19.154  12.553   7.789
    9AU     AUC 2652  18.750  13.495   7.180
    9AU     AUC 2653  19.143  13.534   7.189
    9AU     AUC 2654  18.738  12.571   7.204
    9AU     AUC 2655  19.131  12.600   7.163
    9AU    AUSL 2656  19.503  12.949   8.231
    9AU    AUSL 2657  19.359  12.487   8.086
    9AU     AUL 2658  19.624  12.559   8.289
    9AU       S 2659  19.789  12.192   8.070
    9AU     LIG 2660  19.629  11.989   8.394
    9AU     LIG 2661  19.778  11.734   8.738
    9AU       S 2662  19.748  12.992   8.380
    9AU     LIG 2663  19.759  13.191   8.762
    9AU     LIG 2664  19.884  12.967   9.143
    9AU    AUSL 2665  19.106  12.766   8.301
    9AU    AUSL 2666  18.773  13.097   8.378
    9AU     AUL 2667  18.947  12.946   8.640
    9AU       S 2668  19.351  12.720   8.613
    9AU     LIG 2669  19.366  12.938   8.972
    9AU     LIG 2670  19.443  12.881   9.416
    9AU       S 2671  18.235  12.912   8.666
    9AU     LIG 2672  18.474  13.254   8.933
    9AU     LIG 2673  18.460  13.322   9.383
    9AU    AUSL 2674  19.124  13.186   8.179
    9AU    AUSL 2675  19.535  13.369   8.152
    9AU     AUL 2676  19.336  13.190   8.475
    9AU       S 2677  18.947  13.445   8.626
    9AU     LIG 2678  19.281  13.434   8.915
    9AU     LIG 2679  19.580  13.364   9.236
    9AU       S 2680  19.655  13.523   8.368
    9AU     LIG 2681  20.068  13.475   8.422
    9AU     LIG 2682  20.482  13.689   8.392
    9AU    AUSL 2683  19.505  13.165   6.772
    9AU    AUSL 2684  19.396  13.601   6.848
    9AU     AUL 2685  19.527  13.456   6.508
    9AU       S 2686  19.420  13.041   6.314
    9AU     LIG 2687  19.781  13.154   6.078
    9AU     LIG 2688  19.884  12.921   5.683
    9AU       S 2689  19.758  13.710   6.813
    9AU     LIG 2690  19.606  14.037   6.602
    9AU     LIG 2691  19.724  14.479   6.460
    9AU    AUSL 2692  19.162  12.917   6.729
    9AU    AUSL 2693  19.487  12.837   7.054
    9AU     AUL 2694  19.599  12.869   6.700
    9AU       S 2695  19.586  12.099   6.688
    9AU     LIG 2696  19.998  12.085   6.492
    9AU     LIG 2697  20.325  11.828   6.265
    9AU       S 2698  19.241  12.726   6.395
    9AU     LIG 2699  19.192  12.496   5.956
    9AU     LIG 2700  19.501  12.510   5.587
    9AU    AUSL 2701  19.102  13.349   6.665
    9AU    AUSL 2702  18.781  12.796   6.610
    9AU     AUL 2703  18.966  13.102   6.425
    9AU       S 2704  18.587  12.835   6.296
    9AU     LIG 2705  18.722  12.725   5.875
    9AU     LIG 2706  18.455  12.743   5.483
    9AU       S 2707  19.481  12.778   6.234
    9AU     LIG 2708  19.367  12.960   5.815
    9AU     LIG 2709  19.477  13.063   5.372
    9AU    AUSL 2710  18.413  12.982   8.171
    9AU    AUSL 2711  18.661  13.428   8.145
    9AU     AUL 2712  18.509  13.287   8.443
    9AU       S 2713  18.168  12.971   8.361
    9AU     LIG 2714  18.034  13.357   8.639
    9AU     LIG 2715  17.993  13.279   9.101
    9AU       S 2716  18.250  13.658   8.285
    9AU     LIG 2717  18.189  13.915   8.606
    9AU     LIG 2718  18.115  14.369   8.679
    9AU    AUSL 2719  18.689  12.672   8.338
    9AU    AUSL 2720  18.289  12.597   8.025
    9AU     AUL 2721  18.371  12.552   8.316
    9AU       S 2722  18.079  12.230   8.123
    9AU     LIG 2723  17.674  12.184   8.326
    9AU     LIG 2724  17.499  11.992   8.751
    9AU       S 2725  18.471  12.841   8.654
    9AU     LIG 2726  18.631  12.791   9.068
    9AU     LIG 2727  18.459  12.811   9.507
    9AU    AUSL 2728  18.404  12.951   6.751
    9AU    AUSL 2729  18.662  12.636   6.988
    9AU     AUL 2730  18.520  12.561   6.668
    9AU       S 2731  18.222  12.888   6.486
    9AU     LIG 2732  17.935  13.060   6.166
    9AU     LIG 2733  17.912  13.013   5.691
    9AU       S 2734  18.094  12.322   6.677
    9AU     LIG 2735  18.166  11.847   6.695
    9AU     LIG 2736  17.956  11.451   6.566
    9AU    AUSL 2737  18.756  13.190   6.830
    9AU    AUSL 2738  18.313  13.330   6.913
    9AU     AUL 2739  18.516  13.245   6.550
    9AU       S 2740  18.142  13.469   6.727
    9AU     LIG 2741  17.862  13.796   6.573
    9AU     LIG 2742  17.788  14.163   6.292
    9AU       S 2743  18.327  12.748   6.238
    9AU     LIG 2744  18.377  13.099   5.907
    9AU     LIG 2745  18.308  13.246   5.454
    9AU    AUSL 2746  19.618  13.658   7.571
    9AU    AUSL 2747  19.621  13.371   7.128
    9AU     AUL 2748  19.781  13.755   7.282
    9AU       S 2749  19.871  13.414   6.956
    9AU     LIG 2750  19.972  13.244   6.575
    9AU     LIG 2751  19.966  13.605   6.294
    9AU       S 2752  20.148  13.637   7.829
    9AU     LIG 2753  20.386  13.881   7.448
    9AU     LIG 2754  20.670  13.990   7.090
    9AU    AUSL 2755  19.888  13.321   7.443
    9AU    AUSL 2756  19.888  12.929   7.683
    9AU     AUL 2757  20.201  13.098   7.563
    9AU       S 2758  20.066  13.531   7.627
    9AU     LIG 2759  20.327  13.439   7.223
    9AU     LIG 2760  20.734  13.481   7.011
    9AU       S 2761  20.154  12.624   7.541
    9AU     LIG 2762  20.599  12.657   7.665
    9AU     LIG 2763  20.969  12.453   7.890
    9AU    AUSL 2764  19.625  13.252   7.765
    9AU    AUSL 2765  19.300  13.560   7.830
    9AU     AUL 2766  19.657  13.652   7.911
    9AU       S 2767  19.643  13.830   8.375
    9AU     LIG 2768  20.062  13.948   8.224
    9AU     LIG 2769  20.467  14.212   8.320
    9AU       S 2770  19.988  13.327   7.934
    9AU     LIG 2771  20.485  13.294   7.943
    9AU     LIG 2772  20.901  13.490   8.017
    9AU    AUSL 2773  18.289  13.548   7.533
    9AU    AUSL 2774  18.286  13.326   7.948
    9AU     AUL 2775  18.024  13.676   7.784
    9AU       S 2776  18.143  13.404   8.144
    9AU     LIG 2777  17.766  13.695   8.231
    9AU     LIG 2778  17.685  14.057   8.532
    9AU       S 2779  18.256  13.979   7.502
    9AU     LIG 2780  17.828  13.952   7.399
    9AU     LIG 2781  17.435  14.167   7.563
    9AU    AUSL 2782  18.200  13.193   7.286
    9AU    AUSL 2783  18.363  13.696   7.147
    9AU     AUL 2784  18.060  13.530   7.205
    9AU       S 2785  17.914  13.069   6.923
    9AU     LIG 2786  17.650  13.454   6.942
    9AU     LIG 2787  17.395  13.749   7.210
    9AU       S 2788  18.193  13.915   6.932
    9AU     LIG 2789  18.141  14.312   6.660
    9AU     LIG 2790  17.912  14.664   6.409
    9AU    AUSL 2791  17.990  13.244   7.659
    9AU    AUSL 2792  17.983  12.851   7.395
    9AU     AUL 2793  17.804  13.166   7.369
    9AU       S 2794  17.755  12.793   7.681
    9AU     LIG 2795  17.482  12.635   7.377
    9AU     LIG 2796  17.320  12.223   7.227
    9AU       S 2797  17.747  13.293   7.842
    9AU     LIG 2798  17.523  13.642   7.704
    9AU     LIG 2799  17.184  13.862   7.911
    9AU    AUSL 2800  19.653  12.651   7.451
    9AU    AUSL 2801  19.518  12.795   7.842
    9AU     AUL 2802  19.839  12.666   7.882
    9AU       S 2803  19.938  12.493   7.451
    9AU     LIG 2804  20.144  12.132   7.392
    9AU     LIG 2805  20.555  12.093   7.617
    9AU       S 2806  20.023  12.189   7.885
    9AU     LIG 2807  20.158  11.942   8.287
    9AU     LIG 2808  20.291  11.712   8.678
    9AU    AUSL 2809  19.851  12.959   7.221
    9AU    AUSL 2810  19.551  12.379   7.150
    9AU     AUL 2811  19.785  12.631   7.040
    9AU       S 2812  20.156  12.712   7.298
    9AU     LIG 2813  20.513  12.437   7.213
    9AU     LIG 2814  20.897  12.523   7.044
    9AU       S 2815  19.701  12.178   6.935
    9AU     LIG 2816  20.029  11.808   6.928
    9AU     LIG 2817  20.184  11.451   6.608
    9AU    AUSL 2818  18.339  12.606   7.480
    9AU    AUSL 2819  18.239  12.747   7.073
    9AU     AUL 2820  17.971  12.536   7.297
    9AU       S 2821  18.070  12.584   6.844
    9AU     LIG 2822  17.624  12.401   6.830
    9AU     LIG 2823  17.334  12.163   6.512
    9AU       S 2824  17.763  12.671   8.003
    9AU     LIG 2825  17.657  12.279   7.740
    9AU     LIG 2826  17.397  11.924   7.636
    9AU    AUSL 2827  18.205  12.903   7.762
    9AU    AUSL 2828  18.402  12.290   7.741
    9AU     AUL 2829  18.106  12.477   7.731
    9AU       S 2830  18.224  12.031   7.862
    9AU     LIG 2831  17.803  11.790   7.982
    9AU     LIG 2832  17.584  11.689   8.361
    9AU       S 2833  17.878  12.848   7.916
    9AU     LIG 2834  17.322  12.833   7.870
    9AU     LIG 2835  17.147  12.411   7.728
    9AU    AUSL 2836  18.901  13.735   7.967
    9AU    AUSL 2837  18.475  13.710   7.879
    9AU     AUL 2838  18.708  13.746   8.267
    9AU       S 2839  18.363  13.916   8.005
    9AU     LIG 2840  18.037  14.182   8.177
    9AU     LIG 2841  17.819  14.598   8.316
    9AU       S 2842  18.860  14.127   8.031
    9AU     LIG 2843  18.955  14.471   8.352
    9AU     LIG 2844  18.798  14.927   8.455
    9AU    AUSL 2845  18.722  13.931   7.617
    9AU    AUSL 2846  19.064  13.977   7.288
    9AU     AUL 2847  18.771  14.211   7.394
    9AU       S 2848  18.841  14.329   7.875
    9AU     LIG 2849  18.687  14.708   7.998
    9AU     LIG 2850  18.850  15.130   7.978
    9AU       S 2851  19.020  14.221   6.969
    9AU     LIG 2852  19.291  14.606   6.941
    9AU     LIG 2853  19.340  15.081   7.030
    9AU    AUSL 2854  19.176  13.930   7.691
    9AU    AUSL 2855  19.173  13.592   8.251
    9AU     AUL 2856  19.263  13.876   8.053
    9AU       S 2857  19.377  13.686   8.490
    9AU     LIG 2858  19.731  13.701   8.837
    9AU     LIG 2859  20.140  13.925   8.735
    9AU       S 2860  19.103  14.221   7.763
    9AU     LIG 2861  19.206  14.680   7.918
    9AU     LIG 2862  19.391  15.124   7.954
    9AU    AUSL 2863  18.985  12.293   8.093
    9AU    AUSL 2864  19.540  12.337   7.709
    9AU     AUL 2865  19.313  12.118   7.998
    9AU       S 2866  18.879  11.769   8.054
    9AU     LIG 2867  18.789  11.288   8.078
    9AU     LIG 2868  18.701  10.829   8.108
    9AU       S 2869  19.732  12.170   7.755
    9AU     LIG 2870  19.769  11.712   7.948
    9AU     LIG 2871  19.964  11.470   8.318
    9AU    AUSL 2872  18.794  12.152   7.723
    9AU    AUSL 2873  18.712  12.559   7.936
    9AU     AUL 2874  18.628  12.220   8.074
    9AU       S 2875  18.718  11.849   7.799
    9AU     LIG 2876  18.397  11.505   7.792
    9AU     LIG 2877  18.275  11.153   8.105
    9AU       S 2878  18.208  12.004   8.169
    9AU     LIG 2879  18.096  11.637   8.395
    9AU     LIG 2880  17.852  11.546   8.783
    9AU    AUSL 2881  19.136  12.393   7.670
    9AU    AUSL 2882  18.768  12.260   7.317
    9AU     AUL 2883  19.079  12.043   7.514
    9AU       S 2884  18.609  11.939   7.333
    9AU     LIG 2885  18.289  11.650   7.168
    9AU     LIG 2886  18.472  11.217   7.113
    9AU       S 2887  18.946  11.678   7.807
    9AU     LIG 2888  19.305  11.442   7.782
    9AU     LIG 2889  19.297  11.044   7.979
    9AU    AUSL 2890  19.008  13.720   6.953
    9AU    AUSL 2891  19.316  13.637   7.283
    9AU     AUL 2892  19.369  13.915   7.056
    9AU       S 2893  19.020  13.941   6.723
    9AU     LIG 2894  19.212  14.343   6.495
    9AU     LIG 2895  18.941  14.733   6.456
    9AU       S 2896  20.036  13.664   6.860
    9AU     LIG 2897  19.997  14.135   6.963
    9AU     LIG 2898  20.115  14.579   6.808
    9AU    AUSL 2899  18.750  13.669   7.299
    9AU    AUSL 2900  18.637  13.598   6.820
    9AU     AUL 2901  18.651  13.911   7.038
    9AU       S 2902  18.804  14.232   6.723
    9AU     LIG 2903  18.758  14.657   6.927
    9AU     LIG 2904  18.691  15.129   6.872
    9AU       S 2905  18.392  13.734   6.660
    9AU     LIG 2906  18.280  13.971   6.300
    9AU     LIG 2907  18.225  14.396   6.105
    9AU    AUSL 2908  18.922  12.321   6.903
    9AU    AUSL 2909  18.384  12.339   7.157
    9AU     AUL 2910  18.633  12.200   6.942
    9AU       S 2911  18.171  12.290   6.942
    9AU     LIG 2912  17.869  12.028   7.080
    9AU     LIG 2913  17.619  11.823   6.758
    9AU       S 2914  18.844  11.805   7.145
    9AU     LIG 2915  18.642  11.607   6.802
    9AU     LIG 2916  18.476  11.269   6.519
    9AU    AUSL 2917  19.156  12.428   7.257
    9AU    AUSL 2918  19.282  12.527   6.835
    9AU     AUL 2919  19.230  12.163   7.031
    9AU       S 2920  18.757  11.650   7.336
    9AU     LIG 2921  19.095  11.371   7.129
    9AU     LIG 2922  19.297  10.979   6.922
    9AU       S 2923  19.487  12.387   6.672
    9AU     LIG 2924  19.595  12.285   6.220
    9AU     LIG 2925  19.860  11.966   5.988
   10AU     AUC 2926  42.685  22.492   7.515
   10AU     AUC 2927  42.984  22.525   7.341
   10AU     AUC 2928  42.969  22.514   7.682
   10AU     AUC 2929  42.395  22.471   7.354
   10AU     AUC 2930  42.403  22.478   7.701
   10AU     AUC 2931  42.499  22.741   7.535
   10AU     AUC 2932  42.841  22.768   7.513
   10AU     AUC 2933  42.507  22.204   7.520
   10AU     AUC 2934  42.881  22.256   7.508
   10AU     AUC 2935  42.728  22.335   7.782
   10AU     AUC 2936  42.676  22.659   7.798
   10AU     AUC 2937  42.697  22.331   7.240
   10AU     AUC 2938  42.699  22.664   7.241
   10AU     AUC 2939  43.286  22.545   7.177
   10AU     AUC 2940  43.331  22.545   7.502
   10AU     AUC 2941  43.271  22.516   7.871
   10AU     AUC 2942  42.091  22.460   7.187
   10AU     AUC 2943  42.068  22.484   7.548
   10AU     AUC 2944  42.123  22.459   7.888
   10AU     AUC 2945  42.333  23.043   7.521
   10AU     AUC 2946  42.678  23.102   7.497
   10AU     AUC 2947  42.993  23.082   7.514
   10AU     AUC 2948  42.330  21.895   7.527
   10AU     AUC 2949  42.690  21.926   7.526
   10AU     AUC 2950  43.081  21.974   7.482
   10AU     AUC 2951  42.737  22.121   8.075
   10AU     AUC 2952  42.691  22.441   8.114
   10AU     AUC 2953  42.688  22.819   8.078
   10AU     AUC 2954  42.689  22.135   6.950
   10AU     AUC 2955  42.689  22.478   6.929
   10AU     AUC 2956  42.712  22.833   6.943
   10AU     AUC 2957  43.022  22.284   7.981
   10AU     AUC 2958  42.996  22.648   8.022
   10AU     AUC 2959  42.984  22.339   7.023
   10AU     AUC 2960  43.013  22.698   7.012
   10AU     AUC 2961  42.392  22.273   8.006
   10AU     AUC 2962  42.401  22.637   8.014
   10AU     AUC 2963  42.352  22.273   7.073
   10AU     AUC 2964  42.363  22.645   7.042
   10AU     AUC 2965  43.192  22.815   7.359
   10AU     AUC 2966  43.142  22.796   7.716
   10AU     AUC 2967  42.207  22.768   7.330
   10AU     AUC 2968  42.201  22.788   7.722
   10AU     AUC 2969  43.192  22.242   7.312
   10AU     AUC 2970  43.210  22.224   7.646
   10AU     AUC 2971  42.144  22.169   7.380
   10AU     AUC 2972  42.183  22.166   7.681
   10AU     AUC 2973  42.500  22.980   7.808
   10AU     AUC 2974  42.836  22.977   7.814
   10AU     AUC 2975  42.509  22.002   7.793
   10AU     AUC 2976  42.916  22.016   7.817
   10AU     AUC 2977  42.495  22.926   7.190
   10AU     AUC 2978  42.891  22.962   7.182
   10AU     AUC 2979  42.478  22.001   7.252
   10AU     AUC 2980  42.868  22.032   7.191
   10AU    AUSL 2981  43.278  22.422   8.232
   10AU    AUSL 2982  43.136  21.959   8.117
   10AU     AUL 2983  43.431  22.042   8.294
   10AU       S 2984  43.536  21.636   8.109
   10AU     LIG 2985  43.326  21.584   8.493
   10AU     LIG 2986  43.442  21.341   8.863
   10AU       S 2987  43.529  22.478   8.366
   10AU     LIG 2988  43.538  22.632   8.763
   10AU     LIG 2989  43.658  22.383   9.131
   10AU    AUSL 2990  42.877  22.243   8.314
   10AU    AUSL 2991  42.539  22.563   8.371
   10AU     AUL 2992  42.727  22.437   8.648
   10AU       S 2993  43.103  22.174   8.584
   10AU     LIG 2994  43.144  22.373   8.959
   10AU     LIG 2995  43.219  22.291   9.402
   10AU       S 2996  42.018  22.371   8.694
   10AU     LIG 2997  42.138  22.705   8.977
   10AU     LIG 2998  42.142  22.742   9.435
   10AU    AUSL 2999  42.899  22.662   8.194
   10AU    AUSL 3000  43.303  22.842   8.143
   10AU     AUL 3001  43.119  22.664   8.478
   10AU       S 3002  42.724  22.922   8.617
   10AU     LIG 3003  43.039  22.874   8.922
   10AU     LIG 3004  43.352  22.782   9.233
   10AU       S 3005  43.427  22.997   8.350
   10AU     LIG 3006  43.818  22.924   8.431
   10AU     LIG 3007  44.200  23.167   8.454
   10AU    AUSL 3008  43.239  22.582   6.759
   10AU    AUSL 3009  43.133  23.018   6.832
   10AU     AUL 3010  43.237  22.881   6.486
   10AU       S 3011  43.139  22.458   6.308
   10AU     LIG 3012  43.502  22.460   6.038
   10AU     LIG 3013  43.549  22.222   5.632
   10AU       S 3014  43.497  23.116   6.783
   10AU     LIG 3015  43.285  23.437   6.566
   10AU     LIG 3016  43.368  23.619   6.155
   10AU    AUSL 3017  42.893  22.334   6.734
   10AU    AUSL 3018  43.219  22.261   7.051
   10AU     AUL 3019  43.315  22.268   6.687
   10AU       S 3020  43.254  21.509   6.687
   10AU     LIG 3021  43.669  21.652   6.490
   10AU     LIG 3022  43.960  21.572   6.125
   10AU       S 3023  42.936  22.127   6.405
   10AU     LIG 3024  42.874  21.904   5.940
   10AU     LIG 3025  43.114  21.949   5.539
   10AU    AUSL 3026  42.829  22.763   6.672
   10AU    AUSL 3027  42.505  22.216   6.638
   10AU     AUL 3028  42.688  22.521   6.439
   10AU       S 3029  42.323  22.237   6.333
   10AU     LIG 3030  42.540  22.286   5.945
   10AU     LIG 3031  42.425  22.229   5.489
   10AU       S 3032  43.102  22.220   6.237
   10AU     LIG 3033  43.039  22.384   5.804
   10AU     LIG 3034  43.139  22.430   5.343
   10AU    AUSL 3035  42.165  22.428   8.207
   10AU    AUSL 3036  42.439  22.932   8.197
   10AU     AUL 3037  42.292  22.737   8.484
   10AU       S 3038  41.939  22.433   8.383
   10AU     LIG 3039  41.545  22.456   8.633
   10AU     LIG 3040  41.682  22.461   9.092
   10AU       S 3041  42.047  23.126   8.324
   10AU     LIG 3042  42.182  23.388   8.618
   10AU     LIG 3043  42.113  23.741   8.872
   10AU    AUSL 3044  42.465  22.136   8.383
   10AU    AUSL 3045  42.052  22.036   8.077
   10AU     AUL 3046  42.132  22.005   8.366
   10AU       S 3047  41.945  21.596   8.154
   10AU     LIG 3048  41.628  21.939   8.350
   10AU     LIG 3049  41.391  21.975   8.766
   10AU       S 3050  42.263  22.303   8.683
   10AU     LIG 3051  42.411  22.275   9.076
   10AU     LIG 3052  42.132  22.222   9.434
   10AU    AUSL 3053  42.130  22.363   6.794
   10AU    AUSL 3054  42.405  22.067   7.026
   10AU     AUL 3055  42.279  21.970   6.707
   10AU       S 3056  41.951  22.280   6.531
   10AU     LIG 3057  41.714  22.468   6.148
   10AU     LIG 3058  41.883  22.399   5.699
   10AU       S 3059  41.883  21.712   6.802
   10AU     LIG 3060  42.007  21.264   6.804
   10AU     LIG 3061  41.987  21.005   6.406
   10AU    AUSL 3062  42.486  22.609   6.849
   10AU    AUSL 3063  42.047  22.752   6.941
   10AU     AUL 3064  42.233  22.652   6.579
   10AU       S 3065  41.864  22.898   6.744
   10AU     LIG 3066  41.611  23.179   6.479
   10AU     LIG 3067  41.209  23.328   6.263
   10AU       S 3068  42.096  22.195   6.278
   10AU     LIG 3069  42.188  22.629   6.060
   10AU     LIG 3070  42.291  22.722   5.611
   10AU    AUSL 3071  43.379  23.101   7.546
   10AU    AUSL 3072  43.361  22.793   7.110
   10AU     AUL 3073  43.534  23.179   7.249
   10AU       S 3074  43.617  22.826   6.925
   10AU     LIG 3075  43.708  22.747   6.480
   10AU     LIG 3076  43.656  23.177   6.292
   10AU       S 3077  43.895  22.989   7.926
   10AU     LIG 3078  44.189  23.296   7.749
   10AU     LIG 3079  44.562  23.302   7.477
   10AU    AUSL 3080  43.635  22.757   7.421
   10AU    AUSL 3081  43.643  22.374   7.658
   10AU     AUL 3082  43.950  22.564   7.508
   10AU       S 3083  43.816  22.973   7.666
   10AU     LIG 3084  44.053  23.032   7.298
   10AU     LIG 3085  44.466  22.921   7.136
   10AU       S 3086  43.872  22.094   7.484
   10AU     LIG 3087  44.120  21.970   7.768
   10AU     LIG 3088  44.558  21.955   7.766
   10AU    AUSL 3089  43.392  22.703   7.762
   10AU    AUSL 3090  43.067  23.016   7.817
   10AU     AUL 3091  43.419  23.113   7.893
   10AU       S 3092  43.396  23.297   8.366
   10AU     LIG 3093  43.787  23.394   8.208
   10AU     LIG 3094  44.112  23.677   8.369
   10AU       S 3095  43.721  22.745   7.934
   10AU     LIG 3096  44.133  22.559   7.965
   10AU     LIG 3097  44.385  22.815   7.660
   10AU    AUSL 3098  42.028  23.012   7.567
   10AU    AUSL 3099  42.094  22.780   7.979
   10AU     AUL 3100  41.779  23.111   7.839
   10AU       S 3101  41.950  22.897   8.214
   10AU     LIG 3102  41.622  22.959   8.536
   10AU     LIG 3103  41.239  22.862   8.787
   10AU       S 3104  41.990  23.397   7.529
   10AU     LIG 3105  41.609  23.412   7.361
   10AU     LIG 3106  41.212  23.194   7.398
   10AU    AUSL 3107  41.970  22.653   7.336
   10AU    AUSL 3108  42.115  23.124   7.168
   10AU     AUL 3109  41.812  22.974   7.217
   10AU       S 3110  41.646  22.509   6.988
   10AU     LIG 3111  41.323  22.819   7.040
   10AU     LIG 3112  41.379  23.239   6.921
   10AU       S 3113  41.942  23.344   6.944
   10AU     LIG 3114  41.664  23.647   6.868
   10AU     LIG 3115  41.543  23.691   6.449
   10AU    AUSL 3116  41.774  22.674   7.731
   10AU    AUSL 3117  41.713  22.341   7.429
   10AU     AUL 3118  41.573  22.663   7.450
   10AU       S 3119  41.485  22.258   7.696
   10AU     LIG 3120  41.161  22.368   7.414
   10AU     LIG 3121  40.998  22.041   7.159
   10AU       S 3122  41.614  22.671   7.966
   10AU     LIG 3123  41.308  22.912   7.800
   10AU     LIG 3124  40.990  23.203   7.889
   10AU    AUSL 3125  43.386  22.093   7.453
   10AU    AUSL 3126  43.286  22.252   7.851
   10AU     AUL 3127  43.612  22.126   7.870
   10AU       S 3128  43.687  21.924   7.445
   10AU     LIG 3129  43.924  21.567   7.492
   10AU     LIG 3130  44.382  21.510   7.542
   10AU       S 3131  43.754  21.652   7.967
   10AU     LIG 3132  43.868  21.615   8.459
   10AU     LIG 3133  43.962  21.397   8.860
   10AU    AUSL 3134  43.585  22.391   7.205
   10AU    AUSL 3135  43.285  21.808   7.163
   10AU     AUL 3136  43.511  22.054   7.040
   10AU       S 3137  43.895  22.169   7.260
   10AU     LIG 3138  44.222  21.873   7.204
   10AU     LIG 3139  44.661  21.846   7.250
   10AU       S 3140  43.402  21.611   6.926
   10AU     LIG 3141  43.679  21.262   6.822
   10AU     LIG 3142  43.791  21.144   6.386
   10AU    AUSL 3143  41.892  21.963   7.527
   10AU    AUSL 3144  41.998  22.189   7.150
   10AU     AUL 3145  41.632  22.088   7.273
   10AU       S 3146  41.854  21.963   6.898
   10AU     LIG 3147  41.389  21.902   6.857
   10AU     LIG 3148  41.002  21.683   6.669
   10AU       S 3149  41.390  22.016   7.710
   10AU     LIG 3150  41.395  21.701   7.395
   10AU     LIG 3151  41.064  21.545   7.154
   10AU    AUSL 3152  41.974  22.312   7.778
   10AU    AUSL 3153  42.204  21.797   7.747
   10AU     AUL 3154  41.838  21.924   7.849
   10AU       S 3155  42.088  21.525   7.788
   10AU     LIG 3156  41.685  21.446   7.734
   10AU     LIG 3157  41.503  21.033   7.904
   10AU       S 3158  41.499  22.230   7.875
   10AU     LIG 3159  40.994  22.145   7.961
   10AU     LIG 3160  40.546  21.834   7.874
   10AU    AUSL 3161  42.671  23.190   7.947
   10AU    AUSL 3162  42.239  23.177   7.897
   10AU     AUL 3163  42.496  23.265   8.242
   10AU       S 3164  42.086  23.402   8.063
   10AU     LIG 3165  42.071  23.823   8.334
   10AU     LIG 3166  41.680  24.106   8.491
   10AU       S 3167  42.643  23.624   7.977
   10AU     LIG 3168  42.581  23.782   8.405
   10AU     LIG 3169  42.633  24.143   8.712
   10AU    AUSL 3170  42.471  23.382   7.611
   10AU    AUSL 3171  42.816  23.413   7.263
   10AU     AUL 3172  42.500  23.630   7.371
   10AU       S 3173  42.630  23.829   7.790
   10AU     LIG 3174  42.395  24.071   8.029
   10AU     LIG 3175  42.566  24.406   8.267
   10AU       S 3176  42.785  23.642   6.989
   10AU     LIG 3177  43.188  23.828   6.928
   10AU     LIG 3178  43.293  24.264   7.040
   10AU    AUSL 3179  42.937  23.379   7.663
   10AU    AUSL 3180  42.945  23.071   8.240
   10AU     AUL 3181  43.026  23.344   8.030
   10AU       S 3182  43.139  23.158   8.476
   10AU     LIG 3183  43.470  23.140   8.828
   10AU     LIG 3184  43.829  23.402   8.739
   10AU       S 3185  42.874  23.659   7.707
   10AU     LIG 3186  43.044  24.078   7.885
   10AU     LIG 3187  43.014  24.526   8.040
   10AU    AUSL 3188  42.750  21.792   8.139
   10AU    AUSL 3189  43.301  21.795   7.740
   10AU     AUL 3190  43.069  21.605   8.053
   10AU       S 3191  42.709  21.282   8.184
   10AU     LIG 3192  42.665  20.983   8.544
   10AU     LIG 3193  42.573  20.556   8.737
   10AU       S 3194  43.473  21.640   7.782
   10AU     LIG 3195  43.378  21.206   7.957
   10AU     LIG 3196  43.591  21.156   8.376
   10AU    AUSL 3197  42.566  21.598   7.793
   10AU    AUSL 3198  42.473  22.053   7.974
   10AU     AUL 3199  42.406  21.703   8.119
   10AU       S 3200  42.580  21.328   7.905
   10AU     LIG 3201  42.404  20.983   7.930
   10AU     LIG 3202  42.683  20.569   7.950
   10AU       S 3203  42.074  21.361   8.010
   10AU     LIG 3204  42.245  21.228   8.390
   10AU     LIG 3205  42.197  21.184   8.857
   10AU    AUSL 3206  42.896  21.845   7.705
   10AU    AUSL 3207  42.531  21.666   7.379
   10AU     AUL 3208  42.864  21.492   7.564
   10AU       S 3209  42.380  21.341   7.411
   10AU     LIG 3210  42.129  20.878   7.172
   10AU     LIG 3211  42.184  20.420   6.911
   10AU       S 3212  42.853  21.169   7.946
   10AU     LIG 3213  43.070  20.825   7.732
   10AU     LIG 3214  43.244  20.371   7.750
   10AU    AUSL 3215  42.748  23.135   6.947
   10AU    AUSL 3216  43.067  23.069   7.269
   10AU     AUL 3217  43.123  23.330   7.033
   10AU       S 3218  42.766  23.321   6.706
   10AU     LIG 3219  42.866  23.527   6.294
   10AU     LIG 3220  43.020  23.962   6.325
   10AU       S 3221  43.794  23.079   6.843
   10AU     LIG 3222  43.689  23.552   6.882
   10AU     LIG 3223  43.567  23.878   6.572
   10AU    AUSL 3224  42.506  23.107   7.305
   10AU    AUSL 3225  42.370  23.016   6.829
   10AU     AUL 3226  42.403  23.335   7.017
   10AU       S 3227  42.746  23.621   6.759
   10AU     LIG 3228  42.331  23.807   6.856
   10AU     LIG 3229  41.985  23.925   6.610
   10AU       S 3230  42.114  23.147   6.672
   10AU     LIG 3231  42.018  23.478   6.380
   10AU     LIG 3232  41.786  23.703   6.013
   10AU    AUSL 3233  42.646  21.734   6.958
   10AU    AUSL 3234  42.152  21.787   7.244
   10AU     AUL 3235  42.352  21.623   7.017
   10AU       S 3236  41.887  21.716   7.093
   10AU     LIG 3237  41.528  21.425   6.964
   10AU     LIG 3238  41.535  21.196   6.562
   10AU       S 3239  42.530  21.197   7.191
   10AU     LIG 3240  42.767  21.186   6.817
   10AU     LIG 3241  42.823  20.830   6.501
   10AU    AUSL 3242  42.897  21.870   7.290
   10AU    AUSL 3243  42.995  21.945   6.858
   10AU     AUL 3244  42.955  21.587   7.080
   10AU       S 3245  42.574  21.117   7.443
   10AU     LIG 3246  42.970  20.946   7.242
   10AU     LIG 3247  43.152  20.543   7.047
   10AU       S 3248  43.172  21.799   6.694
   10AU     LIG 3249  43.245  21.729   6.237
   10AU     LIG 3250  43.484  21.402   6.011
   11POPC   NC3 3251  33.133  35.799   9.536
   11POPC   PO4 3252  33.015  36.552   9.448
   11POPC   GL1 3253  33.042  36.261   9.107
   11POPC   GL2 3254  33.360  36.078   9.157
   11POPC   C1A 3255  32.930  36.127   8.662
   11POPC   D2A 3256  32.831  35.852   8.314
   11POPC   C3A 3257  33.003  35.940   7.879
   11POPC   C4A 3258  32.743  35.845   7.512
   11POPC   C1B 3259  33.414  36.277   8.756
   11POPC   C2B 3260  33.256  36.477   8.407
   11POPC   C3B 3261  33.362  36.334   8.001
   11POPC   C4B 3262  33.292  36.266   7.575
   12POPC   NC3 3263   0.839  31.288   9.372
   12POPC   PO4 3264   1.407  31.540   9.651
   12POPC   GL1 3265   1.319  31.563   9.213
   12POPC   GL2 3266   1.016  31.799   9.173
   12POPC   C1A 3267   1.460  31.331   8.800
   12POPC   D2A 3268   1.471  31.458   8.346
   12POPC   C3A 3269   1.151  31.383   8.011
   12POPC   C4A 3270   1.245  31.504   7.590
   12POPC   C1B 3271   1.115  31.708   8.753
   12POPC   C2B 3272   0.972  31.735   8.343
   12POPC   C3B 3273   0.836  31.863   7.950
   12POPC   C4B 3274   0.819  31.768   7.526
   13POPC   NC3 3275  26.823  39.725   9.469
   13POPC   PO4 3276  26.531  40.290   9.169
   13POPC   GL1 3277  26.648  39.867   9.021
   13POPC   GL2 3278  26.529  39.468   9.149
   13POPC   C1A 3279  27.016  39.857   8.726
   13POPC   D2A 3280  27.141  40.105   8.358
   13POPC   C3A 3281  26.973  39.967   7.976
   13POPC   C4A 3282  27.012  39.880   7.530
   13POPC   C1B 3283  26.699  39.452   8.760
   13POPC   C2B 3284  26.561  39.551   8.384
   13POPC   C3B 3285  26.422  39.722   8.028
   13POPC   C4B 3286  26.547  39.966   7.699
   14POPC   NC3 3287  42.956  31.078   9.493
   14POPC   PO4 3288  42.952  31.733   9.414
   14POPC   GL1 3289  43.199  31.565   9.093
   14POPC   GL2 3290  43.033  31.301   9.063
   14POPC   C1A 3291  43.309  31.429   8.678
   14POPC   D2A 3292  43.131  31.656   8.344
   14POPC   C3A 3293  43.317  31.499   8.035
   14POPC   C4A 3294  43.495  31.582   7.688
   14POPC   C1B 3295  42.807  31.584   8.755
   14POPC   C2B 3296  42.600  31.470   8.361
   14POPC   C3B 3297  42.710  31.333   7.937
   14POPC   C4B 3298  43.061  31.252   7.667
   15POPC   NC3 3299  26.483  21.327   9.714
   15POPC   PO4 3300  27.084  21.233   9.470
   15POPC   GL1 3301  26.782  21.359   9.230
   15POPC   GL2 3302  26.512  21.176   9.220
   15POPC   C1A 3303  26.765  21.553   8.832
   15POPC   D2A 3304  26.785  21.413   8.414
   15POPC   C3A 3305  26.870  21.699   8.091
   15POPC   C4A 3306  26.633  21.976   7.838
   15POPC   C1B 3307  26.441  21.158   8.785
   15POPC   C2B 3308  26.537  20.970   8.351
   15POPC   C3B 3309  26.493  21.244   8.008
   15POPC   C4B 3310  26.649  21.501   7.667
   16POPC   NC3 3311  43.069  16.565   9.555
   16POPC   PO4 3312  42.999  17.219   9.428
   16POPC   GL1 3313  43.045  16.899   9.075
   16POPC   GL2 3314  42.969  16.545   9.036
   16POPC   C1A 3315  43.044  16.793   8.610
   16POPC   D2A 3316  42.938  16.531   8.322
   16POPC   C3A 3317  43.013  16.723   7.930
   16POPC   C4A 3318  43.244  17.106   7.842
   16POPC   C1B 3319  43.317  16.340   8.874
   16POPC   C2B 3320  43.518  16.611   8.616
   16POPC   C3B 3321  43.444  16.725   8.199
   16POPC   C4B 3322  43.469  16.482   7.824
   17POPC   NC3 3323  42.596   5.949   9.510
   17POPC   PO4 3324  41.945   6.192   9.506
   17POPC   GL1 3325  42.084   5.952   9.116
   17POPC   GL2 3326  42.453   5.917   9.042
   17POPC   C1A 3327  42.137   5.629   8.782
   17POPC   D2A 3328  42.293   5.505   8.387
   17POPC   C3A 3329  42.070   5.722   8.061
   17POPC   C4A 3330  42.278   5.848   7.718
   17POPC   C1B 3331  42.620   5.948   8.644
   17POPC   C2B 3332  42.524   5.936   8.221
   17POPC   C3B 3333  42.757   5.826   7.881
   17POPC   C4B 3334  42.701   5.845   7.443
   18POPC   NC3 3335   2.237  14.101   9.523
   18POPC   PO4 3336   1.651  14.484   9.542
   18POPC   GL1 3337   1.958  14.438   9.227
   18POPC   GL2 3338   1.885  14.102   9.147
   18POPC   C1A 3339   1.933  14.630   8.823
   18POPC   D2A 3340   1.755  14.687   8.448
   18POPC   C3A 3341   1.970  14.522   8.067
   18POPC   C4A 3342   2.047  14.689   7.702
   18POPC   C1B 3343   2.105  14.168   8.751
   18POPC   C2B 3344   1.923  14.143   8.388
   18POPC   C3B 3345   2.050  13.980   7.991
   18POPC   C4B 3346   1.964  14.164   7.624
   19POPC   NC3 3347  22.519   4.554   9.636
   19POPC   PO4 3348  21.866   4.193   9.475
   19POPC   GL1 3349  22.067   4.292   9.100
   19POPC   GL2 3350  22.251   4.574   9.193
   19POPC   C1A 3351  22.184   4.266   8.670
   19POPC   D2A 3352  22.439   4.425   8.343
   19POPC   C3A 3353  22.259   4.313   7.971
   19POPC   C4A 3354  22.273   4.281   7.543
   19POPC   C1B 3355  22.234   4.762   8.788
   19POPC   C2B 3356  22.393   4.945   8.388
   19POPC   C3B 3357  22.358   4.828   7.973
   19POPC   C4B 3358  22.014   4.730   7.746
   20POPC   NC3 3359  20.471  42.275   9.537
   20POPC   PO4 3360  20.889  42.776   9.548
   20POPC   GL1 3361  20.837  42.448   9.224
   20POPC   GL2 3362  20.476  42.474   9.072
   20POPC   C1A 3363  20.857  42.303   8.788
   20POPC   D2A 3364  20.465  42.253   8.551
   20POPC   C3A 3365  20.515  42.375   8.122
   20POPC   C4A 3366  20.663  42.196   7.738
   20POPC   C1B 3367  20.297  42.794   8.804
   20POPC   C2B 3368  20.126  42.637   8.457
   20POPC   C3B 3369  20.096  42.706   8.059
   20POPC   C4B 3370  20.295  42.550   7.681
   21POPC   NC3 3371   1.534   9.630   9.481
   21POPC   PO4 3372   0.974  10.100   9.507
   21POPC   GL1 3373   1.117   9.787   9.221
   21POPC   GL2 3374   1.441   9.931   9.070
   21POPC   C1A 3375   1.190   9.539   8.848
   21POPC   D2A 3376   1.114   9.746   8.450
   21POPC   C3A 3377   1.264   9.639   8.060
   21POPC   C4A 3378   1.018   9.682   7.724
   21POPC   C1B 3379   1.589   9.824   8.658
   21POPC   C2B 3380   1.561  10.030   8.263
   21POPC   C3B 3381   1.594  10.000   7.805
   21POPC   C4B 3382   1.491   9.864   7.368
   22POPC   NC3 3383  11.094  23.264   9.460
   22POPC   PO4 3384  11.542  22.771   9.356
   22POPC   GL1 3385  11.463  23.101   9.091
   22POPC   GL2 3386  11.172  22.965   9.022
   22POPC   C1A 3387  11.542  23.062   8.656
   22POPC   D2A 3388  11.493  22.822   8.321
   22POPC   C3A 3389  11.418  23.033   7.980
   22POPC   C4A 3390  11.633  22.960   7.633
   22POPC   C1B 3391  11.163  22.665   8.680
   22POPC   C2B 3392  11.187  22.396   8.330
   22POPC   C3B 3393  11.073  22.600   7.981
   22POPC   C4B 3394  11.177  22.751   7.608
   23POPC   NC3 3395  32.118  28.101   9.541
   23POPC   PO4 3396  32.572  28.627   9.474
   23POPC   GL1 3397  32.310  28.366   9.170
   23POPC   GL2 3398  32.424  27.998   9.128
   23POPC   C1A 3399  32.113  28.312   8.753
   23POPC   D2A 3400  31.969  28.609   8.425
   23POPC   C3A 3401  32.103  28.510   8.018
   23POPC   C4A 3402  31.935  28.532   7.569
   23POPC   C1B 3403  32.539  27.993   8.688
   23POPC   C2B 3404  32.506  28.139   8.270
   23POPC   C3B 3405  32.417  28.126   7.831
   23POPC   C4B 3406  32.241  28.094   7.434
   24POPC   NC3 3407  18.529  27.812   9.588
   24POPC   PO4 3408  18.040  27.420   9.501
   24POPC   GL1 3409  18.325  27.577   9.163
   24POPC   GL2 3410  18.565  27.885   9.091
   24POPC   C1A 3411  18.514  27.514   8.750
   24POPC   D2A 3412  18.429  27.384   8.335
   24POPC   C3A 3413  18.437  27.464   7.906
   24POPC   C4A 3414  18.060  27.309   7.768
   24POPC   C1B 3415  18.183  27.918   8.818
   24POPC   C2B 3416  18.014  27.747   8.443
   24POPC   C3B 3417  18.125  27.864   8.042
   24POPC   C4B 3418  18.459  27.956   7.742
   25POPC   NC3 3419  40.980  20.426   9.432
   25POPC   PO4 3420  41.532  20.794   9.594
   25POPC   GL1 3421  41.685  20.867   9.174
   25POPC   GL2 3422  41.583  20.546   9.127
   25POPC   C1A 3423  41.530  20.856   8.738
   25POPC   D2A 3424  41.242  20.629   8.491
   25POPC   C3A 3425  41.423  20.450   8.184
   25POPC   C4A 3426  41.673  20.543   7.864
   25POPC   C1B 3427  41.634  20.340   8.729
   25POPC   C2B 3428  41.609  20.007   8.391
   25POPC   C3B 3429  41.469  19.996   7.977
   25POPC   C4B 3430  41.610  20.121   7.570
   26POPC   NC3 3431   9.393  15.675   9.259
   26POPC   PO4 3432   9.892  15.978   9.704
   26POPC   GL1 3433   9.934  15.902   9.264
   26POPC   GL2 3434   9.635  16.115   9.249
   26POPC   C1A 3435   9.886  15.945   8.799
   26POPC   D2A 3436  10.048  16.144   8.416
   26POPC   C3A 3437   9.855  16.024   8.016
   26POPC   C4A 3438   9.974  15.776   7.682
   26POPC   C1B 3439   9.445  16.277   8.881
   26POPC   C2B 3440   9.559  16.267   8.461
   26POPC   C3B 3441   9.501  16.384   8.053
   26POPC   C4B 3442   9.318  16.317   7.675
   27POPC   NC3 3443  42.084  34.395   9.506
   27POPC   PO4 3444  42.437  35.031   9.513
   27POPC   GL1 3445  42.343  34.746   9.230
   27POPC   GL2 3446  42.005  34.859   9.260
   27POPC   C1A 3447  42.462  34.567   8.841
   27POPC   D2A 3448  42.257  34.504   8.458
   27POPC   C3A 3449  42.498  34.504   8.077
   27POPC   C4A 3450  42.422  34.488   7.655
   27POPC   C1B 3451  42.032  34.833   8.827
   27POPC   C2B 3452  41.969  34.907   8.396
   27POPC   C3B 3453  42.255  34.957   8.091
   27POPC   C4B 3454  42.088  34.862   7.697
   28POPC   NC3 3455   6.023  41.332   9.758
   28POPC   PO4 3456   5.849  41.911   9.573
   28POPC   GL1 3457   5.871  41.783   9.120
   28POPC   GL2 3458   5.919  41.418   9.150
   28POPC   C1A 3459   5.941  41.637   8.668
   28POPC   D2A 3460   6.072  41.303   8.342
   28POPC   C3A 3461   5.894  41.381   7.944
   28POPC   C4A 3462   5.976  41.812   7.760
   28POPC   C1B 3463   5.577  41.296   8.846
   28POPC   C2B 3464   5.570  41.374   8.414
   28POPC   C3B 3465   5.671  41.772   8.184
   28POPC   C4B 3466   5.487  41.664   7.788
   29POPC   NC3 3467  32.923  16.475   9.525
   29POPC   PO4 3468  32.856  17.070   9.459
   29POPC   GL1 3469  33.184  16.876   9.216
   29POPC   GL2 3470  33.274  16.523   9.158
   29POPC   C1A 3471  33.154  16.874   8.787
   29POPC   D2A 3472  33.236  16.773   8.385
   29POPC   C3A 3473  33.064  16.826   7.998
   29POPC   C4A 3474  33.422  16.748   7.787
   29POPC   C1B 3475  32.928  16.434   8.887
   29POPC   C2B 3476  32.962  16.342   8.452
   29POPC   C3B 3477  33.227  16.353   8.094
   29POPC   C4B 3478  33.077  16.406   7.681
   30POPC   NC3 3479  30.329  44.930   9.544
   30POPC   PO4 3480  29.689  44.588   9.385
   30POPC   GL1 3481  29.971  44.723   9.149
   30POPC   GL2 3482  30.335  44.598   9.171
   30POPC   C1A 3483  30.071  44.522   8.764
   30POPC   D2A 3484  29.887  44.362   8.419
   30POPC   C3A 3485  29.934  44.561   8.059
   30POPC   C4A 3486  29.968  44.339   7.691
   30POPC   C1B 3487  30.289  44.977   8.872
   30POPC   C2B 3488  30.078  44.982   8.458
   30POPC   C3B 3489  30.218  44.969   8.022
   30POPC   C4B 3490  29.937  44.896   7.664
   31POPC   NC3 3491  29.300  14.531   9.436
   31POPC   PO4 3492  29.014  13.858   9.428
   31POPC   GL1 3493  28.971  14.179   9.095
   31POPC   GL2 3494  29.262  14.409   8.955
   31POPC   C1A 3495  28.988  14.124   8.643
   31POPC   D2A 3496  28.851  14.041   8.241
   31POPC   C3A 3497  29.092  14.272   7.933
   31POPC   C4A 3498  29.257  14.394   7.516
   31POPC   C1B 3499  29.050  14.702   8.687
   31POPC   C2B 3500  28.911  14.610   8.265
   31POPC   C3B 3501  28.800  14.835   7.835
   31POPC   C4B 3502  28.806  14.794   7.325
   32POPC   NC3 3503  35.186   0.251   9.558
   32POPC   PO4 3504  35.260   0.919   9.671
   32POPC   GL1 3505  35.246   0.684   9.240
   32POPC   GL2 3506  35.476   0.361   9.139
   32POPC   C1A 3507  35.234   0.655   8.781
   32POPC   D2A 3508  35.144   0.801   8.364
   32POPC   C3A 3509  35.256   0.592   7.963
   32POPC   C4A 3510  35.073   0.218   7.774
   32POPC   C1B 3511  35.727   0.509   8.780
   32POPC   C2B 3512  35.568   0.491   8.354
   32POPC   C3B 3513  35.693   0.328   7.955
   32POPC   C4B 3514  35.537  44.984   7.736
   33POPC   NC3 3515  39.593  30.999   9.408
   33POPC   PO4 3516  39.972  31.577   9.503
   33POPC   GL1 3517  40.115  31.497   9.096
   33POPC   GL2 3518  39.994  31.167   9.126
   33POPC   C1A 3519  39.964  31.493   8.681
   33POPC   D2A 3520  40.078  31.704   8.302
   33POPC   C3A 3521  39.988  31.540   7.900
   33POPC   C4A 3522  40.055  31.623   7.447
   33POPC   C1B 3523  39.788  31.010   8.760
   33POPC   C2B 3524  39.567  30.959   8.391
   33POPC   C3B 3525  39.697  30.986   7.955
   33POPC   C4B 3526  39.763  31.222   7.567
   34POPC   NC3 3527  28.196   1.122   9.571
   34POPC   PO4 3528  28.812   1.352   9.563
   34POPC   GL1 3529  28.590   1.118   9.246
   34POPC   GL2 3530  28.438   1.405   9.165
   34POPC   C1A 3531  28.339   1.012   8.853
   34POPC   D2A 3532  28.247   1.285   8.489
   34POPC   C3A 3533  28.340   1.104   8.076
   34POPC   C4A 3534  28.326   0.797   7.742
   34POPC   C1B 3535  28.655   1.476   8.789
   34POPC   C2B 3536  28.931   1.403   8.441
   34POPC   C3B 3537  28.753   1.378   8.010
   34POPC   C4B 3538  28.444   1.361   7.640
   35POPC   NC3 3539  24.378  25.181   9.384
   35POPC   PO4 3540  24.551  25.853   9.578
   35POPC   GL1 3541  24.426  25.653   9.135
   35POPC   GL2 3542  24.671  25.406   8.988
   35POPC   C1A 3543  24.264  25.483   8.724
   35POPC   D2A 3544  24.655  25.349   8.458
   35POPC   C3A 3545  24.573  25.309   8.033
   35POPC   C4A 3546  24.219  25.495   7.849
   35POPC   C1B 3547  24.466  25.000   8.774
   35POPC   C2B 3548  24.159  24.999   8.455
   35POPC   C3B 3549  24.211  24.938   8.030
   35POPC   C4B 3550  24.424  24.957   7.661
   36POPC   NC3 3551  25.568  34.660   9.656
   36POPC   PO4 3552  24.880  34.503   9.531
   36POPC   GL1 3553  25.029  34.503   9.104
   36POPC   GL2 3554  25.340  34.460   9.232
   36POPC   C1A 3555  25.084  34.726   8.700
   36POPC   D2A 3556  25.115  34.488   8.321
   36POPC   C3A 3557  25.096  34.630   7.878
   36POPC   C4A 3558  25.153  34.384   7.476
   36POPC   C1B 3559  25.406  34.356   8.798
   36POPC   C2B 3560  25.600  34.668   8.549
   36POPC   C3B 3561  25.633  34.941   8.184
   36POPC   C4B 3562  25.713  34.804   7.753
   37POPC   NC3 3563  13.973  20.342   9.245
   37POPC   PO4 3564  13.457  20.796   9.530
   37POPC   GL1 3565  13.635  20.751   9.159
   37POPC   GL2 3566  13.304  20.719   9.055
   37POPC   C1A 3567  13.734  20.704   8.735
   37POPC   D2A 3568  13.773  20.343   8.482
   37POPC   C3A 3569  13.781  20.438   8.032
   37POPC   C4A 3570  13.994  20.645   7.686
   37POPC   C1B 3571  13.213  20.663   8.654
   37POPC   C2B 3572  13.125  20.893   8.288
   37POPC   C3B 3573  13.185  20.688   7.916
   37POPC   C4B 3574  13.479  20.626   7.617
   38POPC   NC3 3575  15.051  12.839  10.091
   38POPC   PO4 3576  14.907  13.092   9.482
   38POPC   GL1 3577  15.049  12.910   9.120
   38POPC   GL2 3578  15.149  12.577   9.096
   38POPC   C1A 3579  15.146  12.950   8.704
   38POPC   D2A 3580  15.366  13.001   8.334
   38POPC   C3A 3581  15.182  12.943   7.931
   38POPC   C4A 3582  15.466  13.193   7.669
   38POPC   C1B 3583  14.974  12.475   8.720
   38POPC   C2B 3584  15.100  12.569   8.324
   38POPC   C3B 3585  14.824  12.543   8.031
   38POPC   C4B 3586  14.624  12.246   7.806
   39POPC   NC3 3587  34.396   3.395   9.568
   39POPC   PO4 3588  35.021   3.700   9.572
   39POPC   GL1 3589  34.677   3.743   9.255
   39POPC   GL2 3590  34.523   3.418   9.082
   39POPC   C1A 3591  34.696   3.802   8.810
   39POPC   D2A 3592  34.490   3.615   8.436
   39POPC   C3A 3593  34.656   3.708   8.025
   39POPC   C4A 3594  34.898   3.433   7.807
   39POPC   C1B 3595  34.280   3.188   8.744
   39POPC   C2B 3596  34.154   3.241   8.299
   39POPC   C3B 3597  34.430   3.252   7.905
   39POPC   C4B 3598  34.429   3.012   7.495
   40POPC   NC3 3599  42.599  20.221   9.464
   40POPC   PO4 3600  43.082  19.853   9.658
   40POPC   GL1 3601  43.073  19.733   9.224
   40POPC   GL2 3602  42.818  19.960   9.068
   40POPC   C1A 3603  43.228  19.552   8.818
   40POPC   D2A 3604  43.027  19.404   8.411
   40POPC   C3A 3605  43.168  19.501   7.980
   40POPC   C4A 3606  43.342  19.830   7.733
   40POPC   C1B 3607  42.651  20.044   8.638
   40POPC   C2B 3608  42.705  20.096   8.185
   40POPC   C3B 3609  42.866  20.009   7.731
   40POPC   C4B 3610  42.998  19.577   7.469
   41POPC   NC3 3611  37.107  17.361   9.391
   41POPC   PO4 3612  36.739  17.813   9.713
   41POPC   GL1 3613  36.846  17.738   9.162
   41POPC   GL2 3614  36.833  17.377   8.998
   41POPC   C1A 3615  36.862  17.691   8.627
   41POPC   D2A 3616  36.649  17.373   8.304
   41POPC   C3A 3617  36.812  17.379   7.906
   41POPC   C4A 3618  36.981  17.755   7.768
   41POPC   C1B 3619  37.177  17.192   8.760
   41POPC   C2B 3620  37.164  17.333   8.348
   41POPC   C3B 3621  37.236  17.091   7.972
   41POPC   C4B 3622  37.244  17.166   7.547
   42POPC   NC3 3623  18.312  41.794   9.367
   42POPC   PO4 3624  18.433  42.443   9.438
   42POPC   GL1 3625  18.234  42.556   9.076
   42POPC   GL2 3626  17.990  42.261   9.140
   42POPC   C1A 3627  18.326  42.651   8.634
   42POPC   D2A 3628  18.479  42.517   8.222
   42POPC   C3A 3629  18.302  42.270   7.902
   42POPC   C4A 3630  18.637  42.198   7.654
   42POPC   C1B 3631  18.252  42.145   8.779
   42POPC   C2B 3632  18.358  42.053   8.381
   42POPC   C3B 3633  18.022  41.931   8.154
   42POPC   C4B 3634  17.897  41.951   7.736
   43POPC   NC3 3635  27.838  38.285   9.474
   43POPC   PO4 3636  27.250  38.635   9.513
   43POPC   GL1 3637  27.491  38.512   9.171
   43POPC   GL2 3638  27.453  38.160   9.139
   43POPC   C1A 3639  27.641  38.487   8.761
   43POPC   D2A 3640  27.460  38.434   8.334
   43POPC   C3A 3641  27.689  38.505   7.946
   43POPC   C4A 3642  28.035  38.526   7.585
   43POPC   C1B 3643  27.249  38.156   8.747
   43POPC   C2B 3644  27.374  37.933   8.354
   43POPC   C3B 3645  27.442  38.063   7.935
   43POPC   C4B 3646  27.753  38.098   7.624
   44POPC   NC3 3647   9.701   8.457   9.571
   44POPC   PO4 3648   9.535   7.819   9.447
   44POPC   GL1 3649   9.776   8.143   9.146
   44POPC   GL2 3650   9.973   8.507   9.157
   44POPC   C1A 3651   9.797   8.022   8.715
   44POPC   D2A 3652   9.519   8.093   8.363
   44POPC   C3A 3653   9.710   7.993   8.009
   44POPC   C4A 3654   9.788   7.951   7.603
   44POPC   C1B 3655  10.102   8.412   8.754
   44POPC   C2B 3656   9.977   8.322   8.316
   44POPC   C3B 3657  10.092   8.275   7.854
   44POPC   C4B 3658   9.938   8.418   7.374
   45POPC   NC3 3659   1.675  32.446   9.383
   45POPC   PO4 3660   2.176  32.170   9.539
   45POPC   GL1 3661   2.041  32.144   9.128
   45POPC   GL2 3662   1.670  31.986   9.112
   45POPC   C1A 3663   2.192  32.408   8.752
   45POPC   D2A 3664   2.171  32.620   8.313
   45POPC   C3A 3665   1.983  32.427   7.945
   45POPC   C4A 3666   2.039  32.523   7.486
   45POPC   C1B 3667   1.724  32.184   8.754
   45POPC   C2B 3668   1.998  32.089   8.402
   45POPC   C3B 3669   1.944  31.876   8.043
   45POPC   C4B 3670   1.632  31.842   7.735
   46POPC   NC3 3671  34.678  44.761   9.522
   46POPC   PO4 3672  34.141  44.502   9.760
   46POPC   GL1 3673  34.286  44.650   9.236
   46POPC   GL2 3674  34.294   0.009   9.182
   46POPC   C1A 3675  34.519  44.543   8.792
   46POPC   D2A 3676  34.429  44.689   8.347
   46POPC   C3A 3677  34.319  44.433   7.980
   46POPC   C4A 3678  34.713  44.364   7.780
   46POPC   C1B 3679  34.496   0.064   8.774
   46POPC   C2B 3680  34.454   0.193   8.345
   46POPC   C3B 3681  34.593   0.017   7.964
   46POPC   C4B 3682  34.277  44.965   7.641
   47POPC   NC3 3683  43.692  34.143   9.422
   47POPC   PO4 3684  44.101  33.609   9.513
   47POPC   GL1 3685  43.993  33.768   9.144
   47POPC   GL2 3686  43.657  33.706   9.129
   47POPC   C1A 3687  43.966  33.756   8.691
   47POPC   D2A 3688  43.828  34.053   8.383
   47POPC   C3A 3689  44.000  33.950   7.960
   47POPC   C4A 3690  44.106  33.568   7.766
   47POPC   C1B 3691  43.464  33.859   8.738
   47POPC   C2B 3692  43.431  33.724   8.288
   47POPC   C3B 3693  43.551  33.753   7.845
   47POPC   C4B 3694  43.421  33.624   7.438
   48POPC   NC3 3695  12.712  31.586   9.551
   48POPC   PO4 3696  13.333  31.446   9.535
   48POPC   GL1 3697  13.116  31.582   9.162
   48POPC   GL2 3698  12.754  31.507   9.056
   48POPC   C1A 3699  13.118  31.647   8.714
   48POPC   D2A 3700  12.957  31.520   8.288
   48POPC   C3A 3701  13.147  31.664   7.914
   48POPC   C4A 3702  13.113  31.814   7.487
   48POPC   C1B 3703  12.581  31.550   8.643
   48POPC   C2B 3704  12.462  31.741   8.221
   48POPC   C3B 3705  12.584  31.452   7.882
   48POPC   C4B 3706  12.885  31.129   7.915
   49POPC   NC3 3707  24.409  31.960   9.531
   49POPC   PO4 3708  24.507  32.691   9.488
   49POPC   GL1 3709  24.289  32.416   9.135
   49POPC   GL2 3710  24.235  32.016   9.061
   49POPC   C1A 3711  24.361  32.348   8.685
   49POPC   D2A 3712  24.607  32.535   8.346
   49POPC   C3A 3713  24.416  32.376   7.989
   49POPC   C4A 3714  24.229  32.243   7.637
   49POPC   C1B 3715  24.594  31.885   8.793
   49POPC   C2B 3716  24.609  32.000   8.343
   49POPC   C3B 3717  24.364  31.876   7.978
   49POPC   C4B 3718  24.516  31.738   7.597
   50POPC   NC3 3719  38.639  16.920   9.432
   50POPC   PO4 3720  38.155  16.372   9.466
   50POPC   GL1 3721  38.328  16.649   9.137
   50POPC   GL2 3722  38.676  16.670   8.971
   50POPC   C1A 3723  38.297  16.935   8.792
   50POPC   D2A 3724  38.550  16.722   8.459
   50POPC   C3A 3725  38.364  16.466   8.162
   50POPC   C4A 3726  38.283  16.476   7.744
   50POPC   C1B 3727  38.776  17.090   8.704
   50POPC   C2B 3728  38.626  17.239   8.293
   50POPC   C3B 3729  38.536  16.919   7.981
   50POPC   C4B 3730  38.791  16.587   7.848
   51POPC   NC3 3731  29.599  43.709   9.590
   51POPC   PO4 3732  29.381  44.279   9.796
   51POPC   GL1 3733  29.666  44.098   9.300
   51POPC   GL2 3734  29.955  43.830   9.213
   51POPC   C1A 3735  29.780  44.092   8.838
   51POPC   D2A 3736  29.952  43.859   8.485
   51POPC   C3A 3737  29.832  43.987   8.075
   51POPC   C4A 3738  29.870  43.837   7.678
   51POPC   C1B 3739  30.247  43.644   8.856
   51POPC   C2B 3740  30.410  43.657   8.378
   51POPC   C3B 3741  30.325  43.730   7.946
   51POPC   C4B 3742  30.336  43.749   7.509
   52POPC   NC3 3743   2.801   8.286   9.440
   52POPC   PO4 3744   2.856   7.628   9.370
   52POPC   GL1 3745   2.914   7.951   9.063
   52POPC   GL2 3746   2.574   8.163   9.012
   52POPC   C1A 3747   2.943   8.074   8.645
   52POPC   D2A 3748   3.031   8.356   8.302
   52POPC   C3A 3749   2.829   8.169   7.937
   52POPC   C4A 3750   2.672   7.932   7.573
   52POPC   C1B 3751   2.736   8.519   8.766
   52POPC   C2B 3752   2.542   8.556   8.366
   52POPC   C3B 3753   2.319   8.360   8.021
   52POPC   C4B 3754   2.354   8.403   7.589
   53POPC   NC3 3755  35.492  19.635   9.551
   53POPC   PO4 3756  35.476  20.328   9.697
   53POPC   GL1 3757  35.434  20.117   9.259
   53POPC   GL2 3758  35.244  19.806   9.133
   53POPC   C1A 3759  35.577  20.042   8.831
   53POPC   D2A 3760  35.232  19.963   8.573
   53POPC   C3A 3761  35.293  19.962   8.147
   53POPC   C4A 3762  35.215  20.014   7.710
   53POPC   C1B 3763  35.445  19.538   8.788
   53POPC   C2B 3764  35.435  19.344   8.364
   53POPC   C3B 3765  35.734  19.405   8.030
   53POPC   C4B 3766  35.679  19.810   7.840
   54POPC   NC3 3767   7.289  35.025   9.494
   54POPC   PO4 3768   7.525  35.642   9.568
   54POPC   GL1 3769   7.418  35.406   9.174
   54POPC   GL2 3770   7.150  35.249   9.037
   54POPC   C1A 3771   7.541  35.527   8.746
   54POPC   D2A 3772   7.332  35.323   8.450
   54POPC   C3A 3773   7.236  35.508   8.072
   54POPC   C4A 3774   7.367  35.734   7.700
   54POPC   C1B 3775   7.064  34.964   8.709
   54POPC   C2B 3776   7.285  34.809   8.367
   54POPC   C3B 3777   7.550  35.034   8.093
   54POPC   C4B 3778   7.444  35.236   7.686
   55POPC   NC3 3779   8.862  44.981   9.618
   55POPC   PO4 3780   9.436  44.910   9.308
   55POPC   GL1 3781   9.043  44.799   9.156
   55POPC   GL2 3782   8.799  44.551   9.270
   55POPC   C1A 3783   9.098  44.647   8.761
   55POPC   D2A 3784   9.265  44.841   8.394
   55POPC   C3A 3785   9.057  44.687   8.058
   55POPC   C4A 3786   9.314  44.480   7.774
   55POPC   C1B 3787   8.565  44.542   8.887
   55POPC   C2B 3788   8.687  44.600   8.467
   55POPC   C3B 3789   8.611  44.425   8.064
   55POPC   C4B 3790   8.825  44.446   7.659
   56POPC   NC3 3791  21.356  42.740   9.573
   56POPC   PO4 3792  21.335  43.405   9.533
   56POPC   GL1 3793  21.380  43.154   9.153
   56POPC   GL2 3794  21.688  42.940   9.231
   56POPC   C1A 3795  21.199  43.187   8.705
   56POPC   D2A 3796  21.023  43.016   8.285
   56POPC   C3A 3797  21.177  43.102   7.859
   56POPC   C4A 3798  21.553  43.360   7.863
   56POPC   C1B 3799  21.696  42.887   8.783
   56POPC   C2B 3800  21.559  42.968   8.368
   56POPC   C3B 3801  21.486  42.726   8.025
   56POPC   C4B 3802  21.603  42.875   7.645
   57POPC   NC3 3803   5.630   7.402   9.492
   57POPC   PO4 3804   6.361   7.134   9.560
   57POPC   GL1 3805   6.078   7.341   9.241
   57POPC   GL2 3806   5.986   7.705   9.278
   57POPC   C1A 3807   5.818   7.402   8.863
   57POPC   D2A 3808   5.674   7.126   8.559
   57POPC   C3A 3809   5.677   7.307   8.162
   57POPC   C4A 3810   5.758   7.427   7.765
   57POPC   C1B 3811   6.053   7.859   8.865
   57POPC   C2B 3812   5.792   7.770   8.480
   57POPC   C3B 3813   5.972   7.779   8.081
   57POPC   C4B 3814   5.925   7.903   7.640
   58POPC   NC3 3815  26.584  19.378   9.830
   58POPC   PO4 3816  26.008  19.114   9.497
   58POPC   GL1 3817  25.976  18.990   9.091
   58POPC   GL2 3818  25.875  19.358   9.064
   58POPC   C1A 3819  25.962  18.756   8.694
   58POPC   D2A 3820  25.835  18.923   8.297
   58POPC   C3A 3821  26.051  18.992   7.910
   58POPC   C4A 3822  26.081  18.846   7.465
   58POPC   C1B 3823  26.010  19.345   8.675
   58POPC   C2B 3824  25.739  19.415   8.371
   58POPC   C3B 3825  25.699  19.392   7.948
   58POPC   C4B 3826  25.746  19.224   7.529
   59POPC   NC3 3827  15.525  43.027   9.403
   59POPC   PO4 3828  16.078  43.267   9.618
   59POPC   GL1 3829  15.977  43.283   9.181
   59POPC   GL2 3830  16.207  43.034   9.094
   59POPC   C1A 3831  15.801  43.176   8.774
   59POPC   D2A 3832  15.874  43.212   8.344
   59POPC   C3A 3833  15.741  42.964   8.013
   59POPC   C4A 3834  15.806  43.153   7.646
   59POPC   C1B 3835  16.284  43.032   8.641
   59POPC   C2B 3836  16.291  42.981   8.212
   59POPC   C3B 3837  16.269  42.971   7.795
   59POPC   C4B 3838  16.437  42.665   7.494
   60POPC   NC3 3839  10.749   6.112   9.523
   60POPC   PO4 3840  10.165   5.879   9.509
   60POPC   GL1 3841  10.447   5.834   9.210
   60POPC   GL2 3842  10.607   5.603   9.386
   60POPC   C1A 3843  10.649   5.941   8.850
   60POPC   D2A 3844  10.632   6.022   8.414
   60POPC   C3A 3845  10.344   5.797   8.134
   60POPC   C4A 3846  10.525   6.017   7.774
   60POPC   C1B 3847  10.658   5.428   8.945
   60POPC   C2B 3848  10.724   5.520   8.512
   60POPC   C3B 3849  10.734   5.467   8.073
   60POPC   C4B 3850  10.570   5.533   7.660
   61POPC   NC3 3851  39.055  44.892   9.585
   61POPC   PO4 3852  39.450  44.305   9.676
   61POPC   GL1 3853  39.416  44.601   9.371
   61POPC   GL2 3854  39.268  44.382   9.168
   61POPC   C1A 3855  39.396  44.866   8.983
   61POPC   D2A 3856  39.218  44.980   8.564
   61POPC   C3A 3857  39.417  44.901   8.156
   61POPC   C4A 3858  39.256   0.050   7.749
   61POPC   C1B 3859  39.017  44.521   8.818
   61POPC   C2B 3860  39.005  44.529   8.380
   61POPC   C3B 3861  38.982  44.662   7.961
   61POPC   C4B 3862  39.110  44.376   7.660
   62POPC   NC3 3863   7.245   1.090   9.505
   62POPC   PO4 3864   7.502   1.717   9.507
   62POPC   GL1 3865   7.585   1.444   9.173
   62POPC   GL2 3866   7.893   1.579   9.045
   62POPC   C1A 3867   7.385   1.202   8.834
   62POPC   D2A 3868   7.050   1.076   8.516
   62POPC   C3A 3869   7.217   1.250   8.128
   62POPC   C4A 3870   7.475   1.133   7.805
   62POPC   C1B 3871   7.835   1.414   8.628
   62POPC   C2B 3872   7.735   1.341   8.196
   62POPC   C3B 3873   7.860   1.465   7.788
   62POPC   C4B 3874   7.990   1.425   7.395
   63POPC   NC3 3875  25.851  20.878   9.503
   63POPC   PO4 3876  26.048  21.480   9.703
   63POPC   GL1 3877  25.996  21.338   9.252
   63POPC   GL2 3878  25.894  21.642   9.070
   63POPC   C1A 3879  25.904  21.192   8.800
   63POPC   D2A 3880  26.119  21.246   8.395
   63POPC   C3A 3881  25.926  21.181   8.011
   63POPC   C4A 3882  25.762  21.389   7.648
   63POPC   C1B 3883  26.171  21.663   8.720
   63POPC   C2B 3884  26.069  21.763   8.288
   63POPC   C3B 3885  26.176  21.623   7.888
   63POPC   C4B 3886  26.262  21.788   7.492
   64POPC   NC3 3887  39.871  33.488   9.782
   64POPC   PO4 3888  40.118  34.063   9.582
   64POPC   GL1 3889  40.138  33.853   9.202
   64POPC   GL2 3890  39.783  33.974   9.135
   64POPC   C1A 3891  40.177  33.744   8.778
   64POPC   D2A 3892  39.833  33.659   8.492
   64POPC   C3A 3893  39.962  33.665   8.063
   64POPC   C4A 3894  40.124  33.823   7.676
   64POPC   C1B 3895  39.899  34.165   8.753
   64POPC   C2B 3896  40.097  34.091   8.352
   64POPC   C3B 3897  39.877  34.165   7.974
   64POPC   C4B 3898  39.620  34.474   7.801
   65POPC   NC3 3899  10.246  24.063   9.443
   65POPC   PO4 3900  10.660  23.476   9.428
   65POPC   GL1 3901  10.431  23.610   9.113
   65POPC   GL2 3902  10.600  23.904   9.102
   65POPC   C1A 3903  10.598  23.583   8.691
   65POPC   D2A 3904  10.678  23.411   8.282
   65POPC   C3A 3905  10.322  23.536   8.032
   65POPC   C4A 3906  10.228  23.711   7.644
   65POPC   C1B 3907  10.867  24.030   8.764
   65POPC   C2B 3908  10.982  23.826   8.391
   65POPC   C3B 3909  10.764  23.828   7.993
   65POPC   C4B 3910  10.714  23.959   7.586
   66POPC   NC3 3911  23.765  16.621   9.607
   66POPC   PO4 3912  23.854  17.250   9.352
   66POPC   GL1 3913  23.625  16.911   9.187
   66POPC   GL2 3914  23.831  16.987   8.900
   66POPC   C1A 3915  23.439  16.697   8.810
   66POPC   D2A 3916  23.586  16.946   8.442
   66POPC   C3A 3917  23.742  16.674   8.117
   66POPC   C4A 3918  23.590  16.665   7.699
   66POPC   C1B 3919  24.061  16.799   8.538
   66POPC   C2B 3920  24.113  17.099   8.214
   66POPC   C3B 3921  23.942  17.048   7.814
   66POPC   C4B 3922  24.065  16.820   7.468
   67POPC   NC3 3923   6.104  38.158   9.505
   67POPC   PO4 3924   5.443  38.320   9.516
   67POPC   GL1 3925   5.754  38.410   9.207
   67POPC   GL2 3926   5.904  38.759   9.210
   67POPC   C1A 3927   5.919  38.427   8.813
   67POPC   D2A 3928   5.885  38.608   8.423
   67POPC   C3A 3929   6.135  38.435   8.102
   67POPC   C4A 3930   5.943  38.428   7.700
   67POPC   C1B 3931   6.128  38.894   8.801
   67POPC   C2B 3932   6.306  38.889   8.381
   67POPC   C3B 3933   6.107  38.929   7.958
   67POPC   C4B 3934   6.062  38.883   7.486
   68POPC   NC3 3935  35.861  22.574   9.699
   68POPC   PO4 3936  36.287  23.062   9.734
   68POPC   GL1 3937  36.268  22.957   9.252
   68POPC   GL2 3938  36.284  22.573   9.271
   68POPC   C1A 3939  36.113  23.119   8.833
   68POPC   D2A 3940  36.073  23.293   8.378
   68POPC   C3A 3941  35.936  23.138   7.956
   68POPC   C4A 3942  36.145  22.909   7.585
   68POPC   C1B 3943  36.053  22.552   8.869
   68POPC   C2B 3944  36.038  22.771   8.478
   68POPC   C3B 3945  36.043  22.656   8.064
   68POPC   C4B 3946  35.729  22.646   7.800
   69POPC   NC3 3947  37.893  26.791   9.849
   69POPC   PO4 3948  37.675  27.048   9.294
   69POPC   GL1 3949  37.737  26.739   9.058
   69POPC   GL2 3950  38.026  26.620   9.300
   69POPC   C1A 3951  37.627  26.633   8.612
   69POPC   D2A 3952  37.428  26.917   8.272
   69POPC   C3A 3953  37.662  26.980   7.927
   69POPC   C4A 3954  37.575  27.065   7.557
   69POPC   C1B 3955  38.067  26.421   8.883
   69POPC   C2B 3956  38.122  26.527   8.431
   69POPC   C3B 3957  37.845  26.532   8.042
   69POPC   C4B 3958  37.526  26.524   7.680
   70POPC   NC3 3959   9.227   3.027   9.518
   70POPC   PO4 3960   8.655   3.395   9.559
   70POPC   GL1 3961   8.889   3.543   9.233
   70POPC   GL2 3962   9.042   3.277   9.109
   70POPC   C1A 3963   9.062   3.714   8.829
   70POPC   D2A 3964   8.902   3.598   8.434
   70POPC   C3A 3965   9.042   3.734   8.054
   70POPC   C4A 3966   9.035   3.395   7.785
   70POPC   C1B 3967   9.304   3.278   8.764
   70POPC   C2B 3968   9.243   3.200   8.383
   70POPC   C3B 3969   9.426   3.243   8.048
   70POPC   C4B 3970   9.254   2.916   7.810
   71POPC   NC3 3971  34.829   6.787   9.648
   71POPC   PO4 3972  35.424   6.814   9.557
   71POPC   GL1 3973  35.129   6.723   9.220
   71POPC   GL2 3974  35.143   6.383   9.087
   71POPC   C1A 3975  35.072   6.857   8.783
   71POPC   D2A 3976  35.194   6.596   8.447
   71POPC   C3A 3977  35.372   6.804   8.078
   71POPC   C4A 3978  35.208   6.771   7.685
   71POPC   C1B 3979  35.506   6.569   8.852
   71POPC   C2B 3980  35.710   6.570   8.421
   71POPC   C3B 3981  35.683   6.373   8.048
   71POPC   C4B 3982  35.677   6.575   7.677
   72POPC   NC3 3983  16.960  41.330   9.726
   72POPC   PO4 3984  17.677  41.429   9.653
   72POPC   GL1 3985  17.477  41.406   9.170
   72POPC   GL2 3986  17.751  41.263   8.994
   72POPC   C1A 3987  17.407  41.734   8.786
   72POPC   D2A 3988  17.641  42.006   8.503
   72POPC   C3A 3989  17.519  41.911   8.091
   72POPC   C4A 3990  17.386  41.987   7.706
   72POPC   C1B 3991  17.427  41.231   8.677
   72POPC   C2B 3992  17.601  41.475   8.371
   72POPC   C3B 3993  17.843  41.476   8.030
   72POPC   C4B 3994  17.607  41.528   7.688
   73POPC   NC3 3995  19.252   5.623   9.493
   73POPC   PO4 3996  18.840   6.156   9.472
   73POPC   GL1 3997  19.059   5.934   9.107
   73POPC   GL2 3998  19.333   5.648   8.997
   73POPC   C1A 3999  18.984   6.011   8.679
   73POPC   D2A 4000  18.869   6.314   8.413
   73POPC   C3A 4001  18.809   6.128   8.054
   73POPC   C4A 4002  18.864   5.884   7.689
   73POPC   C1B 4003  19.473   5.977   8.728
   73POPC   C2B 4004  19.377   6.112   8.315
   73POPC   C3B 4005  19.302   6.053   7.884
   73POPC   C4B 4006  19.274   6.169   7.440
   74POPC   NC3 4007  39.982   4.059   9.474
   74POPC   PO4 4008  40.301   4.693   9.425
   74POPC   GL1 4009  40.186   4.398   9.124
   74POPC   GL2 4010  39.834   4.376   9.082
   74POPC   C1A 4011  40.238   4.140   8.768
   74POPC   D2A 4012  40.263   4.376   8.405
   74POPC   C3A 4013  40.137   4.286   8.003
   74POPC   C4A 4014  40.327   4.582   7.733
   74POPC   C1B 4015  39.776   4.370   8.661
   74POPC   C2B 4016  39.860   4.037   8.387
   74POPC   C3B 4017  39.744   3.935   7.994
   74POPC   C4B 4018  39.815   4.148   7.600
   75POPC   NC3 4019  31.213  39.292   9.712
   75POPC   PO4 4020  31.856  39.444   9.635
   75POPC   GL1 4021  31.593  39.243   9.288
   75POPC   GL2 4022  31.793  39.357   9.010
   75POPC   C1A 4023  31.412  39.100   8.848
   75POPC   D2A 4024  31.701  39.208   8.498
   75POPC   C3A 4025  31.618  39.150   8.053
   75POPC   C4A 4026  31.259  38.992   7.827
   75POPC   C1B 4027  31.894  39.662   8.715
   75POPC   C2B 4028  31.800  39.672   8.294
   75POPC   C3B 4029  31.709  39.628   7.867
   75POPC   C4B 4030  31.633  39.572   7.424
   76POPC   NC3 4031  21.841  35.411   9.435
   76POPC   PO4 4032  22.410  34.951   9.370
   76POPC   GL1 4033  22.182  35.226   9.096
   76POPC   GL2 4034  21.847  35.043   9.095
   76POPC   C1A 4035  22.224  35.559   8.772
   76POPC   D2A 4036  22.021  35.632   8.401
   76POPC   C3A 4037  22.240  35.367   8.159
   76POPC   C4A 4038  22.526  35.442   7.865
   76POPC   C1B 4039  21.882  35.190   8.677
   76POPC   C2B 4040  22.165  34.947   8.454
   76POPC   C3B 4041  22.123  34.849   8.057
   76POPC   C4B 4042  22.112  35.101   7.737
   77POPC   NC3 4043  33.002  28.564   9.604
   77POPC   PO4 4044  33.313  27.934   9.539
   77POPC   GL1 4045  33.175  28.263   9.225
   77POPC   GL2 4046  32.837  28.296   9.179
   77POPC   C1A 4047  33.129  28.500   8.813
   77POPC   D2A 4048  32.947  28.451   8.413
   77POPC   C3A 4049  33.094  28.673   8.061
   77POPC   C4A 4050  32.953  28.418   7.706
   77POPC   C1B 4051  32.620  28.474   8.811
   77POPC   C2B 4052  32.478  28.645   8.430
   77POPC   C3B 4053  32.594  28.582   8.004
   77POPC   C4B 4054  32.514  28.536   7.507
   78POPC   NC3 4055  39.025  24.079   9.400
   78POPC   PO4 4056  39.522  24.473   9.498
   78POPC   GL1 4057  39.382  24.347   9.090
   78POPC   GL2 4058  39.053  24.266   8.927
   78POPC   C1A 4059  39.590  24.321   8.711
   78POPC   D2A 4060  39.574  24.555   8.310
   78POPC   C3A 4061  39.438  24.391   7.910
   78POPC   C4A 4062  39.279  24.244   7.497
   78POPC   C1B 4063  38.852  24.580   8.679
   78POPC   C2B 4064  39.046  24.603   8.289
   78POPC   C3B 4065  38.956  24.572   7.879
   78POPC   C4B 4066  38.830  24.984   7.783
   79POPC   NC3 4067  32.022  25.404   9.773
   79POPC   PO4 4068  32.324  24.866   9.427
   79POPC   GL1 4069  32.052  25.101   9.138
   79POPC   GL2 4070  31.955  25.457   9.206
   79POPC   C1A 4071  32.136  25.310   8.755
   79POPC   D2A 4072  32.082  25.184   8.380
   79POPC   C3A 4073  32.211  25.337   8.017
   79POPC   C4A 4074  32.078  25.155   7.673
   79POPC   C1B 4075  31.955  25.770   8.861
   79POPC   C2B 4076  31.816  25.630   8.456
   79POPC   C3B 4077  31.844  25.779   8.040
   79POPC   C4B 4078  31.840  25.609   7.636
   80POPC   NC3 4079  41.160   2.010   9.279
   80POPC   PO4 4080  41.848   1.935   9.428
   80POPC   GL1 4081  41.673   2.151   9.104
   80POPC   GL2 4082  41.545   1.840   9.016
   80POPC   C1A 4083  41.552   2.221   8.709
   80POPC   D2A 4084  41.756   2.026   8.404
   80POPC   C3A 4085  41.650   2.151   8.029
   80POPC   C4A 4086  41.570   2.179   7.632
   80POPC   C1B 4087  41.378   1.753   8.616
   80POPC   C2B 4088  41.227   1.957   8.251
   80POPC   C3B 4089  41.225   1.839   7.819
   80POPC   C4B 4090  41.245   1.628   7.396
   81POPC   NC3 4091  29.730  27.163   9.477
   81POPC   PO4 4092  29.862  26.495   9.661
   81POPC   GL1 4093  30.006  26.766   9.270
   81POPC   GL2 4094  30.014  26.558   8.997
   81POPC   C1A 4095  30.001  27.057   8.885
   81POPC   D2A 4096  30.099  27.163   8.491
   81POPC   C3A 4097  29.854  26.954   8.202
   81POPC   C4A 4098  29.915  26.921   7.766
   81POPC   C1B 4099  30.143  26.657   8.574
   81POPC   C2B 4100  30.104  26.517   8.149
   81POPC   C3B 4101  30.220  26.519   7.724
   81POPC   C4B 4102  30.248  26.335   7.291
   82POPC   NC3 4103  14.046  30.397   9.524
   82POPC   PO4 4104  13.564  30.823   9.747
   82POPC   GL1 4105  13.652  30.685   9.233
   82POPC   GL2 4106  13.947  30.636   9.030
   82POPC   C1A 4107  13.520  30.596   8.756
   82POPC   D2A 4108  13.625  30.701   8.334
   82POPC   C3A 4109  13.718  30.622   7.906
   82POPC   C4A 4110  13.560  30.555   7.445
   82POPC   C1B 4111  13.831  31.001   8.776
   82POPC   C2B 4112  13.746  31.182   8.379
   82POPC   C3B 4113  13.901  31.103   7.986
   82POPC   C4B 4114  13.738  31.011   7.595
   83POPC   NC3 4115   7.380  13.141   9.547
   83POPC   PO4 4116   7.664  12.488   9.554
   83POPC   GL1 4117   7.644  12.811   9.230
   83POPC   GL2 4118   7.264  12.827   9.163
   83POPC   C1A 4119   7.579  13.055   8.833
   83POPC   D2A 4120   7.344  13.046   8.427
   83POPC   C3A 4121   7.652  13.067   8.079
   83POPC   C4A 4122   7.783  12.988   7.686
   83POPC   C1B 4123   7.304  12.624   8.772
   83POPC   C2B 4124   7.161  12.498   8.365
   83POPC   C3B 4125   7.207  12.749   8.011
   83POPC   C4B 4126   7.428  12.633   7.664
   84POPC   NC3 4127  37.786  10.951   9.480
   84POPC   PO4 4128  37.960  11.551   9.441
   84POPC   GL1 4129  37.797  11.530   9.058
   84POPC   GL2 4130  37.528  11.346   9.203
   84POPC   C1A 4131  37.812  11.563   8.599
   84POPC   D2A 4132  37.792  11.211   8.282
   84POPC   C3A 4133  37.884  11.302   7.821
   84POPC   C4A 4134  37.937  11.498   7.399
   84POPC   C1B 4135  37.472  11.224   8.777
   84POPC   C2B 4136  37.347  11.412   8.401
   84POPC   C3B 4137  37.397  11.277   7.965
   84POPC   C4B 4138  37.437  11.389   7.530
   85POPC   NC3 4139  24.066  10.880   9.622
   85POPC   PO4 4140  24.710  10.804   9.345
   85POPC   GL1 4141  24.418  10.499   9.211
   85POPC   GL2 4142  24.655  10.362   9.001
   85POPC   C1A 4143  24.155  10.583   8.822
   85POPC   D2A 4144  24.130  10.795   8.397
   85POPC   C3A 4145  24.532  10.908   8.192
   85POPC   C4A 4146  24.569  10.758   7.771
   85POPC   C1B 4147  24.635  10.611   8.632
   85POPC   C2B 4148  24.421  10.396   8.288
   85POPC   C3B 4149  24.551  10.262   7.891
   85POPC   C4B 4150  24.672  10.396   7.433
   86POPC   NC3 4151   2.209   9.919   9.556
   86POPC   PO4 4152   1.885   9.358   9.341
   86POPC   GL1 4153   1.931   9.666   9.039
   86POPC   GL2 4154   2.262   9.718   9.080
   86POPC   C1A 4155   2.049   9.600   8.580
   86POPC   D2A 4156   1.843   9.616   8.194
   86POPC   C3A 4157   2.106   9.701   7.842
   86POPC   C4A 4158   2.035   9.878   7.440
   86POPC   C1B 4159   2.203  10.041   8.745
   86POPC   C2B 4160   2.066  10.083   8.331
   86POPC   C3B 4161   2.303  10.155   7.973
   86POPC   C4B 4162   2.538   9.942   7.659
   87POPC   NC3 4163  23.038  30.957   9.740
   87POPC   PO4 4164  22.578  31.166   9.448
   87POPC   GL1 4165  22.902  31.316   9.124
   87POPC   GL2 4166  23.134  31.641   9.144
   87POPC   C1A 4167  22.779  31.556   8.766
   87POPC   D2A 4168  22.544  31.431   8.424
   87POPC   C3A 4169  22.690  31.533   8.035
   87POPC   C4A 4170  22.819  31.443   7.648
   87POPC   C1B 4171  23.287  31.517   8.758
   87POPC   C2B 4172  23.115  31.521   8.343
   87POPC   C3B 4173  23.148  31.771   7.959
   87POPC   C4B 4174  23.180  31.798   7.502
   88POPC   NC3 4175   8.712  39.659   9.557
   88POPC   PO4 4176   8.866  40.259   9.408
   88POPC   GL1 4177   8.883  39.978   9.101
   88POPC   GL2 4178   9.129  40.256   8.968
   88POPC   C1A 4179   9.104  39.822   8.737
   88POPC   D2A 4180   9.221  40.094   8.391
   88POPC   C3A 4181   9.047  39.879   8.041
   88POPC   C4A 4182   9.226  39.598   7.759
   88POPC   C1B 4183   8.762  40.346   8.744
   88POPC   C2B 4184   8.819  40.557   8.374
   88POPC   C3B 4185   8.893  40.363   7.974
   88POPC   C4B 4186   8.776  40.334   7.524
   89POPC   NC3 4187   0.070   1.895   9.366
   89POPC   PO4 4188   0.672   2.034   9.724
   89POPC   GL1 4189   0.550   2.092   9.249
   89POPC   GL2 4190   0.432   1.815   9.034
   89POPC   C1A 4191   0.657   2.184   8.792
   89POPC   D2A 4192   0.521   2.359   8.405
   89POPC   C3A 4193   0.677   2.200   8.016
   89POPC   C4A 4194   0.464   2.164   7.614
   89POPC   C1B 4195   0.127   1.898   8.721
   89POPC   C2B 4196   0.103   2.078   8.346
   89POPC   C3B 4197   0.274   1.869   7.995
   89POPC   C4B 4198   0.256   1.674   7.601
   90POPC   NC3 4199   1.843   8.022   9.557
   90POPC   PO4 4200   2.359   8.488   9.480
   90POPC   GL1 4201   2.037   8.341   9.201
   90POPC   GL2 4202   2.085   7.968   9.119
   90POPC   C1A 4203   1.824   8.293   8.815
   90POPC   D2A 4204   2.008   8.136   8.429
   90POPC   C3A 4205   1.794   8.245   8.050
   90POPC   C4A 4206   1.859   8.352   7.578
   90POPC   C1B 4207   1.876   7.761   8.769
   90POPC   C2B 4208   2.078   7.630   8.401
   90POPC   C3B 4209   2.116   7.830   8.015
   90POPC   C4B 4210   1.734   7.835   7.760
   91POPC   NC3 4211  39.713  13.001   9.403
   91POPC   PO4 4212  39.199  12.617   9.373
   91POPC   GL1 4213  39.337  12.770   9.081
   91POPC   GL2 4214  39.152  13.071   9.115
   91POPC   C1A 4215  39.442  12.670   8.692
   91POPC   D2A 4216  39.365  12.804   8.276
   91POPC   C3A 4217  39.145  12.527   8.016
   91POPC   C4A 4218  39.039  12.622   7.587
   91POPC   C1B 4219  39.192  13.133   8.674
   91POPC   C2B 4220  39.018  13.331   8.309
   91POPC   C3B 4221  39.000  13.184   7.889
   91POPC   C4B 4222  38.737  13.084   7.531
   92POPC   NC3 4223   4.097  18.350   9.676
   92POPC   PO4 4224   4.611  17.902   9.596
   92POPC   GL1 4225   4.433  18.184   9.267
   92POPC   GL2 4226   4.648  18.420   9.086
   92POPC   C1A 4227   4.192  18.287   8.893
   92POPC   D2A 4228   4.235  18.391   8.441
   92POPC   C3A 4229   4.013  18.179   8.173
   92POPC   C4A 4230   4.178  18.213   7.775
   92POPC   C1B 4231   4.591  18.566   8.732
   92POPC   C2B 4232   4.729  18.579   8.355
   92POPC   C3B 4233   4.582  18.591   7.901
   92POPC   C4B 4234   4.729  18.587   7.433
   93POPC   NC3 4235  29.067   0.989   9.469
   93POPC   PO4 4236  29.270   1.697   9.375
   93POPC   GL1 4237  29.337   1.328   9.121
   93POPC   GL2 4238  29.030   1.313   9.073
   93POPC   C1A 4239  29.338   1.121   8.684
   93POPC   D2A 4240  29.189   0.991   8.276
   93POPC   C3A 4241  29.215   1.207   7.925
   93POPC   C4A 4242  29.246   1.309   7.521
   93POPC   C1B 4243  28.849   1.009   8.830
   93POPC   C2B 4244  28.670   0.940   8.441
   93POPC   C3B 4245  28.774   0.791   8.043
   93POPC   C4B 4246  28.806   0.982   7.654
   94POPC   NC3 4247  20.386  10.762   9.540
   94POPC   PO4 4248  20.916  10.369   9.530
   94POPC   GL1 4249  20.607  10.411   9.214
   94POPC   GL2 4250  20.731  10.705   9.155
   94POPC   C1A 4251  20.356  10.457   8.831
   94POPC   D2A 4252  20.500  10.405   8.403
   94POPC   C3A 4253  20.346  10.561   8.014
   94POPC   C4A 4254  20.319  10.313   7.620
   94POPC   C1B 4255  20.836  10.624   8.740
   94POPC   C2B 4256  20.865  10.810   8.325
   94POPC   C3B 4257  20.928  10.870   7.846
   94POPC   C4B 4258  20.564  10.771   7.598
   95POPC   NC3 4259  13.224  16.641   9.390
   95POPC   PO4 4260  12.601  16.428   9.483
   95POPC   GL1 4261  12.753  16.600   9.112
   95POPC   GL2 4262  12.925  16.927   9.087
   95POPC   C1A 4263  12.869  16.401   8.761
   95POPC   D2A 4264  12.702  16.604   8.420
   95POPC   C3A 4265  12.917  16.570   8.065
   95POPC   C4A 4266  12.756  16.601   7.680
   95POPC   C1B 4267  13.049  16.913   8.635
   95POPC   C2B 4268  12.866  17.077   8.233
   95POPC   C3B 4269  12.847  17.091   7.785
   95POPC   C4B 4270  12.854  16.944   7.321
   96POPC   NC3 4271  35.589   8.308   9.313
   96POPC   PO4 4272  36.178   8.021   9.536
   96POPC   GL1 4273  36.055   8.209   9.135
   96POPC   GL2 4274  36.253   8.429   8.947
   96POPC   C1A 4275  35.830   8.257   8.735
   96POPC   D2A 4276  35.863   8.059   8.372
   96POPC   C3A 4277  36.005   8.314   8.103
   96POPC   C4A 4278  35.890   8.241   7.754
   96POPC   C1B 4279  36.268   8.005   8.675
   96POPC   C2B 4280  36.329   7.856   8.238
   96POPC   C3B 4281  36.369   8.058   7.806
   96POPC   C4B 4282  36.625   8.018   7.397
   97POPC   NC3 4283  17.504  27.933   9.577
   97POPC   PO4 4284  17.242  27.413   9.681
   97POPC   GL1 4285  17.393  27.546   9.245
   97POPC   GL2 4286  17.744  27.677   9.178
   97POPC   C1A 4287  17.339  27.424   8.803
   97POPC   D2A 4288  17.311  27.500   8.362
   97POPC   C3A 4289  17.654  27.531   8.067
   97POPC   C4A 4290  17.367  27.593   7.729
   97POPC   C1B 4291  17.634  27.866   8.798
   97POPC   C2B 4292  17.555  27.977   8.360
   97POPC   C3B 4293  17.633  28.022   7.922
   97POPC   C4B 4294  17.848  27.783   7.620
   98POPC   NC3 4295  43.209   6.418   9.332
   98POPC   PO4 4296  43.387   7.147   9.465
   98POPC   GL1 4297  43.180   6.909   9.133
   98POPC   GL2 4298  42.812   6.817   9.118
   98POPC   C1A 4299  43.173   6.668   8.730
   98POPC   D2A 4300  43.301   6.831   8.339
   98POPC   C3A 4301  43.161   6.640   7.949
   98POPC   C4A 4302  43.399   6.405   7.630
   98POPC   C1B 4303  42.689   6.510   8.771
   98POPC   C2B 4304  42.861   6.414   8.360
   98POPC   C3B 4305  42.708   6.357   7.949
   98POPC   C4B 4306  42.890   6.328   7.550
   99POPC   NC3 4307  21.135  35.642   9.383
   99POPC   PO4 4308  21.473  35.096   9.445
   99POPC   GL1 4309  21.437  35.356   9.072
   99POPC   GL2 4310  21.702  35.567   8.980
   99POPC   C1A 4311  21.164  35.464   8.738
   99POPC   D2A 4312  21.044  35.321   8.345
   99POPC   C3A 4313  21.265  35.288   7.984
   99POPC   C4A 4314  21.382  35.499   7.620
   99POPC   C1B 4315  21.569  35.767   8.648
   99POPC   C2B 4316  21.544  35.472   8.357
   99POPC   C3B 4317  21.760  35.397   7.969
   99POPC   C4B 4318  22.037  35.637   7.746
  100POPC   NC3 4319  40.056   0.289   9.570
  100POPC   PO4 4320  40.264   0.958   9.511
  100POPC   GL1 4321  40.188   0.573   9.138
  100POPC   GL2 4322  40.024   0.213   9.092
  100POPC   C1A 4323  40.018   0.482   8.688
  100POPC   D2A 4324  40.160   0.554   8.269
  100POPC   C3A 4325  39.888   0.668   7.938
  100POPC   C4A 4326  39.981   0.533   7.486
  100POPC   C1B 4327  39.863  44.988   8.730
  100POPC   C2B 4328  39.895   0.109   8.295
  100POPC   C3B 4329  40.062   0.204   7.887
  100POPC   C4B 4330  39.767   0.079   7.631
  101POPC   NC3 4331  10.855  19.432   9.359
  101POPC   PO4 4332  11.051  20.055   9.534
  101POPC   GL1 4333  11.236  20.049   9.113
  101POPC   GL2 4334  11.142  19.722   9.028
  101POPC   C1A 4335  11.411  20.015   8.683
  101POPC   D2A 4336  11.240  20.240   8.342
  101POPC   C3A 4337  11.325  20.013   7.987
  101POPC   C4A 4338  11.465  20.007   7.590
  101POPC   C1B 4339  10.914  19.919   8.715
  101POPC   C2B 4340  11.021  19.758   8.362
  101POPC   C3B 4341  10.943  19.680   7.984
  101POPC   C4B 4342  10.984  19.835   7.613
  102POPC   NC3 4343  34.074  33.897   9.619
  102POPC   PO4 4344  33.445  33.678   9.492
  102POPC   GL1 4345  33.564  33.933   9.124
  102POPC   GL2 4346  33.878  33.960   9.145
  102POPC   C1A 4347  33.635  33.901   8.675
  102POPC   D2A 4348  33.812  33.752   8.328
  102POPC   C3A 4349  33.727  33.954   7.968
  102POPC   C4A 4350  33.850  33.844   7.605
  102POPC   C1B 4351  34.112  34.065   8.782
  102POPC   C2B 4352  34.283  33.936   8.399
  102POPC   C3B 4353  34.200  34.184   8.045
  102POPC   C4B 4354  33.908  34.384   7.759
  103POPC   NC3 4355  36.639  23.784   9.438
  103POPC   PO4 4356  36.924  24.534   9.441
  103POPC   GL1 4357  36.967  24.545   9.037
  103POPC   GL2 4358  37.281  24.749   9.061
  103POPC   C1A 4359  36.655  24.516   8.697
  103POPC   D2A 4360  36.646  24.297   8.321
  103POPC   C3A 4361  36.797  24.468   7.900
  103POPC   C4A 4362  36.736  24.353   7.434
  103POPC   C1B 4363  37.408  24.781   8.617
  103POPC   C2B 4364  37.194  24.628   8.254
  103POPC   C3B 4365  37.221  24.744   7.825
  103POPC   C4B 4366  37.237  24.445   7.535
  104POPC   NC3 4367  37.494  32.808   9.475
  104POPC   PO4 4368  36.924  33.223   9.410
  104POPC   GL1 4369  36.938  32.980   9.067
  104POPC   GL2 4370  37.232  32.760   9.042
  104POPC   C1A 4371  36.929  33.161   8.668
  104POPC   D2A 4372  36.706  33.144   8.312
  104POPC   C3A 4373  36.927  33.125   7.952
  104POPC   C4A 4374  36.745  32.888   7.656
  104POPC   C1B 4375  36.978  32.643   8.681
  104POPC   C2B 4376  37.049  32.746   8.291
  104POPC   C3B 4377  37.012  32.540   7.930
  104POPC   C4B 4378  37.133  32.599   7.539
  105POPC   NC3 4379   1.680   1.355   9.401
  105POPC   PO4 4380   1.045   1.121   9.560
  105POPC   GL1 4381   1.207   1.006   9.179
  105POPC   GL2 4382   1.241   1.343   9.122
  105POPC   C1A 4383   1.351   1.019   8.743
  105POPC   D2A 4384   1.399   1.092   8.285
  105POPC   C3A 4385   1.035   1.231   8.020
  105POPC   C4A 4386   1.054   1.132   7.595
  105POPC   C1B 4387   1.370   1.561   8.766
  105POPC   C2B 4388   1.193   1.569   8.386
  105POPC   C3B 4389   1.284   1.730   7.998
  105POPC   C4B 4390   1.326   1.584   7.591
  106POPC   NC3 4391  44.740  36.405   9.476
  106POPC   PO4 4392  44.163  36.055   9.604
  106POPC   GL1 4393  44.444  36.134   9.144
  106POPC   GL2 4394  44.784  36.249   9.007
  106POPC   C1A 4395  44.596  35.910   8.696
  106POPC   D2A 4396  44.773  35.778   8.271
  106POPC   C3A 4397  44.723  36.073   7.881
  106POPC   C4A 4398  44.731  35.954   7.439
  106POPC   C1B 4399  44.576  36.406   8.701
  106POPC   C2B 4400  44.719  36.282   8.358
  106POPC   C3B 4401  44.954  36.469   8.098
  106POPC   C4B 4402  44.872  36.595   7.714
  107POPC   NC3 4403  11.418  39.022   9.654
  107POPC   PO4 4404  11.761  39.565   9.428
  107POPC   GL1 4405  11.531  39.253   9.121
  107POPC   GL2 4406  11.177  39.123   9.151
  107POPC   C1A 4407  11.422  39.198   8.701
  107POPC   D2A 4408  11.412  38.989   8.349
  107POPC   C3A 4409  11.381  39.277   8.022
  107POPC   C4A 4410  11.608  39.362   7.633
  107POPC   C1B 4411  11.002  39.449   8.865
  107POPC   C2B 4412  11.102  39.502   8.439
  107POPC   C3B 4413  11.046  39.658   8.041
  107POPC   C4B 4414  11.012  39.431   7.657
  108POPC   NC3 4415  25.276  22.622   9.561
  108POPC   PO4 4416  25.404  21.930   9.450
  108POPC   GL1 4417  25.164  22.059   9.127
  108POPC   GL2 4418  25.174  22.400   9.117
  108POPC   C1A 4419  25.227  22.041   8.706
  108POPC   D2A 4420  25.299  21.817   8.357
  108POPC   C3A 4421  25.191  22.077   8.012
  108POPC   C4A 4422  25.128  22.174   7.570
  108POPC   C1B 4423  25.469  22.477   8.793
  108POPC   C2B 4424  25.546  22.602   8.396
  108POPC   C3B 4425  25.363  22.561   8.002
  108POPC   C4B 4426  25.565  22.325   7.722
  109POPC   NC3 4427  21.535  27.507   9.528
  109POPC   PO4 4428  20.908  27.607   9.615
  109POPC   GL1 4429  21.184  27.813   9.242
  109POPC   GL2 4430  21.543  27.720   9.077
  109POPC   C1A 4431  21.082  27.737   8.803
  109POPC   D2A 4432  21.023  27.664   8.346
  109POPC   C3A 4433  21.192  27.897   7.979
  109POPC   C4A 4434  21.326  27.561   7.743
  109POPC   C1B 4435  21.520  27.542   8.660
  109POPC   C2B 4436  21.520  27.565   8.224
  109POPC   C3B 4437  21.741  27.318   7.913
  109POPC   C4B 4438  21.782  27.550   7.525
  110POPC   NC3 4439  43.034   0.126   9.431
  110POPC   PO4 4440  42.827   0.718   9.470
  110POPC   GL1 4441  42.937   0.486   9.081
  110POPC   GL2 4442  42.801   0.124   8.986
  110POPC   C1A 4443  43.251   0.439   8.768
  110POPC   D2A 4444  43.387   0.425   8.347
  110POPC   C3A 4445  43.517   0.374   7.912
  110POPC   C4A 4446  43.281   0.176   7.631
  110POPC   C1B 4447  42.679   0.373   8.637
  110POPC   C2B 4448  42.921   0.650   8.400
  110POPC   C3B 4449  43.031   0.534   7.996
  110POPC   C4B 4450  43.139   0.720   7.643
  111POPC   NC3 4451  19.549  35.260   9.624
  111POPC   PO4 4452  20.119  35.357   9.413
  111POPC   GL1 4453  19.797  35.307   9.152
  111POPC   GL2 4454  19.874  35.623   8.986
  111POPC   C1A 4455  19.617  35.204   8.762
  111POPC   D2A 4456  19.778  35.110   8.358
  111POPC   C3A 4457  19.788  35.458   8.108
  111POPC   C4A 4458  19.462  35.438   7.847
  111POPC   C1B 4459  20.121  35.326   8.725
  111POPC   C2B 4460  20.274  35.248   8.298
  111POPC   C3B 4461  20.321  35.130   7.893
  111POPC   C4B 4462  19.953  35.135   7.731
  112POPC   NC3 4463   6.586  34.321   9.515
  112POPC   PO4 4464   6.572  33.564   9.624
  112POPC   GL1 4465   6.631  33.726   9.180
  112POPC   GL2 4466   6.334  33.857   9.001
  112POPC   C1A 4467   6.702  33.588   8.736
  112POPC   D2A 4468   6.573  33.716   8.316
  112POPC   C3A 4469   6.959  33.795   8.091
  112POPC   C4A 4470   7.105  33.479   7.764
  112POPC   C1B 4471   6.619  34.108   8.703
  112POPC   C2B 4472   6.622  34.239   8.256
  112POPC   C3B 4473   6.413  34.024   7.910
  112POPC   C4B 4474   6.610  33.665   7.759
  113POPC   NC3 4475  32.318  43.048   9.599
  113POPC   PO4 4476  31.818  43.485   9.547
  113POPC   GL1 4477  32.028  43.256   9.193
  113POPC   GL2 4478  32.038  42.893   9.125
  113POPC   C1A 4479  31.920  43.217   8.754
  113POPC   D2A 4480  31.836  43.145   8.335
  113POPC   C3A 4481  32.157  43.094   8.055
  113POPC   C4A 4482  32.066  43.217   7.642
  113POPC   C1B 4483  32.425  43.028   8.920
  113POPC   C2B 4484  32.591  43.219   8.554
  113POPC   C3B 4485  32.693  43.332   8.140
  113POPC   C4B 4486  32.576  43.183   7.741
  114POPC   NC3 4487  35.710   7.921   9.644
  114POPC   PO4 4488  35.358   8.592   9.582
  114POPC   GL1 4489  35.190   8.510   9.108
  114POPC   GL2 4490  35.196   8.156   9.003
  114POPC   C1A 4491  35.380   8.519   8.702
  114POPC   D2A 4492  35.646   8.570   8.374
  114POPC   C3A 4493  35.493   8.300   8.096
  114POPC   C4A 4494  35.414   8.342   7.688
  114POPC   C1B 4495  35.404   7.974   8.651
  114POPC   C2B 4496  35.459   7.787   8.248
  114POPC   C3B 4497  35.266   7.883   7.849
  114POPC   C4B 4498  35.271   7.981   7.369
  115POPC   NC3 4499  26.064  15.559   9.470
  115POPC   PO4 4500  25.876  14.898   9.631
  115POPC   GL1 4501  25.851  15.078   9.216
  115POPC   GL2 4502  26.241  15.139   9.088
  115POPC   C1A 4503  25.816  15.301   8.831
  115POPC   D2A 4504  26.101  15.287   8.489
  115POPC   C3A 4505  25.973  15.186   8.079
  115POPC   C4A 4506  26.023  15.349   7.658
  115POPC   C1B 4507  26.422  14.857   8.728
  115POPC   C2B 4508  26.359  14.873   8.262
  115POPC   C3B 4509  26.432  15.045   7.821
  115POPC   C4B 4510  26.514  15.037   7.328
  116POPC   NC3 4511  43.399  42.881   9.481
  116POPC   PO4 4512  42.881  43.246   9.524
  116POPC   GL1 4513  43.220  43.284   9.217
  116POPC   GL2 4514  43.036  43.032   9.068
  116POPC   C1A 4515  43.431  43.183   8.818
  116POPC   D2A 4516  43.174  43.180   8.490
  116POPC   C3A 4517  43.319  43.156   8.104
  116POPC   C4A 4518  43.316  43.084   7.681
  116POPC   C1B 4519  42.920  42.789   8.709
  116POPC   C2B 4520  43.025  42.728   8.256
  116POPC   C3B 4521  43.040  42.695   7.794
  116POPC   C4B 4522  42.896  42.820   7.342
  117POPC   NC3 4523  32.634  40.576   9.551
  117POPC   PO4 4524  33.328  40.823   9.639
  117POPC   GL1 4525  33.002  40.841   9.294
  117POPC   GL2 4526  32.957  40.499   9.155
  117POPC   C1A 4527  32.920  41.050   8.887
  117POPC   D2A 4528  33.079  40.954   8.476
  117POPC   C3A 4529  32.829  40.690   8.166
  117POPC   C4A 4530  32.699  40.787   7.720
  117POPC   C1B 4531  33.266  40.620   8.834
  117POPC   C2B 4532  33.466  40.606   8.406
  117POPC   C3B 4533  33.370  40.871   8.071
  117POPC   C4B 4534  33.203  40.720   7.746
  118POPC   NC3 4535  37.682   9.590   9.693
  118POPC   PO4 4536  37.211   9.995   9.482
  118POPC   GL1 4537  37.580   9.964   9.240
  118POPC   GL2 4538  37.512   9.633   9.207
  118POPC   C1A 4539  37.640  10.006   8.776
  118POPC   D2A 4540  37.765   9.743   8.404
  118POPC   C3A 4541  37.588   9.901   8.012
  118POPC   C4A 4542  37.699   9.992   7.595
  118POPC   C1B 4543  37.499   9.501   8.796
  118POPC   C2B 4544  37.392   9.329   8.409
  118POPC   C3B 4545  37.451   9.394   8.025
  118POPC   C4B 4546  37.691   9.488   7.695
  119POPC   NC3 4547  37.682  28.616   9.441
  119POPC   PO4 4548  37.890  28.014   9.435
  119POPC   GL1 4549  37.771  28.156   9.087
  119POPC   GL2 4550  37.429  28.162   9.101
  119POPC   C1A 4551  37.743  28.407   8.744
  119POPC   D2A 4552  37.985  28.514   8.395
  119POPC   C3A 4553  37.786  28.503   8.039
  119POPC   C4A 4554  37.854  28.171   7.743
  119POPC   C1B 4555  37.457  27.946   8.736
  119POPC   C2B 4556  37.609  28.078   8.340
  119POPC   C3B 4557  37.392  28.199   7.989
  119POPC   C4B 4558  37.416  28.428   7.586
  120POPC   NC3 4559  34.568   7.723   9.415
  120POPC   PO4 4560  34.844   7.132   9.338
  120POPC   GL1 4561  34.513   7.328   9.046
  120POPC   GL2 4562  34.563   7.677   8.924
  120POPC   C1A 4563  34.198   7.405   8.724
  120POPC   D2A 4564  34.442   7.630   8.393
  120POPC   C3A 4565  34.607   7.423   8.021
  120POPC   C4A 4566  34.443   7.306   7.616
  120POPC   C1B 4567  34.887   7.852   8.709
  120POPC   C2B 4568  34.958   7.737   8.311
  120POPC   C3B 4569  34.755   7.900   7.967
  120POPC   C4B 4570  34.852   7.705   7.575
  121POPC   NC3 4571   0.131  16.014   9.522
  121POPC   PO4 4572  44.494  15.825   9.647
  121POPC   GL1 4573  44.633  15.959   9.271
  121POPC   GL2 4574  44.612  15.631   9.123
  121POPC   C1A 4575  44.810  16.060   8.854
  121POPC   D2A 4576  44.651  16.115   8.420
  121POPC   C3A 4577  44.796  16.046   8.032
  121POPC   C4A 4578  44.767  16.193   7.635
  121POPC   C1B 4579  44.538  15.659   8.681
  121POPC   C2B 4580  44.801  15.605   8.326
  121POPC   C3B 4581  44.596  15.576   7.955
  121POPC   C4B 4582  44.410  15.685   7.624
  122POPC   NC3 4583  26.791  43.131   9.598
  122POPC   PO4 4584  27.398  42.953   9.284
  122POPC   GL1 4585  26.996  43.063   9.133
  122POPC   GL2 4586  26.941  43.422   9.110
  122POPC   C1A 4587  26.607  43.067   8.920
  122POPC   D2A 4588  26.539  42.986   8.495
  122POPC   C3A 4589  26.539  43.189   8.082
  122POPC   C4A 4590  26.762  42.918   7.762
  122POPC   C1B 4591  26.884  43.385   8.623
  122POPC   C2B 4592  27.040  43.160   8.211
  122POPC   C3B 4593  27.135  43.277   7.764
  122POPC   C4B 4594  27.277  43.492   7.332
  123POPC   NC3 4595  41.730   4.648   9.360
  123POPC   PO4 4596  41.360   4.065   9.554
  123POPC   GL1 4597  41.502   4.218   9.145
  123POPC   GL2 4598  41.899   4.252   9.084
  123POPC   C1A 4599  41.527   4.366   8.708
  123POPC   D2A 4600  41.261   4.501   8.343
  123POPC   C3A 4601  41.414   4.393   7.923
  123POPC   C4A 4602  41.494   4.423   7.464
  123POPC   C1B 4603  42.001   4.576   8.748
  123POPC   C2B 4604  41.805   4.581   8.313
  123POPC   C3B 4605  41.820   4.738   7.884
  123POPC   C4B 4606  41.990   4.431   7.608
  124POPC   NC3 4607  19.260  19.922   9.555
  124POPC   PO4 4608  18.667  19.871   9.398
  124POPC   GL1 4609  18.961  19.749   9.160
  124POPC   GL2 4610  19.070  20.109   9.100
  124POPC   C1A 4611  18.941  19.624   8.755
  124POPC   D2A 4612  19.030  19.802   8.377
  124POPC   C3A 4613  19.003  19.561   7.998
  124POPC   C4A 4614  18.800  19.812   7.713
  124POPC   C1B 4615  19.383  19.848   8.870
  124POPC   C2B 4616  19.537  19.836   8.430
  124POPC   C3B 4617  19.378  19.976   8.034
  124POPC   C4B 4618  19.294  19.823   7.643
  125POPC   NC3 4619  39.009   4.200   9.656
  125POPC   PO4 4620  39.584   4.399   9.516
  125POPC   GL1 4621  39.231   4.448   9.240
  125POPC   GL2 4622  38.937   4.640   9.341
  125POPC   C1A 4623  39.128   4.216   8.871
  125POPC   D2A 4624  39.109   4.040   8.447
  125POPC   C3A 4625  39.308   4.217   8.087
  125POPC   C4A 4626  39.130   4.111   7.673
  125POPC   C1B 4627  38.773   4.592   8.885
  125POPC   C2B 4628  38.843   4.522   8.397
  125POPC   C3B 4629  38.989   4.581   7.932
  125POPC   C4B 4630  38.988   4.608   7.459
  126POPC   NC3 4631  11.241   4.713   9.487
  126POPC   PO4 4632  11.598   4.087   9.531
  126POPC   GL1 4633  11.398   4.297   9.193
  126POPC   GL2 4634  11.575   4.580   9.111
  126POPC   C1A 4635  11.204   4.322   8.774
  126POPC   D2A 4636  11.351   4.304   8.336
  126POPC   C3A 4637  11.160   4.361   7.962
  126POPC   C4A 4638  10.999   4.713   7.771
  126POPC   C1B 4639  11.738   4.327   8.751
  126POPC   C2B 4640  11.828   4.435   8.321
  126POPC   C3B 4641  11.667   4.482   7.875
  126POPC   C4B 4642  11.779   4.667   7.451
  127POPC   NC3 4643  18.655  36.539   9.314
  127POPC   PO4 4644  18.033  36.656   9.603
  127POPC   GL1 4645  18.119  36.829   9.177
  127POPC   GL2 4646  18.479  36.955   9.108
  127POPC   C1A 4647  18.238  36.692   8.737
  127POPC   D2A 4648  18.501  36.879   8.448
  127POPC   C3A 4649  18.424  36.775   8.061
  127POPC   C4A 4650  18.123  36.708   7.772
  127POPC   C1B 4651  18.651  37.248   8.806
  127POPC   C2B 4652  18.536  37.415   8.393
  127POPC   C3B 4653  18.593  37.267   7.984
  127POPC   C4B 4654  18.556  37.017   7.628
  128POPC   NC3 4655  25.688  32.965   9.484
  128POPC   PO4 4656  25.216  33.561   9.542
  128POPC   GL1 4657  25.190  33.199   9.214
  128POPC   GL2 4658  25.512  33.074   9.032
  128POPC   C1A 4659  25.088  33.077   8.766
  128POPC   D2A 4660  25.394  33.090   8.432
  128POPC   C3A 4661  25.183  33.092   8.069
  128POPC   C4A 4662  25.338  33.217   7.680
  128POPC   C1B 4663  25.426  32.702   8.746
  128POPC   C2B 4664  25.153  32.643   8.378
  128POPC   C3B 4665  25.283  32.611   7.948
  128POPC   C4B 4666  25.135  32.569   7.543
  129POPC   NC3 4667  19.103  34.909   9.590
  129POPC   PO4 4668  19.296  35.640   9.651
  129POPC   GL1 4669  19.159  35.370   9.283
  129POPC   GL2 4670  19.339  35.075   9.185
  129POPC   C1A 4671  19.187  35.493   8.842
  129POPC   D2A 4672  19.371  35.515   8.425
  129POPC   C3A 4673  19.068  35.605   8.117
  129POPC   C4A 4674  18.975  35.481   7.715
  129POPC   C1B 4675  19.022  35.014   8.869
  129POPC   C2B 4676  18.957  35.200   8.456
  129POPC   C3B 4677  19.135  35.084   8.049
  129POPC   C4B 4678  18.996  34.961   7.627
  130POPC   NC3 4679  13.343  10.949   9.503
  130POPC   PO4 4680  13.837  11.306   9.558
  130POPC   GL1 4681  13.589  11.355   9.194
  130POPC   GL2 4682  13.228  11.431   9.286
  130POPC   C1A 4683  13.694  11.218   8.767
  130POPC   D2A 4684  13.655  11.324   8.348
  130POPC   C3A 4685  13.580  11.056   8.015
  130POPC   C4A 4686  13.575  11.280   7.652
  130POPC   C1B 4687  13.189  11.156   8.913
  130POPC   C2B 4688  13.254  11.070   8.488
  130POPC   C3B 4689  13.189  11.411   8.177
  130POPC   C4B 4690  13.073  11.398   7.774
  131POPC   NC3 4691  10.752  34.624   9.233
  131POPC   PO4 4692  10.484  34.888   9.692
  131POPC   GL1 4693  10.269  34.760   9.174
  131POPC   GL2 4694  10.313  34.398   9.075
  131POPC   C1A 4695  10.402  34.735   8.694
  131POPC   D2A 4696  10.563  34.746   8.258
  131POPC   C3A 4697  10.500  34.470   7.919
  131POPC   C4A 4698  10.460  34.424   7.496
  131POPC   C1B 4699  10.643  34.279   8.680
  131POPC   C2B 4700  10.878  34.305   8.253
  131POPC   C3B 4701  10.966  34.142   7.800
  131POPC   C4B 4702  10.879  34.195   7.311
  132POPC   NC3 4703  10.343   8.708   9.523
  132POPC   PO4 4704  10.958   8.823   9.415
  132POPC   GL1 4705  10.594   8.977   9.147
  132POPC   GL2 4706  10.248   9.126   9.227
  132POPC   C1A 4707  10.481   9.143   8.744
  132POPC   D2A 4708  10.414   9.313   8.311
  132POPC   C3A 4709  10.494   9.055   7.917
  132POPC   C4A 4710  10.820   9.105   7.556
  132POPC   C1B 4711  10.061   8.915   8.874
  132POPC   C2B 4712  10.250   8.797   8.458
  132POPC   C3B 4713  10.090   8.768   8.071
  132POPC   C4B 4714  10.263   8.686   7.656
  133POPC   NC3 4715  12.635  33.563   9.594
  133POPC   PO4 4716  12.746  32.902   9.511
  133POPC   GL1 4717  12.788  33.134   9.168
  133POPC   GL2 4718  12.825  32.824   8.986
  133POPC   C1A 4719  12.990  33.348   8.852
  133POPC   D2A 4720  12.943  33.343   8.422
  133POPC   C3A 4721  13.069  32.986   8.167
  133POPC   C4A 4722  13.070  32.860   7.740
  133POPC   C1B 4723  12.570  33.028   8.690
  133POPC   C2B 4724  12.545  33.077   8.243
  133POPC   C3B 4725  12.684  33.213   7.852
  133POPC   C4B 4726  12.510  33.311   7.408
  134POPC   NC3 4727   0.992  38.739   9.610
  134POPC   PO4 4728   1.250  38.163   9.728
  134POPC   GL1 4729   1.181  38.247   9.252
  134POPC   GL2 4730   1.033  38.550   9.142
  134POPC   C1A 4731   1.321  38.202   8.817
  134POPC   D2A 4732   1.509  38.100   8.409
  134POPC   C3A 4733   1.399  38.445   8.090
  134POPC   C4A 4734   1.384  38.386   7.644
  134POPC   C1B 4735   0.887  38.493   8.729
  134POPC   C2B 4736   1.010  38.241   8.374
  134POPC   C3B 4737   0.918  38.284   7.944
  134POPC   C4B 4738   1.021  38.701   7.819
  135POPC   NC3 4739  44.089  44.224   9.448
  135POPC   PO4 4740  43.516  43.773   9.522
  135POPC   GL1 4741  43.830  43.906   9.154
  135POPC   GL2 4742  44.129  43.832   9.112
  135POPC   C1A 4743  43.851  44.137   8.768
  135POPC   D2A 4744  43.665  44.135   8.360
  135POPC   C3A 4745  43.786  43.991   7.935
  135POPC   C4A 4746  43.465  43.912   7.603
  135POPC   C1B 4747  44.160  43.732   8.720
  135POPC   C2B 4748  43.995  43.735   8.325
  135POPC   C3B 4749  44.129  43.593   7.911
  135POPC   C4B 4750  44.067  43.350   7.540
  136POPC   NC3 4751  28.647  24.034   9.287
  136POPC   PO4 4752  28.459  24.548   9.694
  136POPC   GL1 4753  28.377  24.515   9.232
  136POPC   GL2 4754  28.623  24.408   8.958
  136POPC   C1A 4755  28.175  24.600   8.845
  136POPC   D2A 4756  28.307  24.331   8.513
  136POPC   C3A 4757  28.312  24.549   8.121
  136POPC   C4A 4758  28.351  24.686   7.727
  136POPC   C1B 4759  28.761  24.097   8.631
  136POPC   C2B 4760  28.554  23.960   8.255
  136POPC   C3B 4761  28.600  24.185   7.849
  136POPC   C4B 4762  28.589  24.359   7.419
  137POPC   NC3 4763  41.764  10.065   9.656
  137POPC   PO4 4764  41.835  10.723   9.543
  137POPC   GL1 4765  41.426  10.608   9.278
  137POPC   GL2 4766  41.458  10.261   9.238
  137POPC   C1A 4767  41.290  10.654   8.791
  137POPC   D2A 4768  41.149  10.634   8.328
  137POPC   C3A 4769  41.499  10.699   8.015
  137POPC   C4A 4770  41.848  10.810   7.728
  137POPC   C1B 4771  41.722  10.414   8.921
  137POPC   C2B 4772  41.741  10.400   8.485
  137POPC   C3B 4773  41.562  10.205   8.133
  137POPC   C4B 4774  41.661  10.345   7.693
  138POPC   NC3 4775  39.204   0.613   9.477
  138POPC   PO4 4776  39.650   0.050   9.603
  138POPC   GL1 4777  39.548   0.291   9.249
  138POPC   GL2 4778  39.684   0.642   9.205
  138POPC   C1A 4779  39.483   0.359   8.811
  138POPC   D2A 4780  39.140   0.543   8.541
  138POPC   C3A 4781  39.059   0.317   8.146
  138POPC   C4A 4782  38.969   0.499   7.711
  138POPC   C1B 4783  39.648   0.848   8.778
  138POPC   C2B 4784  39.620   0.604   8.379
  138POPC   C3B 4785  39.386   0.683   8.009
  138POPC   C4B 4786  39.481   0.487   7.647
  139POPC   NC3 4787  37.283  40.027   9.729
  139POPC   PO4 4788  36.778  39.839   9.553
  139POPC   GL1 4789  37.071  39.908   9.173
  139POPC   GL2 4790  37.237  40.200   9.238
  139POPC   C1A 4791  37.101  39.894   8.674
  139POPC   D2A 4792  36.804  39.870   8.313
  139POPC   C3A 4793  36.898  39.762   7.878
  139POPC   C4A 4794  36.651  39.901   7.486
  139POPC   C1B 4795  37.004  40.357   8.856
  139POPC   C2B 4796  36.952  40.355   8.381
  139POPC   C3B 4797  36.942  40.273   7.909
  139POPC   C4B 4798  36.884  40.395   7.476
  140POPC   NC3 4799   1.138  35.601   9.517
  140POPC   PO4 4800   1.394  36.194   9.520
  140POPC   GL1 4801   1.397  36.177   9.122
  140POPC   GL2 4802   1.443  35.804   9.142
  140POPC   C1A 4803   1.156  36.311   8.753
  140POPC   D2A 4804   1.355  36.445   8.394
  140POPC   C3A 4805   1.320  36.308   7.978
  140POPC   C4A 4806   1.017  36.326   7.693
  140POPC   C1B 4807   1.043  35.852   8.927
  140POPC   C2B 4808   1.038  35.834   8.498
  140POPC   C3B 4809   1.000  35.917   8.070
  140POPC   C4B 4810   1.179  35.843   7.694
  141POPC   NC3 4811  13.213  30.724   9.472
  141POPC   PO4 4812  12.545  30.564   9.474
  141POPC   GL1 4813  12.695  30.740   9.104
  141POPC   GL2 4814  12.966  31.039   9.136
  141POPC   C1A 4815  12.575  30.616   8.656
  141POPC   D2A 4816  12.591  30.867   8.269
  141POPC   C3A 4817  12.711  30.639   7.904
  141POPC   C4A 4818  12.508  30.382   7.599
  141POPC   C1B 4819  13.046  30.791   8.757
  141POPC   C2B 4820  13.086  30.490   8.443
  141POPC   C3B 4821  13.208  30.536   8.048
  141POPC   C4B 4822  13.248  30.823   7.740
  142POPC   NC3 4823  40.519  43.649   9.446
  142POPC   PO4 4824  41.002  43.124   9.495
  142POPC   GL1 4825  40.760  43.270   9.158
  142POPC   GL2 4826  40.851  43.000   8.995
  142POPC   C1A 4827  40.754  43.389   8.699
  142POPC   D2A 4828  40.737  43.188   8.291
  142POPC   C3A 4829  40.856  43.444   7.951
  142POPC   C4A 4830  40.936  43.388   7.516
  142POPC   C1B 4831  40.509  42.945   8.685
  142POPC   C2B 4832  40.348  42.786   8.334
  142POPC   C3B 4833  40.589  42.772   8.012
  142POPC   C4B 4834  40.561  43.070   7.720
  143POPC   NC3 4835   0.948  28.863   9.523
  143POPC   PO4 4836   1.268  29.444   9.558
  143POPC   GL1 4837   1.293  29.145   9.205
  143POPC   GL2 4838   1.592  29.254   9.030
  143POPC   C1A 4839   1.085  28.960   8.812
  143POPC   D2A 4840   0.813  29.189   8.500
  143POPC   C3A 4841   0.980  29.226   8.066
  143POPC   C4A 4842   1.187  28.871   7.864
  143POPC   C1B 4843   1.386  29.357   8.655
  143POPC   C2B 4844   1.422  29.076   8.304
  143POPC   C3B 4845   1.588  29.182   7.900
  143POPC   C4B 4846   1.269  29.299   7.614
  144POPC   NC3 4847  34.349   0.794   9.493
  144POPC   PO4 4848  34.752   0.205   9.396
  144POPC   GL1 4849  34.614   0.459   9.086
  144POPC   GL2 4850  34.709   0.811   9.115
  144POPC   C1A 4851  34.769   0.495   8.653
  144POPC   D2A 4852  34.941   0.336   8.285
  144POPC   C3A 4853  34.747   0.587   7.977
  144POPC   C4A 4854  34.617   0.397   7.609
  144POPC   C1B 4855  34.374   0.768   8.785
  144POPC   C2B 4856  34.358   0.692   8.338
  144POPC   C3B 4857  34.233   0.601   7.903
  144POPC   C4B 4858  34.169   0.517   7.450
  145POPC   NC3 4859  23.238  21.534   9.629
  145POPC   PO4 4860  22.740  21.151   9.533
  145POPC   GL1 4861  22.778  21.290   9.132
  145POPC   GL2 4862  22.976  21.580   9.181
  145POPC   C1A 4863  22.972  21.146   8.798
  145POPC   D2A 4864  23.119  21.190   8.425
  145POPC   C3A 4865  22.820  21.120   8.098
  145POPC   C4A 4866  22.782  21.311   7.698
  145POPC   C1B 4867  23.237  21.587   8.805
  145POPC   C2B 4868  23.402  21.634   8.389
  145POPC   C3B 4869  23.202  21.476   7.987
  145POPC   C4B 4870  23.210  21.532   7.516
  146POPC   NC3 4871   3.718  16.169   9.333
  146POPC   PO4 4872   3.358  15.616   9.560
  146POPC   GL1 4873   3.442  15.775   9.143
  146POPC   GL2 4874   3.226  16.061   9.164
  146POPC   C1A 4875   3.450  15.969   8.700
  146POPC   D2A 4876   3.557  15.879   8.292
  146POPC   C3A 4877   3.489  16.050   7.900
  146POPC   C4A 4878   3.800  16.056   7.566
  146POPC   C1B 4879   3.016  15.764   8.867
  146POPC   C2B 4880   3.093  15.619   8.426
  146POPC   C3B 4881   3.245  15.594   8.001
  146POPC   C4B 4882   3.474  15.631   7.611
  147POPC   NC3 4883  10.482  32.005   9.785
  147POPC   PO4 4884  10.549  32.618   9.639
  147POPC   GL1 4885  10.494  32.316   9.281
  147POPC   GL2 4886  10.767  32.098   9.197
  147POPC   C1A 4887  10.550  32.439   8.835
  147POPC   D2A 4888  10.536  32.663   8.433
  147POPC   C3A 4889  10.519  32.366   8.086
  147POPC   C4A 4890  10.226  32.222   7.783
  147POPC   C1B 4891  10.692  31.940   8.747
  147POPC   C2B 4892  10.571  31.890   8.290
  147POPC   C3B 4893  10.646  31.912   7.818
  147POPC   C4B 4894  10.966  32.001   7.480
  148POPC   NC3 4895   9.440  24.178   9.427
  148POPC   PO4 4896  10.065  24.540   9.439
  148POPC   GL1 4897   9.683  24.589   9.153
  148POPC   GL2 4898   9.462  24.908   9.114
  148POPC   C1A 4899   9.791  24.615   8.725
  148POPC   D2A 4900   9.980  24.305   8.426
  148POPC   C3A 4901   9.875  24.406   8.000
  148POPC   C4A 4902   9.560  24.235   7.740
  148POPC   C1B 4903   9.307  24.838   8.699
  148POPC   C2B 4904   9.476  24.585   8.328
  148POPC   C3B 4905   9.328  24.658   7.944
  148POPC   C4B 4906   9.432  25.036   7.748
  149POPC   NC3 4907  29.521   5.908   9.396
  149POPC   PO4 4908  28.894   5.605   9.515
  149POPC   GL1 4909  29.100   5.694   9.120
  149POPC   GL2 4910  29.348   5.491   8.947
  149POPC   C1A 4911  28.946   5.652   8.692
  149POPC   D2A 4912  29.198   5.580   8.336
  149POPC   C3A 4913  29.076   5.839   7.986
  149POPC   C4A 4914  29.086   5.710   7.563
  149POPC   C1B 4915  29.398   5.903   8.716
  149POPC   C2B 4916  29.427   6.086   8.290
  149POPC   C3B 4917  29.545   5.981   7.860
  149POPC   C4B 4918  29.674   6.101   7.467
  150POPC   NC3 4919  18.528  34.803   9.551
  150POPC   PO4 4920  18.066  34.441   9.372
  150POPC   GL1 4921  18.186  34.586   9.042
  150POPC   GL2 4922  18.528  34.529   9.121
  150POPC   C1A 4923  18.283  34.658   8.636
  150POPC   D2A 4924  18.184  34.572   8.240
  150POPC   C3A 4925  17.956  34.278   8.062
  150POPC   C4A 4926  18.063  34.533   7.680
  150POPC   C1B 4927  18.610  34.290   8.768
  150POPC   C2B 4928  18.678  34.438   8.330
  150POPC   C3B 4929  18.549  34.388   7.890
  150POPC   C4B 4930  18.713  34.049   7.614
  151POPC   NC3 4931   2.334  39.366   9.511
  151POPC   PO4 4932   1.916  38.895   9.683
  151POPC   GL1 4933   2.096  38.969   9.257
  151POPC   GL2 4934   2.022  39.280   9.122
  151POPC   C1A 4935   2.134  38.878   8.804
  151POPC   D2A 4936   1.876  38.885   8.444
  151POPC   C3A 4937   2.049  38.893   8.026
  151POPC   C4A 4938   2.082  39.153   7.689
  151POPC   C1B 4939   1.925  39.351   8.709
  151POPC   C2B 4940   2.143  39.310   8.329
  151POPC   C3B 4941   2.202  39.591   7.965
  151POPC   C4B 4942   2.203  39.622   7.498
  152POPC   NC3 4943  15.089  12.642   9.578
  152POPC   PO4 4944  15.374  11.958   9.507
  152POPC   GL1 4945  15.431  12.125   9.119
  152POPC   GL2 4946  15.095  12.062   9.065
  152POPC   C1A 4947  15.484  12.041   8.703
  152POPC   D2A 4948  15.155  12.074   8.430
  152POPC   C3A 4949  15.234  12.150   8.039
  152POPC   C4A 4950  15.218  12.420   7.743
  152POPC   C1B 4951  15.118  11.701   8.789
  152POPC   C2B 4952  14.922  11.628   8.405
  152POPC   C3B 4953  14.856  11.818   8.026
  152POPC   C4B 4954  14.971  11.945   7.615
  153POPC   NC3 4955  11.595   3.036   9.415
  153POPC   PO4 4956  11.010   2.709   9.418
  153POPC   GL1 4957  11.394   2.636   9.173
  153POPC   GL2 4958  11.614   2.888   8.936
  153POPC   C1A 4959  11.346   2.456   8.818
  153POPC   D2A 4960  11.280   2.412   8.414
  153POPC   C3A 4961  11.451   2.696   8.091
  153POPC   C4A 4962  11.257   2.525   7.741
  153POPC   C1B 4963  11.203   2.967   8.782
  153POPC   C2B 4964  11.056   2.908   8.364
  153POPC   C3B 4965  11.006   2.937   7.907
  153POPC   C4B 4966  10.986   3.155   7.480
  154POPC   NC3 4967  37.287  35.924   9.454
  154POPC   PO4 4968  37.874  36.274   9.526
  154POPC   GL1 4969  37.762  36.054   9.181
  154POPC   GL2 4970  37.982  35.806   9.123
  154POPC   C1A 4971  37.845  36.181   8.753
  154POPC   D2A 4972  37.844  36.038   8.327
  154POPC   C3A 4973  37.700  36.351   8.027
  154POPC   C4A 4974  37.390  36.376   7.714
  154POPC   C1B 4975  37.688  35.702   8.764
  154POPC   C2B 4976  37.504  35.608   8.360
  154POPC   C3B 4977  37.533  35.840   7.966
  154POPC   C4B 4978  37.810  35.993   7.665
  155POPC   NC3 4979  19.031  44.185   9.510
  155POPC   PO4 4980  18.735  43.601   9.588
  155POPC   GL1 4981  18.912  43.709   9.170
  155POPC   GL2 4982  19.248  43.919   9.122
  155POPC   C1A 4983  18.917  43.836   8.722
  155POPC   D2A 4984  19.258  43.677   8.444
  155POPC   C3A 4985  19.195  43.802   8.034
  155POPC   C4A 4986  18.820  43.729   7.800
  155POPC   C1B 4987  19.134  44.278   8.822
  155POPC   C2B 4988  19.267  44.196   8.419
  155POPC   C3B 4989  19.260  44.343   8.026
  155POPC   C4B 4990  19.006  44.181   7.733
  156POPC   NC3 4991  23.991  15.689   9.381
  156POPC   PO4 4992  23.622  16.277   9.335
  156POPC   GL1 4993  23.803  16.015   9.016
  156POPC   GL2 4994  23.607  15.678   9.033
  156POPC   C1A 4995  23.867  16.215   8.600
  156POPC   D2A 4996  23.510  16.230   8.294
  156POPC   C3A 4997  23.577  16.171   7.840
  156POPC   C4A 4998  23.950  16.311   7.609
  156POPC   C1B 4999  23.609  15.773   8.588
  156POPC   C2B 5000  23.678  15.771   8.131
  156POPC   C3B 5001  23.447  15.581   7.782
  156POPC   C4B 5002  23.335  15.706   7.348
  157POPC   NC3 5003  21.620  26.532   9.324
  157POPC   PO4 5004  21.756  27.127   9.393
  157POPC   GL1 5005  21.518  27.203   9.042
  157POPC   GL2 5006  21.172  27.320   9.133
  157POPC   C1A 5007  21.573  27.030   8.618
  157POPC   D2A 5008  21.582  26.692   8.303
  157POPC   C3A 5009  21.467  26.864   7.899
  157POPC   C4A 5010  21.212  26.726   7.557
  157POPC   C1B 5011  21.087  27.244   8.671
  157POPC   C2B 5012  21.210  27.166   8.231
  157POPC   C3B 5013  21.036  27.140   7.801
  157POPC   C4B 5014  20.771  26.970   7.445
  158POPC   NC3 5015  28.311  24.947   9.518
  158POPC   PO4 5016  28.696  25.520   9.625
  158POPC   GL1 5017  28.449  25.511   9.212
  158POPC   GL2 5018  28.060  25.484   9.255
  158POPC   C1A 5019  28.581  25.450   8.749
  158POPC   D2A 5020  28.435  25.339   8.314
  158POPC   C3A 5021  28.650  25.041   7.999
  158POPC   C4A 5022  28.840  25.117   7.582
  158POPC   C1B 5023  28.115  25.195   8.850
  158POPC   C2B 5024  28.136  24.929   8.438
  158POPC   C3B 5025  28.140  25.079   7.991
  158POPC   C4B 5026  28.315  25.173   7.588
  159POPC   NC3 5027  10.246  44.335   9.678
  159POPC   PO4 5028  10.815  44.817   9.634
  159POPC   GL1 5029  10.638  44.556   9.353
  159POPC   GL2 5030  10.437  44.832   9.191
  159POPC   C1A 5031  10.747  44.374   8.958
  159POPC   D2A 5032  10.449  44.520   8.616
  159POPC   C3A 5033  10.423  44.402   8.164
  159POPC   C4A 5034  10.336  44.427   7.681
  159POPC   C1B 5035  10.242  44.961   8.791
  159POPC   C2B 5036  10.087  44.789   8.378
  159POPC   C3B 5037  10.120  44.806   7.933
  159POPC   C4B 5038  10.024   0.166   7.686
  160POPC   NC3 5039  40.433  39.032   9.439
  160POPC   PO4 5040  40.771  38.468   9.515
  160POPC   GL1 5041  40.644  38.227   9.128
  160POPC   GL2 5042  40.486  38.503   9.042
  160POPC   C1A 5043  40.753  38.261   8.665
  160POPC   D2A 5044  40.687  38.380   8.215
  160POPC   C3A 5045  40.994  38.274   7.849
  160POPC   C4A 5046  41.032  38.141   7.409
  160POPC   C1B 5047  40.543  38.762   8.661
  160POPC   C2B 5048  40.841  39.014   8.396
  160POPC   C3B 5049  41.009  38.919   8.020
  160POPC   C4B 5050  40.723  38.692   7.808
  161POPC   NC3 5051   0.820  28.065   9.519
  161POPC   PO4 5052   1.304  28.554   9.465
  161POPC   GL1 5053   1.265  28.270   9.141
  161POPC   GL2 5054   1.009  28.018   9.065
  161POPC   C1A 5055   1.194  28.397   8.730
  161POPC   D2A 5056   1.123  28.616   8.352
  161POPC   C3A 5057   1.257  28.381   7.962
  161POPC   C4A 5058   1.415  28.485   7.545
  161POPC   C1B 5059   0.909  27.972   8.660
  161POPC   C2B 5060   1.118  28.021   8.292
  161POPC   C3B 5061   0.886  28.024   7.901
  161POPC   C4B 5062   0.927  28.068   7.440
  162POPC   NC3 5063  43.559  25.652   9.789
  162POPC   PO4 5064  43.879  25.154   9.439
  162POPC   GL1 5065  44.049  25.229   9.099
  162POPC   GL2 5066  44.309  24.983   9.025
  162POPC   C1A 5067  43.925  25.255   8.669
  162POPC   D2A 5068  44.079  25.470   8.314
  162POPC   C3A 5069  43.849  25.444   7.926
  162POPC   C4A 5070  43.471  25.174   7.912
  162POPC   C1B 5071  44.471  25.007   8.601
  162POPC   C2B 5072  44.340  25.056   8.145
  162POPC   C3B 5073  44.014  24.961   7.827
  162POPC   C4B 5074  44.024  24.774   7.398
  163POPC   NC3 5075  29.570  33.346   9.751
  163POPC   PO4 5076  29.924  32.788   9.508
  163POPC   GL1 5077  29.979  32.995   9.126
  163POPC   GL2 5078  29.682  33.184   9.212
  163POPC   C1A 5079  29.928  33.208   8.752
  163POPC   D2A 5080  30.007  33.503   8.440
  163POPC   C3A 5081  29.975  33.255   8.084
  163POPC   C4A 5082  30.158  33.303   7.703
  163POPC   C1B 5083  29.596  32.822   8.864
  163POPC   C2B 5084  29.683  32.641   8.426
  163POPC   C3B 5085  29.769  32.771   7.993
  163POPC   C4B 5086  29.656  33.101   7.696
  164POPC   NC3 5087   8.706  13.254   9.434
  164POPC   PO4 5088   8.623  12.637   9.566
  164POPC   GL1 5089   8.702  12.826   9.157
  164POPC   GL2 5090   9.028  12.723   9.109
  164POPC   C1A 5091   8.914  13.129   8.830
  164POPC   D2A 5092   9.111  13.036   8.427
  164POPC   C3A 5093   8.854  12.900   8.065
  164POPC   C4A 5094   8.879  13.160   7.677
  164POPC   C1B 5095   8.829  12.654   8.686
  164POPC   C2B 5096   9.068  12.486   8.372
  164POPC   C3B 5097   9.284  12.564   7.994
  164POPC   C4B 5098   9.114  12.710   7.635
  165POPC   NC3 5099  41.732  17.068   9.507
  165POPC   PO4 5100  41.441  17.730   9.590
  165POPC   GL1 5101  41.651  17.643   9.186
  165POPC   GL2 5102  41.598  17.304   9.078
  165POPC   C1A 5103  41.853  17.651   8.789
  165POPC   D2A 5104  41.669  17.518   8.382
  165POPC   C3A 5105  41.735  17.650   7.939
  165POPC   C4A 5106  41.314  17.710   7.759
  165POPC   C1B 5107  41.297  17.375   8.743
  165POPC   C2B 5108  41.188  17.193   8.321
  165POPC   C3B 5109  41.275  17.211   7.859
  165POPC   C4B 5110  41.383  17.211   7.388
  166POPC   NC3 5111  34.765  33.778   9.460
  166POPC   PO4 5112  34.394  34.171   9.795
  166POPC   GL1 5113  34.356  34.103   9.253
  166POPC   GL2 5114  34.359  33.774   9.142
  166POPC   C1A 5115  34.632  33.996   8.801
  166POPC   D2A 5116  34.795  33.754   8.429
  166POPC   C3A 5117  34.650  33.813   7.993
  166POPC   C4A 5118  34.815  33.918   7.557
  166POPC   C1B 5119  34.206  33.543   8.775
  166POPC   C2B 5120  34.223  33.421   8.339
  166POPC   C3B 5121  34.204  33.573   7.929
  166POPC   C4B 5122  34.529  33.511   7.584
  167POPC   NC3 5123  25.392   7.947   9.486
  167POPC   PO4 5124  24.932   8.380   9.454
  167POPC   GL1 5125  25.048   8.102   9.128
  167POPC   GL2 5126  25.357   8.203   9.013
  167POPC   C1A 5127  24.940   8.161   8.692
  167POPC   D2A 5128  25.040   8.326   8.290
  167POPC   C3A 5129  25.030   8.109   7.916
  167POPC   C4A 5130  25.312   8.087   7.551
  167POPC   C1B 5131  25.446   8.108   8.573
  167POPC   C2B 5132  25.523   8.198   8.121
  167POPC   C3B 5133  25.779   8.321   7.756
  167POPC   C4B 5134  26.086   8.395   7.440
  168POPC   NC3 5135  37.770  41.359   9.450
  168POPC   PO4 5136  37.313  41.951   9.514
  168POPC   GL1 5137  37.454  41.699   9.175
  168POPC   GL2 5138  37.789  41.810   9.184
  168POPC   C1A 5139  37.580  41.413   8.805
  168POPC   D2A 5140  37.604  41.207   8.390
  168POPC   C3A 5141  37.625  41.480   7.999
  168POPC   C4A 5142  37.890  41.539   7.638
  168POPC   C1B 5143  37.719  41.910   8.772
  168POPC   C2B 5144  37.826  41.756   8.399
  168POPC   C3B 5145  37.944  41.894   8.005
  168POPC   C4B 5146  37.705  42.006   7.651
  169POPC   NC3 5147  30.358  28.537   9.492
  169POPC   PO4 5148  29.737  28.235   9.482
  169POPC   GL1 5149  29.776  28.193   9.056
  169POPC   GL2 5150  30.092  28.042   8.965
  169POPC   C1A 5151  29.849  28.363   8.637
  169POPC   D2A 5152  30.161  28.592   8.379
  169POPC   C3A 5153  29.899  28.582   8.044
  169POPC   C4A 5154  29.829  28.706   7.649
  169POPC   C1B 5155  30.277  28.088   8.541
  169POPC   C2B 5156  30.245  28.177   8.103
  169POPC   C3B 5157  29.942  28.156   7.747
  169POPC   C4B 5158  30.046  28.018   7.327
  170POPC   NC3 5159  10.047  14.371   9.558
  170POPC   PO4 5160   9.431  14.562   9.533
  170POPC   GL1 5161   9.707  14.657   9.217
  170POPC   GL2 5162   9.818  14.348   9.104
  170POPC   C1A 5163   9.598  14.677   8.784
  170POPC   D2A 5164   9.466  14.496   8.414
  170POPC   C3A 5165   9.704  14.403   8.056
  170POPC   C4A 5166   9.572  14.487   7.649
  170POPC   C1B 5167   9.641  14.138   8.754
  170POPC   C2B 5168   9.731  13.832   8.453
  170POPC   C3B 5169   9.529  13.812   8.072
  170POPC   C4B 5170   9.693  13.985   7.714
  171POPC   NC3 5171  32.024  20.319   9.469
  171POPC   PO4 5172  32.501  20.851   9.526
  171POPC   GL1 5173  32.389  20.590   9.208
  171POPC   GL2 5174  32.337  20.910   9.020
  171POPC   C1A 5175  32.179  20.379   8.841
  171POPC   D2A 5176  32.323  20.353   8.418
  171POPC   C3A 5177  32.131  20.521   8.036
  171POPC   C4A 5178  32.280  20.489   7.654
  171POPC   C1B 5179  32.130  20.831   8.616
  171POPC   C2B 5180  32.031  20.978   8.209
  171POPC   C3B 5181  32.391  20.982   7.912
  171POPC   C4B 5182  32.433  20.934   7.464
  172POPC   NC3 5183  32.598  10.656   9.496
  172POPC   PO4 5184  31.900  10.319   9.558
  172POPC   GL1 5185  32.117  10.515   9.262
  172POPC   GL2 5186  31.995  10.859   9.267
  172POPC   C1A 5187  32.076  10.405   8.841
  172POPC   D2A 5188  32.229  10.547   8.449
  172POPC   C3A 5189  32.119  10.375   8.033
  172POPC   C4A 5190  32.386  10.489   7.671
  172POPC   C1B 5191  32.148  10.911   8.834
  172POPC   C2B 5192  31.982  11.002   8.421
  172POPC   C3B 5193  32.136  10.884   8.038
  172POPC   C4B 5194  32.035  10.840   7.630
  173POPC   NC3 5195  21.475   6.335   9.503
  173POPC   PO4 5196  21.045   5.926   9.557
  173POPC   GL1 5197  21.321   5.951   9.205
  173POPC   GL2 5198  21.161   6.241   9.104
  173POPC   C1A 5199  21.476   5.956   8.779
  173POPC   D2A 5200  21.265   5.955   8.366
  173POPC   C3A 5201  21.541   5.791   8.029
  173POPC   C4A 5202  21.743   5.937   7.670
  173POPC   C1B 5203  20.960   6.187   8.728
  173POPC   C2B 5204  20.889   6.358   8.311
  173POPC   C3B 5205  21.079   6.245   7.955
  173POPC   C4B 5206  21.236   6.056   7.633
  174POPC   NC3 5207  26.130   2.428   9.441
  174POPC   PO4 5208  25.658   2.940   9.662
  174POPC   GL1 5209  25.826   2.866   9.207
  174POPC   GL2 5210  26.198   2.917   9.176
  174POPC   C1A 5211  25.956   2.735   8.753
  174POPC   D2A 5212  25.995   2.473   8.335
  174POPC   C3A 5213  25.884   2.733   7.936
  174POPC   C4A 5214  25.842   3.129   7.675
  174POPC   C1B 5215  26.357   3.077   8.775
  174POPC   C2B 5216  26.237   2.938   8.366
  174POPC   C3B 5217  26.387   2.706   8.043
  174POPC   C4B 5218  26.308   2.938   7.686
  175POPC   NC3 5219  14.010   2.064   9.411
  175POPC   PO4 5220  14.432   1.560   9.567
  175POPC   GL1 5221  14.359   1.738   9.193
  175POPC   GL2 5222  14.652   1.913   9.178
  175POPC   C1A 5223  14.152   1.643   8.813
  175POPC   D2A 5224  14.247   1.804   8.408
  175POPC   C3A 5225  14.302   1.619   8.010
  175POPC   C4A 5226  14.700   1.716   7.880
  175POPC   C1B 5227  14.635   1.930   8.749
  175POPC   C2B 5228  14.665   2.081   8.325
  175POPC   C3B 5229  14.410   2.129   7.967
  175POPC   C4B 5230  14.566   2.092   7.560
  176POPC   NC3 5231   8.792  35.571   9.451
  176POPC   PO4 5232   9.244  35.150   9.369
  176POPC   GL1 5233   9.103  35.393   9.040
  176POPC   GL2 5234   8.751  35.346   8.995
  176POPC   C1A 5235   9.152  35.230   8.623
  176POPC   D2A 5236   8.998  35.308   8.214
  176POPC   C3A 5237   9.175  35.048   7.915
  176POPC   C4A 5238   9.314  35.143   7.524
  176POPC   C1B 5239   8.799  35.584   8.607
  176POPC   C2B 5240   8.513  35.609   8.254
  176POPC   C3B 5241   8.716  35.576   7.883
  176POPC   C4B 5242   9.115  35.547   7.746
  177POPC   NC3 5243  31.376  21.137   9.407
  177POPC   PO4 5244  31.895  21.622   9.481
  177POPC   GL1 5245  31.781  21.369   9.170
  177POPC   GL2 5246  31.470  21.524   9.096
  177POPC   C1A 5247  31.769  21.187   8.759
  177POPC   D2A 5248  31.712  21.389   8.360
  177POPC   C3A 5249  31.603  21.180   7.974
  177POPC   C4A 5250  31.238  21.069   7.739
  177POPC   C1B 5251  31.264  21.347   8.741
  177POPC   C2B 5252  31.147  21.318   8.311
  177POPC   C3B 5253  31.275  21.581   7.973
  177POPC   C4B 5254  31.253  21.555   7.537
  178POPC   NC3 5255  14.373  31.884   9.444
  178POPC   PO4 5256  14.412  32.529   9.418
  178POPC   GL1 5257  14.544  32.297   9.079
  178POPC   GL2 5258  14.761  32.001   9.126
  178POPC   C1A 5259  14.415  32.418   8.673
  178POPC   D2A 5260  14.570  32.622   8.310
  178POPC   C3A 5261  14.404  32.418   7.978
  178POPC   C4A 5262  14.349  32.253   7.602
  178POPC   C1B 5263  14.711  31.988   8.690
  178POPC   C2B 5264  14.704  32.123   8.276
  178POPC   C3B 5265  14.764  32.062   7.839
  178POPC   C4B 5266  14.672  31.914   7.411
  179POPC   NC3 5267  19.808  32.511   9.472
  179POPC   PO4 5268  20.138  31.844   9.533
  179POPC   GL1 5269  20.040  32.064   9.183
  179POPC   GL2 5270  19.758  32.283   9.034
  179POPC   C1A 5271  19.922  31.889   8.798
  179POPC   D2A 5272  19.645  32.067   8.525
  179POPC   C3A 5273  19.751  32.030   8.107
  179POPC   C4A 5274  19.573  32.147   7.720
  179POPC   C1B 5275  19.794  32.526   8.694
  179POPC   C2B 5276  19.591  32.537   8.292
  179POPC   C3B 5277  19.818  32.549   7.915
  179POPC   C4B 5278  19.750  32.610   7.469
  180POPC   NC3 5279  13.663  35.611   9.697
  180POPC   PO4 5280  13.139  35.264   9.293
  180POPC   GL1 5281  13.572  35.246   9.163
  180POPC   GL2 5282  13.857  35.479   9.245
  180POPC   C1A 5283  13.565  35.211   8.725
  180POPC   D2A 5284  13.225  35.089   8.443
  180POPC   C3A 5285  13.396  35.174   8.051
  180POPC   C4A 5286  13.367  35.556   7.830
  180POPC   C1B 5287  14.017  35.444   8.843
  180POPC   C2B 5288  13.952  35.433   8.436
  180POPC   C3B 5289  13.824  35.487   8.055
  180POPC   C4B 5290  13.801  35.316   7.671
  181POPC   NC3 5291  30.763  15.518   9.267
  181POPC   PO4 5292  30.793  14.940   9.614
  181POPC   GL1 5293  30.756  14.964   9.160
  181POPC   GL2 5294  30.424  15.014   8.960
  181POPC   C1A 5295  30.847  15.073   8.717
  181POPC   D2A 5296  30.675  15.107   8.279
  181POPC   C3A 5297  30.912  14.883   7.959
  181POPC   C4A 5298  31.166  14.872   7.554
  181POPC   C1B 5299  30.436  15.394   8.657
  181POPC   C2B 5300  30.749  15.607   8.402
  181POPC   C3B 5301  30.912  15.496   8.019
  181POPC   C4B 5302  30.697  15.282   7.701
  182POPC   NC3 5303  10.327  33.656   9.432
  182POPC   PO4 5304  10.742  34.200   9.390
  182POPC   GL1 5305  10.513  33.936   9.071
  182POPC   GL2 5306  10.546  33.560   8.960
  182POPC   C1A 5307  10.251  33.948   8.719
  182POPC   D2A 5308  10.524  33.773   8.406
  182POPC   C3A 5309  10.534  33.950   7.997
  182POPC   C4A 5310  10.538  33.911   7.540
  182POPC   C1B 5311  10.222  33.429   8.642
  182POPC   C2B 5312  10.170  33.461   8.186
  182POPC   C3B 5313  10.416  33.482   7.803
  182POPC   C4B 5314  10.643  33.422   7.428
  183POPC   NC3 5315  40.334  13.068   9.390
  183POPC   PO4 5316  39.927  12.553   9.358
  183POPC   GL1 5317  39.859  12.786   8.967
  183POPC   GL2 5318  39.660  13.100   8.898
  183POPC   C1A 5319  40.210  12.900   8.753
  183POPC   D2A 5320  40.426  13.018   8.428
  183POPC   C3A 5321  40.190  12.886   8.118
  183POPC   C4A 5322  40.021  12.901   7.746
  183POPC   C1B 5323  39.775  13.030   8.494
  183POPC   C2B 5324  39.840  12.639   8.369
  183POPC   C3B 5325  39.717  12.546   7.986
  183POPC   C4B 5326  39.498  12.813   7.749
  184POPC   NC3 5327  30.767  32.550   9.571
  184POPC   PO4 5328  30.326  32.143   9.352
  184POPC   GL1 5329  30.717  32.211   9.152
  184POPC   GL2 5330  30.913  32.544   9.075
  184POPC   C1A 5331  30.656  32.080   8.738
  184POPC   D2A 5332  30.549  32.316   8.398
  184POPC   C3A 5333  30.614  32.099   8.057
  184POPC   C4A 5334  30.413  32.164   7.691
  184POPC   C1B 5335  31.133  32.221   8.841
  184POPC   C2B 5336  31.059  32.167   8.420
  184POPC   C3B 5337  31.036  32.396   8.048
  184POPC   C4B 5338  30.858  32.418   7.663
  185POPC   NC3 5339   5.280  33.922   9.726
  185POPC   PO4 5340   4.763  33.635   9.414
  185POPC   GL1 5341   5.057  33.920   9.239
  185POPC   GL2 5342   4.846  34.021   8.985
  185POPC   C1A 5343   5.334  33.929   8.883
  185POPC   D2A 5344   5.215  34.035   8.460
  185POPC   C3A 5345   5.412  33.844   8.100
  185POPC   C4A 5346   5.250  33.941   7.737
  185POPC   C1B 5347   4.874  33.697   8.725
  185POPC   C2B 5348   4.712  33.851   8.358
  185POPC   C3B 5349   4.800  33.851   7.943
  185POPC   C4B 5350   4.989  33.505   7.670
  186POPC   NC3 5351  13.231  21.867   9.456
  186POPC   PO4 5352  12.791  22.389   9.505
  186POPC   GL1 5353  12.858  22.104   9.173
  186POPC   GL2 5354  12.542  22.172   9.098
  186POPC   C1A 5355  12.907  22.021   8.722
  186POPC   D2A 5356  12.769  22.211   8.319
  186POPC   C3A 5357  12.959  22.055   7.934
  186POPC   C4A 5358  13.053  22.321   7.571
  186POPC   C1B 5359  12.404  21.895   8.764
  186POPC   C2B 5360  12.533  21.766   8.365
  186POPC   C3B 5361  12.424  21.950   7.971
  186POPC   C4B 5362  12.530  22.285   7.683
  187POPC   NC3 5363  40.448  10.605   9.404
  187POPC   PO4 5364  39.813  10.450   9.641
  187POPC   GL1 5365  39.995  10.531   9.211
  187POPC   GL2 5366  40.243  10.257   9.087
  187POPC   C1A 5367  40.103  10.671   8.756
  187POPC   D2A 5368  39.863  10.696   8.350
  187POPC   C3A 5369  40.027  10.834   7.926
  187POPC   C4A 5370  39.900  10.854   7.441
  187POPC   C1B 5371  39.849  10.233   8.840
  187POPC   C2B 5372  39.945  10.192   8.416
  187POPC   C3B 5373  39.843  10.297   8.008
  187POPC   C4B 5374  40.132  10.377   7.694
  188POPC   NC3 5375  14.413  29.425   9.482
  188POPC   PO4 5376  13.993  29.940   9.556
  188POPC   GL1 5377  14.364  29.906   9.251
  188POPC   GL2 5378  14.732  30.028   9.282
  188POPC   C1A 5379  14.383  30.069   8.831
  188POPC   D2A 5380  14.226  29.955   8.417
  188POPC   C3A 5381  14.313  30.235   8.074
  188POPC   C4A 5382  14.470  30.037   7.724
  188POPC   C1B 5383  14.846  29.856   8.873
  188POPC   C2B 5384  14.646  29.654   8.555
  188POPC   C3B 5385  14.635  29.780   8.148
  188POPC   C4B 5386  14.915  29.768   7.798
  189POPC   NC3 5387  15.786  34.496   9.509
  189POPC   PO4 5388  16.265  34.982   9.621
  189POPC   GL1 5389  16.096  34.864   9.204
  189POPC   GL2 5390  16.056  34.490   9.102
  189POPC   C1A 5391  16.003  34.863   8.748
  189POPC   D2A 5392  15.764  34.561   8.511
  189POPC   C3A 5393  15.814  34.634   8.068
  189POPC   C4A 5394  16.080  34.839   7.768
  189POPC   C1B 5395  16.092  34.191   8.789
  189POPC   C2B 5396  16.181  34.244   8.365
  189POPC   C3B 5397  16.109  34.219   7.936
  189POPC   C4B 5398  15.837  34.395   7.602
  190POPC   NC3 5399  29.018  17.264   9.585
  190POPC   PO4 5400  29.059  16.699   9.420
  190POPC   GL1 5401  29.197  16.600   9.042
  190POPC   GL2 5402  29.546  16.470   9.118
  190POPC   C1A 5403  29.105  16.628   8.609
  190POPC   D2A 5404  29.046  16.450   8.231
  190POPC   C3A 5405  28.896  16.779   7.952
  190POPC   C4A 5406  28.883  17.050   7.555
  190POPC   C1B 5407  29.589  16.667   8.729
  190POPC   C2B 5408  29.541  16.498   8.361
  190POPC   C3B 5409  29.416  16.626   7.961
  190POPC   C4B 5410  29.260  16.732   7.599
  191POPC   NC3 5411  12.525   3.333   9.630
  191POPC   PO4 5412  13.108   3.674   9.523
  191POPC   GL1 5413  12.906   3.409   9.240
  191POPC   GL2 5414  12.616   3.612   9.185
  191POPC   C1A 5415  12.850   3.466   8.778
  191POPC   D2A 5416  12.988   3.549   8.387
  191POPC   C3A 5417  12.787   3.532   7.993
  191POPC   C4A 5418  13.078   3.621   7.668
  191POPC   C1B 5419  12.486   3.823   8.780
  191POPC   C2B 5420  12.603   3.900   8.372
  191POPC   C3B 5421  12.678   4.035   7.949
  191POPC   C4B 5422  12.661   3.942   7.524
  192POPC   NC3 5423  16.357  40.551   9.555
  192POPC   PO4 5424  17.000  40.861   9.463
  192POPC   GL1 5425  16.874  40.790   9.067
  192POPC   GL2 5426  16.549  40.766   9.140
  192POPC   C1A 5427  16.872  41.008   8.653
  192POPC   D2A 5428  16.747  41.251   8.267
  192POPC   C3A 5429  16.759  40.966   7.919
  192POPC   C4A 5430  16.983  40.704   7.669
  192POPC   C1B 5431  16.398  40.734   8.756
  192POPC   C2B 5432  16.519  40.776   8.335
  192POPC   C3B 5433  16.446  40.552   7.949
  192POPC   C4B 5434  16.502  40.607   7.499
  193POPC   NC3 5435  37.538   4.340   9.561
  193POPC   PO4 5436  38.164   4.358   9.747
  193POPC   GL1 5437  37.884   4.237   9.224
  193POPC   GL2 5438  37.494   4.140   9.111
  193POPC   C1A 5439  37.798   4.385   8.769
  193POPC   D2A 5440  37.624   4.664   8.414
  193POPC   C3A 5441  37.754   4.504   7.986
  193POPC   C4A 5442  37.815   4.112   7.698
  193POPC   C1B 5443  37.291   4.383   8.782
  193POPC   C2B 5444  37.377   4.242   8.351
  193POPC   C3B 5445  37.246   4.455   7.996
  193POPC   C4B 5446  37.396   4.389   7.591
  194POPC   NC3 5447   5.014  38.228   9.661
  194POPC   PO4 5448   4.847  38.856   9.727
  194POPC   GL1 5449   4.917  38.598   9.295
  194POPC   GL2 5450   5.248  38.542   9.105
  194POPC   C1A 5451   4.842  38.309   8.906
  194POPC   D2A 5452   4.635  38.237   8.499
  194POPC   C3A 5453   4.922  38.221   8.194
  194POPC   C4A 5454   4.934  38.288   7.779
  194POPC   C1B 5455   5.392  38.349   8.714
  194POPC   C2B 5456   5.482  38.319   8.263
  194POPC   C3B 5457   5.451  38.292   7.829
  194POPC   C4B 5458   5.499  38.563   7.465
  195POPC   NC3 5459  19.078  43.295   9.641
  195POPC   PO4 5460  18.564  43.019   9.326
  195POPC   GL1 5461  19.007  43.091   9.157
  195POPC   GL2 5462  19.266  42.779   9.124
  195POPC   C1A 5463  19.062  43.353   8.802
  195POPC   D2A 5464  18.784  43.455   8.417
  195POPC   C3A 5465  18.904  43.284   8.018
  195POPC   C4A 5466  19.215  43.401   7.683
  195POPC   C1B 5467  19.187  42.871   8.702
  195POPC   C2B 5468  19.254  43.146   8.361
  195POPC   C3B 5469  19.301  42.971   7.953
  195POPC   C4B 5470  19.313  42.817   7.554
  196POPC   NC3 5471  39.150  20.333   9.531
  196POPC   PO4 5472  38.917  20.938   9.700
  196POPC   GL1 5473  39.029  20.891   9.201
  196POPC   GL2 5474  39.098  20.521   9.018
  196POPC   C1A 5475  39.348  20.937   8.839
  196POPC   D2A 5476  39.297  21.041   8.388
  196POPC   C3A 5477  39.272  20.758   8.052
  196POPC   C4A 5478  39.556  20.643   7.744
  196POPC   C1B 5479  39.011  20.117   8.768
  196POPC   C2B 5480  38.982  19.961   8.308
  196POPC   C3B 5481  39.037  20.102   7.879
  196POPC   C4B 5482  39.024  20.460   7.654
  197POPC   NC3 5483  26.296  44.917   9.857
  197POPC   PO4 5484  26.204  44.284   9.486
  197POPC   GL1 5485  26.104  44.506   9.122
  197POPC   GL2 5486  26.042  44.872   9.210
  197POPC   C1A 5487  25.923  44.416   8.710
  197POPC   D2A 5488  26.040  44.551   8.327
  197POPC   C3A 5489  25.807  44.517   7.962
  197POPC   C4A 5490  26.046  44.477   7.619
  197POPC   C1B 5491  26.184  44.879   8.768
  197POPC   C2B 5492  26.209   0.027   8.331
  197POPC   C3B 5493  26.243  44.835   7.922
  197POPC   C4B 5494  26.377  44.827   7.452
  198POPC   NC3 5495  30.410  25.120   9.488
  198POPC   PO4 5496  31.012  25.367   9.636
  198POPC   GL1 5497  30.755  25.387   9.224
  198POPC   GL2 5498  30.400  25.519   9.157
  198POPC   C1A 5499  30.673  25.031   8.882
  198POPC   D2A 5500  30.579  24.759   8.509
  198POPC   C3A 5501  30.692  24.984   8.137
  198POPC   C4A 5502  30.635  25.238   7.765
  198POPC   C1B 5503  30.604  25.502   8.737
  198POPC   C2B 5504  30.724  25.461   8.311
  198POPC   C3B 5505  30.596  25.681   7.979
  198POPC   C4B 5506  30.339  25.638   7.625
  199POPC   NC3 5507   1.326  25.790   9.683
  199POPC   PO4 5508   1.018  26.160   9.232
  199POPC   GL1 5509   1.141  25.844   8.956
  199POPC   GL2 5510   1.446  25.772   9.132
  199POPC   C1A 5511   1.035  25.832   8.547
  199POPC   D2A 5512   0.831  26.131   8.289
  199POPC   C3A 5513   0.646  25.968   7.930
  199POPC   C4A 5514   0.859  25.816   7.619
  199POPC   C1B 5515   1.490  26.091   8.733
  199POPC   C2B 5516   1.381  26.167   8.313
  199POPC   C3B 5517   1.211  26.056   7.917
  199POPC   C4B 5518   1.278  26.262   7.544
  200POPC   NC3 5519  42.512  30.565   9.658
  200POPC   PO4 5520  43.182  30.624   9.541
  200POPC   GL1 5521  42.859  30.547   9.249
  200POPC   GL2 5522  42.787  30.830   9.076
  200POPC   C1A 5523  42.861  30.392   8.808
  200POPC   D2A 5524  43.013  30.628   8.449
  200POPC   C3A 5525  43.320  30.467   8.113
  200POPC   C4A 5526  43.321  30.300   7.669
  200POPC   C1B 5527  42.779  31.081   8.697
  200POPC   C2B 5528  43.010  31.150   8.340
  200POPC   C3B 5529  43.012  30.883   7.998
  200POPC   C4B 5530  43.322  30.806   7.701
  201POPC   NC3 5531   6.294   2.362   9.195
  201POPC   PO4 5532   5.750   2.549   9.565
  201POPC   GL1 5533   5.925   2.732   9.183
  201POPC   GL2 5534   5.620   2.770   8.992
  201POPC   C1A 5535   5.969   2.596   8.703
  201POPC   D2A 5536   5.699   2.641   8.352
  201POPC   C3A 5537   5.926   2.662   7.944
  201POPC   C4A 5538   6.162   2.446   7.599
  201POPC   C1B 5539   5.588   3.100   8.613
  201POPC   C2B 5540   5.628   3.088   8.129
  201POPC   C3B 5541   5.806   3.132   7.718
  201POPC   C4B 5542   5.612   3.092   7.294
  202POPC   NC3 5543  41.061  10.207   9.550
  202POPC   PO4 5544  40.842  10.802   9.518
  202POPC   GL1 5545  40.840  10.784   9.083
  202POPC   GL2 5546  40.948  10.450   9.108
  202POPC   C1A 5547  40.631  10.562   8.712
  202POPC   D2A 5548  40.364  10.541   8.325
  202POPC   C3A 5549  40.612  10.522   7.941
  202POPC   C4A 5550  41.045  10.475   7.766
  202POPC   C1B 5551  41.037  10.226   8.703
  202POPC   C2B 5552  40.810  10.219   8.316
  202POPC   C3B 5553  40.845  10.035   7.907
  202POPC   C4B 5554  40.945  10.043   7.421
  203POPC   NC3 5555  34.653  24.632   9.550
  203POPC   PO4 5556  34.217  24.171   9.537
  203POPC   GL1 5557  34.343  24.424   9.179
  203POPC   GL2 5558  34.697  24.369   9.099
  203POPC   C1A 5559  34.281  24.630   8.771
  203POPC   D2A 5560  34.423  24.540   8.341
  203POPC   C3A 5561  34.324  24.653   7.907
  203POPC   C4A 5562  34.323  24.417   7.495
  203POPC   C1B 5563  34.781  24.762   8.915
  203POPC   C2B 5564  34.740  24.904   8.527
  203POPC   C3B 5565  34.883  24.706   8.163
  203POPC   C4B 5566  34.809  24.641   7.736
  204POPC   NC3 5567  24.998  20.885   9.436
  204POPC   PO4 5568  25.558  20.494   9.614
  204POPC   GL1 5569  25.265  20.493   9.177
  204POPC   GL2 5570  25.425  20.322   9.002
  204POPC   C1A 5571  25.293  20.711   8.716
  204POPC   D2A 5572  25.628  20.885   8.444
  204POPC   C3A 5573  25.568  20.747   8.028
  204POPC   C4A 5574  25.137  20.643   7.879
  204POPC   C1B 5575  25.423  20.193   8.625
  204POPC   C2B 5576  25.321  20.339   8.260
  204POPC   C3B 5577  25.464  20.239   7.885
  204POPC   C4B 5578  25.522  20.498   7.550
  205POPC   NC3 5579  10.124  40.566   9.491
  205POPC   PO4 5580   9.513  40.856   9.324
  205POPC   GL1 5581   9.749  40.626   9.094
  205POPC   GL2 5582  10.006  40.844   9.061
  205POPC   C1A 5583   9.901  40.517   8.687
  205POPC   D2A 5584  10.066  40.608   8.327
  205POPC   C3A 5585   9.722  40.653   8.085
  205POPC   C4A 5586   9.504  40.544   7.729
  205POPC   C1B 5587   9.764  40.998   8.739
  205POPC   C2B 5588   9.925  41.118   8.372
  205POPC   C3B 5589  10.074  41.017   8.001
  205POPC   C4B 5590   9.844  40.897   7.607
  206POPC   NC3 5591  28.852  30.969   9.543
  206POPC   PO4 5592  29.508  30.788   9.723
  206POPC   GL1 5593  29.319  31.007   9.316
  206POPC   GL2 5594  29.160  30.716   9.223
  206POPC   C1A 5595  29.037  31.043   8.864
  206POPC   D2A 5596  28.874  30.846   8.448
  206POPC   C3A 5597  29.008  30.671   8.057
  206POPC   C4A 5598  29.122  30.829   7.669
  206POPC   C1B 5599  29.487  30.842   8.865
  206POPC   C2B 5600  29.430  30.800   8.431
  206POPC   C3B 5601  29.455  30.996   8.053
  206POPC   C4B 5602  29.629  30.922   7.663
  207POPC   NC3 5603  22.550  33.504   9.335
  207POPC   PO4 5604  23.119  33.400   9.180
  207POPC   GL1 5605  22.855  33.805   9.054
  207POPC   GL2 5606  22.801  34.197   9.125
  207POPC   C1A 5607  22.980  33.843   8.649
  207POPC   D2A 5608  23.223  33.904   8.310
  207POPC   C3A 5609  23.141  33.695   7.933
  207POPC   C4A 5610  23.007  33.837   7.527
  207POPC   C1B 5611  22.577  34.131   8.727
  207POPC   C2B 5612  22.637  33.970   8.303
  207POPC   C3B 5613  22.834  34.109   7.951
  207POPC   C4B 5614  22.581  34.093   7.582
  208POPC   NC3 5615  10.554  16.528   9.454
  208POPC   PO4 5616  10.317  16.975   9.791
  208POPC   GL1 5617  10.591  16.934   9.176
  208POPC   GL2 5618  10.777  16.600   9.023
  208POPC   C1A 5619  10.419  16.798   8.729
  208POPC   D2A 5620  10.404  16.563   8.360
  208POPC   C3A 5621  10.481  16.823   8.012
  208POPC   C4A 5622  10.666  16.776   7.586
  208POPC   C1B 5623  10.872  16.497   8.597
  208POPC   C2B 5624  10.839  16.454   8.129
  208POPC   C3B 5625  11.018  16.410   7.731
  208POPC   C4B 5626  10.788  16.317   7.358
  209POPC   NC3 5627   3.949  42.444   9.670
  209POPC   PO4 5628   4.595  42.205   9.744
  209POPC   GL1 5629   4.398  42.393   9.346
  209POPC   GL2 5630   4.440  42.110   9.142
  209POPC   C1A 5631   4.437  42.553   8.877
  209POPC   D2A 5632   4.388  42.349   8.434
  209POPC   C3A 5633   4.078  42.466   8.104
  209POPC   C4A 5634   4.299  42.471   7.697
  209POPC   C1B 5635   4.487  41.949   8.722
  209POPC   C2B 5636   4.627  41.909   8.279
  209POPC   C3B 5637   4.714  42.223   7.912
  209POPC   C4B 5638   4.690  42.182   7.446
  210POPC   NC3 5639   2.882  13.846   9.537
  210POPC   PO4 5640   2.311  13.779   9.205
  210POPC   GL1 5641   2.762  13.801   9.053
  210POPC   GL2 5642   2.975  13.486   9.151
  210POPC   C1A 5643   2.917  13.723   8.664
  210POPC   D2A 5644   2.681  13.518   8.392
  210POPC   C3A 5645   2.589  13.805   8.112
  210POPC   C4A 5646   2.490  13.831   7.725
  210POPC   C1B 5647   3.043  13.247   8.745
  210POPC   C2B 5648   3.094  13.267   8.271
  210POPC   C3B 5649   2.799  13.351   7.883
  210POPC   C4B 5650   2.941  13.232   7.420
  211POPC   NC3 5651  38.015  19.263   9.279
  211POPC   PO4 5652  37.505  19.506   9.652
  211POPC   GL1 5653  37.665  19.667   9.238
  211POPC   GL2 5654  37.731  20.015   9.334
  211POPC   C1A 5655  37.650  19.666   8.766
  211POPC   D2A 5656  37.400  19.705   8.351
  211POPC   C3A 5657  37.654  19.703   7.980
  211POPC   C4A 5658  37.852  19.697   7.544
  211POPC   C1B 5659  37.739  20.154   8.927
  211POPC   C2B 5660  37.598  20.131   8.534
  211POPC   C3B 5661  37.532  20.201   8.131
  211POPC   C4B 5662  37.698  20.149   7.739
  212POPC   NC3 5663   4.885  29.685   9.437
  212POPC   PO4 5664   5.534  29.819   9.332
  212POPC   GL1 5665   5.229  29.992   9.108
  212POPC   GL2 5666   4.857  30.025   9.064
  212POPC   C1A 5667   5.238  30.101   8.695
  212POPC   D2A 5668   4.959  30.035   8.339
  212POPC   C3A 5669   5.235  30.010   7.958
  212POPC   C4A 5670   5.382  30.015   7.503
  212POPC   C1B 5671   4.941  29.673   8.777
  212POPC   C2B 5672   4.841  29.496   8.366
  212POPC   C3B 5673   4.805  29.702   7.958
  212POPC   C4B 5674   4.544  29.655   7.603
  213POPC   NC3 5675  27.879  27.171   9.508
  213POPC   PO4 5676  27.315  26.740   9.394
  213POPC   GL1 5677  27.551  26.811   9.022
  213POPC   GL2 5678  27.902  26.847   9.085
  213POPC   C1A 5679  27.497  27.011   8.617
  213POPC   D2A 5680  27.518  27.066   8.175
  213POPC   C3A 5681  27.514  26.668   7.916
  213POPC   C4A 5682  27.347  26.590   7.478
  213POPC   C1B 5683  27.899  27.246   8.864
  213POPC   C2B 5684  27.976  27.310   8.451
  213POPC   C3B 5685  28.007  27.204   8.039
  213POPC   C4B 5686  27.754  27.062   7.721
  214POPC   NC3 5687  41.940  17.835   9.549
  214POPC   PO4 5688  42.247  17.223   9.495
  214POPC   GL1 5689  42.126  17.344   9.132
  214POPC   GL2 5690  42.238  17.674   9.172
  214POPC   C1A 5691  42.385  17.300   8.775
  214POPC   D2A 5692  42.607  17.531   8.456
  214POPC   C3A 5693  42.413  17.352   8.150
  214POPC   C4A 5694  42.284  17.364   7.770
  214POPC   C1B 5695  42.353  17.817   8.783
  214POPC   C2B 5696  42.148  17.744   8.383
  214POPC   C3B 5697  42.253  17.826   7.977
  214POPC   C4B 5698  42.067  17.849   7.552
  215POPC   NC3 5699  14.963  10.806   9.379
  215POPC   PO4 5700  14.451  10.318   9.570
  215POPC   GL1 5701  14.433  10.493   9.177
  215POPC   GL2 5702  14.308  10.804   9.139
  215POPC   C1A 5703  14.233  10.398   8.785
  215POPC   D2A 5704  14.273  10.628   8.416
  215POPC   C3A 5705  14.504  10.443   8.077
  215POPC   C4A 5706  14.243  10.232   7.788
  215POPC   C1B 5707  14.634  10.783   8.778
  215POPC   C2B 5708  14.631  10.978   8.354
  215POPC   C3B 5709  14.388  10.918   7.986
  215POPC   C4B 5710  14.496  10.693   7.624
  216POPC   NC3 5711   5.676  12.214   9.566
  216POPC   PO4 5712   6.213  11.848   9.718
  216POPC   GL1 5713   6.075  11.944   9.297
  216POPC   GL2 5714   6.135  12.265   9.270
  216POPC   C1A 5715   5.857  12.032   8.894
  216POPC   D2A 5716   5.871  11.815   8.476
  216POPC   C3A 5717   5.779  11.973   8.084
  216POPC   C4A 5718   5.666  11.914   7.670
  216POPC   C1B 5719   6.167  12.445   8.851
  216POPC   C2B 5720   5.963  12.333   8.461
  216POPC   C3B 5721   6.046  12.407   8.050
  216POPC   C4B 5722   6.058  12.471   7.622
  217POPC   NC3 5723  44.165   4.946   9.457
  217POPC   PO4 5724  43.837   5.562   9.469
  217POPC   GL1 5725  43.825   5.264   9.139
  217POPC   GL2 5726  43.859   4.901   9.049
  217POPC   C1A 5727  43.968   5.309   8.717
  217POPC   D2A 5728  43.936   5.570   8.325
  217POPC   C3A 5729  43.804   5.373   7.919
  217POPC   C4A 5730  43.796   5.379   7.439
  217POPC   C1B 5731  44.144   4.848   8.717
  217POPC   C2B 5732  44.069   4.716   8.320
  217POPC   C3B 5733  44.085   4.945   7.977
  217POPC   C4B 5734  44.175   5.125   7.627
  218POPC   NC3 5735   1.630  34.158   9.471
  218POPC   PO4 5736   2.263  33.870   9.558
  218POPC   GL1 5737   1.991  33.879   9.208
  218POPC   GL2 5738   1.779  33.594   9.101
  218POPC   C1A 5739   2.166  33.830   8.815
  218POPC   D2A 5740   2.250  34.062   8.487
  218POPC   C3A 5741   2.191  33.908   8.110
  218POPC   C4A 5742   1.952  33.921   7.787
  218POPC   C1B 5743   1.672  33.859   8.782
  218POPC   C2B 5744   1.828  33.751   8.409
  218POPC   C3B 5745   1.724  33.491   8.092
  218POPC   C4B 5746   1.541  33.638   7.754
  219POPC   NC3 5747  43.455  18.349   9.422
  219POPC   PO4 5748  43.982  18.615   9.562
  219POPC   GL1 5749  44.000  18.336   9.197
  219POPC   GL2 5750  43.717  18.122   9.056
  219POPC   C1A 5751  44.186  18.457   8.812
  219POPC   D2A 5752  44.123  18.599   8.412
  219POPC   C3A 5753  43.881  18.339   8.151
  219POPC   C4A 5754  43.900  18.176   7.759
  219POPC   C1B 5755  43.973  17.912   8.757
  219POPC   C2B 5756  43.997  17.846   8.320
  219POPC   C3B 5757  44.288  17.994   8.014
  219POPC   C4B 5758  44.368  17.815   7.617
  220POPC   NC3 5759  21.552  18.892   9.490
  220POPC   PO4 5760  20.969  19.124   9.470
  220POPC   GL1 5761  21.230  19.276   9.122
  220POPC   GL2 5762  21.380  18.945   9.020
  220POPC   C1A 5763  21.342  19.286   8.656
  220POPC   D2A 5764  21.303  18.885   8.406
  220POPC   C3A 5765  21.235  18.911   7.966
  220POPC   C4A 5766  21.175  19.034   7.550
  220POPC   C1B 5767  21.797  19.127   8.831
  220POPC   C2B 5768  21.739  19.149   8.384
  220POPC   C3B 5769  21.732  18.854   8.080
  220POPC   C4B 5770  21.648  19.174   7.773
  221POPC   NC3 5771   5.154  31.599   9.587
  221POPC   PO4 5772   4.761  31.142   9.616
  221POPC   GL1 5773   4.967  31.376   9.188
  221POPC   GL2 5774   5.370  31.378   9.162
  221POPC   C1A 5775   5.050  31.372   8.732
  221POPC   D2A 5776   5.262  31.520   8.365
  221POPC   C3A 5777   5.082  31.429   7.995
  221POPC   C4A 5778   4.843  31.691   7.759
  221POPC   C1B 5779   5.554  31.310   8.729
  221POPC   C2B 5780   5.771  31.398   8.336
  221POPC   C3B 5781   5.602  31.371   7.915
  221POPC   C4B 5782   5.407  31.544   7.513
  222POPC   NC3 5783   6.928  24.199   9.301
  222POPC   PO4 5784   6.448  24.597   9.391
  222POPC   GL1 5785   6.565  24.484   9.015
  222POPC   GL2 5786   6.904  24.574   8.929
  222POPC   C1A 5787   6.522  24.629   8.599
  222POPC   D2A 5788   6.858  24.540   8.293
  222POPC   C3A 5789   6.714  24.450   7.892
  222POPC   C4A 5790   6.490  24.712   7.617
  222POPC   C1B 5791   6.794  24.194   8.669
  222POPC   C2B 5792   6.867  23.983   8.292
  222POPC   C3B 5793   6.750  23.908   7.888
  222POPC   C4B 5794   6.847  23.965   7.457
  223POPC   NC3 5795  29.952  12.423   9.315
  223POPC   PO4 5796  30.377  12.069   9.698
  223POPC   GL1 5797  30.330  12.154   9.150
  223POPC   GL2 5798  29.954  12.165   8.909
  223POPC   C1A 5799  30.367  12.162   8.655
  223POPC   D2A 5800  29.993  12.003   8.399
  223POPC   C3A 5801  29.898  12.175   7.981
  223POPC   C4A 5802  30.110  12.022   7.635
  223POPC   C1B 5803  29.561  12.157   8.701
  223POPC   C2B 5804  29.375  12.135   8.319
  223POPC   C3B 5805  29.401  11.758   8.090
  223POPC   C4B 5806  29.675  11.731   7.745
  224POPC   NC3 5807  19.155   9.609   9.477
  224POPC   PO4 5808  18.476   9.932   9.430
  224POPC   GL1 5809  18.764   9.615   9.146
  224POPC   GL2 5810  19.132   9.755   9.006
  224POPC   C1A 5811  18.925   9.411   8.726
  224POPC   D2A 5812  19.263   9.524   8.413
  224POPC   C3A 5813  19.115   9.546   7.975
  224POPC   C4A 5814  18.908   9.582   7.556
  224POPC   C1B 5815  19.171   9.993   8.623
  224POPC   C2B 5816  19.228  10.014   8.165
  224POPC   C3B 5817  19.074  10.158   7.761
  224POPC   C4B 5818  18.747  10.051   7.446
  225POPC   NC3 5819  27.827  31.750   9.369
  225POPC   PO4 5820  28.459  31.495   9.542
  225POPC   GL1 5821  28.287  31.552   9.149
  225POPC   GL2 5822  27.979  31.390   9.037
  225POPC   C1A 5823  28.284  31.787   8.764
  225POPC   D2A 5824  28.082  31.839   8.358
  225POPC   C3A 5825  28.370  31.782   8.025
  225POPC   C4A 5826  28.403  31.693   7.603
  225POPC   C1B 5827  28.118  31.195   8.685
  225POPC   C2B 5828  28.368  31.167   8.306
  225POPC   C3B 5829  28.238  31.300   7.897
  225POPC   C4B 5830  27.914  31.200   7.556
  226POPC   NC3 5831  25.740  10.203   9.484
  226POPC   PO4 5832  26.443  10.123   9.720
  226POPC   GL1 5833  26.216  10.335   9.252
  226POPC   GL2 5834  26.073  10.705   9.143
  226POPC   C1A 5835  26.127  10.396   8.750
  226POPC   D2A 5836  26.165  10.381   8.276
  226POPC   C3A 5837  25.918  10.479   7.894
  226POPC   C4A 5838  25.546  10.413   7.678
  226POPC   C1B 5839  26.020  10.906   8.676
  226POPC   C2B 5840  25.957  10.911   8.173
  226POPC   C3B 5841  26.211  10.878   7.788
  226POPC   C4B 5842  26.239  10.491   7.478
  227POPC   NC3 5843  14.168  41.050   9.508
  227POPC   PO4 5844  14.350  40.339   9.400
  227POPC   GL1 5845  14.442  40.758   9.193
  227POPC   GL2 5846  14.115  40.837   9.039
  227POPC   C1A 5847  14.560  41.020   8.833
  227POPC   D2A 5848  14.493  40.770   8.490
  227POPC   C3A 5849  14.535  40.854   8.066
  227POPC   C4A 5850  14.668  40.581   7.749
  227POPC   C1B 5851  14.087  40.484   8.733
  227POPC   C2B 5852  14.169  40.422   8.279
  227POPC   C3B 5853  14.088  40.677   7.917
  227POPC   C4B 5854  14.285  40.847   7.545
  228POPC   NC3 5855   8.489   6.934   9.488
  228POPC   PO4 5856   8.842   7.516   9.608
  228POPC   GL1 5857   8.941   7.502   9.153
  228POPC   GL2 5858   9.199   7.723   9.079
  228POPC   C1A 5859   9.054   7.312   8.714
  228POPC   D2A 5860   9.124   7.245   8.227
  228POPC   C3A 5861   9.042   7.277   7.749
  228POPC   C4A 5862   9.330   7.243   7.349
  228POPC   C1B 5863   8.875   7.870   8.810
  228POPC   C2B 5864   8.964   7.733   8.413
  228POPC   C3B 5865   8.971   7.746   7.995
  228POPC   C4B 5866   8.770   8.043   7.746
  229POPC   NC3 5867   6.560  16.202   9.566
  229POPC   PO4 5868   6.948  15.733   9.796
  229POPC   GL1 5869   6.964  15.982   9.345
  229POPC   GL2 5870   6.617  16.055   9.077
  229POPC   C1A 5871   7.088  16.061   8.907
  229POPC   D2A 5872   6.830  15.893   8.579
  229POPC   C3A 5873   6.833  16.075   8.173
  229POPC   C4A 5874   6.589  15.932   7.826
  229POPC   C1B 5875   6.596  16.366   8.661
  229POPC   C2B 5876   6.469  16.483   8.215
  229POPC   C3B 5877   6.233  16.337   7.847
  229POPC   C4B 5878   6.084  16.484   7.421
  230POPC   NC3 5879   3.056  19.219   9.477
  230POPC   PO4 5880   2.594  18.800   9.357
  230POPC   GL1 5881   2.943  18.973   9.051
  230POPC   GL2 5882   2.877  19.329   9.002
  230POPC   C1A 5883   3.147  19.109   8.635
  230POPC   D2A 5884   2.972  19.017   8.209
  230POPC   C3A 5885   3.089  19.285   7.844
  230POPC   C4A 5886   2.908  19.626   7.596
  230POPC   C1B 5887   2.638  19.096   8.658
  230POPC   C2B 5888   2.359  19.174   8.324
  230POPC   C3B 5889   2.478  19.143   7.908
  230POPC   C4B 5890   2.264  18.964   7.563
  231POPC   NC3 5891  36.562  31.338   9.672
  231POPC   PO4 5892  37.107  31.750   9.478
  231POPC   GL1 5893  36.956  31.568   9.104
  231POPC   GL2 5894  36.597  31.489   9.165
  231POPC   C1A 5895  37.001  31.515   8.653
  231POPC   D2A 5896  36.776  31.465   8.271
  231POPC   C3A 5897  37.046  31.419   7.934
  231POPC   C4A 5898  37.227  31.059   7.790
  231POPC   C1B 5899  36.635  31.212   8.795
  231POPC   C2B 5900  36.613  30.993   8.413
  231POPC   C3B 5901  36.565  31.141   7.953
  231POPC   C4B 5902  36.591  31.570   7.772
  232POPC   NC3 5903  14.107   1.243   9.620
  232POPC   PO4 5904  14.785   1.165   9.673
  232POPC   GL1 5905  14.652   1.238   9.216
  232POPC   GL2 5906  14.310   1.237   9.160
  232POPC   C1A 5907  14.585   1.416   8.783
  232POPC   D2A 5908  14.675   1.557   8.384
  232POPC   C3A 5909  14.630   1.222   8.057
  232POPC   C4A 5910  14.547   1.280   7.645
  232POPC   C1B 5911  14.124   1.120   8.776
  232POPC   C2B 5912  14.212   1.276   8.374
  232POPC   C3B 5913  14.141   1.081   7.945
  232POPC   C4B 5914  14.094   1.183   7.481
  233POPC   NC3 5915  31.937  44.608   9.759
  233POPC   PO4 5916  32.240   0.092   9.805
  233POPC   GL1 5917  32.247  44.765   9.367
  233POPC   GL2 5918  32.052  44.494   9.256
  233POPC   C1A 5919  32.124  44.872   8.877
  233POPC   D2A 5920  32.055  44.723   8.462
  233POPC   C3A 5921  32.254  44.767   8.063
  233POPC   C4A 5922  32.162  44.491   7.689
  233POPC   C1B 5923  32.420  44.460   8.918
  233POPC   C2B 5924  32.523  44.534   8.454
  233POPC   C3B 5925  32.505  44.333   8.059
  233POPC   C4B 5926  32.552  44.096   7.702
  234POPC   NC3 5927   2.991  16.289   9.590
  234POPC   PO4 5928   2.511  16.707   9.380
  234POPC   GL1 5929   2.933  16.802   9.244
  234POPC   GL2 5930   2.953  16.487   9.121
  234POPC   C1A 5931   3.033  16.886   8.804
  234POPC   D2A 5932   2.936  16.649   8.402
  234POPC   C3A 5933   2.812  16.828   8.014
  234POPC   C4A 5934   2.460  17.077   7.897
  234POPC   C1B 5935   3.199  16.403   8.770
  234POPC   C2B 5936   3.371  16.378   8.349
  234POPC   C3B 5937   3.092  16.351   7.999
  234POPC   C4B 5938   2.623  16.343   7.902
  235POPC   NC3 5939  16.062  17.726   9.442
  235POPC   PO4 5940  15.748  17.039   9.436
  235POPC   GL1 5941  15.967  17.293   9.180
  235POPC   GL2 5942  15.730  17.547   9.075
  235POPC   C1A 5943  16.175  17.395   8.811
  235POPC   D2A 5944  15.954  17.301   8.411
  235POPC   C3A 5945  16.064  17.431   8.003
  235POPC   C4A 5946  15.950  17.367   7.557
  235POPC   C1B 5947  15.805  17.728   8.686
  235POPC   C2B 5948  15.632  17.709   8.281
  235POPC   C3B 5949  15.623  17.729   7.864
  235POPC   C4B 5950  15.780  18.093   7.699
  236POPC   NC3 5951  31.051  11.065   9.500
  236POPC   PO4 5952  31.647  11.126   9.621
  236POPC   GL1 5953  31.487  11.013   9.190
  236POPC   GL2 5954  31.498  11.355   9.106
  236POPC   C1A 5955  31.245  11.029   8.765
  236POPC   D2A 5956  31.434  10.969   8.338
  236POPC   C3A 5957  31.200  10.884   7.946
  236POPC   C4A 5958  31.016  11.196   7.664
  236POPC   C1B 5959  31.695  11.302   8.713
  236POPC   C2B 5960  31.624  11.474   8.319
  236POPC   C3B 5961  31.360  11.378   8.008
  236POPC   C4B 5962  31.608  11.159   7.704
  237POPC   NC3 5963   4.067   0.661   9.403
  237POPC   PO4 5964   4.694   0.461   9.477
  237POPC   GL1 5965   4.520   0.456   9.082
  237POPC   GL2 5966   4.231   0.298   9.088
  237POPC   C1A 5967   4.480   0.246   8.651
  237POPC   D2A 5968   4.229   0.380   8.297
  237POPC   C3A 5969   4.446   0.614   8.006
  237POPC   C4A 5970   4.806   0.821   7.866
  237POPC   C1B 5971   4.007   0.534   8.749
  237POPC   C2B 5972   3.741   0.596   8.356
  237POPC   C3B 5973   3.893   0.591   7.950
  237POPC   C4B 5974   4.144   0.634   7.584
  238POPC   NC3 5975  41.626  21.395  10.036
  238POPC   PO4 5976  41.247  21.578   9.558
  238POPC   GL1 5977  41.306  21.430   9.072
  238POPC   GL2 5978  41.644  21.331   8.914
  238POPC   C1A 5979  41.285  21.498   8.593
  238POPC   D2A 5980  41.425  21.521   8.151
  238POPC   C3A 5981  41.193  21.377   7.763
  238POPC   C4A 5982  41.386  21.215   7.406
  238POPC   C1B 5983  41.732  21.219   8.453
  238POPC   C2B 5984  41.911  20.909   8.153
  238POPC   C3B 5985  41.966  20.981   7.670
  238POPC   C4B 5986  41.890  21.283   7.316
  239POPC   NC3 5987  37.748  14.016   9.625
  239POPC   PO4 5988  37.410  14.569   9.565
  239POPC   GL1 5989  37.645  14.564   9.221
  239POPC   GL2 5990  37.654  14.234   9.183
  239POPC   C1A 5991  37.767  14.695   8.817
  239POPC   D2A 5992  37.923  14.512   8.462
  239POPC   C3A 5993  37.860  14.764   8.144
  239POPC   C4A 5994  37.830  14.701   7.744
  239POPC   C1B 5995  37.752  14.125   8.796
  239POPC   C2B 5996  37.564  14.125   8.410
  239POPC   C3B 5997  37.740  14.256   8.055
  239POPC   C4B 5998  37.903  14.124   7.707
  240POPC   NC3 5999  36.718   4.828   9.718
  240POPC   PO4 6000  37.171   5.280   9.681
  240POPC   GL1 6001  36.975   5.089   9.275
  240POPC   GL2 6002  36.871   5.403   9.153
  240POPC   C1A 6003  36.901   4.897   8.807
  240POPC   D2A 6004  36.853   5.065   8.343
  240POPC   C3A 6005  36.910   4.838   7.918
  240POPC   C4A 6006  37.193   4.861   7.538
  240POPC   C1B 6007  36.678   5.365   8.767
  240POPC   C2B 6008  36.429   5.373   8.397
  240POPC   C3B 6009  36.511   5.428   7.976
  240POPC   C4B 6010  36.570   5.154   7.661
  241POPC   NC3 6011  41.407  35.618   9.384
  241POPC   PO4 6012  41.582  34.996   9.516
  241POPC   GL1 6013  41.595  35.168   9.100
  241POPC   GL2 6014  41.807  35.435   9.065
  241POPC   C1A 6015  41.431  35.364   8.710
  241POPC   D2A 6016  41.480  35.470   8.270
  241POPC   C3A 6017  41.298  35.249   7.880
  241POPC   C4A 6018  41.339  35.452   7.465
  241POPC   C1B 6019  41.969  35.322   8.694
  241POPC   C2B 6020  42.048  35.430   8.273
  241POPC   C3B 6021  41.813  35.191   7.993
  241POPC   C4B 6022  41.730  35.181   7.596
  242POPC   NC3 6023  43.793  26.427   9.478
  242POPC   PO4 6024  43.995  25.760   9.623
  242POPC   GL1 6025  44.094  25.825   9.151
  242POPC   GL2 6026  43.833  26.100   9.070
  242POPC   C1A 6027  43.925  25.773   8.706
  242POPC   D2A 6028  43.825  26.082   8.390
  242POPC   C3A 6029  43.764  25.969   7.977
  242POPC   C4A 6030  44.067  26.206   7.753
  242POPC   C1B 6031  43.605  26.401   8.785
  242POPC   C2B 6032  43.665  26.584   8.339
  242POPC   C3B 6033  43.637  26.436   7.879
  242POPC   C4B 6034  43.696  26.295   7.430
  243POPC   NC3 6035  19.170   2.633   9.735
  243POPC   PO4 6036  18.820   3.027   9.437
  243POPC   GL1 6037  18.970   2.848   9.052
  243POPC   GL2 6038  19.013   2.486   9.060
  243POPC   C1A 6039  18.982   3.042   8.643
  243POPC   D2A 6040  18.766   3.175   8.281
  243POPC   C3A 6041  18.955   3.006   7.931
  243POPC   C4A 6042  18.849   2.749   7.593
  243POPC   C1B 6043  18.978   2.525   8.646
  243POPC   C2B 6044  18.808   2.653   8.288
  243POPC   C3B 6045  19.002   2.455   7.974
  243POPC   C4B 6046  19.351   2.409   7.749
  244POPC   NC3 6047  18.112   0.842   9.517
  244POPC   PO4 6048  18.536   1.316   9.532
  244POPC   GL1 6049  18.273   1.192   9.204
  244POPC   GL2 6050  18.540   1.221   9.001
  244POPC   C1A 6051  18.051   1.081   8.831
  244POPC   D2A 6052  18.219   1.160   8.434
  244POPC   C3A 6053  18.134   1.018   8.043
  244POPC   C4A 6054  18.333   0.986   7.642
  244POPC   C1B 6055  18.667   0.995   8.656
  244POPC   C2B 6056  18.642   0.962   8.211
  244POPC   C3B 6057  18.650   1.276   7.910
  244POPC   C4B 6058  18.697   1.289   7.449
  245POPC   NC3 6059  11.854  38.632   9.292
  245POPC   PO4 6060  11.256  38.679   9.396
  245POPC   GL1 6061  11.403  38.469   9.051
  245POPC   GL2 6062  11.560  38.777   8.916
  245POPC   C1A 6063  11.177  38.232   8.709
  245POPC   D2A 6064  11.052  38.024   8.307
  245POPC   C3A 6065  11.105  38.276   7.912
  245POPC   C4A 6066  11.466  38.491   7.678
  245POPC   C1B 6067  11.134  38.758   8.726
  245POPC   C2B 6068  11.012  38.571   8.336
  245POPC   C3B 6069  11.160  38.773   7.980
  245POPC   C4B 6070  11.247  38.971   7.639
  246POPC   NC3 6071  40.578  42.847   9.453
  246POPC   PO4 6072  39.921  42.381   9.512
  246POPC   GL1 6073  40.132  42.530   9.198
  246POPC   GL2 6074  40.252  42.201   9.099
  246POPC   C1A 6075  40.148  42.593   8.763
  246POPC   D2A 6076  39.835  42.515   8.472
  246POPC   C3A 6077  39.965  42.544   8.045
  246POPC   C4A 6078  40.242  42.586   7.696
  246POPC   C1B 6079  39.875  42.184   8.865
  246POPC   C2B 6080  39.827  42.024   8.458
  246POPC   C3B 6081  39.950  41.979   8.043
  246POPC   C4B 6082  39.850  42.212   7.680
  247POPC   NC3 6083  38.796  35.120   9.546
  247POPC   PO4 6084  39.349  35.534   9.505
  247POPC   GL1 6085  39.381  35.369   9.136
  247POPC   GL2 6086  39.232  35.642   8.975
  247POPC   C1A 6087  39.575  35.341   8.713
  247POPC   D2A 6088  39.490  35.505   8.343
  247POPC   C3A 6089  39.293  35.316   8.000
  247POPC   C4A 6090  39.014  35.581   7.827
  247POPC   C1B 6091  39.081  35.268   8.767
  247POPC   C2B 6092  39.171  35.039   8.431
  247POPC   C3B 6093  38.901  34.994   8.101
  247POPC   C4B 6094  38.798  35.108   7.708
  248POPC   NC3 6095   5.931  13.763   9.722
  248POPC   PO4 6096   5.455  13.352   9.493
  248POPC   GL1 6097   5.819  13.308   9.210
  248POPC   GL2 6098   5.999  13.649   9.215
  248POPC   C1A 6099   5.850  13.408   8.754
  248POPC   D2A 6100   5.699  13.761   8.479
  248POPC   C3A 6101   5.504  13.643   8.097
  248POPC   C4A 6102   5.605  13.654   7.687
  248POPC   C1B 6103   6.079  13.864   8.823
  248POPC   C2B 6104   6.205  13.695   8.414
  248POPC   C3B 6105   6.043  13.686   7.980
  248POPC   C4B 6106   6.055  13.945   7.598
  249POPC   NC3 6107  38.165   9.157   9.429
  249POPC   PO4 6108  37.414   9.237   9.552
  249POPC   GL1 6109  37.639   9.115   9.193
  249POPC   GL2 6110  37.870   9.301   9.069
  249POPC   C1A 6111  37.597   8.993   8.761
  249POPC   D2A 6112  37.305   8.810   8.532
  249POPC   C3A 6113  37.321   8.890   8.111
  249POPC   C4A 6114  37.628   8.964   7.813
  249POPC   C1B 6115  38.002   9.364   8.672
  249POPC   C2B 6116  37.864   9.155   8.292
  249POPC   C3B 6117  38.086   9.124   7.914
  249POPC   C4B 6118  37.983   9.153   7.457
  250POPC   NC3 6119  28.404  42.032   9.428
  250POPC   PO4 6120  28.655  41.425   9.523
  250POPC   GL1 6121  28.661  41.572   9.115
  250POPC   GL2 6122  28.784  41.903   9.110
  250POPC   C1A 6123  28.317  41.513   8.805
  250POPC   D2A 6124  28.344  41.237   8.443
  250POPC   C3A 6125  28.554  41.405   8.103
  250POPC   C4A 6126  28.228  41.540   7.846
  250POPC   C1B 6127  28.564  41.978   8.760
  250POPC   C2B 6128  28.384  41.834   8.382
  250POPC   C3B 6129  28.512  41.937   7.975
  250POPC   C4B 6130  28.680  41.673   7.665
  251POPC   NC3 6131  26.308  13.959   9.369
  251POPC   PO4 6132  26.331  13.317   9.487
  251POPC   GL1 6133  26.209  13.360   9.058
  251POPC   GL2 6134  25.892  13.177   8.987
  251POPC   C1A 6135  26.344  13.531   8.668
  251POPC   D2A 6136  26.171  13.615   8.264
  251POPC   C3A 6137  26.386  13.794   7.922
  251POPC   C4A 6138  26.207  13.427   7.747
  251POPC   C1B 6139  25.834  13.408   8.640
  251POPC   C2B 6140  25.570  13.570   8.342
  251POPC   C3B 6141  25.707  13.510   7.926
  251POPC   C4B 6142  25.744  13.883   7.734
  252POPC   NC3 6143  19.569  31.712   9.419
  252POPC   PO4 6144  19.872  31.065   9.481
  252POPC   GL1 6145  19.701  31.237   9.151
  252POPC   GL2 6146  19.961  31.506   9.158
  252POPC   C1A 6147  19.610  31.438   8.761
  252POPC   D2A 6148  19.863  31.576   8.407
  252POPC   C3A 6149  19.761  31.468   8.006
  252POPC   C4A 6150  19.886  31.731   7.698
  252POPC   C1B 6151  20.207  31.464   8.804
  252POPC   C2B 6152  20.290  31.286   8.410
  252POPC   C3B 6153  20.272  31.150   8.014
  252POPC   C4B 6154  20.212  31.321   7.659
  253POPC   NC3 6155  25.460  27.306   9.246
  253POPC   PO4 6156  24.862  27.482   9.579
  253POPC   GL1 6157  25.093  27.666   9.227
  253POPC   GL2 6158  25.449  27.796   9.154
  253POPC   C1A 6159  25.091  27.622   8.791
  253POPC   D2A 6160  25.425  27.423   8.514
  253POPC   C3A 6161  25.270  27.418   8.092
  253POPC   C4A 6162  25.231  27.689   7.753
  253POPC   C1B 6163  25.476  27.928   8.702
  253POPC   C2B 6164  25.510  27.867   8.267
  253POPC   C3B 6165  25.533  28.079   7.889
  253POPC   C4B 6166  25.440  28.060   7.467
  254POPC   NC3 6167   7.472  14.087   9.540
  254POPC   PO4 6168   7.835  14.694   9.476
  254POPC   GL1 6169   7.651  14.419   9.169
  254POPC   GL2 6170   7.312  14.361   9.121
  254POPC   C1A 6171   7.637  14.450   8.730
  254POPC   D2A 6172   7.807  14.650   8.393
  254POPC   C3A 6173   7.635  14.416   8.066
  254POPC   C4A 6174   7.749  14.235   7.688
  254POPC   C1B 6175   6.997  14.317   8.812
  254POPC   C2B 6176   7.009  14.185   8.433
  254POPC   C3B 6177   7.164  14.211   8.030
  254POPC   C4B 6178   7.016  14.331   7.633
  255POPC   NC3 6179  37.876  21.649   9.475
  255POPC   PO4 6180  37.879  22.341   9.567
  255POPC   GL1 6181  37.678  22.047   9.226
  255POPC   GL2 6182  37.962  21.884   9.046
  255POPC   C1A 6183  37.525  21.930   8.781
  255POPC   D2A 6184  37.816  22.001   8.402
  255POPC   C3A 6185  37.652  21.947   7.976
  255POPC   C4A 6186  37.600  21.907   7.526
  255POPC   C1B 6187  37.898  22.272   8.836
  255POPC   C2B 6188  37.764  22.516   8.500
  255POPC   C3B 6189  37.871  22.420   8.075
  255POPC   C4B 6190  37.557  22.430   7.727
  256POPC   NC3 6191  26.557  41.359   9.551
  256POPC   PO4 6192  25.888  41.431   9.587
  256POPC   GL1 6193  26.110  41.339   9.254
  256POPC   GL2 6194  26.200  41.608   9.124
  256POPC   C1A 6195  25.925  41.219   8.882
  256POPC   D2A 6196  25.713  41.343   8.515
  256POPC   C3A 6197  25.923  41.554   8.228
  256POPC   C4A 6198  25.807  41.790   7.872
  256POPC   C1B 6199  25.997  41.748   8.766
  256POPC   C2B 6200  26.268  41.902   8.455
  256POPC   C3B 6201  26.346  41.767   8.061
  256POPC   C4B 6202  26.269  41.617   7.674
  257POPC   NC3 6203  33.473  40.391   9.497
  257POPC   PO4 6204  32.853  40.149   9.543
  257POPC   GL1 6205  32.905  39.923   9.160
  257POPC   GL2 6206  32.723  40.099   8.913
  257POPC   C1A 6207  32.975  39.656   8.801
  257POPC   D2A 6208  32.856  39.807   8.402
  257POPC   C3A 6209  33.069  39.798   8.006
  257POPC   C4A 6210  32.895  39.943   7.605
  257POPC   C1B 6211  33.182  40.124   8.811
  257POPC   C2B 6212  33.297  40.093   8.421
  257POPC   C3B 6213  33.175  40.312   8.088
  257POPC   C4B 6214  33.307  40.193   7.728
  258POPC   NC3 6215  16.135  13.963   9.423
  258POPC   PO4 6216  15.854  13.386   9.381
  258POPC   GL1 6217  15.596  13.746   9.206
  258POPC   GL2 6218  15.759  14.071   9.065
  258POPC   C1A 6219  15.512  13.720   8.782
  258POPC   D2A 6220  15.668  13.896   8.439
  258POPC   C3A 6221  15.790  13.616   8.138
  258POPC   C4A 6222  15.690  13.645   7.743
  258POPC   C1B 6223  16.078  14.035   8.705
  258POPC   C2B 6224  16.108  14.019   8.218
  258POPC   C3B 6225  16.156  13.837   7.820
  258POPC   C4B 6226  16.062  13.855   7.372
  259POPC   NC3 6227   2.619  32.043   9.494
  259POPC   PO4 6228   3.110  32.515   9.398
  259POPC   GL1 6229   2.949  32.138   9.118
  259POPC   GL2 6230   2.572  32.137   9.008
  259POPC   C1A 6231   2.921  31.998   8.670
  259POPC   D2A 6232   2.727  32.260   8.340
  259POPC   C3A 6233   2.946  32.232   7.948
  259POPC   C4A 6234   2.743  32.139   7.550
  259POPC   C1B 6235   2.389  31.898   8.705
  259POPC   C2B 6236   2.490  31.756   8.311
  259POPC   C3B 6237   2.486  31.939   7.944
  259POPC   C4B 6238   2.213  32.065   7.652
  260POPC   NC3 6239  43.795   6.926   9.460
  260POPC   PO4 6240  43.854   6.295   9.700
  260POPC   GL1 6241  44.057   6.508   9.257
  260POPC   GL2 6242  44.085   6.867   9.061
  260POPC   C1A 6243  44.015   6.486   8.752
  260POPC   D2A 6244  43.592   6.403   8.546
  260POPC   C3A 6245  43.620   6.400   8.085
  260POPC   C4A 6246  43.889   6.541   7.713
  260POPC   C1B 6247  44.356   6.926   8.711
  260POPC   C2B 6248  44.362   6.729   8.320
  260POPC   C3B 6249  44.138   6.928   7.983
  260POPC   C4B 6250  44.062   7.011   7.543
  261POPC   NC3 6251  16.519  32.765   9.528
  261POPC   PO4 6252  16.717  31.990   9.471
  261POPC   GL1 6253  16.962  32.128   9.155
  261POPC   GL2 6254  16.845  32.479   9.178
  261POPC   C1A 6255  16.820  32.193   8.740
  261POPC   D2A 6256  16.960  32.115   8.357
  261POPC   C3A 6257  16.660  32.128   8.050
  261POPC   C4A 6258  16.862  32.138   7.670
  261POPC   C1B 6259  16.507  32.598   8.867
  261POPC   C2B 6260  16.359  32.372   8.503
  261POPC   C3B 6261  16.365  32.595   8.125
  261POPC   C4B 6262  16.578  32.546   7.737
  262POPC   NC3 6263   0.394  11.697   9.981
  262POPC   PO4 6264   0.447  11.218   9.533
  262POPC   GL1 6265   0.600  11.308   9.106
  262POPC   GL2 6266   0.731  11.635   9.209
  262POPC   C1A 6267   0.536  11.244   8.642
  262POPC   D2A 6268   0.317  10.902   8.383
  262POPC   C3A 6269   0.432  11.034   7.968
  262POPC   C4A 6270   0.814  11.303   7.959
  262POPC   C1B 6271   0.820  11.662   8.765
  262POPC   C2B 6272   0.618  11.712   8.348
  262POPC   C3B 6273   0.559  11.736   7.890
  262POPC   C4B 6274   0.345  11.946   7.532
  263POPC   NC3 6275  30.403  37.983   9.365
  263POPC   PO4 6276  29.787  37.708   9.548
  263POPC   GL1 6277  30.133  37.550   9.266
  263POPC   GL2 6278  30.010  37.837   9.070
  263POPC   C1A 6279  30.291  37.511   8.809
  263POPC   D2A 6280  30.007  37.711   8.476
  263POPC   C3A 6281  30.014  37.506   8.063
  263POPC   C4A 6282  30.166  37.610   7.643
  263POPC   C1B 6283  29.668  38.105   8.912
  263POPC   C2B 6284  29.657  38.175   8.487
  263POPC   C3B 6285  29.575  37.854   8.182
  263POPC   C4B 6286  29.694  37.799   7.763
  264POPC   NC3 6287  17.786  22.151   9.643
  264POPC   PO4 6288  17.102  22.210   9.563
  264POPC   GL1 6289  17.413  22.113   9.275
  264POPC   GL2 6290  17.628  22.381   9.191
  264POPC   C1A 6291  17.467  21.845   8.946
  264POPC   D2A 6292  17.486  21.800   8.509
  264POPC   C3A 6293  17.449  22.104   8.157
  264POPC   C4A 6294  17.526  21.960   7.722
  264POPC   C1B 6295  17.545  22.327   8.756
  264POPC   C2B 6296  17.609  22.608   8.419
  264POPC   C3B 6297  17.436  22.630   8.041
  264POPC   C4B 6298  17.484  22.448   7.697
  265POPC   NC3 6299  36.660  22.851   9.551
  265POPC   PO4 6300  37.390  22.774   9.436
  265POPC   GL1 6301  37.029  22.934   9.176
  265POPC   GL2 6302  36.783  22.638   9.107
  265POPC   C1A 6303  36.838  23.134   8.803
  265POPC   D2A 6304  36.614  23.138   8.417
  265POPC   C3A 6305  36.869  22.926   8.110
  265POPC   C4A 6306  36.882  22.998   7.698
  265POPC   C1B 6307  36.511  22.749   8.753
  265POPC   C2B 6308  36.500  22.637   8.307
  265POPC   C3B 6309  36.519  22.671   7.851
  265POPC   C4B 6310  36.596  22.696   7.388
  266POPC   NC3 6311   4.507  16.772   9.447
  266POPC   PO4 6312   4.192  16.164   9.494
  266POPC   GL1 6313   4.152  16.419   9.125
  266POPC   GL2 6314   4.469  16.522   8.997
  266POPC   C1A 6315   4.051  16.769   8.824
  266POPC   D2A 6316   3.936  16.959   8.408
  266POPC   C3A 6317   4.136  16.780   8.030
  266POPC   C4A 6318   4.093  16.578   7.625
  266POPC   C1B 6319   4.557  16.946   8.802
  266POPC   C2B 6320   4.574  17.101   8.362
  266POPC   C3B 6321   4.634  16.935   7.976
  266POPC   C4B 6322   4.561  16.508   7.816
  267POPC   NC3 6323  23.528   4.671   9.596
  267POPC   PO4 6324  23.452   4.022   9.406
  267POPC   GL1 6325  23.537   4.356   9.111
  267POPC   GL2 6326  23.860   4.398   9.200
  267POPC   C1A 6327  23.483   4.405   8.645
  267POPC   D2A 6328  23.529   4.377   8.189
  267POPC   C3A 6329  23.604   4.025   7.927
  267POPC   C4A 6330  23.685   4.063   7.490
  267POPC   C1B 6331  23.928   4.198   8.773
  267POPC   C2B 6332  24.066   3.981   8.376
  267POPC   C3B 6333  24.124   4.076   7.953
  267POPC   C4B 6334  23.916   4.420   7.759
  268POPC   NC3 6335   6.859   7.029   9.514
  268POPC   PO4 6336   6.691   6.333   9.498
  268POPC   GL1 6337   6.756   6.566   9.152
  268POPC   GL2 6338   6.503   6.822   9.148
  268POPC   C1A 6339   6.550   6.502   8.729
  268POPC   D2A 6340   6.348   6.567   8.351
  268POPC   C3A 6341   6.571   6.585   7.976
  268POPC   C4A 6342   6.764   6.307   7.706
  268POPC   C1B 6343   6.797   6.965   8.815
  268POPC   C2B 6344   6.895   6.875   8.379
  268POPC   C3B 6345   6.856   7.003   7.944
  268POPC   C4B 6346   6.499   7.096   7.683
  269POPC   NC3 6347  10.494   5.147   9.574
  269POPC   PO4 6348  10.106   4.658   9.295
  269POPC   GL1 6349  10.315   4.995   9.102
  269POPC   GL2 6350  10.222   5.333   9.187
  269POPC   C1A 6351  10.501   4.988   8.692
  269POPC   D2A 6352  10.749   4.909   8.298
  269POPC   C3A 6353  10.596   5.012   7.892
  269POPC   C4A 6354  10.406   5.070   7.466
  269POPC   C1B 6355  10.133   5.323   8.764
  269POPC   C2B 6356  10.308   5.263   8.313
  269POPC   C3B 6357  10.184   5.319   7.884
  269POPC   C4B 6358  10.103   5.469   7.456
  270POPC   NC3 6359   4.350   7.183   9.636
  270POPC   PO4 6360   4.623   7.777   9.707
  270POPC   GL1 6361   4.509   7.516   9.316
  270POPC   GL2 6362   4.728   7.211   9.282
  270POPC   C1A 6363   4.298   7.375   8.906
  270POPC   D2A 6364   4.271   7.649   8.527
  270POPC   C3A 6365   4.273   7.510   8.088
  270POPC   C4A 6366   4.387   7.755   7.710
  270POPC   C1B 6367   4.806   7.070   8.860
  270POPC   C2B 6368   4.602   7.190   8.473
  270POPC   C3B 6369   4.646   7.078   8.049
  270POPC   C4B 6370   4.265   7.018   7.859
  271POPC   NC3 6371  12.226   5.041   9.712
  271POPC   PO4 6372  11.587   5.087   9.524
  271POPC   GL1 6373  11.928   4.917   9.304
  271POPC   GL2 6374  12.061   5.239   9.233
  271POPC   C1A 6375  11.962   4.795   8.864
  271POPC   D2A 6376  11.878   5.009   8.470
  271POPC   C3A 6377  12.001   4.839   8.083
  271POPC   C4A 6378  12.128   4.973   7.680
  271POPC   C1B 6379  11.973   5.402   8.813
  271POPC   C2B 6380  12.175   5.559   8.411
  271POPC   C3B 6381  12.219   5.412   7.965
  271POPC   C4B 6382  11.905   5.460   7.658
  272POPC   NC3 6383  28.735  26.674   9.368
  272POPC   PO4 6384  28.335  27.265   9.433
  272POPC   GL1 6385  28.413  26.966   9.075
  272POPC   GL2 6386  28.347  26.564   9.053
  272POPC   C1A 6387  28.252  26.897   8.662
  272POPC   D2A 6388  27.906  26.784   8.398
  272POPC   C3A 6389  28.043  26.689   7.982
  272POPC   C4A 6390  28.227  26.941   7.645
  272POPC   C1B 6391  28.708  26.491   8.745
  272POPC   C2B 6392  28.880  26.553   8.326
  272POPC   C3B 6393  28.655  26.575   7.936
  272POPC   C4B 6394  28.799  26.480   7.499
  273POPC   NC3 6395  11.099  42.943   9.401
  273POPC   PO4 6396  11.199  43.645   9.377
  273POPC   GL1 6397  11.281  43.335   9.109
  273POPC   GL2 6398  11.591  43.131   9.053
  273POPC   C1A 6399  11.163  43.177   8.742
  273POPC   D2A 6400  11.146  42.981   8.371
  273POPC   C3A 6401  11.142  43.197   8.019
  273POPC   C4A 6402  11.085  43.274   7.556
  273POPC   C1B 6403  11.538  42.803   8.687
  273POPC   C2B 6404  11.494  42.628   8.238
  273POPC   C3B 6405  11.375  42.762   7.794
  273POPC   C4B 6406  11.504  42.713   7.338
  274POPC   NC3 6407  29.249  18.564   9.497
  274POPC   PO4 6408  28.641  18.361   9.473
  274POPC   GL1 6409  28.900  18.413   9.134
  274POPC   GL2 6410  29.168  18.145   9.139
  274POPC   C1A 6411  29.189  18.577   8.827
  274POPC   D2A 6412  29.280  18.358   8.462
  274POPC   C3A 6413  29.214  18.547   8.082
  274POPC   C4A 6414  29.288  18.536   7.686
  274POPC   C1B 6415  28.912  18.063   8.743
  274POPC   C2B 6416  28.700  17.867   8.364
  274POPC   C3B 6417  28.783  17.849   7.922
  274POPC   C4B 6418  29.113  18.077   7.793
  275POPC   NC3 6419  33.709  16.477   9.456
  275POPC   PO4 6420  33.616  17.110   9.430
  275POPC   GL1 6421  33.696  16.816   9.068
  275POPC   GL2 6422  33.746  16.432   8.959
  275POPC   C1A 6423  33.658  16.850   8.648
  275POPC   D2A 6424  33.912  16.938   8.328
  275POPC   C3A 6425  33.715  17.082   8.028
  275POPC   C4A 6426  33.820  17.105   7.641
  275POPC   C1B 6427  33.548  16.330   8.553
  275POPC   C2B 6428  33.694  16.513   8.158
  275POPC   C3B 6429  33.903  16.638   7.762
  275POPC   C4B 6430  33.962  16.446   7.369
  276POPC   NC3 6431  32.694   0.527   9.509
  276POPC   PO4 6432  33.365   0.473   9.382
  276POPC   GL1 6433  33.034   0.481   9.134
  276POPC   GL2 6434  32.955   0.840   9.195
  276POPC   C1A 6435  32.843   0.314   8.778
  276POPC   D2A 6436  33.051   0.161   8.431
  276POPC   C3A 6437  33.021   0.268   8.010
  276POPC   C4A 6438  33.134   0.262   7.573
  276POPC   C1B 6439  33.021   0.804   8.740
  276POPC   C2B 6440  32.840   0.631   8.357
  276POPC   C3B 6441  32.998   0.841   7.996
  276POPC   C4B 6442  33.219   0.779   7.639
  277POPC   NC3 6443   1.632  38.095   9.448
  277POPC   PO4 6444   2.098  37.621   9.486
  277POPC   GL1 6445   1.965  37.665   9.074
  277POPC   GL2 6446   1.759  37.963   8.970
  277POPC   C1A 6447   1.714  37.517   8.714
  277POPC   D2A 6448   1.687  37.422   8.292
  277POPC   C3A 6449   1.737  37.675   7.928
  277POPC   C4A 6450   1.985  37.826   7.584
  277POPC   C1B 6451   2.085  37.889   8.635
  277POPC   C2B 6452   2.154  37.804   8.204
  277POPC   C3B 6453   2.382  37.961   7.879
  277POPC   C4B 6454   2.469  37.876   7.405
  278POPC   NC3 6455  36.754   3.139   9.482
  278POPC   PO4 6456  37.188   2.544   9.501
  278POPC   GL1 6457  36.882   2.649   9.232
  278POPC   GL2 6458  37.075   2.933   9.126
  278POPC   C1A 6459  36.736   2.653   8.803
  278POPC   D2A 6460  36.891   2.835   8.423
  278POPC   C3A 6461  36.844   2.629   8.021
  278POPC   C4A 6462  36.724   2.950   7.753
  278POPC   C1B 6463  37.352   2.948   8.775
  278POPC   C2B 6464  37.327   3.105   8.389
  278POPC   C3B 6465  37.283   2.902   8.015
  278POPC   C4B 6466  37.261   3.076   7.656
  279POPC   NC3 6467  44.340  20.317   9.713
  279POPC   PO4 6468  44.718  19.824   9.673
  279POPC   GL1 6469  44.655  19.799   9.186
  279POPC   GL2 6470  44.333  19.679   9.110
  279POPC   C1A 6471  44.608  19.875   8.715
  279POPC   D2A 6472  44.833  19.855   8.292
  279POPC   C3A 6473  44.686  19.937   7.862
  279POPC   C4A 6474  44.652  20.105   7.441
  279POPC   C1B 6475  44.261  19.441   8.764
  279POPC   C2B 6476  44.366  19.589   8.358
  279POPC   C3B 6477  44.337  19.541   7.939
  279POPC   C4B 6478  44.361  19.673   7.508
  280POPC   NC3 6479  29.473  23.957   9.821
  280POPC   PO4 6480  29.980  23.623   9.513
  280POPC   GL1 6481  30.021  23.627   9.097
  280POPC   GL2 6482  30.271  23.862   9.149
  280POPC   C1A 6483  29.841  23.546   8.686
  280POPC   D2A 6484  29.697  23.713   8.263
  280POPC   C3A 6485  29.895  23.457   7.942
  280POPC   C4A 6486  29.956  23.636   7.602
  280POPC   C1B 6487  30.379  23.898   8.755
  280POPC   C2B 6488  30.137  23.887   8.439
  280POPC   C3B 6489  30.183  23.850   8.033
  280POPC   C4B 6490  30.538  23.904   7.805
  281POPC   NC3 6491  21.539   4.578   9.451
  281POPC   PO4 6492  20.893   4.256   9.438
  281POPC   GL1 6493  21.172   4.110   9.081
  281POPC   GL2 6494  21.542   4.231   9.060
  281POPC   C1A 6495  21.284   4.128   8.636
  281POPC   D2A 6496  21.389   4.394   8.284
  281POPC   C3A 6497  21.252   4.174   7.921
  281POPC   C4A 6498  21.342   4.257   7.494
  281POPC   C1B 6499  21.724   4.520   8.711
  281POPC   C2B 6500  21.885   4.509   8.242
  281POPC   C3B 6501  21.762   4.290   7.800
  281POPC   C4B 6502  21.841   4.146   7.321
  282POPC   NC3 6503  21.522  13.402   9.565
  282POPC   PO4 6504  21.146  13.847   9.323
  282POPC   GL1 6505  21.560  13.689   9.126
  282POPC   GL2 6506  21.681  13.323   9.079
  282POPC   C1A 6507  21.682  13.785   8.706
  282POPC   D2A 6508  21.402  13.751   8.363
  282POPC   C3A 6509  21.603  13.719   7.985
  282POPC   C4A 6510  21.424  13.735   7.587
  282POPC   C1B 6511  21.416  13.340   8.718
  282POPC   C2B 6512  21.280  13.234   8.279
  282POPC   C3B 6513  21.338  13.296   7.836
  282POPC   C4B 6514  21.219  13.287   7.420
  283POPC   NC3 6515  29.778  29.349   9.434
  283POPC   PO4 6516  30.320  28.995   9.391
  283POPC   GL1 6517  29.952  28.865   9.161
  283POPC   GL2 6518  29.582  28.894   9.225
  283POPC   C1A 6519  29.915  28.870   8.726
  283POPC   D2A 6520  30.073  29.129   8.392
  283POPC   C3A 6521  29.964  29.090   7.979
  283POPC   C4A 6522  29.817  29.393   7.716
  283POPC   C1B 6523  29.424  28.968   8.798
  283POPC   C2B 6524  29.525  28.840   8.349
  283POPC   C3B 6525  29.450  29.025   7.933
  283POPC   C4B 6526  29.502  29.044   7.499
  284POPC   NC3 6527  34.882  42.216   9.454
  284POPC   PO4 6528  34.323  42.581   9.554
  284POPC   GL1 6529  34.536  42.509   9.191
  284POPC   GL2 6530  34.897  42.639   9.173
  284POPC   C1A 6531  34.412  42.214   8.867
  284POPC   D2A 6532  34.486  42.368   8.474
  284POPC   C3A 6533  34.294  42.383   8.104
  284POPC   C4A 6534  34.379  42.159   7.751
  284POPC   C1B 6535  34.872  42.464   8.800
  284POPC   C2B 6536  35.011  42.197   8.495
  284POPC   C3B 6537  34.794  42.197   8.125
  284POPC   C4B 6538  34.893  42.210   7.739
  285POPC   NC3 6539  15.788  38.213   9.547
  285POPC   PO4 6540  16.287  38.638   9.443
  285POPC   GL1 6541  16.057  38.421   9.141
  285POPC   GL2 6542  15.730  38.572   9.174
  285POPC   C1A 6543  15.981  38.232   8.748
  285POPC   D2A 6544  15.912  38.391   8.324
  285POPC   C3A 6545  16.250  38.400   8.020
  285POPC   C4A 6546  16.174  38.323   7.593
  285POPC   C1B 6547  15.543  38.874   8.887
  285POPC   C2B 6548  15.407  38.790   8.451
  285POPC   C3B 6549  15.598  38.769   8.039
  285POPC   C4B 6550  15.528  38.838   7.582
  286POPC   NC3 6551  40.769  41.054   9.460
  286POPC   PO4 6552  40.666  41.714   9.496
  286POPC   GL1 6553  40.495  41.681   9.111
  286POPC   GL2 6554  40.486  41.338   9.115
  286POPC   C1A 6555  40.715  41.743   8.721
  286POPC   D2A 6556  40.832  41.518   8.334
  286POPC   C3A 6557  40.795  41.762   7.964
  286POPC   C4A 6558  40.632  41.762   7.566
  286POPC   C1B 6559  40.531  41.263   8.683
  286POPC   C2B 6560  40.377  41.261   8.270
  286POPC   C3B 6561  40.630  41.243   7.888
  286POPC   C4B 6562  40.566  40.925   7.568
  287POPC   NC3 6563  10.108   9.662   9.494
  287POPC   PO4 6564   9.412   9.725   9.469
  287POPC   GL1 6565   9.726   9.803   9.161
  287POPC   GL2 6566   9.875   9.469   9.091
  287POPC   C1A 6567   9.786   9.883   8.725
  287POPC   D2A 6568   9.577   9.891   8.312
  287POPC   C3A 6569   9.821   9.860   7.920
  287POPC   C4A 6570   9.627   9.945   7.502
  287POPC   C1B 6571  10.096   9.467   8.722
  287POPC   C2B 6572   9.930   9.472   8.307
  287POPC   C3B 6573  10.067   9.360   7.891
  287POPC   C4B 6574   9.986   9.555   7.511
  288POPC   NC3 6575  11.832  33.002   9.393
  288POPC   PO4 6576  12.153  33.506   9.561
  288POPC   GL1 6577  12.294  33.260   9.197
  288POPC   GL2 6578  12.308  32.890   9.187
  288POPC   C1A 6579  12.111  33.247   8.773
  288POPC   D2A 6580  11.807  33.327   8.432
  288POPC   C3A 6581  11.888  33.061   8.049
  288POPC   C4A 6582  12.200  33.116   7.771
  288POPC   C1B 6583  12.018  32.744   8.845
  288POPC   C2B 6584  12.132  32.842   8.449
  288POPC   C3B 6585  12.260  32.697   8.063
  288POPC   C4B 6586  12.042  32.625   7.711
  289POPC   NC3 6587  21.783  41.839   9.504
  289POPC   PO4 6588  21.762  42.501   9.535
  289POPC   GL1 6589  21.395  42.351   9.252
  289POPC   GL2 6590  21.284  42.655   9.076
  289POPC   C1A 6591  21.386  42.235   8.803
  289POPC   D2A 6592  21.620  42.437   8.445
  289POPC   C3A 6593  21.515  42.202   8.069
  289POPC   C4A 6594  21.463  42.331   7.658
  289POPC   C1B 6595  21.223  42.684   8.644
  289POPC   C2B 6596  21.104  42.427   8.320
  289POPC   C3B 6597  21.012  42.534   7.915
  289POPC   C4B 6598  21.145  42.693   7.519
  290POPC   NC3 6599  30.736  15.766   9.713
  290POPC   PO4 6600  30.302  15.400   9.286
  290POPC   GL1 6601  30.460  15.774   9.006
  290POPC   GL2 6602  30.574  16.125   9.102
  290POPC   C1A 6603  30.878  15.912   8.784
  290POPC   D2A 6604  30.938  16.182   8.455
  290POPC   C3A 6605  30.863  16.019   8.042
  290POPC   C4A 6606  31.068  16.195   7.684
  290POPC   C1B 6607  30.380  16.101   8.661
  290POPC   C2B 6608  30.283  15.806   8.334
  290POPC   C3B 6609  30.437  15.669   7.948
  290POPC   C4B 6610  30.312  15.841   7.574
  291POPC   NC3 6611  35.350  41.777   9.452
  291POPC   PO4 6612  35.547  41.030   9.500
  291POPC   GL1 6613  35.627  41.320   9.166
  291POPC   GL2 6614  35.276  41.436   9.097
  291POPC   C1A 6615  35.644  41.487   8.742
  291POPC   D2A 6616  35.451  41.602   8.351
  291POPC   C3A 6617  35.505  41.446   7.918
  291POPC   C4A 6618  35.592  41.471   7.488
  291POPC   C1B 6619  35.071  41.588   8.730
  291POPC   C2B 6620  34.947  41.704   8.325
  291POPC   C3B 6621  35.196  41.895   8.010
  291POPC   C4B 6622  35.233  41.808   7.602
  292POPC   NC3 6623  22.786  41.752   9.649
  292POPC   PO4 6624  22.196  42.043   9.417
  292POPC   GL1 6625  22.135  42.324   9.077
  292POPC   GL2 6626  21.827  42.462   9.015
  292POPC   C1A 6627  22.285  42.522   8.719
  292POPC   D2A 6628  22.555  42.629   8.379
  292POPC   C3A 6629  22.331  42.404   8.041
  292POPC   C4A 6630  21.919  42.470   7.844
  292POPC   C1B 6631  21.875  42.096   8.721
  292POPC   C2B 6632  21.970  42.089   8.276
  292POPC   C3B 6633  21.934  41.854   7.898
  292POPC   C4B 6634  22.284  41.719   7.605
  293POPC   NC3 6635   9.279   6.441   9.471
  293POPC   PO4 6636   8.946   7.032   9.347
  293POPC   GL1 6637   8.983   6.687   9.130
  293POPC   GL2 6638   8.640   6.631   9.087
  293POPC   C1A 6639   9.248   6.675   8.778
  293POPC   D2A 6640   9.153   6.766   8.354
  293POPC   C3A 6641   9.128   6.415   8.098
  293POPC   C4A 6642   9.280   6.340   7.692
  293POPC   C1B 6643   8.735   6.852   8.704
  293POPC   C2B 6644   8.692   6.546   8.387
  293POPC   C3B 6645   8.683   6.677   8.003
  293POPC   C4B 6646   9.001   6.764   7.728
  294POPC   NC3 6647  15.373  36.645   9.428
  294POPC   PO4 6648  15.131  35.965   9.655
  294POPC   GL1 6649  15.122  36.120   9.229
  294POPC   GL2 6650  14.852  35.878   9.165
  294POPC   C1A 6651  15.331  36.278   8.825
  294POPC   D2A 6652  15.336  36.056   8.397
  294POPC   C3A 6653  15.467  36.259   8.014
  294POPC   C4A 6654  15.385  36.144   7.562
  294POPC   C1B 6655  14.939  35.974   8.735
  294POPC   C2B 6656  14.833  36.158   8.327
  294POPC   C3B 6657  14.983  36.153   7.912
  294POPC   C4B 6658  14.875  36.089   7.495
  295POPC   NC3 6659  17.935  10.800   9.766
  295POPC   PO4 6660  17.494  11.106   9.436
  295POPC   GL1 6661  17.407  11.025   9.026
  295POPC   GL2 6662  17.688  10.800   9.021
  295POPC   C1A 6663  17.394  11.341   8.708
  295POPC   D2A 6664  17.167  11.413   8.347
  295POPC   C3A 6665  17.398  11.441   7.963
  295POPC   C4A 6666  17.477  11.446   7.513
  295POPC   C1B 6667  17.797  11.024   8.650
  295POPC   C2B 6668  17.778  11.234   8.269
  295POPC   C3B 6669  17.866  11.283   7.824
  295POPC   C4B 6670  18.073  11.234   7.429
  296POPC   NC3 6671  19.550  27.327   9.580
  296POPC   PO4 6672  18.979  27.718   9.585
  296POPC   GL1 6673  19.143  27.460   9.256
  296POPC   GL2 6674  19.408  27.731   9.243
  296POPC   C1A 6675  18.994  27.324   8.816
  296POPC   D2A 6676  18.914  27.531   8.420
  296POPC   C3A 6677  18.934  27.355   8.009
  296POPC   C4A 6678  18.877  27.666   7.717
  296POPC   C1B 6679  19.126  27.808   8.871
  296POPC   C2B 6680  19.167  27.991   8.466
  296POPC   C3B 6681  19.257  27.749   8.079
  296POPC   C4B 6682  19.375  27.516   7.705
  297POPC   NC3 6683   9.466  10.283   9.414
  297POPC   PO4 6684   9.950  10.721   9.663
  297POPC   GL1 6685  10.085  10.535   9.218
  297POPC   GL2 6686   9.777  10.502   8.984
  297POPC   C1A 6687  10.181  10.320   8.779
  297POPC   D2A 6688   9.875  10.308   8.429
  297POPC   C3A 6689   9.627  10.427   8.069
  297POPC   C4A 6690   9.442  10.416   7.652
  297POPC   C1B 6691   9.856  10.793   8.617
  297POPC   C2B 6692   9.915  10.872   8.139
  297POPC   C3B 6693   9.813  10.787   7.688
  297POPC   C4B 6694   9.466  10.871   7.393
  298POPC   NC3 6695  24.100  33.662   9.601
  298POPC   PO4 6696  23.598  33.078   9.599
  298POPC   GL1 6697  23.673  32.984   9.151
  298POPC   GL2 6698  23.668  32.649   9.200
  298POPC   C1A 6699  23.837  33.137   8.726
  298POPC   D2A 6700  23.717  33.018   8.307
  298POPC   C3A 6701  23.530  33.239   7.961
  298POPC   C4A 6702  23.782  33.084   7.640
  298POPC   C1B 6703  23.899  32.615   8.820
  298POPC   C2B 6704  23.864  32.520   8.383
  298POPC   C3B 6705  23.954  32.658   7.942
  298POPC   C4B 6706  24.123  32.732   7.507
  299POPC   NC3 6707  18.032   1.500   9.600
  299POPC   PO4 6708  18.524   2.016   9.595
  299POPC   GL1 6709  18.280   2.024   9.203
  299POPC   GL2 6710  18.367   1.690   9.189
  299POPC   C1A 6711  18.301   2.047   8.730
  299POPC   D2A 6712  18.044   2.149   8.349
  299POPC   C3A 6713  18.233   2.026   7.961
  299POPC   C4A 6714  18.553   2.321   7.788
  299POPC   C1B 6715  18.235   1.554   8.778
  299POPC   C2B 6716  18.153   1.662   8.367
  299POPC   C3B 6717  18.202   1.513   7.975
  299POPC   C4B 6718  18.374   1.663   7.579
  300POPC   NC3 6719  24.658  26.125   9.933
  300POPC   PO4 6720  24.303  26.311   9.379
  300POPC   GL1 6721  24.442  26.197   9.006
  300POPC   GL2 6722  24.292  26.504   8.922
  300POPC   C1A 6723  24.589  25.896   8.693
  300POPC   D2A 6724  24.392  25.744   8.291
  300POPC   C3A 6725  24.600  25.825   7.905
  300POPC   C4A 6726  24.815  25.881   7.537
  300POPC   C1B 6727  24.417  26.479   8.533
  300POPC   C2B 6728  24.594  26.224   8.252
  300POPC   C3B 6729  24.434  26.304   7.871
  300POPC   C4B 6730  24.425  26.194   7.461
  301POPC   NC3 6731   9.417  22.618   9.555
  301POPC   PO4 6732   9.993  22.871   9.512
  301POPC   GL1 6733   9.848  22.870   9.152
  301POPC   GL2 6734   9.517  22.916   9.161
  301POPC   C1A 6735   9.872  22.956   8.754
  301POPC   D2A 6736   9.528  23.111   8.572
  301POPC   C3A 6737   9.541  23.000   8.135
  301POPC   C4A 6738   9.791  23.127   7.799
  301POPC   C1B 6739   9.435  22.668   8.829
  301POPC   C2B 6740   9.257  22.677   8.438
  301POPC   C3B 6741   9.305  22.534   8.038
  301POPC   C4B 6742   9.448  22.735   7.699
  302POPC   NC3 6743  18.283   5.370   9.929
  302POPC   PO4 6744  18.470   4.803   9.582
  302POPC   GL1 6745  18.544   5.093   9.194
  302POPC   GL2 6746  18.685   4.953   8.883
  302POPC   C1A 6747  18.391   5.364   8.805
  302POPC   D2A 6748  18.494   5.191   8.379
  302POPC   C3A 6749  18.254   5.280   8.026
  302POPC   C4A 6750  18.234   5.081   7.664
  302POPC   C1B 6751  18.235   4.894   8.703
  302POPC   C2B 6752  17.969   4.943   8.284
  302POPC   C3B 6753  17.762   5.055   7.851
  302POPC   C4B 6754  17.812   5.031   7.360
  303POPC   NC3 6755  30.416  19.775   9.402
  303POPC   PO4 6756  30.997  20.117   9.621
  303POPC   GL1 6757  30.874  20.042   9.176
  303POPC   GL2 6758  30.540  20.189   9.132
  303POPC   C1A 6759  30.724  19.834   8.789
  303POPC   D2A 6760  30.510  19.831   8.413
  303POPC   C3A 6761  30.672  19.558   8.102
  303POPC   C4A 6762  30.764  19.674   7.701
  303POPC   C1B 6763  30.329  20.198   8.734
  303POPC   C2B 6764  30.354  20.339   8.297
  303POPC   C3B 6765  30.466  20.036   7.948
  303POPC   C4B 6766  30.317  19.878   7.554
  304POPC   NC3 6767   9.449  14.136   9.381
  304POPC   PO4 6768   8.815  14.391   9.466
  304POPC   GL1 6769   8.884  14.564   9.074
  304POPC   GL2 6770   9.230  14.479   9.067
  304POPC   C1A 6771   9.063  14.811   8.709
  304POPC   D2A 6772   8.907  14.651   8.321
  304POPC   C3A 6773   9.172  14.542   7.982
  304POPC   C4A 6774   8.907  14.483   7.645
  304POPC   C1B 6775   9.092  14.292   8.684
  304POPC   C2B 6776   9.160  14.115   8.294
  304POPC   C3B 6777   9.026  14.039   7.915
  304POPC   C4B 6778   9.223  14.098   7.554
  305POPC   NC3 6779  20.948  11.568   9.726
  305POPC   PO4 6780  20.760  11.017   9.602
  305POPC   GL1 6781  20.532  11.159   9.237
  305POPC   GL2 6782  20.282  10.920   9.049
  305POPC   C1A 6783  20.688  11.125   8.812
  305POPC   D2A 6784  20.551  11.342   8.442
  305POPC   C3A 6785  20.618  11.185   8.068
  305POPC   C4A 6786  20.639  11.285   7.654
  305POPC   C1B 6787  20.336  10.885   8.550
  305POPC   C2B 6788  20.148  11.021   8.139
  305POPC   C3B 6789  20.180  11.389   7.853
  305POPC   C4B 6790  20.273  11.646   7.482
  306POPC   NC3 6791  37.310  10.406   9.251
  306POPC   PO4 6792  38.030  10.556   9.365
  306POPC   GL1 6793  37.778  10.453   9.052
  306POPC   GL2 6794  37.596  10.777   9.043
  306POPC   C1A 6795  37.836  10.509   8.624
  306POPC   D2A 6796  37.878  10.700   8.215
  306POPC   C3A 6797  37.826  10.429   7.856
  306POPC   C4A 6798  37.593  10.470   7.485
  306POPC   C1B 6799  37.356  10.725   8.689
  306POPC   C2B 6800  37.352  10.895   8.311
  306POPC   C3B 6801  37.451  10.778   7.904
  306POPC   C4B 6802  37.218  10.925   7.583
  307POPC   NC3 6803  28.044  12.632   9.613
  307POPC   PO4 6804  28.663  12.931   9.567
  307POPC   GL1 6805  28.445  13.008   9.181
  307POPC   GL2 6806  28.171  12.789   9.133
  307POPC   C1A 6807  28.554  12.912   8.762
  307POPC   D2A 6808  28.412  12.750   8.407
  307POPC   C3A 6809  28.511  12.932   8.026
  307POPC   C4A 6810  28.481  12.744   7.638
  307POPC   C1B 6811  28.048  13.048   8.772
  307POPC   C2B 6812  27.931  12.927   8.327
  307POPC   C3B 6813  28.038  12.837   7.873
  307POPC   C4B 6814  28.109  12.932   7.379
  308POPC   NC3 6815  16.358  23.034   9.533
  308POPC   PO4 6816  17.028  23.027   9.521
  308POPC   GL1 6817  16.824  22.957   9.131
  308POPC   GL2 6818  16.834  22.634   9.212
  308POPC   C1A 6819  16.693  22.713   8.736
  308POPC   D2A 6820  16.501  22.803   8.361
  308POPC   C3A 6821  16.689  23.133   8.172
  308POPC   C4A 6822  16.658  23.017   7.780
  308POPC   C1B 6823  17.092  22.456   8.911
  308POPC   C2B 6824  17.118  22.465   8.467
  308POPC   C3B 6825  16.948  22.693   8.138
  308POPC   C4B 6826  16.977  22.568   7.736
  309POPC   NC3 6827   0.710  13.735   9.548
  309POPC   PO4 6828   1.329  13.538   9.527
  309POPC   GL1 6829   1.047  13.431   9.242
  309POPC   GL2 6830   1.036  13.782   9.132
  309POPC   C1A 6831   1.083  13.230   8.845
  309POPC   D2A 6832   1.351  13.402   8.523
  309POPC   C3A 6833   1.201  13.586   8.114
  309POPC   C4A 6834   1.215  13.413   7.687
  309POPC   C1B 6835   1.220  13.908   8.721
  309POPC   C2B 6836   1.005  14.053   8.343
  309POPC   C3B 6837   0.955  14.002   7.907
  309POPC   C4B 6838   1.183  14.146   7.586
  310POPC   NC3 6839   7.871   8.323   9.372
  310POPC   PO4 6840   8.574   8.093   9.418
  310POPC   GL1 6841   8.272   8.181   9.110
  310POPC   GL2 6842   8.028   7.897   9.153
  310POPC   C1A 6843   8.228   8.201   8.684
  310POPC   D2A 6844   8.502   7.973   8.433
  310POPC   C3A 6845   8.376   8.130   8.059
  310POPC   C4A 6846   8.250   8.213   7.654
  310POPC   C1B 6847   8.096   7.720   8.774
  310POPC   C2B 6848   7.992   7.878   8.340
  310POPC   C3B 6849   8.011   7.821   7.888
  310POPC   C4B 6850   8.073   7.763   7.425
  311POPC   NC3 6851  33.678  27.040   9.369
  311POPC   PO4 6852  34.077  26.659   9.746
  311POPC   GL1 6853  33.922  26.555   9.248
  311POPC   GL2 6854  33.602  26.652   9.055
  311POPC   C1A 6855  33.959  26.456   8.751
  311POPC   D2A 6856  33.860  26.571   8.258
  311POPC   C3A 6857  33.992  26.942   7.931
  311POPC   C4A 6858  34.029  27.014   7.416
  311POPC   C1B 6859  33.787  26.933   8.725
  311POPC   C2B 6860  33.604  27.079   8.339
  311POPC   C3B 6861  33.478  26.823   8.010
  311POPC   C4B 6862  33.660  26.716   7.617
  312POPC   NC3 6863  17.644  19.221   9.369
  312POPC   PO4 6864  17.222  18.719   9.565
  312POPC   GL1 6865  17.417  18.809   9.158
  312POPC   GL2 6866  17.791  18.728   9.154
  312POPC   C1A 6867  17.414  19.130   8.761
  312POPC   D2A 6868  17.139  19.355   8.461
  312POPC   C3A 6869  17.241  19.152   8.077
  312POPC   C4A 6870  17.386  19.205   7.673
  312POPC   C1B 6871  17.648  18.679   8.731
  312POPC   C2B 6872  17.523  18.780   8.310
  312POPC   C3B 6873  17.738  19.024   7.978
  312POPC   C4B 6874  17.763  18.876   7.538
  313POPC   NC3 6875   4.575   2.637   9.520
  313POPC   PO4 6876   3.990   2.599   9.199
  313POPC   GL1 6877   4.296   2.842   9.040
  313POPC   GL2 6878   4.512   3.061   9.214
  313POPC   C1A 6879   4.559   2.667   8.729
  313POPC   D2A 6880   4.386   2.482   8.340
  313POPC   C3A 6881   4.214   2.719   7.988
  313POPC   C4A 6882   4.008   2.501   7.700
  313POPC   C1B 6883   4.550   3.187   8.770
  313POPC   C2B 6884   4.421   3.006   8.384
  313POPC   C3B 6885   4.690   2.865   8.043
  313POPC   C4B 6886   4.540   3.071   7.680
  314POPC   NC3 6887  15.544  30.638   9.480
  314POPC   PO4 6888  14.922  30.524   9.509
  314POPC   GL1 6889  15.138  30.738   9.141
  314POPC   GL2 6890  15.499  30.883   9.027
  314POPC   C1A 6891  15.081  30.993   8.775
  314POPC   D2A 6892  15.191  30.945   8.362
  314POPC   C3A 6893  14.866  30.738   8.129
  314POPC   C4A 6894  14.983  30.694   7.701
  314POPC   C1B 6895  15.354  30.528   8.750
  314POPC   C2B 6896  15.177  30.410   8.401
  314POPC   C3B 6897  15.339  30.547   8.037
  314POPC   C4B 6898  15.450  30.406   7.653
  315POPC   NC3 6899  14.228  44.125   9.251
  315POPC   PO4 6900  14.761  43.794   9.500
  315POPC   GL1 6901  14.555  43.767   9.123
  315POPC   GL2 6902  14.701  44.078   9.015
  315POPC   C1A 6903  14.367  43.671   8.719
  315POPC   D2A 6904  14.586  43.737   8.328
  315POPC   C3A 6905  14.387  43.666   7.957
  315POPC   C4A 6906  14.573  43.542   7.576
  315POPC   C1B 6907  14.455  44.158   8.639
  315POPC   C2B 6908  14.134  43.999   8.341
  315POPC   C3B 6909  14.130  44.146   7.897
  315POPC   C4B 6910  14.563  44.062   7.683
  316POPC   NC3 6911   6.805   4.057   9.456
  316POPC   PO4 6912   6.655   4.656   9.540
  316POPC   GL1 6913   6.660   4.482   9.177
  316POPC   GL2 6914   6.383   4.239   9.170
  316POPC   C1A 6915   6.948   4.508   8.847
  316POPC   D2A 6916   6.659   4.516   8.527
  316POPC   C3A 6917   6.722   4.564   8.111
  316POPC   C4A 6918   6.413   4.575   7.825
  316POPC   C1B 6919   6.600   4.100   8.803
  316POPC   C2B 6920   6.687   4.039   8.348
  316POPC   C3B 6921   6.685   4.072   7.901
  316POPC   C4B 6922   6.646   3.831   7.535
  317POPC   NC3 6923  39.071  13.679   9.556
  317POPC   PO4 6924  39.710  13.450   9.587
  317POPC   GL1 6925  39.446  13.481   9.180
  317POPC   GL2 6926  39.217  13.767   9.055
  317POPC   C1A 6927  39.502  13.547   8.702
  317POPC   D2A 6928  39.247  13.784   8.424
  317POPC   C3A 6929  39.425  13.664   8.043
  317POPC   C4A 6930  39.288  13.547   7.644
  317POPC   C1B 6931  38.847  13.865   8.755
  317POPC   C2B 6932  38.839  14.084   8.324
  317POPC   C3B 6933  39.034  13.960   7.916
  317POPC   C4B 6934  39.050  13.976   7.446
  318POPC   NC3 6935  41.344  27.563   9.411
  318POPC   PO4 6936  42.051  27.620   9.384
  318POPC   GL1 6937  41.785  27.396   9.100
  318POPC   GL2 6938  41.654  27.708   9.034
  318POPC   C1A 6939  41.617  27.403   8.649
  318POPC   D2A 6940  41.733  27.258   8.260
  318POPC   C3A 6941  41.665  27.559   7.947
  318POPC   C4A 6942  41.406  27.521   7.556
  318POPC   C1B 6943  41.360  27.861   8.726
  318POPC   C2B 6944  41.433  27.988   8.294
  318POPC   C3B 6945  41.345  27.951   7.863
  318POPC   C4B 6946  41.671  27.939   7.543
  319POPC   NC3 6947  23.483  44.178   9.885
  319POPC   PO4 6948  23.631  44.783   9.669
  319POPC   GL1 6949  23.722  44.589   9.171
  319POPC   GL2 6950  23.466  44.424   9.085
  319POPC   C1A 6951  23.840  44.744   8.713
  319POPC   D2A 6952  23.800  44.746   8.240
  319POPC   C3A 6953  23.953  44.682   7.784
  319POPC   C4A 6954  23.777  44.550   7.354
  319POPC   C1B 6955  23.603  44.310   8.657
  319POPC   C2B 6956  23.437  44.384   8.258
  319POPC   C3B 6957  23.546  44.339   7.817
  319POPC   C4B 6958  23.342  44.233   7.417
  320POPC   NC3 6959   5.364  42.935   9.393
  320POPC   PO4 6960   5.850  43.316   9.537
  320POPC   GL1 6961   6.024  43.086   9.186
  320POPC   GL2 6962   6.248  42.830   9.344
  320POPC   C1A 6963   5.898  42.983   8.741
  320POPC   D2A 6964   5.627  42.977   8.349
  320POPC   C3A 6965   5.733  43.151   7.920
  320POPC   C4A 6966   5.701  43.103   7.425
  320POPC   C1B 6967   6.353  42.744   8.906
  320POPC   C2B 6968   6.352  42.926   8.475
  320POPC   C3B 6969   6.154  42.873   8.064
  320POPC   C4B 6970   6.159  43.050   7.649
  321POPC   NC3 6971  43.976  43.619   9.559
  321POPC   PO4 6972  43.843  42.973   9.546
  321POPC   GL1 6973  43.810  43.108   9.152
  321POPC   GL2 6974  43.714  43.427   9.161
  321POPC   C1A 6975  43.951  43.255   8.743
  321POPC   D2A 6976  44.054  43.223   8.318
  321POPC   C3A 6977  44.067  42.801   8.171
  321POPC   C4A 6978  44.046  42.698   7.752
  321POPC   C1B 6979  43.625  43.665   8.756
  321POPC   C2B 6980  43.444  43.650   8.334
  321POPC   C3B 6981  43.614  43.516   7.927
  321POPC   C4B 6982  43.785  43.112   7.868
  322POPC   NC3 6983  24.373  19.691   9.345
  322POPC   PO4 6984  24.702  20.269   9.478
  322POPC   GL1 6985  24.549  20.119   9.116
  322POPC   GL2 6986  24.199  20.120   9.113
  322POPC   C1A 6987  24.556  19.833   8.727
  322POPC   D2A 6988  24.398  19.666   8.342
  322POPC   C3A 6989  24.666  19.745   8.005
  322POPC   C4A 6990  24.606  19.970   7.605
  322POPC   C1B 6991  24.051  19.929   8.750
  322POPC   C2B 6992  24.002  19.997   8.333
  322POPC   C3B 6993  24.187  19.969   7.928
  322POPC   C4B 6994  23.907  20.227   7.714
  323POPC   NC3 6995   0.093   1.675   9.826
  323POPC   PO4 6996  44.743   2.218   9.502
  323POPC   GL1 6997  44.682   2.285   9.090
  323POPC   GL2 6998  44.694   1.942   9.045
  323POPC   C1A 6999  44.317   2.251   8.833
  323POPC   D2A 7000  44.173   2.267   8.433
  323POPC   C3A 7001  44.306   2.114   8.063
  323POPC   C4A 7002  44.398   2.234   7.641
  323POPC   C1B 7003  44.596   1.888   8.635
  323POPC   C2B 7004  44.664   1.828   8.246
  323POPC   C3B 7005  44.812   2.103   7.926
  323POPC   C4B 7006  44.873   2.029   7.506
  324POPC   NC3 7007  30.638  39.955   9.697
  324POPC   PO4 7008  30.701  40.578   9.605
  324POPC   GL1 7009  30.520  40.258   9.283
  324POPC   GL2 7010  30.549  39.875   9.207
  324POPC   C1A 7011  30.309  40.196   8.869
  324POPC   D2A 7012  30.474  40.007   8.511
  324POPC   C3A 7013  30.297  40.068   8.099
  324POPC   C4A 7014  30.605  40.181   7.781
  324POPC   C1B 7015  30.782  39.702   8.860
  324POPC   C2B 7016  30.707  39.541   8.449
  324POPC   C3B 7017  30.568  39.620   8.031
  324POPC   C4B 7018  30.757  39.692   7.645
  325POPC   NC3 7019  14.745  37.387   9.193
  325POPC   PO4 7020  15.258  37.096   9.581
  325POPC   GL1 7021  15.143  37.064   9.134
  325POPC   GL2 7022  15.255  37.361   9.014
  325POPC   C1A 7023  15.054  36.857   8.714
  325POPC   D2A 7024  15.166  36.547   8.395
  325POPC   C3A 7025  15.107  36.648   7.966
  325POPC   C4A 7026  15.496  36.729   7.779
  325POPC   C1B 7027  15.048  37.363   8.615
  325POPC   C2B 7028  14.997  37.106   8.260
  325POPC   C3B 7029  14.789  37.061   7.886
  325POPC   C4B 7030  15.100  37.046   7.621
  326POPC   NC3 7031   7.956   2.291   9.409
  326POPC   PO4 7032   8.382   1.759   9.459
  326POPC   GL1 7033   8.259   2.002   9.111
  326POPC   GL2 7034   8.387   2.379   9.132
  326POPC   C1A 7035   8.008   1.965   8.730
  326POPC   D2A 7036   8.078   1.750   8.343
  326POPC   C3A 7037   7.965   1.934   7.977
  326POPC   C4A 7038   8.181   1.871   7.596
  326POPC   C1B 7039   8.477   2.235   8.719
  326POPC   C2B 7040   8.235   2.241   8.344
  326POPC   C3B 7041   8.380   2.265   7.940
  326POPC   C4B 7042   8.383   2.334   7.520
  327POPC   NC3 7043  26.601   3.234   9.694
  327POPC   PO4 7044  26.021   3.649   9.630
  327POPC   GL1 7045  25.998   3.388   9.278
  327POPC   GL2 7046  26.316   3.469   9.132
  327POPC   C1A 7047  25.895   3.307   8.854
  327POPC   D2A 7048  26.112   3.425   8.475
  327POPC   C3A 7049  25.883   3.405   8.108
  327POPC   C4A 7050  26.015   3.628   7.741
  327POPC   C1B 7051  26.168   3.792   8.829
  327POPC   C2B 7052  26.263   3.942   8.389
  327POPC   C3B 7053  26.415   3.859   7.954
  327POPC   C4B 7054  26.524   3.898   7.508
  328POPC   NC3 7055  36.444   9.704   9.521
  328POPC   PO4 7056  35.801   9.569   9.429
  328POPC   GL1 7057  36.027   9.747   9.153
  328POPC   GL2 7058  36.210   9.517   9.025
  328POPC   C1A 7059  35.987   9.980   8.782
  328POPC   D2A 7060  36.104   9.900   8.369
  328POPC   C3A 7061  35.876   9.738   8.025
  328POPC   C4A 7062  36.013   9.722   7.587
  328POPC   C1B 7063  35.983   9.469   8.687
  328POPC   C2B 7064  36.183   9.379   8.329
  328POPC   C3B 7065  36.299   9.456   7.917
  328POPC   C4B 7066  35.962   9.234   7.758
  329POPC   NC3 7067  38.680   9.008   9.543
  329POPC   PO4 7068  38.120   8.812   9.120
  329POPC   GL1 7069  38.502   9.003   9.075
  329POPC   GL2 7070  38.758   8.749   9.100
  329POPC   C1A 7071  38.587   9.182   8.729
  329POPC   D2A 7072  38.386   9.182   8.357
  329POPC   C3A 7073  38.592   9.320   8.008
  329POPC   C4A 7074  38.493   9.164   7.624
  329POPC   C1B 7075  38.599   8.682   8.660
  329POPC   C2B 7076  38.451   8.609   8.249
  329POPC   C3B 7077  38.396   8.698   7.821
  329POPC   C4B 7078  38.425   8.444   7.468
  330POPC   NC3 7079   7.116  29.704   9.637
  330POPC   PO4 7080   7.559  30.169   9.752
  330POPC   GL1 7081   7.396  29.969   9.308
  330POPC   GL2 7082   7.044  29.987   9.211
  330POPC   C1A 7083   7.490  29.919   8.850
  330POPC   D2A 7084   7.311  29.901   8.420
  330POPC   C3A 7085   7.456  30.084   8.018
  330POPC   C4A 7086   7.575  29.853   7.634
  330POPC   C1B 7087   6.984  29.764   8.822
  330POPC   C2B 7088   6.807  29.783   8.438
  330POPC   C3B 7089   6.912  30.027   8.111
  330POPC   C4B 7090   7.069  29.976   7.706
  331POPC   NC3 7091  26.596   5.514   9.378
  331POPC   PO4 7092  27.132   5.223   9.730
  331POPC   GL1 7093  27.107   5.135   9.242
  331POPC   GL2 7094  26.776   5.156   9.063
  331POPC   C1A 7095  27.155   4.986   8.782
  331POPC   D2A 7096  27.238   5.108   8.341
  331POPC   C3A 7097  27.029   5.070   7.947
  331POPC   C4A 7098  27.022   5.221   7.527
  331POPC   C1B 7099  26.534   5.205   8.672
  331POPC   C2B 7100  26.686   5.295   8.251
  331POPC   C3B 7101  26.615   5.402   7.796
  331POPC   C4B 7102  26.525   5.261   7.378
  332POPC   NC3 7103  14.708  25.773   9.516
  332POPC   PO4 7104  14.246  26.267   9.527
  332POPC   GL1 7105  14.337  26.156   9.133
  332POPC   GL2 7106  14.514  25.831   9.058
  332POPC   C1A 7107  14.439  26.167   8.722
  332POPC   D2A 7108  14.515  25.826   8.454
  332POPC   C3A 7109  14.295  25.838   8.096
  332POPC   C4A 7110  14.082  26.074   7.812
  332POPC   C1B 7111  14.886  25.770   8.797
  332POPC   C2B 7112  15.020  25.770   8.381
  332POPC   C3B 7113  14.821  25.900   8.001
  332POPC   C4B 7114  14.561  25.821   7.653
  333POPC   NC3 7115  43.700   7.629   9.486
  333POPC   PO4 7116  44.181   7.200   9.428
  333POPC   GL1 7117  43.984   7.402   9.100
  333POPC   GL2 7118  43.685   7.238   9.080
  333POPC   C1A 7119  43.941   7.269   8.659
  333POPC   D2A 7120  43.717   7.300   8.261
  333POPC   C3A 7121  43.979   7.395   7.891
  333POPC   C4A 7122  43.937   7.499   7.434
  333POPC   C1B 7123  43.636   6.887   8.785
  333POPC   C2B 7124  43.823   6.813   8.366
  333POPC   C3B 7125  43.625   6.903   7.940
  333POPC   C4B 7126  43.588   7.191   7.622
  334POPC   NC3 7127  35.339  21.723   9.750
  334POPC   PO4 7128  35.561  21.097   9.798
  334POPC   GL1 7129  35.494  21.242   9.352
  334POPC   GL2 7130  35.236  21.509   9.296
  334POPC   C1A 7131  35.543  21.419   8.917
  334POPC   D2A 7132  35.627  21.310   8.502
  334POPC   C3A 7133  35.386  21.392   8.155
  334POPC   C4A 7134  35.584  21.291   7.785
  334POPC   C1B 7135  35.135  21.772   8.926
  334POPC   C2B 7136  35.226  21.778   8.498
  334POPC   C3B 7137  35.115  21.912   8.101
  334POPC   C4B 7138  35.242  21.693   7.733
  335POPC   NC3 7139   5.745   5.655   9.537
  335POPC   PO4 7140   6.087   6.172   9.577
  335POPC   GL1 7141   6.025   5.908   9.176
  335POPC   GL2 7142   5.980   5.541   9.103
  335POPC   C1A 7143   5.669   5.898   8.869
  335POPC   D2A 7144   5.527   6.152   8.492
  335POPC   C3A 7145   5.635   5.977   8.090
  335POPC   C4A 7146   5.906   5.990   7.773
  335POPC   C1B 7147   6.106   5.660   8.708
  335POPC   C2B 7148   5.999   5.673   8.310
  335POPC   C3B 7149   6.097   5.537   7.917
  335POPC   C4B 7150   5.800   5.524   7.598
  336POPC   NC3 7151  34.608  20.102   9.534
  336POPC   PO4 7152  34.943  19.528   9.498
  336POPC   GL1 7153  34.725  19.745   9.152
  336POPC   GL2 7154  34.347  19.701   9.105
  336POPC   C1A 7155  34.746  19.735   8.705
  336POPC   D2A 7156  34.972  19.591   8.329
  336POPC   C3A 7157  34.813  19.778   7.959
  336POPC   C4A 7158  34.423  19.688   7.816
  336POPC   C1B 7159  34.417  20.115   8.910
  336POPC   C2B 7160  34.550  20.218   8.504
  336POPC   C3B 7161  34.393  20.108   8.120
  336POPC   C4B 7162  34.433  20.207   7.703
  337POPC   NC3 7163  13.001  26.792   9.610
  337POPC   PO4 7164  12.676  26.338   9.263
  337POPC   GL1 7165  12.871  26.661   9.126
  337POPC   GL2 7166  13.214  26.497   9.165
  337POPC   C1A 7167  12.796  26.913   8.764
  337POPC   D2A 7168  12.711  27.088   8.367
  337POPC   C3A 7169  12.890  26.962   7.991
  337POPC   C4A 7170  12.954  27.216   7.619
  337POPC   C1B 7171  13.095  26.377   8.747
  337POPC   C2B 7172  13.001  26.587   8.388
  337POPC   C3B 7173  12.890  26.413   8.036
  337POPC   C4B 7174  12.901  26.558   7.687
  338POPC   NC3 7175   4.616  41.742   9.639
  338POPC   PO4 7176   4.056  41.353   9.640
  338POPC   GL1 7177   4.273  41.500   9.280
  338POPC   GL2 7178   4.119  41.798   9.383
  338POPC   C1A 7179   4.423  41.457   8.834
  338POPC   D2A 7180   4.268  41.277   8.428
  338POPC   C3A 7181   4.350  41.503   8.095
  338POPC   C4A 7182   4.456  41.347   7.741
  338POPC   C1B 7183   4.036  41.807   8.931
  338POPC   C2B 7184   4.072  41.739   8.489
  338POPC   C3B 7185   4.142  41.967   8.114
  338POPC   C4B 7186   4.389  41.887   7.754
  339POPC   NC3 7187  35.062  40.977   9.472
  339POPC   PO4 7188  35.269  40.304   9.577
  339POPC   GL1 7189  35.347  40.587   9.151
  339POPC   GL2 7190  35.311  40.934   9.041
  339POPC   C1A 7191  35.537  40.670   8.691
  339POPC   D2A 7192  35.328  40.702   8.271
  339POPC   C3A 7193  35.173  41.082   8.107
  339POPC   C4A 7194  35.158  40.993   7.688
  339POPC   C1B 7195  35.292  41.124   8.631
  339POPC   C2B 7196  35.630  41.130   8.315
  339POPC   C3B 7197  35.633  40.917   7.888
  339POPC   C4B 7198  35.463  40.570   7.659
  340POPC   NC3 7199  21.457   7.062   9.330
  340POPC   PO4 7200  21.628   7.664   9.556
  340POPC   GL1 7201  21.487   7.566   9.143
  340POPC   GL2 7202  21.707   7.347   8.963
  340POPC   C1A 7203  21.333   7.721   8.758
  340POPC   D2A 7204  21.440   7.590   8.343
  340POPC   C3A 7205  21.132   7.752   8.053
  340POPC   C4A 7206  20.941   7.574   7.679
  340POPC   C1B 7207  21.304   7.200   8.740
  340POPC   C2B 7208  21.120   7.120   8.369
  340POPC   C3B 7209  21.265   7.255   7.986
  340POPC   C4B 7210  21.291   7.106   7.606
  341POPC   NC3 7211  20.766   5.531   9.594
  341POPC   PO4 7212  21.287   5.008   9.455
  341POPC   GL1 7213  21.335   5.123   9.050
  341POPC   GL2 7214  21.388   5.457   9.092
  341POPC   C1A 7215  21.376   4.949   8.634
  341POPC   D2A 7216  21.178   4.934   8.237
  341POPC   C3A 7217  21.419   4.751   7.884
  341POPC   C4A 7218  21.175   4.748   7.515
  341POPC   C1B 7219  21.559   5.446   8.669
  341POPC   C2B 7220  21.559   5.298   8.247
  341POPC   C3B 7221  21.347   5.287   7.873
  341POPC   C4B 7222  21.400   5.588   7.538
  342POPC   NC3 7223  22.480  34.470   9.468
  342POPC   PO4 7224  21.783  34.250   9.504
  342POPC   GL1 7225  22.017  34.545   9.206
  342POPC   GL2 7226  21.813  34.368   9.007
  342POPC   C1A 7227  22.265  34.531   8.765
  342POPC   D2A 7228  22.257  34.304   8.311
  342POPC   C3A 7229  22.449  34.462   7.950
  342POPC   C4A 7230  22.225  34.583   7.625
  342POPC   C1B 7231  21.783  34.688   8.754
  342POPC   C2B 7232  21.837  34.554   8.404
  342POPC   C3B 7233  21.836  34.434   8.011
  342POPC   C4B 7234  21.677  34.391   7.639
  343POPC   NC3 7235  14.221   9.864   9.432
  343POPC   PO4 7236  14.841   9.574   9.403
  343POPC   GL1 7237  14.599   9.691   9.116
  343POPC   GL2 7238  14.605  10.020   9.133
  343POPC   C1A 7239  14.371   9.724   8.755
  343POPC   D2A 7240  14.523   9.562   8.386
  343POPC   C3A 7241  14.192   9.469   8.117
  343POPC   C4A 7242  14.151   9.703   7.765
  343POPC   C1B 7243  14.721  10.251   8.814
  343POPC   C2B 7244  14.553  10.090   8.438
  343POPC   C3B 7245  14.573   9.930   8.014
  343POPC   C4B 7246  14.737  10.180   7.668
  344POPC   NC3 7247  30.624  41.865   9.505
  344POPC   PO4 7248  30.353  42.481   9.514
  344POPC   GL1 7249  30.422  42.436   9.071
  344POPC   GL2 7250  30.709  42.195   9.086
  344POPC   C1A 7251  30.536  42.672   8.689
  344POPC   D2A 7252  30.548  42.660   8.226
  344POPC   C3A 7253  30.914  42.528   8.020
  344POPC   C4A 7254  30.871  42.331   7.636
  344POPC   C1B 7255  30.946  42.017   8.757
  344POPC   C2B 7256  30.923  42.115   8.335
  344POPC   C3B 7257  30.597  42.099   8.002
  344POPC   C4B 7258  30.496  41.992   7.573
  345POPC   NC3 7259  41.747   3.033   9.549
  345POPC   PO4 7260  41.383   2.477   9.376
  345POPC   GL1 7261  41.433   2.690   9.060
  345POPC   GL2 7262  41.423   3.010   9.107
  345POPC   C1A 7263  41.622   2.718   8.701
  345POPC   D2A 7264  41.470   2.542   8.333
  345POPC   C3A 7265  41.603   2.705   7.991
  345POPC   C4A 7266  41.897   2.555   7.816
  345POPC   C1B 7267  41.147   2.999   8.717
  345POPC   C2B 7268  41.030   2.968   8.252
  345POPC   C3B 7269  41.199   2.957   7.806
  345POPC   C4B 7270  41.177   2.987   7.332
  346POPC   NC3 7271  38.070  30.876   9.453
  346POPC   PO4 7272  37.426  30.774   9.396
  346POPC   GL1 7273  37.733  30.719   9.097
  346POPC   GL2 7274  37.909  30.421   8.979
  346POPC   C1A 7275  37.634  30.736   8.682
  346POPC   D2A 7276  37.772  30.531   8.337
  346POPC   C3A 7277  37.474  30.722   8.096
  346POPC   C4A 7278  37.279  30.558   7.775
  346POPC   C1B 7279  38.137  30.790   8.783
  346POPC   C2B 7280  38.095  30.971   8.369
  346POPC   C3B 7281  37.952  30.860   7.982
  346POPC   C4B 7282  37.803  30.483   7.767
  347POPC   NC3 7283   0.110   8.423   9.496
  347POPC   PO4 7284   0.633   7.927   9.424
  347POPC   GL1 7285   0.548   8.129   9.071
  347POPC   GL2 7286   0.208   8.069   9.117
  347POPC   C1A 7287   0.651   8.397   8.725
  347POPC   D2A 7288   0.600   8.701   8.384
  347POPC   C3A 7289   0.675   8.465   8.031
  347POPC   C4A 7290   0.886   8.213   7.803
  347POPC   C1B 7291   0.185   8.125   8.683
  347POPC   C2B 7292   0.275   8.271   8.271
  347POPC   C3B 7293   0.356   8.102   7.841
  347POPC   C4B 7294   0.252   8.060   7.418
  348POPC   NC3 7295  14.282  43.662   9.577
  348POPC   PO4 7296  14.616  43.078   9.479
  348POPC   GL1 7297  14.665  43.262   9.081
  348POPC   GL2 7298  14.321  43.311   9.074
  348POPC   C1A 7299  14.625  43.248   8.619
  348POPC   D2A 7300  14.388  43.078   8.280
  348POPC   C3A 7301  14.587  43.184   7.942
  348POPC   C4A 7302  14.727  43.055   7.561
  348POPC   C1B 7303  14.122  43.135   8.717
  348POPC   C2B 7304  13.899  43.229   8.304
  348POPC   C3B 7305  14.072  43.218   7.860
  348POPC   C4B 7306  14.206  43.215   7.412
  349POPC   NC3 7307  17.749  27.156   9.248
  349POPC   PO4 7308  17.323  26.823   9.729
  349POPC   GL1 7309  17.392  26.776   9.259
  349POPC   GL2 7310  17.165  27.081   9.231
  349POPC   C1A 7311  17.620  26.646   8.823
  349POPC   D2A 7312  17.708  26.398   8.433
  349POPC   C3A 7313  17.570  26.592   8.077
  349POPC   C4A 7314  17.428  26.682   7.680
  349POPC   C1B 7315  17.179  26.924   8.812
  349POPC   C2B 7316  17.458  26.986   8.462
  349POPC   C3B 7317  17.408  27.078   8.040
  349POPC   C4B 7318  17.592  27.149   7.664
  350POPC   NC3 7319  27.809  10.243   9.526
  350POPC   PO4 7320  27.940  10.899   9.350
  350POPC   GL1 7321  27.836  10.660   8.988
  350POPC   GL2 7322  27.716  10.340   9.038
  350POPC   C1A 7323  27.868  10.537   8.579
  350POPC   D2A 7324  28.140  10.519   8.279
  350POPC   C3A 7325  27.840  10.643   8.015
  350POPC   C4A 7326  27.653  10.444   7.680
  350POPC   C1B 7327  27.417  10.347   8.696
  350POPC   C2B 7328  27.412  10.576   8.300
  350POPC   C3B 7329  27.199  10.538   7.903
  350POPC   C4B 7330  27.194  10.309   7.484
  351POPC   NC3 7331  33.412  41.942   9.444
  351POPC   PO4 7332  32.815  42.316   9.421
  351POPC   GL1 7333  33.032  42.273   9.046
  351POPC   GL2 7334  33.356  42.320   9.079
  351POPC   C1A 7335  33.156  42.342   8.619
  351POPC   D2A 7336  32.960  42.374   8.251
  351POPC   C3A 7337  33.217  42.135   8.006
  351POPC   C4A 7338  33.158  42.231   7.609
  351POPC   C1B 7339  33.367  42.738   8.866
  351POPC   C2B 7340  33.377  42.824   8.417
  351POPC   C3B 7341  33.299  42.692   7.993
  351POPC   C4B 7342  33.281  42.739   7.556
  352POPC   NC3 7343  16.256  23.732   9.327
  352POPC   PO4 7344  15.791  24.124   9.524
  352POPC   GL1 7345  15.822  23.886   9.107
  352POPC   GL2 7346  15.933  23.503   9.026
  352POPC   C1A 7347  16.042  23.821   8.672
  352POPC   D2A 7348  15.893  23.551   8.350
  352POPC   C3A 7349  16.026  23.690   7.956
  352POPC   C4A 7350  15.910  23.937   7.640
  352POPC   C1B 7351  15.743  23.237   8.743
  352POPC   C2B 7352  15.531  23.137   8.361
  352POPC   C3B 7353  15.678  23.263   7.971
  352POPC   C4B 7354  15.755  23.444   7.602
  353POPC   NC3 7355  25.962  36.092   9.634
  353POPC   PO4 7356  26.354  35.574   9.324
  353POPC   GL1 7357  26.282  35.996   9.210
  353POPC   GL2 7358  26.008  36.237   9.146
  353POPC   C1A 7359  26.371  36.108   8.792
  353POPC   D2A 7360  26.062  36.066   8.475
  353POPC   C3A 7361  25.927  36.311   8.143
  353POPC   C4A 7362  26.067  36.170   7.752
  353POPC   C1B 7363  25.692  36.284   8.807
  353POPC   C2B 7364  25.578  35.912   8.546
  353POPC   C3B 7365  25.640  35.893   8.090
  353POPC   C4B 7366  25.564  36.211   7.782
  354POPC   NC3 7367   6.310   4.865   9.776
  354POPC   PO4 7368   5.830   5.214   9.455
  354POPC   GL1 7369   5.878   5.018   9.083
  354POPC   GL2 7370   5.590   4.826   8.962
  354POPC   C1A 7371   5.821   5.227   8.705
  354POPC   D2A 7372   5.979   5.177   8.312
  354POPC   C3A 7373   5.760   5.127   7.941
  354POPC   C4A 7374   5.573   5.029   7.540
  354POPC   C1B 7375   5.945   4.735   8.634
  354POPC   C2B 7376   5.974   4.675   8.166
  354POPC   C3B 7377   5.947   4.710   7.711
  354POPC   C4B 7378   6.027   4.581   7.282
  355POPC   NC3 7379   0.084  31.864   9.512
  355POPC   PO4 7380  44.642  32.417   9.572
  355POPC   GL1 7381  44.732  32.237   9.190
  355POPC   GL2 7382   0.069  32.247   9.160
  355POPC   C1A 7383  44.620  32.222   8.756
  355POPC   D2A 7384  44.736  32.061   8.358
  355POPC   C3A 7385  44.751  32.241   7.936
  355POPC   C4A 7386  44.529  32.223   7.507
  355POPC   C1B 7387   0.126  32.057   8.761
  355POPC   C2B 7388   0.148  31.755   8.408
  355POPC   C3B 7389  44.907  31.735   7.998
  355POPC   C4B 7390  44.937  31.935   7.561
  356POPC   NC3 7391  44.175  28.857   9.778
  356POPC   PO4 7392  44.855  29.032   9.659
  356POPC   GL1 7393  44.618  29.125   9.295
  356POPC   GL2 7394  44.698  28.872   9.066
  356POPC   C1A 7395  44.619  29.373   8.897
  356POPC   D2A 7396  44.766  29.497   8.470
  356POPC   C3A 7397  44.536  29.304   8.133
  356POPC   C4A 7398  44.567  29.085   7.759
  356POPC   C1B 7399  44.800  28.949   8.625
  356POPC   C2B 7400  44.568  28.790   8.257
  356POPC   C3B 7401  44.791  28.671   7.900
  356POPC   C4B 7402   0.129  28.900   7.647
  357POPC   NC3 7403  31.368  23.863   9.649
  357POPC   PO4 7404  31.375  23.236   9.868
  357POPC   GL1 7405  31.286  23.460   9.381
  357POPC   GL2 7406  31.569  23.622   9.203
  357POPC   C1A 7407  31.176  23.465   8.917
  357POPC   D2A 7408  31.335  23.636   8.491
  357POPC   C3A 7409  31.395  23.492   8.071
  357POPC   C4A 7410  31.447  23.688   7.703
  357POPC   C1B 7411  31.382  23.934   8.912
  357POPC   C2B 7412  31.490  24.131   8.522
  357POPC   C3B 7413  31.476  24.078   8.093
  357POPC   C4B 7414  31.457  24.220   7.692
  358POPC   NC3 7415  33.374  18.293   9.509
  358POPC   PO4 7416  33.926  18.646   9.479
  358POPC   GL1 7417  33.884  18.422   9.114
  358POPC   GL2 7418  33.673  18.110   9.100
  358POPC   C1A 7419  33.740  18.482   8.697
  358POPC   D2A 7420  33.647  18.238   8.319
  358POPC   C3A 7421  33.799  18.476   7.969
  358POPC   C4A 7422  33.969  18.345   7.602
  358POPC   C1B 7423  34.002  18.050   8.783
  358POPC   C2B 7424  34.046  17.852   8.380
  358POPC   C3B 7425  33.953  17.994   7.971
  358POPC   C4B 7426  33.549  18.071   7.742
  359POPC   NC3 7427   8.189  28.968   9.565
  359POPC   PO4 7428   8.179  29.527   9.486
  359POPC   GL1 7429   8.248  29.231   9.130
  359POPC   GL2 7430   8.383  28.903   9.077
  359POPC   C1A 7431   8.376  29.306   8.718
  359POPC   D2A 7432   8.212  29.544   8.359
  359POPC   C3A 7433   8.237  29.309   7.967
  359POPC   C4A 7434   8.413  28.988   7.726
  359POPC   C1B 7435   8.085  28.869   8.786
  359POPC   C2B 7436   8.055  29.048   8.395
  359POPC   C3B 7437   8.025  28.830   8.054
  359POPC   C4B 7438   7.893  28.950   7.689
  360POPC   NC3 7439   6.411  25.795   9.462
  360POPC   PO4 7440   6.807  26.328   9.554
  360POPC   GL1 7441   6.764  26.140   9.152
  360POPC   GL2 7442   6.582  26.420   9.044
  360POPC   C1A 7443   6.618  26.011   8.722
  360POPC   D2A 7444   6.434  26.125   8.366
  360POPC   C3A 7445   6.597  26.006   8.001
  360POPC   C4A 7446   6.770  25.898   7.615
  360POPC   C1B 7447   6.924  26.402   8.711
  360POPC   C2B 7448   6.921  26.320   8.260
  360POPC   C3B 7449   6.967  26.325   7.802
  360POPC   C4B 7450   7.061  26.233   7.355
  361POPC   NC3 7451  12.981  44.829   9.627
  361POPC   PO4 7452  13.164  44.182   9.534
  361POPC   GL1 7453  12.995  44.504   9.197
  361POPC   GL2 7454  13.162  44.827   9.123
  361POPC   C1A 7455  12.815  44.614   8.802
  361POPC   D2A 7456  12.786  44.811   8.375
  361POPC   C3A 7457  12.730  44.610   7.937
  361POPC   C4A 7458  12.549  44.637   7.518
  361POPC   C1B 7459  13.069   0.064   8.743
  361POPC   C2B 7460  13.070   0.258   8.333
  361POPC   C3B 7461  12.967   0.058   7.958
  361POPC   C4B 7462  13.027  44.851   7.524
  362POPC   NC3 7463  17.275  22.634   9.499
  362POPC   PO4 7464  17.585  23.236   9.430
  362POPC   GL1 7465  17.638  22.891   9.223
  362POPC   GL2 7466  17.340  22.884   9.056
  362POPC   C1A 7467  17.840  22.787   8.847
  362POPC   D2A 7468  17.825  23.079   8.506
  362POPC   C3A 7469  17.839  22.956   8.084
  362POPC   C4A 7470  17.669  22.970   7.697
  362POPC   C1B 7471  17.217  22.961   8.629
  362POPC   C2B 7472  17.350  23.097   8.212
  362POPC   C3B 7473  17.169  23.033   7.810
  362POPC   C4B 7474  16.976  23.266   7.488
  363POPC   NC3 7475  24.711   3.274   9.413
  363POPC   PO4 7476  24.431   3.857   9.528
  363POPC   GL1 7477  24.295   3.619   9.217
  363POPC   GL2 7478  24.609   3.633   9.043
  363POPC   C1A 7479  24.171   3.723   8.803
  363POPC   D2A 7480  24.427   3.598   8.459
  363POPC   C3A 7481  24.337   3.610   8.036
  363POPC   C4A 7482  24.696   3.427   7.809
  363POPC   C1B 7483  24.370   3.259   8.846
  363POPC   C2B 7484  24.535   3.028   8.512
  363POPC   C3B 7485  24.413   3.110   8.101
  363POPC   C4B 7486  24.224   3.204   7.710
  364POPC   NC3 7487   8.001  22.686   9.371
  364POPC   PO4 7488   8.415  23.187   9.529
  364POPC   GL1 7489   8.100  23.141   9.192
  364POPC   GL2 7490   8.148  23.405   9.037
  364POPC   C1A 7491   7.976  22.991   8.772
  364POPC   D2A 7492   8.247  22.886   8.430
  364POPC   C3A 7493   8.145  22.639   8.114
  364POPC   C4A 7494   8.148  22.749   7.708
  364POPC   C1B 7495   8.483  23.140   8.820
  364POPC   C2B 7496   8.619  23.233   8.395
  364POPC   C3B 7497   8.526  23.016   7.984
  364POPC   C4B 7498   8.389  23.127   7.519
  365POPC   NC3 7499  10.848  28.669   9.328
  365POPC   PO4 7500  11.332  28.185   9.594
  365POPC   GL1 7501  11.192  28.308   9.175
  365POPC   GL2 7502  10.875  28.161   9.179
  365POPC   C1A 7503  11.344  28.512   8.777
  365POPC   D2A 7504  11.509  28.792   8.455
  365POPC   C3A 7505  11.452  28.550   8.110
  365POPC   C4A 7506  11.325  28.531   7.721
  365POPC   C1B 7507  11.050  28.014   8.779
  365POPC   C2B 7508  11.129  28.211   8.399
  365POPC   C3B 7509  10.990  28.253   7.998
  365POPC   C4B 7510  11.233  28.015   7.744
  366POPC   NC3 7511  40.669  11.223   9.411
  366POPC   PO4 7512  40.526  11.844   9.378
  366POPC   GL1 7513  40.813  11.653   9.073
  366POPC   GL2 7514  40.835  11.315   8.950
  366POPC   C1A 7515  40.881  11.737   8.641
  366POPC   D2A 7516  40.667  11.551   8.287
  366POPC   C3A 7517  40.878  11.355   7.969
  366POPC   C4A 7518  41.074  10.971   7.907
  366POPC   C1B 7519  40.567  11.077   8.692
  366POPC   C2B 7520  40.687  10.947   8.276
  366POPC   C3B 7521  40.524  11.019   7.868
  366POPC   C4B 7522  40.380  10.796   7.546
  367POPC   NC3 7523   5.516  12.903   9.428
  367POPC   PO4 7524   6.040  12.557   9.653
  367POPC   GL1 7525   5.959  12.750   9.224
  367POPC   GL2 7526   5.698  12.518   9.151
  367POPC   C1A 7527   5.903  12.868   8.750
  367POPC   D2A 7528   6.212  12.782   8.375
  367POPC   C3A 7529   6.145  12.920   7.937
  367POPC   C4A 7530   5.817  13.233   7.896
  367POPC   C1B 7531   5.569  12.458   8.775
  367POPC   C2B 7532   5.439  12.602   8.400
  367POPC   C3B 7533   5.543  12.447   8.034
  367POPC   C4B 7534   5.666  12.754   7.772
  368POPC   NC3 7535  30.054  42.821   9.531
  368POPC   PO4 7536  30.016  43.495   9.587
  368POPC   GL1 7537  29.778  43.348   9.242
  368POPC   GL2 7538  29.923  43.073   9.109
  368POPC   C1A 7539  29.761  43.462   8.806
  368POPC   D2A 7540  30.012  43.348   8.470
  368POPC   C3A 7541  29.915  43.468   8.078
  368POPC   C4A 7542  29.976  43.344   7.668
  368POPC   C1B 7543  29.914  42.911   8.717
  368POPC   C2B 7544  30.074  42.831   8.331
  368POPC   C3B 7545  29.944  42.918   7.949
  368POPC   C4B 7546  30.039  42.830   7.518
  369POPC   NC3 7547  19.584   7.388   9.379
  369POPC   PO4 7548  20.192   7.478   9.751
  369POPC   GL1 7549  20.107   7.405   9.280
  369POPC   GL2 7550  19.907   7.672   9.093
  369POPC   C1A 7551  20.105   7.313   8.815
  369POPC   D2A 7552  19.833   7.463   8.491
  369POPC   C3A 7553  19.972   7.299   8.106
  369POPC   C4A 7554  19.990   7.319   7.676
  369POPC   C1B 7555  19.533   7.767   8.801
  369POPC   C2B 7556  19.322   7.564   8.448
  369POPC   C3B 7557  19.441   7.521   7.989
  369POPC   C4B 7558  19.449   7.844   7.649
  370POPC   NC3 7559  31.567  28.917   9.364
  370POPC   PO4 7560  31.157  29.441   9.236
  370POPC   GL1 7561  31.374  29.310   8.901
  370POPC   GL2 7562  31.702  29.275   8.981
  370POPC   C1A 7563  31.536  29.433   8.532
  370POPC   D2A 7564  31.657  29.554   8.164
  370POPC   C3A 7565  31.460  29.297   7.889
  370POPC   C4A 7566  31.394  28.870   7.848
  370POPC   C1B 7567  31.703  28.934   8.732
  370POPC   C2B 7568  31.575  28.926   8.334
  370POPC   C3B 7569  31.865  28.990   8.047
  370POPC   C4B 7570  31.830  29.068   7.644
  371POPC   NC3 7571  14.504  37.873   9.780
  371POPC   PO4 7572  14.314  37.299   9.376
  371POPC   GL1 7573  14.244  37.588   9.092
  371POPC   GL2 7574  14.446  37.898   9.169
  371POPC   C1A 7575  14.235  37.517   8.658
  371POPC   D2A 7576  14.511  37.234   8.416
  371POPC   C3A 7577  14.606  37.500   8.073
  371POPC   C4A 7578  14.381  37.506   7.700
  371POPC   C1B 7579  14.077  38.027   8.911
  371POPC   C2B 7580  13.945  38.003   8.479
  371POPC   C3B 7581  14.135  38.178   8.113
  371POPC   C4B 7582  14.424  37.987   7.839
  372POPC   NC3 7583  37.829  22.710   9.296
  372POPC   PO4 7584  38.183  23.213   9.615
  372POPC   GL1 7585  38.034  23.177   9.154
  372POPC   GL2 7586  37.702  23.193   9.160
  372POPC   C1A 7587  37.819  23.011   8.715
  372POPC   D2A 7588  37.700  23.192   8.342
  372POPC   C3A 7589  37.752  22.939   8.001
  372POPC   C4A 7590  37.964  22.744   7.700
  372POPC   C1B 7591  37.386  23.263   8.820
  372POPC   C2B 7592  37.196  23.124   8.435
  372POPC   C3B 7593  37.304  23.191   7.987
  372POPC   C4B 7594  37.404  22.960   7.617
  373POPC   NC3 7595   8.227  36.395   9.499
  373POPC   PO4 7596   8.072  37.062   9.365
  373POPC   GL1 7597   8.165  36.772   9.076
  373POPC   GL2 7598   7.874  36.618   9.143
  373POPC   C1A 7599   8.150  36.843   8.616
  373POPC   D2A 7600   8.457  37.006   8.315
  373POPC   C3A 7601   8.279  37.137   7.926
  373POPC   C4A 7602   8.366  37.060   7.480
  373POPC   C1B 7603   7.876  36.430   8.763
  373POPC   C2B 7604   7.815  36.417   8.351
  373POPC   C3B 7605   7.950  36.718   8.067
  373POPC   C4B 7606   7.990  36.779   7.634
  374POPC   NC3 7607  32.602   4.714   9.312
  374POPC   PO4 7608  33.062   5.192   9.590
  374POPC   GL1 7609  32.893   5.194   9.221
  374POPC   GL2 7610  33.236   5.224   9.112
  374POPC   C1A 7611  32.815   5.108   8.804
  374POPC   D2A 7612  32.830   5.342   8.416
  374POPC   C3A 7613  32.922   5.225   8.000
  374POPC   C4A 7614  32.655   5.101   7.651
  374POPC   C1B 7615  33.324   5.063   8.704
  374POPC   C2B 7616  33.073   4.822   8.449
  374POPC   C3B 7617  32.921   4.720   8.067
  374POPC   C4B 7618  33.091   4.829   7.688
  375POPC   NC3 7619  18.215   6.276   9.510
  375POPC   PO4 7620  18.448   5.789   9.892
  375POPC   GL1 7621  18.445   5.828   9.387
  375POPC   GL2 7622  18.129   5.902   9.181
  375POPC   C1A 7623  18.557   5.874   8.917
  375POPC   D2A 7624  18.496   5.979   8.464
  375POPC   C3A 7625  18.544   5.705   8.088
  375POPC   C4A 7626  18.399   5.624   7.679
  375POPC   C1B 7627  18.082   5.782   8.738
  375POPC   C2B 7628  18.085   5.691   8.297
  375POPC   C3B 7629  18.001   5.885   7.894
  375POPC   C4B 7630  17.640   5.954   7.602
  376POPC   NC3 7631  22.340  18.458   9.590
  376POPC   PO4 7632  22.001  17.791   9.484
  376POPC   GL1 7633  21.978  17.974   9.140
  376POPC   GL2 7634  22.264  18.162   9.175
  376POPC   C1A 7635  21.904  18.217   8.786
  376POPC   D2A 7636  22.119  18.345   8.415
  376POPC   C3A 7637  21.917  18.315   8.020
  376POPC   C4A 7638  21.891  18.142   7.620
  376POPC   C1B 7639  22.457  18.204   8.788
  376POPC   C2B 7640  22.665  18.141   8.408
  376POPC   C3B 7641  22.449  18.249   8.039
  376POPC   C4B 7642  22.330  18.414   7.650
  377POPC   NC3 7643  29.397  26.395   9.655
  377POPC   PO4 7644  29.088  26.957   9.447
  377POPC   GL1 7645  29.188  26.700   9.131
  377POPC   GL2 7646  29.518  26.642   9.222
  377POPC   C1A 7647  29.107  26.835   8.703
  377POPC   D2A 7648  29.366  27.025   8.369
  377POPC   C3A 7649  29.406  26.775   8.007
  377POPC   C4A 7650  29.066  26.813   7.771
  377POPC   C1B 7651  29.594  26.776   8.809
  377POPC   C2B 7652  29.540  26.542   8.461
  377POPC   C3B 7653  29.672  26.236   8.176
  377POPC   C4B 7654  29.726  26.427   7.803
  378POPC   NC3 7655  40.669  20.372  10.055
  378POPC   PO4 7656  40.642  20.783   9.527
  378POPC   GL1 7657  40.653  20.688   9.153
  378POPC   GL2 7658  40.455  20.429   9.165
  378POPC   C1A 7659  40.850  20.567   8.794
  378POPC   D2A 7660  40.739  20.794   8.432
  378POPC   C3A 7661  40.554  20.699   8.060
  378POPC   C4A 7662  40.715  20.529   7.762
  378POPC   C1B 7663  40.342  20.631   8.772
  378POPC   C2B 7664  40.311  20.421   8.393
  378POPC   C3B 7665  40.400  20.188   7.980
  378POPC   C4B 7666  40.380  20.277   7.465
  379POPC   NC3 7667  32.184  27.014   9.929
  379POPC   PO4 7668  31.925  26.642   9.421
  379POPC   GL1 7669  32.049  26.723   9.034
  379POPC   GL2 7670  32.382  26.859   9.074
  379POPC   C1A 7671  32.112  27.069   8.721
  379POPC   D2A 7672  32.244  27.077   8.313
  379POPC   C3A 7673  31.956  26.979   8.011
  379POPC   C4A 7674  31.885  26.620   7.719
  379POPC   C1B 7675  32.421  26.670   8.693
  379POPC   C2B 7676  32.326  26.563   8.298
  379POPC   C3B 7677  32.400  26.744   7.899
  379POPC   C4B 7678  32.651  26.885   7.564
  380POPC   NC3 7679  32.840  31.136   9.501
  380POPC   PO4 7680  32.725  31.800   9.527
  380POPC   GL1 7681  32.935  31.692   9.118
  380POPC   GL2 7682  32.874  31.371   9.024
  380POPC   C1A 7683  33.280  31.555   8.783
  380POPC   D2A 7684  33.555  31.734   8.485
  380POPC   C3A 7685  33.571  31.543   8.076
  380POPC   C4A 7686  33.305  31.470   7.758
  380POPC   C1B 7687  32.826  31.659   8.615
  380POPC   C2B 7688  33.006  31.566   8.203
  380POPC   C3B 7689  32.843  31.301   7.859
  380POPC   C4B 7690  32.710  30.876   7.772
  381POPC   NC3 7691  36.406   7.586   9.538
  381POPC   PO4 7692  35.763   7.433   9.591
  381POPC   GL1 7693  35.903   7.699   9.222
  381POPC   GL2 7694  36.258   7.747   9.098
  381POPC   C1A 7695  35.843   7.741   8.785
  381POPC   D2A 7696  35.914   7.527   8.381
  381POPC   C3A 7697  35.940   7.712   7.959
  381POPC   C4A 7698  35.986   7.379   7.655
  381POPC   C1B 7699  36.281   7.439   8.797
  381POPC   C2B 7700  36.430   7.363   8.402
  381POPC   C3B 7701  36.354   7.271   7.998
  381POPC   C4B 7702  36.490   7.590   7.780
  382POPC   NC3 7703   0.993   1.584   9.725
  382POPC   PO4 7704   0.383   1.554   9.466
  382POPC   GL1 7705   0.207   1.347   9.126
  382POPC   GL2 7706   0.256   0.976   9.189
  382POPC   C1A 7707   0.368   1.423   8.725
  382POPC   D2A 7708   0.633   1.291   8.398
  382POPC   C3A 7709   0.405   1.337   8.017
  382POPC   C4A 7710   0.581   1.284   7.638
  382POPC   C1B 7711   0.410   0.928   8.748
  382POPC   C2B 7712   0.366   0.844   8.298
  382POPC   C3B 7713   0.373   0.859   7.844
  382POPC   C4B 7714   0.147   1.048   7.522
  383POPC   NC3 7715  39.379  31.938   9.144
  383POPC   PO4 7716  39.343  32.496   9.618
  383POPC   GL1 7717  39.150  32.652   9.170
  383POPC   GL2 7718  39.042  32.333   9.035
  383POPC   C1A 7719  39.267  32.650   8.690
  383POPC   D2A 7720  39.371  32.365   8.340
  383POPC   C3A 7721  39.345  32.517   7.935
  383POPC   C4A 7722  39.619  32.412   7.594
  383POPC   C1B 7723  39.028  32.146   8.649
  383POPC   C2B 7724  39.362  31.861   8.468
  383POPC   C3B 7725  39.576  31.905   8.084
  383POPC   C4B 7726  39.389  31.953   7.695
  384POPC   NC3 7727  10.250  35.281   9.591
  384POPC   PO4 7728  10.906  35.064   9.326
  384POPC   GL1 7729  10.532  35.174   9.172
  384POPC   GL2 7730  10.478  35.497   9.169
  384POPC   C1A 7731  10.275  35.219   8.797
  384POPC   D2A 7732  10.384  35.219   8.374
  384POPC   C3A 7733  10.135  35.409   8.046
  384POPC   C4A 7734  10.245  35.337   7.646
  384POPC   C1B 7735  10.767  35.412   8.784
  384POPC   C2B 7736  10.788  35.583   8.390
  384POPC   C3B 7737  10.665  35.405   7.974
  384POPC   C4B 7738  10.776  35.501   7.557
  385POPC   NC3 7739  11.889   1.700   9.487
  385POPC   PO4 7740  12.348   2.172   9.747
  385POPC   GL1 7741  12.158   2.111   9.274
  385POPC   GL2 7742  12.162   1.789   9.095
  385POPC   C1A 7743  12.121   2.131   8.756
  385POPC   D2A 7744  12.278   2.305   8.369
  385POPC   C3A 7745  12.165   2.135   7.967
  385POPC   C4A 7746  12.132   2.295   7.535
  385POPC   C1B 7747  11.937   1.658   8.771
  385POPC   C2B 7748  11.923   1.811   8.365
  385POPC   C3B 7749  11.950   1.653   7.988
  385POPC   C4B 7750  12.086   1.781   7.610
  386POPC   NC3 7751  21.644  11.722   9.220
  386POPC   PO4 7752  22.142  12.135   9.373
  386POPC   GL1 7753  21.916  12.166   9.022
  386POPC   GL2 7754  21.602  12.256   9.125
  386POPC   C1A 7755  21.895  11.995   8.600
  386POPC   D2A 7756  21.789  11.927   8.159
  386POPC   C3A 7757  21.446  11.749   7.912
  386POPC   C4A 7758  21.012  11.866   7.805
  386POPC   C1B 7759  21.563  12.431   8.688
  386POPC   C2B 7760  21.411  12.361   8.247
  386POPC   C3B 7761  21.441  12.261   7.808
  386POPC   C4B 7762  21.542  12.360   7.391
  387POPC   NC3 7763  36.832  20.761   9.535
  387POPC   PO4 7764  37.230  20.294   9.311
  387POPC   GL1 7765  36.836  20.411   9.086
  387POPC   GL2 7766  36.769  20.779   9.033
  387POPC   C1A 7767  36.857  20.439   8.643
  387POPC   D2A 7768  37.164  20.507   8.337
  387POPC   C3A 7769  36.883  20.451   8.017
  387POPC   C4A 7770  36.817  20.371   7.608
  387POPC   C1B 7771  37.129  20.853   8.764
  387POPC   C2B 7772  37.073  21.004   8.342
  387POPC   C3B 7773  37.072  20.901   7.915
  387POPC   C4B 7774  36.664  20.866   7.719
  388POPC   NC3 7775  20.197  37.196   9.480
  388POPC   PO4 7776  20.754  36.782   9.480
  388POPC   GL1 7777  20.712  36.664   9.074
  388POPC   GL2 7778  20.482  36.929   9.068
  388POPC   C1A 7779  20.802  36.673   8.629
  388POPC   D2A 7780  20.837  36.960   8.286
  388POPC   C3A 7781  20.847  36.950   7.840
  388POPC   C4A 7782  20.562  36.866   7.479
  388POPC   C1B 7783  20.441  37.067   8.667
  388POPC   C2B 7784  20.240  37.196   8.276
  388POPC   C3B 7785  20.326  37.096   7.843
  388POPC   C4B 7786  20.184  37.269   7.394
  389POPC   NC3 7787  17.971  21.264   9.518
  389POPC   PO4 7788  18.548  21.624   9.365
  389POPC   GL1 7789  18.328  21.440   9.064
  389POPC   GL2 7790  18.007  21.530   9.088
  389POPC   C1A 7791  18.414  21.518   8.641
  389POPC   D2A 7792  18.299  21.219   8.345
  389POPC   C3A 7793  18.491  21.189   7.938
  389POPC   C4A 7794  18.242  21.063   7.616
  389POPC   C1B 7795  17.945  21.775   8.746
  389POPC   C2B 7796  18.005  21.659   8.346
  389POPC   C3B 7797  18.059  21.457   7.967
  389POPC   C4B 7798  18.014  21.787   7.749
  390POPC   NC3 7799  10.184  32.726   9.351
  390POPC   PO4 7800   9.949  33.360   9.462
  390POPC   GL1 7801   9.794  33.061   9.174
  390POPC   GL2 7802  10.065  33.059   8.962
  390POPC   C1A 7803   9.527  32.920   8.816
  390POPC   D2A 7804   9.611  32.667   8.463
  390POPC   C3A 7805   9.697  32.858   8.073
  390POPC   C4A 7806   9.463  33.044   7.746
  390POPC   C1B 7807  10.079  32.689   8.689
  390POPC   C2B 7808  10.066  32.515   8.260
  390POPC   C3B 7809  10.169  32.711   7.887
  390POPC   C4B 7810  10.051  33.124   7.808
  391POPC   NC3 7811  24.136  30.886   9.618
  391POPC   PO4 7812  24.757  30.753   9.596
  391POPC   GL1 7813  24.629  30.621   9.165
  391POPC   GL2 7814  24.298  30.572   9.162
  391POPC   C1A 7815  24.805  30.517   8.731
  391POPC   D2A 7816  24.730  30.665   8.305
  391POPC   C3A 7817  24.814  30.612   7.833
  391POPC   C4A 7818  24.890  30.799   7.378
  391POPC   C1B 7819  24.285  30.580   8.675
  391POPC   C2B 7820  24.183  30.566   8.232
  391POPC   C3B 7821  24.266  30.480   7.803
  391POPC   C4B 7822  24.083  30.461   7.358
  392POPC   NC3 7823  38.745  42.393   9.483
  392POPC   PO4 7824  38.185  42.008   9.470
  392POPC   GL1 7825  38.487  42.101   9.137
  392POPC   GL2 7826  38.542  42.508   9.032
  392POPC   C1A 7827  38.582  42.115   8.702
  392POPC   D2A 7828  38.503  42.501   8.478
  392POPC   C3A 7829  38.481  42.420   8.047
  392POPC   C4A 7830  38.640  42.239   7.654
  392POPC   C1B 7831  38.253  42.785   8.810
  392POPC   C2B 7832  38.061  42.746   8.412
  392POPC   C3B 7833  38.171  42.881   7.976
  392POPC   C4B 7834  38.439  42.730   7.653
  393POPC   NC3 7835  38.476  20.187   9.529
  393POPC   PO4 7836  38.332  19.596   9.331
  393POPC   GL1 7837  38.551  19.893   9.077
  393POPC   GL2 7838  38.232  20.036   9.043
  393POPC   C1A 7839  38.603  19.790   8.612
  393POPC   D2A 7840  38.448  19.738   8.168
  393POPC   C3A 7841  38.690  19.744   7.760
  393POPC   C4A 7842  38.813  19.609   7.297
  393POPC   C1B 7843  38.104  19.980   8.611
  393POPC   C2B 7844  38.012  20.016   8.178
  393POPC   C3B 7845  38.197  19.993   7.769
  393POPC   C4B 7846  38.093  20.278   7.456
  394POPC   NC3 7847  13.563   7.966   9.601
  394POPC   PO4 7848  13.498   8.674   9.688
  394POPC   GL1 7849  13.474   8.444   9.282
  394POPC   GL2 7850  13.790   8.270   9.227
  394POPC   C1A 7851  13.385   8.123   8.953
  394POPC   D2A 7852  13.534   8.076   8.555
  394POPC   C3A 7853  13.501   7.947   8.152
  394POPC   C4A 7854  13.700   8.223   7.868
  394POPC   C1B 7855  13.878   7.944   8.902
  394POPC   C2B 7856  14.008   7.915   8.445
  394POPC   C3B 7857  13.956   7.771   8.000
  394POPC   C4B 7858  13.754   7.823   7.569
  395POPC   NC3 7859  12.230   0.113   9.475
  395POPC   PO4 7860  11.741   0.540   9.728
  395POPC   GL1 7861  11.861   0.455   9.267
  395POPC   GL2 7862  11.905   0.773   9.111
  395POPC   C1A 7863  11.998   0.220   8.861
  395POPC   D2A 7864  12.047  44.976   8.454
  395POPC   C3A 7865  12.034   0.306   8.121
  395POPC   C4A 7866  12.232   0.481   7.735
  395POPC   C1B 7867  12.180   0.777   8.739
  395POPC   C2B 7868  12.317   0.747   8.292
  395POPC   C3B 7869  12.429   0.935   7.889
  395POPC   C4B 7870  12.323   0.902   7.439
  396POPC   NC3 7871  42.460  27.879   9.396
  396POPC   PO4 7872  42.732  27.276   9.387
  396POPC   GL1 7873  42.418  27.393   9.025
  396POPC   GL2 7874  42.592  27.674   8.916
  396POPC   C1A 7875  42.091  27.632   8.757
  396POPC   D2A 7876  41.885  27.751   8.397
  396POPC   C3A 7877  42.210  27.756   8.132
  396POPC   C4A 7878  42.422  27.703   7.786
  396POPC   C1B 7879  42.841  27.304   8.737
  396POPC   C2B 7880  42.786  27.088   8.357
  396POPC   C3B 7881  42.628  27.329   8.068
  396POPC   C4B 7882  42.640  27.256   7.668
  397POPC   NC3 7883   0.905  33.967   9.634
  397POPC   PO4 7884   1.540  33.693   9.519
  397POPC   GL1 7885   1.311  33.806   9.135
  397POPC   GL2 7886   0.975  33.743   9.147
  397POPC   C1A 7887   1.206  33.682   8.684
  397POPC   D2A 7888   1.328  33.791   8.260
  397POPC   C3A 7889   1.089  33.596   7.972
  397POPC   C4A 7890   0.735  33.660   7.775
  397POPC   C1B 7891   1.006  34.122   8.835
  397POPC   C2B 7892   1.045  34.204   8.464
  397POPC   C3B 7893   0.842  34.028   8.155
  397POPC   C4B 7894   0.910  34.120   7.757
  398POPC   NC3 7895   4.608  16.055   9.312
  398POPC   PO4 7896   3.973  15.864   9.079
  398POPC   GL1 7897   4.306  15.971   8.932
  398POPC   GL2 7898   4.502  15.677   8.970
  398POPC   C1A 7899   4.389  16.221   8.605
  398POPC   D2A 7900   4.539  16.141   8.209
  398POPC   C3A 7901   4.214  16.136   7.883
  398POPC   C4A 7902   4.280  16.148   7.428
  398POPC   C1B 7903   4.437  15.710   8.526
  398POPC   C2B 7904   4.071  15.887   8.323
  398POPC   C3B 7905   3.914  15.704   7.943
  398POPC   C4B 7906   4.266  15.683   7.638
  399POPC   NC3 7907  21.107  16.993   9.404
  399POPC   PO4 7908  21.786  16.816   9.524
  399POPC   GL1 7909  21.488  16.751   9.161
  399POPC   GL2 7910  21.401  16.374   9.135
  399POPC   C1A 7911  21.396  16.990   8.756
  399POPC   D2A 7912  21.481  17.177   8.312
  399POPC   C3A 7913  21.373  16.951   7.929
  399POPC   C4A 7914  21.460  16.748   7.525
  399POPC   C1B 7915  21.211  16.499   8.752
  399POPC   C2B 7916  21.278  16.672   8.354
  399POPC   C3B 7917  21.318  16.456   7.966
  399POPC   C4B 7918  21.217  16.284   7.573
  400POPC   NC3 7919   4.240  10.727   9.377
  400POPC   PO4 7920   4.115  10.100   9.753
  400POPC   GL1 7921   4.522  10.207   9.344
  400POPC   GL2 7922   4.655  10.512   9.161
  400POPC   C1A 7923   4.498  10.157   8.837
  400POPC   D2A 7924   4.211  10.287   8.505
  400POPC   C3A 7925   4.377  10.357   8.086
  400POPC   C4A 7926   4.232  10.443   7.655
  400POPC   C1B 7927   4.462  10.693   8.746
  400POPC   C2B 7928   4.570  10.841   8.295
  400POPC   C3B 7929   4.598  10.761   7.825
  400POPC   C4B 7930   4.497  10.812   7.387
  401POPC   NC3 7931  38.166   3.955   9.530
  401POPC   PO4 7932  38.566   3.446   9.677
  401POPC   GL1 7933  38.441   3.601   9.271
  401POPC   GL2 7934  38.431   3.279   9.177
  401POPC   C1A 7935  38.466   3.624   8.796
  401POPC   D2A 7936  38.729   3.661   8.412
  401POPC   C3A 7937  38.498   3.674   8.010
  401POPC   C4A 7938  38.698   3.765   7.601
  401POPC   C1B 7939  38.265   3.105   8.823
  401POPC   C2B 7940  38.375   3.209   8.412
  401POPC   C3B 7941  38.200   3.141   8.003
  401POPC   C4B 7942  38.427   3.266   7.659
  402POPC   NC3 7943  28.198  27.757   9.547
  402POPC   PO4 7944  28.862  27.859   9.369
  402POPC   GL1 7945  28.477  27.667   9.119
  402POPC   GL2 7946  28.079  27.702   9.073
  402POPC   C1A 7947  28.398  27.410   8.755
  402POPC   D2A 7948  28.670  27.383   8.369
  402POPC   C3A 7949  28.515  27.189   7.987
  402POPC   C4A 7950  28.468  27.405   7.577
  402POPC   C1B 7951  27.927  27.780   8.667
  402POPC   C2B 7952  28.273  27.739   8.382
  402POPC   C3B 7953  28.429  27.702   8.002
  402POPC   C4B 7954  28.064  27.629   7.755
  403POPC   NC3 7955  32.678   8.189   9.492
  403POPC   PO4 7956  32.044   7.942   9.456
  403POPC   GL1 7957  32.274   8.238   9.144
  403POPC   GL2 7958  32.590   8.393   9.006
  403POPC   C1A 7959  32.161   8.330   8.720
  403POPC   D2A 7960  32.047   8.067   8.374
  403POPC   C3A 7961  32.237   8.213   8.035
  403POPC   C4A 7962  32.146   8.045   7.677
  403POPC   C1B 7963  32.627   8.076   8.748
  403POPC   C2B 7964  32.551   7.913   8.362
  403POPC   C3B 7965  32.716   8.041   7.956
  403POPC   C4B 7966  32.694   7.974   7.512
  404POPC   NC3 7967   0.854  42.228   9.627
  404POPC   PO4 7968   0.145  42.043   9.453
  404POPC   GL1 7969   0.382  42.309   9.222
  404POPC   GL2 7970   0.095  42.458   9.033
  404POPC   C1A 7971   0.565  42.458   8.829
  404POPC   D2A 7972   0.380  42.556   8.399
  404POPC   C3A 7973   0.588  42.479   7.991
  404POPC   C4A 7974   0.656  42.210   7.651
  404POPC   C1B 7975   0.128  42.216   8.716
  404POPC   C2B 7976   0.382  41.977   8.467
  404POPC   C3B 7977   0.298  42.093   8.066
  404POPC   C4B 7978   0.186  41.967   7.682
  405POPC   NC3 7979   9.653   4.710   9.405
  405POPC   PO4 7980  10.038   5.214   9.649
  405POPC   GL1 7981   9.737   5.210   9.241
  405POPC   GL2 7982   9.809   4.985   9.001
  405POPC   C1A 7983   9.605   5.409   8.814
  405POPC   D2A 7984   9.499   5.154   8.435
  405POPC   C3A 7985   9.757   5.121   8.069
  405POPC   C4A 7986   9.664   5.315   7.640
  405POPC   C1B 7987   9.999   4.862   8.620
  405POPC   C2B 7988  10.244   4.741   8.270
  405POPC   C3B 7989  10.128   4.809   7.849
  405POPC   C4B 7990   9.920   4.921   7.453
  406POPC   NC3 7991   5.246  24.064   9.305
  406POPC   PO4 7992   5.150  23.367   9.550
  406POPC   GL1 7993   4.843  23.743   9.185
  406POPC   GL2 7994   4.880  24.094   8.963
  406POPC   C1A 7995   4.861  23.687   8.683
  406POPC   D2A 7996   5.183  23.458   8.455
  406POPC   C3A 7997   5.124  23.562   8.039
  406POPC   C4A 7998   5.098  23.547   7.611
  406POPC   C1B 7999   5.225  24.034   8.615
  406POPC   C2B 8000   5.359  24.019   8.194
  406POPC   C3B 8001   5.380  23.933   7.750
  406POPC   C4B 8002   5.350  23.837   7.300
  407POPC   NC3 8003  13.191  32.887   9.368
  407POPC   PO4 8004  13.745  33.272   9.382
  407POPC   GL1 8005  13.477  33.203   9.053
  407POPC   GL2 8006  13.693  32.908   8.974
  407POPC   C1A 8007  13.341  33.031   8.645
  407POPC   D2A 8008  13.690  32.945   8.378
  407POPC   C3A 8009  13.561  32.929   7.988
  407POPC   C4A 8010  13.476  33.216   7.681
  407POPC   C1B 8011  14.043  32.783   8.717
  407POPC   C2B 8012  14.031  32.528   8.327
  407POPC   C3B 8013  13.914  32.551   7.886
  407POPC   C4B 8014  13.874  32.907   7.584
  408POPC   NC3 8015  13.902  21.128   9.505
  408POPC   PO4 8016  13.674  21.765   9.337
  408POPC   GL1 8017  13.652  21.453   9.069
  408POPC   GL2 8018  13.446  21.219   9.230
  408POPC   C1A 8019  13.691  21.520   8.631
  408POPC   D2A 8020  13.943  21.777   8.410
  408POPC   C3A 8021  13.667  21.739   8.068
  408POPC   C4A 8022  13.710  21.481   7.696
  408POPC   C1B 8023  13.396  21.126   8.769
  408POPC   C2B 8024  13.623  21.072   8.376
  408POPC   C3B 8025  13.636  21.001   7.946
  408POPC   C4B 8026  13.325  21.121   7.637
  409POPC   NC3 8027  19.974  17.308   9.417
  409POPC   PO4 8028  19.680  17.971   9.449
  409POPC   GL1 8029  19.785  17.685   9.100
  409POPC   GL2 8030  19.590  17.367   9.011
  409POPC   C1A 8031  19.961  17.592   8.706
  409POPC   D2A 8032  20.207  17.613   8.347
  409POPC   C3A 8033  19.990  17.607   7.964
  409POPC   C4A 8034  19.984  17.224   7.697
  409POPC   C1B 8035  19.450  17.726   8.738
  409POPC   C2B 8036  19.581  17.703   8.311
  409POPC   C3B 8037  19.497  17.426   7.944
  409POPC   C4B 8038  19.469  17.208   7.558
  410POPC   NC3 8039   3.330  35.297   9.276
  410POPC   PO4 8040   3.808  35.714   9.435
  410POPC   GL1 8041   3.807  35.490   9.067
  410POPC   GL2 8042   3.822  35.123   9.070
  410POPC   C1A 8043   3.644  35.407   8.678
  410POPC   D2A 8044   3.806  35.413   8.312
  410POPC   C3A 8045   3.452  35.470   8.077
  410POPC   C4A 8046   3.360  35.305   7.669
  410POPC   C1B 8047   3.564  34.901   8.737
  410POPC   C2B 8048   3.413  34.962   8.329
  410POPC   C3B 8049   3.676  35.031   7.961
  410POPC   C4B 8050   3.900  35.078   7.591
  411POPC   NC3 8051  33.629   0.863   9.396
  411POPC   PO4 8052  33.957   1.349   9.744
  411POPC   GL1 8053  33.938   1.307   9.229
  411POPC   GL2 8054  34.035   0.989   9.093
  411POPC   C1A 8055  33.800   1.308   8.728
  411POPC   D2A 8056  33.708   1.444   8.275
  411POPC   C3A 8057  33.921   1.291   7.880
  411POPC   C4A 8058  34.103   1.011   7.557
  411POPC   C1B 8059  33.887   0.809   8.667
  411POPC   C2B 8060  33.822   0.734   8.229
  411POPC   C3B 8061  33.526   0.994   7.977
  411POPC   C4B 8062  33.607   1.090   7.490
  412POPC   NC3 8063   5.761  25.579   9.514
  412POPC   PO4 8064   5.547  24.913   9.434
  412POPC   GL1 8065   5.818  25.183   9.137
  412POPC   GL2 8066   5.997  25.525   9.071
  412POPC   C1A 8067   5.674  25.303   8.719
  412POPC   D2A 8068   5.582  25.084   8.326
  412POPC   C3A 8069   5.746  25.230   7.897
  412POPC   C4A 8070   6.023  24.989   7.594
  412POPC   C1B 8071   6.192  25.324   8.732
  412POPC   C2B 8072   6.021  25.419   8.333
  412POPC   C3B 8073   6.202  25.617   7.990
  412POPC   C4B 8074   6.238  25.450   7.588
  413POPC   NC3 8075  22.083  27.955   9.338
  413POPC   PO4 8076  21.981  28.587   9.685
  413POPC   GL1 8077  21.984  28.503   9.226
  413POPC   GL2 8078  22.206  28.328   9.029
  413POPC   C1A 8079  21.778  28.423   8.791
  413POPC   D2A 8080  22.150  28.328   8.506
  413POPC   C3A 8081  22.197  28.441   8.083
  413POPC   C4A 8082  22.297  28.539   7.664
  413POPC   C1B 8083  22.444  28.019   8.799
  413POPC   C2B 8084  22.356  27.854   8.418
  413POPC   C3B 8085  22.582  28.042   8.073
  413POPC   C4B 8086  22.671  28.203   7.646
  414POPC   NC3 8087   7.551  41.821   9.470
  414POPC   PO4 8088   7.373  42.509   9.511
  414POPC   GL1 8089   7.572  42.257   9.201
  414POPC   GL2 8090   7.256  42.110   9.160
  414POPC   C1A 8091   7.715  42.196   8.772
  414POPC   D2A 8092   7.665  42.434   8.403
  414POPC   C3A 8093   7.849  42.334   8.007
  414POPC   C4A 8094   7.636  42.244   7.640
  414POPC   C1B 8095   7.190  42.083   8.767
  414POPC   C2B 8096   7.379  42.009   8.382
  414POPC   C3B 8097   7.333  42.167   8.021
  414POPC   C4B 8098   7.129  42.073   7.669
  415POPC   NC3 8099  24.535  14.284   9.477
  415POPC   PO4 8100  24.256  14.963   9.545
  415POPC   GL1 8101  24.275  14.725   9.137
  415POPC   GL2 8102  24.240  14.350   9.057
  415POPC   C1A 8103  24.570  14.597   8.777
  415POPC   D2A 8104  24.728  14.366   8.414
  415POPC   C3A 8105  24.675  14.513   7.985
  415POPC   C4A 8106  24.858  14.186   7.764
  415POPC   C1B 8107  24.282  14.155   8.649
  415POPC   C2B 8108  24.242  14.287   8.223
  415POPC   C3B 8109  24.231  14.331   7.787
  415POPC   C4B 8110  23.982  14.484   7.424
  416POPC   NC3 8111   6.982  36.697   9.466
  416POPC   PO4 8112   6.418  37.018   9.683
  416POPC   GL1 8113   6.516  36.896   9.239
  416POPC   GL2 8114   6.557  36.523   9.191
  416POPC   C1A 8115   6.773  36.902   8.836
  416POPC   D2A 8116   7.074  36.921   8.480
  416POPC   C3A 8117   6.876  37.007   8.070
  416POPC   C4A 8118   6.732  36.987   7.640
  416POPC   C1B 8119   6.412  36.542   8.748
  416POPC   C2B 8120   6.474  36.747   8.318
  416POPC   C3B 8121   6.307  36.830   7.881
  416POPC   C4B 8122   6.270  36.719   7.417
  417POPC   NC3 8123  17.056  39.671   9.570
  417POPC   PO4 8124  16.623  40.158   9.556
  417POPC   GL1 8125  16.714  39.941   9.215
  417POPC   GL2 8126  16.812  40.269   9.054
  417POPC   C1A 8127  16.736  39.824   8.793
  417POPC   D2A 8128  16.735  40.065   8.396
  417POPC   C3A 8129  16.748  39.838   7.997
  417POPC   C4A 8130  16.478  39.810   7.628
  417POPC   C1B 8131  16.886  40.495   8.667
  417POPC   C2B 8132  17.060  40.658   8.286
  417POPC   C3B 8133  16.952  40.344   8.016
  417POPC   C4B 8134  16.813  40.208   7.622
  418POPC   NC3 8135  26.008  30.176   9.408
  418POPC   PO4 8136  25.960  29.434   9.495
  418POPC   GL1 8137  25.953  29.647   9.105
  418POPC   GL2 8138  25.749  29.937   9.064
  418POPC   C1A 8139  25.831  29.641   8.672
  418POPC   D2A 8140  26.023  29.787   8.337
  418POPC   C3A 8141  25.780  29.691   8.011
  418POPC   C4A 8142  25.947  29.717   7.627
  418POPC   C1B 8143  26.090  30.066   8.788
  418POPC   C2B 8144  26.107  30.287   8.408
  418POPC   C3B 8145  26.089  30.151   7.967
  418POPC   C4B 8146  26.203  30.278   7.539
  419POPC   NC3 8147   8.764  19.887   9.291
  419POPC   PO4 8148   8.162  19.744   9.589
  419POPC   GL1 8149   8.025  19.690   9.175
  419POPC   GL2 8150   8.347  19.705   9.049
  419POPC   C1A 8151   7.945  19.853   8.751
  419POPC   D2A 8152   8.216  19.955   8.397
  419POPC   C3A 8153   8.057  19.916   8.008
  419POPC   C4A 8154   7.879  19.754   7.623
  419POPC   C1B 8155   8.636  19.547   8.740
  419POPC   C2B 8156   8.688  19.681   8.343
  419POPC   C3B 8157   8.584  19.921   8.026
  419POPC   C4B 8158   8.394  19.839   7.648
  420POPC   NC3 8159  39.994  32.038   9.614
  420POPC   PO4 8160  39.557  32.353   9.166
  420POPC   GL1 8161  39.898  32.095   9.128
  420POPC   GL2 8162  40.113  32.370   9.176
  420POPC   C1A 8163  40.118  31.970   8.798
  420POPC   D2A 8164  39.844  32.134   8.476
  420POPC   C3A 8165  39.988  32.256   8.083
  420POPC   C4A 8166  39.927  32.027   7.721
  420POPC   C1B 8167  40.121  32.492   8.747
  420POPC   C2B 8168  40.332  32.613   8.364
  420POPC   C3B 8169  40.335  32.731   7.926
  420POPC   C4B 8170  40.120  32.500   7.603
  421POPC   NC3 8171  22.926  14.281   9.482
  421POPC   PO4 8172  23.268  14.808   9.539
  421POPC   GL1 8173  23.077  14.651   9.152
  421POPC   GL2 8174  23.284  14.325   9.129
  421POPC   C1A 8175  22.945  14.472   8.754
  421POPC   D2A 8176  22.841  14.569   8.348
  421POPC   C3A 8177  22.734  14.262   8.062
  421POPC   C4A 8178  22.910  14.371   7.699
  421POPC   C1B 8179  23.352  14.161   8.737
  421POPC   C2B 8180  23.101  14.103   8.388
  421POPC   C3B 8181  23.270  14.121   7.992
  421POPC   C4B 8182  23.165  13.949   7.570
  422POPC   NC3 8183  31.624  41.858   9.509
  422POPC   PO4 8184  31.418  41.171   9.478
  422POPC   GL1 8185  31.458  41.513   9.155
  422POPC   GL2 8186  31.785  41.627   9.092
  422POPC   C1A 8187  31.372  41.730   8.763
  422POPC   D2A 8188  31.525  41.837   8.358
  422POPC   C3A 8189  31.510  41.736   7.937
  422POPC   C4A 8190  31.246  41.410   7.795
  422POPC   C1B 8191  31.864  41.551   8.669
  422POPC   C2B 8192  31.902  41.298   8.322
  422POPC   C3B 8193  31.804  41.333   7.916
  422POPC   C4B 8194  31.900  41.575   7.580
  423POPC   NC3 8195   5.131   7.792   9.774
  423POPC   PO4 8196   5.174   7.270   9.541
  423POPC   GL1 8197   5.228   7.484   9.198
  423POPC   GL2 8198   4.981   7.650   9.215
  423POPC   C1A 8199   5.273   7.317   8.823
  423POPC   D2A 8200   5.120   7.202   8.451
  423POPC   C3A 8201   5.230   7.537   8.225
  423POPC   C4A 8202   5.259   7.428   7.816
  423POPC   C1B 8203   4.771   7.579   8.828
  423POPC   C2B 8204   4.757   7.685   8.392
  423POPC   C3B 8205   4.780   7.564   7.969
  423POPC   C4B 8206   4.889   7.672   7.543
  424POPC   NC3 8207  11.563  17.089   9.332
  424POPC   PO4 8208  10.999  16.722   9.533
  424POPC   GL1 8209  11.238  16.741   9.174
  424POPC   GL2 8210  11.096  17.021   9.116
  424POPC   C1A 8211  11.373  16.816   8.726
  424POPC   D2A 8212  11.279  16.655   8.308
  424POPC   C3A 8213  11.488  16.828   7.957
  424POPC   C4A 8214  11.461  16.640   7.592
  424POPC   C1B 8215  10.893  17.034   8.759
  424POPC   C2B 8216  10.842  16.957   8.348
  424POPC   C3B 8217  10.990  16.919   7.948
  424POPC   C4B 8218  11.200  17.087   7.615
  425POPC   NC3 8219   0.972  24.980   9.547
  425POPC   PO4 8220   1.501  24.657   9.520
  425POPC   GL1 8221   1.211  24.698   9.197
  425POPC   GL2 8222   1.366  24.451   9.060
  425POPC   C1A 8223   1.173  24.847   8.772
  425POPC   D2A 8224   1.327  24.735   8.378
  425POPC   C3A 8225   1.155  24.347   8.176
  425POPC   C4A 8226   1.041  24.588   7.888
  425POPC   C1B 8227   1.297  24.332   8.682
  425POPC   C2B 8228   1.620  24.346   8.367
  425POPC   C3B 8229   1.589  24.535   7.964
  425POPC   C4B 8230   1.373  24.314   7.659
  426POPC   NC3 8231   7.100  16.574   9.431
  426POPC   PO4 8232   7.696  16.738   9.377
  426POPC   GL1 8233   7.480  16.573   9.080
  426POPC   GL2 8234   7.280  16.893   9.047
  426POPC   C1A 8235   7.296  16.501   8.714
  426POPC   D2A 8236   7.302  16.780   8.395
  426POPC   C3A 8237   7.579  16.757   8.113
  426POPC   C4A 8238   7.460  16.486   7.792
  426POPC   C1B 8239   7.258  17.189   8.693
  426POPC   C2B 8240   7.440  17.267   8.291
  426POPC   C3B 8241   7.507  17.196   7.866
  426POPC   C4B 8242   7.257  16.915   7.619
  427POPC   NC3 8243  10.358  23.122   9.375
  427POPC   PO4 8244  10.956  22.808   9.514
  427POPC   GL1 8245  10.704  22.808   9.155
  427POPC   GL2 8246  10.709  23.165   9.028
  427POPC   C1A 8247  10.529  22.616   8.791
  427POPC   D2A 8248  10.721  22.615   8.362
  427POPC   C3A 8249  10.481  22.655   7.986
  427POPC   C4A 8250  10.299  23.048   7.852
  427POPC   C1B 8251  10.778  23.034   8.651
  427POPC   C2B 8252  11.021  23.021   8.301
  427POPC   C3B 8253  10.835  23.058   7.902
  427POPC   C4B 8254  10.690  23.434   7.667
  428POPC   NC3 8255  18.765  37.509   9.531
  428POPC   PO4 8256  19.243  37.986   9.387
  428POPC   GL1 8257  19.384  37.629   9.149
  428POPC   GL2 8258  19.101  37.441   9.151
  428POPC   C1A 8259  19.429  37.697   8.714
  428POPC   D2A 8260  19.331  37.999   8.363
  428POPC   C3A 8261  19.258  37.835   7.917
  428POPC   C4A 8262  19.380  37.449   7.654
  428POPC   C1B 8263  18.924  37.683   8.824
  428POPC   C2B 8264  19.010  37.605   8.399
  428POPC   C3B 8265  18.776  37.753   8.065
  428POPC   C4B 8266  18.740  37.975   7.691
  429POPC   NC3 8267   9.710   0.117   9.604
  429POPC   PO4 8268  10.137   0.552   9.618
  429POPC   GL1 8269   9.908   0.521   9.236
  429POPC   GL2 8270  10.064   0.796   9.097
  429POPC   C1A 8271   9.655   0.462   8.855
  429POPC   D2A 8272   9.607   0.631   8.438
  429POPC   C3A 8273   9.374   0.521   8.060
  429POPC   C4A 8274   9.550   0.344   7.701
  429POPC   C1B 8275  10.164   0.524   8.762
  429POPC   C2B 8276  10.180   0.642   8.350
  429POPC   C3B 8277   9.921   0.571   8.008
  429POPC   C4B 8278   9.939   0.666   7.588
  430POPC   NC3 8279  29.987  36.341   9.526
  430POPC   PO4 8280  29.829  35.701   9.340
  430POPC   GL1 8281  29.839  36.100   9.102
  430POPC   GL2 8282  30.196  36.180   9.075
  430POPC   C1A 8283  29.881  36.314   8.692
  430POPC   D2A 8284  29.596  36.374   8.337
  430POPC   C3A 8285  29.832  36.322   7.986
  430POPC   C4A 8286  29.717  35.912   7.872
  430POPC   C1B 8287  30.102  35.862   8.720
  430POPC   C2B 8288  30.066  35.913   8.247
  430POPC   C3B 8289  30.225  36.009   7.818
  430POPC   C4B 8290  30.392  36.257   7.440
  431POPC   NC3 8291  39.275  24.868   9.422
  431POPC   PO4 8292  39.038  25.531   9.460
  431POPC   GL1 8293  39.246  25.294   9.146
  431POPC   GL2 8294  39.015  24.978   9.007
  431POPC   C1A 8295  39.263  25.325   8.726
  431POPC   D2A 8296  39.020  25.135   8.420
  431POPC   C3A 8297  39.081  25.364   8.075
  431POPC   C4A 8298  38.837  25.494   7.750
  431POPC   C1B 8299  39.306  24.812   8.710
  431POPC   C2B 8300  39.530  25.054   8.365
  431POPC   C3B 8301  39.339  24.929   7.977
  431POPC   C4B 8302  39.322  24.760   7.565
  432POPC   NC3 8303   6.096  32.930   9.307
  432POPC   PO4 8304   5.657  33.420   9.430
  432POPC   GL1 8305   5.632  33.097   9.103
  432POPC   GL2 8306   5.627  32.715   9.192
  432POPC   C1A 8307   5.884  33.074   8.711
  432POPC   D2A 8308   5.988  32.727   8.441
  432POPC   C3A 8309   6.018  32.831   8.008
  432POPC   C4A 8310   5.784  33.156   7.811
  432POPC   C1B 8311   5.515  32.717   8.753
  432POPC   C2B 8312   5.519  32.954   8.367
  432POPC   C3B 8313   5.474  32.804   7.992
  432POPC   C4B 8314   5.295  32.962   7.641
  433POPC   NC3 8315  25.633  19.398   9.511
  433POPC   PO4 8316  25.197  18.834   9.514
  433POPC   GL1 8317  25.458  19.017   9.183
  433POPC   GL2 8318  25.326  19.336   9.098
  433POPC   C1A 8319  25.571  19.071   8.753
  433POPC   D2A 8320  25.290  19.191   8.470
  433POPC   C3A 8321  25.383  19.017   8.092
  433POPC   C4A 8322  25.284  19.055   7.694
  433POPC   C1B 8323  24.957  19.531   8.877
  433POPC   C2B 8324  24.854  19.463   8.440
  433POPC   C3B 8325  24.979  19.324   8.032
  433POPC   C4B 8326  24.820  19.432   7.609
  434POPC   NC3 8327  16.733  20.098   9.516
  434POPC   PO4 8328  16.595  19.490   9.677
  434POPC   GL1 8329  16.749  19.576   9.235
  434POPC   GL2 8330  16.471  19.722   9.031
  434POPC   C1A 8331  16.917  19.733   8.804
  434POPC   D2A 8332  16.616  19.641   8.443
  434POPC   C3A 8333  16.857  19.687   8.100
  434POPC   C4A 8334  17.008  19.813   7.714
  434POPC   C1B 8335  16.286  19.978   8.681
  434POPC   C2B 8336  16.283  19.990   8.209
  434POPC   C3B 8337  16.484  19.838   7.785
  434POPC   C4B 8338  16.639  19.610   7.399
  435POPC   NC3 8339  32.773  24.320   9.471
  435POPC   PO4 8340  33.362  24.646   9.605
  435POPC   GL1 8341  33.151  24.572   9.226
  435POPC   GL2 8342  33.128  24.936   9.175
  435POPC   C1A 8343  33.036  24.356   8.823
  435POPC   D2A 8344  33.137  24.522   8.408
  435POPC   C3A 8345  33.224  24.235   8.093
  435POPC   C4A 8346  33.507  24.190   7.776
  435POPC   C1B 8347  32.859  24.833   8.816
  435POPC   C2B 8348  32.636  24.531   8.524
  435POPC   C3B 8349  32.648  24.497   8.067
  435POPC   C4B 8350  32.982  24.760   7.953
  436POPC   NC3 8351  23.185  18.440   9.572
  436POPC   PO4 8352  22.609  18.068   9.703
  436POPC   GL1 8353  22.775  18.172   9.290
  436POPC   GL2 8354  22.678  18.485   9.171
  436POPC   C1A 8355  22.953  18.100   8.863
  436POPC   D2A 8356  23.244  18.064   8.502
  436POPC   C3A 8357  23.102  18.081   8.067
  436POPC   C4A 8358  23.305  18.376   7.767
  436POPC   C1B 8359  22.689  18.693   8.785
  436POPC   C2B 8360  22.586  18.637   8.386
  436POPC   C3B 8361  22.846  18.542   8.026
  436POPC   C4B 8362  22.818  18.248   7.670
  437POPC   NC3 8363   0.246  18.703   9.509
  437POPC   PO4 8364   0.789  19.060   9.511
  437POPC   GL1 8365   0.559  18.832   9.146
  437POPC   GL2 8366   0.193  18.993   9.087
  437POPC   C1A 8367   0.434  18.684   8.742
  437POPC   D2A 8368   0.612  18.914   8.405
  437POPC   C3A 8369   0.593  18.768   7.989
  437POPC   C4A 8370   0.702  18.985   7.569
  437POPC   C1B 8371   0.171  19.118   8.654
  437POPC   C2B 8372   0.156  19.029   8.223
  437POPC   C3B 8373   0.354  19.214   7.865
  437POPC   C4B 8374   0.239  19.265   7.432
  438POPC   NC3 8375  24.468  27.774   9.518
  438POPC   PO4 8376  24.002  27.260   9.469
  438POPC   GL1 8377  24.262  27.485   9.128
  438POPC   GL2 8378  24.618  27.673   9.062
  438POPC   C1A 8379  24.212  27.787   8.788
  438POPC   D2A 8380  24.476  27.884   8.425
  438POPC   C3A 8381  24.319  27.655   8.057
  438POPC   C4A 8382  24.247  27.747   7.634
  438POPC   C1B 8383  24.615  27.382   8.758
  438POPC   C2B 8384  24.825  27.457   8.371
  438POPC   C3B 8385  24.836  27.771   8.059
  438POPC   C4B 8386  24.722  27.570   7.674
  439POPC   NC3 8387  18.074  44.400   9.707
  439POPC   PO4 8388  18.191   0.070   9.671
  439POPC   GL1 8389  18.199  44.852   9.283
  439POPC   GL2 8390  17.972  44.603   9.197
  439POPC   C1A 8391  18.398  44.712   8.903
  439POPC   D2A 8392  18.524  44.656   8.476
  439POPC   C3A 8393  18.301  44.552   8.123
  439POPC   C4A 8394  18.393  44.773   7.749
  439POPC   C1B 8395  17.948  44.505   8.754
  439POPC   C2B 8396  17.934  44.158   8.444
  439POPC   C3B 8397  17.987  44.153   7.998
  439POPC   C4B 8398  18.107  44.372   7.637
  440POPC   NC3 8399   3.498  32.598   9.651
  440POPC   PO4 8400   3.315  33.264   9.451
  440POPC   GL1 8401   3.451  32.879   9.164
  440POPC   GL2 8402   3.752  33.014   9.003
  440POPC   C1A 8403   3.405  32.770   8.718
  440POPC   D2A 8404   3.432  33.131   8.479
  440POPC   C3A 8405   3.486  33.167   8.074
  440POPC   C4A 8406   3.256  33.067   7.765
  440POPC   C1B 8407   3.930  32.938   8.605
  440POPC   C2B 8408   3.843  32.809   8.190
  440POPC   C3B 8409   3.718  32.831   7.759
  440POPC   C4B 8410   3.917  32.983   7.382
  441POPC   NC3 8411  22.728  27.532   9.589
  441POPC   PO4 8412  23.306  27.875   9.678
  441POPC   GL1 8413  23.223  27.758   9.212
  441POPC   GL2 8414  22.887  27.575   9.117
  441POPC   C1A 8415  23.111  27.784   8.728
  441POPC   D2A 8416  22.839  27.686   8.375
  441POPC   C3A 8417  23.046  27.716   7.962
  441POPC   C4A 8418  23.011  27.503   7.555
  441POPC   C1B 8419  22.532  27.479   8.819
  441POPC   C2B 8420  22.459  27.322   8.394
  441POPC   C3B 8421  22.675  27.354   7.988
  441POPC   C4B 8422  22.572  27.679   7.718
  442POPC   NC3 8423  37.684  36.711   9.573
  442POPC   PO4 8424  37.150  36.439   9.549
  442POPC   GL1 8425  37.457  36.473   9.140
  442POPC   GL2 8426  37.833  36.579   9.096
  442POPC   C1A 8427  37.477  36.528   8.650
  442POPC   D2A 8428  37.615  36.794   8.277
  442POPC   C3A 8429  37.423  36.880   7.850
  442POPC   C4A 8430  37.640  36.734   7.465
  442POPC   C1B 8431  37.916  36.832   8.708
  442POPC   C2B 8432  38.028  37.088   8.310
  442POPC   C3B 8433  37.920  36.967   7.863
  442POPC   C4B 8434  37.836  37.197   7.456
  443POPC   NC3 8435  40.168   8.210   9.636
  443POPC   PO4 8436  39.580   7.755   9.372
  443POPC   GL1 8437  39.887   7.979   9.043
  443POPC   GL2 8438  40.151   8.185   9.141
  443POPC   C1A 8439  39.842   8.315   8.724
  443POPC   D2A 8440  39.738   8.406   8.275
  443POPC   C3A 8441  39.885   8.236   7.881
  443POPC   C4A 8442  39.642   8.332   7.483
  443POPC   C1B 8443  40.302   8.046   8.748
  443POPC   C2B 8444  40.237   8.291   8.378
  443POPC   C3B 8445  40.364   8.393   7.976
  443POPC   C4B 8446  40.463   8.094   7.667
  444POPC   NC3 8447   3.398  28.039   9.313
  444POPC   PO4 8448   3.735  27.537   9.644
  444POPC   GL1 8449   3.641  27.600   9.187
  444POPC   GL2 8450   3.280  27.574   9.090
  444POPC   C1A 8451   3.679  27.570   8.719
  444POPC   D2A 8452   3.843  27.583   8.280
  444POPC   C3A 8453   3.722  27.782   7.885
  444POPC   C4A 8454   3.799  27.458   7.565
  444POPC   C1B 8455   3.203  27.815   8.729
  444POPC   C2B 8456   3.382  27.791   8.353
  444POPC   C3B 8457   3.211  27.779   8.017
  444POPC   C4B 8458   3.148  27.697   7.652
  445POPC   NC3 8459  13.612  33.729   9.451
  445POPC   PO4 8460  13.681  34.424   9.290
  445POPC   GL1 8461  13.622  34.063   9.011
  445POPC   GL2 8462  13.408  33.758   9.007
  445POPC   C1A 8463  13.569  33.999   8.575
  445POPC   D2A 8464  13.737  34.109   8.201
  445POPC   C3A 8465  13.584  33.774   7.958
  445POPC   C4A 8466  13.741  33.654   7.577
  445POPC   C1B 8467  13.445  33.520   8.641
  445POPC   C2B 8468  13.416  33.364   8.233
  445POPC   C3B 8469  13.126  33.453   7.928
  445POPC   C4B 8470  13.237  33.678   7.582
  446POPC   NC3 8471  14.070  21.906   9.563
  446POPC   PO4 8472  14.517  22.292   9.228
  446POPC   GL1 8473  14.370  21.938   9.063
  446POPC   GL2 8474  14.028  21.966   9.040
  446POPC   C1A 8475  14.463  21.865   8.635
  446POPC   D2A 8476  14.452  21.761   8.211
  446POPC   C3A 8477  14.587  22.068   7.899
  446POPC   C4A 8478  14.639  22.052   7.448
  446POPC   C1B 8479  14.106  22.245   8.716
  446POPC   C2B 8480  14.360  22.293   8.375
  446POPC   C3B 8481  14.350  22.516   8.036
  446POPC   C4B 8482  14.606  22.562   7.711
  447POPC   NC3 8483  43.053  43.670   9.510
  447POPC   PO4 8484  43.625  44.272   9.415
  447POPC   GL1 8485  43.360  44.020   9.044
  447POPC   GL2 8486  42.993  43.942   9.079
  447POPC   C1A 8487  43.216  44.068   8.615
  447POPC   D2A 8488  42.884  44.158   8.319
  447POPC   C3A 8489  43.032  44.165   7.886
  447POPC   C4A 8490  42.915  43.962   7.493
  447POPC   C1B 8491  43.110  43.603   8.810
  447POPC   C2B 8492  42.905  43.612   8.406
  447POPC   C3B 8493  42.829  43.703   7.977
  447POPC   C4B 8494  43.132  43.552   7.698
  448POPC   NC3 8495  20.410  35.716   9.397
  448POPC   PO4 8496  20.731  35.066   9.350
  448POPC   GL1 8497  20.554  35.361   9.049
  448POPC   GL2 8498  20.759  35.692   9.006
  448POPC   C1A 8499  20.624  35.433   8.613
  448POPC   D2A 8500  20.657  35.711   8.287
  448POPC   C3A 8501  20.724  35.424   7.952
  448POPC   C4A 8502  20.936  35.231   7.616
  448POPC   C1B 8503  20.337  35.824   8.773
  448POPC   C2B 8504  20.133  35.724   8.381
  448POPC   C3B 8505  20.238  35.625   7.922
  448POPC   C4B 8506  20.171  35.495   7.459
  449POPC   NC3 8507   1.380  26.482   9.417
  449POPC   PO4 8508   1.258  27.099   9.729
  449POPC   GL1 8509   1.166  27.027   9.237
  449POPC   GL2 8510   1.148  26.693   9.028
  449POPC   C1A 8511   1.350  27.093   8.810
  449POPC   D2A 8512   1.322  26.846   8.439
  449POPC   C3A 8513   1.248  27.092   8.119
  449POPC   C4A 8514   1.081  27.086   7.752
  449POPC   C1B 8515   1.583  26.589   8.785
  449POPC   C2B 8516   1.709  26.557   8.325
  449POPC   C3B 8517   1.355  26.583   7.981
  449POPC   C4B 8518   1.406  26.762   7.561
  450POPC   NC3 8519   6.948  26.686   9.310
  450POPC   PO4 8520   6.316  27.015   9.463
  450POPC   GL1 8521   6.551  26.939   9.120
  450POPC   GL2 8522   6.877  27.136   9.088
  450POPC   C1A 8523   6.439  26.782   8.722
  450POPC   D2A 8524   6.360  26.935   8.328
  450POPC   C3A 8525   6.529  26.651   8.031
  450POPC   C4A 8526   6.423  26.858   7.647
  450POPC   C1B 8527   6.696  27.218   8.715
  450POPC   C2B 8528   6.684  27.349   8.349
  450POPC   C3B 8529   6.692  27.144   7.977
  450POPC   C4B 8530   6.963  27.092   7.626
  451POPC   NC3 8531  26.392  19.445   9.359
  451POPC   PO4 8532  26.847  19.003   9.711
  451POPC   GL1 8533  26.802  18.963   9.261
  451POPC   GL2 8534  26.797  19.278   9.064
  451POPC   C1A 8535  26.914  18.825   8.844
  451POPC   D2A 8536  26.829  18.927   8.420
  451POPC   C3A 8537  26.911  18.689   8.025
  451POPC   C4A 8538  26.964  18.842   7.593
  451POPC   C1B 8539  26.488  19.173   8.766
  451POPC   C2B 8540  26.324  19.080   8.378
  451POPC   C3B 8541  26.537  19.075   8.030
  451POPC   C4B 8542  26.570  19.166   7.621
  452POPC   NC3 8543  19.770   4.771   9.419
  452POPC   PO4 8544  19.927   4.001   9.482
  452POPC   GL1 8545  19.972   4.339   9.178
  452POPC   GL2 8546  20.157   4.115   9.024
  452POPC   C1A 8547  19.818   4.406   8.727
  452POPC   D2A 8548  19.423   4.320   8.473
  452POPC   C3A 8549  19.555   4.129   8.084
  452POPC   C4A 8550  19.795   4.447   7.872
  452POPC   C1B 8551  20.078   3.858   8.729
  452POPC   C2B 8552  19.965   4.045   8.386
  452POPC   C3B 8553  20.072   4.030   8.004
  452POPC   C4B 8554  19.853   4.001   7.641
  453POPC   NC3 8555   5.656  18.350   9.565
  453POPC   PO4 8556   6.123  17.967   9.263
  453POPC   GL1 8557   5.752  18.136   9.107
  453POPC   GL2 8558   5.880  18.477   9.115
  453POPC   C1A 8559   5.597  18.245   8.707
  453POPC   D2A 8560   5.754  18.079   8.310
  453POPC   C3A 8561   5.535  18.229   7.940
  453POPC   C4A 8562   5.557  18.490   7.551
  453POPC   C1B 8563   6.031  18.684   8.741
  453POPC   C2B 8564   5.892  18.557   8.344
  453POPC   C3B 8565   5.996  18.376   7.961
  453POPC   C4B 8566   5.961  18.723   7.708
  454POPC   NC3 8567  39.561  34.328   9.455
  454POPC   PO4 8568  38.983  34.692   9.568
  454POPC   GL1 8569  39.131  34.890   9.204
  454POPC   GL2 8570  39.129  34.517   9.089
  454POPC   C1A 8571  39.419  34.869   8.857
  454POPC   D2A 8572  39.326  34.544   8.559
  454POPC   C3A 8573  39.273  34.624   8.144
  454POPC   C4A 8574  39.239  34.840   7.757
  454POPC   C1B 8575  38.908  34.307   8.753
  454POPC   C2B 8576  39.027  34.119   8.356
  454POPC   C3B 8577  39.205  34.167   7.932
  454POPC   C4B 8578  39.041  34.390   7.595
  455POPC   NC3 8579  18.042   7.045   9.492
  455POPC   PO4 8580  18.465   7.563   9.560
  455POPC   GL1 8581  18.372   7.374   9.199
  455POPC   GL2 8582  18.037   7.475   9.203
  455POPC   C1A 8583  18.434   7.328   8.757
  455POPC   D2A 8584  18.365   7.085   8.385
  455POPC   C3A 8585  18.391   7.267   7.994
  455POPC   C4A 8586  17.952   7.279   7.831
  455POPC   C1B 8587  18.056   7.656   8.791
  455POPC   C2B 8588  18.034   7.524   8.373
  455POPC   C3B 8589  18.110   7.728   8.006
  455POPC   C4B 8590  18.148   8.029   7.729
  456POPC   NC3 8591  35.403  12.462   9.365
  456POPC   PO4 8592  35.675  11.805   9.475
  456POPC   GL1 8593  35.390  11.888   9.101
  456POPC   GL2 8594  35.181  12.199   9.009
  456POPC   C1A 8595  35.382  11.950   8.645
  456POPC   D2A 8596  35.353  12.023   8.232
  456POPC   C3A 8597  35.252  12.039   7.829
  456POPC   C4A 8598  35.446  12.123   7.444
  456POPC   C1B 8599  35.187  12.421   8.602
  456POPC   C2B 8600  35.122  12.500   8.174
  456POPC   C3B 8601  35.307  12.552   7.796
  456POPC   C4B 8602  35.015  12.398   7.518
  457POPC   NC3 8603   7.883  20.158   9.408
  457POPC   PO4 8604   7.253  20.099   9.370
  457POPC   GL1 8605   7.522  19.882   9.101
  457POPC   GL2 8606   7.625  20.228   8.986
  457POPC   C1A 8607   7.321  19.586   8.773
  457POPC   D2A 8608   7.059  19.711   8.402
  457POPC   C3A 8609   7.243  19.728   7.968
  457POPC   C4A 8610   7.292  19.927   7.586
  457POPC   C1B 8611   7.432  20.049   8.636
  457POPC   C2B 8612   7.601  19.788   8.344
  457POPC   C3B 8613   7.597  20.080   8.041
  457POPC   C4B 8614   7.678  20.224   7.665
  458POPC   NC3 8615  35.107  28.017   9.624
  458POPC   PO4 8616  35.510  28.556   9.450
  458POPC   GL1 8617  35.282  28.444   9.070
  458POPC   GL2 8618  34.983  28.249   9.161
  458POPC   C1A 8619  35.397  28.439   8.613
  458POPC   D2A 8620  35.743  28.403   8.299
  458POPC   C3A 8621  35.582  28.372   7.867
  458POPC   C4A 8622  35.262  28.610   7.691
  458POPC   C1B 8623  35.090  28.027   8.794
  458POPC   C2B 8624  35.052  28.116   8.369
  458POPC   C3B 8625  35.121  28.147   7.942
  458POPC   C4B 8626  34.961  27.773   7.828
  459POPC   NC3 8627   4.161   7.846   9.754
  459POPC   PO4 8628   4.253   8.415   9.428
  459POPC   GL1 8629   4.334   8.240   9.060
  459POPC   GL2 8630   4.387   7.891   9.012
  459POPC   C1A 8631   4.208   8.176   8.642
  459POPC   D2A 8632   4.177   8.090   8.248
  459POPC   C3A 8633   3.929   8.360   8.005
  459POPC   C4A 8634   4.223   8.233   7.708
  459POPC   C1B 8635   4.714   8.103   8.733
  459POPC   C2B 8636   4.696   8.339   8.387
  459POPC   C3B 8637   4.646   8.085   8.044
  459POPC   C4B 8638   4.746   8.177   7.653
  460POPC   NC3 8639   4.266  17.575   9.541
  460POPC   PO4 8640   4.798  17.136   9.554
  460POPC   GL1 8641   4.599  17.355   9.176
  460POPC   GL2 8642   4.221  17.302   9.099
  460POPC   C1A 8643   4.497  17.450   8.706
  460POPC   D2A 8644   4.141  17.428   8.385
  460POPC   C3A 8645   4.243  17.279   7.960
  460POPC   C4A 8646   4.579  17.398   7.679
  460POPC   C1B 8647   4.150  17.751   8.918
  460POPC   C2B 8648   4.301  17.901   8.516
  460POPC   C3B 8649   4.351  17.782   8.062
  460POPC   C4B 8650   4.008  17.701   7.788
  461POPC   NC3 8651  19.317  39.143   9.507
  461POPC   PO4 8652  20.005  39.325   9.457
  461POPC   GL1 8653  19.684  39.204   9.154
  461POPC   GL2 8654  19.540  39.548   9.183
  461POPC   C1A 8655  19.458  38.934   8.817
  461POPC   D2A 8656  19.389  39.035   8.364
  461POPC   C3A 8657  19.797  39.013   8.113
  461POPC   C4A 8658  19.863  39.090   7.680
  461POPC   C1B 8659  19.805  39.583   8.810
  461POPC   C2B 8660  19.945  39.604   8.383
  461POPC   C3B 8661  20.146  39.667   8.007
  461POPC   C4B 8662  19.942  39.582   7.655
  462POPC   NC3 8663  34.413   5.943   9.551
  462POPC   PO4 8664  34.732   5.409   9.192
  462POPC   GL1 8665  34.402   5.669   9.057
  462POPC   GL2 8666  34.375   6.038   9.050
  462POPC   C1A 8667  34.471   5.731   8.620
  462POPC   D2A 8668  34.494   5.475   8.261
  462POPC   C3A 8669  34.755   5.660   7.981
  462POPC   C4A 8670  34.579   5.970   7.733
  462POPC   C1B 8671  34.308   6.215   8.625
  462POPC   C2B 8672  34.548   6.146   8.240
  462POPC   C3B 8673  34.399   6.416   7.911
  462POPC   C4B 8674  34.127   6.256   7.601
  463POPC   NC3 8675   0.869  15.460   9.575
  463POPC   PO4 8676   1.499  15.172   9.465
  463POPC   GL1 8677   1.224  15.061   9.124
  463POPC   GL2 8678   0.980  14.766   9.134
  463POPC   C1A 8679   1.369  14.931   8.734
  463POPC   D2A 8680   1.444  15.084   8.325
  463POPC   C3A 8681   1.163  15.397   8.121
  463POPC   C4A 8682   1.103  15.386   7.678
  463POPC   C1B 8683   0.801  14.940   8.764
  463POPC   C2B 8684   0.791  15.140   8.358
  463POPC   C3B 8685   0.786  15.008   7.899
  463POPC   C4B 8686   0.745  14.919   7.419
  464POPC   NC3 8687  22.608  15.914   9.272
  464POPC   PO4 8688  22.005  15.935   9.722
  464POPC   GL1 8689  22.101  16.020   9.281
  464POPC   GL2 8690  22.163  15.744   9.082
  464POPC   C1A 8691  22.200  16.203   8.845
  464POPC   D2A 8692  22.128  16.401   8.442
  464POPC   C3A 8693  22.293  16.224   8.040
  464POPC   C4A 8694  22.261  16.382   7.610
  464POPC   C1B 8695  22.373  15.710   8.664
  464POPC   C2B 8696  22.537  15.453   8.333
  464POPC   C3B 8697  22.593  15.711   7.989
  464POPC   C4B 8698  22.455  15.839   7.594
  465POPC   NC3 8699   6.460  17.885   9.563
  465POPC   PO4 8700   6.982  17.394   9.622
  465POPC   GL1 8701   6.889  17.378   9.190
  465POPC   GL2 8702   6.604  17.589   9.163
  465POPC   C1A 8703   6.738  17.312   8.751
  465POPC   D2A 8704   6.513  17.438   8.361
  465POPC   C3A 8705   6.699  17.400   7.949
  465POPC   C4A 8706   6.367  17.480   7.714
  465POPC   C1B 8707   6.468  17.757   8.761
  465POPC   C2B 8708   6.587  17.966   8.390
  465POPC   C3B 8709   6.568  17.903   7.976
  465POPC   C4B 8710   6.861  17.837   7.663
  466POPC   NC3 8711  24.752  33.102   9.508
  466POPC   PO4 8712  24.067  33.286   9.335
  466POPC   GL1 8713  24.442  33.195   9.120
  466POPC   GL2 8714  24.695  32.886   9.052
  466POPC   C1A 8715  24.625  33.278   8.737
  466POPC   D2A 8716  24.694  33.105   8.338
  466POPC   C3A 8717  24.503  33.351   7.999
  466POPC   C4A 8718  24.831  33.341   7.776
  466POPC   C1B 8719  24.347  32.851   8.756
  466POPC   C2B 8720  24.218  32.904   8.331
  466POPC   C3B 8721  24.422  32.870   7.924
  466POPC   C4B 8722  24.624  32.671   7.580
  467POPC   NC3 8723  43.582  30.876   9.596
  467POPC   PO4 8724  44.177  30.720   9.520
  467POPC   GL1 8725  43.864  30.608   9.210
  467POPC   GL2 8726  43.493  30.644   9.152
  467POPC   C1A 8727  43.851  30.743   8.800
  467POPC   D2A 8728  44.092  30.686   8.458
  467POPC   C3A 8729  43.829  30.675   8.124
  467POPC   C4A 8730  43.784  30.411   7.803
  467POPC   C1B 8731  43.260  30.877   8.859
  467POPC   C2B 8732  43.458  30.909   8.487
  467POPC   C3B 8733  43.474  31.039   8.117
  467POPC   C4B 8734  43.733  31.134   7.800
  468POPC   NC3 8735  40.270   2.114   9.422
  468POPC   PO4 8736  39.624   1.858   9.505
  468POPC   GL1 8737  39.855   1.912   9.134
  468POPC   GL2 8738  39.839   2.258   9.108
  468POPC   C1A 8739  40.007   1.828   8.723
  468POPC   D2A 8740  40.278   2.087   8.436
  468POPC   C3A 8741  40.252   1.927   8.012
  468POPC   C4A 8742  39.908   1.784   7.822
  468POPC   C1B 8743  39.734   2.238   8.686
  468POPC   C2B 8744  39.792   2.064   8.249
  468POPC   C3B 8745  39.895   2.297   7.856
  468POPC   C4B 8746  39.630   2.473   7.475
  469POPC   NC3 8747   3.793  43.264   9.313
  469POPC   PO4 8748   3.224  42.838   9.443
  469POPC   GL1 8749   3.463  42.963   9.112
  469POPC   GL2 8750   3.309  43.291   9.117
  469POPC   C1A 8751   3.701  42.912   8.720
  469POPC   D2A 8752   3.858  43.026   8.313
  469POPC   C3A 8753   3.620  43.018   7.923
  469POPC   C4A 8754   3.390  43.361   7.748
  469POPC   C1B 8755   3.148  43.043   8.757
  469POPC   C2B 8756   3.298  42.975   8.373
  469POPC   C3B 8757   3.102  43.007   8.006
  469POPC   C4B 8758   3.146  42.948   7.587
  470POPC   NC3 8759   8.268  34.829   9.493
  470POPC   PO4 8760   7.818  34.403   9.263
  470POPC   GL1 8761   8.070  34.659   9.017
  470POPC   GL2 8762   8.383  34.642   9.053
  470POPC   C1A 8763   8.231  34.781   8.607
  470POPC   D2A 8764   8.040  34.971   8.254
  470POPC   C3A 8765   8.048  34.660   7.923
  470POPC   C4A 8766   8.003  34.616   7.498
  470POPC   C1B 8767   8.597  34.402   8.772
  470POPC   C2B 8768   8.599  34.478   8.371
  470POPC   C3B 8769   8.404  34.325   8.050
  470POPC   C4B 8770   8.350  34.258   7.630
  471POPC   NC3 8771  29.333  39.396   9.642
  471POPC   PO4 8772  28.750  38.995   9.645
  471POPC   GL1 8773  28.891  39.223   9.217
  471POPC   GL2 8774  28.957  39.613   9.191
  471POPC   C1A 8775  28.841  39.344   8.749
  471POPC   D2A 8776  28.815  39.235   8.291
  471POPC   C3A 8777  29.141  39.170   8.046
  471POPC   C4A 8778  29.281  39.090   7.633
  471POPC   C1B 8779  29.328  39.463   8.923
  471POPC   C2B 8780  29.407  39.241   8.519
  471POPC   C3B 8781  29.578  39.391   8.104
  471POPC   C4B 8782  29.362  39.575   7.746
  472POPC   NC3 8783  28.883  38.518   9.829
  472POPC   PO4 8784  28.250  38.475   9.510
  472POPC   GL1 8785  28.267  38.350   9.112
  472POPC   GL2 8786  28.555  38.204   9.067
  472POPC   C1A 8787  28.171  38.368   8.692
  472POPC   D2A 8788  27.956  38.611   8.388
  472POPC   C3A 8789  28.173  38.476   8.077
  472POPC   C4A 8790  28.480  38.463   7.823
  472POPC   C1B 8791  28.743  38.345   8.707
  472POPC   C2B 8792  28.665  38.296   8.281
  472POPC   C3B 8793  28.778  38.049   7.939
  472POPC   C4B 8794  28.920  38.315   7.632
  473POPC   NC3 8795  26.634  35.852   9.561
  473POPC   PO4 8796  27.031  36.304   9.477
  473POPC   GL1 8797  26.750  36.203   9.165
  473POPC   GL2 8798  26.488  36.473   9.168
  473POPC   C1A 8799  26.933  36.073   8.776
  473POPC   D2A 8800  26.994  35.877   8.382
  473POPC   C3A 8801  26.896  36.028   7.996
  473POPC   C4A 8802  26.885  35.801   7.636
  473POPC   C1B 8803  26.689  36.528   8.772
  473POPC   C2B 8804  26.652  36.296   8.406
  473POPC   C3B 8805  26.466  36.302   8.046
  473POPC   C4B 8806  26.676  36.556   7.778
  474POPC   NC3 8807   8.665  22.739   9.555
  474POPC   PO4 8808   9.250  23.071   9.580
  474POPC   GL1 8809   9.011  23.067   9.200
  474POPC   GL2 8810   9.027  22.721   9.160
  474POPC   C1A 8811   9.017  23.039   8.738
  474POPC   D2A 8812   9.098  23.166   8.313
  474POPC   C3A 8813   9.038  22.954   7.955
  474POPC   C4A 8814   8.885  23.168   7.629
  474POPC   C1B 8815   8.852  22.547   8.770
  474POPC   C2B 8816   8.762  22.729   8.361
  474POPC   C3B 8817   8.750  22.523   7.960
  474POPC   C4B 8818   8.660  22.703   7.590
  475POPC   NC3 8819  29.131  21.061   9.483
  475POPC   PO4 8820  29.352  21.702   9.468
  475POPC   GL1 8821  29.365  21.374   9.167
  475POPC   GL2 8822  29.061  21.389   9.010
  475POPC   C1A 8823  29.497  21.340   8.739
  475POPC   D2A 8824  29.430  21.446   8.305
  475POPC   C3A 8825  29.086  21.341   8.036
  475POPC   C4A 8826  28.811  21.677   7.867
  475POPC   C1B 8827  28.888  21.037   8.857
  475POPC   C2B 8828  28.891  21.000   8.443
  475POPC   C3B 8829  28.602  21.060   8.111
  475POPC   C4B 8830  28.716  21.185   7.719
  476POPC   NC3 8831  15.467  11.520   9.694
  476POPC   PO4 8832  16.023  11.566   9.451
  476POPC   GL1 8833  15.970  11.342   9.102
  476POPC   GL2 8834  15.745  11.107   9.217
  476POPC   C1A 8835  16.079  11.301   8.686
  476POPC   D2A 8836  16.213  11.460   8.320
  476POPC   C3A 8837  16.194  11.163   8.035
  476POPC   C4A 8838  16.067  11.300   7.657
  476POPC   C1B 8839  15.682  11.001   8.770
  476POPC   C2B 8840  15.688  11.174   8.356
  476POPC   C3B 8841  15.637  11.273   7.943
  476POPC   C4B 8842  15.359  11.245   7.599
  477POPC   NC3 8843  40.315  40.412   9.884
  477POPC   PO4 8844  40.794  40.011   9.688
  477POPC   GL1 8845  40.830  40.034   9.193
  477POPC   GL2 8846  41.149  39.931   9.049
  477POPC   C1A 8847  40.675  39.947   8.736
  477POPC   D2A 8848  40.607  39.784   8.288
  477POPC   C3A 8849  40.515  40.099   7.976
  477POPC   C4A 8850  40.537  40.218   7.522
  477POPC   C1B 8851  41.094  40.258   8.734
  477POPC   C2B 8852  40.911  40.265   8.320
  477POPC   C3B 8853  41.012  39.988   8.004
  477POPC   C4B 8854  41.020  40.021   7.583
  478POPC   NC3 8855  37.340  23.278   9.485
  478POPC   PO4 8856  36.711  23.312   9.399
  478POPC   GL1 8857  37.007  23.535   9.167
  478POPC   GL2 8858  37.042  23.935   9.160
  478POPC   C1A 8859  37.017  23.605   8.760
  478POPC   D2A 8860  36.806  23.695   8.430
  478POPC   C3A 8861  36.890  23.451   8.115
  478POPC   C4A 8862  36.853  23.496   7.704
  478POPC   C1B 8863  36.929  24.096   8.780
  478POPC   C2B 8864  37.110  24.091   8.382
  478POPC   C3B 8865  36.885  23.975   8.007
  478POPC   C4B 8866  37.019  23.979   7.622
  479POPC   NC3 8867  38.390  20.983   9.517
  479POPC   PO4 8868  38.758  20.499   9.373
  479POPC   GL1 8869  38.543  20.449   9.074
  479POPC   GL2 8870  38.453  20.759   9.045
  479POPC   C1A 8871  38.535  20.276   8.708
  479POPC   D2A 8872  38.359  20.353   8.347
  479POPC   C3A 8873  38.566  20.226   8.023
  479POPC   C4A 8874  38.512  20.450   7.675
  479POPC   C1B 8875  38.512  20.771   8.615
  479POPC   C2B 8876  38.164  20.903   8.357
  479POPC   C3B 8877  37.983  21.021   7.996
  479POPC   C4B 8878  38.287  20.903   7.721
  480POPC   NC3 8879  13.011   7.461   9.516
  480POPC   PO4 8880  12.335   7.524   9.571
  480POPC   GL1 8881  12.625   7.658   9.211
  480POPC   GL2 8882  12.988   7.702   9.080
  480POPC   C1A 8883  12.658   7.627   8.734
  480POPC   D2A 8884  12.613   7.314   8.438
  480POPC   C3A 8885  12.733   7.475   8.057
  480POPC   C4A 8886  12.742   7.292   7.679
  480POPC   C1B 8887  13.018   7.292   8.784
  480POPC   C2B 8888  13.151   7.358   8.345
  480POPC   C3B 8889  13.144   7.135   7.920
  480POPC   C4B 8890  13.210   6.987   7.479
  481POPC   NC3 8891  19.534  33.391   9.182
  481POPC   PO4 8892  19.799  33.866   9.643
  481POPC   GL1 8893  19.911  33.877   9.193
  481POPC   GL2 8894  19.761  33.735   8.893
  481POPC   C1A 8895  20.187  34.017   8.832
  481POPC   D2A 8896  20.038  33.845   8.464
  481POPC   C3A 8897  20.181  33.825   8.076
  481POPC   C4A 8898  19.967  33.951   7.759
  481POPC   C1B 8899  19.851  33.390   8.588
  481POPC   C2B 8900  19.875  33.398   8.157
  481POPC   C3B 8901  19.522  33.508   7.979
  481POPC   C4B 8902  19.601  33.653   7.624
  482POPC   NC3 8903  18.386  15.244   9.711
  482POPC   PO4 8904  17.822  15.216   9.526
  482POPC   GL1 8905  18.147  15.130   9.261
  482POPC   GL2 8906  18.178  15.454   9.188
  482POPC   C1A 8907  18.336  15.042   8.840
  482POPC   D2A 8908  18.289  14.812   8.439
  482POPC   C3A 8909  18.356  15.083   8.107
  482POPC   C4A 8910  18.194  15.430   7.894
  482POPC   C1B 8911  18.345  15.577   8.766
  482POPC   C2B 8912  18.596  15.449   8.384
  482POPC   C3B 8913  18.686  15.617   7.955
  482POPC   C4B 8914  18.594  15.367   7.561
  483POPC   NC3 8915  21.793  33.052   9.337
  483POPC   PO4 8916  21.072  33.195   9.350
  483POPC   GL1 8917  21.348  33.084   9.081
  483POPC   GL2 8918  21.461  32.767   9.076
  483POPC   C1A 8919  21.486  33.110   8.689
  483POPC   D2A 8920  21.232  33.089   8.351
  483POPC   C3A 8921  21.453  33.220   8.032
  483POPC   C4A 8922  21.321  33.276   7.638
  483POPC   C1B 8923  21.102  32.769   8.759
  483POPC   C2B 8924  21.103  32.602   8.312
  483POPC   C3B 8925  21.382  32.721   7.910
  483POPC   C4B 8926  21.337  32.803   7.432
  484POPC   NC3 8927  23.073   4.296   9.338
  484POPC   PO4 8928  22.905   4.803   9.709
  484POPC   GL1 8929  22.762   4.662   9.180
  484POPC   GL2 8930  23.077   4.529   8.915
  484POPC   C1A 8931  22.724   4.707   8.665
  484POPC   D2A 8932  23.033   4.443   8.388
  484POPC   C3A 8933  23.096   4.488   7.934
  484POPC   C4A 8934  22.699   4.459   7.789
  484POPC   C1B 8935  22.756   4.200   8.748
  484POPC   C2B 8936  22.737   4.002   8.326
  484POPC   C3B 8937  22.630   3.969   7.877
  484POPC   C4B 8938  23.081   3.982   7.739
  485POPC   NC3 8939   8.410  20.365   9.820
  485POPC   PO4 8940   7.865  20.620   9.453
  485POPC   GL1 8941   8.201  20.494   9.166
  485POPC   GL2 8942   8.362  20.189   9.236
  485POPC   C1A 8943   8.426  20.688   8.820
  485POPC   D2A 8944   8.238  20.883   8.457
  485POPC   C3A 8945   8.367  20.799   8.046
  485POPC   C4A 8946   8.264  20.748   7.598
  485POPC   C1B 8947   8.461  20.179   8.774
  485POPC   C2B 8948   8.511  20.375   8.318
  485POPC   C3B 8949   8.344  20.323   7.849
  485POPC   C4B 8950   8.608  20.225   7.409
  486POPC   NC3 8951  22.266  27.070   9.443
  486POPC   PO4 8952  22.019  26.407   9.502
  486POPC   GL1 8953  22.133  26.651   9.141
  486POPC   GL2 8954  22.487  26.657   9.228
  486POPC   C1A 8955  22.010  26.723   8.688
  486POPC   D2A 8956  21.985  26.994   8.296
  486POPC   C3A 8957  21.957  26.719   7.942
  486POPC   C4A 8958  21.885  26.891   7.583
  486POPC   C1B 8959  22.476  26.914   8.834
  486POPC   C2B 8960  22.442  26.819   8.415
  486POPC   C3B 8961  22.401  26.929   7.992
  486POPC   C4B 8962  22.439  26.542   7.785
  487POPC   NC3 8963  22.097   7.860   9.509
  487POPC   PO4 8964  22.047   7.178   9.552
  487POPC   GL1 8965  22.186   7.385   9.194
  487POPC   GL2 8966  22.498   7.527   9.288
  487POPC   C1A 8967  22.245   7.231   8.771
  487POPC   D2A 8968  22.315   7.034   8.335
  487POPC   C3A 8969  22.079   7.276   8.106
  487POPC   C4A 8970  21.743   7.356   7.812
  487POPC   C1B 8971  22.602   7.598   8.836
  487POPC   C2B 8972  22.528   7.486   8.403
  487POPC   C3B 8973  22.442   7.761   8.050
  487POPC   C4B 8974  22.202   7.591   7.734
  488POPC   NC3 8975  36.391  17.516   9.685
  488POPC   PO4 8976  35.865  17.249   9.456
  488POPC   GL1 8977  36.007  17.403   9.085
  488POPC   GL2 8978  36.350  17.381   9.182
  488POPC   C1A 8979  36.035  17.768   8.759
  488POPC   D2A 8980  36.404  17.865   8.440
  488POPC   C3A 8981  36.352  17.708   7.999
  488POPC   C4A 8982  35.954  17.628   7.743
  488POPC   C1B 8983  36.406  17.433   8.741
  488POPC   C2B 8984  36.136  17.410   8.367
  488POPC   C3B 8985  36.073  17.181   7.976
  488POPC   C4B 8986  36.344  17.314   7.649
  489POPC   NC3 8987  13.369  22.618   9.612
  489POPC   PO4 8988  13.877  23.036   9.417
  489POPC   GL1 8989  13.803  22.915   9.011
  489POPC   GL2 8990  13.496  22.770   9.102
  489POPC   C1A 8991  13.746  22.622   8.669
  489POPC   D2A 8992  13.519  22.713   8.306
  489POPC   C3A 8993  13.754  22.780   7.938
  489POPC   C4A 8994  13.943  22.456   7.747
  489POPC   C1B 8995  13.386  23.001   8.723
  489POPC   C2B 8996  13.329  23.187   8.291
  489POPC   C3B 8997  13.387  23.165   7.808
  489POPC   C4B 8998  13.472  23.111   7.338
  490POPC   NC3 8999  24.043  34.462   9.590
  490POPC   PO4 9000  23.540  34.883   9.445
  490POPC   GL1 9001  23.724  34.580   9.136
  490POPC   GL2 9002  24.009  34.324   9.127
  490POPC   C1A 9003  23.566  34.600   8.739
  490POPC   D2A 9004  23.878  34.673   8.473
  490POPC   C3A 9005  23.716  34.661   8.092
  490POPC   C4A 9006  23.934  34.581   7.718
  490POPC   C1B 9007  23.847  34.179   8.777
  490POPC   C2B 9008  23.676  34.174   8.405
  490POPC   C3B 9009  23.953  34.208   8.082
  490POPC   C4B 9010  23.954  34.058   7.681
  491POPC   NC3 9011  18.075   7.860   9.570
  491POPC   PO4 9012  18.586   8.410   9.565
  491POPC   GL1 9013  18.306   8.260   9.236
  491POPC   GL2 9014  18.319   7.911   9.132
  491POPC   C1A 9015  18.208   8.280   8.797
  491POPC   D2A 9016  18.160   8.074   8.398
  491POPC   C3A 9017  18.293   8.368   8.095
  491POPC   C4A 9018  18.139   8.546   7.731
  491POPC   C1B 9019  18.548   7.855   8.756
  491POPC   C2B 9020  18.509   7.721   8.329
  491POPC   C3B 9021  18.588   7.923   7.935
  491POPC   C4B 9022  18.615   7.916   7.414
  492POPC   NC3 9023   7.679  18.607   9.570
  492POPC   PO4 9024   7.206  18.086   9.575
  492POPC   GL1 9025   7.204  18.211   9.170
  492POPC   GL2 9026   7.493  18.387   9.159
  492POPC   C1A 9027   7.322  18.126   8.738
  492POPC   D2A 9028   7.446  18.248   8.338
  492POPC   C3A 9029   7.169  18.090   8.012
  492POPC   C4A 9030   7.288  18.081   7.567
  492POPC   C1B 9031   7.787  18.310   8.841
  492POPC   C2B 9032   7.934  18.430   8.457
  492POPC   C3B 9033   7.773  18.550   8.085
  492POPC   C4B 9034   7.699  18.298   7.741
  493POPC   NC3 9035   0.700  44.168   9.461
  493POPC   PO4 9036   0.219  43.624   9.460
  493POPC   GL1 9037   0.587  43.699   9.200
  493POPC   GL2 9038   0.394  43.985   9.106
  493POPC   C1A 9039   0.767  43.866   8.789
  493POPC   D2A 9040   0.558  43.858   8.371
  493POPC   C3A 9041   0.770  43.782   7.978
  493POPC   C4A 9042   0.586  43.701   7.557
  493POPC   C1B 9043   0.314  44.154   8.723
  493POPC   C2B 9044   0.248  44.311   8.303
  493POPC   C3B 9045   0.369  44.135   7.961
  493POPC   C4B 9046   0.180  43.762   7.883
  494POPC   NC3 9047  40.018  28.091   9.395
  494POPC   PO4 9048  39.848  28.739   9.491
  494POPC   GL1 9049  39.980  28.513   9.123
  494POPC   GL2 9050  39.688  28.275   9.041
  494POPC   C1A 9051  40.109  28.275   8.722
  494POPC   D2A 9052  39.987  28.066   8.323
  494POPC   C3A 9053  40.068  28.217   7.890
  494POPC   C4A 9054  40.031  28.265   7.428
  494POPC   C1B 9055  39.574  28.269   8.594
  494POPC   C2B 9056  39.488  28.217   8.159
  494POPC   C3B 9057  39.621  28.477   7.822
  494POPC   C4B 9058  39.574  28.475   7.362
  495POPC   NC3 9059  32.073  24.550   9.827
  495POPC   PO4 9060  31.409  24.464   9.479
  495POPC   GL1 9061  31.469  24.431   9.063
  495POPC   GL2 9062  31.523  24.778   9.004
  495POPC   C1A 9063  31.218  24.517   8.691
  495POPC   D2A 9064  31.046  24.654   8.336
  495POPC   C3A 9065  31.205  24.567   7.948
  495POPC   C4A 9066  31.261  24.757   7.527
  495POPC   C1B 9067  31.731  24.593   8.652
  495POPC   C2B 9068  31.667  24.557   8.199
  495POPC   C3B 9069  31.699  24.712   7.768
  495POPC   C4B 9070  31.865  24.800   7.328
  496POPC   NC3 9071  27.808   4.702   9.476
  496POPC   PO4 9072  27.575   4.103   9.534
  496POPC   GL1 9073  27.443   4.261   9.130
  496POPC   GL2 9074  27.766   4.387   9.018
  496POPC   C1A 9075  27.349   4.518   8.750
  496POPC   D2A 9076  27.521   4.514   8.348
  496POPC   C3A 9077  27.285   4.424   7.988
  496POPC   C4A 9078  27.562   4.476   7.619
  496POPC   C1B 9079  27.600   4.071   8.685
  496POPC   C2B 9080  27.487   3.989   8.246
  496POPC   C3B 9081  27.414   3.969   7.800
  496POPC   C4B 9082  27.634   4.024   7.401
  497POPC   NC3 9083  13.898   0.380   9.489
  497POPC   PO4 9084  13.264   0.822   9.340
  497POPC   GL1 9085  13.604   0.597   9.149
  497POPC   GL2 9086  13.620   0.232   9.080
  497POPC   C1A 9087  13.946   0.593   8.856
  497POPC   D2A 9088  13.944   0.589   8.442
  497POPC   C3A 9089  13.663   0.344   8.184
  497POPC   C4A 9090  13.716   0.573   7.818
  497POPC   C1B 9091  13.481   0.400   8.687
  497POPC   C2B 9092  13.348   0.697   8.398
  497POPC   C3B 9093  13.216   0.626   7.968
  497POPC   C4B 9094  13.337   0.265   7.717
  498POPC   NC3 9095  37.269  15.716   9.590
  498POPC   PO4 9096  36.665  16.128   9.640
  498POPC   GL1 9097  36.958  16.017   9.272
  498POPC   GL2 9098  36.880  15.688   9.177
  498POPC   C1A 9099  37.090  16.054   8.809
  498POPC   D2A 9100  37.107  16.242   8.367
  498POPC   C3A 9101  36.918  16.138   7.971
  498POPC   C4A 9102  37.081  16.053   7.581
  498POPC   C1B 9103  36.741  15.678   8.758
  498POPC   C2B 9104  36.851  15.779   8.316
  498POPC   C3B 9105  36.901  15.632   7.854
  498POPC   C4B 9106  36.966  15.587   7.383
  499POPC   NC3 9107  29.979  11.350   9.304
  499POPC   PO4 9108  29.953  11.964   9.399
  499POPC   GL1 9109  30.126  11.712   9.018
  499POPC   GL2 9110  29.776  11.673   8.906
  499POPC   C1A 9111  30.184  11.419   8.667
  499POPC   D2A 9112  30.044  11.480   8.290
  499POPC   C3A 9113  30.162  11.208   7.986
  499POPC   C4A 9114  30.134  11.527   7.711
  499POPC   C1B 9115  29.658  11.250   8.770
  499POPC   C2B 9116  29.741  11.073   8.401
  499POPC   C3B 9117  29.655  11.275   8.029
  499POPC   C4B 9118  29.784  11.132   7.661
  500POPC   NC3 9119  35.366   7.249   9.377
  500POPC   PO4 9120  35.275   7.967   9.453
  500POPC   GL1 9121  35.373   7.690   9.119
  500POPC   GL2 9122  35.040   7.524   9.062
  500POPC   C1A 9123  35.413   7.463   8.714
  500POPC   D2A 9124  35.369   7.259   8.331
  500POPC   C3A 9125  35.544   7.384   7.936
  500POPC   C4A 9126  35.375   7.518   7.519
  500POPC   C1B 9127  34.854   7.321   8.654
  500POPC   C2B 9128  34.912   7.056   8.271
  500POPC   C3B 9129  35.058   7.220   7.880
  500POPC   C4B 9130  34.994   7.203   7.448
  501POPC   NC3 9131  26.381  29.417   9.277
  501POPC   PO4 9132  27.006  29.485   9.504
  501POPC   GL1 9133  26.980  29.275   9.158
  501POPC   GL2 9134  26.758  29.027   9.217
  501POPC   C1A 9135  26.808  29.272   8.759
  501POPC   D2A 9136  26.715  29.255   8.355
  501POPC   C3A 9137  26.944  29.179   7.987
  501POPC   C4A 9138  26.788  29.209   7.601
  501POPC   C1B 9139  26.474  28.889   8.867
  501POPC   C2B 9140  26.483  28.818   8.450
  501POPC   C3B 9141  26.464  28.970   8.017
  501POPC   C4B 9142  26.481  28.799   7.608
  502POPC   NC3 9143  20.054  28.155   9.409
  502POPC   PO4 9144  19.932  27.516   9.817
  502POPC   GL1 9145  19.928  27.657   9.335
  502POPC   GL2 9146  19.844  27.405   9.130
  502POPC   C1A 9147  19.755  27.848   8.876
  502POPC   D2A 9148  19.666  28.091   8.461
  502POPC   C3A 9149  19.782  27.865   8.056
  502POPC   C4A 9150  19.966  27.489   7.853
  502POPC   C1B 9151  19.492  27.376   8.889
  502POPC   C2B 9152  19.424  27.535   8.509
  502POPC   C3B 9153  19.566  27.338   8.134
  502POPC   C4B 9154  19.486  27.029   7.790
  503POPC   NC3 9155  20.996   1.406   9.413
  503POPC   PO4 9156  20.310   1.363   9.434
  503POPC   GL1 9157  20.530   1.201   9.103
  503POPC   GL2 9158  20.777   0.991   9.192
  503POPC   C1A 9159  20.596   1.348   8.702
  503POPC   D2A 9160  20.280   1.357   8.423
  503POPC   C3A 9161  20.377   1.234   8.023
  503POPC   C4A 9162  20.785   1.319   7.862
  503POPC   C1B 9163  20.906   0.963   8.775
  503POPC   C2B 9164  20.770   1.033   8.322
  503POPC   C3B 9165  20.678   0.818   7.906
  503POPC   C4B 9166  20.912   0.915   7.532
  504POPC   NC3 9167  29.511   0.015   9.379
  504POPC   PO4 9168  29.446   0.714   9.427
  504POPC   GL1 9169  29.261   0.766   9.045
  504POPC   GL2 9170  29.065   0.460   9.086
  504POPC   C1A 9171  29.121   0.647   8.626
  504POPC   D2A 9172  28.970   0.307   8.427
  504POPC   C3A 9173  29.135   0.313   8.046
  504POPC   C4A 9174  29.074   0.543   7.652
  504POPC   C1B 9175  29.389   0.261   8.793
  504POPC   C2B 9176  29.535   0.153   8.395
  504POPC   C3B 9177  29.583   0.045   7.989
  504POPC   C4B 9178  29.510   0.272   7.667
  505POPC   NC3 9179  37.776   8.647   9.372
  505POPC   PO4 9180  37.615   7.980   9.416
  505POPC   GL1 9181  37.431   7.993   9.020
  505POPC   GL2 9182  37.447   8.353   9.094
  505POPC   C1A 9183  37.609   7.957   8.625
  505POPC   D2A 9184  37.930   8.108   8.356
  505POPC   C3A 9185  37.730   8.168   7.956
  505POPC   C4A 9186  37.862   7.968   7.600
  505POPC   C1B 9187  37.668   8.459   8.735
  505POPC   C2B 9188  37.618   8.504   8.314
  505POPC   C3B 9189  37.935   8.636   8.061
  505POPC   C4B 9190  37.942   8.565   7.628
  506POPC   NC3 9191   4.536  34.094   9.378
  506POPC   PO4 9192   4.165  33.594   9.718
  506POPC   GL1 9193   4.191  33.742   9.282
  506POPC   GL2 9194   4.081  34.059   9.141
  506POPC   C1A 9195   4.366  33.746   8.843
  506POPC   D2A 9196   4.357  33.485   8.483
  506POPC   C3A 9197   4.282  33.694   8.099
  506POPC   C4A 9198   4.346  33.891   7.713
  506POPC   C1B 9199   3.904  33.943   8.778
  506POPC   C2B 9200   3.978  33.990   8.368
  506POPC   C3B 9201   3.987  34.171   7.955
  506POPC   C4B 9202   4.044  34.248   7.499
  507POPC   NC3 9203  27.617  37.381   9.836
  507POPC   PO4 9204  27.840  37.846   9.341
  507POPC   GL1 9205  27.813  37.705   8.963
  507POPC   GL2 9206  27.480  37.709   8.894
  507POPC   C1A 9207  27.802  38.014   8.645
  507POPC   D2A 9208  27.845  38.108   8.238
  507POPC   C3A 9209  27.814  37.707   8.029
  507POPC   C4A 9210  27.858  37.596   7.601
  507POPC   C1B 9211  27.390  37.322   8.692
  507POPC   C2B 9212  27.445  37.397   8.290
  507POPC   C3B 9213  27.479  37.337   7.886
  507POPC   C4B 9214  27.127  37.224   7.585
  508POPC   NC3 9215  19.770   1.303   9.666
  508POPC   PO4 9216  19.884   0.727   9.273
  508POPC   GL1 9217  19.930   1.158   9.117
  508POPC   GL2 9218  19.586   1.309   9.126
  508POPC   C1A 9219  19.825   1.273   8.673
  508POPC   D2A 9220  19.808   1.332   8.229
  508POPC   C3A 9221  19.763   0.975   7.966
  508POPC   C4A 9222  19.684   0.987   7.540
  508POPC   C1B 9223  19.575   1.682   8.840
  508POPC   C2B 9224  19.465   1.708   8.368
  508POPC   C3B 9225  19.558   1.614   7.886
  508POPC   C4B 9226  19.605   1.544   7.421
  509POPC   NC3 9227  15.845  11.990   9.387
  509POPC   PO4 9228  16.240  12.552   9.418
  509POPC   GL1 9229  16.199  12.209   9.085
  509POPC   GL2 9230  16.253  11.819   9.089
  509POPC   C1A 9231  15.949  12.296   8.717
  509POPC   D2A 9232  16.116  12.436   8.328
  509POPC   C3A 9233  16.009  12.243   7.964
  509POPC   C4A 9234  15.674  12.100   7.780
  509POPC   C1B 9235  16.080  11.808   8.700
  509POPC   C2B 9236  15.843  11.918   8.353
  509POPC   C3B 9237  15.904  11.702   7.990
  509POPC   C4B 9238  16.139  11.830   7.657
  510POPC   NC3 9239  36.501   4.105   9.424
  510POPC   PO4 9240  37.076   4.286   9.630
  510POPC   GL1 9241  36.961   4.206   9.189
  510POPC   GL2 9242  37.025   3.896   9.074
  510POPC   C1A 9243  36.767   4.302   8.772
  510POPC   D2A 9244  36.902   4.520   8.392
  510POPC   C3A 9245  36.702   4.352   8.021
  510POPC   C4A 9246  36.883   4.375   7.626
  510POPC   C1B 9247  37.148   3.916   8.675
  510POPC   C2B 9248  36.954   3.994   8.300
  510POPC   C3B 9249  37.115   3.976   7.882
  510POPC   C4B 9250  37.116   3.970   7.426
  511POPC   NC3 9251  10.227  36.125   9.571
  511POPC   PO4 9252  10.809  35.833   9.719
  511POPC   GL1 9253  10.647  35.951   9.285
  511POPC   GL2 9254  10.511  36.263   9.183
  511POPC   C1A 9255  10.638  35.912   8.820
  511POPC   D2A 9256  10.809  36.099   8.437
  511POPC   C3A 9257  10.617  35.948   8.075
  511POPC   C4A 9258  10.402  35.805   7.733
  511POPC   C1B 9259  10.633  36.430   8.806
  511POPC   C2B 9260  10.757  36.610   8.415
  511POPC   C3B 9261  10.673  36.477   8.024
  511POPC   C4B 9262  10.525  36.291   7.690
  512POPC   NC3 9263  11.088   1.169   9.535
  512POPC   PO4 9264  11.707   1.406   9.807
  512POPC   GL1 9265  11.475   1.465   9.310
  512POPC   GL2 9266  11.106   1.395   9.103
  512POPC   C1A 9267  11.456   1.576   8.829
  512POPC   D2A 9268  11.179   1.372   8.526
  512POPC   C3A 9269  11.333   1.229   8.104
  512POPC   C4A 9270  11.596   1.359   7.760
  512POPC   C1B 9271  11.001   0.982   8.890
  512POPC   C2B 9272  11.108   0.676   8.591
  512POPC   C3B 9273  11.185   0.699   8.147
  512POPC   C4B 9274  11.043   0.937   7.767
  513POPC   NC3 9275  15.140  18.106   9.508
  513POPC   PO4 9276  15.565  18.585   9.446
  513POPC   GL1 9277  15.246  18.413   9.103
  513POPC   GL2 9278  14.910  18.175   9.080
  513POPC   C1A 9279  15.278  18.634   8.685
  513POPC   D2A 9280  15.053  18.518   8.265
  513POPC   C3A 9281  15.196  18.684   7.829
  513POPC   C4A 9282  15.020  18.649   7.379
  513POPC   C1B 9283  15.053  18.187   8.678
  513POPC   C2B 9284  15.245  18.040   8.311
  513POPC   C3B 9285  15.319  18.161   7.945
  513POPC   C4B 9286  14.946  18.238   7.745
  514POPC   NC3 9287  29.928  18.739   9.498
  514POPC   PO4 9288  30.167  19.370   9.401
  514POPC   GL1 9289  29.975  19.088   9.111
  514POPC   GL2 9290  30.211  18.804   9.045
  514POPC   C1A 9291  29.852  19.170   8.684
  514POPC   D2A 9292  29.760  19.265   8.258
  514POPC   C3A 9293  30.038  19.075   7.955
  514POPC   C4A 9294  30.033  19.131   7.490
  514POPC   C1B 9295  29.781  18.678   8.830
  514POPC   C2B 9296  29.599  18.755   8.395
  514POPC   C3B 9297  29.720  18.668   7.931
  514POPC   C4B 9298  30.091  18.648   7.629
  515POPC   NC3 9299  39.893  27.158   9.392
  515POPC   PO4 9300  40.150  27.754   9.677
  515POPC   GL1 9301  39.963  27.652   9.201
  515POPC   GL2 9302  39.735  27.464   9.034
  515POPC   C1A 9303  40.176  27.651   8.770
  515POPC   D2A 9304  40.436  27.881   8.474
  515POPC   C3A 9305  40.338  27.753   8.043
  515POPC   C4A 9306  40.209  27.334   7.828
  515POPC   C1B 9307  39.714  27.824   8.771
  515POPC   C2B 9308  39.624  27.741   8.348
  515POPC   C3B 9309  39.824  27.722   7.950
  515POPC   C4B 9310  39.775  27.474   7.578
  516POPC   NC3 9311  40.186  21.907   9.590
  516POPC   PO4 9312  39.508  22.254   9.475
  516POPC   GL1 9313  39.798  22.308   9.146
  516POPC   GL2 9314  40.121  22.146   9.151
  516POPC   C1A 9315  39.854  22.122   8.732
  516POPC   D2A 9316  39.664  21.858   8.495
  516POPC   C3A 9317  39.648  21.931   8.056
  516POPC   C4A 9318  39.683  22.255   7.765
  516POPC   C1B 9319  40.327  21.947   8.772
  516POPC   C2B 9320  40.483  21.926   8.387
  516POPC   C3B 9321  40.140  21.996   8.105
  516POPC   C4B 9322  40.178  22.127   7.664
  517POPC   NC3 9323   3.289  12.181   9.511
  517POPC   PO4 9324   3.706  11.654   9.448
  517POPC   GL1 9325   3.591  11.940   9.166
  517POPC   GL2 9326   3.706  12.272   9.236
  517POPC   C1A 9327   3.481  11.881   8.759
  517POPC   D2A 9328   3.314  11.879   8.386
  517POPC   C3A 9329   3.478  11.780   8.009
  517POPC   C4A 9330   3.232  12.079   7.788
  517POPC   C1B 9331   3.511  12.448   8.926
  517POPC   C2B 9332   3.554  12.404   8.512
  517POPC   C3B 9333   3.552  12.448   8.086
  517POPC   C4B 9334   3.743  12.176   7.815
  518POPC   NC3 9335  17.916  27.037   9.742
  518POPC   PO4 9336  18.427  26.516   9.683
  518POPC   GL1 9337  18.381  26.658   9.190
  518POPC   GL2 9338  18.312  27.043   9.178
  518POPC   C1A 9339  18.210  26.600   8.773
  518POPC   D2A 9340  18.223  26.300   8.435
  518POPC   C3A 9341  18.136  26.532   8.041
  518POPC   C4A 9342  18.252  26.657   7.618
  518POPC   C1B 9343  18.607  26.981   8.846
  518POPC   C2B 9344  18.691  26.952   8.419
  518POPC   C3B 9345  18.481  26.946   8.039
  518POPC   C4B 9346  18.661  27.034   7.695
  519POPC   NC3 9347  40.163  37.475   9.480
  519POPC   PO4 9348  39.895  38.097   9.589
  519POPC   GL1 9349  40.116  37.932   9.211
  519POPC   GL2 9350  39.957  37.631   9.049
  519POPC   C1A 9351  40.286  37.914   8.806
  519POPC   D2A 9352  39.999  37.731   8.501
  519POPC   C3A 9353  40.059  37.853   8.097
  519POPC   C4A 9354  39.891  37.829   7.717
  519POPC   C1B 9355  39.748  37.367   8.767
  519POPC   C2B 9356  39.825  37.264   8.367
  519POPC   C3B 9357  39.812  37.393   7.953
  519POPC   C4B 9358  39.951  37.351   7.514
  520POPC   NC3 9359  34.920  40.000   9.626
  520POPC   PO4 9360  34.247  40.096   9.534
  520POPC   GL1 9361  34.439  40.037   9.118
  520POPC   GL2 9362  34.589  40.330   8.935
  520POPC   C1A 9363  34.573  39.856   8.730
  520POPC   D2A 9364  34.647  40.002   8.307
  520POPC   C3A 9365  34.579  39.693   7.966
  520POPC   C4A 9366  34.699  39.454   7.593
  520POPC   C1B 9367  34.254  40.279   8.633
  520POPC   C2B 9368  34.213  40.272   8.211
  520POPC   C3B 9369  34.446  40.186   7.865
  520POPC   C4B 9370  34.730  40.197   7.513
  521POPC   NC3 9371  34.419  28.516   9.613
  521POPC   PO4 9372  34.669  27.992   9.482
  521POPC   GL1 9373  34.462  28.275   9.170
  521POPC   GL2 9374  34.611  28.622   9.097
  521POPC   C1A 9375  34.452  28.263   8.742
  521POPC   D2A 9376  34.604  28.384   8.357
  521POPC   C3A 9377  34.616  28.091   8.034
  521POPC   C4A 9378  34.493  28.173   7.598
  521POPC   C1B 9379  34.918  28.613   8.708
  521POPC   C2B 9380  35.055  28.615   8.223
  521POPC   C3B 9381  34.778  28.555   7.874
  521POPC   C4B 9382  34.326  28.514   7.937
  522POPC   NC3 9383  13.341   3.219   9.539
  522POPC   PO4 9384  13.880   3.703   9.482
  522POPC   GL1 9385  13.588   3.581   9.140
  522POPC   GL2 9386  13.640   3.237   9.121
  522POPC   C1A 9387  13.380   3.578   8.727
  522POPC   D2A 9388  13.595   3.304   8.435
  522POPC   C3A 9389  13.814   3.317   8.037
  522POPC   C4A 9390  13.861   3.611   7.738
  522POPC   C1B 9391  13.209   3.133   8.906
  522POPC   C2B 9392  13.151   3.076   8.467
  522POPC   C3B 9393  13.272   3.311   8.046
  522POPC   C4B 9394  13.472   3.294   7.653
  523POPC   NC3 9395   1.530  44.131   9.544
  523POPC   PO4 9396   0.973  43.716   9.540
  523POPC   GL1 9397   1.136  43.739   9.141
  523POPC   GL2 9398   1.133  44.092   9.197
  523POPC   C1A 9399   1.341  43.702   8.721
  523POPC   D2A 9400   1.557  43.776   8.326
  523POPC   C3A 9401   1.323  43.606   7.969
  523POPC   C4A 9402   1.124  43.804   7.574
  523POPC   C1B 9403   1.201  44.172   8.797
  523POPC   C2B 9404   1.077  44.030   8.387
  523POPC   C3B 9405   1.204  44.100   7.976
  523POPC   C4B 9406   1.380  44.351   7.651
  524POPC   NC3 9407  12.672  34.193   9.453
  524POPC   PO4 9408  13.092  33.632   9.451
  524POPC   GL1 9409  12.921  33.879   9.131
  524POPC   GL2 9410  13.118  34.213   9.152
  524POPC   C1A 9411  13.033  33.861   8.698
  524POPC   D2A 9412  13.110  33.804   8.288
  524POPC   C3A 9413  12.708  33.683   8.106
  524POPC   C4A 9414  12.713  33.693   7.677
  524POPC   C1B 9415  12.817  34.308   8.814
  524POPC   C2B 9416  12.703  34.140   8.412
  524POPC   C3B 9417  12.808  34.172   7.989
  524POPC   C4B 9418  12.520  34.163   7.654
  525POPC   NC3 9419  30.931   4.710   9.465
  525POPC   PO4 9420  30.515   5.238   9.453
  525POPC   GL1 9421  30.594   5.011   9.085
  525POPC   GL2 9422  30.930   5.092   9.114
  525POPC   C1A 9423  30.782   4.791   8.707
  525POPC   D2A 9424  30.814   4.570   8.318
  525POPC   C3A 9425  30.589   4.830   8.064
  525POPC   C4A 9426  30.384   5.025   7.727
  525POPC   C1B 9427  30.865   5.320   8.731
  525POPC   C2B 9428  30.710   5.250   8.341
  525POPC   C3B 9429  30.858   5.229   7.911
  525POPC   C4B 9430  30.957   5.486   7.592
  526POPC   NC3 9431   7.801  39.800   9.420
  526POPC   PO4 9432   8.345  39.834   9.790
  526POPC   GL1 9433   8.345  39.911   9.301
  526POPC   GL2 9434   8.407  40.254   9.184
  526POPC   C1A 9435   8.197  39.873   8.849
  526POPC   D2A 9436   8.226  39.931   8.414
  526POPC   C3A 9437   7.932  39.746   8.130
  526POPC   C4A 9438   8.024  39.942   7.742
  526POPC   C1B 9439   8.233  40.380   8.804
  526POPC   C2B 9440   8.308  40.440   8.378
  526POPC   C3B 9441   8.398  40.220   8.000
  526POPC   C4B 9442   8.278  40.364   7.620
  527POPC   NC3 9443   3.946  21.246   9.360
  527POPC   PO4 9444   4.599  21.316   9.597
  527POPC   GL1 9445   4.454  21.273   9.193
  527POPC   GL2 9446   4.419  21.641   9.181
  527POPC   C1A 9447   4.573  21.113   8.769
  527POPC   D2A 9448   4.288  21.180   8.440
  527POPC   C3A 9449   4.382  21.196   8.025
  527POPC   C4A 9450   4.555  21.206   7.622
  527POPC   C1B 9451   4.645  21.622   8.774
  527POPC   C2B 9452   4.719  21.505   8.323
  527POPC   C3B 9453   4.526  21.673   7.922
  527POPC   C4B 9454   4.146  21.520   7.700
  528POPC   NC3 9455   3.504  24.984   9.511
  528POPC   PO4 9456   3.734  25.651   9.521
  528POPC   GL1 9457   3.439  25.412   9.249
  528POPC   GL2 9458   3.392  25.554   8.967
  528POPC   C1A 9459   3.376  25.069   8.882
  528POPC   D2A 9460   3.357  24.869   8.517
  528POPC   C3A 9461   3.338  25.202   8.242
  528POPC   C4A 9462   3.202  25.067   7.876
  528POPC   C1B 9463   3.791  25.360   8.816
  528POPC   C2B 9464   3.827  25.131   8.430
  528POPC   C3B 9465   3.798  25.269   8.021
  528POPC   C4B 9466   3.618  25.343   7.666
  529POPC   NC3 9467  21.537   2.112   9.540
  529POPC   PO4 9468  20.899   1.882   9.438
  529POPC   GL1 9469  21.237   1.934   9.167
  529POPC   GL2 9470  21.430   1.641   9.257
  529POPC   C1A 9471  21.361   2.147   8.783
  529POPC   D2A 9472  21.211   2.021   8.367
  529POPC   C3A 9473  21.441   2.142   7.991
  529POPC   C4A 9474  21.378   2.191   7.571
  529POPC   C1B 9475  21.568   1.680   8.849
  529POPC   C2B 9476  21.657   1.789   8.434
  529POPC   C3B 9477  21.472   1.648   8.059
  529POPC   C4B 9478  21.539   1.688   7.648
  530POPC   NC3 9479  22.559   8.731   9.349
  530POPC   PO4 9480  22.209   8.278   9.716
  530POPC   GL1 9481  22.132   8.331   9.225
  530POPC   GL2 9482  22.186   7.999   9.008
  530POPC   C1A 9483  22.027   8.422   8.767
  530POPC   D2A 9484  22.123   8.336   8.314
  530POPC   C3A 9485  21.924   8.524   7.938
  530POPC   C4A 9486  21.893   8.357   7.514
  530POPC   C1B 9487  22.272   7.906   8.572
  530POPC   C2B 9488  21.974   7.769   8.237
  530POPC   C3B 9489  22.029   8.033   7.889
  530POPC   C4B 9490  22.396   8.279   7.821
  531POPC   NC3 9491  44.979   4.464   9.431
  531POPC   PO4 9492  44.497   4.096   9.611
  531POPC   GL1 9493  44.574   4.288   9.168
  531POPC   GL2 9494  44.316   4.563   9.097
  531POPC   C1A 9495  44.913   4.290   8.798
  531POPC   D2A 9496   0.048   4.394   8.348
  531POPC   C3A 9497  44.783   4.188   8.008
  531POPC   C4A 9498  44.422   3.906   7.911
  531POPC   C1B 9499  44.627   4.721   8.752
  531POPC   C2B 9500  44.591   4.718   8.278
  531POPC   C3B 9501  44.390   4.531   7.884
  531POPC   C4B 9502  44.253   4.610   7.447
  532POPC   NC3 9503  35.036  25.407   9.863
  532POPC   PO4 9504  34.550  25.811   9.508
  532POPC   GL1 9505  34.425  26.035   9.158
  532POPC   GL2 9506  34.243  25.733   9.045
  532POPC   C1A 9507  34.600  26.328   8.822
  532POPC   D2A 9508  34.924  26.258   8.504
  532POPC   C3A 9509  34.842  26.448   8.127
  532POPC   C4A 9510  34.705  26.231   7.822
  532POPC   C1B 9511  34.472  25.854   8.682
  532POPC   C2B 9512  34.490  26.083   8.300
  532POPC   C3B 9513  34.270  25.994   7.932
  532POPC   C4B 9514  33.960  26.277   7.771
  533POPC   NC3 9515   2.594  18.373   9.201
  533POPC   PO4 9516   3.203  18.253   9.371
  533POPC   GL1 9517   3.108  18.487   9.036
  533POPC   GL2 9518   2.961  18.198   8.865
  533POPC   C1A 9519   2.907  18.648   8.637
  533POPC   D2A 9520   2.891  18.333   8.352
  533POPC   C3A 9521   2.794  18.354   7.948
  533POPC   C4A 9522   2.763  18.739   7.751
  533POPC   C1B 9523   2.545  18.110   8.638
  533POPC   C2B 9524   2.391  18.213   8.266
  533POPC   C3B 9525   2.446  17.958   7.953
  533POPC   C4B 9526   2.527  18.005   7.505
  534POPC   NC3 9527  30.231   4.014   9.403
  534POPC   PO4 9528  29.847   4.499   9.358
  534POPC   GL1 9529  29.829   4.116   9.074
  534POPC   GL2 9530  29.532   4.040   8.851
  534POPC   C1A 9531  30.001   3.931   8.672
  534POPC   D2A 9532  30.032   4.179   8.282
  534POPC   C3A 9533  30.069   4.022   7.878
  534POPC   C4A 9534  30.187   4.214   7.466
  534POPC   C1B 9535  29.812   4.415   8.679
  534POPC   C2B 9536  29.808   4.758   8.408
  534POPC   C3B 9537  29.599   4.702   8.011
  534POPC   C4B 9538  29.754   4.386   7.709
  535POPC   NC3 9539  29.704  19.448   9.390
  535POPC   PO4 9540  30.012  20.094   9.450
  535POPC   GL1 9541  29.966  19.994   9.037
  535POPC   GL2 9542  29.650  19.861   9.080
  535POPC   C1A 9543  30.071  19.662   8.712
  535POPC   D2A 9544  30.246  19.388   8.349
  535POPC   C3A 9545  30.101  19.608   7.963
  535POPC   C4A 9546  29.943  20.047   7.934
  535POPC   C1B 9547  29.523  19.588   8.727
  535POPC   C2B 9548  29.550  19.733   8.294
  535POPC   C3B 9549  29.589  19.685   7.870
  535POPC   C4B 9550  29.648  19.303   7.743
  536POPC   NC3 9551   2.268  12.164   9.275
  536POPC   PO4 9552   2.835  12.126   9.580
  536POPC   GL1 9553   2.777  12.234   9.171
  536POPC   GL2 9554   3.029  12.475   9.151
  536POPC   C1A 9555   2.659  12.023   8.788
  536POPC   D2A 9556   2.803  11.881   8.407
  536POPC   C3A 9557   2.530  11.901   8.088
  536POPC   C4A 9558   2.639  12.018   7.672
  536POPC   C1B 9559   3.096  12.241   8.731
  536POPC   C2B 9560   3.088  12.323   8.289
  536POPC   C3B 9561   2.850  12.403   7.932
  536POPC   C4B 9562   2.940  12.437   7.493
  537POPC   NC3 9563  42.803  37.565   9.768
  537POPC   PO4 9564  43.426  37.590   9.706
  537POPC   GL1 9565  43.207  37.646   9.244
  537POPC   GL2 9566  42.823  37.700   9.216
  537POPC   C1A 9567  43.340  37.513   8.788
  537POPC   D2A 9568  43.362  37.177   8.487
  537POPC   C3A 9569  43.487  37.341   8.089
  537POPC   C4A 9570  43.354  37.672   7.804
  537POPC   C1B 9571  42.910  37.754   8.754
  537POPC   C2B 9572  43.106  37.678   8.318
  537POPC   C3B 9573  42.925  37.889   7.933
  537POPC   C4B 9574  42.753  38.222   7.631
  538POPC   NC3 9575   3.629  41.582   9.659
  538POPC   PO4 9576   3.324  42.084   9.328
  538POPC   GL1 9577   3.588  41.720   9.152
  538POPC   GL2 9578   3.756  41.393   9.206
  538POPC   C1A 9579   3.597  41.670   8.686
  538POPC   D2A 9580   3.314  41.526   8.339
  538POPC   C3A 9581   3.448  41.614   7.938
  538POPC   C4A 9582   3.560  41.265   7.678
  538POPC   C1B 9583   3.932  41.308   8.815
  538POPC   C2B 9584   3.750  41.253   8.410
  538POPC   C3B 9585   3.910  41.277   8.024
  538POPC   C4B 9586   3.928  41.654   7.757
  539POPC   NC3 9587  16.154  36.174   9.463
  539POPC   PO4 9588  15.717  35.666   9.758
  539POPC   GL1 9589  15.648  35.993   9.303
  539POPC   GL2 9590  15.772  36.261   9.119
  539POPC   C1A 9591  15.655  35.878   8.807
  539POPC   D2A 9592  15.833  36.146   8.434
  539POPC   C3A 9593  15.887  35.953   8.044
  539POPC   C4A 9594  15.867  36.154   7.675
  539POPC   C1B 9595  16.141  36.115   8.835
  539POPC   C2B 9596  16.425  36.237   8.515
  539POPC   C3B 9597  16.340  36.257   8.059
  539POPC   C4B 9598  16.365  36.197   7.620
  540POPC   NC3 9599   3.949  44.128   9.395
  540POPC   PO4 9600   4.580  43.750   9.585
  540POPC   GL1 9601   4.373  43.874   9.217
  540POPC   GL2 9602   4.610  44.024   9.048
  540POPC   C1A 9603   4.123  43.908   8.817
  540POPC   D2A 9604   4.069  43.792   8.377
  540POPC   C3A 9605   4.399  43.872   8.087
  540POPC   C4A 9606   4.308  44.211   7.744
  540POPC   C1B 9607   4.574  44.039   8.610
  540POPC   C2B 9608   4.837  44.146   8.280
  540POPC   C3B 9609   4.807  44.104   7.861
  540POPC   C4B 9610   4.781  44.167   7.444
  541POPC   NC3 9611  27.878  17.545   9.600
  541POPC   PO4 9612  27.288  17.654   9.442
  541POPC   GL1 9613  27.633  17.655   9.155
  541POPC   GL2 9614  27.812  17.302   9.167
  541POPC   C1A 9615  27.563  17.678   8.721
  541POPC   D2A 9616  27.518  17.355   8.409
  541POPC   C3A 9617  27.669  17.545   8.073
  541POPC   C4A 9618  27.486  17.681   7.724
  541POPC   C1B 9619  27.867  17.206   8.749
  541POPC   C2B 9620  28.058  17.306   8.378
  541POPC   C3B 9621  28.008  17.197   7.977
  541POPC   C4B 9622  27.749  17.227   7.648
  542POPC   NC3 9623  32.677  22.908   9.527
  542POPC   PO4 9624  33.128  23.254   9.292
  542POPC   GL1 9625  33.036  22.856   9.122
  542POPC   GL2 9626  32.695  22.782   9.032
  542POPC   C1A 9627  33.162  22.714   8.713
  542POPC   D2A 9628  33.421  22.685   8.323
  542POPC   C3A 9629  33.271  22.927   7.984
  542POPC   C4A 9630  33.259  23.341   7.803
  542POPC   C1B 9631  32.646  22.755   8.610
  542POPC   C2B 9632  32.863  22.823   8.292
  542POPC   C3B 9633  32.785  23.038   7.949
  542POPC   C4B 9634  32.750  22.856   7.579
  543POPC   NC3 9635  28.342  22.965   9.620
  543POPC   PO4 9636  28.823  22.549   9.522
  543POPC   GL1 9637  28.540  22.723   9.166
  543POPC   GL2 9638  28.158  22.681   9.187
  543POPC   C1A 9639  28.579  23.049   8.803
  543POPC   D2A 9640  28.573  22.957   8.347
  543POPC   C3A 9641  28.672  23.272   8.023
  543POPC   C4A 9642  28.650  22.963   7.719
  543POPC   C1B 9643  28.189  22.723   8.716
  543POPC   C2B 9644  28.071  23.063   8.395
  543POPC   C3B 9645  28.190  23.070   7.959
  543POPC   C4B 9646  28.203  22.718   7.665
  544POPC   NC3 9647   7.497  31.733   9.395
  544POPC   PO4 9648   7.208  31.092   9.595
  544POPC   GL1 9649   7.202  31.345   9.194
  544POPC   GL2 9650   6.897  31.579   9.202
  544POPC   C1A 9651   7.374  31.268   8.758
  544POPC   D2A 9652   7.589  31.415   8.350
  544POPC   C3A 9653   7.462  31.215   7.936
  544POPC   C4A 9654   7.140  31.358   7.626
  544POPC   C1B 9655   7.124  31.702   8.824
  544POPC   C2B 9656   7.286  31.822   8.450
  544POPC   C3B 9657   7.281  31.707   8.029
  544POPC   C4B 9658   6.988  31.828   7.761
  545POPC   NC3 9659   5.200  33.436   9.353
  545POPC   PO4 9660   4.813  32.935   9.499
  545POPC   GL1 9661   5.094  32.986   9.141
  545POPC   GL2 9662   4.870  32.869   8.913
  545POPC   C1A 9663   5.257  33.188   8.749
  545POPC   D2A 9664   5.209  33.480   8.396
  545POPC   C3A 9665   5.340  33.337   7.996
  545POPC   C4A 9666   5.519  33.530   7.599
  545POPC   C1B 9667   5.057  32.751   8.520
  545POPC   C2B 9668   5.000  32.944   8.117
  545POPC   C3B 9669   4.795  33.012   7.699
  545POPC   C4B 9670   4.864  32.911   7.241
  546POPC   NC3 9671  12.345  22.315   9.586
  546POPC   PO4 9672  11.945  21.859   9.437
  546POPC   GL1 9673  12.056  22.083   9.113
  546POPC   GL2 9674  12.087  22.473   9.186
  546POPC   C1A 9675  11.906  22.053   8.697
  546POPC   D2A 9676  12.013  21.880   8.294
  546POPC   C3A 9677  11.781  22.004   7.925
  546POPC   C4A 9678  12.074  22.061   7.606
  546POPC   C1B 9679  12.219  22.453   8.788
  546POPC   C2B 9680  12.276  22.288   8.402
  546POPC   C3B 9681  12.114  22.377   8.011
  546POPC   C4B 9682  12.052  22.686   7.718
  547POPC   NC3 9683  31.657   3.008   9.461
  547POPC   PO4 9684  31.210   3.639   9.544
  547POPC   GL1 9685  31.441   3.592   9.148
  547POPC   GL2 9686  31.337   3.261   9.149
  547POPC   C1A 9687  31.743   3.361   8.835
  547POPC   D2A 9688  31.968   3.318   8.426
  547POPC   C3A 9689  31.706   3.574   8.138
  547POPC   C4A 9690  31.498   3.606   7.737
  547POPC   C1B 9691  31.228   3.311   8.747
  547POPC   C2B 9692  31.440   3.214   8.385
  547POPC   C3B 9693  31.267   3.238   8.012
  547POPC   C4B 9694  31.156   3.221   7.593
  548POPC   NC3 9695  37.015  28.778   9.530
  548POPC   PO4 9696  36.858  29.426   9.621
  548POPC   GL1 9697  37.010  29.214   9.241
  548POPC   GL2 9698  36.742  29.396   9.117
  548POPC   C1A 9699  36.941  28.990   8.826
  548POPC   D2A 9700  36.729  28.857   8.415
  548POPC   C3A 9701  36.861  29.033   8.001
  548POPC   C4A 9702  37.068  29.157   7.630
  548POPC   C1B 9703  36.586  29.385   8.742
  548POPC   C2B 9704  36.749  29.388   8.386
  548POPC   C3B 9705  36.552  29.417   8.060
  548POPC   C4B 9706  36.595  29.410   7.666
  549POPC   NC3 9707  29.281  22.633   9.541
  549POPC   PO4 9708  29.518  23.255   9.383
  549POPC   GL1 9709  29.253  22.938   9.139
  549POPC   GL2 9710  29.376  22.605   9.055
  549POPC   C1A 9711  29.068  22.851   8.734
  549POPC   D2A 9712  29.061  23.129   8.391
  549POPC   C3A 9713  29.075  22.957   7.981
  549POPC   C4A 9714  29.099  23.185   7.563
  549POPC   C1B 9715  29.569  22.615   8.692
  549POPC   C2B 9716  29.414  22.752   8.342
  549POPC   C3B 9717  29.540  22.746   7.951
  549POPC   C4B 9718  29.548  22.618   7.512
  550POPC   NC3 9719  40.495   7.646   9.318
  550POPC   PO4 9720  41.012   7.307   9.550
  550POPC   GL1 9721  40.852   7.312   9.105
  550POPC   GL2 9722  40.984   7.627   9.070
  550POPC   C1A 9723  40.591   7.533   8.706
  550POPC   D2A 9724  40.472   7.801   8.330
  550POPC   C3A 9725  40.608   7.592   7.956
  550POPC   C4A 9726  40.561   7.126   7.880
  550POPC   C1B 9727  41.072   7.433   8.655
  550POPC   C2B 9728  40.846   7.271   8.300
  550POPC   C3B 9729  41.056   7.202   7.923
  550POPC   C4B 9730  41.108   7.566   7.784
  551POPC   NC3 9731  37.916  16.773   9.411
  551POPC   PO4 9732  37.314  17.003   9.601
  551POPC   GL1 9733  37.462  16.929   9.145
  551POPC   GL2 9734  37.394  16.592   9.212
  551POPC   C1A 9735  37.754  16.826   8.748
  551POPC   D2A 9736  38.057  16.834   8.376
  551POPC   C3A 9737  38.000  16.825   7.974
  551POPC   C4A 9738  37.632  16.724   7.768
  551POPC   C1B 9739  37.343  16.532   8.751
  551POPC   C2B 9740  37.496  16.567   8.294
  551POPC   C3B 9741  37.399  16.294   7.902
  551POPC   C4B 9742  37.450  16.346   7.407
  552POPC   NC3 9743  21.275  43.866   9.630
  552POPC   PO4 9744  21.871  44.205   9.421
  552POPC   GL1 9745  21.478  44.143   9.162
  552POPC   GL2 9746  21.106  44.030   9.186
  552POPC   C1A 9747  21.419  44.059   8.705
  552POPC   D2A 9748  21.523  43.783   8.343
  552POPC   C3A 9749  21.542  43.924   7.904
  552POPC   C4A 9750  21.691  43.729   7.510
  552POPC   C1B 9751  21.054  43.657   8.954
  552POPC   C2B 9752  20.999  43.637   8.534
  552POPC   C3B 9753  21.128  43.511   8.166
  552POPC   C4B 9754  21.115  43.654   7.773
  553POPC   NC3 9755  41.875  14.634   9.553
  553POPC   PO4 9756  42.238  15.035   9.305
  553POPC   GL1 9757  42.406  15.269   9.033
  553POPC   GL2 9758  42.690  15.025   8.981
  553POPC   C1A 9759  42.202  15.382   8.676
  553POPC   D2A 9760  42.344  15.330   8.267
  553POPC   C3A 9761  42.116  15.358   7.892
  553POPC   C4A 9762  42.269  15.292   7.455
  553POPC   C1B 9763  42.515  14.961   8.574
  553POPC   C2B 9764  42.668  14.926   8.145
  553POPC   C3B 9765  42.713  14.815   7.722
  553POPC   C4B 9766  42.569  14.525   7.400
  554POPC   NC3 9767  44.558  27.067   9.540
  554POPC   PO4 9768  44.723  26.440   9.705
  554POPC   GL1 9769  44.613  26.677   9.196
  554POPC   GL2 9770  44.768  27.020   9.088
  554POPC   C1A 9771  44.491  26.790   8.746
  554POPC   D2A 9772  44.693  26.642   8.379
  554POPC   C3A 9773  44.703  26.677   7.965
  554POPC   C4A 9774  44.417  26.857   7.750
  554POPC   C1B 9775  44.689  27.263   8.678
  554POPC   C2B 9776  44.621  27.193   8.191
  554POPC   C3B 9777  44.836  27.132   7.758
  554POPC   C4B 9778   0.013  27.143   7.321
  555POPC   NC3 9779  16.277  39.086   9.551
  555POPC   PO4 9780  15.843  39.532   9.561
  555POPC   GL1 9781  15.911  39.289   9.177
  555POPC   GL2 9782  16.056  38.953   9.099
  555POPC   C1A 9783  15.914  39.274   8.732
  555POPC   D2A 9784  15.695  39.183   8.379
  555POPC   C3A 9785  15.620  39.480   8.092
  555POPC   C4A 9786  15.803  39.221   7.820
  555POPC   C1B 9787  16.010  38.761   8.674
  555POPC   C2B 9788  16.074  38.869   8.213
  555POPC   C3B 9789  16.036  38.783   7.743
  555POPC   C4B 9790  16.028  38.876   7.292
  556POPC   NC3 9791  27.065  27.136   9.381
  556POPC   PO4 9792  26.401  27.187   9.422
  556POPC   GL1 9793  26.628  27.108   9.078
  556POPC   GL2 9794  26.737  26.776   9.199
  556POPC   C1A 9795  26.863  27.188   8.711
  556POPC   D2A 9796  27.023  26.968   8.364
  556POPC   C3A 9797  26.898  27.035   7.948
  556POPC   C4A 9798  27.256  27.067   7.721
  556POPC   C1B 9799  26.775  26.666   8.769
  556POPC   C2B 9800  27.011  26.459   8.452
  556POPC   C3B 9801  27.027  26.539   8.025
  556POPC   C4B 9802  26.851  26.586   7.630
  557POPC   NC3 9803   4.590  30.399   9.439
  557POPC   PO4 9804   4.733  30.937   9.133
  557POPC   GL1 9805   4.356  30.728   8.955
  557POPC   GL2 9806   4.270  30.349   8.949
  557POPC   C1A 9807   4.222  30.877   8.547
  557POPC   D2A 9808   4.426  30.722   8.184
  557POPC   C3A 9809   4.500  30.912   7.828
  557POPC   C4A 9810   4.251  30.912   7.447
  557POPC   C1B 9811   3.926  30.470   8.626
  557POPC   C2B 9812   3.887  30.586   8.189
  557POPC   C3B 9813   4.126  30.549   7.807
  557POPC   C4B 9814   4.075  30.420   7.346
  558POPC   NC3 9815   5.505   1.133   9.871
  558POPC   PO4 9816   5.225   1.698   9.599
  558POPC   GL1 9817   5.066   1.517   9.189
  558POPC   GL2 9818   5.197   1.175   9.153
  558POPC   C1A 9819   4.931   1.438   8.740
  558POPC   D2A 9820   5.194   1.373   8.386
  558POPC   C3A 9821   5.091   1.233   7.991
  558POPC   C4A 9822   5.232   1.457   7.682
  558POPC   C1B 9823   5.149   0.982   8.732
  558POPC   C2B 9824   5.300   0.876   8.302
  558POPC   C3B 9825   5.519   0.976   7.880
  558POPC   C4B 9826   5.376   0.977   7.441
  559POPC   NC3 9827  41.113  14.541   9.560
  559POPC   PO4 9828  41.711  14.208   9.507
  559POPC   GL1 9829  41.421  14.347   9.162
  559POPC   GL2 9830  41.307  14.701   9.137
  559POPC   C1A 9831  41.326  14.352   8.697
  559POPC   D2A 9832  41.568  14.305   8.318
  559POPC   C3A 9833  41.457  14.163   7.886
  559POPC   C4A 9834  41.843  14.149   7.621
  559POPC   C1B 9835  41.583  14.796   8.813
  559POPC   C2B 9836  41.491  14.807   8.380
  559POPC   C3B 9837  41.642  14.705   7.964
  559POPC   C4B 9838  41.550  14.536   7.575
  560POPC   NC3 9839  10.220  20.984   9.364
  560POPC   PO4 9840  10.574  20.552   9.759
  560POPC   GL1 9841  10.460  20.497   9.287
  560POPC   GL2 9842  10.289  20.215   9.225
  560POPC   C1A 9843  10.337  20.631   8.829
  560POPC   D2A 9844  10.232  20.811   8.397
  560POPC   C3A 9845  10.558  20.700   8.097
  560POPC   C4A 9846  10.802  20.731   7.736
  560POPC   C1B 9847  10.414  20.134   8.807
  560POPC   C2B 9848  10.193  20.289   8.463
  560POPC   C3B 9849  10.258  20.288   8.058
  560POPC   C4B 9850  10.098  20.444   7.695
  561POPC   NC3 9851  15.934  29.519   9.370
  561POPC   PO4 9852  16.170  28.785   9.390
  561POPC   GL1 9853  16.082  29.058   9.069
  561POPC   GL2 9854  15.849  28.803   8.954
  561POPC   C1A 9855  15.884  29.214   8.672
  561POPC   D2A 9856  16.044  29.133   8.254
  561POPC   C3A 9857  15.907  29.441   7.948
  561POPC   C4A 9858  15.796  29.590   7.544
  561POPC   C1B 9859  15.845  28.689   8.512
  561POPC   C2B 9860  15.566  28.692   8.158
  561POPC   C3B 9861  15.753  28.968   7.856
  561POPC   C4B 9862  16.218  28.878   7.820
  562POPC   NC3 9863   6.207   2.426   9.700
  562POPC   PO4 9864   5.854   1.862   9.542
  562POPC   GL1 9865   5.959   1.947   9.188
  562POPC   GL2 9866   5.788   2.254   9.147
  562POPC   C1A 9867   5.848   1.910   8.786
  562POPC   D2A 9868   5.868   2.158   8.418
  562POPC   C3A 9869   5.878   1.966   8.040
  562POPC   C4A 9870   6.147   1.944   7.668
  562POPC   C1B 9871   5.518   2.302   8.785
  562POPC   C2B 9872   5.338   2.218   8.404
  562POPC   C3B 9873   5.486   2.329   8.010
  562POPC   C4B 9874   5.692   2.240   7.645
  563POPC   NC3 9875  20.342  36.538   9.470
  563POPC   PO4 9876  20.810  35.983   9.430
  563POPC   GL1 9877  20.614  36.168   9.093
  563POPC   GL2 9878  20.317  36.310   9.021
  563POPC   C1A 9879  20.655  36.197   8.645
  563POPC   D2A 9880  20.835  36.226   8.213
  563POPC   C3A 9881  20.560  36.034   7.888
  563POPC   C4A 9882  20.237  35.977   7.553
  563POPC   C1B 9883  20.295  36.584   8.722
  563POPC   C2B 9884  20.382  36.704   8.300
  563POPC   C3B 9885  20.504  36.556   7.910
  563POPC   C4B 9886  20.922  36.448   7.729
  564POPC   NC3 9887  41.224  33.937   9.380
  564POPC   PO4 9888  41.707  33.531   9.379
  564POPC   GL1 9889  41.447  33.656   9.036
  564POPC   GL2 9890  41.406  34.050   8.921
  564POPC   C1A 9891  41.176  33.646   8.703
  564POPC   D2A 9892  41.242  33.826   8.321
  564POPC   C3A 9893  41.527  33.732   8.027
  564POPC   C4A 9894  41.532  34.105   7.811
  564POPC   C1B 9895  41.673  33.827   8.617
  564POPC   C2B 9896  41.893  33.542   8.343
  564POPC   C3B 9897  42.005  33.573   7.881
  564POPC   C4B 9898  41.847  33.802   7.528
  565POPC   NC3 9899  40.416  29.737   9.667
  565POPC   PO4 9900  39.823  29.986   9.962
  565POPC   GL1 9901  40.029  30.014   9.499
  565POPC   GL2 9902  40.017  29.660   9.341
  565POPC   C1A 9903  40.125  30.116   9.039
  565POPC   D2A 9904  39.925  30.205   8.621
  565POPC   C3A 9905  39.993  30.057   8.168
  565POPC   C4A 9906  39.750  29.785   7.852
  565POPC   C1B 9907  40.258  29.640   8.950
  565POPC   C2B 9908  40.169  29.750   8.553
  565POPC   C3B 9909  40.246  29.591   8.160
  565POPC   C4B 9910  40.240  29.732   7.737
  566POPC   NC3 9911   3.243   0.679   9.574
  566POPC   PO4 9912   3.853   0.255   9.431
  566POPC   GL1 9913   3.477   0.397   9.198
  566POPC   GL2 9914   3.376   0.720   9.100
  566POPC   C1A 9915   3.518   0.354   8.742
  566POPC   D2A 9916   3.614   0.091   8.359
  566POPC   C3A 9917   3.481   0.238   7.940
  566POPC   C4A 9918   3.719   0.287   7.561
  566POPC   C1B 9919   3.233   0.984   8.809
  566POPC   C2B 9920   3.203   0.773   8.441
  566POPC   C3B 9921   3.323   0.731   8.058
  566POPC   C4B 9922   3.454   0.699   7.697
  567POPC   NC3 9923  34.105  42.120   9.570
  567POPC   PO4 9924  33.552  42.447   9.525
  567POPC   GL1 9925  33.847  42.385   9.215
  567POPC   GL2 9926  33.811  42.044   9.144
  567POPC   C1A 9927  33.803  42.469   8.788
  567POPC   D2A 9928  33.912  42.667   8.425
  567POPC   C3A 9929  33.761  42.492   8.084
  567POPC   C4A 9930  33.756  42.615   7.681
  567POPC   C1B 9931  33.676  41.986   8.743
  567POPC   C2B 9932  33.971  42.138   8.425
  567POPC   C3B 9933  33.946  42.021   7.992
  567POPC   C4B 9934  33.847  42.113   7.555
  568POPC   NC3 9935   8.540  42.006   9.406
  568POPC   PO4 9936   9.171  42.534   9.421
  568POPC   GL1 9937   8.897  42.389   9.130
  568POPC   GL2 9938   8.555  42.468   9.159
  568POPC   C1A 9939   8.896  42.213   8.744
  568POPC   D2A 9940   8.715  42.114   8.364
  568POPC   C3A 9941   9.076  42.038   8.125
  568POPC   C4A 9942   9.291  42.114   7.768
  568POPC   C1B 9943   8.631  42.675   8.759
  568POPC   C2B 9944   8.494  42.623   8.334
  568POPC   C3B 9945   8.617  42.615   7.905
  568POPC   C4B 9946   8.784  42.220   7.723
  569POPC   NC3 9947  42.093  26.290   9.577
  569POPC   PO4 9948  42.499  25.795   9.459
  569POPC   GL1 9949  42.452  26.045   9.088
  569POPC   GL2 9950  42.199  26.317   9.103
  569POPC   C1A 9951  42.536  26.032   8.645
  569POPC   D2A 9952  42.597  26.146   8.229
  569POPC   C3A 9953  42.442  25.887   7.913
  569POPC   C4A 9954  42.485  26.046   7.503
  569POPC   C1B 9955  42.303  26.464   8.750
  569POPC   C2B 9956  42.106  26.344   8.411
  569POPC   C3B 9957  42.167  26.313   8.030
  569POPC   C4B 9958  42.044  26.233   7.656
  570POPC   NC3 9959   9.957   6.275   9.638
  570POPC   PO4 9960   9.557   6.820   9.545
  570POPC   GL1 9961   9.716   6.560   9.219
  570POPC   GL2 9962  10.076   6.498   9.197
  570POPC   C1A 9963   9.735   6.456   8.780
  570POPC   D2A 9964   9.544   6.434   8.381
  570POPC   C3A 9965   9.657   6.583   7.943
  570POPC   C4A 9966   9.742   6.371   7.506
  570POPC   C1B 9967  10.007   6.859   8.892
  570POPC   C2B 9968   9.903   6.885   8.454
  570POPC   C3B 9969  10.027   6.980   8.054
  570POPC   C4B 9970  10.068   6.772   7.686
  571POPC   NC3 9971  28.412  10.861   9.360
  571POPC   PO4 9972  28.319  10.220   9.538
  571POPC   GL1 9973  28.253  10.426   9.145
  571POPC   GL2 9974  28.570  10.334   8.995
  571POPC   C1A 9975  28.316  10.681   8.743
  571POPC   D2A 9976  28.654  10.480   8.469
  571POPC   C3A 9977  28.571  10.415   8.032
  571POPC   C4A 9978  28.207  10.434   7.759
  571POPC   C1B 9979  28.261  10.181   8.665
  571POPC   C2B 9980  28.315  10.012   8.231
  571POPC   C3B 9981  28.422   9.984   7.763
  571POPC   C4B 9982  28.422  10.219   7.336
  572POPC   NC3 9983  37.536   6.944   9.475
  572POPC   PO4 9984  38.155   6.647   9.425
  572POPC   GL1 9985  37.937   6.902   9.153
  572POPC   GL2 9986  37.681   6.644   9.024
  572POPC   C1A 9987  37.732   7.119   8.828
  572POPC   D2A 9988  37.537   7.129   8.440
  572POPC   C3A 9989  37.766   7.028   8.067
  572POPC   C4A 9990  37.613   6.945   7.671
  572POPC   C1B 9991  37.376   6.430   8.716
  572POPC   C2B 9992  37.424   6.323   8.266
  572POPC   C3B 9993  37.482   6.467   7.826
  572POPC   C4B 9994  37.693   6.288   7.442
  573POPC   NC3 9995  21.846  11.289   9.624
  573POPC   PO4 9996  22.513  11.283   9.650
  573POPC   GL1 9997  22.339  11.221   9.197
  573POPC   GL2 9998  21.969  11.237   9.105
  573POPC   C1A 9999  22.257  10.989   8.793
  573POPC   D2A10000  22.382  11.116   8.388
  573POPC   C3A10001  22.189  11.047   8.015
  573POPC   C4A10002  22.350  11.325   7.694
  573POPC   C1B10003  22.037  11.420   8.647
  573POPC   C2B10004  22.115  11.526   8.190
  573POPC   C3B10005  21.909  11.573   7.782
  573POPC   C4B10006  21.585  11.415   7.520
  574POPC   NC310007  31.361  20.072   9.350
  574POPC   PO410008  31.516  20.698   9.448
  574POPC   GL110009  31.431  20.481   9.073
  574POPC   GL210010  31.729  20.248   9.055
  574POPC   C1A10011  31.287  20.589   8.675
  574POPC   D2A10012  31.511  20.889   8.405
  574POPC   C3A10013  31.598  20.673   8.026
  574POPC   C4A10014  31.213  20.556   7.837
  574POPC   C1B10015  31.653  20.216   8.640
  574POPC   C2B10016  31.373  20.251   8.280
  574POPC   C3B10017  31.494  20.120   7.880
  574POPC   C4B10018  31.765  20.385   7.638
  575POPC   NC310019   2.521  27.578   9.446
  575POPC   PO410020   1.927  27.852   9.453
  575POPC   GL110021   1.956  27.501   9.161
  575POPC   GL210022   2.236  27.573   8.964
  575POPC   C1A10023   1.837  27.260   8.784
  575POPC   D2A10024   1.619  27.314   8.383
  575POPC   C3A10025   1.913  27.469   8.039
  575POPC   C4A10026   1.956  27.418   7.580
  575POPC   C1B10027   2.121  27.612   8.521
  575POPC   C2B10028   2.114  27.941   8.188
  575POPC   C3B10029   2.218  27.835   7.769
  575POPC   C4B10030   2.193  27.816   7.334
  576POPC   NC310031  29.270  44.379   9.368
  576POPC   PO410032  29.184  43.668   9.365
  576POPC   GL110033  29.051  44.005   9.085
  576POPC   GL210034  29.275  44.223   8.882
  576POPC   C1A10035  28.865  43.945   8.675
  576POPC   D2A10036  28.738  43.599   8.405
  576POPC   C3A10037  28.786  43.762   7.973
  576POPC   C4A10038  29.028  44.040   7.705
  576POPC   C1B10039  29.367  43.787   8.731
  576POPC   C2B10040  29.506  43.622   8.341
  576POPC   C3B10041  29.422  43.717   7.887
  576POPC   C4B10042  29.497  43.533   7.480
  577POPC   NC310043   3.853   3.004   9.357
  577POPC   PO410044   3.324   2.710   9.676
  577POPC   GL110045   3.364   2.669   9.195
  577POPC   GL210046   3.592   2.548   8.901
  577POPC   C1A10047   3.228   2.893   8.807
  577POPC   D2A10048   3.411   2.782   8.441
  577POPC   C3A10049   3.389   3.097   8.128
  577POPC   C4A10050   3.303   2.978   7.708
  577POPC   C1B10051   3.939   2.756   8.603
  577POPC   C2B10052   3.880   2.958   8.252
  577POPC   C3B10053   3.655   2.690   8.004
  577POPC   C4B10054   3.520   2.522   7.639
  578POPC   NC310055  27.206  38.176   9.583
  578POPC   PO410056  26.605  38.182   9.503
  578POPC   GL110057  26.884  38.278   9.145
  578POPC   GL210058  27.002  38.590   9.073
  578POPC   C1A10059  26.767  38.349   8.703
  578POPC   D2A10060  26.891  38.147   8.339
  578POPC   C3A10061  26.989  38.382   7.989
  578POPC   C4A10062  27.272  38.441   7.648
  578POPC   C1B10063  27.171  38.706   8.745
  578POPC   C2B10064  27.056  38.718   8.359
  578POPC   C3B10065  27.258  38.822   7.987
  578POPC   C4B10066  27.154  39.020   7.606
  579POPC   NC310067   9.503  43.682   9.531
  579POPC   PO410068   9.088  44.221   9.523
  579POPC   GL110069   8.900  44.043   9.164
  579POPC   GL210070   9.010  43.692   9.232
  579POPC   C1A10071   8.872  44.170   8.726
  579POPC   D2A10072   9.072  44.294   8.364
  579POPC   C3A10073   9.002  44.082   7.985
  579POPC   C4A10074   9.282  43.972   7.680
  579POPC   C1B10075   8.865  43.660   8.789
  579POPC   C2B10076   8.768  43.777   8.346
  579POPC   C3B10077   8.864  43.571   7.946
  579POPC   C4B10078   8.853  43.551   7.502
  580POPC   NC310079   4.002  23.077   9.467
  580POPC   PO410080   4.685  23.006   9.451
  580POPC   GL110081   4.366  23.007   9.115
  580POPC   GL210082   4.268  23.312   9.103
  580POPC   C1A10083   4.161  22.983   8.710
  580POPC   D2A10084   4.284  23.045   8.323
  580POPC   C3A10085   4.248  22.803   8.004
  580POPC   C4A10086   4.072  23.090   7.758
  580POPC   C1B10087   4.449  23.403   8.727
  580POPC   C2B10088   4.672  23.373   8.331
  580POPC   C3B10089   4.567  23.245   7.935
  580POPC   C4B10090   4.406  23.427   7.587
  581POPC   NC310091   2.866  17.998   9.562
  581POPC   PO410092   3.665  18.186   9.619
  581POPC   GL110093   3.736  18.160   9.140
  581POPC   GL210094   3.455  18.046   8.996
  581POPC   C1A10095   3.748  18.274   8.648
  581POPC   D2A10096   3.810  18.648   8.347
  581POPC   C3A10097   3.718  18.576   7.924
  581POPC   C4A10098   3.487  18.442   7.545
  581POPC   C1B10099   3.328  17.894   8.642
  581POPC   C2B10100   3.362  18.127   8.318
  581POPC   C3B10101   3.283  18.187   7.929
  581POPC   C4B10102   3.671  18.071   7.823
  582POPC   NC310103  11.128   3.962   9.479
  582POPC   PO410104  11.222   3.312   9.476
  582POPC   GL110105  11.353   3.379   9.096
  582POPC   GL210106  11.488   3.685   9.211
  582POPC   C1A10107  11.231   3.499   8.710
  582POPC   D2A10108  11.077   3.433   8.345
  582POPC   C3A10109  11.348   3.300   8.059
  582POPC   C4A10110  11.323   3.534   7.692
  582POPC   C1B10111  11.476   3.906   8.874
  582POPC   C2B10112  11.572   3.874   8.484
  582POPC   C3B10113  11.387   3.829   8.106
  582POPC   C4B10114  11.499   4.011   7.753
  583POPC   NC310115   9.323   9.051   9.598
  583POPC   PO410116   9.916   8.866   9.559
  583POPC   GL110117   9.709   9.000   9.242
  583POPC   GL210118   9.495   8.760   9.204
  583POPC   C1A10119   9.571   9.108   8.828
  583POPC   D2A10120   9.754   8.944   8.463
  583POPC   C3A10121   9.666   9.093   8.079
  583POPC   C4A10122   9.820   8.924   7.685
  583POPC   C1B10123   9.600   8.577   8.841
  583POPC   C2B10124   9.407   8.568   8.481
  583POPC   C3B10125   9.597   8.580   8.104
  583POPC   C4B10126   9.599   8.443   7.736
  584POPC   NC310127  31.187  19.604   9.682
  584POPC   PO410128  31.787  19.903   9.451
  584POPC   GL110129  31.625  19.718   9.099
  584POPC   GL210130  31.272  19.657   9.082
  584POPC   C1A10131  31.648  19.679   8.690
  584POPC   D2A10132  31.554  19.789   8.326
  584POPC   C3A10133  31.748  19.681   8.001
  584POPC   C4A10134  31.619  19.490   7.700
  584POPC   C1B10135  31.213  19.957   8.727
  584POPC   C2B10136  31.054  19.780   8.356
  584POPC   C3B10137  31.208  19.644   7.955
  584POPC   C4B10138  31.212  19.763   7.496
  585POPC   NC310139  30.162  34.904   9.579
  585POPC   PO410140  29.586  34.570   9.389
  585POPC   GL110141  29.976  34.689   9.161
  585POPC   GL210142  30.156  34.394   9.034
  585POPC   C1A10143  30.087  34.821   8.761
  585POPC   D2A10144  29.901  34.729   8.364
  585POPC   C3A10145  30.111  34.712   7.954
  585POPC   C4A10146  29.884  34.570   7.556
  585POPC   C1B10147  29.773  34.392   8.783
  585POPC   C2B10148  29.560  34.348   8.412
  585POPC   C3B10149  29.700  34.404   8.008
  585POPC   C4B10150  29.663  34.111   7.704
  586POPC   NC310151  42.849   8.183   9.238
  586POPC   PO410152  43.384   7.956   9.499
  586POPC   GL110153  43.362   8.086   9.074
  586POPC   GL210154  43.206   8.369   8.920
  586POPC   C1A10155  43.282   7.963   8.648
  586POPC   D2A10156  43.106   8.048   8.259
  586POPC   C3A10157  43.414   8.174   7.981
  586POPC   C4A10158  43.383   8.163   7.566
  586POPC   C1B10159  42.837   8.315   8.613
  586POPC   C2B10160  42.819   8.461   8.176
  586POPC   C3B10161  42.926   8.259   7.776
  586POPC   C4B10162  43.048   8.445   7.335
  587POPC   NC310163  28.133  30.314   9.310
  587POPC   PO410164  28.455  29.756   9.591
  587POPC   GL110165  28.521  29.910   9.187
  587POPC   GL210166  28.707  30.215   9.160
  587POPC   C1A10167  28.537  29.653   8.810
  587POPC   D2A10168  28.290  29.454   8.440
  587POPC   C3A10169  28.290  29.770   8.095
  587POPC   C4A10170  28.188  29.880   7.686
  587POPC   C1B10171  28.556  30.278   8.738
  587POPC   C2B10172  28.670  30.235   8.302
  587POPC   C3B10173  28.509  30.271   7.891
  587POPC   C4B10174  28.587  30.098   7.492
  588POPC   NC310175  42.744  32.883   9.601
  588POPC   PO410176  42.609  33.393   9.257
  588POPC   GL110177  42.411  33.026   9.110
  588POPC   GL210178  42.660  32.770   9.114
  588POPC   C1A10179  42.264  33.131   8.708
  588POPC   D2A10180  42.588  33.212   8.409
  588POPC   C3A10181  42.387  33.194   8.006
  588POPC   C4A10182  42.594  33.194   7.663
  588POPC   C1B10183  42.551  32.712   8.693
  588POPC   C2B10184  42.471  32.744   8.242
  588POPC   C3B10185  42.457  32.709   7.794
  588POPC   C4B10186  42.476  32.646   7.309
  589POPC   NC310187  12.585  29.494   9.524
  589POPC   PO410188  12.868  28.962   9.327
  589POPC   GL110189  12.884  29.258   9.063
  589POPC   GL210190  12.539  29.301   9.068
  589POPC   C1A10191  12.810  29.059   8.674
  589POPC   D2A10192  12.847  28.780   8.358
  589POPC   C3A10193  12.739  28.952   8.000
  589POPC   C4A10194  12.942  29.203   7.711
  589POPC   C1B10195  12.412  29.390   8.695
  589POPC   C2B10196  12.556  29.301   8.296
  589POPC   C3B10197  12.513  29.402   7.881
  589POPC   C4B10198  12.561  29.820   7.731
  590POPC   NC310199   9.487  37.328   9.534
  590POPC   PO410200   9.459  38.028   9.569
  590POPC   GL110201   9.482  37.749   9.207
  590POPC   GL210202   9.837  37.724   9.136
  590POPC   C1A10203   9.518  37.598   8.763
  590POPC   D2A10204   9.768  37.653   8.400
  590POPC   C3A10205   9.586  37.589   8.025
  590POPC   C4A10206   9.851  37.589   7.681
  590POPC   C1B10207  10.025  37.459   8.792
  590POPC   C2B10208  10.062  37.206   8.378
  590POPC   C3B10209  10.123  37.187   7.879
  590POPC   C4B10210  10.008  37.025   7.415
  591POPC   NC310211  11.385  36.467   9.643
  591POPC   PO410212  10.940  37.063   9.469
  591POPC   GL110213  11.255  36.909   9.165
  591POPC   GL210214  11.370  36.550   9.143
  591POPC   C1A10215  11.488  36.887   8.759
  591POPC   D2A10216  11.212  36.895   8.377
  591POPC   C3A10217  11.383  37.035   7.963
  591POPC   C4A10218  11.083  37.042   7.595
  591POPC   C1B10219  11.122  36.539   8.768
  591POPC   C2B10220  11.227  36.371   8.351
  591POPC   C3B10221  11.178  36.581   7.975
  591POPC   C4B10222  11.407  36.637   7.617
  592POPC   NC310223  33.339  34.149   9.538
  592POPC   PO410224  33.142  34.786   9.393
  592POPC   GL110225  32.937  34.508   9.145
  592POPC   GL210226  33.259  34.363   9.069
  592POPC   C1A10227  32.809  34.505   8.727
  592POPC   D2A10228  32.748  34.346   8.303
  592POPC   C3A10229  32.883  34.555   7.928
  592POPC   C4A10230  32.754  34.460   7.500
  592POPC   C1B10231  33.222  34.206   8.646
  592POPC   C2B10232  33.282  34.450   8.259
  592POPC   C3B10233  33.404  34.497   7.819
  592POPC   C4B10234  33.228  34.549   7.401
  593POPC   NC310235  19.035   4.865   9.576
  593POPC   PO410236  19.428   4.508   9.238
  593POPC   GL110237  19.236   4.906   9.065
  593POPC   GL210238  19.070   5.191   9.179
  593POPC   C1A10239  19.158   5.139   8.661
  593POPC   D2A10240  19.380   5.244   8.246
  593POPC   C3A10241  19.140   5.051   7.919
  593POPC   C4A10242  18.682   4.944   7.939
  593POPC   C1B10243  18.861   5.466   8.946
  593POPC   C2B10244  18.801   5.563   8.528
  593POPC   C3B10245  19.059   5.702   8.199
  593POPC   C4B10246  19.223   5.544   7.817
  594POPC   NC310247  17.537  44.534   9.433
  594POPC   PO410248  17.591   0.202   9.522
  594POPC   GL110249  17.286  44.907   9.167
  594POPC   GL210250  17.446  44.606   8.956
  594POPC   C1A10251  17.081  44.831   8.708
  594POPC   D2A10252  17.033  44.991   8.291
  594POPC   C3A10253  17.375  44.803   8.075
  594POPC   C4A10254  17.475  44.560   7.711
  594POPC   C1B10255  17.486  44.522   8.521
  594POPC   C2B10256  17.819  44.632   8.257
  594POPC   C3B10257  17.904  44.799   7.861
  594POPC   C4B10258  17.843  44.728   7.378
  595POPC   NC310259  21.511  32.104   9.479
  595POPC   PO410260  21.625  31.437   9.574
  595POPC   GL110261  21.494  31.500   9.172
  595POPC   GL210262  21.331  31.798   9.061
  595POPC   C1A10263  21.596  31.438   8.768
  595POPC   D2A10264  21.422  31.524   8.385
  595POPC   C3A10265  21.640  31.692   8.039
  595POPC   C4A10266  21.597  31.599   7.587
  595POPC   C1B10267  21.054  31.547   8.774
  595POPC   C2B10268  20.898  31.520   8.333
  595POPC   C3B10269  21.170  31.495   7.935
  595POPC   C4B10270  21.175  31.857   7.664
  596POPC   NC310271  28.690  13.379   9.456
  596POPC   PO410272  28.176  13.805   9.571
  596POPC   GL110273  28.244  13.512   9.231
  596POPC   GL210274  28.499  13.754   9.173
  596POPC   C1A10275  28.467  13.402   8.816
  596POPC   D2A10276  28.323  13.272   8.397
  596POPC   C3A10277  28.072  13.547   8.131
  596POPC   C4A10278  28.082  13.734   7.750
  596POPC   C1B10279  28.535  13.929   8.817
  596POPC   C2B10280  28.395  13.798   8.434
  596POPC   C3B10281  28.586  13.597   8.081
  596POPC   C4B10282  28.600  13.927   7.804
  597POPC   NC310283   6.623  17.080   9.703
  597POPC   PO410284   6.679  16.537   9.266
  597POPC   GL110285   6.763  16.888   9.108
  597POPC   GL210286   6.462  17.066   9.212
  597POPC   C1A10287   6.882  16.838   8.684
  597POPC   D2A10288   6.924  17.111   8.305
  597POPC   C3A10289   6.860  16.855   7.953
  597POPC   C4A10290   6.759  16.428   7.794
  597POPC   C1B10291   6.338  16.836   8.827
  597POPC   C2B10292   6.447  16.941   8.440
  597POPC   C3B10293   6.357  17.041   8.044
  597POPC   C4B10294   6.395  16.792   7.722
  598POPC   NC310295  25.410  14.873   9.580
  598POPC   PO410296  24.958  15.288   9.553
  598POPC   GL110297  25.304  15.259   9.226
  598POPC   GL210298  25.165  14.953   9.145
  598POPC   C1A10299  25.288  15.294   8.724
  598POPC   D2A10300  25.173  15.109   8.296
  598POPC   C3A10301  25.202  15.224   7.859
  598POPC   C4A10302  25.452  15.410   7.548
  598POPC   C1B10303  25.452  14.841   8.859
  598POPC   C2B10304  25.631  14.970   8.485
  598POPC   C3B10305  25.556  14.830   8.098
  598POPC   C4B10306  25.657  14.979   7.725
  599POPC   NC310307  13.123  39.111   9.404
  599POPC   PO410308  13.616  38.894   9.731
  599POPC   GL110309  13.575  39.057   9.250
  599POPC   GL210310  13.797  39.266   9.073
  599POPC   C1A10311  13.368  39.111   8.822
  599POPC   D2A10312  13.437  39.214   8.403
  599POPC   C3A10313  13.474  38.916   8.084
  599POPC   C4A10314  13.451  39.172   7.712
  599POPC   C1B10315  13.732  39.496   8.723
  599POPC   C2B10316  13.878  39.510   8.319
  599POPC   C3B10317  13.725  39.573   7.922
  599POPC   C4B10318  13.987  39.799   7.659
  600POPC   NC310319  15.066  19.711   9.394
  600POPC   PO410320  15.595  20.207   9.499
  600POPC   GL110321  15.394  20.045   9.127
  600POPC   GL210322  15.008  20.101   9.065
  600POPC   C1A10323  15.314  19.939   8.682
  600POPC   D2A10324  15.055  20.012   8.362
  600POPC   C3A10325  15.258  19.816   8.041
  600POPC   C4A10326  15.476  20.004   7.706
  600POPC   C1B10327  14.862  19.725   8.779
  600POPC   C2B10328  14.880  19.540   8.355
  600POPC   C3B10329  14.759  19.801   7.988
  600POPC   C4B10330  14.980  20.120   7.753
  601POPC   NC310331   3.474  14.137   9.787
  601POPC   PO410332   3.294  14.628   9.419
  601POPC   GL110333   3.513  14.390   9.164
  601POPC   GL210334   3.342  14.082   9.262
  601POPC   C1A10335   3.545  14.545   8.756
  601POPC   D2A10336   3.302  14.555   8.399
  601POPC   C3A10337   3.367  14.300   8.041
  601POPC   C4A10338   3.615  14.332   7.719
  601POPC   C1B10339   3.181  14.113   8.867
  601POPC   C2B10340   3.277  14.013   8.454
  601POPC   C3B10341   3.132  13.771   8.120
  601POPC   C4B10342   3.325  13.869   7.738
  602POPC   NC310343  30.696  27.420   9.452
  602POPC   PO410344  30.455  28.062   9.352
  602POPC   GL110345  30.524  27.765   9.036
  602POPC   GL210346  30.849  27.690   9.034
  602POPC   C1A10347  30.600  27.453   8.682
  602POPC   D2A10348  30.856  27.367   8.306
  602POPC   C3A10349  30.643  27.473   7.910
  602POPC   C4A10350  30.326  27.789   7.786
  602POPC   C1B10351  31.130  27.620   8.699
  602POPC   C2B10352  31.258  27.723   8.274
  602POPC   C3B10353  31.086  27.738   7.849
  602POPC   C4B10354  31.254  27.867   7.405
  603POPC   NC310355  31.146  13.947   9.291
  603POPC   PO410356  31.338  14.516   9.518
  603POPC   GL110357  31.209  14.670   9.138
  603POPC   GL210358  31.395  14.340   9.029
  603POPC   C1A10359  31.146  14.633   8.676
  603POPC   D2A10360  31.349  14.421   8.320
  603POPC   C3A10361  31.360  14.534   7.874
  603POPC   C4A10362  31.283  14.366   7.415
  603POPC   C1B10363  31.640  14.672   8.876
  603POPC   C2B10364  31.778  14.688   8.465
  603POPC   C3B10365  31.837  14.550   8.064
  603POPC   C4B10366  31.845  14.477   7.661
  604POPC   NC310367  21.141  20.385   9.466
  604POPC   PO410368  21.436  19.762   9.528
  604POPC   GL110369  21.481  19.749   9.112
  604POPC   GL210370  21.635  20.072   9.080
  604POPC   C1A10371  21.652  19.686   8.715
  604POPC   D2A10372  21.356  19.741   8.402
  604POPC   C3A10373  21.326  19.456   8.065
  604POPC   C4A10374  21.461  19.735   7.726
  604POPC   C1B10375  21.307  20.140   8.784
  604POPC   C2B10376  21.169  20.220   8.372
  604POPC   C3B10377  21.457  20.140   8.026
  604POPC   C4B10378  21.366  20.240   7.583
  605POPC   NC310379   3.398  17.839   9.462
  605POPC   PO410380   3.834  17.329   9.448
  605POPC   GL110381   3.683  17.573   9.109
  605POPC   GL210382   3.324  17.553   9.058
  605POPC   C1A10383   3.717  17.575   8.667
  605POPC   D2A10384   3.721  17.732   8.244
  605POPC   C3A10385   3.703  17.329   8.036
  605POPC   C4A10386   3.799  17.040   7.719
  605POPC   C1B10387   3.224  17.358   8.731
  605POPC   C2B10388   3.279  17.466   8.340
  605POPC   C3B10389   3.135  17.380   7.965
  605POPC   C4B10390   3.393  17.662   7.796
  606POPC   NC310391  34.211  13.529   9.512
  606POPC   PO410392  34.884  13.864   9.444
  606POPC   GL110393  34.534  13.779   9.184
  606POPC   GL210394  34.584  13.417   9.112
  606POPC   C1A10395  34.352  13.716   8.778
  606POPC   D2A10396  34.556  13.692   8.395
  606POPC   C3A10397  34.326  13.611   8.029
  606POPC   C4A10398  34.426  13.694   7.592
  606POPC   C1B10399  34.634  13.256   8.682
  606POPC   C2B10400  34.727  13.242   8.232
  606POPC   C3B10401  34.796  13.456   7.841
  606POPC   C4B10402  34.677  13.275   7.412
  607POPC   NC310403  28.102   0.424   9.540
  607POPC   PO410404  27.835   0.963   9.326
  607POPC   GL110405  27.676   0.644   9.061
  607POPC   GL210406  27.788   0.284   9.139
  607POPC   C1A10407  27.356   0.727   8.717
  607POPC   D2A10408  27.568   0.664   8.346
  607POPC   C3A10409  27.441   0.562   7.956
  607POPC   C4A10410  27.386   0.841   7.625
  607POPC   C1B10411  27.555   0.279   8.754
  607POPC   C2B10412  27.513   0.075   8.397
  607POPC   C3B10413  27.706   0.145   8.034
  607POPC   C4B10414  27.764   0.322   7.632
  608POPC   NC310415  15.339  19.000   9.535
  608POPC   PO410416  15.461  19.545   9.188
  608POPC   GL110417  15.140  19.254   9.109
  608POPC   GL210418  15.057  18.878   9.143
  608POPC   C1A10419  15.038  19.222   8.720
  608POPC   D2A10420  15.179  19.018   8.345
  608POPC   C3A10421  15.115  19.284   7.981
  608POPC   C4A10422  15.307  19.185   7.633
  608POPC   C1B10423  14.806  18.783   8.791
  608POPC   C2B10424  14.665  19.050   8.433
  608POPC   C3B10425  14.781  18.905   8.057
  608POPC   C4B10426  14.765  18.970   7.658
  609POPC   NC310427  13.355  34.751   9.365
  609POPC   PO410428  13.967  34.906   9.600
  609POPC   GL110429  13.925  34.862   9.111
  609POPC   GL210430  13.605  34.750   8.920
  609POPC   C1A10431  13.985  34.909   8.638
  609POPC   D2A10432  13.612  34.735   8.389
  609POPC   C3A10433  13.646  34.599   7.966
  609POPC   C4A10434  13.533  34.895   7.642
  609POPC   C1B10435  13.335  34.432   8.721
  609POPC   C2B10436  13.229  34.286   8.324
  609POPC   C3B10437  13.312  34.203   7.899
  609POPC   C4B10438  13.343  34.449   7.539
  610POPC   NC310439  40.142   6.480   9.491
  610POPC   PO410440  40.378   7.163   9.256
  610POPC   GL110441  40.136   6.774   9.020
  610POPC   GL210442  39.912   6.434   9.058
  610POPC   C1A10443  40.092   6.603   8.611
  610POPC   D2A10444  40.414   6.597   8.275
  610POPC   C3A10445  40.184   6.775   7.956
  610POPC   C4A10446  39.833   6.569   7.813
  610POPC   C1B10447  40.294   6.234   8.907
  610POPC   C2B10448  40.250   6.136   8.494
  610POPC   C3B10449  40.016   6.270   8.198
  610POPC   C4B10450  40.267   6.265   7.891
  611POPC   NC310451  32.375  26.480   9.435
  611POPC   PO410452  32.168  25.771   9.517
  611POPC   GL110453  32.393  25.994   9.207
  611POPC   GL210454  32.688  25.763   9.216
  611POPC   C1A10455  32.280  26.187   8.795
  611POPC   D2A10456  32.047  26.123   8.410
  611POPC   C3A10457  32.104  26.247   7.976
  611POPC   C4A10458  31.922  26.116   7.582
  611POPC   C1B10459  32.481  25.707   8.794
  611POPC   C2B10460  32.331  25.685   8.366
  611POPC   C3B10461  32.351  25.819   7.907
  611POPC   C4B10462  32.641  25.962   7.576
  612POPC   NC310463   0.989  18.662   9.460
  612POPC   PO410464   1.461  18.224   9.482
  612POPC   GL110465   1.144  18.223   9.159
  612POPC   GL210466   1.280  18.510   9.026
  612POPC   C1A10467   1.198  18.064   8.737
  612POPC   D2A10468   1.373  18.324   8.409
  612POPC   C3A10469   1.274  18.159   8.014
  612POPC   C4A10470   1.118  18.180   7.566
  612POPC   C1B10471   0.924  18.519   8.751
  612POPC   C2B10472   0.887  18.481   8.305
  612POPC   C3B10473   1.051  18.603   7.862
  612POPC   C4B10474   1.099  18.663   7.383
  613POPC   NC310475  32.067   2.048   9.648
  613POPC   PO410476  32.686   1.821   9.612
  613POPC   GL110477  32.407   2.051   9.234
  613POPC   GL210478  32.035   2.169   9.160
  613POPC   C1A10479  32.331   1.983   8.770
  613POPC   D2A10480  32.138   1.779   8.442
  613POPC   C3A10481  32.056   1.953   8.071
  613POPC   C4A10482  32.040   1.752   7.718
  613POPC   C1B10483  31.831   2.206   8.769
  613POPC   C2B10484  32.029   2.363   8.401
  613POPC   C3B10485  32.248   2.429   8.043
  613POPC   C4B10486  32.097   2.259   7.653
  614POPC   NC310487   2.654  28.258   9.350
  614POPC   PO410488   3.284  28.354   9.628
  614POPC   GL110489   3.104  28.444   9.192
  614POPC   GL210490   2.821  28.686   9.044
  614POPC   C1A10491   2.960  28.279   8.782
  614POPC   D2A10492   2.969  28.660   8.509
  614POPC   C3A10493   3.115  28.628   8.081
  614POPC   C4A10494   3.015  28.586   7.638
  614POPC   C1B10495   2.514  28.497   8.694
  614POPC   C2B10496   2.614  28.349   8.295
  614POPC   C3B10497   2.847  28.206   7.934
  614POPC   C4B10498   2.658  28.258   7.552
  615POPC   NC310499   4.049  40.891   9.646
  615POPC   PO410500   4.685  40.659   9.528
  615POPC   GL110501   4.426  40.784   9.184
  615POPC   GL210502   4.114  40.999   9.173
  615POPC   C1A10503   4.420  40.951   8.779
  615POPC   D2A10504   4.529  40.834   8.387
  615POPC   C3A10505   4.691  40.981   8.006
  615POPC   C4A10506   4.504  40.826   7.616
  615POPC   C1B10507   3.930  40.793   8.821
  615POPC   C2B10508   4.017  40.823   8.420
  615POPC   C3B10509   4.172  40.826   8.021
  615POPC   C4B10510   3.878  40.775   7.726
  616POPC   NC310511  24.040  18.761   9.503
  616POPC   PO410512  23.595  18.196   9.596
  616POPC   GL110513  23.788  18.245   9.201
  616POPC   GL210514  23.774  18.556   9.132
  616POPC   C1A10515  23.706  18.205   8.765
  616POPC   D2A10516  23.752  17.961   8.426
  616POPC   C3A10517  23.607  18.140   8.112
  616POPC   C4A10518  23.800  18.204   7.774
  616POPC   C1B10519  23.651  18.713   8.773
  616POPC   C2B10520  23.792  18.559   8.380
  616POPC   C3B10521  23.748  18.676   7.947
  616POPC   C4B10522  24.124  18.606   7.692
  617POPC   NC310523  27.158  14.217   9.651
  617POPC   PO410524  26.495  14.391   9.483
  617POPC   GL110525  26.786  14.350   9.167
  617POPC   GL210526  27.148  14.410   9.180
  617POPC   C1A10527  26.616  14.349   8.774
  617POPC   D2A10528  26.395  14.400   8.403
  617POPC   C3A10529  26.546  14.304   8.007
  617POPC   C4A10530  26.481  14.576   7.656
  617POPC   C1B10531  27.124  14.216   8.786
  617POPC   C2B10532  26.938  14.377   8.388
  617POPC   C3B10533  26.978  14.589   8.005
  617POPC   C4B10534  26.935  14.356   7.612
  618POPC   NC310535  18.008  31.798   9.494
  618POPC   PO410536  18.220  31.240   9.333
  618POPC   GL110537  18.229  31.547   9.046
  618POPC   GL210538  18.453  31.794   9.071
  618POPC   C1A10539  18.372  31.491   8.639
  618POPC   D2A10540  18.612  31.436   8.286
  618POPC   C3A10541  18.331  31.661   8.025
  618POPC   C4A10542  18.031  31.485   7.771
  618POPC   C1B10543  18.758  31.767   8.771
  618POPC   C2B10544  18.904  31.850   8.406
  618POPC   C3B10545  18.834  31.822   7.985
  618POPC   C4B10546  18.629  31.887   7.592
  619POPC   NC310547  24.832  34.081   9.317
  619POPC   PO410548  24.597  33.555   9.673
  619POPC   GL110549  24.473  33.711   9.230
  619POPC   GL210550  24.816  33.568   9.168
  619POPC   C1A10551  24.336  34.029   8.847
  619POPC   D2A10552  24.386  34.114   8.362
  619POPC   C3A10553  24.293  33.832   7.967
  619POPC   C4A10554  24.375  33.680   7.515
  619POPC   C1B10555  24.755  33.759   8.764
  619POPC   C2B10556  24.572  33.649   8.392
  619POPC   C3B10557  24.780  33.815   8.039
  619POPC   C4B10558  25.107  34.120   7.942
  620POPC   NC310559  41.264  23.460   9.412
  620POPC   PO410560  41.746  23.907   9.401
  620POPC   GL110561  41.614  23.887   8.968
  620POPC   GL210562  41.292  23.715   8.946
  620POPC   C1A10563  41.680  23.604   8.573
  620POPC   D2A10564  41.636  23.743   8.110
  620POPC   C3A10565  42.000  23.821   7.788
  620POPC   C4A10566  42.015  23.806   7.264
  620POPC   C1B10567  41.239  23.353   8.618
  620POPC   C2B10568  41.413  23.270   8.171
  620POPC   C3B10569  41.317  23.563   7.776
  620POPC   C4B10570  41.228  24.039   7.888
  621POPC   NC310571  23.730  14.872   9.558
  621POPC   PO410572  24.090  14.347   9.555
  621POPC   GL110573  23.783  14.486   9.198
  621POPC   GL210574  23.576  14.741   9.100
  621POPC   C1A10575  23.798  14.421   8.730
  621POPC   D2A10576  23.721  14.164   8.342
  621POPC   C3A10577  23.765  14.404   7.969
  621POPC   C4A10578  23.877  14.815   7.782
  621POPC   C1B10579  23.379  14.757   8.714
  621POPC   C2B10580  23.365  14.532   8.346
  621POPC   C3B10581  23.314  14.627   7.918
  621POPC   C4B10582  23.432  14.413   7.561
  622POPC   NC310583   4.110  36.886   9.476
  622POPC   PO410584   4.545  36.305   9.547
  622POPC   GL110585   4.424  36.593   9.179
  622POPC   GL210586   4.451  36.953   9.105
  622POPC   C1A10587   4.364  36.624   8.711
  622POPC   D2A10588   4.546  36.578   8.280
  622POPC   C3A10589   4.310  36.690   7.929
  622POPC   C4A10590   4.382  36.866   7.563
  622POPC   C1B10591   4.520  37.102   8.703
  622POPC   C2B10592   4.278  37.052   8.346
  622POPC   C3B10593   4.396  37.210   7.959
  622POPC   C4B10594   4.184  37.352   7.629
  623POPC   NC310595  38.395   4.737   9.890
  623POPC   PO410596  38.601   4.237   9.430
  623POPC   GL110597  38.628   4.081   9.084
  623POPC   GL210598  38.291   4.048   9.012
  623POPC   C1A10599  38.671   4.097   8.682
  623POPC   D2A10600  38.474   4.133   8.329
  623POPC   C3A10601  38.778   4.107   8.046
  623POPC   C4A10602  38.650   4.284   7.693
  623POPC   C1B10603  38.304   4.434   8.738
  623POPC   C2B10604  38.130   4.581   8.386
  623POPC   C3B10605  38.385   4.592   8.056
  623POPC   C4B10606  38.188   4.484   7.685
  624POPC   NC310607  42.231   7.819   9.273
  624POPC   PO410608  42.498   7.306   9.676
  624POPC   GL110609  42.514   7.249   9.177
  624POPC   GL210610  42.321   7.472   8.928
  624POPC   C1A10611  42.565   7.113   8.716
  624POPC   D2A10612  42.343   7.397   8.382
  624POPC   C3A10613  42.465   7.323   7.951
  624POPC   C4A10614  42.360   7.090   7.545
  624POPC   C1B10615  41.995   7.695   8.686
  624POPC   C2B10616  41.871   7.637   8.286
  624POPC   C3B10617  42.118   7.696   7.950
  624POPC   C4B10618  42.208   7.581   7.559
  625POPC   NC310619  23.515   0.405   9.739
  625POPC   PO410620  23.883   0.047   9.282
  625POPC   GL110621  23.801   0.454   9.159
  625POPC   GL210622  23.452   0.523   9.172
  625POPC   C1A10623  23.799   0.588   8.736
  625POPC   D2A10624  23.617   0.306   8.396
  625POPC   C3A10625  23.775   0.179   7.983
  625POPC   C4A10626  23.736   0.063   7.517
  625POPC   C1B10627  23.298   0.748   8.782
  625POPC   C2B10628  23.509   0.813   8.368
  625POPC   C3B10629  23.434   0.602   7.958
  625POPC   C4B10630  23.781   0.551   7.658
  626POPC   NC310631   2.971  43.249   9.536
  626POPC   PO410632   2.307  43.183   9.629
  626POPC   GL110633   2.527  43.313   9.230
  626POPC   GL210634   2.816  43.503   9.144
  626POPC   C1A10635   2.633  43.138   8.824
  626POPC   D2A10636   2.780  42.956   8.425
  626POPC   C3A10637   2.614  43.146   8.079
  626POPC   C4A10638   2.669  42.963   7.710
  626POPC   C1B10639   2.974  43.522   8.803
  626POPC   C2B10640   2.818  43.471   8.441
  626POPC   C3B10641   2.982  43.536   8.072
  626POPC   C4B10642   2.879  43.415   7.706
  627POPC   NC310643  31.017   5.657   9.498
  627POPC   PO410644  30.681   6.225   9.424
  627POPC   GL110645  30.797   6.025   9.094
  627POPC   GL210646  30.749   5.649   9.094
  627POPC   C1A10647  30.656   5.928   8.666
  627POPC   D2A10648  30.403   6.088   8.335
  627POPC   C3A10649  30.479   5.966   7.930
  627POPC   C4A10650  30.526   6.009   7.448
  627POPC   C1B10651  31.119   5.770   8.842
  627POPC   C2B10652  31.124   5.695   8.443
  627POPC   C3B10653  30.862   5.698   8.113
  627POPC   C4B10654  30.935   5.951   7.766
  628POPC   NC310655   9.473  44.480   9.460
  628POPC   PO410656  10.075  44.806   9.689
  628POPC   GL110657   9.937  44.700   9.290
  628POPC   GL210658   9.897   0.021   9.131
  628POPC   C1A10659   9.947  44.526   8.861
  628POPC   D2A10660   9.633  44.488   8.519
  628POPC   C3A10661   9.791  44.426   8.100
  628POPC   C4A10662   9.803  44.395   7.644
  628POPC   C1B10663   9.710  44.981   8.696
  628POPC   C2B10664   9.698   0.128   8.254
  628POPC   C3B10665   9.614  44.876   7.897
  628POPC   C4B10666   9.545  44.851   7.455
  629POPC   NC310667  39.864  24.751   9.589
  629POPC   PO410668  40.211  24.267   9.418
  629POPC   GL110669  39.898  24.497   9.150
  629POPC   GL210670  40.148  24.702   9.108
  629POPC   C1A10671  39.791  24.785   8.781
  629POPC   D2A10672  40.022  24.779   8.389
  629POPC   C3A10673  39.845  24.843   7.958
  629POPC   C4A10674  39.826  24.572   7.589
  629POPC   C1B10675  40.112  24.384   8.724
  629POPC   C2B10676  40.321  24.330   8.347
  629POPC   C3B10677  40.132  24.404   7.966
  629POPC   C4B10678  40.350  24.508   7.590
  630POPC   NC310679  28.807  32.756   9.536
  630POPC   PO410680  29.145  33.184   9.994
  630POPC   GL110681  29.171  33.217   9.450
  630POPC   GL210682  29.246  32.873   9.270
  630POPC   C1A10683  29.274  33.276   8.955
  630POPC   D2A10684  29.435  33.206   8.535
  630POPC   C3A10685  29.106  33.244   8.216
  630POPC   C4A10686  29.074  33.304   7.773
  630POPC   C1B10687  29.103  32.801   8.825
  630POPC   C2B10688  29.187  32.764   8.369
  630POPC   C3B10689  29.249  32.830   7.902
  630POPC   C4B10690  29.505  32.611   7.556
  631POPC   NC310691   0.941   8.803   9.903
  631POPC   PO410692   1.176   9.241   9.477
  631POPC   GL110693   1.237   8.969   9.170
  631POPC   GL210694   0.943   8.788   9.202
  631POPC   C1A10695   1.398   9.046   8.767
  631POPC   D2A10696   1.453   9.352   8.446
  631POPC   C3A10697   1.445   9.146   8.051
  631POPC   C4A10698   1.149   9.130   7.729
  631POPC   C1B10699   0.909   8.843   8.778
  631POPC   C2B10700   1.127   8.814   8.380
  631POPC   C3B10701   1.165   8.645   7.989
  631POPC   C4B10702   1.083   8.622   7.566
  632POPC   NC310703  10.166  29.367   9.544
  632POPC   PO410704  10.538  28.790   9.650
  632POPC   GL110705  10.484  28.949   9.159
  632POPC   GL210706  10.243  29.167   9.077
  632POPC   C1A10707  10.652  28.978   8.734
  632POPC   D2A10708  10.545  28.871   8.309
  632POPC   C3A10709  10.653  29.192   8.006
  632POPC   C4A10710  10.690  29.081   7.581
  632POPC   C1B10711  10.302  29.358   8.693
  632POPC   C2B10712  10.196  29.272   8.266
  632POPC   C3B10713  10.184  29.411   7.828
  632POPC   C4B10714  10.097  29.497   7.361
  633POPC   NC310715  23.309  37.120   9.909
  633POPC   PO410716  23.774  36.632   9.724
  633POPC   GL110717  23.692  36.779   9.307
  633POPC   GL210718  23.332  36.838   9.377
  633POPC   C1A10719  23.775  36.645   8.866
  633POPC   D2A10720  23.890  36.836   8.485
  633POPC   C3A10721  23.927  36.647   8.081
  633POPC   C4A10722  23.897  36.871   7.699
  633POPC   C1B10723  23.304  36.848   8.929
  633POPC   C2B10724  23.348  36.744   8.491
  633POPC   C3B10725  23.478  36.925   8.101
  633POPC   C4B10726  23.403  36.913   7.669
  634POPC   NC310727   8.055  38.113   9.544
  634POPC   PO410728   8.170  38.795   9.641
  634POPC   GL110729   8.114  38.558   9.259
  634POPC   GL210730   8.370  38.313   9.146
  634POPC   C1A10731   7.992  38.561   8.828
  634POPC   D2A10732   8.265  38.483   8.468
  634POPC   C3A10733   8.217  38.656   8.036
  634POPC   C4A10734   8.020  38.466   7.680
  634POPC   C1B10735   8.062  38.061   8.865
  634POPC   C2B10736   8.103  37.872   8.469
  634POPC   C3B10737   8.155  38.126   8.108
  634POPC   C4B10738   8.460  38.232   7.789
  635POPC   NC310739  37.133  42.390   9.564
  635POPC   PO410740  36.560  42.195   9.478
  635POPC   GL110741  36.755  42.419   9.135
  635POPC   GL210742  37.000  42.167   9.115
  635POPC   C1A10743  36.936  42.538   8.717
  635POPC   D2A10744  37.116  42.590   8.292
  635POPC   C3A10745  36.787  42.613   7.961
  635POPC   C4A10746  36.660  42.295   7.665
  635POPC   C1B10747  36.804  42.044   8.716
  635POPC   C2B10748  36.766  42.177   8.277
  635POPC   C3B10749  37.046  42.158   7.943
  635POPC   C4B10750  37.210  42.016   7.527
  636POPC   NC310751  30.147  39.325   9.933
  636POPC   PO410752  30.753  39.156   9.643
  636POPC   GL110753  30.767  39.180   9.213
  636POPC   GL210754  30.574  38.906   9.089
  636POPC   C1A10755  30.884  39.190   8.794
  636POPC   D2A10756  30.855  38.969   8.430
  636POPC   C3A10757  30.888  39.220   8.067
  636POPC   C4A10758  30.846  39.195   7.601
  636POPC   C1B10759  30.314  39.008   8.739
  636POPC   C2B10760  30.398  39.164   8.326
  636POPC   C3B10761  30.429  39.077   7.920
  636POPC   C4B10762  30.363  39.330   7.559
  637POPC   NC310763   6.128  33.626   9.428
  637POPC   PO410764   5.661  34.063   9.512
  637POPC   GL110765   5.803  33.876   9.087
  637POPC   GL210766   5.913  33.522   8.994
  637POPC   C1A10767   5.765  33.826   8.613
  637POPC   D2A10768   6.061  33.847   8.255
  637POPC   C3A10769   5.918  33.785   7.831
  637POPC   C4A10770   5.946  33.942   7.397
  637POPC   C1B10771   6.171  33.509   8.634
  637POPC   C2B10772   6.055  33.312   8.247
  637POPC   C3B10773   6.245  33.329   7.848
  637POPC   C4B10774   6.063  33.457   7.443
  638POPC   NC310775  26.416  35.191   9.608
  638POPC   PO410776  27.122  35.320   9.632
  638POPC   GL110777  26.907  35.481   9.253
  638POPC   GL210778  27.153  35.324   9.025
  638POPC   C1A10779  26.782  35.589   8.809
  638POPC   D2A10780  26.732  35.340   8.452
  638POPC   C3A10781  26.792  35.505   8.050
  638POPC   C4A10782  26.553  35.410   7.646
  638POPC   C1B10783  27.178  35.108   8.611
  638POPC   C2B10784  27.048  35.066   8.148
  638POPC   C3B10785  27.023  35.213   7.719
  638POPC   C4B10786  26.903  35.165   7.293
  639POPC   NC310787  37.283  35.091   9.500
  639POPC   PO410788  37.786  35.598   9.552
  639POPC   GL110789  37.712  35.356   9.130
  639POPC   GL210790  37.918  35.107   9.054
  639POPC   C1A10791  37.529  35.181   8.713
  639POPC   D2A10792  37.270  35.059   8.309
  639POPC   C3A10793  37.492  35.131   7.905
  639POPC   C4A10794  37.529  35.490   7.579
  639POPC   C1B10795  38.112  35.418   8.813
  639POPC   C2B10796  38.109  35.605   8.407
  639POPC   C3B10797  38.131  35.726   7.993
  639POPC   C4B10798  38.045  35.521   7.613
  640POPC   NC310799  14.287  38.937   9.485
  640POPC   PO410800  14.387  38.273   9.587
  640POPC   GL110801  14.422  38.469   9.163
  640POPC   GL210802  14.694  38.752   9.180
  640POPC   C1A10803  14.522  38.244   8.761
  640POPC   D2A10804  14.610  38.076   8.339
  640POPC   C3A10805  14.614  38.411   8.021
  640POPC   C4A10806  14.330  38.478   7.737
  640POPC   C1B10807  14.525  38.784   8.764
  640POPC   C2B10808  14.287  38.580   8.443
  640POPC   C3B10809  14.318  38.820   8.116
  640POPC   C4B10810  14.483  38.954   7.760
  641POPC   NC310811  40.145  12.103   9.364
  641POPC   PO410812  39.544  11.684   9.474
  641POPC   GL110813  39.643  11.924   9.086
  641POPC   GL210814  39.621  12.298   9.018
  641POPC   C1A10815  39.884  11.879   8.676
  641POPC   D2A10816  39.956  12.102   8.271
  641POPC   C3A10817  40.022  11.950   7.829
  641POPC   C4A10818  39.817  11.999   7.411
  641POPC   C1B10819  40.031  12.359   8.750
  641POPC   C2B10820  40.298  12.455   8.398
  641POPC   C3B10821  40.193  12.417   7.927
  641POPC   C4B10822  40.283  12.248   7.468
  642POPC   NC310823  39.044  11.545   9.540
  642POPC   PO410824  39.277  10.942   9.467
  642POPC   GL110825  39.355  11.078   9.040
  642POPC   GL210826  39.315  11.445   9.089
  642POPC   C1A10827  39.113  11.197   8.678
  642POPC   D2A10828  39.210  11.268   8.259
  642POPC   C3A10829  38.933  11.294   7.933
  642POPC   C4A10830  39.173  11.055   7.679
  642POPC   C1B10831  39.526  11.518   8.719
  642POPC   C2B10832  39.534  11.681   8.287
  642POPC   C3B10833  39.317  11.620   7.878
  642POPC   C4B10834  39.343  11.793   7.466
  643POPC   NC310835  25.322  38.069   9.488
  643POPC   PO410836  25.196  38.650   9.538
  643POPC   GL110837  25.397  38.501   9.114
  643POPC   GL210838  25.327  38.165   8.987
  643POPC   C1A10839  25.336  38.500   8.625
  643POPC   D2A10840  25.172  38.183   8.323
  643POPC   C3A10841  25.199  38.330   7.871
  643POPC   C4A10842  25.238  38.203   7.417
  643POPC   C1B10843  25.610  38.062   8.611
  643POPC   C2B10844  25.647  38.085   8.163
  643POPC   C3B10845  25.640  38.099   7.728
  643POPC   C4B10846  25.743  38.198   7.300
  644POPC   NC310847  21.993  43.633   9.445
  644POPC   PO410848  22.352  44.121   9.736
  644POPC   GL110849  22.345  44.006   9.279
  644POPC   GL210850  22.501  43.690   9.241
  644POPC   C1A10851  22.179  43.843   8.858
  644POPC   D2A10852  21.961  44.007   8.513
  644POPC   C3A10853  22.146  43.908   8.128
  644POPC   C4A10854  22.033  44.013   7.731
  644POPC   C1B10855  22.569  43.487   8.864
  644POPC   C2B10856  22.568  43.675   8.463
  644POPC   C3B10857  22.659  43.816   8.069
  644POPC   C4B10858  22.467  43.740   7.724
  645POPC   NC310859  29.148  42.531   9.501
  645POPC   PO410860  29.501  41.957   9.508
  645POPC   GL110861  29.248  42.131   9.179
  645POPC   GL210862  29.421  42.405   9.122
  645POPC   C1A10863  29.048  42.314   8.805
  645POPC   D2A10864  29.104  42.572   8.436
  645POPC   C3A10865  29.143  42.261   8.083
  645POPC   C4A10866  28.904  42.142   7.717
  645POPC   C1B10867  29.530  42.574   8.763
  645POPC   C2B10868  29.628  42.593   8.341
  645POPC   C3B10869  29.376  42.722   8.009
  645POPC   C4B10870  29.265  42.487   7.627
  646POPC   NC310871   0.514  10.130   9.601
  646POPC   PO410872   0.220   9.528   9.426
  646POPC   GL110873   0.564   9.752   9.238
  646POPC   GL210874   0.415  10.010   9.119
  646POPC   C1A10875   0.713   9.708   8.819
  646POPC   D2A10876   0.601   9.657   8.419
  646POPC   C3A10877   0.678   9.889   8.083
  646POPC   C4A10878   0.506   9.788   7.701
  646POPC   C1B10879   0.225   9.867   8.743
  646POPC   C2B10880   0.217   9.991   8.337
  646POPC   C3B10881   0.180  10.099   7.924
  646POPC   C4B10882   0.177  10.287   7.489
  647POPC   NC310883   0.138   6.845   9.752
  647POPC   PO410884   0.739   7.102   9.738
  647POPC   GL110885   0.660   7.047   9.196
  647POPC   GL210886   0.476   6.720   9.109
  647POPC   C1A10887   0.449   7.040   8.727
  647POPC   D2A10888   0.288   7.055   8.291
  647POPC   C3A10889   0.416   6.756   7.963
  647POPC   C4A10890   0.601   6.340   7.870
  647POPC   C1B10891   0.312   6.520   8.743
  647POPC   C2B10892   0.332   6.331   8.333
  647POPC   C3B10893   0.103   6.321   7.935
  647POPC   C4B10894  44.937   6.680   7.716
  648POPC   NC310895  30.994  41.444   9.336
  648POPC   PO410896  30.388  41.492   9.656
  648POPC   GL110897  30.459  41.444   9.207
  648POPC   GL210898  30.666  41.672   9.017
  648POPC   C1A10899  30.460  41.271   8.797
  648POPC   D2A10900  30.500  41.595   8.450
  648POPC   C3A10901  30.489  41.391   8.075
  648POPC   C4A10902  30.739  41.456   7.743
  648POPC   C1B10903  30.937  41.466   8.682
  648POPC   C2B10904  31.004  41.584   8.249
  648POPC   C3B10905  31.026  41.865   7.903
  648POPC   C4B10906  30.974  41.814   7.484
  649POPC   NC310907  28.329  42.770   9.320
  649POPC   PO410908  28.816  42.201   9.510
  649POPC   GL110909  28.661  42.420   9.138
  649POPC   GL210910  28.295  42.340   9.052
  649POPC   C1A10911  28.594  42.496   8.686
  649POPC   D2A10912  28.705  42.257   8.350
  649POPC   C3A10913  28.651  42.476   7.989
  649POPC   C4A10914  28.347  42.353   7.719
  649POPC   C1B10915  28.137  42.262   8.642
  649POPC   C2B10916  28.188  42.277   8.220
  649POPC   C3B10917  27.994  42.034   7.913
  649POPC   C4B10918  27.892  42.306   7.531
  650POPC   NC310919  25.054  30.472   9.378
  650POPC   PO410920  25.403  31.118   9.565
  650POPC   GL110921  25.368  30.839   9.198
  650POPC   GL210922  25.386  30.512   8.988
  650POPC   C1A10923  25.131  30.918   8.821
  650POPC   D2A10924  25.312  30.957   8.420
  650POPC   C3A10925  25.285  30.646   8.108
  650POPC   C4A10926  25.309  30.783   7.687
  650POPC   C1B10927  25.658  30.319   8.677
  650POPC   C2B10928  25.634  30.209   8.230
  650POPC   C3B10929  25.718  30.473   7.868
  650POPC   C4B10930  25.723  30.465   7.443
  651POPC   NC310931   3.365  35.972   9.471
  651POPC   PO410932   3.843  36.463   9.441
  651POPC   GL110933   3.682  36.181   9.138
  651POPC   GL210934   3.401  36.345   9.099
  651POPC   C1A10935   3.681  35.918   8.757
  651POPC   D2A10936   3.915  35.927   8.343
  651POPC   C3A10937   3.651  35.961   7.999
  651POPC   C4A10938   3.452  35.798   7.668
  651POPC   C1B10939   3.488  36.494   8.725
  651POPC   C2B10940   3.543  36.324   8.351
  651POPC   C3B10941   3.633  36.489   7.958
  651POPC   C4B10942   3.401  36.310   7.661
  652POPC   NC310943  35.640  44.379   9.463
  652POPC   PO410944  35.116  44.800   9.673
  652POPC   GL110945  35.304  44.753   9.271
  652POPC   GL210946  35.652  44.850   9.199
  652POPC   C1A10947  35.179  44.725   8.846
  652POPC   D2A10948  34.889  44.851   8.520
  652POPC   C3A10949  34.951  44.581   8.186
  652POPC   C4A10950  35.091  44.707   7.804
  652POPC   C1B10951  35.708  44.571   8.828
  652POPC   C2B10952  35.487  44.428   8.439
  652POPC   C3B10953  35.556  44.543   8.000
  652POPC   C4B10954  35.415  44.427   7.550
  653POPC   NC310955  13.420  25.268   9.826
  653POPC   PO410956  13.796  24.945   9.368
  653POPC   GL110957  13.680  25.164   9.059
  653POPC   GL210958  13.674  25.456   9.256
  653POPC   C1A10959  13.726  25.182   8.650
  653POPC   D2A10960  14.011  25.011   8.390
  653POPC   C3A10961  13.803  24.950   8.023
  653POPC   C4A10962  13.494  24.929   7.724
  653POPC   C1B10963  13.581  25.628   8.872
  653POPC   C2B10964  13.613  25.681   8.480
  653POPC   C3B10965  13.661  25.413   8.181
  653POPC   C4B10966  13.622  25.417   7.735
  654POPC   NC310967   2.204  30.189   9.509
  654POPC   PO410968   1.743  29.722   9.315
  654POPC   GL110969   2.029  29.955   9.092
  654POPC   GL210970   2.356  29.799   9.167
  654POPC   C1A10971   1.979  30.168   8.729
  654POPC   D2A10972   2.067  29.935   8.350
  654POPC   C3A10973   1.916  30.146   7.983
  654POPC   C4A10974   1.606  30.012   7.684
  654POPC   C1B10975   2.436  29.541   8.798
  654POPC   C2B10976   2.315  29.416   8.364
  654POPC   C3B10977   2.385  29.547   7.917
  654POPC   C4B10978   2.205  29.676   7.497
  655POPC   NC310979  16.317   8.877   9.491
  655POPC   PO410980  15.655   8.732   9.656
  655POPC   GL110981  15.828   8.884   9.256
  655POPC   GL210982  15.991   8.589   9.190
  655POPC   C1A10983  16.022   9.030   8.836
  655POPC   D2A10984  16.079   8.823   8.404
  655POPC   C3A10985  16.245   8.976   7.994
  655POPC   C4A10986  16.240   9.290   7.669
  655POPC   C1B10987  15.775   8.593   8.786
  655POPC   C2B10988  15.624   8.615   8.371
  655POPC   C3B10989  15.877   8.599   7.990
  655POPC   C4B10990  15.699   8.568   7.605
  656POPC   NC310991  23.432   0.988   9.415
  656POPC   PO410992  23.747   1.540   9.520
  656POPC   GL110993  23.863   1.288   9.124
  656POPC   GL210994  23.607   1.110   8.970
  656POPC   C1A10995  23.889   1.429   8.656
  656POPC   D2A10996  23.980   1.609   8.221
  656POPC   C3A10997  23.869   1.385   7.857
  656POPC   C4A10998  23.801   0.964   7.949
  656POPC   C1B10999  23.352   1.259   8.655
  656POPC   C2B11000  23.501   1.350   8.247
  656POPC   C3B11001  23.357   1.240   7.851
  656POPC   C4B11002  23.476   0.951   7.554
  657POPC   NC311003  14.386  24.024   9.462
  657POPC   PO411004  14.562  23.405   9.610
  657POPC   GL111005  14.624  23.646   9.171
  657POPC   GL211006  14.743  23.999   9.094
  657POPC   C1A11007  14.420  23.706   8.765
  657POPC   D2A11008  14.068  23.611   8.424
  657POPC   C3A11009  14.216  23.527   7.973
  657POPC   C4A11010  14.126  23.670   7.511
  657POPC   C1B11011  14.750  24.204   8.696
  657POPC   C2B11012  14.651  24.353   8.276
  657POPC   C3B11013  14.692  24.169   7.917
  657POPC   C4B11014  14.552  23.818   7.723
  658POPC   NC311015  25.880  21.877   9.523
  658POPC   PO411016  26.310  22.358   9.332
  658POPC   GL111017  26.070  22.153   9.039
  658POPC   GL211018  25.707  22.157   9.107
  658POPC   C1A11019  26.205  22.173   8.615
  658POPC   D2A11020  26.508  22.052   8.331
  658POPC   C3A11021  26.262  22.240   8.057
  658POPC   C4A11022  25.984  22.082   7.819
  658POPC   C1B11023  25.730  21.996   8.682
  658POPC   C2B11024  25.699  22.124   8.250
  658POPC   C3B11025  25.614  21.780   7.955
  658POPC   C4B11026  25.512  21.839   7.536
  659POPC   NC311027  15.827  24.600   9.582
  659POPC   PO411028  16.411  24.521   9.328
  659POPC   GL111029  15.991  24.391   9.116
  659POPC   GL211030  15.637  24.556   9.120
  659POPC   C1A11031  15.769  24.246   8.734
  659POPC   D2A11032  15.681  24.049   8.340
  659POPC   C3A11033  15.964  24.220   8.056
  659POPC   C4A11034  16.066  24.420   7.655
  659POPC   C1B11035  15.487  24.681   8.718
  659POPC   C2B11036  15.534  24.544   8.286
  659POPC   C3B11037  15.772  24.699   7.937
  659POPC   C4B11038  15.669  24.705   7.454
  660POPC   NC311039  39.395  41.733   9.595
  660POPC   PO411040  38.871  41.296   9.543
  660POPC   GL111041  39.035  41.561   9.198
  660POPC   GL211042  39.413  41.540   9.095
  660POPC   C1A11043  39.017  41.754   8.782
  660POPC   D2A11044  39.118  41.529   8.404
  660POPC   C3A11045  39.060  41.502   7.955
  660POPC   C4A11046  39.411  41.377   7.712
  660POPC   C1B11047  39.541  41.666   8.682
  660POPC   C2B11048  39.529  41.705   8.198
  660POPC   C3B11049  39.482  41.869   7.811
  660POPC   C4B11050  39.563  41.793   7.403
  661POPC   NC311051  31.897  24.656   9.347
  661POPC   PO411052  32.354  24.207   9.682
  661POPC   GL111053  32.300  24.345   9.236
  661POPC   GL211054  32.552  24.549   9.079
  661POPC   C1A11055  32.240  24.260   8.776
  661POPC   D2A11056  31.986  24.204   8.408
  661POPC   C3A11057  32.168  24.289   8.014
  661POPC   C4A11058  32.367  24.133   7.628
  661POPC   C1B11059  32.309  24.811   8.783
  661POPC   C2B11060  32.160  24.680   8.409
  661POPC   C3B11061  32.108  24.807   8.036
  661POPC   C4B11062  32.258  24.669   7.675
  662POPC   NC311063   6.288  43.261   9.644
  662POPC   PO411064   6.723  42.789   9.566
  662POPC   GL111065   6.708  43.020   9.163
  662POPC   GL211066   6.485  43.333   9.166
  662POPC   C1A11067   6.815  42.906   8.724
  662POPC   D2A11068   6.982  42.957   8.313
  662POPC   C3A11069   6.671  42.937   8.024
  662POPC   C4A11070   6.650  42.952   7.641
  662POPC   C1B11071   6.710  43.417   8.767
  662POPC   C2B11072   6.634  43.343   8.327
  662POPC   C3B11073   6.613  43.447   7.882
  662POPC   C4B11074   6.646  43.401   7.428
  663POPC   NC311075  14.717  28.472   9.505
  663POPC   PO411076  14.016  28.130   9.448
  663POPC   GL111077  14.369  28.241   9.168
  663POPC   GL211078  14.389  28.590   9.127
  663POPC   C1A11079  14.547  28.283   8.737
  663POPC   D2A11080  14.357  28.325   8.325
  663POPC   C3A11081  14.582  28.284   7.931
  663POPC   C4A11082  14.700  28.104   7.544
  663POPC   C1B11083  14.144  28.654   8.751
  663POPC   C2B11084  14.087  28.781   8.346
  663POPC   C3B11085  14.172  28.603   7.930
  663POPC   C4B11086  14.078  28.155   7.801
  664POPC   NC311087  38.631  14.471   9.513
  664POPC   PO411088  38.205  13.900   9.643
  664POPC   GL111089  38.228  14.187   9.268
  664POPC   GL211090  38.599  14.174   9.103
  664POPC   C1A11091  38.205  14.402   8.863
  664POPC   D2A11092  38.409  14.339   8.441
  664POPC   C3A11093  38.225  14.426   8.042
  664POPC   C4A11094  38.275  14.492   7.608
  664POPC   C1B11095  38.723  14.526   8.799
  664POPC   C2B11096  38.795  14.650   8.331
  664POPC   C3B11097  38.712  14.500   7.904
  664POPC   C4B11098  38.582  14.095   7.716
  665POPC   NC311099  14.055  10.530   9.691
  665POPC   PO411100  13.373  10.519   9.679
  665POPC   GL111101  13.570  10.489   9.249
  665POPC   GL211102  13.921  10.394   9.199
  665POPC   C1A11103  13.549  10.341   8.793
  665POPC   D2A11104  13.376  10.461   8.388
  665POPC   C3A11105  13.544  10.330   8.021
  665POPC   C4A11106  13.514  10.611   7.674
  665POPC   C1B11107  13.852  10.740   8.878
  665POPC   C2B11108  13.782  10.797   8.415
  665POPC   C3B11109  13.958  10.620   7.991
  665POPC   C4B11110  14.001  10.544   7.493
  666POPC   NC311111   4.788  19.923   9.666
  666POPC   PO411112   4.129  19.707   9.471
  666POPC   GL111113   4.475  19.767   9.185
  666POPC   GL211114   4.558  19.463   9.001
  666POPC   C1A11115   4.561  19.878   8.734
  666POPC   D2A11116   4.293  19.769   8.376
  666POPC   C3A11117   4.428  19.923   7.977
  666POPC   C4A11118   4.725  19.706   7.709
  666POPC   C1B11119   4.206  19.322   8.766
  666POPC   C2B11120   4.049  19.286   8.347
  666POPC   C3B11121   4.157  19.461   7.945
  666POPC   C4B11122   3.935  19.514   7.548
  667POPC   NC311123  18.064  23.123   9.411
  667POPC   PO411124  18.066  22.466   9.489
  667POPC   GL111125  18.358  22.548   9.148
  667POPC   GL211126  18.464  22.892   9.124
  667POPC   C1A11127  18.463  22.569   8.712
  667POPC   D2A11128  18.140  22.651   8.399
  667POPC   C3A11129  18.274  22.719   7.958
  667POPC   C4A11130  18.185  22.932   7.542
  667POPC   C1B11131  18.301  23.074   8.720
  667POPC   C2B11132  18.283  23.162   8.264
  667POPC   C3B11133  18.487  23.197   7.863
  667POPC   C4B11134  18.868  23.286   7.624
  668POPC   NC311135  34.392   2.614   9.530
  668POPC   PO411136  34.756   3.136   9.673
  668POPC   GL111137  34.650   2.933   9.222
  668POPC   GL211138  34.553   2.555   9.065
  668POPC   C1A11139  34.726   2.932   8.770
  668POPC   D2A11140  34.662   3.094   8.347
  668POPC   C3A11141  34.672   2.802   7.986
  668POPC   C4A11142  34.896   2.917   7.616
  668POPC   C1B11143  34.250   2.678   8.755
  668POPC   C2B11144  34.273   2.746   8.323
  668POPC   C3B11145  34.129   2.849   7.931
  668POPC   C4B11146  34.281   2.570   7.703
  669POPC   NC311147   9.739  25.845   9.458
  669POPC   PO411148  10.079  26.375   9.730
  669POPC   GL111149  10.080  26.264   9.276
  669POPC   GL211150   9.759  26.155   9.068
  669POPC   C1A11151  10.155  26.313   8.833
  669POPC   D2A11152   9.977  26.132   8.463
  669POPC   C3A11153  10.125  26.363   8.101
  669POPC   C4A11154   9.974  26.247   7.700
  669POPC   C1B11155   9.463  26.009   8.751
  669POPC   C2B11156   9.449  25.985   8.308
  669POPC   C3B11157   9.651  25.887   7.889
  669POPC   C4B11158   9.372  25.867   7.541
  670POPC   NC311159  15.833  27.543   9.647
  670POPC   PO411160  15.992  26.967   9.485
  670POPC   GL111161  15.876  27.331   9.169
  670POPC   GL211162  16.033  27.677   9.189
  670POPC   C1A11163  15.949  27.356   8.691
  670POPC   D2A11164  16.163  27.350   8.264
  670POPC   C3A11165  15.960  27.510   7.832
  670POPC   C4A11166  16.064  27.375   7.355
  670POPC   C1B11167  15.884  27.862   8.815
  670POPC   C2B11168  16.043  27.836   8.396
  670POPC   C3B11169  16.215  27.921   8.004
  670POPC   C4B11170  15.947  27.995   7.664
  671POPC   NC311171   0.662   5.818   9.637
  671POPC   PO411172   0.299   6.414   9.595
  671POPC   GL111173   0.430   6.204   9.161
  671POPC   GL211174   0.544   5.830   9.153
  671POPC   C1A11175   0.265   6.003   8.766
  671POPC   D2A11176   0.469   5.713   8.480
  671POPC   C3A11177   0.387   5.876   8.095
  671POPC   C4A11178   0.503   5.719   7.744
  671POPC   C1B11179   0.784   5.975   8.789
  671POPC   C2B11180   0.847   6.139   8.368
  671POPC   C3B11181   0.911   5.956   7.958
  671POPC   C4B11182   0.886   6.051   7.482
  672POPC   NC311183   2.271  25.882   9.379
  672POPC   PO411184   1.655  26.121   9.564
  672POPC   GL111185   1.796  26.169   9.146
  672POPC   GL211186   2.112  26.310   9.053
  672POPC   C1A11187   1.925  25.868   8.825
  672POPC   D2A11188   1.813  25.848   8.392
  672POPC   C3A11189   1.915  26.141   8.099
  672POPC   C4A11190   1.707  26.079   7.709
  672POPC   C1B11191   2.313  26.159   8.663
  672POPC   C2B11192   2.290  25.726   8.473
  672POPC   C3B11193   2.219  25.651   8.105
  672POPC   C4B11194   2.166  25.867   7.752
  673POPC   NC311195  36.763   6.895   9.433
  673POPC   PO411196  37.356   6.524   9.400
  673POPC   GL111197  37.014   6.570   9.101
  673POPC   GL211198  36.681   6.401   9.184
  673POPC   C1A11199  37.018   6.816   8.732
  673POPC   D2A11200  37.192   6.782   8.311
  673POPC   C3A11201  37.140   6.847   7.887
  673POPC   C4A11202  36.942   6.526   7.694
  673POPC   C1B11203  36.558   6.578   8.792
  673POPC   C2B11204  36.603   6.864   8.437
  673POPC   C3B11205  36.626   6.794   8.010
  673POPC   C4B11206  36.462   6.674   7.626
  674POPC   NC311207  16.583  44.828   9.497
  674POPC   PO411208  17.110  44.411   9.300
  674POPC   GL111209  16.800  44.561   9.105
  674POPC   GL211210  16.744  44.926   9.043
  674POPC   C1A11211  16.660  44.529   8.721
  674POPC   D2A11212  16.498  44.313   8.401
  674POPC   C3A11213  16.494  44.516   8.023
  674POPC   C4A11214  16.587  44.281   7.653
  674POPC   C1B11215  16.638   0.162   8.673
  674POPC   C2B11216  16.452   0.032   8.293
  674POPC   C3B11217  16.632   0.003   7.909
  674POPC   C4B11218  17.042  44.951   7.723
  675POPC   NC311219  39.689  15.573   9.782
  675POPC   PO411220  39.275  15.078   9.524
  675POPC   GL111221  39.275  15.033   9.095
  675POPC   GL211222  39.138  14.695   9.085
  675POPC   C1A11223  39.049  15.269   8.740
  675POPC   D2A11224  38.943  15.285   8.282
  675POPC   C3A11225  39.306  15.325   7.986
  675POPC   C4A11226  39.456  15.429   7.580
  675POPC   C1B11227  39.157  14.780   8.665
  675POPC   C2B11228  39.247  14.897   8.276
  675POPC   C3B11229  39.070  14.888   7.839
  675POPC   C4B11230  39.051  15.158   7.454
  676POPC   NC311231  33.266  10.400   9.434
  676POPC   PO411232  33.032  10.951   9.651
  676POPC   GL111233  33.036  10.856   9.200
  676POPC   GL211234  32.921  10.505   9.073
  676POPC   C1A11235  32.844  10.888   8.772
  676POPC   D2A11236  32.754  10.651   8.388
  676POPC   C3A11237  32.951  10.789   7.989
  676POPC   C4A11238  32.837  10.728   7.574
  676POPC   C1B11239  33.027  10.216   8.733
  676POPC   C2B11240  33.055  10.181   8.303
  676POPC   C3B11241  32.931  10.272   7.893
  676POPC   C4B11242  33.207  10.059   7.623
  677POPC   NC311243  31.961  16.405   9.789
  677POPC   PO411244  32.097  16.875   9.377
  677POPC   GL111245  32.372  16.680   9.097
  677POPC   GL211246  32.678  16.865   9.040
  677POPC   C1A11247  32.204  16.626   8.701
  677POPC   D2A11248  32.195  16.925   8.358
  677POPC   C3A11249  32.093  16.737   7.945
  677POPC   C4A11250  31.754  16.909   7.664
  677POPC   C1B11251  32.676  16.760   8.607
  677POPC   C2B11252  32.527  16.546   8.289
  677POPC   C3B11253  32.685  16.346   7.993
  677POPC   C4B11254  32.639  16.686   7.716
  678POPC   NC311255   7.097  22.541   9.469
  678POPC   PO411256   6.901  21.930   9.482
  678POPC   GL111257   7.058  22.121   9.081
  678POPC   GL211258   7.383  22.294   9.107
  678POPC   C1A11259   7.295  22.030   8.682
  678POPC   D2A11260   7.509  21.824   8.343
  678POPC   C3A11261   7.252  21.925   8.017
  678POPC   C4A11262   7.149  22.351   7.858
  678POPC   C1B11263   7.681  22.560   8.838
  678POPC   C2B11264   7.752  22.561   8.436
  678POPC   C3B11265   7.626  22.312   8.101
  678POPC   C4B11266   7.854  22.343   7.753
  679POPC   NC311267  38.159  39.078   9.383
  679POPC   PO411268  38.518  39.555   9.617
  679POPC   GL111269  38.540  39.380   9.196
  679POPC   GL211270  38.709  39.067   9.151
  679POPC   C1A11271  38.462  39.525   8.754
  679POPC   D2A11272  38.298  39.335   8.369
  679POPC   C3A11273  38.446  39.510   7.981
  679POPC   C4A11274  38.685  39.579   7.603
  679POPC   C1B11275  38.607  38.842   8.775
  679POPC   C2B11276  38.324  38.780   8.419
  679POPC   C3B11277  38.324  38.943   7.993
  679POPC   C4B11278  38.588  38.716   7.764
  680POPC   NC311279  34.907  35.047   9.480
  680POPC   PO411280  35.248  35.645   9.244
  680POPC   GL111281  35.259  35.295   9.038
  680POPC   GL211282  35.540  35.118   9.061
  680POPC   C1A11283  35.093  35.302   8.657
  680POPC   D2A11284  35.248  35.594   8.328
  680POPC   C3A11285  35.190  35.445   7.923
  680POPC   C4A11286  34.860  35.224   7.739
  680POPC   C1B11287  35.597  35.259   8.612
  680POPC   C2B11288  35.707  35.340   8.179
  680POPC   C3B11289  35.637  35.697   7.944
  680POPC   C4B11290  35.417  35.780   7.562
  681POPC   NC311291  32.417  17.204   9.396
  681POPC   PO411292  32.014  17.663   9.596
  681POPC   GL111293  32.143  17.603   9.164
  681POPC   GL211294  32.054  17.276   9.030
  681POPC   C1A11295  32.332  17.730   8.748
  681POPC   D2A11296  32.474  17.563   8.351
  681POPC   C3A11297  32.416  17.514   7.922
  681POPC   C4A11298  32.023  17.329   7.738
  681POPC   C1B11299  32.441  17.209   8.745
  681POPC   C2B11300  32.810  17.209   8.471
  681POPC   C3B11301  32.632  17.061   8.107
  681POPC   C4B11302  32.785  17.184   7.733
  682POPC   NC311303  41.872  19.535   9.449
  682POPC   PO411304  42.129  20.151   9.609
  682POPC   GL111305  42.269  19.855   9.246
  682POPC   GL211306  42.530  19.572   9.257
  682POPC   C1A11307  42.268  19.764   8.798
  682POPC   D2A11308  42.205  19.927   8.348
  682POPC   C3A11309  42.117  19.656   7.984
  682POPC   C4A11310  42.029  19.857   7.533
  682POPC   C1B11311  42.709  19.529   8.822
  682POPC   C2B11312  42.547  19.564   8.379
  682POPC   C3B11313  42.638  19.631   7.941
  682POPC   C4B11314  42.510  19.721   7.477
  683POPC   NC311315  20.806  28.050   9.506
  683POPC   PO411316  20.254  28.510   9.624
  683POPC   GL111317  20.557  28.475   9.230
  683POPC   GL211318  20.788  28.219   9.028
  683POPC   C1A11319  20.596  28.634   8.789
  683POPC   D2A11320  20.482  28.469   8.362
  683POPC   C3A11321  20.592  28.646   7.967
  683POPC   C4A11322  20.751  28.560   7.571
  683POPC   C1B11323  20.843  28.142   8.604
  683POPC   C2B11324  20.671  28.011   8.229
  683POPC   C3B11325  20.669  28.095   7.803
  683POPC   C4B11326  20.996  28.108   7.501
  684POPC   NC311327   7.580  10.443   9.674
  684POPC   PO411328   7.155  10.841   9.355
  684POPC   GL111329   7.513  10.780   9.086
  684POPC   GL211330   7.672  10.475   9.160
  684POPC   C1A11331   7.687  10.822   8.659
  684POPC   D2A11332   7.766  10.650   8.247
  684POPC   C3A11333   7.366  10.646   8.003
  684POPC   C4A11334   7.046  10.395   7.798
  684POPC   C1B11335   7.323  10.367   8.899
  684POPC   C2B11336   7.356  10.403   8.475
  684POPC   C3B11337   7.577  10.183   8.170
  684POPC   C4B11338   7.502  10.202   7.745
  685POPC   NC311339  12.749  30.176   9.265
  685POPC   PO411340  13.103  29.600   9.476
  685POPC   GL111341  13.149  29.727   9.047
  685POPC   GL211342  12.793  29.753   8.974
  685POPC   C1A11343  13.117  30.014   8.668
  685POPC   D2A11344  12.734  30.101   8.403
  685POPC   C3A11345  12.854  30.151   7.974
  685POPC   C4A11346  13.074  29.882   7.667
  685POPC   C1B11347  12.879  29.574   8.580
  685POPC   C2B11348  12.924  29.641   8.127
  685POPC   C3B11349  13.308  29.493   7.887
  685POPC   C4B11350  13.263  29.462   7.395
  686POPC   NC311351   3.278   9.162   9.363
  686POPC   PO411352   3.891   8.953   9.289
  686POPC   GL111353   3.553   8.907   9.003
  686POPC   GL211354   3.370   8.648   9.206
  686POPC   C1A11355   3.504   9.116   8.599
  686POPC   D2A11356   3.475   9.339   8.195
  686POPC   C3A11357   3.833   9.300   7.893
  686POPC   C4A11358   4.053   8.880   7.870
  686POPC   C1B11359   3.275   8.471   8.793
  686POPC   C2B11360   3.489   8.602   8.426
  686POPC   C3B11361   3.550   8.796   8.039
  686POPC   C4B11362   3.420   8.503   7.728
  687POPC   NC311363   0.194  15.261   9.480
  687POPC   PO411364   0.767  14.932   9.679
  687POPC   GL111365   0.657  15.137   9.259
  687POPC   GL211366   0.457  14.890   9.213
  687POPC   C1A11367   0.568  15.395   8.868
  687POPC   D2A11368   0.251  15.399   8.507
  687POPC   C3A11369   0.403  15.341   8.085
  687POPC   C4A11370   0.368  15.217   7.643
  687POPC   C1B11371   0.259  14.988   8.846
  687POPC   C2B11372   0.365  14.878   8.432
  687POPC   C3B11373   0.275  14.849   7.989
  687POPC   C4B11374  44.980  14.844   7.618
  688POPC   NC311375   3.956  28.917   9.382
  688POPC   PO411376   4.720  29.246   9.463
  688POPC   GL111377   4.614  29.373   9.120
  688POPC   GL211378   4.345  29.133   9.119
  688POPC   C1A11379   4.472  29.435   8.722
  688POPC   D2A11380   4.260  29.300   8.376
  688POPC   C3A11381   4.525  29.250   8.020
  688POPC   C4A11382   4.382  29.185   7.606
  688POPC   C1B11383   4.205  28.971   8.770
  688POPC   C2B11384   4.083  28.816   8.391
  688POPC   C3B11385   4.068  29.000   7.997
  688POPC   C4B11386   3.987  28.812   7.603
  689POPC   NC311387  11.136  11.377   9.492
  689POPC   PO411388  11.694  11.021   9.373
  689POPC   GL111389  11.437  11.160   9.073
  689POPC   GL211390  11.120  11.000   9.134
  689POPC   C1A11391  11.327  11.123   8.642
  689POPC   D2A11392  11.140  11.404   8.359
  689POPC   C3A11393  11.257  11.364   7.934
  689POPC   C4A11394  11.402  10.973   7.827
  689POPC   C1B11395  10.821  11.030   8.782
  689POPC   C2B11396  10.753  10.898   8.380
  689POPC   C3B11397  10.872  11.030   7.963
  689POPC   C4B11398  10.983  11.093   7.518
  690POPC   NC311399   7.385  15.654   9.699
  690POPC   PO411400   7.427  16.264   9.502
  690POPC   GL111401   7.537  16.044   9.139
  690POPC   GL211402   7.406  15.719   9.193
  690POPC   C1A11403   7.686  16.151   8.725
  690POPC   D2A11404   7.552  16.284   8.305
  690POPC   C3A11405   7.563  16.020   7.940
  690POPC   C4A11406   7.147  16.043   7.718
  690POPC   C1B11407   7.687  15.638   8.842
  690POPC   C2B11408   7.522  15.742   8.426
  690POPC   C3B11409   7.197  15.688   8.111
  690POPC   C4B11410   7.391  15.580   7.735
  691POPC   NC311411   8.059  26.184   9.579
  691POPC   PO411412   8.541  25.677   9.571
  691POPC   GL111413   8.509  25.872   9.156
  691POPC   GL211414   8.267  26.147   9.121
  691POPC   C1A11415   8.537  26.010   8.726
  691POPC   D2A11416   8.460  26.202   8.357
  691POPC   C3A11417   8.331  25.927   8.045
  691POPC   C4A11418   8.224  26.265   7.757
  691POPC   C1B11419   8.063  25.840   8.869
  691POPC   C2B11420   7.970  25.976   8.454
  691POPC   C3B11421   7.836  26.075   8.042
  691POPC   C4B11422   7.882  25.906   7.632
  692POPC   NC311423  11.190  15.616   9.466
  692POPC   PO411424  11.346  14.924   9.585
  692POPC   GL111425  11.401  15.168   9.235
  692POPC   GL211426  11.035  15.224   9.186
  692POPC   C1A11427  11.514  15.019   8.821
  692POPC   D2A11428  11.332  15.140   8.424
  692POPC   C3A11429  11.521  15.179   8.029
  692POPC   C4A11430  11.263  14.992   7.729
  692POPC   C1B11431  10.826  15.430   8.850
  692POPC   C2B11432  10.962  15.532   8.448
  692POPC   C3B11433  10.950  15.271   8.057
  692POPC   C4B11434  10.979  15.456   7.637
  693POPC   NC311435  38.560  17.658   9.589
  693POPC   PO411436  38.227  17.129   9.405
  693POPC   GL111437  38.561  17.348   9.132
  693POPC   GL211438  38.614  17.737   9.108
  693POPC   C1A11439  38.414  17.445   8.705
  693POPC   D2A11440  38.089  17.372   8.354
  693POPC   C3A11441  38.222  17.312   7.926
  693POPC   C4A11442  38.632  17.376   7.783
  693POPC   C1B11443  38.198  17.834   8.953
  693POPC   C2B11444  38.202  17.869   8.521
  693POPC   C3B11445  38.403  17.760   8.145
  693POPC   C4B11446  38.305  17.782   7.736
  694POPC   NC311447  15.160  30.115   9.589
  694POPC   PO411448  14.867  29.542   9.471
  694POPC   GL111449  15.231  29.815   9.190
  694POPC   GL211450  15.208  30.216   9.116
  694POPC   C1A11451  15.333  29.938   8.733
  694POPC   D2A11452  15.076  29.915   8.386
  694POPC   C3A11453  15.297  30.036   8.025
  694POPC   C4A11454  15.383  29.891   7.625
  694POPC   C1B11455  14.857  30.369   8.845
  694POPC   C2B11456  14.679  30.249   8.441
  694POPC   C3B11457  14.836  30.248   8.013
  694POPC   C4B11458  14.962  30.220   7.582
  695POPC   NC311459  44.395  35.534   9.513
  695POPC   PO411460  44.899  35.976   9.396
  695POPC   GL111461  44.675  35.659   9.103
  695POPC   GL211462  44.825  35.386   9.058
  695POPC   C1A11463  44.606  35.421   8.624
  695POPC   D2A11464  44.339  35.432   8.245
  695POPC   C3A11465  44.374  35.706   7.931
  695POPC   C4A11466  44.723  35.579   7.776
  695POPC   C1B11467  44.903  35.039   8.770
  695POPC   C2B11468  44.811  34.963   8.336
  695POPC   C3B11469  44.515  35.015   7.980
  695POPC   C4B11470  44.242  35.274   7.735
  696POPC   NC311471   0.568  43.206   9.461
  696POPC   PO411472   0.734  42.665   9.761
  696POPC   GL111473   0.382  42.806   9.269
  696POPC   GL211474   0.203  43.204   9.133
  696POPC   C1A11475   0.385  42.924   8.771
  696POPC   D2A11476   0.107  43.015   8.393
  696POPC   C3A11477   0.274  42.877   7.983
  696POPC   C4A11478   0.709  42.919   7.809
  696POPC   C1B11479   0.402  43.455   8.791
  696POPC   C2B11480   0.558  43.319   8.391
  696POPC   C3B11481   0.466  43.352   7.945
  696POPC   C4B11482   0.100  43.309   7.672
  697POPC   NC311483   2.752   4.948   9.527
  697POPC   PO411484   2.923   5.591   9.487
  697POPC   GL111485   2.796   5.327   9.111
  697POPC   GL211486   2.924   4.969   9.066
  697POPC   C1A11487   2.753   5.224   8.645
  697POPC   D2A11488   2.729   5.205   8.201
  697POPC   C3A11489   2.844   5.506   7.906
  697POPC   C4A11490   2.643   5.577   7.505
  697POPC   C1B11491   2.942   4.672   8.751
  697POPC   C2B11492   2.717   4.725   8.415
  697POPC   C3B11493   2.805   4.744   7.991
  697POPC   C4B11494   2.701   5.013   7.673
  698POPC   NC311495  29.504  12.057   9.346
  698POPC   PO411496  28.879  12.211   9.622
  698POPC   GL111497  29.022  12.248   9.195
  698POPC   GL211498  28.768  12.031   9.131
  698POPC   C1A11499  29.048  12.327   8.718
  698POPC   D2A11500  28.944  12.557   8.296
  698POPC   C3A11501  28.995  12.229   7.986
  698POPC   C4A11502  29.334  12.139   7.733
  698POPC   C1B11503  28.821  11.844   8.765
  698POPC   C2B11504  28.914  11.896   8.361
  698POPC   C3B11505  28.905  11.715   7.983
  698POPC   C4B11506  28.946  11.826   7.599
  699POPC   NC311507  36.011   5.477   9.438
  699POPC   PO411508  36.244   4.784   9.611
  699POPC   GL111509  36.197   5.036   9.243
  699POPC   GL211510  35.899   4.940   9.127
  699POPC   C1A11511  36.261   5.053   8.789
  699POPC   D2A11512  36.471   4.754   8.546
  699POPC   C3A11513  36.436   4.814   8.119
  699POPC   C4A11514  36.130   4.990   7.872
  699POPC   C1B11515  35.729   5.029   8.744
  699POPC   C2B11516  35.898   5.289   8.464
  699POPC   C3B11517  35.844   5.368   8.056
  699POPC   C4B11518  35.607   5.017   7.911
  700POPC   NC311519  36.202  31.126   9.254
  700POPC   PO411520  36.131  31.670   9.562
  700POPC   GL111521  36.083  31.576   9.095
  700POPC   GL211522  35.825  31.283   9.002
  700POPC   C1A11523  36.322  31.780   8.764
  700POPC   D2A11524  36.232  31.997   8.399
  700POPC   C3A11525  36.245  31.583   8.161
  700POPC   C4A11526  36.127  31.356   7.758
  700POPC   C1B11527  36.131  31.314   8.633
  700POPC   C2B11528  36.132  31.096   8.254
  700POPC   C3B11529  35.913  30.901   7.943
  700POPC   C4B11530  35.832  30.973   7.522
  701POPC   NC311531  15.160  44.146   9.469
  701POPC   PO411532  15.446  43.504   9.458
  701POPC   GL111533  15.420  43.732   9.114
  701POPC   GL211534  15.082  43.729   9.121
  701POPC   C1A11535  15.321  43.943   8.714
  701POPC   D2A11536  14.943  44.109   8.471
  701POPC   C3A11537  14.976  44.008   8.032
  701POPC   C4A11538  15.361  44.067   7.802
  701POPC   C1B11539  14.895  43.658   8.743
  701POPC   C2B11540  15.077  43.584   8.326
  701POPC   C3B11541  14.990  43.521   7.870
  701POPC   C4B11542  15.074  43.407   7.431
  702POPC   NC311543  43.391   1.678   9.620
  702POPC   PO411544  44.037   1.660   9.395
  702POPC   GL111545  43.853   1.447   9.111
  702POPC   GL211546  43.577   1.314   9.287
  702POPC   C1A11547  44.014   1.323   8.735
  702POPC   D2A11548  43.776   1.313   8.388
  702POPC   C3A11549  43.906   1.185   7.983
  702POPC   C4A11550  44.113   1.430   7.681
  702POPC   C1B11551  43.554   1.066   8.890
  702POPC   C2B11552  43.400   0.945   8.474
  702POPC   C3B11553  43.470   0.866   8.059
  702POPC   C4B11554  43.619   0.892   7.664
  703POPC   NC311555  32.980   7.045   9.521
  703POPC   PO411556  33.534   7.450   9.564
  703POPC   GL111557  33.400   7.199   9.233
  703POPC   GL211558  33.272   7.487   9.027
  703POPC   C1A11559  33.169   6.986   8.881
  703POPC   D2A11560  33.063   7.208   8.499
  703POPC   C3A11561  32.885   7.193   8.090
  703POPC   C4A11562  32.711   7.545   7.837
  703POPC   C1B11563  32.962   7.679   8.713
  703POPC   C2B11564  33.004   7.681   8.254
  703POPC   C3B11565  33.296   7.482   7.939
  703POPC   C4B11566  33.469   7.336   7.536
  704POPC   NC311567  22.445   6.943   9.437
  704POPC   PO411568  21.785   6.677   9.512
  704POPC   GL111569  22.017   6.857   9.152
  704POPC   GL211570  21.952   6.561   9.060
  704POPC   C1A11571  22.257   6.729   8.727
  704POPC   D2A11572  22.011   6.617   8.336
  704POPC   C3A11573  22.233   6.690   7.943
  704POPC   C4A11574  22.376   6.564   7.517
  704POPC   C1B11575  21.765   6.376   8.724
  704POPC   C2B11576  21.715   6.173   8.362
  704POPC   C3B11577  21.602   6.319   8.000
  704POPC   C4B11578  21.860   6.446   7.682
  705POPC   NC311579  17.853   0.360   9.881
  705POPC   PO411580  17.726   0.696   9.298
  705POPC   GL111581  17.602   0.373   9.007
  705POPC   GL211582  17.752   0.024   9.020
  705POPC   C1A11583  17.777   0.509   8.630
  705POPC   D2A11584  17.711   0.877   8.364
  705POPC   C3A11585  17.567   0.785   7.935
  705POPC   C4A11586  17.604   0.564   7.524
  705POPC   C1B11587  17.547   0.021   8.646
  705POPC   C2B11588  17.698   0.141   8.294
  705POPC   C3B11589  17.703   0.271   7.939
  705POPC   C4B11590  17.531   0.076   7.654
  706POPC   NC311591  28.674  38.616   9.373
  706POPC   PO411592  29.277  38.327   9.624
  706POPC   GL111593  29.397  38.461   9.182
  706POPC   GL211594  29.094  38.639   9.117
  706POPC   C1A11595  29.311  38.504   8.698
  706POPC   D2A11596  29.473  38.760   8.366
  706POPC   C3A11597  29.330  38.676   7.977
  706POPC   C4A11598  29.421  38.591   7.591
  706POPC   C1B11599  28.884  38.835   8.749
  706POPC   C2B11600  28.948  38.736   8.313
  706POPC   C3B11601  28.850  38.795   7.866
  706POPC   C4B11602  28.936  38.782   7.429
  707POPC   NC311603   8.702  11.514   9.367
  707POPC   PO411604   9.011  11.013   9.697
  707POPC   GL111605   8.953  11.056   9.209
  707POPC   GL211606   9.101  11.368   9.044
  707POPC   C1A11607   8.792  11.123   8.754
  707POPC   D2A11608   9.074  11.301   8.442
  707POPC   C3A11609   9.007  11.172   8.030
  707POPC   C4A11610   9.157  11.228   7.595
  707POPC   C1B11611   8.813  11.654   8.760
  707POPC   C2B11612   8.511  11.600   8.473
  707POPC   C3B11613   8.731  11.581   8.121
  707POPC   C4B11614   8.927  11.653   7.757
  708POPC   NC311615  26.642  24.606   9.555
  708POPC   PO411616  27.239  24.360   9.462
  708POPC   GL111617  26.856  24.334   9.167
  708POPC   GL211618  26.777  24.710   9.071
  708POPC   C1A11619  26.713  24.349   8.716
  708POPC   D2A11620  26.908  24.426   8.282
  708POPC   C3A11621  26.964  24.517   7.846
  708POPC   C4A11622  26.697  24.219   7.654
  708POPC   C1B11623  26.830  24.822   8.623
  708POPC   C2B11624  26.505  24.733   8.356
  708POPC   C3B11625  26.512  24.708   7.940
  708POPC   C4B11626  26.600  24.663   7.448
  709POPC   NC311627  25.297  25.441   9.582
  709POPC   PO411628  24.879  25.056   9.285
  709POPC   GL111629  25.190  25.374   9.060
  709POPC   GL211630  25.549  25.485   9.125
  709POPC   C1A11631  25.339  25.604   8.650
  709POPC   D2A11632  25.411  25.672   8.175
  709POPC   C3A11633  25.025  25.524   7.913
  709POPC   C4A11634  24.970  25.112   7.700
  709POPC   C1B11635  25.560  25.156   8.768
  709POPC   C2B11636  25.610  24.948   8.393
  709POPC   C3B11637  25.370  25.067   8.036
  709POPC   C4B11638  25.462  25.390   7.730
  710POPC   NC311639   3.505  42.500   9.284
  710POPC   PO411640   3.751  42.029   9.701
  710POPC   GL111641   3.881  42.198   9.200
  710POPC   GL211642   3.577  42.154   8.910
  710POPC   C1A11643   3.970  42.366   8.733
  710POPC   D2A11644   3.725  42.109   8.413
  710POPC   C3A11645   3.672  42.138   7.970
  710POPC   C4A11646   3.803  42.424   7.641
  710POPC   C1B11647   3.437  42.486   8.633
  710POPC   C2B11648   3.580  42.583   8.230
  710POPC   C3B11649   3.379  42.572   7.848
  710POPC   C4B11650   3.383  42.567   7.380
  711POPC   NC311651  25.565  30.709   9.725
  711POPC   PO411652  26.183  31.024   9.518
  711POPC   GL111653  26.198  30.680   9.253
  711POPC   GL211654  25.857  30.630   9.166
  711POPC   C1A11655  26.239  30.590   8.813
  711POPC   D2A11656  26.490  30.651   8.456
  711POPC   C3A11657  26.239  30.648   8.074
  711POPC   C4A11658  26.136  30.758   7.663
  711POPC   C1B11659  25.747  30.816   8.754
  711POPC   C2B11660  25.783  30.734   8.318
  711POPC   C3B11661  25.743  30.970   7.933
  711POPC   C4B11662  25.737  30.968   7.442
  712POPC   NC311663  16.082  20.431   9.470
  712POPC   PO411664  15.830  21.056   9.601
  712POPC   GL111665  16.039  20.888   9.258
  712POPC   GL211666  15.742  20.650   9.155
  712POPC   C1A11667  16.337  20.860   8.894
  712POPC   D2A11668  16.319  20.911   8.439
  712POPC   C3A11669  16.349  20.684   8.040
  712POPC   C4A11670  16.150  20.883   7.696
  712POPC   C1B11671  15.957  20.559   8.762
  712POPC   C2B11672  15.982  20.446   8.318
  712POPC   C3B11673  15.737  20.671   7.990
  712POPC   C4B11674  15.641  20.881   7.591
  713POPC   NC311675  29.331   2.825   9.600
  713POPC   PO411676  28.739   2.949   9.494
  713POPC   GL111677  28.994   2.770   9.170
  713POPC   GL211678  29.307   2.898   9.106
  713POPC   C1A11679  28.950   2.763   8.742
  713POPC   D2A11680  28.833   2.968   8.361
  713POPC   C3A11681  29.068   2.743   8.063
  713POPC   C4A11682  29.010   2.732   7.637
  713POPC   C1B11683  29.446   2.630   8.769
  713POPC   C2B11684  29.510   2.555   8.309
  713POPC   C3B11685  29.728   2.864   8.062
  713POPC   C4B11686  29.689   3.047   7.658
  714POPC   NC311687  14.882   9.115   9.483
  714POPC   PO411688  14.298   8.767   9.545
  714POPC   GL111689  14.415   8.982   9.159
  714POPC   GL211690  14.749   8.927   9.027
  714POPC   C1A11691  14.255   9.079   8.738
  714POPC   D2A11692  14.063   8.864   8.373
  714POPC   C3A11693  14.222   8.978   7.965
  714POPC   C4A11694  14.528   9.280   7.797
  714POPC   C1B11695  14.614   8.713   8.649
  714POPC   C2B11696  14.603   8.658   8.208
  714POPC   C3B11697  14.633   8.740   7.792
  714POPC   C4B11698  14.857   8.716   7.427
  715POPC   NC311699  33.881  31.407   9.582
  715POPC   PO411700  33.223  31.387   9.426
  715POPC   GL111701  33.617  31.535   9.148
  715POPC   GL211702  33.992  31.670   9.165
  715POPC   C1A11703  33.737  31.303   8.744
  715POPC   D2A11704  33.528  30.995   8.421
  715POPC   C3A11705  33.722  30.997   8.007
  715POPC   C4A11706  33.814  31.280   7.680
  715POPC   C1B11707  33.987  31.795   8.748
  715POPC   C2B11708  34.021  31.593   8.323
  715POPC   C3B11709  34.114  31.702   7.869
  715POPC   C4B11710  34.189  31.887   7.430
  716POPC   NC311711  44.343   1.971   9.532
  716POPC   PO411712  43.590   2.164   9.621
  716POPC   GL111713  43.638   1.921   9.210
  716POPC   GL211714  43.376   1.747   9.102
  716POPC   C1A11715  43.915   1.886   8.807
  716POPC   D2A11716  44.138   1.750   8.453
  716POPC   C3A11717  43.947   1.719   8.075
  716POPC   C4A11718  44.007   1.924   7.705
  716POPC   C1B11719  43.426   1.987   8.748
  716POPC   C2B11720  43.543   1.886   8.338
  716POPC   C3B11721  43.539   2.049   7.907
  716POPC   C4B11722  43.584   1.986   7.454
  717POPC   NC311723  26.850  20.835   9.463
  717POPC   PO411724  26.259  20.381   9.340
  717POPC   GL111725  26.591  20.658   9.073
  717POPC   GL211726  26.881  20.549   9.025
  717POPC   C1A11727  26.922  21.019   8.838
  717POPC   D2A11728  27.169  21.079   8.437
  717POPC   C3A11729  26.951  20.942   8.044
  717POPC   C4A11730  26.682  20.956   7.644
  717POPC   C1B11731  26.763  20.599   8.608
  717POPC   C2B11732  26.870  20.453   8.249
  717POPC   C3B11733  26.727  20.510   7.879
  717POPC   C4B11734  27.090  20.592   7.654
  718POPC   NC311735  29.994  27.865   9.437
  718POPC   PO411736  30.202  27.242   9.470
  718POPC   GL111737  30.098  27.493   9.107
  718POPC   GL211738  29.785  27.622   9.054
  718POPC   C1A11739  30.115  27.621   8.678
  718POPC   D2A11740  30.293  27.606   8.279
  718POPC   C3A11741  30.085  27.374   7.954
  718POPC   C4A11742  29.897  27.594   7.584
  718POPC   C1B11743  29.671  27.853   8.705
  718POPC   C2B11744  29.837  27.935   8.309
  718POPC   C3B11745  29.636  27.810   7.950
  718POPC   C4B11746  29.356  28.004   7.692
  719POPC   NC311747  21.804  21.765   9.409
  719POPC   PO411748  21.159  21.625   9.473
  719POPC   GL111749  21.070  21.334   9.114
  719POPC   GL211750  20.929  21.511   8.875
  719POPC   C1A11751  21.266  21.144   8.742
  719POPC   D2A11752  21.485  21.189   8.365
  719POPC   C3A11753  21.418  21.043   7.947
  719POPC   C4A11754  21.200  21.305   7.649
  719POPC   C1B11755  21.390  21.631   8.812
  719POPC   C2B11756  21.627  21.691   8.423
  719POPC   C3B11757  21.508  21.545   7.986
  719POPC   C4B11758  21.590  21.610   7.513
  720POPC   NC311759  41.203  34.864   9.756
  720POPC   PO411760  41.363  34.383   9.326
  720POPC   GL111761  41.618  34.598   9.055
  720POPC   GL211762  41.901  34.383   9.038
  720POPC   C1A11763  41.553  34.860   8.678
  720POPC   D2A11764  41.448  34.950   8.262
  720POPC   C3A11765  41.541  34.750   7.846
  720POPC   C4A11766  41.323  34.482   7.541
  720POPC   C1B11767  41.725  34.356   8.639
  720POPC   C2B11768  41.625  34.458   8.273
  720POPC   C3B11769  41.959  34.508   8.030
  720POPC   C4B11770  41.939  34.354   7.649
  721POPC   NC311771  18.585   3.424   9.399
  721POPC   PO411772  17.888   3.368   9.563
  721POPC   GL111773  18.088   3.270   9.201
  721POPC   GL211774  18.076   3.622   9.121
  721POPC   C1A11775  18.192   3.269   8.776
  721POPC   D2A11776  18.183   3.543   8.421
  721POPC   C3A11777  18.371   3.431   8.037
  721POPC   C4A11778  18.336   3.280   7.626
  721POPC   C1B11779  18.354   3.843   8.841
  721POPC   C2B11780  18.336   4.030   8.410
  721POPC   C3B11781  18.122   3.902   8.020
  721POPC   C4B11782  18.236   3.773   7.562
  722POPC   NC311783  18.675  10.361   9.471
  722POPC   PO411784  19.260  10.078   9.512
  722POPC   GL111785  19.123  10.254   9.130
  722POPC   GL211786  18.782  10.127   9.041
  722POPC   C1A11787  19.431  10.394   8.814
  722POPC   D2A11788  19.522  10.384   8.366
  722POPC   C3A11789  19.216  10.543   8.068
  722POPC   C4A11790  18.997  10.731   7.708
  722POPC   C1B11791  18.735  10.296   8.642
  722POPC   C2B11792  18.784  10.292   8.212
  722POPC   C3B11793  18.626  10.405   7.826
  722POPC   C4B11794  18.647  10.533   7.387
  723POPC   NC311795  37.399  27.855   9.521
  723POPC   PO411796  37.734  27.231   9.823
  723POPC   GL111797  37.752  27.525   9.391
  723POPC   GL211798  37.468  27.491   9.189
  723POPC   C1A11799  37.845  27.642   8.899
  723POPC   D2A11800  37.903  27.551   8.439
  723POPC   C3A11801  37.786  27.712   8.023
  723POPC   C4A11802  37.830  27.506   7.625
  723POPC   C1B11803  37.371  27.402   8.758
  723POPC   C2B11804  37.400  27.589   8.364
  723POPC   C3B11805  37.387  27.391   7.977
  723POPC   C4B11806  37.165  27.390   7.634
  724POPC   NC311807  20.832  30.463   9.565
  724POPC   PO411808  20.420  30.900   9.703
  724POPC   GL111809  20.403  30.896   9.213
  724POPC   GL211810  20.659  30.674   9.148
  724POPC   C1A11811  20.354  30.736   8.752
  724POPC   D2A11812  20.172  30.781   8.341
  724POPC   C3A11813  20.329  30.499   8.037
  724POPC   C4A11814  20.555  30.742   7.762
  724POPC   C1B11815  20.852  30.629   8.766
  724POPC   C2B11816  20.697  30.403   8.419
  724POPC   C3B11817  20.859  30.428   8.020
  724POPC   C4B11818  21.100  30.786   7.851
  725POPC   NC311819  43.309  28.472   9.458
  725POPC   PO411820  44.036  28.443   9.583
  725POPC   GL111821  43.807  28.420   9.204
  725POPC   GL211822  43.685  28.090   9.292
  725POPC   C1A11823  43.980  28.310   8.785
  725POPC   D2A11824  44.051  28.459   8.355
  725POPC   C3A11825  43.976  28.160   8.030
  725POPC   C4A11826  43.917  28.229   7.604
  725POPC   C1B11827  43.493  28.145   8.871
  725POPC   C2B11828  43.553  28.319   8.466
  725POPC   C3B11829  43.430  28.307   8.058
  725POPC   C4B11830  43.519  27.988   7.784
  726POPC   NC311831  10.447   0.171   9.658
  726POPC   PO411832  10.790   0.785   9.536
  726POPC   GL111833  10.582   0.718   9.114
  726POPC   GL211834  10.416   0.397   9.187
  726POPC   C1A11835  10.594   0.781   8.650
  726POPC   D2A11836  10.705   0.562   8.274
  726POPC   C3A11837  10.583   0.743   7.889
  726POPC   C4A11838  10.695   0.698   7.431
  726POPC   C1B11839  10.664   0.296   8.812
  726POPC   C2B11840  10.540   0.103   8.423
  726POPC   C3B11841  10.345   0.238   8.081
  726POPC   C4B11842  10.530   0.267   7.701
  727POPC   NC311843  19.423  17.572   9.452
  727POPC   PO411844  18.773  17.578   9.596
  727POPC   GL111845  18.717  17.598   9.167
  727POPC   GL211846  19.034  17.434   9.124
  727POPC   C1A11847  18.837  17.740   8.774
  727POPC   D2A11848  19.056  17.767   8.392
  727POPC   C3A11849  18.859  17.665   8.022
  727POPC   C4A11850  19.147  17.699   7.669
  727POPC   C1B11851  19.134  17.327   8.688
  727POPC   C2B11852  19.127  17.261   8.249
  727POPC   C3B11853  18.970  17.229   7.812
  727POPC   C4B11854  19.001  17.211   7.370
  728POPC   NC311855  40.931  19.628   9.434
  728POPC   PO411856  40.625  20.187   9.624
  728POPC   GL111857  40.590  19.936   9.214
  728POPC   GL211858  40.838  20.096   9.086
  728POPC   C1A11859  40.801  19.690   8.800
  728POPC   D2A11860  40.726  19.507   8.400
  728POPC   C3A11861  40.712  19.760   8.046
  728POPC   C4A11862  40.806  19.555   7.625
  728POPC   C1B11863  40.578  20.147   8.736
  728POPC   C2B11864  40.789  20.250   8.359
  728POPC   C3B11865  41.001  20.185   8.004
  728POPC   C4B11866  40.787  20.052   7.645
  729POPC   NC311867  44.257  29.652   9.411
  729POPC   PO411868  43.618  29.793   9.323
  729POPC   GL111869  43.954  29.914   9.071
  729POPC   GL211870  44.154  30.172   9.261
  729POPC   C1A11871  43.849  29.974   8.646
  729POPC   D2A11872  43.843  30.167   8.258
  729POPC   C3A11873  43.906  29.856   7.960
  729POPC   C4A11874  43.692  29.583   7.690
  729POPC   C1B11875  44.187  30.323   8.836
  729POPC   C2B11876  44.332  30.249   8.417
  729POPC   C3B11877  44.253  30.374   8.007
  729POPC   C4B11878  44.262  30.076   7.671
  730POPC   NC311879  31.493  42.656   9.399
  730POPC   PO411880  31.190  41.977   9.408
  730POPC   GL111881  31.200  42.348   9.114
  730POPC   GL211882  31.557  42.400   8.973
  730POPC   C1A11883  31.149  42.498   8.687
  730POPC   D2A11884  31.490  42.351   8.444
  730POPC   C3A11885  31.372  42.253   8.073
  730POPC   C4A11886  31.376  42.582   7.789
  730POPC   C1B11887  31.774  42.064   8.758
  730POPC   C2B11888  31.946  42.106   8.291
  730POPC   C3B11889  31.820  42.141   7.804
  730POPC   C4B11890  31.848  41.993   7.312
  731POPC   NC311891  38.253  36.314   9.279
  731POPC   PO411892  38.062  36.965   9.503
  731POPC   GL111893  38.352  36.837   9.167
  731POPC   GL211894  38.709  36.707   9.161
  731POPC   C1A11895  38.428  36.893   8.728
  731POPC   D2A11896  38.349  36.696   8.322
  731POPC   C3A11897  38.417  36.956   7.976
  731POPC   C4A11898  38.330  37.036   7.556
  731POPC   C1B11899  38.673  36.444   8.751
  731POPC   C2B11900  38.769  36.338   8.293
  731POPC   C3B11901  38.642  36.511   7.925
  731POPC   C4B11902  38.646  36.596   7.508
  732POPC   NC311903  22.487  19.215   9.637
  732POPC   PO411904  21.994  18.788   9.562
  732POPC   GL111905  22.284  18.834   9.237
  732POPC   GL211906  22.240  19.186   9.194
  732POPC   C1A11907  22.192  18.657   8.839
  732POPC   D2A11908  22.122  18.854   8.453
  732POPC   C3A11909  22.252  18.756   8.030
  732POPC   C4A11910  22.015  18.825   7.662
  732POPC   C1B11911  22.410  19.130   8.805
  732POPC   C2B11912  22.513  19.162   8.399
  732POPC   C3B11913  22.254  19.273   8.055
  732POPC   C4B11914  22.413  19.243   7.668
  733POPC   NC311915   4.769   8.993   9.473
  733POPC   PO411916   5.457   9.030   9.560
  733POPC   GL111917   5.170   8.919   9.108
  733POPC   GL211918   4.862   8.702   9.028
  733POPC   C1A11919   5.300   9.055   8.702
  733POPC   D2A11920   5.134   9.206   8.312
  733POPC   C3A11921   5.397   9.099   7.991
  733POPC   C4A11922   5.745   9.266   7.747
  733POPC   C1B11923   4.809   8.955   8.688
  733POPC   C2B11924   4.667   8.949   8.276
  733POPC   C3B11925   4.873   8.938   7.880
  733POPC   C4B11926   4.904   8.677   7.495
  734POPC   NC311927  12.694  44.227   9.491
  734POPC   PO411928  12.946  43.561   9.319
  734POPC   GL111929  12.949  43.965   9.118
  734POPC   GL211930  12.628  44.124   8.996
  734POPC   C1A11931  13.236  44.068   8.815
  734POPC   D2A11932  13.249  43.917   8.393
  734POPC   C3A11933  12.864  43.778   8.226
  734POPC   C4A11934  12.967  43.657   7.850
  734POPC   C1B11935  12.788  44.153   8.598
  734POPC   C2B11936  13.031  44.358   8.298
  734POPC   C3B11937  13.004  44.178   7.898
  734POPC   C4B11938  12.604  44.114   7.746
  735POPC   NC311939   5.901  14.665   9.290
  735POPC   PO411940   5.655  14.141   9.645
  735POPC   GL111941   5.762  14.110   9.201
  735POPC   GL211942   6.094  14.216   9.174
  735POPC   C1A11943   5.721  14.269   8.758
  735POPC   D2A11944   5.843  14.657   8.474
  735POPC   C3A11945   5.775  14.564   8.033
  735POPC   C4A11946   5.631  14.142   7.863
  735POPC   C1B11947   6.209  14.443   8.785
  735POPC   C2B11948   6.143  14.228   8.435
  735POPC   C3B11949   6.124  14.182   8.042
  735POPC   C4B11950   6.176  14.429   7.684
  736POPC   NC311951  25.025   0.922   9.456
  736POPC   PO411952  25.295   1.483   9.547
  736POPC   GL111953  25.405   1.213   9.196
  736POPC   GL211954  25.066   1.264   9.096
  736POPC   C1A11955  25.329   1.105   8.726
  736POPC   D2A11956  25.048   1.263   8.402
  736POPC   C3A11957  25.204   1.119   7.970
  736POPC   C4A11958  25.416   1.275   7.581
  736POPC   C1B11959  24.794   1.001   8.843
  736POPC   C2B11960  24.716   0.861   8.452
  736POPC   C3B11961  24.706   1.051   8.077
  736POPC   C4B11962  24.810   0.914   7.689
  737POPC   NC311963  17.471  41.824   9.436
  737POPC   PO411964  17.461  42.448   9.674
  737POPC   GL111965  17.424  42.339   9.262
  737POPC   GL211966  17.619  42.630   9.161
  737POPC   C1A11967  17.355  42.305   8.824
  737POPC   D2A11968  17.457  42.491   8.424
  737POPC   C3A11969  17.253  42.363   8.070
  737POPC   C4A11970  17.357  42.474   7.668
  737POPC   C1B11971  17.831  42.590   8.764
  737POPC   C2B11972  17.969  42.407   8.364
  737POPC   C3B11973  17.771  42.369   7.981
  737POPC   C4B11974  17.859  42.534   7.563
  738POPC   NC311975  28.653  31.813   9.832
  738POPC   PO411976  28.937  32.326   9.444
  738POPC   GL111977  29.196  32.350   9.106
  738POPC   GL211978  29.091  32.029   8.992
  738POPC   C1A11979  29.314  32.360   8.677
  738POPC   D2A11980  29.096  32.234   8.324
  738POPC   C3A11981  29.269  32.325   7.960
  738POPC   C4A11982  29.262  31.999   7.708
  738POPC   C1B11983  28.785  32.156   8.722
  738POPC   C2B11984  28.584  32.119   8.341
  738POPC   C3B11985  28.754  32.148   7.899
  738POPC   C4B11986  28.831  32.077   7.435
  739POPC   NC311987   9.809   5.596   9.543
  739POPC   PO411988   9.525   6.109   9.704
  739POPC   GL111989   9.748   6.037   9.221
  739POPC   GL211990   9.954   5.748   9.075
  739POPC   C1A11991   9.690   5.956   8.716
  739POPC   D2A11992   9.886   6.060   8.305
  739POPC   C3A11993   9.557   6.065   8.002
  739POPC   C4A11994   9.423   5.790   7.665
  739POPC   C1B11995  10.177   5.802   8.668
  739POPC   C2B11996   9.907   5.556   8.377
  739POPC   C3B11997   9.820   5.643   7.988
  739POPC   C4B11998  10.007   5.935   7.724
  740POPC   NC311999   4.053  31.896   9.769
  740POPC   PO412000   4.288  32.415   9.357
  740POPC   GL112001   4.342  32.027   9.177
  740POPC   GL212002   4.707  31.967   9.162
  740POPC   C1A12003   4.378  31.971   8.742
  740POPC   D2A12004   4.196  32.175   8.404
  740POPC   C3A12005   4.247  32.504   8.134
  740POPC   C4A12006   4.067  32.462   7.729
  740POPC   C1B12007   4.888  31.874   8.734
  740POPC   C2B12008   4.660  31.794   8.339
  740POPC   C3B12009   4.524  32.069   8.001
  740POPC   C4B12010   4.619  32.112   7.566
  741POPC   NC312011   1.514  44.837   9.445
  741POPC   PO412012   2.171  44.839   9.572
  741POPC   GL112013   1.997  44.584   9.218
  741POPC   GL212014   1.659  44.482   9.103
  741POPC   C1A12015   2.142  44.472   8.804
  741POPC   D2A12016   2.243  44.735   8.463
  741POPC   C3A12017   2.312  44.545   8.098
  741POPC   C4A12018   2.130  44.478   7.716
  741POPC   C1B12019   1.764  44.835   8.803
  741POPC   C2B12020   1.809   0.004   8.367
  741POPC   C3B12021   1.811  44.756   7.981
  741POPC   C4B12022   1.695  44.736   7.537
  742POPC   NC312023  38.896  16.139   9.538
  742POPC   PO412024  39.549  15.972   9.628
  742POPC   GL112025  39.252  15.861   9.309
  742POPC   GL212026  39.250  16.199   9.176
  742POPC   C1A12027  39.233  15.745   8.877
  742POPC   D2A12028  39.335  15.577   8.467
  742POPC   C3A12029  39.133  15.791   8.129
  742POPC   C4A12030  39.028  15.672   7.708
  742POPC   C1B12031  39.434  16.228   8.787
  742POPC   C2B12032  39.498  16.306   8.344
  742POPC   C3B12033  39.500  16.221   7.916
  742POPC   C4B12034  39.111  16.187   7.798
  743POPC   NC312035  41.769  36.270   9.399
  743POPC   PO412036  41.144  35.989   9.423
  743POPC   GL112037  41.347  36.182   9.084
  743POPC   GL212038  41.587  35.927   9.022
  743POPC   C1A12039  41.379  36.143   8.632
  743POPC   D2A12040  41.266  35.946   8.288
  743POPC   C3A12041  41.378  36.182   7.935
  743POPC   C4A12042  41.305  36.643   7.851
  743POPC   C1B12043  41.747  35.775   8.633
  743POPC   C2B12044  41.782  35.903   8.204
  743POPC   C3B12045  41.679  35.658   7.832
  743POPC   C4B12046  41.855  35.630   7.401
  744POPC   NC312047  20.843  18.684   9.483
  744POPC   PO412048  20.493  19.433   9.448
  744POPC   GL112049  20.632  19.268   9.039
  744POPC   GL212050  20.828  18.938   9.032
  744POPC   C1A12051  20.423  18.946   8.705
  744POPC   D2A12052  20.153  18.856   8.352
  744POPC   C3A12053  20.359  18.909   7.994
  744POPC   C4A12054  20.249  19.199   7.743
  744POPC   C1B12055  20.890  19.100   8.642
  744POPC   C2B12056  20.789  18.959   8.262
  744POPC   C3B12057  20.838  19.220   7.925
  744POPC   C4B12058  21.025  19.521   7.627
  745POPC   NC312059  44.409  41.660   9.652
  745POPC   PO412060  44.953  41.321   9.666
  745POPC   GL112061  44.782  41.548   9.272
  745POPC   GL212062  44.868  41.845   9.055
  745POPC   C1A12063  44.662  41.425   8.832
  745POPC   D2A12064  44.817  41.296   8.398
  745POPC   C3A12065  44.664  41.411   7.964
  745POPC   C4A12066  44.304  41.588   7.777
  745POPC   C1B12067  44.900  41.795   8.579
  745POPC   C2B12068  44.794  42.042   8.235
  745POPC   C3B12069  44.691  41.928   7.810
  745POPC   C4B12070  44.753  41.645   7.448
  746POPC   NC312071  20.868  43.283   9.511
  746POPC   PO412072  20.257  43.533   9.386
  746POPC   GL112073  20.535  43.304   9.099
  746POPC   GL212074  20.547  42.972   9.221
  746POPC   C1A12075  20.615  43.203   8.659
  746POPC   D2A12076  20.604  43.410   8.315
  746POPC   C3A12077  20.724  43.341   7.884
  746POPC   C4A12078  20.497  43.347   7.499
  746POPC   C1B12079  20.817  42.824   8.897
  746POPC   C2B12080  20.690  42.705   8.491
  746POPC   C3B12081  20.546  42.912   8.131
  746POPC   C4B12082  20.679  42.871   7.721
  747POPC   NC312083  39.011  26.748   9.627
  747POPC   PO412084  39.366  27.319   9.666
  747POPC   GL112085  39.417  26.958   9.320
  747POPC   GL212086  39.125  26.830   9.121
  747POPC   C1A12087  39.467  27.062   8.844
  747POPC   D2A12088  39.374  27.161   8.427
  747POPC   C3A12089  39.488  26.796   8.193
  747POPC   C4A12090  39.510  26.660   7.764
  747POPC   C1B12091  39.048  26.774   8.641
  747POPC   C2B12092  38.985  26.866   8.217
  747POPC   C3B12093  38.954  26.780   7.795
  747POPC   C4B12094  38.827  26.586   7.430
  748POPC   NC312095   1.329  10.356   9.372
  748POPC   PO412096   1.348  11.023   9.384
  748POPC   GL112097   1.052  10.757   9.141
  748POPC   GL212098   0.858  10.412   9.135
  748POPC   C1A12099   1.112  10.600   8.726
  748POPC   D2A12100   1.390  10.493   8.395
  748POPC   C3A12101   1.337  10.617   7.975
  748POPC   C4A12102   1.490  10.479   7.600
  748POPC   C1B12103   1.004  10.116   8.829
  748POPC   C2B12104   0.940  10.213   8.417
  748POPC   C3B12105   1.119  10.150   8.048
  748POPC   C4B12106   1.081  10.183   7.650
  749POPC   NC312107  17.180  10.754   9.420
  749POPC   PO412108  17.668  10.406   9.780
  749POPC   GL112109  17.612  10.316   9.330
  749POPC   GL212110  17.368  10.426   9.055
  749POPC   C1A12111  17.798  10.236   8.930
  749POPC   D2A12112  17.626  10.487   8.598
  749POPC   C3A12113  17.811  10.615   8.238
  749POPC   C4A12114  17.642  10.443   7.849
  749POPC   C1B12115  17.168  10.678   8.739
  749POPC   C2B12116  17.335  10.920   8.423
  749POPC   C3B12117  17.464  10.924   8.014
  749POPC   C4B12118  17.282  11.013   7.668
  750POPC   NC312119   5.440  14.560   9.759
  750POPC   PO412120   4.837  14.626   9.495
  750POPC   GL112121   5.069  14.408   9.103
  750POPC   GL212122   5.417  14.502   9.193
  750POPC   C1A12123   5.031  14.320   8.603
  750POPC   D2A12124   4.755  14.238   8.200
  750POPC   C3A12125   4.899  14.437   7.817
  750POPC   C4A12126   5.254  14.352   7.504
  750POPC   C1B12127   5.411  14.694   8.759
  750POPC   C2B12128   5.307  14.679   8.293
  750POPC   C3B12129   5.323  14.741   7.822
  750POPC   C4B12130   5.369  14.844   7.323
  751POPC   NC312131  20.626  28.973   9.458
  751POPC   PO412132  20.614  29.666   9.440
  751POPC   GL112133  20.450  29.382   9.162
  751POPC   GL212134  20.774  29.292   9.085
  751POPC   C1A12135  20.430  29.128   8.763
  751POPC   D2A12136  20.606  28.968   8.360
  751POPC   C3A12137  20.490  29.226   7.958
  751POPC   C4A12138  20.446  28.974   7.590
  751POPC   C1B12139  20.947  29.066   8.750
  751POPC   C2B12140  21.118  29.080   8.356
  751POPC   C3B12141  20.971  29.105   7.972
  751POPC   C4B12142  21.086  28.937   7.615
  752POPC   NC312143  30.509   1.645   9.255
  752POPC   PO412144  31.013   2.103   9.486
  752POPC   GL112145  30.728   2.116   9.136
  752POPC   GL212146  30.918   1.883   8.984
  752POPC   C1A12147  30.494   2.006   8.713
  752POPC   D2A12148  30.678   2.136   8.307
  752POPC   C3A12149  30.424   2.198   7.929
  752POPC   C4A12150  30.435   1.770   7.792
  752POPC   C1B12151  30.896   1.707   8.575
  752POPC   C2B12152  31.194   1.730   8.265
  752POPC   C3B12153  31.174   2.124   8.112
  752POPC   C4B12154  30.884   2.020   7.811
  753POPC   NC312155  35.225  28.917   9.555
  753POPC   PO412156  35.801  29.226   9.595
  753POPC   GL112157  35.444  29.266   9.262
  753POPC   GL212158  35.259  29.557   9.174
  753POPC   C1A12159  35.182  29.075   8.907
  753POPC   D2A12160  35.265  29.005   8.467
  753POPC   C3A12161  35.098  29.188   8.090
  753POPC   C4A12162  34.975  29.033   7.708
  753POPC   C1B12163  35.503  29.455   8.794
  753POPC   C2B12164  35.360  29.518   8.396
  753POPC   C3B12165  35.562  29.403   8.020
  753POPC   C4B12166  35.374  29.358   7.632
  754POPC   NC312167  41.762  19.978   9.866
  754POPC   PO412168  41.400  19.601   9.393
  754POPC   GL112169  41.635  19.939   9.234
  754POPC   GL212170  41.350  20.101   9.118
  754POPC   C1A12171  41.785  19.852   8.833
  754POPC   D2A12172  41.907  19.534   8.503
  754POPC   C3A12173  41.629  19.528   8.179
  754POPC   C4A12174  41.653  19.588   7.745
  754POPC   C1B12175  41.168  20.118   8.693
  754POPC   C2B12176  41.134  19.810   8.367
  754POPC   C3B12177  41.170  19.588   7.986
  754POPC   C4B12178  41.216  19.817   7.571
  755POPC   NC312179  24.093  30.234   9.528
  755POPC   PO412180  23.551  29.665   9.451
  755POPC   GL112181  23.736  29.990   9.227
  755POPC   GL212182  24.040  29.800   9.231
  755POPC   C1A12183  23.620  30.172   8.843
  755POPC   D2A12184  23.407  30.248   8.467
  755POPC   C3A12185  23.629  30.220   8.102
  755POPC   C4A12186  23.439  30.161   7.710
  755POPC   C1B12187  23.896  29.715   8.793
  755POPC   C2B12188  23.932  29.657   8.344
  755POPC   C3B12189  23.720  29.748   7.949
  755POPC   C4B12190  23.714  29.525   7.521
  756POPC   NC312191  10.750  37.488   9.576
  756POPC   PO412192  10.051  37.518   9.531
  756POPC   GL112193  10.355  37.496   9.206
  756POPC   GL212194  10.555  37.794   9.199
  756POPC   C1A12195  10.542  37.466   8.787
  756POPC   D2A12196  10.872  37.562   8.486
  756POPC   C3A12197  10.620  37.482   8.113
  756POPC   C4A12198  10.688  37.463   7.717
  756POPC   C1B12199  10.685  37.975   8.800
  756POPC   C2B12200  10.548  37.910   8.382
  756POPC   C3B12201  10.652  37.972   7.950
  756POPC   C4B12202  10.287  37.855   7.737
  757POPC   NC312203  18.931  22.886   9.381
  757POPC   PO412204  19.619  22.820   9.424
  757POPC   GL112205  19.330  22.870   9.068
  757POPC   GL212206  19.150  22.566   8.998
  757POPC   C1A12207  19.004  22.987   8.720
  757POPC   D2A12208  18.831  22.751   8.379
  757POPC   C3A12209  18.875  22.855   7.954
  757POPC   C4A12210  18.657  22.698   7.629
  757POPC   C1B12211  19.389  22.669   8.610
  757POPC   C2B12212  19.318  22.936   8.229
  757POPC   C3B12213  19.347  22.828   7.778
  757POPC   C4B12214  19.570  22.828   7.392
  758POPC   NC312215  38.342   7.088   9.520
  758POPC   PO412216  38.588   7.778   9.527
  758POPC   GL112217  38.565   7.466   9.210
  758POPC   GL212218  38.229   7.444   9.183
  758POPC   C1A12219  38.744   7.436   8.817
  758POPC   D2A12220  38.899   7.592   8.415
  758POPC   C3A12221  38.713   7.517   8.029
  758POPC   C4A12222  38.640   7.210   7.744
  758POPC   C1B12223  38.245   7.247   8.803
  758POPC   C2B12224  38.433   7.298   8.411
  758POPC   C3B12225  38.202   7.298   8.017
  758POPC   C4B12226  38.088   7.115   7.594
  759POPC   NC312227   2.346  44.282   9.449
  759POPC   PO412228   2.757  43.708   9.600
  759POPC   GL112229   2.704  43.985   9.203
  759POPC   GL212230   2.399  43.829   9.166
  759POPC   C1A12231   2.858  44.009   8.745
  759POPC   D2A12232   2.677  43.945   8.309
  759POPC   C3A12233   2.794  43.975   7.869
  759POPC   C4A12234   2.863  44.061   7.457
  759POPC   C1B12235   2.392  43.729   8.732
  759POPC   C2B12236   2.180  44.016   8.421
  759POPC   C3B12237   2.282  44.038   7.973
  759POPC   C4B12238   2.444  43.609   7.891
  760POPC   NC312239  17.778   3.812   9.520
  760POPC   PO412240  17.246   3.318   9.357
  760POPC   GL112241  17.591   3.429   9.120
  760POPC   GL212242  17.558   3.773   9.044
  760POPC   C1A12243  17.733   3.471   8.679
  760POPC   D2A12244  17.708   3.696   8.260
  760POPC   C3A12245  17.869   3.493   7.871
  760POPC   C4A12246  17.823   3.497   7.424
  760POPC   C1B12247  17.307   3.759   8.648
  760POPC   C2B12248  17.202   3.639   8.215
  760POPC   C3B12249  17.370   3.644   7.786
  760POPC   C4B12250  17.345   3.348   7.421
  761POPC   NC312251  36.479  43.349   9.551
  761POPC   PO412252  36.724  43.952   9.523
  761POPC   GL112253  36.352  43.906   9.219
  761POPC   GL212254  36.134  44.230   9.153
  761POPC   C1A12255  36.189  43.616   8.897
  761POPC   D2A12256  36.293  43.499   8.470
  761POPC   C3A12257  36.113  43.798   8.168
  761POPC   C4A12258  36.111  43.810   7.730
  761POPC   C1B12259  36.208  44.101   8.708
  761POPC   C2B12260  35.985  44.271   8.352
  761POPC   C3B12261  35.990  44.259   7.904
  761POPC   C4B12262  36.163  44.271   7.456
  762POPC   NC312263   1.336  12.025   9.913
  762POPC   PO412264   1.295  12.557   9.635
  762POPC   GL112265   1.294  12.246   9.282
  762POPC   GL212266   0.956  12.232   9.108
  762POPC   C1A12267   1.375  12.291   8.827
  762POPC   D2A12268   1.433  11.998   8.490
  762POPC   C3A12269   1.463  12.112   8.078
  762POPC   C4A12270   1.231  12.226   7.743
  762POPC   C1B12271   0.922  12.154   8.636
  762POPC   C2B12272   0.947  12.086   8.180
  762POPC   C3B12273   0.736  12.195   7.786
  762POPC   C4B12274   0.799  12.096   7.339
  763POPC   NC312275  24.858   9.784   9.699
  763POPC   PO412276  24.237   9.938   9.510
  763POPC   GL112277  24.531   9.855   9.170
  763POPC   GL212278  24.875   9.961   9.207
  763POPC   C1A12279  24.486   9.569   8.799
  763POPC   D2A12280  24.638   9.440   8.402
  763POPC   C3A12281  24.416   9.612   8.050
  763POPC   C4A12282  24.548   9.498   7.638
  763POPC   C1B12283  24.875   9.912   8.769
  763POPC   C2B12284  24.723   9.947   8.352
  763POPC   C3B12285  24.895   9.730   7.997
  763POPC   C4B12286  24.813   9.933   7.617
  764POPC   NC312287  40.915   8.554   9.334
  764POPC   PO412288  40.629   9.186   9.411
  764POPC   GL112289  40.819   9.050   9.095
  764POPC   GL212290  41.164   9.008   9.135
  764POPC   C1A12291  40.659   8.903   8.742
  764POPC   D2A12292  40.851   8.769   8.391
  764POPC   C3A12293  40.763   8.998   8.058
  764POPC   C4A12294  40.494   8.850   7.765
  764POPC   C1B12295  41.116   9.183   8.695
  764POPC   C2B12296  41.189   9.263   8.264
  764POPC   C3B12297  41.168   9.186   7.830
  764POPC   C4B12298  41.045   8.841   7.560
  765POPC   NC312299  36.071   9.183   9.361
  765POPC   PO412300  36.548   8.943   9.654
  765POPC   GL112301  36.484   8.905   9.093
  765POPC   GL212302  36.135   8.972   8.923
  765POPC   C1A12303  36.459   8.750   8.626
  765POPC   D2A12304  36.168   8.778   8.316
  765POPC   C3A12305  36.442   9.005   8.079
  765POPC   C4A12306  36.431   9.015   7.656
  765POPC   C1B12307  35.780   8.990   8.652
  765POPC   C2B12308  35.741   9.056   8.225
  765POPC   C3B12309  35.763   8.753   7.886
  765POPC   C4B12310  36.044   8.676   7.546
  766POPC   NC312311   5.392  13.817   9.440
  766POPC   PO412312   4.881  13.509   9.611
  766POPC   GL112313   5.042  13.564   9.152
  766POPC   GL212314   5.407  13.537   9.014
  766POPC   C1A12315   5.027  13.404   8.701
  766POPC   D2A12316   4.908  13.293   8.272
  766POPC   C3A12317   5.045  13.481   7.881
  766POPC   C4A12318   4.764  13.723   7.613
  766POPC   C1B12319   5.265  13.866   8.737
  766POPC   C2B12320   5.067  13.830   8.313
  766POPC   C3B12321   5.133  13.982   7.873
  766POPC   C4B12322   5.208  13.822   7.445
  767POPC   NC312323   3.337  37.517   9.416
  767POPC   PO412324   3.808  37.983   9.236
  767POPC   GL112325   3.534  37.734   8.986
  767POPC   GL212326   3.615  37.383   9.010
  767POPC   C1A12327   3.426  37.774   8.560
  767POPC   D2A12328   3.685  37.917   8.232
  767POPC   C3A12329   3.496  37.881   7.851
  767POPC   C4A12330   3.208  38.183   7.690
  767POPC   C1B12331   3.544  37.266   8.606
  767POPC   C2B12332   3.565  37.411   8.169
  767POPC   C3B12333   3.688  37.409   7.737
  767POPC   C4B12334   3.585  37.409   7.270
  768POPC   NC312335  23.233   3.557   9.405
  768POPC   PO412336  22.655   4.036   9.422
  768POPC   GL112337  22.881   3.831   9.126
  768POPC   GL212338  22.699   3.525   9.218
  768POPC   C1A12339  22.909   3.676   8.705
  768POPC   D2A12340  22.612   3.494   8.384
  768POPC   C3A12341  22.774   3.509   7.979
  768POPC   C4A12342  22.658   3.518   7.539
  768POPC   C1B12343  22.628   3.274   8.858
  768POPC   C2B12344  22.976   3.166   8.582
  768POPC   C3B12345  23.024   3.102   8.140
  768POPC   C4B12346  23.106   3.276   7.682
  769POPC   NC312347   7.715  38.806   9.481
  769POPC   PO412348   7.046  38.753   9.371
  769POPC   GL112349   7.367  38.633   9.114
  769POPC   GL212350   7.150  38.735   8.844
  769POPC   C1A12351   7.505  38.379   8.756
  769POPC   D2A12352   7.747  38.230   8.422
  769POPC   C3A12353   7.643  38.380   8.009
  769POPC   C4A12354   7.589  38.192   7.578
  769POPC   C1B12355   7.590  38.898   8.746
  769POPC   C2B12356   7.812  38.762   8.377
  769POPC   C3B12357   7.751  38.879   7.959
  769POPC   C4B12358   7.592  38.726   7.595
  770POPC   NC312359  36.971  12.326   9.508
  770POPC   PO412360  37.175  11.638   9.452
  770POPC   GL112361  36.909  11.917   9.149
  770POPC   GL212362  36.753  12.274   9.072
  770POPC   C1A12363  36.794  11.925   8.703
  770POPC   D2A12364  36.916  12.153   8.331
  770POPC   C3A12365  36.752  12.021   8.019
  770POPC   C4A12366  36.776  11.792   7.644
  770POPC   C1B12367  36.863  12.476   8.714
  770POPC   C2B12368  36.602  12.551   8.339
  770POPC   C3B12369  36.776  12.544   7.941
  770POPC   C4B12370  36.881  12.300   7.582
  771POPC   NC312371  16.440  25.795   9.542
  771POPC   PO412372  16.050  26.322   9.673
  771POPC   GL112373  16.003  26.098   9.245
  771POPC   GL212374  16.200  25.828   9.105
  771POPC   C1A12375  16.019  26.147   8.763
  771POPC   D2A12376  16.240  25.967   8.386
  771POPC   C3A12377  16.110  26.148   7.989
  771POPC   C4A12378  15.764  25.999   7.757
  771POPC   C1B12379  16.399  25.590   8.783
  771POPC   C2B12380  16.248  25.448   8.368
  771POPC   C3B12381  16.085  25.651   7.985
  771POPC   C4B12382  16.148  25.801   7.517
  772POPC   NC312383  35.200   3.203   9.573
  772POPC   PO412384  35.513   2.492   9.648
  772POPC   GL112385  35.422   2.569   9.225
  772POPC   GL212386  35.532   2.899   9.230
  772POPC   C1A12387  35.203   2.679   8.827
  772POPC   D2A12388  34.987   2.671   8.419
  772POPC   C3A12389  35.177   2.885   8.099
  772POPC   C4A12390  35.301   2.647   7.746
  772POPC   C1B12391  35.713   2.704   8.831
  772POPC   C2B12392  35.590   2.725   8.394
  772POPC   C3B12393  35.776   2.701   7.961
  772POPC   C4B12394  35.718   2.900   7.551
  773POPC   NC312395  35.148  23.226   9.485
  773POPC   PO412396  35.782  22.943   9.418
  773POPC   GL112397  35.618  23.245   9.147
  773POPC   GL212398  35.322  23.046   9.052
  773POPC   C1A12399  35.618  23.228   8.688
  773POPC   D2A12400  35.575  22.958   8.337
  773POPC   C3A12401  35.424  23.214   8.031
  773POPC   C4A12402  35.509  23.064   7.663
  773POPC   C1B12403  35.229  22.777   8.704
  773POPC   C2B12404  35.173  22.580   8.313
  773POPC   C3B12405  35.224  22.707   7.920
  773POPC   C4B12406  35.013  23.042   7.739
  774POPC   NC312407  23.292   1.831   9.457
  774POPC   PO412408  22.611   1.758   9.510
  774POPC   GL112409  22.845   1.859   9.137
  774POPC   GL212410  23.040   2.158   9.175
  774POPC   C1A12411  22.950   2.005   8.703
  774POPC   D2A12412  23.061   2.000   8.304
  774POPC   C3A12413  22.805   2.106   7.988
  774POPC   C4A12414  22.937   2.010   7.568
  774POPC   C1B12415  23.265   2.372   8.865
  774POPC   C2B12416  23.407   2.328   8.483
  774POPC   C3B12417  23.387   2.254   8.007
  774POPC   C4B12418  23.393   2.279   7.563
  775POPC   NC312419  11.750  30.973   9.309
  775POPC   PO412420  11.077  31.012   9.458
  775POPC   GL112421  11.060  30.827   9.079
  775POPC   GL212422  11.435  30.714   9.009
  775POPC   C1A12423  11.134  30.981   8.699
  775POPC   D2A12424  11.478  30.841   8.478
  775POPC   C3A12425  11.316  30.745   8.103
  775POPC   C4A12426  10.919  30.933   8.009
  775POPC   C1B12427  11.247  30.440   8.727
  775POPC   C2B12428  11.146  30.235   8.353
  775POPC   C3B12429  11.217  30.243   7.936
  775POPC   C4B12430  11.593  30.438   7.765
  776POPC   NC312431   8.711   8.587   9.513
  776POPC   PO412432   8.904   9.202   9.674
  776POPC   GL112433   8.948   8.959   9.259
  776POPC   GL212434   8.617   8.920   9.090
  776POPC   C1A12435   9.100   8.779   8.869
  776POPC   D2A12436   9.159   9.030   8.487
  776POPC   C3A12437   9.133   8.797   8.114
  776POPC   C4A12438   9.328   8.900   7.766
  776POPC   C1B12439   8.650   8.957   8.628
  776POPC   C2B12440   8.667   8.968   8.169
  776POPC   C3B12441   8.828   8.957   7.718
  776POPC   C4B12442   8.720   8.890   7.273
  777POPC   NC312443  17.706  15.635   9.356
  777POPC   PO412444  17.842  16.349   9.426
  777POPC   GL112445  17.598  16.117   9.110
  777POPC   GL212446  17.262  15.965   9.087
  777POPC   C1A12447  17.461  16.267   8.719
  777POPC   D2A12448  17.557  16.047   8.367
  777POPC   C3A12449  17.291  16.016   8.060
  777POPC   C4A12450  17.463  16.014   7.670
  777POPC   C1B12451  17.389  15.705   8.712
  777POPC   C2B12452  17.364  15.536   8.263
  777POPC   C3B12453  17.181  15.587   7.815
  777POPC   C4B12454  17.363  15.598   7.392
  778POPC   NC312455   4.685   4.530   9.458
  778POPC   PO412456   4.068   4.245   9.508
  778POPC   GL112457   4.201   4.237   9.093
  778POPC   GL212458   4.555   4.216   9.071
  778POPC   C1A12459   4.220   3.923   8.769
  778POPC   D2A12460   4.370   4.046   8.376
  778POPC   C3A12461   4.261   4.006   7.982
  778POPC   C4A12462   4.257   4.320   7.702
  778POPC   C1B12463   4.526   4.418   8.699
  778POPC   C2B12464   4.799   4.334   8.381
  778POPC   C3B12465   4.757   4.189   7.994
  778POPC   C4B12466   4.732   4.487   7.684
  779POPC   NC312467  32.806  19.754   9.325
  779POPC   PO412468  33.240  20.176   9.620
  779POPC   GL112469  33.207  20.247   9.175
  779POPC   GL212470  32.858  20.230   9.096
  779POPC   C1A12471  33.176  20.096   8.712
  779POPC   D2A12472  33.113  19.706   8.427
  779POPC   C3A12473  32.985  19.800   8.014
  779POPC   C4A12474  33.031  20.235   7.925
  779POPC   C1B12475  32.590  20.051   8.773
  779POPC   C2B12476  32.610  19.861   8.403
  779POPC   C3B12477  32.522  20.039   8.043
  779POPC   C4B12478  32.649  20.079   7.635
  780POPC   NC312479  12.525  27.911   9.477
  780POPC   PO412480  12.869  27.295   9.366
  780POPC   GL112481  12.726  27.606   9.108
  780POPC   GL212482  12.379  27.586   9.101
  780POPC   C1A12483  12.786  27.471   8.702
  780POPC   D2A12484  13.142  27.423   8.436
  780POPC   C3A12485  13.001  27.478   8.048
  780POPC   C4A12486  13.193  27.667   7.669
  780POPC   C1B12487  12.456  27.852   8.733
  780POPC   C2B12488  12.251  27.973   8.331
  780POPC   C3B12489  12.498  27.925   7.960
  780POPC   C4B12490  12.676  27.649   7.699
  781POPC   NC312491   6.475  40.720   9.391
  781POPC   PO412492   6.479  41.345   9.653
  781POPC   GL112493   6.515  41.199   9.191
  781POPC   GL212494   6.290  40.958   8.982
  781POPC   C1A12495   6.750  41.054   8.785
  781POPC   D2A12496   6.813  40.786   8.408
  781POPC   C3A12497   6.699  40.984   8.010
  781POPC   C4A12498   6.943  40.819   7.687
  781POPC   C1B12499   6.288  40.539   8.733
  781POPC   C2B12500   6.434  40.437   8.303
  781POPC   C3B12501   6.571  40.489   7.882
  781POPC   C4B12502   6.374  40.420   7.486
  782POPC   NC312503  28.243  32.658   9.317
  782POPC   PO412504  28.364  32.057   9.552
  782POPC   GL112505  28.491  32.259   9.133
  782POPC   GL212506  28.702  32.552   9.061
  782POPC   C1A12507  28.300  32.326   8.750
  782POPC   D2A12508  28.080  32.346   8.407
  782POPC   C3A12509  28.235  32.307   8.018
  782POPC   C4A12510  28.063  32.050   7.702
  782POPC   C1B12511  28.672  32.660   8.626
  782POPC   C2B12512  28.744  32.596   8.206
  782POPC   C3B12513  28.596  32.710   7.842
  782POPC   C4B12514  28.454  32.400   7.573
  783POPC   NC312515  14.173  14.972   9.542
  783POPC   PO412516  14.775  15.403   9.547
  783POPC   GL112517  14.469  15.309   9.217
  783POPC   GL212518  14.174  15.133   9.080
  783POPC   C1A12519  14.526  15.303   8.769
  783POPC   D2A12520  14.513  15.606   8.450
  783POPC   C3A12521  14.339  15.398   8.102
  783POPC   C4A12522  14.415  15.103   7.762
  783POPC   C1B12523  13.960  14.871   8.799
  783POPC   C2B12524  13.965  15.060   8.414
  783POPC   C3B12525  14.214  14.861   8.142
  783POPC   C4B12526  14.033  14.684   7.781
  784POPC   NC312527  34.191  27.117   9.776
  784POPC   PO412528  34.865  27.225   9.616
  784POPC   GL112529  34.660  27.056   9.261
  784POPC   GL212530  34.377  26.819   9.329
  784POPC   C1A12531  34.874  26.984   8.882
  784POPC   D2A12532  34.816  26.748   8.547
  784POPC   C3A12533  34.672  26.933   8.178
  784POPC   C4A12534  34.821  26.861   7.777
  784POPC   C1B12535  34.356  26.820   8.850
  784POPC   C2B12536  34.352  26.584   8.441
  784POPC   C3B12537  34.337  26.535   8.010
  784POPC   C4B12538  34.360  26.681   7.606
  785POPC   NC312539  17.578  20.073   9.514
  785POPC   PO412540  17.247  19.456   9.393
  785POPC   GL112541  17.417  19.742   9.127
  785POPC   GL212542  17.756  19.724   9.179
  785POPC   C1A12543  17.453  19.695   8.710
  785POPC   D2A12544  17.260  19.861   8.365
  785POPC   C3A12545  17.369  19.632   8.018
  785POPC   C4A12546  17.511  19.705   7.618
  785POPC   C1B12547  17.909  19.903   8.782
  785POPC   C2B12548  17.701  20.137   8.483
  785POPC   C3B12549  17.629  20.072   8.058
  785POPC   C4B12550  17.819  20.145   7.694
  786POPC   NC312551  10.211   4.209   9.372
  786POPC   PO412552  10.919   4.371   9.467
  786POPC   GL112553  10.691   4.223   9.146
  786POPC   GL212554  10.553   4.537   9.101
  786POPC   C1A12555  10.706   4.038   8.746
  786POPC   D2A12556  11.029   3.932   8.456
  786POPC   C3A12557  10.853   3.948   8.014
  786POPC   C4A12558  10.465   4.013   7.757
  786POPC   C1B12559  10.768   4.566   8.731
  786POPC   C2B12560  10.814   4.390   8.341
  786POPC   C3B12561  10.576   4.462   7.978
  786POPC   C4B12562  10.529   4.603   7.577
  787POPC   NC312563  32.254  35.535   9.288
  787POPC   PO412564  32.127  36.269   9.268
  787POPC   GL112565  32.159  35.954   9.019
  787POPC   GL212566  31.820  35.851   9.043
  787POPC   C1A12567  32.427  35.877   8.665
  787POPC   D2A12568  32.310  35.751   8.241
  787POPC   C3A12569  32.499  36.049   7.931
  787POPC   C4A12570  32.405  36.239   7.509
  787POPC   C1B12571  31.914  35.923   8.577
  787POPC   C2B12572  32.177  36.241   8.359
  787POPC   C3B12573  32.086  36.326   7.946
  787POPC   C4B12574  31.945  35.993   7.659
  788POPC   NC312575  26.958   4.755   9.563
  788POPC   PO412576  26.693   4.093   9.513
  788POPC   GL112577  26.867   4.372   9.233
  788POPC   GL212578  26.610   4.627   9.218
  788POPC   C1A12579  26.933   4.246   8.841
  788POPC   D2A12580  27.069   4.240   8.440
  788POPC   C3A12581  26.758   4.142   8.198
  788POPC   C4A12582  26.880   4.134   7.794
  788POPC   C1B12583  26.710   4.725   8.811
  788POPC   C2B12584  26.883   4.752   8.408
  788POPC   C3B12585  26.784   4.620   8.011
  788POPC   C4B12586  26.616   4.869   7.691
  789POPC   NC312587  19.779  33.304   9.640
  789POPC   PO412588  20.239  32.675   9.540
  789POPC   GL112589  20.121  32.673   9.094
  789POPC   GL212590  19.800  32.873   9.104
  789POPC   C1A12591  20.088  32.957   8.712
  789POPC   D2A12592  19.911  32.924   8.332
  789POPC   C3A12593  20.121  32.967   7.937
  789POPC   C4A12594  20.244  32.660   7.623
  789POPC   C1B12595  19.541  32.957   8.722
  789POPC   C2B12596  19.396  33.132   8.351
  789POPC   C3B12597  19.549  32.984   7.985
  789POPC   C4B12598  19.708  33.077   7.638
  790POPC   NC312599  31.709  36.146   9.475
  790POPC   PO412600  31.111  35.809   9.411
  790POPC   GL112601  31.308  36.011   9.100
  790POPC   GL212602  31.341  36.323   9.154
  790POPC   C1A12603  31.394  35.882   8.687
  790POPC   D2A12604  31.331  36.035   8.307
  790POPC   C3A12605  31.552  35.793   8.036
  790POPC   C4A12606  31.452  35.774   7.623
  790POPC   C1B12607  31.650  36.295   8.800
  790POPC   C2B12608  31.680  36.401   8.344
  790POPC   C3B12609  31.585  36.276   7.889
  790POPC   C4B12610  31.572  36.227   7.421
  791POPC   NC312611  25.974  35.313   9.316
  791POPC   PO412612  26.562  35.031   9.203
  791POPC   GL112613  26.169  35.080   8.910
  791POPC   GL212614  25.934  35.411   8.834
  791POPC   C1A12615  26.090  35.117   8.459
  791POPC   D2A12616  26.324  35.279   8.111
  791POPC   C3A12617  26.117  35.114   7.747
  791POPC   C4A12618  25.722  35.257   7.504
  791POPC   C1B12619  26.291  35.580   8.643
  791POPC   C2B12620  26.496  35.813   8.338
  791POPC   C3B12621  26.409  35.817   7.916
  791POPC   C4B12622  26.055  35.607   7.802
  792POPC   NC312623  35.294   9.064   9.485
  792POPC   PO412624  35.912   8.685   9.293
  792POPC   GL112625  35.570   8.847   9.101
  792POPC   GL212626  35.630   9.196   9.107
  792POPC   C1A12627  35.222   8.980   8.815
  792POPC   D2A12628  35.189   9.136   8.404
  792POPC   C3A12629  35.276   8.830   8.080
  792POPC   C4A12630  35.125   8.733   7.688
  792POPC   C1B12631  35.484   9.405   8.767
  792POPC   C2B12632  35.547   9.547   8.377
  792POPC   C3B12633  35.427   9.371   8.008
  792POPC   C4B12634  35.474   9.151   7.647
  793POPC   NC312635  32.690  34.906   9.464
  793POPC   PO412636  32.674  35.619   9.526
  793POPC   GL112637  32.773  35.473   9.133
  793POPC   GL212638  33.067  35.268   9.192
  793POPC   C1A12639  33.001  35.608   8.766
  793POPC   D2A12640  33.067  35.364   8.413
  793POPC   C3A12641  33.179  35.479   8.048
  793POPC   C4A12642  33.061  35.422   7.651
  793POPC   C1B12643  32.898  35.046   8.808
  793POPC   C2B12644  32.926  34.871   8.377
  793POPC   C3B12645  32.888  35.055   7.982
  793POPC   C4B12646  32.913  34.946   7.578
  794POPC   NC312647  31.969  33.618   9.241
  794POPC   PO412648  32.537  33.259   9.517
  794POPC   GL112649  32.362  32.971   9.179
  794POPC   GL212650  32.048  33.099   9.071
  794POPC   C1A12651  32.379  32.838   8.721
  794POPC   D2A12652  32.582  32.781   8.309
  794POPC   C3A12653  32.388  32.835   7.910
  794POPC   C4A12654  32.553  32.642   7.567
  794POPC   C1B12655  32.146  33.284   8.666
  794POPC   C2B12656  32.149  33.077   8.274
  794POPC   C3B12657  32.075  33.261   7.837
  794POPC   C4B12658  31.966  33.159   7.397
  795POPC   NC312659  36.653  28.111   9.469
  795POPC   PO412660  37.275  28.380   9.525
  795POPC   GL112661  36.973  28.408   9.166
  795POPC   GL212662  36.923  28.088   9.035
  795POPC   C1A12663  37.063  28.457   8.705
  795POPC   D2A12664  37.399  28.570   8.404
  795POPC   C3A12665  37.252  28.690   8.009
  795POPC   C4A12666  36.921  28.618   7.699
  795POPC   C1B12667  36.628  28.132   8.690
  795POPC   C2B12668  36.646  28.295   8.255
  795POPC   C3B12669  36.552  28.168   7.818
  795POPC   C4B12670  36.622  27.990   7.362
  796POPC   NC312671  33.293  43.640   9.578
  796POPC   PO412672  32.892  44.136   9.390
  796POPC   GL112673  33.116  43.970   9.086
  796POPC   GL212674  33.294  43.633   9.063
  796POPC   C1A12675  32.868  44.070   8.704
  796POPC   D2A12676  32.684  43.728   8.515
  796POPC   C3A12677  32.678  43.849   8.130
  796POPC   C4A12678  32.832  43.657   7.767
  796POPC   C1B12679  33.310  43.839   8.649
  796POPC   C2B12680  33.212  43.821   8.200
  796POPC   C3B12681  33.329  43.635   7.812
  796POPC   C4B12682  33.270  43.599   7.373
  797POPC   NC312683   4.107  34.933   9.457
  797POPC   PO412684   4.666  35.248   9.650
  797POPC   GL112685   4.434  35.323   9.242
  797POPC   GL212686   4.297  35.647   9.166
  797POPC   C1A12687   4.244  35.272   8.816
  797POPC   D2A12688   4.412  35.064   8.447
  797POPC   C3A12689   4.207  35.192   8.077
  797POPC   C4A12690   4.408  35.150   7.741
  797POPC   C1B12691   4.204  35.772   8.742
  797POPC   C2B12692   4.372  35.592   8.378
  797POPC   C3B12693   4.254  35.684   7.944
  797POPC   C4B12694   3.867  35.524   7.813
  798POPC   NC312695  11.036  35.562   9.398
  798POPC   PO412696  11.464  35.081   9.643
  798POPC   GL112697  11.460  35.107   9.181
  798POPC   GL212698  11.235  35.288   9.018
  798POPC   C1A12699  11.532  34.891   8.758
  798POPC   D2A12700  11.663  35.061   8.361
  798POPC   C3A12701  11.497  34.993   7.987
  798POPC   C4A12702  11.268  35.286   7.743
  798POPC   C1B12703  11.286  35.325   8.616
  798POPC   C2B12704  11.287  35.418   8.232
  798POPC   C3B12705  11.090  35.689   7.985
  798POPC   C4B12706  11.218  35.755   7.561
  799POPC   NC312707  38.409  22.274   9.674
  799POPC   PO412708  38.290  21.570   9.687
  799POPC   GL112709  38.492  21.917   9.323
  799POPC   GL212710  38.311  22.226   9.195
  799POPC   C1A12711  38.698  22.077   8.868
  799POPC   D2A12712  38.633  22.009   8.394
  799POPC   C3A12713  38.241  22.032   8.076
  799POPC   C4A12714  38.493  21.985   7.729
  799POPC   C1B12715  38.366  22.437   8.840
  799POPC   C2B12716  38.256  22.347   8.465
  799POPC   C3B12717  38.491  22.475   8.122
  799POPC   C4B12718  38.410  22.496   7.718
  800POPC   NC312719  35.624  25.990   9.644
  800POPC   PO412720  36.188  26.192   9.486
  800POPC   GL112721  35.954  25.919   9.248
  800POPC   GL212722  36.219  25.821   9.067
  800POPC   C1A12723  35.820  26.000   8.832
  800POPC   D2A12724  35.853  26.311   8.486
  800POPC   C3A12725  36.008  26.158   8.094
  800POPC   C4A12726  36.157  25.877   7.771
  800POPC   C1B12727  36.319  26.012   8.660
  800POPC   C2B12728  36.312  25.779   8.272
  800POPC   C3B12729  36.600  25.671   7.942
  800POPC   C4B12730  36.671  25.869   7.544
  801POPC   NC312731  32.923   9.614   9.497
  801POPC   PO412732  32.815  10.236   9.478
  801POPC   GL112733  32.839   9.979   9.152
  801POPC   GL212734  33.152   9.853   9.103
  801POPC   C1A12735  32.658   9.709   8.870
  801POPC   D2A12736  32.882   9.752   8.512
  801POPC   C3A12737  32.766   9.662   8.096
  801POPC   C4A12738  32.679   9.618   7.682
  801POPC   C1B12739  33.097   9.435   8.873
  801POPC   C2B12740  33.194   9.347   8.464
  801POPC   C3B12741  33.270   9.682   8.177
  801POPC   C4B12742  33.188   9.562   7.770
  802POPC   NC312743  20.078   5.432   9.540
  802POPC   PO412744  19.395   5.180   9.556
  802POPC   GL112745  19.627   5.221   9.129
  802POPC   GL212746  19.980   5.147   9.126
  802POPC   C1A12747  19.678   5.134   8.670
  802POPC   D2A12748  19.685   4.780   8.346
  802POPC   C3A12749  19.676   4.942   7.924
  802POPC   C4A12750  19.687   5.348   7.771
  802POPC   C1B12751  20.069   4.846   8.804
  802POPC   C2B12752  20.173   4.995   8.450
  802POPC   C3B12753  20.048   5.246   8.135
  802POPC   C4B12754  20.144   5.119   7.715
  803POPC   NC312755  10.012   7.770   9.416
  803POPC   PO412756  10.661   7.504   9.529
  803POPC   GL112757  10.523   7.594   9.134
  803POPC   GL212758  10.831   7.787   9.109
  803POPC   C1A12759  10.243   7.638   8.724
  803POPC   D2A12760  10.173   7.802   8.264
  803POPC   C3A12761  10.369   7.516   7.918
  803POPC   C4A12762  10.265   7.225   7.559
  803POPC   C1B12763  10.793   7.509   8.718
  803POPC   C2B12764  10.862   7.259   8.357
  803POPC   C3B12765  10.891   7.408   7.936
  803POPC   C4B12766  10.716   7.468   7.514
  804POPC   NC312767  14.164  42.980   9.419
  804POPC   PO412768  14.349  42.333   9.409
  804POPC   GL112769  14.339  42.459   9.051
  804POPC   GL212770  14.566  42.730   9.100
  804POPC   C1A12771  14.342  42.198   8.693
  804POPC   D2A12772  14.574  41.993   8.365
  804POPC   C3A12773  14.338  42.134   8.031
  804POPC   C4A12774  14.102  41.930   7.718
  804POPC   C1B12775  14.487  42.759   8.680
  804POPC   C2B12776  14.450  42.561   8.301
  804POPC   C3B12777  14.577  42.663   7.893
  804POPC   C4B12778  14.978  42.634   7.696
  805POPC   NC312779  44.211  36.517   9.527
  805POPC   PO412780  44.821  36.886   9.489
  805POPC   GL112781  44.631  37.005   9.134
  805POPC   GL212782  44.480  36.685   9.111
  805POPC   C1A12783  44.761  36.903   8.717
  805POPC   D2A12784  44.608  36.795   8.318
  805POPC   C3A12785  44.876  36.984   8.035
  805POPC   C4A12786  44.945  37.104   7.620
  805POPC   C1B12787  44.267  36.798   8.723
  805POPC   C2B12788  44.172  36.502   8.392
  805POPC   C3B12789  44.386  36.444   8.001
  805POPC   C4B12790  44.430  36.800   7.801
  806POPC   NC312791  14.980  11.667   9.425
  806POPC   PO412792  15.306  11.057   9.665
  806POPC   GL112793  15.256  11.262   9.256
  806POPC   GL212794  15.474  11.568   9.169
  806POPC   C1A12795  15.229  11.219   8.823
  806POPC   D2A12796  15.130  11.092   8.403
  806POPC   C3A12797  15.109  11.329   8.052
  806POPC   C4A12798  14.905  11.440   7.704
  806POPC   C1B12799  15.620  11.547   8.725
  806POPC   C2B12800  15.426  11.640   8.302
  806POPC   C3B12801  15.373  11.702   7.837
  806POPC   C4B12802  15.681  11.633   7.508
  807POPC   NC312803  18.802   8.830   9.614
  807POPC   PO412804  19.436   9.114   9.703
  807POPC   GL112805  19.216   8.834   9.323
  807POPC   GL212806  18.906   9.051   9.158
  807POPC   C1A12807  19.223   8.746   8.844
  807POPC   D2A12808  19.133   9.019   8.461
  807POPC   C3A12809  19.255   9.042   8.025
  807POPC   C4A12810  18.979   9.079   7.668
  807POPC   C1B12811  18.723   8.903   8.759
  807POPC   C2B12812  18.594   8.804   8.318
  807POPC   C3B12813  18.565   8.828   7.855
  807POPC   C4B12814  18.496   8.790   7.394
  808POPC   NC312815  20.071  18.146   9.194
  808POPC   PO412816  20.624  18.266   9.599
  808POPC   GL112817  20.669  18.260   9.189
  808POPC   GL212818  20.557  17.948   9.123
  808POPC   C1A12819  20.779  18.482   8.809
  808POPC   D2A12820  20.520  18.510   8.456
  808POPC   C3A12821  20.622  18.474   8.045
  808POPC   C4A12822  20.374  18.447   7.675
  808POPC   C1B12823  20.748  17.982   8.733
  808POPC   C2B12824  20.569  18.010   8.323
  808POPC   C3B12825  20.413  17.994   7.914
  808POPC   C4B12826  20.583  17.987   7.489
  809POPC   NC312827  31.728   1.140   9.553
  809POPC   PO412828  30.999   1.144   9.638
  809POPC   GL112829  31.304   1.124   9.232
  809POPC   GL212830  31.501   1.402   9.190
  809POPC   C1A12831  31.505   1.102   8.786
  809POPC   D2A12832  31.565   1.042   8.312
  809POPC   C3A12833  31.327   1.295   8.009
  809POPC   C4A12834  31.190   1.259   7.553
  809POPC   C1B12835  31.809   1.615   8.914
  809POPC   C2B12836  31.721   1.486   8.515
  809POPC   C3B12837  31.811   1.463   8.096
  809POPC   C4B12838  31.677   1.412   7.680
  810POPC   NC312839  19.908  39.789   9.495
  810POPC   PO412840  19.976  40.460   9.539
  810POPC   GL112841  19.829  40.198   9.186
  810POPC   GL212842  19.505  40.074   9.263
  810POPC   C1A12843  19.989  40.117   8.773
  810POPC   D2A12844  20.200  40.060   8.375
  810POPC   C3A12845  20.064  40.230   7.992
  810POPC   C4A12846  20.137  40.045   7.597
  810POPC   C1B12847  19.486  39.979   8.812
  810POPC   C2B12848  19.673  40.059   8.384
  810POPC   C3B12849  19.697  39.887   7.992
  810POPC   C4B12850  19.537  39.900   7.585
  811POPC   NC312851  26.993  30.013   9.496
  811POPC   PO412852  26.315  29.835   9.492
  811POPC   GL112853  26.515  30.007   9.120
  811POPC   GL212854  26.748  29.734   9.092
  811POPC   C1A12855  26.568  30.177   8.665
  811POPC   D2A12856  26.566  30.211   8.199
  811POPC   C3A12857  26.859  30.001   7.925
  811POPC   C4A12858  27.122  30.115   7.591
  811POPC   C1B12859  26.447  29.676   8.714
  811POPC   C2B12860  26.560  29.726   8.326
  811POPC   C3B12861  26.562  29.540   7.948
  811POPC   C4B12862  26.419  29.858   7.729
  812POPC   NC312863  17.072  17.305   9.680
  812POPC   PO412864  16.401  17.394   9.463
  812POPC   GL112865  16.654  17.582   9.130
  812POPC   GL212866  16.834  17.903   9.107
  812POPC   C1A12867  16.623  17.685   8.701
  812POPC   D2A12868  16.451  17.455   8.392
  812POPC   C3A12869  16.626  17.517   8.045
  812POPC   C4A12870  16.486  17.263   7.722
  812POPC   C1B12871  17.085  17.939   8.718
  812POPC   C2B12872  16.951  17.908   8.310
  812POPC   C3B12873  17.000  17.873   7.889
  812POPC   C4B12874  16.708  17.731   7.602
  813POPC   NC312875   1.548  27.349   9.472
  813POPC   PO412876   0.936  27.625   9.447
  813POPC   GL112877   1.211  27.541   9.103
  813POPC   GL212878   1.475  27.781   9.191
  813POPC   C1A12879   1.193  27.555   8.646
  813POPC   D2A12880   0.883  27.561   8.303
  813POPC   C3A12881   1.150  27.579   7.982
  813POPC   C4A12882   1.486  27.402   7.764
  813POPC   C1B12883   1.493  27.968   8.793
  813POPC   C2B12884   1.647  27.814   8.418
  813POPC   C3B12885   1.604  27.874   8.002
  813POPC   C4B12886   1.340  27.940   7.686
  814POPC   NC312887  28.009  18.884   9.795
  814POPC   PO412888  28.558  19.066   9.502
  814POPC   GL112889  28.452  19.275   9.165
  814POPC   GL212890  28.147  19.106   9.140
  814POPC   C1A12891  28.492  19.408   8.752
  814POPC   D2A12892  28.719  19.307   8.370
  814POPC   C3A12893  28.461  19.247   8.017
  814POPC   C4A12894  28.371  19.226   7.584
  814POPC   C1B12895  28.308  18.931   8.727
  814POPC   C2B12896  28.447  18.811   8.305
  814POPC   C3B12897  28.282  18.773   7.870
  814POPC   C4B12898  28.295  18.752   7.406
  815POPC   NC312899  34.895   4.240   9.533
  815POPC   PO412900  34.251   3.979   9.484
  815POPC   GL112901  34.256   4.084   9.092
  815POPC   GL212902  34.562   4.259   9.104
  815POPC   C1A12903  34.324   4.100   8.656
  815POPC   D2A12904  34.647   4.108   8.381
  815POPC   C3A12905  34.419   4.161   8.042
  815POPC   C4A12906  34.640   4.144   7.682
  815POPC   C1B12907  34.656   4.492   8.723
  815POPC   C2B12908  34.657   4.671   8.288
  815POPC   C3B12909  34.579   4.639   7.857
  815POPC   C4B12910  34.914   4.599   7.595
  816POPC   NC312911   9.198   3.908   9.499
  816POPC   PO412912   9.764   4.265   9.494
  816POPC   GL112913   9.653   4.190   9.049
  816POPC   GL212914   9.832   4.475   8.926
  816POPC   C1A12915   9.673   4.206   8.547
  816POPC   D2A12916   9.724   4.610   8.271
  816POPC   C3A12917   9.672   4.559   7.841
  816POPC   C4A12918   9.625   4.150   7.691
  816POPC   C1B12919  10.252   4.408   8.700
  816POPC   C2B12920  10.348   4.158   8.347
  816POPC   C3B12921  10.046   4.171   8.017
  816POPC   C4B12922  10.093   4.361   7.622
  817POPC   NC312923  16.916  19.149   9.549
  817POPC   PO412924  16.332  19.060   9.263
  817POPC   GL112925  16.715  18.888   9.133
  817POPC   GL212926  17.002  19.110   9.053
  817POPC   C1A12927  16.722  18.776   8.715
  817POPC   D2A12928  17.006  18.849   8.408
  817POPC   C3A12929  16.838  18.845   8.001
  817POPC   C4A12930  16.483  18.693   7.816
  817POPC   C1B12931  16.692  19.279   8.782
  817POPC   C2B12932  16.461  19.152   8.415
  817POPC   C3B12933  16.550  19.273   8.008
  817POPC   C4B12934  16.888  19.317   7.747
  818POPC   NC312935  42.754  35.390   9.499
  818POPC   PO412936  43.251  35.780   9.301
  818POPC   GL112937  43.140  35.362   9.126
  818POPC   GL212938  43.432  35.158   9.121
  818POPC   C1A12939  43.094  35.302   8.684
  818POPC   D2A12940  43.152  35.647   8.374
  818POPC   C3A12941  43.192  35.481   7.972
  818POPC   C4A12942  42.977  35.234   7.699
  818POPC   C1B12943  43.458  34.903   8.748
  818POPC   C2B12944  43.244  34.789   8.365
  818POPC   C3B12945  43.318  34.909   7.925
  818POPC   C4B12946  43.328  34.982   7.463
  819POPC   NC312947  30.526   1.026   9.591
  819POPC   PO412948  30.891   1.409   9.160
  819POPC   GL112949  30.598   1.164   9.040
  819POPC   GL212950  30.716   0.871   9.116
  819POPC   C1A12951  30.644   1.087   8.608
  819POPC   D2A12952  30.974   1.250   8.357
  819POPC   C3A12953  30.842   1.455   7.959
  819POPC   C4A12954  30.523   1.259   7.697
  819POPC   C1B12955  31.060   0.840   8.781
  819POPC   C2B12956  31.130   0.771   8.322
  819POPC   C3B12957  30.990   0.904   7.893
  819POPC   C4B12958  31.097   0.772   7.447
  820POPC   NC312959  16.267   3.849   9.790
  820POPC   PO412960  15.834   3.524   9.565
  820POPC   GL112961  16.206   3.464   9.221
  820POPC   GL212962  16.150   3.166   9.017
  820POPC   C1A12963  16.326   3.536   8.727
  820POPC   D2A12964  16.083   3.406   8.324
  820POPC   C3A12965  15.976   3.651   7.922
  820POPC   C4A12966  15.731   4.026   7.757
  820POPC   C1B12967  15.840   3.098   8.714
  820POPC   C2B12968  15.773   2.985   8.294
  820POPC   C3B12969  15.719   3.190   7.897
  820POPC   C4B12970  15.582   3.042   7.505
  821POPC   NC312971  34.290  25.376   9.411
  821POPC   PO412972  34.877  25.054   9.596
  821POPC   GL112973  34.707  25.193   9.164
  821POPC   GL212974  34.714  25.544   9.082
  821POPC   C1A12975  34.348  25.120   8.834
  821POPC   D2A12976  34.217  25.021   8.405
  821POPC   C3A12977  34.530  25.095   8.090
  821POPC   C4A12978  34.591  25.221   7.683
  821POPC   C1B12979  34.698  25.405   8.644
  821POPC   C2B12980  34.630  25.588   8.243
  821POPC   C3B12981  34.726  25.706   7.826
  821POPC   C4B12982  34.400  25.709   7.490
  822POPC   NC312983   6.233   9.528   9.464
  822POPC   PO412984   5.604   9.690   9.347
  822POPC   GL112985   5.922   9.634   9.068
  822POPC   GL212986   6.261   9.846   9.077
  822POPC   C1A12987   5.741   9.581   8.679
  822POPC   D2A12988   5.647   9.871   8.382
  822POPC   C3A12989   5.794   9.721   8.022
  822POPC   C4A12990   5.750   9.865   7.640
  822POPC   C1B12991   6.233   9.725   8.656
  822POPC   C2B12992   6.196   9.950   8.266
  822POPC   C3B12993   6.272   9.822   7.842
  822POPC   C4B12994   6.203  10.037   7.462
  823POPC   NC312995  25.141  20.274   9.611
  823POPC   PO412996  25.606  19.847   9.407
  823POPC   GL112997  25.362  19.833   9.061
  823POPC   GL212998  25.060  19.969   9.202
  823POPC   C1A12999  25.378  19.681   8.641
  823POPC   D2A13000  25.525  19.857   8.260
  823POPC   C3A13001  25.215  19.802   7.977
  823POPC   C4A13002  25.303  19.558   7.676
  823POPC   C1B13003  24.964  20.127   8.814
  823POPC   C2B13004  24.956  19.983   8.394
  823POPC   C3B13005  24.894  20.205   7.992
  823POPC   C4B13006  25.064  20.229   7.577
  824POPC   NC313007  27.359  19.521   9.603
  824POPC   PO413008  27.834  19.964   9.445
  824POPC   GL113009  27.582  19.762   9.165
  824POPC   GL213010  27.239  19.854   9.212
  824POPC   C1A13011  27.574  19.589   8.752
  824POPC   D2A13012  27.686  19.588   8.317
  824POPC   C3A13013  27.688  19.881   7.962
  824POPC   C4A13014  27.656  19.608   7.603
  824POPC   C1B13015  27.069  19.648   8.819
  824POPC   C2B13016  27.162  19.723   8.401
  824POPC   C3B13017  27.226  19.676   7.985
  824POPC   C4B13018  27.253  19.886   7.598
  825POPC   NC313019  28.151  16.748   9.710
  825POPC   PO413020  28.486  16.168   9.617
  825POPC   GL113021  28.579  16.509   9.237
  825POPC   GL213022  28.358  16.476   8.933
  825POPC   C1A13023  28.710  16.823   8.862
  825POPC   D2A13024  28.310  16.901   8.591
  825POPC   C3A13025  28.337  16.834   8.137
  825POPC   C4A13026  28.456  16.675   7.737
  825POPC   C1B13027  28.125  16.338   8.609
  825POPC   C2B13028  28.004  16.446   8.233
  825POPC   C3B13029  28.115  16.286   7.849
  825POPC   C4B13030  28.210  16.373   7.413
  826POPC   NC313031  41.863   5.722   9.512
  826POPC   PO413032  41.239   5.883   9.535
  826POPC   GL113033  41.482   5.845   9.183
  826POPC   GL213034  41.366   6.101   8.997
  826POPC   C1A13035  41.623   5.666   8.816
  826POPC   D2A13036  41.487   5.773   8.406
  826POPC   C3A13037  41.555   5.544   8.019
  826POPC   C4A13038  41.573   5.697   7.588
  826POPC   C1B13039  41.734   6.155   8.783
  826POPC   C2B13040  41.893   6.092   8.379
  826POPC   C3B13041  41.672   6.073   7.998
  826POPC   C4B13042  41.859   6.115   7.614
  827POPC   NC313043  21.652   7.234   9.771
  827POPC   PO413044  21.151   6.739   9.480
  827POPC   GL113045  21.096   6.762   9.083
  827POPC   GL213046  21.450   6.657   9.021
  827POPC   C1A13047  21.064   6.699   8.676
  827POPC   D2A13048  21.396   6.616   8.405
  827POPC   C3A13049  21.239   6.735   8.029
  827POPC   C4A13050  21.361   6.593   7.648
  827POPC   C1B13051  21.724   6.889   8.727
  827POPC   C2B13052  21.658   7.077   8.337
  827POPC   C3B13053  21.730   6.865   7.962
  827POPC   C4B13054  21.750   6.910   7.526
  828POPC   NC313055   2.738   9.542   9.557
  828POPC   PO413056   2.518  10.131   9.287
  828POPC   GL113057   2.768   9.776   9.071
  828POPC   GL213058   2.794   9.395   9.087
  828POPC   C1A13059   2.578   9.640   8.673
  828POPC   D2A13060   2.494   9.740   8.227
  828POPC   C3A13061   2.901   9.833   8.029
  828POPC   C4A13062   3.095  10.080   7.721
  828POPC   C1B13063   3.019   9.359   8.737
  828POPC   C2B13064   2.957   9.369   8.306
  828POPC   C3B13065   2.756   9.339   7.909
  828POPC   C4B13066   2.900   9.601   7.546
  829POPC   NC313067  13.684  11.755   9.541
  829POPC   PO413068  13.815  12.391   9.739
  829POPC   GL113069  13.677  12.181   9.271
  829POPC   GL213070  13.494  11.868   9.098
  829POPC   C1A13071  13.559  12.254   8.790
  829POPC   D2A13072  13.549  12.096   8.354
  829POPC   C3A13073  13.458  12.353   7.971
  829POPC   C4A13074  13.607  12.163   7.580
  829POPC   C1B13075  13.832  11.728   8.815
  829POPC   C2B13076  13.929  11.732   8.354
  829POPC   C3B13077  13.648  11.719   8.000
  829POPC   C4B13078  13.881  11.739   7.657
  830POPC   NC313079  35.914  32.085   9.601
  830POPC   PO413080  36.432  32.488   9.487
  830POPC   GL113081  36.265  32.332   9.138
  830POPC   GL213082  36.312  32.015   9.205
  830POPC   C1A13083  36.077  32.473   8.738
  830POPC   D2A13084  35.819  32.588   8.404
  830POPC   C3A13085  36.046  32.423   8.077
  830POPC   C4A13086  35.875  32.279   7.738
  830POPC   C1B13087  35.905  32.042   8.934
  830POPC   C2B13088  35.721  32.088   8.497
  830POPC   C3B13089  35.844  31.907   8.083
  830POPC   C4B13090  36.281  31.988   7.872
  831POPC   NC313091   6.333  10.057   9.828
  831POPC   PO413092   6.657   9.570   9.615
  831POPC   GL113093   6.686   9.513   9.172
  831POPC   GL213094   6.988   9.370   9.047
  831POPC   C1A13095   6.747   9.786   8.810
  831POPC   D2A13096   6.660   9.741   8.374
  831POPC   C3A13097   6.711  10.083   8.095
  831POPC   C4A13098   6.691  10.064   7.656
  831POPC   C1B13099   6.840   9.284   8.645
  831POPC   C2B13100   6.901   9.319   8.208
  831POPC   C3B13101   6.753   9.567   7.885
  831POPC   C4B13102   7.017   9.703   7.578
  832POPC   NC313103   2.947  30.374   9.544
  832POPC   PO413104   2.394  30.631   9.497
  832POPC   GL113105   2.698  30.737   9.148
  832POPC   GL213106   2.995  30.572   9.092
  832POPC   C1A13107   2.743  30.904   8.747
  832POPC   D2A13108   2.670  30.676   8.360
  832POPC   C3A13109   2.926  30.818   8.040
  832POPC   C4A13110   2.845  30.832   7.621
  832POPC   C1B13111   2.854  30.375   8.740
  832POPC   C2B13112   3.011  30.139   8.415
  832POPC   C3B13113   2.980  30.313   8.040
  832POPC   C4B13114   2.824  30.262   7.657
  833POPC   NC313115  28.027  33.296   9.374
  833POPC   PO413116  28.389  33.767   9.696
  833POPC   GL113117  28.450  33.823   9.247
  833POPC   GL213118  28.443  33.503   9.158
  833POPC   C1A13119  28.367  33.917   8.789
  833POPC   D2A13120  28.407  33.710   8.341
  833POPC   C3A13121  28.224  33.928   7.975
  833POPC   C4A13122  28.295  34.131   7.573
  833POPC   C1B13123  28.322  33.395   8.745
  833POPC   C2B13124  28.105  33.266   8.395
  833POPC   C3B13125  28.009  33.470   8.062
  833POPC   C4B13126  28.219  33.485   7.704
  834POPC   NC313127  28.045  44.470   9.217
  834POPC   PO413128  28.337  44.985   9.503
  834POPC   GL113129  28.471  44.806   9.114
  834POPC   GL213130  28.747  44.504   9.117
  834POPC   C1A13131  28.343   0.023   8.676
  834POPC   D2A13132  28.178  44.943   8.235
  834POPC   C3A13133  28.171  44.560   7.996
  834POPC   C4A13134  28.168  44.487   7.535
  834POPC   C1B13135  28.699  44.663   8.701
  834POPC   C2B13136  28.697  44.879   8.300
  834POPC   C3B13137  28.617  44.780   7.889
  834POPC   C4B13138  28.647  44.400   7.653
  835POPC   NC313139  36.961  16.483   9.475
  835POPC   PO413140  36.631  17.124   9.556
  835POPC   GL113141  36.612  16.941   9.117
  835POPC   GL213142  36.949  16.803   9.055
  835POPC   C1A13143  36.710  17.002   8.660
  835POPC   D2A13144  37.063  16.840   8.405
  835POPC   C3A13145  36.972  16.640   8.041
  835POPC   C4A13146  37.138  16.664   7.659
  835POPC   C1B13147  36.830  16.504   8.692
  835POPC   C2B13148  36.578  16.458   8.337
  835POPC   C3B13149  36.497  16.406   7.906
  835POPC   C4B13150  36.691  16.483   7.482
  836POPC   NC313151  27.893  32.462   9.815
  836POPC   PO413152  27.432  32.058   9.458
  836POPC   GL113153  27.656  32.186   9.143
  836POPC   GL213154  27.976  32.249   9.218
  836POPC   C1A13155  27.838  32.076   8.770
  836POPC   D2A13156  27.593  32.270   8.475
  836POPC   C3A13157  27.711  32.125   8.082
  836POPC   C4A13158  27.502  32.074   7.697
  836POPC   C1B13159  27.814  32.579   8.852
  836POPC   C2B13160  27.786  32.762   8.425
  836POPC   C3B13161  27.820  32.624   7.997
  836POPC   C4B13162  27.793  32.465   7.582
  837POPC   NC313163   3.115  39.362   9.370
  837POPC   PO413164   2.580  38.955   9.513
  837POPC   GL113165   2.681  39.127   9.157
  837POPC   GL213166   2.976  38.892   9.140
  837POPC   C1A13167   2.474  39.316   8.801
  837POPC   D2A13168   2.604  39.533   8.422
  837POPC   C3A13169   2.601  39.261   8.104
  837POPC   C4A13170   2.579  39.312   7.694
  837POPC   C1B13171   3.146  38.801   8.732
  837POPC   C2B13172   2.965  38.955   8.334
  837POPC   C3B13173   3.047  39.085   7.908
  837POPC   C4B13174   2.881  38.958   7.486
  838POPC   NC313175  19.639   0.347   9.402
  838POPC   PO413176  20.258   0.471   9.669
  838POPC   GL113177  20.190   0.383   9.133
  838POPC   GL213178  20.131   0.056   9.004
  838POPC   C1A13179  20.013   0.459   8.684
  838POPC   D2A13180  19.567   0.412   8.459
  838POPC   C3A13181  19.517   0.344   8.003
  838POPC   C4A13182  19.741   0.465   7.605
  838POPC   C1B13183  19.829  44.993   8.686
  838POPC   C2B13184  19.969  44.888   8.276
  838POPC   C3B13185  19.930   0.035   7.844
  838POPC   C4B13186  19.787  44.996   7.405
  839POPC   NC313187  30.506  37.186   9.397
  839POPC   PO413188  31.029  36.752   9.428
  839POPC   GL113189  30.712  36.793   9.153
  839POPC   GL213190  30.925  36.739   8.917
  839POPC   C1A13191  30.542  37.007   8.769
  839POPC   D2A13192  30.544  36.777   8.390
  839POPC   C3A13193  30.788  36.858   8.062
  839POPC   C4A13194  30.519  36.996   7.759
  839POPC   C1B13195  30.531  36.474   8.793
  839POPC   C2B13196  30.332  36.313   8.430
  839POPC   C3B13197  30.404  36.465   7.989
  839POPC   C4B13198  30.732  36.542   7.678
  840POPC   NC313199   8.608  29.645   9.393
  840POPC   PO413200   9.177  30.019   9.534
  840POPC   GL113201   9.082  29.718   9.195
  840POPC   GL213202   8.841  29.921   9.043
  840POPC   C1A13203   8.890  29.472   8.823
  840POPC   D2A13204   8.727  29.500   8.403
  840POPC   C3A13205   8.943  29.709   8.109
  840POPC   C4A13206   9.042  29.656   7.707
  840POPC   C1B13207   8.994  29.929   8.631
  840POPC   C2B13208   9.261  30.051   8.330
  840POPC   C3B13209   9.002  30.234   8.029
  840POPC   C4B13210   8.760  30.069   7.735
  841POPC   NC313211  37.217  19.843   9.447
  841POPC   PO413212  36.715  19.480   9.305
  841POPC   GL113213  36.854  19.778   9.044
  841POPC   GL213214  37.176  19.663   8.973
  841POPC   C1A13215  36.630  19.972   8.688
  841POPC   D2A13216  36.491  20.221   8.330
  841POPC   C3A13217  36.610  20.033   7.910
  841POPC   C4A13218  36.850  19.846   7.519
  841POPC   C1B13219  37.145  20.002   8.701
  841POPC   C2B13220  36.982  20.036   8.303
  841POPC   C3B13221  37.140  19.991   7.903
  841POPC   C4B13222  37.228  19.603   7.733
  842POPC   NC313223  44.140  16.139   9.571
  842POPC   PO413224  43.860  15.540   9.568
  842POPC   GL113225  44.130  15.743   9.260
  842POPC   GL213226  43.841  15.940   9.162
  842POPC   C1A13227  44.275  16.027   8.912
  842POPC   D2A13228  44.162  16.025   8.490
  842POPC   C3A13229  44.253  15.951   8.071
  842POPC   C4A13230  43.900  15.873   7.776
  842POPC   C1B13231  43.714  16.039   8.723
  842POPC   C2B13232  43.712  15.842   8.270
  842POPC   C3B13233  43.574  15.517   7.907
  842POPC   C4B13234  43.561  15.619   7.415
  843POPC   NC313235   0.041  28.666   9.893
  843POPC   PO413236   0.378  28.188   9.550
  843POPC   GL113237   0.367  28.348   9.153
  843POPC   GL213238   0.722  28.456   9.181
  843POPC   C1A13239   0.166  28.467   8.754
  843POPC   D2A13240  44.999  28.541   8.349
  843POPC   C3A13241   0.277  28.541   7.995
  843POPC   C4A13242   0.484  28.251   7.679
  843POPC   C1B13243   0.686  28.432   8.744
  843POPC   C2B13244   0.640  28.298   8.324
  843POPC   C3B13245   0.770  28.564   7.999
  843POPC   C4B13246   0.904  28.532   7.620
  844POPC   NC313247   7.679  12.009   9.506
  844POPC   PO413248   8.364  11.796   9.605
  844POPC   GL113249   8.145  11.939   9.247
  844POPC   GL213250   8.062  12.297   9.246
  844POPC   C1A13251   8.186  11.833   8.823
  844POPC   D2A13252   8.184  12.062   8.442
  844POPC   C3A13253   8.352  11.912   8.087
  844POPC   C4A13254   8.403  11.658   7.739
  844POPC   C1B13255   8.326  12.385   8.856
  844POPC   C2B13256   8.321  12.571   8.421
  844POPC   C3B13257   8.382  12.424   7.982
  844POPC   C4B13258   8.235  12.139   7.648
  845POPC   NC313259   6.285  41.701   9.417
  845POPC   PO413260   7.002  41.832   9.495
  845POPC   GL113261   6.715  41.683   9.148
  845POPC   GL213262   6.402  41.797   8.942
  845POPC   C1A13263   6.859  41.682   8.734
  845POPC   D2A13264   6.857  41.965   8.399
  845POPC   C3A13265   6.997  41.760   8.062
  845POPC   C4A13266   6.760  41.688   7.702
  845POPC   C1B13267   6.398  41.424   8.753
  845POPC   C2B13268   6.531  41.534   8.370
  845POPC   C3B13269   6.366  41.652   8.032
  845POPC   C4B13270   6.346  41.367   7.699
  846POPC   NC313271  24.757  26.253   9.401
  846POPC   PO413272  25.364  25.897   9.526
  846POPC   GL113273  25.379  26.040   9.101
  846POPC   GL213274  25.419  26.408   9.122
  846POPC   C1A13275  25.151  26.083   8.695
  846POPC   D2A13276  24.947  25.847   8.335
  846POPC   C3A13277  25.090  26.033   7.956
  846POPC   C4A13278  25.332  25.875   7.616
  846POPC   C1B13279  25.619  26.350   8.729
  846POPC   C2B13280  25.488  26.240   8.299
  846POPC   C3B13281  25.582  26.244   7.862
  846POPC   C4B13282  25.380  26.383   7.463
  847POPC   NC313283  14.479  41.879   9.414
  847POPC   PO413284  14.622  41.169   9.492
  847POPC   GL113285  14.504  41.419   9.163
  847POPC   GL213286  14.196  41.357   9.111
  847POPC   C1A13287  14.447  41.664   8.780
  847POPC   D2A13288  14.320  41.525   8.370
  847POPC   C3A13289  14.662  41.472   8.100
  847POPC   C4A13290  14.615  41.773   7.791
  847POPC   C1B13291  14.081  41.248   8.725
  847POPC   C2B13292  14.092  41.057   8.324
  847POPC   C3B13293  14.209  41.200   7.923
  847POPC   C4B13294  14.488  41.308   7.606
  848POPC   NC313295  32.909  37.006   9.562
  848POPC   PO413296  33.422  37.462   9.524
  848POPC   GL113297  33.217  37.165   9.147
  848POPC   GL213298  32.905  36.934   9.078
  848POPC   C1A13299  33.284  36.929   8.714
  848POPC   D2A13300  33.384  36.967   8.288
  848POPC   C3A13301  33.143  36.792   7.971
  848POPC   C4A13302  33.018  36.958   7.565
  848POPC   C1B13303  32.876  36.637   8.768
  848POPC   C2B13304  32.630  36.512   8.442
  848POPC   C3B13305  32.840  36.376   8.114
  848POPC   C4B13306  32.847  36.461   7.704
  849POPC   NC313307  23.182  16.275   9.503
  849POPC   PO413308  22.848  15.711   9.620
  849POPC   GL113309  23.098  15.692   9.217
  849POPC   GL213310  23.231  16.027   9.066
  849POPC   C1A13311  23.129  15.634   8.772
  849POPC   D2A13312  22.915  15.812   8.418
  849POPC   C3A13313  23.135  15.918   8.048
  849POPC   C4A13314  22.966  15.799   7.660
  849POPC   C1B13315  23.071  16.316   8.737
  849POPC   C2B13316  23.054  16.430   8.295
  849POPC   C3B13317  23.118  16.413   7.874
  849POPC   C4B13318  22.731  16.230   7.771
  850POPC   NC313319  33.443  30.518   9.447
  850POPC   PO413320  34.023  30.963   9.518
  850POPC   GL113321  33.770  30.876   9.159
  850POPC   GL213322  33.451  31.042   9.108
  850POPC   C1A13323  33.891  30.779   8.740
  850POPC   D2A13324  34.088  30.863   8.359
  850POPC   C3A13325  34.075  30.590   8.007
  850POPC   C4A13326  34.072  30.815   7.619
  850POPC   C1B13327  33.393  30.684   8.823
  850POPC   C2B13328  33.579  30.434   8.493
  850POPC   C3B13329  33.496  30.534   8.072
  850POPC   C4B13330  33.627  30.549   7.649
  851POPC   NC313331  30.128  37.552   9.831
  851POPC   PO413332  30.065  37.016   9.418
  851POPC   GL113333  29.985  36.680   9.124
  851POPC   GL213334  29.648  36.620   9.226
  851POPC   C1A13335  30.097  36.767   8.711
  851POPC   D2A13336  30.150  37.131   8.452
  851POPC   C3A13337  30.130  36.940   8.072
  851POPC   C4A13338  30.022  37.118   7.691
  851POPC   C1B13339  29.523  36.647   8.778
  851POPC   C2B13340  29.704  36.867   8.386
  851POPC   C3B13341  29.633  36.839   7.923
  851POPC   C4B13342  29.551  36.508   7.597
  852POPC   NC313343  22.769  35.085   9.615
  852POPC   PO413344  23.096  35.663   9.527
  852POPC   GL113345  23.086  35.484   9.139
  852POPC   GL213346  22.777  35.274   9.138
  852POPC   C1A13347  22.960  35.516   8.710
  852POPC   D2A13348  22.798  35.435   8.307
  852POPC   C3A13349  23.032  35.376   7.923
  852POPC   C4A13350  22.856  35.373   7.493
  852POPC   C1B13351  23.097  35.039   8.875
  852POPC   C2B13352  23.008  34.961   8.426
  852POPC   C3B13353  22.620  34.987   8.138
  852POPC   C4B13354  22.591  34.944   7.698
  853POPC   NC313355   3.064  27.200   9.351
  853POPC   PO413356   2.924  27.857   9.369
  853POPC   GL113357   2.733  27.738   9.010
  853POPC   GL213358   2.703  27.367   9.016
  853POPC   C1A13359   2.553  27.941   8.671
  853POPC   D2A13360   2.859  27.923   8.352
  853POPC   C3A13361   2.701  27.712   7.940
  853POPC   C4A13362   2.672  27.768   7.492
  853POPC   C1B13363   2.977  27.352   8.712
  853POPC   C2B13364   2.903  27.429   8.313
  853POPC   C3B13365   2.984  27.252   7.951
  853POPC   C4B13366   2.927  27.276   7.551
  854POPC   NC313367  30.287  14.919   9.426
  854POPC   PO413368  29.715  15.187   9.567
  854POPC   GL113369  29.898  15.109   9.168
  854POPC   GL213370  29.925  14.749   9.067
  854POPC   C1A13371  29.855  15.222   8.773
  854POPC   D2A13372  29.594  15.058   8.437
  854POPC   C3A13373  29.724  15.181   8.026
  854POPC   C4A13374  29.704  14.987   7.663
  854POPC   C1B13375  30.105  14.792   8.646
  854POPC   C2B13376  30.141  15.121   8.341
  854POPC   C3B13377  30.263  15.120   7.928
  854POPC   C4B13378  30.134  15.364   7.611
  855POPC   NC313379  31.743   5.844   9.722
  855POPC   PO413380  31.471   6.428   9.594
  855POPC   GL113381  31.342   6.156   9.228
  855POPC   GL213382  31.558   5.840   9.168
  855POPC   C1A13383  31.471   6.152   8.792
  855POPC   D2A13384  31.691   6.071   8.406
  855POPC   C3A13385  31.375   6.000   8.107
  855POPC   C4A13386  31.384   6.132   7.716
  855POPC   C1B13387  31.595   5.660   8.713
  855POPC   C2B13388  31.503   5.366   8.376
  855POPC   C3B13389  31.317   5.490   7.973
  855POPC   C4B13390  31.438   5.646   7.560
  856POPC   NC313391  32.872  27.627   9.540
  856POPC   PO413392  33.321  27.207   9.603
  856POPC   GL113393  33.250  27.501   9.207
  856POPC   GL213394  33.025  27.795   9.113
  856POPC   C1A13395  33.351  27.692   8.749
  856POPC   D2A13396  33.431  27.563   8.312
  856POPC   C3A13397  33.242  27.678   7.935
  856POPC   C4A13398  33.128  27.936   7.595
  856POPC   C1B13399  32.857  27.620   8.784
  856POPC   C2B13400  32.952  27.795   8.368
  856POPC   C3B13401  32.746  27.753   7.963
  856POPC   C4B13402  32.505  27.671   7.593
  857POPC   NC313403   0.277  41.589   9.460
  857POPC   PO413404   0.868  41.707   9.507
  857POPC   GL113405   0.710  41.870   9.116
  857POPC   GL213406   0.366  41.852   9.020
  857POPC   C1A13407   0.685  41.607   8.729
  857POPC   D2A13408   0.804  41.354   8.400
  857POPC   C3A13409   0.615  41.521   8.013
  857POPC   C4A13410   0.656  41.464   7.579
  857POPC   C1B13411   0.198  41.477   8.834
  857POPC   C2B13412   0.294  41.458   8.421
  857POPC   C3B13413   0.103  41.635   8.099
  857POPC   C4B13414   0.136  41.453   7.725
  858POPC   NC313415  26.781  22.297   9.416
  858POPC   PO413416  26.773  21.683   9.658
  858POPC   GL113417  26.662  21.847   9.237
  858POPC   GL213418  27.012  21.928   9.135
  858POPC   C1A13419  26.672  22.073   8.807
  858POPC   D2A13420  26.795  22.464   8.574
  858POPC   C3A13421  26.788  22.427   8.109
  858POPC   C4A13422  26.814  22.420   7.674
  858POPC   C1B13423  27.196  22.153   8.784
  858POPC   C2B13424  27.053  22.082   8.376
  858POPC   C3B13425  27.165  22.123   7.941
  858POPC   C4B13426  27.070  21.834   7.608
  859POPC   NC313427  35.422  10.722   9.800
  859POPC   PO413428  35.111  10.293   9.444
  859POPC   GL113429  35.346  10.457   9.122
  859POPC   GL213430  35.131  10.699   9.001
  859POPC   C1A13431  35.439  10.473   8.674
  859POPC   D2A13432  35.318  10.630   8.278
  859POPC   C3A13433  35.644  10.526   7.982
  859POPC   C4A13434  35.718  10.150   7.746
  859POPC   C1B13435  34.933  10.454   8.720
  859POPC   C2B13436  35.041  10.147   8.445
  859POPC   C3B13437  34.994  10.248   8.048
  859POPC   C4B13438  35.227  10.342   7.718
  860POPC   NC313439  38.254  10.121   9.418
  860POPC   PO413440  38.839  10.368   9.691
  860POPC   GL113441  38.633  10.360   9.210
  860POPC   GL213442  38.582  10.004   9.062
  860POPC   C1A13443  38.462  10.495   8.809
  860POPC   D2A13444  38.364  10.671   8.407
  860POPC   C3A13445  38.316  10.494   7.980
  860POPC   C4A13446  38.431  10.606   7.551
  860POPC   C1B13447  38.768  10.107   8.694
  860POPC   C2B13448  38.569  10.191   8.341
  860POPC   C3B13449  38.783  10.297   7.982
  860POPC   C4B13450  38.668  10.161   7.568
  861POPC   NC313451   3.603  15.232   9.663
  861POPC   PO413452   2.981  15.108   9.796
  861POPC   GL113453   3.267  15.127   9.311
  861POPC   GL213454   3.668  14.925   9.275
  861POPC   C1A13455   3.463  15.121   8.863
  861POPC   D2A13456   3.560  15.408   8.504
  861POPC   C3A13457   3.604  15.232   8.070
  861POPC   C4A13458   3.279  15.148   7.744
  861POPC   C1B13459   3.917  14.904   8.907
  861POPC   C2B13460   3.772  14.919   8.475
  861POPC   C3B13461   3.825  14.699   8.097
  861POPC   C4B13462   3.699  14.839   7.692
  862POPC   NC313463   4.780  25.365   9.431
  862POPC   PO413464   5.289  25.725   9.570
  862POPC   GL113465   5.371  25.567   9.144
  862POPC   GL213466   5.056  25.392   9.012
  862POPC   C1A13467   5.333  25.701   8.707
  862POPC   D2A13468   5.190  25.387   8.456
  862POPC   C3A13469   5.205  25.302   8.022
  862POPC   C4A13470   5.356  25.523   7.677
  862POPC   C1B13471   4.772  25.207   8.678
  862POPC   C2B13472   4.727  25.438   8.259
  862POPC   C3B13473   4.716  25.336   7.824
  862POPC   C4B13474   4.545  24.954   7.667
  863POPC   NC313475   1.697  31.046   9.420
  863POPC   PO413476   1.733  30.361   9.509
  863POPC   GL113477   1.990  30.521   9.142
  863POPC   GL213478   2.194  30.865   9.109
  863POPC   C1A13479   1.856  30.739   8.751
  863POPC   D2A13480   1.726  31.014   8.427
  863POPC   C3A13481   1.863  30.828   8.066
  863POPC   C4A13482   1.851  30.585   7.716
  863POPC   C1B13483   2.338  30.578   8.765
  863POPC   C2B13484   2.158  30.491   8.363
  863POPC   C3B13485   2.332  30.572   7.966
  863POPC   C4B13486   2.397  30.517   7.538
  864POPC   NC313487  16.597  42.187   9.561
  864POPC   PO413488  17.013  41.612   9.358
  864POPC   GL113489  17.080  41.952   9.112
  864POPC   GL213490  16.901  42.252   9.149
  864POPC   C1A13491  16.933  42.027   8.705
  864POPC   D2A13492  16.913  42.373   8.470
  864POPC   C3A13493  16.777  42.130   8.140
  864POPC   C4A13494  16.904  42.159   7.735
  864POPC   C1B13495  16.540  42.376   8.867
  864POPC   C2B13496  16.420  42.535   8.444
  864POPC   C3B13497  16.522  42.551   8.003
  864POPC   C4B13498  16.377  42.202   7.761
  865POPC   NC313499  27.936  23.337   9.382
  865POPC   PO413500  27.352  23.482   9.458
  865POPC   GL113501  27.506  23.654   9.108
  865POPC   GL213502  27.844  23.733   9.090
  865POPC   C1A13503  27.476  23.893   8.715
  865POPC   D2A13504  27.234  24.037   8.388
  865POPC   C3A13505  27.349  23.824   8.046
  865POPC   C4A13506  27.699  23.922   7.797
  865POPC   C1B13507  27.742  23.440   8.727
  865POPC   C2B13508  27.540  23.481   8.359
  865POPC   C3B13509  27.594  23.355   7.962
  865POPC   C4B13510  27.925  23.478   7.703
  866POPC   NC313511  31.149  29.852   9.441
  866POPC   PO413512  31.704  30.218   9.547
  866POPC   GL113513  31.681  30.070   9.124
  866POPC   GL213514  31.559  29.754   9.112
  866POPC   C1A13515  31.838  30.081   8.717
  866POPC   D2A13516  31.660  30.244   8.340
  866POPC   C3A13517  31.365  29.988   8.125
  866POPC   C4A13518  31.167  30.078   7.757
  866POPC   C1B13519  31.344  29.892   8.713
  866POPC   C2B13520  31.062  29.690   8.399
  866POPC   C3B13521  31.037  29.602   7.925
  866POPC   C4B13522  31.314  29.644   7.549
  867POPC   NC313523  11.862  35.368   9.805
  867POPC   PO413524  12.335  34.953   9.717
  867POPC   GL113525  12.250  35.208   9.337
  867POPC   GL213526  11.908  35.323   9.286
  867POPC   C1A13527  12.258  35.320   8.856
  867POPC   D2A13528  12.461  35.559   8.480
  867POPC   C3A13529  12.317  35.489   8.080
  867POPC   C4A13530  12.164  35.463   7.687
  867POPC   C1B13531  11.757  35.352   8.841
  867POPC   C2B13532  11.932  35.476   8.430
  867POPC   C3B13533  11.763  35.431   8.000
  867POPC   C4B13534  11.740  35.228   7.555
  868POPC   NC313535  43.377  17.513   9.466
  868POPC   PO413536  43.991  17.347   9.426
  868POPC   GL113537  43.791  17.500   9.061
  868POPC   GL213538  43.577  17.237   9.106
  868POPC   C1A13539  43.838  17.405   8.611
  868POPC   D2A13540  44.170  17.308   8.290
  868POPC   C3A13541  44.068  17.529   7.920
  868POPC   C4A13542  43.672  17.746   7.870
  868POPC   C1B13543  43.411  17.093   8.780
  868POPC   C2B13544  43.380  17.196   8.403
  868POPC   C3B13545  43.659  17.285   8.112
  868POPC   C4B13546  43.698  17.273   7.664
  869POPC   NC313547  12.959  42.502   9.439
  869POPC   PO413548  13.032  41.822   9.514
  869POPC   GL113549  12.912  42.005   9.140
  869POPC   GL213550  13.154  42.250   9.038
  869POPC   C1A13551  12.613  42.157   8.840
  869POPC   D2A13552  12.414  42.301   8.471
  869POPC   C3A13553  12.670  42.470   8.165
  869POPC   C4A13554  12.703  42.274   7.765
  869POPC   C1B13555  13.155  42.048   8.674
  869POPC   C2B13556  13.006  42.099   8.287
  869POPC   C3B13557  13.168  42.359   7.959
  869POPC   C4B13558  13.199  42.142   7.608
  870POPC   NC313559  21.907  20.821   9.431
  870POPC   PO413560  22.322  20.336   9.526
  870POPC   GL113561  22.293  20.642   9.151
  870POPC   GL213562  22.330  21.030   9.223
  870POPC   C1A13563  22.233  20.578   8.713
  870POPC   D2A13564  22.433  20.309   8.413
  870POPC   C3A13565  22.149  20.358   8.062
  870POPC   C4A13566  22.252  20.459   7.653
  870POPC   C1B13567  22.317  21.098   8.791
  870POPC   C2B13568  22.377  20.973   8.370
  870POPC   C3B13569  22.183  20.918   7.957
  870POPC   C4B13570  22.097  20.931   7.508
  871POPC   NC313571  39.434   8.865   9.578
  871POPC   PO413572  39.035   9.348   9.590
  871POPC   GL113573  39.217   9.129   9.150
  871POPC   GL213574  39.277   8.752   9.084
  871POPC   C1A13575  39.532   8.995   8.730
  871POPC   D2A13576  39.643   8.903   8.316
  871POPC   C3A13577  39.332   8.968   8.015
  871POPC   C4A13578  39.264   8.704   7.653
  871POPC   C1B13579  39.039   8.943   8.712
  871POPC   C2B13580  38.867   8.965   8.299
  871POPC   C3B13581  38.850   8.897   7.853
  871POPC   C4B13582  38.809   8.764   7.414
  872POPC   NC313583  10.130  37.066   9.512
  872POPC   PO413584   9.559  36.859   9.625
  872POPC   GL113585   9.745  36.860   9.229
  872POPC   GL213586   9.741  37.200   9.125
  872POPC   C1A13587   9.802  36.786   8.799
  872POPC   D2A13588   9.889  36.586   8.431
  872POPC   C3A13589   9.774  36.847   8.105
  872POPC   C4A13590   9.645  36.816   7.695
  872POPC   C1B13591   9.406  37.117   8.814
  872POPC   C2B13592   9.481  37.190   8.389
  872POPC   C3B13593   9.324  37.124   7.982
  872POPC   C4B13594   9.428  37.305   7.621
  873POPC   NC313595  31.599  10.667   9.587
  873POPC   PO413596  30.997  10.667   9.290
  873POPC   GL113597  31.284  10.536   9.032
  873POPC   GL213598  31.616  10.493   9.118
  873POPC   C1A13599  31.296  10.450   8.621
  873POPC   D2A13600  31.243  10.119   8.368
  873POPC   C3A13601  31.411  10.223   7.969
  873POPC   C4A13602  31.304  10.465   7.618
  873POPC   C1B13603  31.684  10.737   8.762
  873POPC   C2B13604  31.725  10.548   8.351
  873POPC   C3B13605  31.676  10.654   7.927
  873POPC   C4B13606  31.793  10.365   7.579
  874POPC   NC313607  11.686  32.588  10.000
  874POPC   PO413608  12.009  32.236   9.593
  874POPC   GL113609  12.137  32.321   9.164
  874POPC   GL213610  12.495  32.418   9.165
  874POPC   C1A13611  12.011  32.226   8.737
  874POPC   D2A13612  11.909  32.401   8.343
  874POPC   C3A13613  11.808  32.100   8.036
  874POPC   C4A13614  11.894  32.141   7.610
  874POPC   C1B13615  12.454  32.518   8.756
  874POPC   C2B13616  12.424  32.311   8.388
  874POPC   C3B13617  12.314  32.202   8.002
  874POPC   C4B13618  12.455  32.338   7.623
  875POPC   NC313619  19.317  16.591   9.326
  875POPC   PO413620  20.014  16.849   9.443
  875POPC   GL113621  19.740  16.834   9.114
  875POPC   GL213622  20.047  16.687   8.955
  875POPC   C1A13623  19.576  16.694   8.696
  875POPC   D2A13624  19.761  16.534   8.269
  875POPC   C3A13625  19.494  16.465   7.865
  875POPC   C4A13626  19.533  16.624   7.404
  875POPC   C1B13627  19.925  17.079   8.707
  875POPC   C2B13628  19.829  17.224   8.295
  875POPC   C3B13629  19.680  16.945   7.967
  875POPC   C4B13630  19.931  16.673   7.714
  876POPC   NC313631  31.235  16.457   9.383
  876POPC   PO413632  31.673  16.788   9.753
  876POPC   GL113633  31.622  16.767   9.248
  876POPC   GL213634  31.323  16.809   9.026
  876POPC   C1A13635  31.703  16.510   8.837
  876POPC   D2A13636  31.801  16.572   8.370
  876POPC   C3A13637  31.579  16.550   7.946
  876POPC   C4A13638  31.816  16.421   7.545
  876POPC   C1B13639  31.460  16.892   8.599
  876POPC   C2B13640  31.229  16.923   8.230
  876POPC   C3B13641  31.156  16.886   7.783
  876POPC   C4B13642  31.322  16.886   7.385
  877POPC   NC313643   5.223  16.888   9.561
  877POPC   PO413644   4.832  16.446   9.334
  877POPC   GL113645   4.983  16.836   9.114
  877POPC   GL213646   5.384  16.885   9.074
  877POPC   C1A13647   5.060  16.901   8.673
  877POPC   D2A13648   5.065  16.957   8.251
  877POPC   C3A13649   5.043  16.553   8.059
  877POPC   C4A13650   5.126  16.269   7.713
  877POPC   C1B13651   5.490  17.165   8.703
  877POPC   C2B13652   5.545  17.143   8.240
  877POPC   C3B13653   5.433  16.899   7.903
  877POPC   C4B13654   5.389  16.938   7.499
  878POPC   NC313655  25.727  18.711   9.494
  878POPC   PO413656  26.258  18.331   9.667
  878POPC   GL113657  26.141  18.447   9.248
  878POPC   GL213658  25.844  18.433   9.090
  878POPC   C1A13659  26.242  18.228   8.838
  878POPC   D2A13660  26.064  18.067   8.455
  878POPC   C3A13661  25.914  18.415   8.246
  878POPC   C4A13662  25.973  18.499   7.834
  878POPC   C1B13663  25.673  18.290   8.718
  878POPC   C2B13664  25.510  18.098   8.328
  878POPC   C3B13665  25.698  18.046   7.920
  878POPC   C4B13666  25.816  18.193   7.459
  879POPC   NC313667  39.781  27.483   9.824
  879POPC   PO413668  39.529  27.947   9.427
  879POPC   GL113669  39.313  27.755   9.080
  879POPC   GL213670  39.247  27.404   9.159
  879POPC   C1A13671  39.271  27.607   8.680
  879POPC   D2A13672  39.120  27.809   8.343
  879POPC   C3A13673  39.318  27.763   7.939
  879POPC   C4A13674  39.010  27.707   7.676
  879POPC   C1B13675  38.987  27.232   8.826
  879POPC   C2B13676  38.866  27.331   8.439
  879POPC   C3B13677  39.048  27.359   8.066
  879POPC   C4B13678  39.267  27.183   7.742
  880POPC   NC313679  42.568   3.967   9.440
  880POPC   PO413680  42.207   4.585   9.437
  880POPC   GL113681  42.503   4.611   9.100
  880POPC   GL213682  42.456   4.245   8.992
  880POPC   C1A13683  42.513   4.628   8.636
  880POPC   D2A13684  42.450   4.274   8.354
  880POPC   C3A13685  42.385   4.412   7.926
  880POPC   C4A13686  42.649   4.678   7.691
  880POPC   C1B13687  42.670   3.875   8.756
  880POPC   C2B13688  42.765   3.858   8.305
  880POPC   C3B13689  42.602   3.955   7.892
  880POPC   C4B13690  42.165   3.949   7.691
  881POPC   NC313691  24.723  24.263   9.577
  881POPC   PO413692  24.183  24.667   9.433
  881POPC   GL113693  24.263  24.364   9.113
  881POPC   GL213694  24.586  24.317   9.082
  881POPC   C1A13695  24.201  24.542   8.708
  881POPC   D2A13696  24.115  24.499   8.275
  881POPC   C3A13697  24.434  24.364   7.966
  881POPC   C4A13698  24.385  24.311   7.515
  881POPC   C1B13699  24.604  24.210   8.653
  881POPC   C2B13700  24.606  24.597   8.397
  881POPC   C3B13701  24.730  24.795   8.029
  881POPC   C4B13702  24.783  24.619   7.587
  882POPC   NC313703  37.455  25.893   9.470
  882POPC   PO413704  37.570  26.493   9.713
  882POPC   GL113705  37.675  26.272   9.245
  882POPC   GL213706  37.910  26.013   9.203
  882POPC   C1A13707  37.621  26.130   8.794
  882POPC   D2A13708  37.813  26.124   8.386
  882POPC   C3A13709  37.557  26.118   7.997
  882POPC   C4A13710  37.563  25.861   7.664
  882POPC   C1B13711  37.984  25.708   8.855
  882POPC   C2B13712  38.063  25.644   8.413
  882POPC   C3B13713  37.980  25.811   8.004
  882POPC   C4B13714  38.044  25.590   7.634
  883POPC   NC313715  17.331  32.551   9.410
  883POPC   PO413716  17.601  32.014   9.463
  883POPC   GL113717  17.547  32.219   9.070
  883POPC   GL213718  17.704  32.560   9.033
  883POPC   C1A13719  17.597  32.221   8.628
  883POPC   D2A13720  17.457  32.051   8.230
  883POPC   C3A13721  17.229  32.332   7.953
  883POPC   C4A13722  17.323  32.264   7.494
  883POPC   C1B13723  17.523  32.734   8.627
  883POPC   C2B13724  17.643  32.537   8.211
  883POPC   C3B13725  17.686  32.474   7.777
  883POPC   C4B13726  17.601  32.654   7.344
  884POPC   NC313727  15.453  16.650   9.499
  884POPC   PO413728  16.192  16.463   9.579
  884POPC   GL113729  16.060  16.599   9.153
  884POPC   GL213730  15.719  16.605   9.078
  884POPC   C1A13731  16.046  16.902   8.803
  884POPC   D2A13732  16.302  16.938   8.436
  884POPC   C3A13733  16.080  16.748   8.066
  884POPC   C4A13734  16.161  16.861   7.640
  884POPC   C1B13735  15.509  16.859   8.769
  884POPC   C2B13736  15.651  16.878   8.317
  884POPC   C3B13737  15.709  17.047   7.894
  884POPC   C4B13738  15.694  16.898   7.449
  885POPC   NC313739  17.990   0.322   9.329
  885POPC   PO413740  18.536   0.514   9.623
  885POPC   GL113741  18.430   0.597   9.202
  885POPC   GL213742  18.447   0.258   9.065
  885POPC   C1A13743  18.309   0.651   8.783
  885POPC   D2A13744  18.445   0.504   8.405
  885POPC   C3A13745  18.059   0.543   8.201
  885POPC   C4A13746  18.029   0.611   7.763
  885POPC   C1B13747  18.155   0.142   8.717
  885POPC   C2B13748  18.190   0.024   8.303
  885POPC   C3B13749  18.293   0.206   7.935
  885POPC   C4B13750  18.085   0.161   7.534
  886POPC   NC313751  39.516  26.527   9.953
  886POPC   PO413752  40.105  26.763   9.552
  886POPC   GL113753  40.181  26.803   9.115
  886POPC   GL213754  39.844  26.800   9.032
  886POPC   C1A13755  40.162  26.605   8.677
  886POPC   D2A13756  40.011  26.793   8.290
  886POPC   C3A13757  40.012  26.644   7.872
  886POPC   C4A13758  40.081  26.932   7.501
  886POPC   C1B13759  39.968  27.123   8.709
  886POPC   C2B13760  39.867  27.288   8.275
  886POPC   C3B13761  39.754  27.087   7.874
  886POPC   C4B13762  39.598  27.031   7.384
  887POPC   NC313763  21.056  36.391   9.437
  887POPC   PO413764  21.567  35.821   9.406
  887POPC   GL113765  21.483  36.071   9.077
  887POPC   GL213766  21.140  36.087   9.046
  887POPC   C1A13767  21.499  36.296   8.700
  887POPC   D2A13768  21.648  36.289   8.288
  887POPC   C3A13769  21.365  36.192   7.965
  887POPC   C4A13770  21.571  35.951   7.682
  887POPC   C1B13771  21.090  35.957   8.642
  887POPC   C2B13772  21.176  35.806   8.248
  887POPC   C3B13773  21.032  35.812   7.831
  887POPC   C4B13774  21.137  35.945   7.417
  888POPC   NC313775  21.708   5.363   9.486
  888POPC   PO413776  22.274   4.945   9.592
  888POPC   GL113777  22.134   5.087   9.222
  888POPC   GL213778  22.268   5.398   9.200
  888POPC   C1A13779  21.823   5.053   8.903
  888POPC   D2A13780  21.875   4.966   8.473
  888POPC   C3A13781  22.050   5.218   8.150
  888POPC   C4A13782  21.856   5.249   7.770
  888POPC   C1B13783  22.258   5.282   8.753
  888POPC   C2B13784  22.424   5.493   8.405
  888POPC   C3B13785  22.562   5.324   8.030
  888POPC   C4B13786  22.395   5.228   7.614
  889POPC   NC313787   1.109  40.913   9.443
  889POPC   PO413788   1.701  40.434   9.431
  889POPC   GL113789   1.384  40.627   9.131
  889POPC   GL213790   1.006  40.570   9.082
  889POPC   C1A13791   1.400  40.658   8.707
  889POPC   D2A13792   1.536  40.392   8.385
  889POPC   C3A13793   1.287  40.503   8.042
  889POPC   C4A13794   1.259  40.769   7.663
  889POPC   C1B13795   0.967  40.902   8.749
  889POPC   C2B13796   1.117  40.916   8.314
  889POPC   C3B13797   0.974  41.132   7.947
  889POPC   C4B13798   1.161  41.358   7.626
  890POPC   NC313799  33.548  27.580   9.719
  890POPC   PO413800  34.062  27.293   9.371
  890POPC   GL113801  33.763  27.478   9.114
  890POPC   GL213802  33.660  27.801   9.150
  890POPC   C1A13803  33.772  27.436   8.695
  890POPC   D2A13804  34.054  27.357   8.380
  890POPC   C3A13805  33.859  27.465   8.048
  890POPC   C4A13806  33.996  27.442   7.679
  890POPC   C1B13807  33.949  27.923   8.812
  890POPC   C2B13808  33.814  27.863   8.414
  890POPC   C3B13809  33.677  27.962   8.031
  890POPC   C4B13810  33.643  27.795   7.658
  891POPC   NC313811  32.546  36.491   9.312
  891POPC   PO413812  32.497  37.179   9.456
  891POPC   GL113813  32.327  36.970   9.160
  891POPC   GL213814  31.980  37.051   9.285
  891POPC   C1A13815  32.471  37.003   8.749
  891POPC   D2A13816  32.327  37.134   8.344
  891POPC   C3A13817  32.260  36.782   8.107
  891POPC   C4A13818  32.392  36.710   7.703
  891POPC   C1B13819  31.853  37.053   8.862
  891POPC   C2B13820  31.670  37.008   8.446
  891POPC   C3B13821  31.761  37.250   8.080
  891POPC   C4B13822  32.020  37.077   7.750
  892POPC   NC313823  34.703  42.921   9.545
  892POPC   PO413824  34.482  43.547   9.500
  892POPC   GL113825  34.672  43.289   9.164
  892POPC   GL213826  34.395  43.077   9.152
  892POPC   C1A13827  34.764  42.994   8.800
  892POPC   D2A13828  34.818  43.088   8.355
  892POPC   C3A13829  34.817  42.774   8.022
  892POPC   C4A13830  34.536  42.647   7.704
  892POPC   C1B13831  34.266  43.235   8.726
  892POPC   C2B13832  34.394  43.411   8.330
  892POPC   C3B13833  34.471  43.238   7.913
  892POPC   C4B13834  34.435  43.471   7.494
  893POPC   NC313835   0.158  35.419   9.431
  893POPC   PO413836   0.389  34.831   9.267
  893POPC   GL113837   0.597  35.154   9.018
  893POPC   GL213838   0.310  35.267   8.963
  893POPC   C1A13839   0.692  35.401   8.655
  893POPC   D2A13840   0.567  35.699   8.365
  893POPC   C3A13841   0.678  35.529   8.009
  893POPC   C4A13842   0.448  35.331   7.756
  893POPC   C1B13843   0.146  35.471   8.599
  893POPC   C2B13844   0.128  35.356   8.177
  893POPC   C3B13845  44.989  35.159   7.791
  893POPC   C4B13846   0.075  35.463   7.434
  894POPC   NC313847  36.450  18.411   9.242
  894POPC   PO413848  35.889  18.279   9.468
  894POPC   GL113849  35.989  18.255   9.022
  894POPC   GL213850  35.650  18.268   8.968
  894POPC   C1A13851  36.270  18.350   8.612
  894POPC   D2A13852  36.434  18.316   8.172
  894POPC   C3A13853  36.293  18.550   7.805
  894POPC   C4A13854  36.158  18.354   7.376
  894POPC   C1B13855  35.777  18.178   8.550
  894POPC   C2B13856  35.928  17.901   8.247
  894POPC   C3B13857  36.015  18.127   7.894
  894POPC   C4B13858  35.728  18.452   7.744
  895POPC   NC313859  44.355  38.223   9.491
  895POPC   PO413860  44.941  38.423   9.355
  895POPC   GL113861  44.709  38.180   9.026
  895POPC   GL213862  44.344  38.106   9.010
  895POPC   C1A13863  44.661  38.202   8.577
  895POPC   D2A13864  44.478  38.552   8.329
  895POPC   C3A13865  44.581  38.577   7.891
  895POPC   C4A13866  44.761  38.889   7.626
  895POPC   C1B13867  44.154  38.082   8.614
  895POPC   C2B13868  44.282  38.099   8.211
  895POPC   C3B13869  44.098  38.131   7.813
  895POPC   C4B13870  43.870  38.458   7.570
  896POPC   NC313871  30.412  13.300   9.499
  896POPC   PO413872  30.691  13.971   9.389
  896POPC   GL113873  30.603  13.852   8.990
  896POPC   GL213874  30.578  13.530   9.076
  896POPC   C1A13875  30.705  13.778   8.575
  896POPC   D2A13876  30.976  13.572   8.285
  896POPC   C3A13877  30.774  13.605   7.885
  896POPC   C4A13878  30.550  13.998   7.748
  896POPC   C1B13879  30.333  13.458   8.719
  896POPC   C2B13880  30.464  13.399   8.305
  896POPC   C3B13881  30.448  13.110   7.978
  896POPC   C4B13882  30.694  13.129   7.621
  897POPC   NC313883  35.995  18.673   9.751
  897POPC   PO413884  35.909  19.088   9.253
  897POPC   GL113885  36.039  19.078   8.918
  897POPC   GL213886  36.156  18.736   8.990
  897POPC   C1A13887  35.959  19.161   8.493
  897POPC   D2A13888  36.334  19.200   8.264
  897POPC   C3A13889  36.349  19.076   7.863
  897POPC   C4A13890  36.090  19.319   7.582
  897POPC   C1B13891  35.874  18.669   8.664
  897POPC   C2B13892  36.035  18.688   8.259
  897POPC   C3B13893  35.890  18.904   7.917
  897POPC   C4B13894  36.024  18.826   7.487
  898POPC   NC313895  39.665  11.227   9.406
  898POPC   PO413896  40.260  11.009   9.297
  898POPC   GL113897  40.309  11.420   9.095
  898POPC   GL213898  39.957  11.519   9.073
  898POPC   C1A13899  40.315  11.543   8.664
  898POPC   D2A13900  40.244  11.229   8.307
  898POPC   C3A13901  40.179  11.392   7.901
  898POPC   C4A13902  40.170  11.268   7.468
  898POPC   C1B13903  39.929  11.194   8.734
  898POPC   C2B13904  39.718  11.183   8.322
  898POPC   C3B13905  39.655  11.197   7.874
  898POPC   C4B13906  39.772  11.557   7.648
  899POPC   NC313907   6.898  13.600   9.526
  899POPC   PO413908   6.305  13.954   9.550
  899POPC   GL113909   6.552  13.826   9.186
  899POPC   GL213910   6.930  13.972   9.181
  899POPC   C1A13911   6.486  13.529   8.836
  899POPC   D2A13912   6.694  13.385   8.445
  899POPC   C3A13913   6.507  13.443   8.037
  899POPC   C4A13914   6.455  13.649   7.649
  899POPC   C1B13915   6.950  13.761   8.782
  899POPC   C2B13916   7.088  13.701   8.347
  899POPC   C3B13917   6.918  13.781   7.927
  899POPC   C4B13918   6.862  13.877   7.451
  900POPC   NC313919  38.750  30.579   9.622
  900POPC   PO413920  38.077  30.396   9.454
  900POPC   GL113921  38.437  30.614   9.192
  900POPC   GL213922  38.764  30.422   9.156
  900POPC   C1A13923  38.665  30.789   8.821
  900POPC   D2A13924  38.607  30.974   8.422
  900POPC   C3A13925  38.468  30.764   8.054
  900POPC   C4A13926  38.657  30.719   7.677
  900POPC   C1B13927  38.834  30.256   8.776
  900POPC   C2B13928  38.710  30.454   8.390
  900POPC   C3B13929  38.755  30.290   7.995
  900POPC   C4B13930  38.740  30.227   7.549
  901POPC   NC313931  38.187  27.273   9.415
  901POPC   PO413932  38.547  26.685   9.622
  901POPC   GL113933  38.657  26.650   9.221
  901POPC   GL213934  38.416  26.885   9.121
  901POPC   C1A13935  38.575  26.560   8.782
  901POPC   D2A13936  38.538  26.873   8.491
  901POPC   C3A13937  38.531  26.652   8.149
  901POPC   C4A13938  38.436  26.697   7.766
  901POPC   C1B13939  38.122  26.926   8.798
  901POPC   C2B13940  37.919  27.024   8.440
  901POPC   C3B13941  38.127  26.957   8.098
  901POPC   C4B13942  38.159  27.128   7.709
  902POPC   NC313943   6.195  39.653   9.558
  902POPC   PO413944   6.465  40.254   9.348
  902POPC   GL113945   6.548  39.997   8.998
  902POPC   GL213946   6.414  39.698   9.108
  902POPC   C1A13947   6.553  40.016   8.580
  902POPC   D2A13948   6.365  39.939   8.211
  902POPC   C3A13949   6.667  39.972   7.880
  902POPC   C4A13950   7.089  39.897   7.815
  902POPC   C1B13951   6.487  39.516   8.725
  902POPC   C2B13952   6.296  39.408   8.345
  902POPC   C3B13953   6.414  39.507   7.962
  902POPC   C4B13954   6.519  39.607   7.545
  903POPC   NC313955  16.485  10.452   9.446
  903POPC   PO413956  17.077  10.253   9.409
  903POPC   GL113957  16.874  10.481   9.102
  903POPC   GL213958  16.615  10.681   9.018
  903POPC   C1A13959  16.850  10.267   8.740
  903POPC   D2A13960  16.544  10.227   8.422
  903POPC   C3A13961  16.702  10.207   7.997
  903POPC   C4A13962  17.088  10.369   7.786
  903POPC   C1B13963  16.636  10.711   8.622
  903POPC   C2B13964  16.891  10.624   8.281
  903POPC   C3B13965  16.701  10.703   7.897
  903POPC   C4B13966  16.876  10.776   7.503
  904POPC   NC313967   3.262  29.633   9.456
  904POPC   PO413968   2.669  30.013   9.558
  904POPC   GL113969   2.809  30.074   9.155
  904POPC   GL213970   2.514  30.271   9.108
  904POPC   C1A13971   2.919  29.831   8.801
  904POPC   D2A13972   2.738  29.678   8.411
  904POPC   C3A13973   2.834  29.825   8.019
  904POPC   C4A13974   2.773  29.736   7.618
  904POPC   C1B13975   2.468  30.057   8.691
  904POPC   C2B13976   2.517  30.153   8.236
  904POPC   C3B13977   2.383  30.060   7.788
  904POPC   C4B13978   2.451  30.075   7.295
  905POPC   NC313979   6.888   5.053   9.499
  905POPC   PO413980   7.587   5.105   9.534
  905POPC   GL113981   7.551   5.220   9.099
  905POPC   GL213982   7.225   5.104   9.061
  905POPC   C1A13983   7.701   5.248   8.689
  905POPC   D2A13984   7.639   5.023   8.301
  905POPC   C3A13985   7.637   5.170   7.866
  905POPC   C4A13986   7.657   4.935   7.445
  905POPC   C1B13987   7.195   5.219   8.600
  905POPC   C2B13988   7.135   4.999   8.171
  905POPC   C3B13989   7.198   4.985   7.694
  905POPC   C4B13990   6.893   5.038   7.342
  906POPC   NC313991  40.092  13.927   9.393
  906POPC   PO413992  39.924  14.663   9.490
  906POPC   GL113993  40.169  14.654   9.139
  906POPC   GL213994  40.012  14.315   9.058
  906POPC   C1A13995  40.100  14.657   8.702
  906POPC   D2A13996  40.015  14.367   8.380
  906POPC   C3A13997  40.057  14.537   7.969
  906POPC   C4A13998  40.260  14.883   7.765
  906POPC   C1B13999  39.716  14.135   8.746
  906POPC   C2B14000  39.705  13.977   8.360
  906POPC   C3B14001  39.649  14.199   8.007
  906POPC   C4B14002  39.501  14.009   7.655
  907POPC   NC314003  41.898  32.461   9.533
  907POPC   PO414004  41.348  32.163   9.464
  907POPC   GL114005  41.622  32.214   9.166
  907POPC   GL214006  41.837  31.907   9.182
  907POPC   C1A14007  41.562  32.404   8.788
  907POPC   D2A14008  41.337  32.382   8.417
  907POPC   C3A14009  41.510  32.386   8.047
  907POPC   C4A14010  41.532  32.195   7.672
  907POPC   C1B14011  41.998  32.130   8.844
  907POPC   C2B14012  41.808  32.123   8.435
  907POPC   C3B14013  41.782  31.945   8.060
  907POPC   C4B14014  42.007  32.003   7.692
  908POPC   NC314015  20.256  33.974   9.550
  908POPC   PO414016  20.722  33.538   9.692
  908POPC   GL114017  20.680  33.763   9.280
  908POPC   GL214018  20.379  33.680   9.143
  908POPC   C1A14019  20.781  33.760   8.827
  908POPC   D2A14020  20.553  33.892   8.427
  908POPC   C3A14021  20.699  33.829   7.990
  908POPC   C4A14022  20.841  34.041   7.608
  908POPC   C1B14023  20.357  33.488   8.722
  908POPC   C2B14024  20.356  33.276   8.346
  908POPC   C3B14025  20.403  33.396   7.925
  908POPC   C4B14026  20.078  33.417   7.621
  909POPC   NC314027  37.038   5.699   9.546
  909POPC   PO414028  36.387   5.749   9.391
  909POPC   GL114029  36.761   5.904   9.121
  909POPC   GL214030  37.106   6.075   9.219
  909POPC   C1A14031  36.885   6.181   8.753
  909POPC   D2A14032  36.846   6.382   8.335
  909POPC   C3A14033  37.044   6.097   8.015
  909POPC   C4A14034  36.837   5.789   7.773
  909POPC   C1B14035  37.192   5.779   8.886
  909POPC   C2B14036  36.983   5.684   8.496
  909POPC   C3B14037  37.109   5.476   8.133
  909POPC   C4B14038  37.052   5.306   7.745
  910POPC   NC314039   4.180  11.555   9.453
  910POPC   PO414040   4.620  11.003   9.368
  910POPC   GL114041   4.292  11.178   9.070
  910POPC   GL214042   4.056  11.506   8.969
  910POPC   C1A14043   4.336  11.198   8.639
  910POPC   D2A14044   4.070  11.288   8.320
  910POPC   C3A14045   4.194  11.072   7.976
  910POPC   C4A14046   4.588  11.255   7.943
  910POPC   C1B14047   4.220  11.723   8.591
  910POPC   C2B14048   4.554  11.983   8.412
  910POPC   C3B14049   4.528  11.748   8.059
  910POPC   C4B14050   4.129  11.568   7.890
  911POPC   NC314051  11.811  40.095   9.509
  911POPC   PO414052  12.475  39.916   9.472
  911POPC   GL114053  12.120  39.867   9.161
  911POPC   GL214054  11.960  40.200   9.054
  911POPC   C1A14055  12.072  39.821   8.727
  911POPC   D2A14056  12.303  40.059   8.410
  911POPC   C3A14057  12.181  39.897   8.003
  911POPC   C4A14058  11.950  39.783   7.639
  911POPC   C1B14059  11.682  40.180   8.738
  911POPC   C2B14060  11.800  40.054   8.353
  911POPC   C3B14061  11.743  40.224   7.980
  911POPC   C4B14062  11.604  40.202   7.579
  912POPC   NC314063  17.218  42.790   9.505
  912POPC   PO414064  17.058  43.451   9.537
  912POPC   GL114065  17.164  43.358   9.150
  912POPC   GL214066  17.439  43.126   9.158
  912POPC   C1A14067  17.138  43.187   8.752
  912POPC   D2A14068  17.236  42.958   8.386
  912POPC   C3A14069  17.230  43.146   7.976
  912POPC   C4A14070  17.270  42.954   7.571
  912POPC   C1B14071  17.660  43.115   8.740
  912POPC   C2B14072  17.785  42.905   8.338
  912POPC   C3B14073  17.639  42.859   7.911
  912POPC   C4B14074  17.771  43.024   7.489
  913POPC   NC314075  43.372   9.179   9.446
  913POPC   PO414076  43.051   8.589   9.369
  913POPC   GL114077  42.848   8.708   9.002
  913POPC   GL214078  42.916   9.027   9.078
  913POPC   C1A14079  43.016   8.776   8.590
  913POPC   D2A14080  43.307   8.522   8.345
  913POPC   C3A14081  43.227   8.652   7.914
  913POPC   C4A14082  43.129   9.091   7.926
  913POPC   C1B14083  43.178   9.209   8.775
  913POPC   C2B14084  43.367   9.334   8.363
  913POPC   C3B14085  43.579   9.373   7.946
  913POPC   C4B14086  43.465   9.330   7.475
  914POPC   NC314087  15.536  26.953   9.360
  914POPC   PO414088  15.080  26.468   9.515
  914POPC   GL114089  15.062  26.757   9.187
  914POPC   GL214090  14.758  26.969   9.169
  914POPC   C1A14091  15.178  26.708   8.774
  914POPC   D2A14092  15.006  26.769   8.397
  914POPC   C3A14093  15.321  26.766   8.073
  914POPC   C4A14094  15.261  26.896   7.648
  914POPC   C1B14095  15.018  27.193   8.849
  914POPC   C2B14096  14.889  27.294   8.404
  914POPC   C3B14097  14.934  27.095   8.015
  914POPC   C4B14098  14.740  27.106   7.633
  915POPC   NC314099  43.779  27.115   9.725
  915POPC   PO414100  44.192  26.728   9.466
  915POPC   GL114101  43.832  26.850   9.164
  915POPC   GL214102  43.622  27.160   9.234
  915POPC   C1A14103  43.945  26.818   8.720
  915POPC   D2A14104  44.193  26.870   8.333
  915POPC   C3A14105  43.933  26.831   7.977
  915POPC   C4A14106  44.002  26.669   7.553
  915POPC   C1B14107  43.789  27.293   8.828
  915POPC   C2B14108  43.732  27.145   8.367
  915POPC   C3B14109  43.624  27.264   7.914
  915POPC   C4B14110  43.650  27.341   7.440
  916POPC   NC314111  43.685  35.860   9.449
  916POPC   PO414112  44.020  35.248   9.493
  916POPC   GL114113  43.918  35.344   9.101
  916POPC   GL214114  44.278  35.328   9.027
  916POPC   C1A14115  43.629  35.405   8.730
  916POPC   D2A14116  43.478  35.244   8.330
  916POPC   C3A14117  43.679  35.297   7.920
  916POPC   C4A14118  43.809  35.180   7.491
  916POPC   C1B14119  44.115  35.544   8.676
  916POPC   C2B14120  43.861  35.657   8.330
  916POPC   C3B14121  43.608  35.802   8.012
  916POPC   C4B14122  43.892  35.690   7.670
  917POPC   NC314123  16.808  27.365   9.512
  917POPC   PO414124  16.804  28.012   9.388
  917POPC   GL114125  16.577  27.736   9.129
  917POPC   GL214126  16.900  27.588   9.051
  917POPC   C1A14127  16.431  27.652   8.693
  917POPC   D2A14128  16.668  27.536   8.304
  917POPC   C3A14129  16.496  27.466   7.899
  917POPC   C4A14130  16.561  27.309   7.473
  917POPC   C1B14131  16.826  27.291   8.741
  917POPC   C2B14132  16.973  27.115   8.364
  917POPC   C3B14133  16.949  27.256   7.945
  917POPC   C4B14134  17.086  27.084   7.586
  918POPC   NC314135  12.233  30.889   9.581
  918POPC   PO414136  11.673  30.518   9.440
  918POPC   GL114137  11.948  30.530   9.101
  918POPC   GL214138  12.184  30.831   9.068
  918POPC   C1A14139  11.900  30.629   8.683
  918POPC   D2A14140  12.077  30.791   8.314
  918POPC   C3A14141  12.075  30.593   7.920
  918POPC   C4A14142  12.003  30.594   7.481
  918POPC   C1B14143  12.387  31.086   8.746
  918POPC   C2B14144  12.269  31.282   8.329
  918POPC   C3B14145  12.187  31.119   7.935
  918POPC   C4B14146  12.383  30.902   7.609
  919POPC   NC314147  32.887  14.645   9.332
  919POPC   PO414148  33.409  14.436   9.778
  919POPC   GL114149  33.345  14.302   9.301
  919POPC   GL214150  33.020  14.146   9.274
  919POPC   C1A14151  33.211  14.412   8.840
  919POPC   D2A14152  32.934  14.404   8.487
  919POPC   C3A14153  33.167  14.525   8.122
  919POPC   C4A14154  32.883  14.653   7.785
  919POPC   C1B14155  32.849  14.021   8.858
  919POPC   C2B14156  32.777  13.877   8.440
  919POPC   C3B14157  32.884  14.096   8.055
  919POPC   C4B14158  33.184  14.242   7.708
  920POPC   NC314159  34.104  35.563   9.494
  920POPC   PO414160  34.052  34.924   9.312
  920POPC   GL114161  33.932  35.249   9.078
  920POPC   GL214162  33.622  35.411   9.142
  920POPC   C1A14163  33.842  35.384   8.663
  920POPC   D2A14164  33.653  35.452   8.272
  920POPC   C3A14165  33.959  35.525   7.940
  920POPC   C4A14166  34.041  35.557   7.494
  920POPC   C1B14167  33.384  35.239   8.787
  920POPC   C2B14168  33.440  34.986   8.401
  920POPC   C3B14169  33.396  35.008   7.953
  920POPC   C4B14170  33.421  34.983   7.507
  921POPC   NC314171  20.365  43.913   9.608
  921POPC   PO414172  19.627  43.948   9.501
  921POPC   GL114173  19.785  43.965   9.116
  921POPC   GL214174  20.106  44.008   9.170
  921POPC   C1A14175  19.696  43.746   8.740
  921POPC   D2A14176  19.698  43.916   8.335
  921POPC   C3A14177  19.685  43.606   8.042
  921POPC   C4A14178  19.577  43.754   7.665
  921POPC   C1B14179  20.135  44.014   8.723
  921POPC   C2B14180  20.148  43.702   8.376
  921POPC   C3B14181  20.131  43.858   7.957
  921POPC   C4B14182  20.056  43.600   7.600
  922POPC   NC314183  25.944  27.954   9.835
  922POPC   PO414184  25.848  27.491   9.410
  922POPC   GL114185  26.043  27.600   9.084
  922POPC   GL214186  26.124  27.269   8.996
  922POPC   C1A14187  25.915  27.642   8.691
  922POPC   D2A14188  26.022  27.887   8.391
  922POPC   C3A14189  25.924  27.737   7.989
  922POPC   C4A14190  25.702  27.406   7.820
  922POPC   C1B14191  26.395  27.408   8.682
  922POPC   C2B14192  26.308  27.455   8.277
  922POPC   C3B14193  26.465  27.333   7.902
  922POPC   C4B14194  26.253  27.536   7.634
  923POPC   NC314195  38.650  38.226   9.562
  923POPC   PO414196  38.503  38.856   9.565
  923POPC   GL114197  38.496  38.596   9.219
  923POPC   GL214198  38.838  38.574   9.229
  923POPC   C1A14199  38.363  38.400   8.819
  923POPC   D2A14200  38.355  38.196   8.419
  923POPC   C3A14201  38.248  38.398   8.019
  923POPC   C4A14202  38.312  38.334   7.574
  923POPC   C1B14203  38.873  38.379   8.837
  923POPC   C2B14204  38.764  38.486   8.418
  923POPC   C3B14205  38.736  38.250   8.038
  923POPC   C4B14206  38.946  38.298   7.657
  924POPC   NC314207  30.804  42.616   9.359
  924POPC   PO414208  30.898  43.299   9.552
  924POPC   GL114209  30.717  43.202   9.162
  924POPC   GL214210  30.438  42.955   9.215
  924POPC   C1A14211  30.863  43.180   8.714
  924POPC   D2A14212  30.899  43.349   8.291
  924POPC   C3A14213  30.879  43.047   7.997
  924POPC   C4A14214  31.002  42.872   7.614
  924POPC   C1B14215  30.349  43.146   8.823
  924POPC   C2B14216  30.464  43.136   8.408
  924POPC   C3B14217  30.369  43.201   8.001
  924POPC   C4B14218  30.510  42.973   7.632
  925POPC   NC314219  20.027  22.599   9.439
  925POPC   PO414220  19.752  21.917   9.405
  925POPC   GL114221  19.602  22.069   9.030
  925POPC   GL214222  19.634  22.423   9.074
  925POPC   C1A14223  19.520  22.184   8.600
  925POPC   D2A14224  19.709  22.143   8.246
  925POPC   C3A14225  19.470  22.056   7.915
  925POPC   C4A14226  19.583  22.369   7.644
  925POPC   C1B14227  19.954  22.405   8.743
  925POPC   C2B14228  20.162  22.336   8.334
  925POPC   C3B14229  20.093  22.315   7.881
  925POPC   C4B14230  19.993  22.675   7.634
  926POPC   NC314231  28.723   2.431   9.413
  926POPC   PO414232  28.340   1.854   9.388
  926POPC   GL114233  28.468   1.911   9.027
  926POPC   GL214234  28.401   2.229   9.046
  926POPC   C1A14235  28.276   1.791   8.669
  926POPC   D2A14236  28.512   1.700   8.341
  926POPC   C3A14237  28.247   1.629   8.035
  926POPC   C4A14238  28.453   1.932   7.800
  926POPC   C1B14239  28.089   2.256   8.702
  926POPC   C2B14240  28.136   2.151   8.227
  926POPC   C3B14241  28.145   2.347   7.790
  926POPC   C4B14242  28.405   2.245   7.385
  927POPC   NC314243  27.132  12.409   9.941
  927POPC   PO414244  26.884  12.840   9.508
  927POPC   GL114245  26.942  13.012   9.157
  927POPC   GL214246  26.617  13.039   9.084
  927POPC   C1A14247  27.054  12.914   8.774
  927POPC   D2A14248  26.814  12.959   8.400
  927POPC   C3A14249  26.869  12.725   8.030
  927POPC   C4A14250  27.103  12.628   7.643
  927POPC   C1B14251  26.632  12.642   8.791
  927POPC   C2B14252  26.401  12.624   8.386
  927POPC   C3B14253  26.413  12.430   8.006
  927POPC   C4B14254  26.594  12.527   7.627
  928POPC   NC314255  27.336  30.888   9.496
  928POPC   PO414256  28.034  30.683   9.561
  928POPC   GL114257  27.703  30.609   9.233
  928POPC   GL214258  27.604  30.922   9.060
  928POPC   C1A14259  27.456  30.465   8.858
  928POPC   D2A14260  27.407  30.675   8.453
  928POPC   C3A14261  27.521  30.501   8.030
  928POPC   C4A14262  27.834  30.462   7.689
  928POPC   C1B14263  27.188  30.984   8.824
  928POPC   C2B14264  27.154  31.098   8.357
  928POPC   C3B14265  27.500  31.062   8.059
  928POPC   C4B14266  27.507  30.848   7.661
  929POPC   NC314267  23.159  15.265   9.512
  929POPC   PO414268  22.571  15.454   9.228
  929POPC   GL114269  22.866  15.219   8.986
  929POPC   GL214270  23.241  15.157   9.029
  929POPC   C1A14271  22.959  15.205   8.549
  929POPC   D2A14272  23.134  14.972   8.246
  929POPC   C3A14273  22.889  14.917   7.861
  929POPC   C4A14274  22.549  15.226   7.799
  929POPC   C1B14275  23.479  15.266   8.657
  929POPC   C2B14276  23.307  15.472   8.292
  929POPC   C3B14277  23.010  15.398   7.972
  929POPC   C4B14278  23.001  15.330   7.489
  930POPC   NC314279  16.732  41.241   9.265
  930POPC   PO414280  16.641  41.713   9.726
  930POPC   GL114281  16.536  41.829   9.225
  930POPC   GL214282  16.699  41.642   8.965
  930POPC   C1A14283  16.333  41.897   8.776
  930POPC   D2A14284  16.541  41.710   8.405
  930POPC   C3A14285  16.530  41.715   7.938
  930POPC   C4A14286  16.670  41.377   7.649
  930POPC   C1B14287  16.965  41.512   8.664
  930POPC   C2B14288  17.097  41.711   8.301
  930POPC   C3B14289  17.042  41.661   7.857
  930POPC   C4B14290  16.894  41.744   7.402
  931POPC   NC314291   4.714  44.257   9.550
  931POPC   PO414292   5.359  44.035   9.553
  931POPC   GL114293   5.099  44.022   9.202
  931POPC   GL214294   5.296  43.757   9.061
  931POPC   C1A14295   5.068  44.145   8.767
  931POPC   D2A14296   5.306  43.939   8.453
  931POPC   C3A14297   5.204  43.840   8.049
  931POPC   C4A14298   5.407  43.909   7.680
  931POPC   C1B14299   4.979  43.635   8.746
  931POPC   C2B14300   4.797  43.643   8.358
  931POPC   C3B14301   4.800  43.553   7.964
  931POPC   C4B14302   4.960  43.692   7.573
  932POPC   NC314303   2.974  42.250   9.559
  932POPC   PO414304   2.367  42.104   9.501
  932POPC   GL114305   2.621  42.348   9.127
  932POPC   GL214306   3.021  42.417   9.064
  932POPC   C1A14307   2.717  42.491   8.662
  932POPC   D2A14308   3.041  42.533   8.298
  932POPC   C3A14309   2.888  42.528   7.875
  932POPC   C4A14310   2.590  42.238   7.747
  932POPC   C1B14311   3.085  42.119   8.689
  932POPC   C2B14312   3.221  42.037   8.241
  932POPC   C3B14313   3.174  42.096   7.775
  932POPC   C4B14314   3.120  42.136   7.323
  933POPC   NC314315  26.173  25.354   9.509
  933POPC   PO414316  25.617  24.984   9.538
  933POPC   GL114317  25.872  25.083   9.189
  933POPC   GL214318  26.212  24.975   9.178
  933POPC   C1A14319  26.001  25.351   8.857
  933POPC   D2A14320  25.830  25.513   8.471
  933POPC   C3A14321  25.823  25.311   8.095
  933POPC   C4A14322  25.963  25.422   7.716
  933POPC   C1B14323  26.385  25.004   8.796
  933POPC   C2B14324  26.163  25.109   8.425
  933POPC   C3B14325  26.328  25.210   8.025
  933POPC   C4B14326  26.264  25.022   7.631
  934POPC   NC314327  10.051  27.411   9.386
  934POPC   PO414328   9.623  27.873   9.524
  934POPC   GL114329   9.468  27.842   9.149
  934POPC   GL214330   9.590  27.498   9.114
  934POPC   C1A14331   9.661  27.930   8.766
  934POPC   D2A14332   9.789  27.667   8.411
  934POPC   C3A14333   9.845  27.792   7.975
  934POPC   C4A14334   9.752  27.729   7.540
  934POPC   C1B14335   9.386  27.495   8.696
  934POPC   C2B14336   9.442  27.295   8.266
  934POPC   C3B14337   9.597  27.297   7.818
  934POPC   C4B14338   9.536  27.336   7.308
  935POPC   NC314339  34.791  17.511   9.395
  935POPC   PO414340  34.337  17.031   9.407
  935POPC   GL114341  34.422  17.341   9.071
  935POPC   GL214342  34.154  17.589   8.938
  935POPC   C1A14343  34.717  17.392   8.753
  935POPC   D2A14344  34.829  17.220   8.330
  935POPC   C3A14345  34.683  17.407   7.974
  935POPC   C4A14346  34.476  17.279   7.604
  935POPC   C1B14347  34.457  17.822   8.702
  935POPC   C2B14348  34.741  17.762   8.380
  935POPC   C3B14349  34.472  17.866   8.096
  935POPC   C4B14350  34.502  17.950   7.717
  936POPC   NC314351  26.321  29.468   9.797
  936POPC   PO414352  26.393  28.864   9.523
  936POPC   GL114353  26.095  29.026   9.167
  936POPC   GL214354  25.774  28.982   9.057
  936POPC   C1A14355  26.078  29.201   8.720
  936POPC   D2A14356  26.226  29.319   8.329
  936POPC   C3A14357  26.087  29.287   7.903
  936POPC   C4A14358  26.315  29.359   7.512
  936POPC   C1B14359  25.974  28.702   8.741
  936POPC   C2B14360  25.999  28.756   8.303
  936POPC   C3B14361  26.024  28.749   7.882
  936POPC   C4B14362  25.962  28.794   7.474
  937POPC   NC314363   1.359  34.741   9.721
  937POPC   PO414364   1.186  34.227   9.401
  937POPC   GL114365   1.288  34.587   9.230
  937POPC   GL214366   1.599  34.727   9.131
  937POPC   C1A14367   1.174  34.631   8.809
  937POPC   D2A14368   1.303  34.647   8.398
  937POPC   C3A14369   0.981  34.570   8.102
  937POPC   C4A14370   0.954  34.607   7.685
  937POPC   C1B14371   1.585  34.358   8.840
  937POPC   C2B14372   1.573  34.214   8.405
  937POPC   C3B14373   1.400  34.237   7.962
  937POPC   C4B14374   1.538  34.104   7.526
  938POPC   NC314375  16.169  37.301   9.696
  938POPC   PO414376  15.904  36.640   9.478
  938POPC   GL114377  16.126  36.621   9.132
  938POPC   GL214378  16.051  36.947   9.056
  938POPC   C1A14379  15.952  36.564   8.726
  938POPC   D2A14380  16.131  36.637   8.355
  938POPC   C3A14381  15.910  36.518   8.024
  938POPC   C4A14382  16.059  36.610   7.622
  938POPC   C1B14383  15.956  37.068   8.643
  938POPC   C2B14384  15.705  36.916   8.293
  938POPC   C3B14385  15.923  37.014   7.899
  938POPC   C4B14386  15.773  36.990   7.462
  939POPC   NC314387  20.815  17.835   9.549
  939POPC   PO414388  20.162  17.734   9.425
  939POPC   GL114389  20.398  17.470   9.188
  939POPC   GL214390  20.758  17.450   9.202
  939POPC   C1A14391  20.481  17.547   8.777
  939POPC   D2A14392  20.771  17.545   8.460
  939POPC   C3A14393  20.618  17.556   8.067
  939POPC   C4A14394  20.915  17.670   7.773
  939POPC   C1B14395  20.868  17.198   8.848
  939POPC   C2B14396  20.982  17.072   8.459
  939POPC   C3B14397  21.009  17.250   8.089
  939POPC   C4B14398  20.754  17.184   7.742
  940POPC   NC314399  27.554  25.598   9.469
  940POPC   PO414400  27.856  25.013   9.440
  940POPC   GL114401  27.600  25.230   9.133
  940POPC   GL214402  27.218  25.313   9.198
  940POPC   C1A14403  27.618  25.340   8.719
  940POPC   D2A14404  27.900  25.379   8.380
  940POPC   C3A14405  27.696  25.320   7.980
  940POPC   C4A14406  27.860  25.389   7.567
  940POPC   C1B14407  27.245  24.960   8.892
  940POPC   C2B14408  27.257  25.052   8.444
  940POPC   C3B14409  27.287  24.923   8.011
  940POPC   C4B14410  27.287  25.234   7.685
  941POPC   NC314411  27.612  34.195   9.514
  941POPC   PO414412  27.701  33.486   9.654
  941POPC   GL114413  27.683  33.713   9.265
  941POPC   GL214414  27.928  33.983   9.139
  941POPC   C1A14415  27.700  33.614   8.850
  941POPC   D2A14416  27.942  33.746   8.537
  941POPC   C3A14417  27.746  33.884   8.185
  941POPC   C4A14418  27.668  33.738   7.776
  941POPC   C1B14419  27.555  34.096   8.835
  941POPC   C2B14420  27.387  34.176   8.399
  941POPC   C3B14421  27.435  34.204   7.937
  941POPC   C4B14422  27.847  34.272   7.760
  942POPC   NC314423   2.426   5.582   9.438
  942POPC   PO414424   1.826   5.971   9.426
  942POPC   GL114425   1.939   6.137   9.062
  942POPC   GL214426   2.201   5.894   9.072
  942POPC   C1A14427   1.799   6.069   8.635
  942POPC   D2A14428   1.969   5.868   8.249
  942POPC   C3A14429   1.778   5.659   7.880
  942POPC   C4A14430   1.762   5.744   7.396
  942POPC   C1B14431   2.093   5.648   8.716
  942POPC   C2B14432   2.318   5.490   8.379
  942POPC   C3B14433   2.398   5.690   8.018
  942POPC   C4B14434   2.207   5.853   7.697
  943POPC   NC314435  23.709  36.192   9.896
  943POPC   PO414436  23.901  35.700   9.431
  943POPC   GL114437  23.667  35.991   9.212
  943POPC   GL214438  23.506  36.301   9.360
  943POPC   C1A14439  23.846  36.124   8.846
  943POPC   D2A14440  24.041  36.307   8.499
  943POPC   C3A14441  23.880  36.135   8.146
  943POPC   C4A14442  23.816  36.197   7.750
  943POPC   C1B14443  23.363  36.344   8.903
  943POPC   C2B14444  23.500  36.250   8.491
  943POPC   C3B14445  23.465  36.413   8.076
  943POPC   C4B14446  23.329  36.218   7.712
  944POPC   NC314447  11.383   6.534   9.465
  944POPC   PO414448  10.896   6.916   9.256
  944POPC   GL114449  11.119   6.583   9.013
  944POPC   GL214450  11.422   6.348   9.006
  944POPC   C1A14451  11.335   6.740   8.649
  944POPC   D2A14452  11.434   6.994   8.298
  944POPC   C3A14453  11.150   6.940   7.979
  944POPC   C4A14454  11.161   6.686   7.620
  944POPC   C1B14455  11.632   6.333   8.646
  944POPC   C2B14456  11.721   6.552   8.294
  944POPC   C3B14457  11.577   6.598   7.871
  944POPC   C4B14458  11.558   6.385   7.416
  945POPC   NC314459   0.819  29.568   9.540
  945POPC   PO414460   0.298  29.928   9.699
  945POPC   GL114461   0.416  29.792   9.260
  945POPC   GL214462   0.407  30.055   9.041
  945POPC   C1A14463   0.536  29.624   8.802
  945POPC   D2A14464   0.677  29.656   8.346
  945POPC   C3A14465   0.398  29.608   8.012
  945POPC   C4A14466   0.118  29.927   7.839
  945POPC   C1B14467   0.705  30.167   8.741
  945POPC   C2B14468   0.684  30.182   8.307
  945POPC   C3B14469   0.574  30.191   7.898
  945POPC   C4B14470   0.563  30.484   7.536
  946POPC   NC314471   5.315  29.805   9.724
  946POPC   PO414472   6.018  29.974   9.607
  946POPC   GL114473   6.025  29.912   9.129
  946POPC   GL214474   5.722  30.094   8.942
  946POPC   C1A14475   6.062  29.869   8.665
  946POPC   D2A14476   5.880  29.627   8.337
  946POPC   C3A14477   5.937  29.744   7.978
  946POPC   C4A14478   5.802  29.748   7.613
  946POPC   C1B14479   5.726  30.407   8.638
  946POPC   C2B14480   5.902  30.232   8.256
  946POPC   C3B14481   5.820  30.209   7.815
  946POPC   C4B14482   5.782  30.298   7.380
  947POPC   NC314483  41.603  37.144   9.477
  947POPC   PO414484  41.931  36.586   9.706
  947POPC   GL114485  41.601  36.698   9.232
  947POPC   GL214486  41.580  36.996   8.998
  947POPC   C1A14487  41.601  36.576   8.742
  947POPC   D2A14488  41.682  36.459   8.284
  947POPC   C3A14489  41.758  36.821   7.972
  947POPC   C4A14490  41.669  36.876   7.503
  947POPC   C1B14491  41.277  36.987   8.624
  947POPC   C2B14492  41.314  37.084   8.170
  947POPC   C3B14493  41.290  37.183   7.719
  947POPC   C4B14494  41.437  37.277   7.247
  948POPC   NC314495  26.036  28.582   9.426
  948POPC   PO414496  25.572  28.174   9.709
  948POPC   GL114497  25.849  28.074   9.311
  948POPC   GL214498  26.207  28.110   9.239
  948POPC   C1A14499  25.916  28.145   8.840
  948POPC   D2A14500  25.742  28.314   8.457
  948POPC   C3A14501  25.968  28.264   8.067
  948POPC   C4A14502  25.922  28.298   7.638
  948POPC   C1B14503  26.380  28.383   8.908
  948POPC   C2B14504  26.268  28.349   8.492
  948POPC   C3B14505  26.429  28.450   8.098
  948POPC   C4B14506  26.418  28.306   7.708
  949POPC   NC314507   5.351  38.859   9.482
  949POPC   PO414508   5.957  39.233   9.491
  949POPC   GL114509   5.897  39.452   9.168
  949POPC   GL214510   5.615  39.234   9.071
  949POPC   C1A14511   5.983  39.389   8.760
  949POPC   D2A14512   5.820  39.124   8.435
  949POPC   C3A14513   5.776  39.308   8.047
  949POPC   C4A14514   6.040  39.365   7.674
  949POPC   C1B14515   5.570  38.857   8.826
  949POPC   C2B14516   5.409  38.793   8.427
  949POPC   C3B14517   5.597  38.781   8.000
  949POPC   C4B14518   5.625  39.062   7.635
  950POPC   NC314519  23.970   3.944   9.470
  950POPC   PO414520  23.612   3.287   9.466
  950POPC   GL114521  23.695   3.631   9.164
  950POPC   GL214522  23.878   3.392   8.999
  950POPC   C1A14523  23.669   3.772   8.712
  950POPC   D2A14524  23.911   3.474   8.453
  950POPC   C3A14525  23.843   3.421   8.034
  950POPC   C4A14526  23.955   3.669   7.687
  950POPC   C1B14527  23.472   3.324   8.806
  950POPC   C2B14528  23.426   3.316   8.377
  950POPC   C3B14529  23.327   3.574   8.034
  950POPC   C4B14530  23.452   3.637   7.617
  951POPC   NC314531   7.086  38.265   9.350
  951POPC   PO414532   6.417  38.510   9.479
  951POPC   GL114533   6.363  38.367   9.080
  951POPC   GL214534   6.675  38.173   9.029
  951POPC   C1A14535   6.528  38.546   8.704
  951POPC   D2A14536   6.853  38.678   8.415
  951POPC   C3A14537   6.726  38.528   8.029
  951POPC   C4A14538   6.428  38.607   7.709
  951POPC   C1B14539   6.987  38.224   8.679
  951POPC   C2B14540   7.207  38.174   8.271
  951POPC   C3B14541   7.152  38.310   7.828
  951POPC   C4B14542   6.804  38.332   7.532
  952POPC   NC314543  39.278   9.675   9.371
  952POPC   PO414544  38.540   9.444   9.452
  952POPC   GL114545  38.817   9.491   9.051
  952POPC   GL214546  39.050   9.748   8.924
  952POPC   C1A14547  38.908   9.510   8.526
  952POPC   D2A14548  39.029   9.900   8.285
  952POPC   C3A14549  39.054   9.849   7.835
  952POPC   C4A14550  39.075   9.908   7.396
  952POPC   C1B14551  39.384   9.479   8.763
  952POPC   C2B14552  39.460   9.386   8.347
  952POPC   C3B14553  39.510   9.731   8.062
  952POPC   C4B14554  39.483   9.632   7.659
  953POPC   NC314555  25.819  37.081   9.599
  953POPC   PO414556  26.206  36.524   9.598
  953POPC   GL114557  25.970  36.730   9.262
  953POPC   GL214558  26.193  36.918   9.117
  953POPC   C1A14559  25.748  36.871   8.858
  953POPC   D2A14560  25.743  36.733   8.405
  953POPC   C3A14561  25.765  37.027   8.033
  953POPC   C4A14562  25.981  37.123   7.636
  953POPC   C1B14563  26.162  36.585   8.788
  953POPC   C2B14564  26.247  36.634   8.370
  953POPC   C3B14565  26.175  36.705   7.920
  953POPC   C4B14566  25.832  36.623   7.684
  954POPC   NC314567   8.576  33.957   9.514
  954POPC   PO414568   9.055  33.523   9.475
  954POPC   GL114569   9.103  33.884   9.204
  954POPC   GL214570   8.819  34.089   9.107
  954POPC   C1A14571   9.168  33.953   8.774
  954POPC   D2A14572   9.347  33.804   8.396
  954POPC   C3A14573   9.126  33.905   8.047
  954POPC   C4A14574   8.957  33.766   7.667
  954POPC   C1B14575   8.651  33.880   8.752
  954POPC   C2B14576   8.672  33.956   8.316
  954POPC   C3B14577   8.530  33.841   7.901
  954POPC   C4B14578   8.536  33.826   7.389
  955POPC   NC314579  39.227   6.694   9.524
  955POPC   PO414580  39.845   6.819   9.422
  955POPC   GL114581  39.560   6.803   9.099
  955POPC   GL214582  39.178   6.746   9.012
  955POPC   C1A14583  39.557   6.618   8.719
  955POPC   D2A14584  39.180   6.653   8.459
  955POPC   C3A14585  39.292   6.778   8.078
  955POPC   C4A14586  39.357   6.652   7.672
  955POPC   C1B14587  38.854   6.969   8.678
  955POPC   C2B14588  38.830   6.996   8.195
  955POPC   C3B14589  38.856   6.762   7.781
  955POPC   C4B14590  38.931   6.939   7.345
  956POPC   NC314591   4.774  21.745   9.615
  956POPC   PO414592   5.263  21.189   9.674
  956POPC   GL114593   5.260  21.395   9.279
  956POPC   GL214594   4.930  21.449   9.204
  956POPC   C1A14595   5.413  21.424   8.834
  956POPC   D2A14596   5.287  21.562   8.418
  956POPC   C3A14597   5.368  21.297   8.079
  956POPC   C4A14598   5.306  21.104   7.709
  956POPC   C1B14599   5.093  21.803   8.962
  956POPC   C2B14600   4.986  21.950   8.562
  956POPC   C3B14601   5.001  21.877   8.108
  956POPC   C4B14602   4.996  21.550   7.770
  957POPC   NC314603   5.719   9.393   9.692
  957POPC   PO414604   6.028   8.799   9.509
  957POPC   GL114605   5.904   9.131   9.229
  957POPC   GL214606   5.668   8.925   9.119
  957POPC   C1A14607   5.955   9.094   8.741
  957POPC   D2A14608   6.122   8.747   8.438
  957POPC   C3A14609   6.016   8.828   7.980
  957POPC   C4A14610   6.037   8.796   7.522
  957POPC   C1B14611   5.637   8.667   8.784
  957POPC   C2B14612   5.620   8.811   8.370
  957POPC   C3B14613   5.527   8.621   7.993
  957POPC   C4B14614   5.519   8.783   7.584
  958POPC   NC314615  25.677  33.673   9.535
  958POPC   PO414616  26.359  33.848   9.483
  958POPC   GL114617  26.058  33.767   9.153
  958POPC   GL214618  25.756  33.543   9.067
  958POPC   C1A14619  26.095  33.780   8.721
  958POPC   D2A14620  26.104  33.568   8.344
  958POPC   C3A14621  26.129  33.877   8.043
  958POPC   C4A14622  25.967  33.796   7.671
  958POPC   C1B14623  25.738  33.386   8.705
  958POPC   C2B14624  25.598  33.542   8.363
  958POPC   C3B14625  25.709  33.448   7.965
  958POPC   C4B14626  25.946  33.262   7.687
  959POPC   NC314627  10.115  28.767   9.434
  959POPC   PO414628   9.668  29.281   9.613
  959POPC   GL114629   9.767  29.113   9.223
  959POPC   GL214630   9.613  28.864   9.029
  959POPC   C1A14631   9.797  29.295   8.794
  959POPC   D2A14632   9.668  29.075   8.411
  959POPC   C3A14633   9.744  29.262   8.029
  959POPC   C4A14634   9.823  29.134   7.607
  959POPC   C1B14635   9.981  28.809   8.729
  959POPC   C2B14636  10.049  28.747   8.257
  959POPC   C3B14637  10.231  28.916   7.845
  959POPC   C4B14638  10.244  28.987   7.363
  960POPC   NC314639  34.463  23.002   9.462
  960POPC   PO414640  35.076  22.742   9.430
  960POPC   GL114641  34.877  22.760   9.085
  960POPC   GL214642  34.789  23.087   9.064
  960POPC   C1A14643  34.704  22.664   8.696
  960POPC   D2A14644  34.415  22.736   8.371
  960POPC   C3A14645  34.606  22.841   7.981
  960POPC   C4A14646  34.736  22.680   7.559
  960POPC   C1B14647  34.434  23.131   8.783
  960POPC   C2B14648  34.432  23.288   8.367
  960POPC   C3B14649  34.214  23.209   8.003
  960POPC   C4B14650  34.237  22.965   7.636
  961POPC   NC314651  39.171  37.586   9.542
  961POPC   PO414652  39.741  37.259   9.431
  961POPC   GL114653  39.477  37.510   9.167
  961POPC   GL214654  39.546  37.868   9.258
  961POPC   C1A14655  39.205  37.417   8.806
  961POPC   D2A14656  39.093  37.254   8.411
  961POPC   C3A14657  39.184  37.429   8.014
  961POPC   C4A14658  38.988  37.812   7.831
  961POPC   C1B14659  39.431  37.861   8.815
  961POPC   C2B14660  39.459  37.649   8.417
  961POPC   C3B14661  39.499  37.818   8.023
  961POPC   C4B14662  39.426  38.071   7.678
  962POPC   NC314663  11.112  35.999  10.020
  962POPC   PO414664  11.061  36.219   9.387
  962POPC   GL114665  11.089  36.079   8.994
  962POPC   GL214666  11.413  35.949   9.076
  962POPC   C1A14667  11.218  35.841   8.616
  962POPC   D2A14668  11.563  35.833   8.331
  962POPC   C3A14669  11.440  36.058   7.953
  962POPC   C4A14670  11.008  36.151   7.815
  962POPC   C1B14671  11.541  36.251   8.750
  962POPC   C2B14672  11.753  36.304   8.370
  962POPC   C3B14673  11.704  36.493   8.001
  962POPC   C4B14674  11.778  36.255   7.615
  963POPC   NC314675  22.600  25.116   9.508
  963POPC   PO414676  23.214  25.425   9.568
  963POPC   GL114677  22.933  25.417   9.245
  963POPC   GL214678  23.019  25.063   9.202
  963POPC   C1A14679  22.833  25.336   8.810
  963POPC   D2A14680  22.987  25.416   8.398
  963POPC   C3A14681  22.800  25.180   8.057
  963POPC   C4A14682  22.861  25.329   7.670
  963POPC   C1B14683  23.227  24.990   8.782
  963POPC   C2B14684  23.178  24.943   8.312
  963POPC   C3B14685  23.299  25.182   7.917
  963POPC   C4B14686  23.186  24.990   7.471
  964POPC   NC314687  14.681  39.856   9.445
  964POPC   PO414688  14.081  39.698   9.440
  964POPC   GL114689  14.234  39.869   9.084
  964POPC   GL214690  14.596  39.869   8.945
  964POPC   C1A14691  14.198  39.725   8.676
  964POPC   D2A14692  14.380  39.960   8.395
  964POPC   C3A14693  14.390  39.855   8.008
  964POPC   C4A14694  14.317  40.227   7.803
  964POPC   C1B14695  14.629  40.290   8.695
  964POPC   C2B14696  14.693  40.365   8.230
  964POPC   C3B14697  14.810  40.111   7.863
  964POPC   C4B14698  14.868  40.187   7.418
  965POPC   NC314699   7.819  33.955   9.307
  965POPC   PO414700   8.283  33.545   9.479
  965POPC   GL114701   8.265  33.774   9.097
  965POPC   GL214702   8.286  34.145   9.135
  965POPC   C1A14703   8.218  33.597   8.686
  965POPC   D2A14704   8.378  33.523   8.301
  965POPC   C3A14705   8.094  33.557   7.974
  965POPC   C4A14706   8.113  33.808   7.638
  965POPC   C1B14707   8.165  34.127   8.707
  965POPC   C2B14708   8.118  33.970   8.305
  965POPC   C3B14709   7.926  34.138   7.957
  965POPC   C4B14710   7.660  34.247   7.625
  966POPC   NC314711   3.699   3.622   9.691
  966POPC   PO414712   3.424   3.162   9.338
  966POPC   GL114713   3.542   3.346   9.030
  966POPC   GL214714   3.649   3.649   9.181
  966POPC   C1A14715   3.639   3.191   8.659
  966POPC   D2A14716   3.763   3.429   8.349
  966POPC   C3A14717   3.407   3.622   8.186
  966POPC   C4A14718   3.449   3.466   7.771
  966POPC   C1B14719   3.727   3.747   8.765
  966POPC   C2B14720   3.837   3.920   8.372
  966POPC   C3B14721   3.840   3.750   7.962
  966POPC   C4B14722   3.812   4.069   7.728
  967POPC   NC314723   5.187  26.980   9.670
  967POPC   PO414724   4.476  27.008   9.457
  967POPC   GL114725   4.756  26.799   9.117
  967POPC   GL214726   5.168  26.888   9.128
  967POPC   C1A14727   4.915  26.726   8.708
  967POPC   D2A14728   5.115  26.986   8.386
  967POPC   C3A14729   5.054  26.824   7.964
  967POPC   C4A14730   4.785  26.519   7.780
  967POPC   C1B14731   5.461  27.082   8.793
  967POPC   C2B14732   5.436  27.392   8.417
  967POPC   C3B14733   5.291  27.280   7.982
  967POPC   C4B14734   5.426  27.125   7.569
  968POPC   NC314735  25.622  12.513   9.477
  968POPC   PO414736  25.266  11.976   9.435
  968POPC   GL114737  25.509  12.159   9.122
  968POPC   GL214738  25.647  11.816   9.119
  968POPC   C1A14739  25.382  12.366   8.708
  968POPC   D2A14740  25.072  12.445   8.328
  968POPC   C3A14741  25.307  12.368   7.934
  968POPC   C4A14742  25.425  12.245   7.530
  968POPC   C1B14743  25.412  11.861   8.732
  968POPC   C2B14744  25.314  11.997   8.308
  968POPC   C3B14745  25.413  11.831   7.896
  968POPC   C4B14746  25.271  11.770   7.447
  969POPC   NC314747  31.064  40.874   9.651
  969POPC   PO414748  31.524  40.490   9.356
  969POPC   GL114749  31.441  40.834   9.078
  969POPC   GL214750  31.729  41.097   9.037
  969POPC   C1A14751  31.455  40.720   8.646
  969POPC   D2A14752  31.150  40.734   8.330
  969POPC   C3A14753  31.155  40.519   7.968
  969POPC   C4A14754  31.443  40.528   7.623
  969POPC   C1B14755  31.449  41.228   8.713
  969POPC   C2B14756  31.376  41.232   8.277
  969POPC   C3B14757  31.422  40.959   7.931
  969POPC   C4B14758  31.803  40.866   7.769
  970POPC   NC314759  34.026  28.905  10.125
  970POPC   PO414760  33.903  29.390   9.598
  970POPC   GL114761  33.920  29.227   9.163
  970POPC   GL214762  33.806  28.862   9.071
  970POPC   C1A14763  33.720  29.267   8.796
  970POPC   D2A14764  33.903  29.175   8.434
  970POPC   C3A14765  34.016  29.497   8.150
  970POPC   C4A14766  33.817  29.336   7.793
  970POPC   C1B14767  34.179  28.920   8.823
  970POPC   C2B14768  34.256  28.775   8.401
  970POPC   C3B14769  34.083  28.952   8.013
  970POPC   C4B14770  33.746  28.829   7.746
  971POPC   NC314771   5.387  10.060   9.505
  971POPC   PO414772   5.381  10.633   9.788
  971POPC   GL114773   5.200  10.530   9.343
  971POPC   GL214774   5.472  10.412   9.158
  971POPC   C1A14775   5.073  10.536   8.870
  971POPC   D2A14776   4.825  10.416   8.503
  971POPC   C3A14777   4.968  10.518   8.081
  971POPC   C4A14778   4.837  10.219   7.757
  971POPC   C1B14779   5.592  10.563   8.751
  971POPC   C2B14780   5.561  10.719   8.291
  971POPC   C3B14781   5.435  10.668   7.829
  971POPC   C4B14782   5.502  10.610   7.349
  972POPC   NC314783  42.102   6.693   9.512
  972POPC   PO414784  42.754   6.380   9.427
  972POPC   GL114785  42.352   6.398   9.161
  972POPC   GL214786  41.968   6.476   9.088
  972POPC   C1A14787  42.231   6.251   8.730
  972POPC   D2A14788  42.342   6.403   8.354
  972POPC   C3A14789  42.198   6.270   7.970
  972POPC   C4A14790  42.367   6.401   7.549
  972POPC   C1B14791  42.215   6.746   8.809
  972POPC   C2B14792  42.254   6.897   8.359
  972POPC   C3B14793  42.319   6.770   7.939
  972POPC   C4B14794  41.990   6.741   7.605
  973POPC   NC314795  29.502   3.840   9.366
  973POPC   PO414796  29.232   3.290   9.633
  973POPC   GL114797  29.211   3.397   9.201
  973POPC   GL214798  28.911   3.261   9.050
  973POPC   C1A14799  29.122   3.695   8.868
  973POPC   D2A14800  29.131   3.880   8.486
  973POPC   C3A14801  29.198   3.656   8.138
  973POPC   C4A14802  29.192   3.675   7.716
  973POPC   C1B14803  29.219   3.206   8.710
  973POPC   C2B14804  29.368   3.184   8.287
  973POPC   C3B14805  29.211   3.192   7.872
  973POPC   C4B14806  29.238   3.165   7.442
  974POPC   NC314807  16.737  33.267   9.960
  974POPC   PO414808  16.987  32.845   9.507
  974POPC   GL114809  16.726  33.168   9.282
  974POPC   GL214810  16.838  32.987   9.022
  974POPC   C1A14811  16.437  33.230   8.889
  974POPC   D2A14812  16.594  33.075   8.491
  974POPC   C3A14813  16.382  33.149   8.106
  974POPC   C4A14814  16.532  33.179   7.696
  974POPC   C1B14815  17.009  32.689   8.742
  974POPC   C2B14816  16.826  32.616   8.354
  974POPC   C3B14817  16.831  32.881   7.998
  974POPC   C4B14818  17.100  32.742   7.630
  975POPC   NC314819  16.634  16.408   9.745
  975POPC   PO414820  16.526  15.784   9.717
  975POPC   GL114821  16.702  15.888   9.282
  975POPC   GL214822  16.869  16.223   9.304
  975POPC   C1A14823  16.827  15.867   8.811
  975POPC   D2A14824  16.906  15.725   8.358
  975POPC   C3A14825  16.796  15.940   7.974
  975POPC   C4A14826  16.585  16.265   7.763
  975POPC   C1B14827  16.962  16.374   8.877
  975POPC   C2B14828  17.017  16.229   8.452
  975POPC   C3B14829  17.027  16.468   8.080
  975POPC   C4B14830  17.107  16.364   7.704
  976POPC   NC314831  23.010  10.252   9.815
  976POPC   PO414832  22.775   9.624   9.572
  976POPC   GL114833  22.889   9.602   9.189
  976POPC   GL214834  22.629   9.371   9.106
  976POPC   C1A14835  23.123   9.694   8.804
  976POPC   D2A14836  22.993   9.927   8.425
  976POPC   C3A14837  23.144   9.828   7.993
  976POPC   C4A14838  23.168  10.066   7.601
  976POPC   C1B14839  22.600   9.774   8.829
  976POPC   C2B14840  22.521   9.724   8.410
  976POPC   C3B14841  22.685   9.593   8.034
  976POPC   C4B14842  22.702   9.868   7.704
  977POPC   NC314843  40.408  39.920   9.465
  977POPC   PO414844  39.887  40.314   9.743
  977POPC   GL114845  39.817  40.181   9.300
  977POPC   GL214846  39.930  40.470   9.156
  977POPC   C1A14847  39.972  40.011   8.866
  977POPC   D2A14848  40.111  39.968   8.410
  977POPC   C3A14849  39.888  39.776   8.043
  977POPC   C4A14850  40.091  40.006   7.730
  977POPC   C1B14851  39.606  40.361   8.832
  977POPC   C2B14852  39.614  40.163   8.450
  977POPC   C3B14853  39.811  40.271   8.081
  977POPC   C4B14854  39.679  40.283   7.706
  978POPC   NC314855  38.712  26.244   9.674
  978POPC   PO414856  38.207  25.748   9.543
  978POPC   GL114857  38.395  25.860   9.111
  978POPC   GL214858  38.454  26.190   9.152
  978POPC   C1A14859  38.279  26.044   8.647
  978POPC   D2A14860  38.457  25.972   8.253
  978POPC   C3A14861  38.245  26.247   7.959
  978POPC   C4A14862  37.963  26.172   7.603
  978POPC   C1B14863  38.738  26.071   8.788
  978POPC   C2B14864  38.830  26.299   8.382
  978POPC   C3B14865  38.745  26.276   7.887
  978POPC   C4B14866  38.789  26.082   7.428
  979POPC   NC314867  17.372  16.485   9.377
  979POPC   PO414868  17.519  17.131   9.542
  979POPC   GL114869  17.612  16.916   9.163
  979POPC   GL214870  17.472  17.173   9.020
  979POPC   C1A14871  17.686  16.781   8.740
  979POPC   D2A14872  17.797  16.505   8.389
  979POPC   C3A14873  17.547  16.454   8.027
  979POPC   C4A14874  17.698  16.501   7.621
  979POPC   C1B14875  17.144  16.892   8.851
  979POPC   C2B14876  17.261  16.700   8.471
  979POPC   C3B14877  17.358  16.915   8.103
  979POPC   C4B14878  17.253  16.847   7.686
  980POPC   NC314879  10.983  43.711   9.776
  980POPC   PO414880  11.510  44.154   9.545
  980POPC   GL114881  11.262  44.131   9.178
  980POPC   GL214882  11.572  44.122   9.001
  980POPC   C1A14883  11.147  44.044   8.734
  980POPC   D2A14884  11.376  44.178   8.351
  980POPC   C3A14885  11.175  44.037   7.955
  980POPC   C4A14886  10.958  43.657   7.851
  980POPC   C1B14887  11.537  43.706   8.776
  980POPC   C2B14888  11.287  43.583   8.423
  980POPC   C3B14889  11.448  43.591   8.025
  980POPC   C4B14890  11.563  43.260   7.762
  981POPC   NC314891  12.461  27.061   9.336
  981POPC   PO414892  12.095  27.637   9.537
  981POPC   GL114893  11.888  27.711   9.167
  981POPC   GL214894  11.778  27.416   9.152
  981POPC   C1A14895  11.982  27.732   8.722
  981POPC   D2A14896  11.821  27.605   8.326
  981POPC   C3A14897  12.051  27.644   7.950
  981POPC   C4A14898  12.080  28.011   7.698
  981POPC   C1B14899  11.681  27.322   8.750
  981POPC   C2B14900  11.469  27.223   8.353
  981POPC   C3B14901  11.638  27.288   7.932
  981POPC   C4B14902  12.015  27.140   7.738
  982POPC   NC314903  28.305  25.814   9.642
  982POPC   PO414904  28.815  26.199   9.382
  982POPC   GL114905  28.555  26.038   9.051
  982POPC   GL214906  28.239  25.995   9.174
  982POPC   C1A14907  28.304  26.192   8.702
  982POPC   D2A14908  28.335  26.468   8.366
  982POPC   C3A14909  28.299  26.190   8.037
  982POPC   C4A14910  28.634  26.084   7.751
  982POPC   C1B14911  28.144  25.724   8.820
  982POPC   C2B14912  28.189  25.801   8.382
  982POPC   C3B14913  28.147  25.643   7.956
  982POPC   C4B14914  28.177  25.930   7.608
  983POPC   NC314915  42.640   8.825   9.466
  983POPC   PO414916  42.088   9.215   9.598
  983POPC   GL114917  42.111   9.014   9.188
  983POPC   GL214918  42.396   8.932   9.036
  983POPC   C1A14919  41.984   8.909   8.734
  983POPC   D2A14920  42.212   9.005   8.345
  983POPC   C3A14921  42.063   8.926   7.912
  983POPC   C4A14922  42.275   8.986   7.524
  983POPC   C1B14923  42.608   9.131   8.703
  983POPC   C2B14924  42.693   9.270   8.299
  983POPC   C3B14925  42.575   9.019   7.963
  983POPC   C4B14926  42.722   8.708   7.700
  984POPC   NC314927  24.223  39.544   9.741
  984POPC   PO414928  24.685  39.276   9.567
  984POPC   GL114929  24.658  39.171   9.143
  984POPC   GL214930  24.974  39.109   9.029
  984POPC   C1A14931  24.600  39.236   8.680
  984POPC   D2A14932  24.514  39.516   8.318
  984POPC   C3A14933  24.413  39.284   7.938
  984POPC   C4A14934  24.034  39.056   7.802
  984POPC   C1B14935  24.917  39.580   8.887
  984POPC   C2B14936  24.993  39.708   8.432
  984POPC   C3B14937  24.883  39.551   7.971
  984POPC   C4B14938  24.712  39.462   7.553
  985POPC   NC314939  10.101  39.929   9.494
  985POPC   PO414940   9.777  40.400   9.794
  985POPC   GL114941   9.686  40.173   9.307
  985POPC   GL214942   9.767  39.813   9.154
  985POPC   C1A14943   9.589  40.133   8.807
  985POPC   D2A14944   9.809  40.122   8.378
  985POPC   C3A14945   9.586  40.006   7.994
  985POPC   C4A14946   9.727  40.101   7.548
  985POPC   C1B14947  10.032  39.878   8.790
  985POPC   C2B14948  10.189  39.714   8.424
  985POPC   C3B14949  10.034  39.759   8.035
  985POPC   C4B14950  10.163  39.870   7.636
  986POPC   NC314951  35.168   2.206   9.508
  986POPC   PO414952  35.774   2.191   9.248
  986POPC   GL114953  35.603   1.924   8.991
  986POPC   GL214954  35.288   1.851   9.148
  986POPC   C1A14955  35.375   2.161   8.690
  986POPC   D2A14956  35.072   2.163   8.369
  986POPC   C3A14957  35.312   2.178   7.985
  986POPC   C4A14958  35.218   2.115   7.550
  986POPC   C1B14959  35.210   1.664   8.738
  986POPC   C2B14960  35.392   1.756   8.338
  986POPC   C3B14961  35.299   1.640   7.934
  986POPC   C4B14962  35.604   1.810   7.692
  987POPC   NC314963  31.544  15.721   9.664
  987POPC   PO414964  30.987  16.090   9.491
  987POPC   GL114965  31.251  15.916   9.192
  987POPC   GL214966  31.525  15.647   9.164
  987POPC   C1A14967  31.407  16.067   8.819
  987POPC   D2A14968  31.655  16.076   8.473
  987POPC   C3A14969  31.386  16.137   8.134
  987POPC   C4A14970  31.541  16.037   7.739
  987POPC   C1B14971  31.265  15.569   8.813
  987POPC   C2B14972  31.238  15.746   8.422
  987POPC   C3B14973  31.398  15.641   8.032
  987POPC   C4B14974  31.233  15.491   7.631
  988POPC   NC314975  26.723   5.427   9.873
  988POPC   PO414976  26.521   5.956   9.431
  988POPC   GL114977  26.695   5.825   9.001
  988POPC   GL214978  27.007   5.630   9.101
  988POPC   C1A14979  26.578   5.733   8.561
  988POPC   D2A14980  26.384   5.710   8.155
  988POPC   C3A14981  26.661   5.914   7.880
  988POPC   C4A14982  26.738   6.307   7.640
  988POPC   C1B14983  26.996   5.457   8.695
  988POPC   C2B14984  27.076   5.631   8.315
  988POPC   C3B14985  27.106   5.584   7.909
  988POPC   C4B14986  27.023   5.773   7.547
  989POPC   NC314987  13.860  40.102   9.424
  989POPC   PO414988  13.388  39.510   9.509
  989POPC   GL114989  13.612  39.739   9.164
  989POPC   GL214990  13.424  40.044   9.112
  989POPC   C1A14991  13.797  40.011   8.793
  989POPC   D2A14992  13.672  40.167   8.423
  989POPC   C3A14993  13.902  40.010   8.131
  989POPC   C4A14994  13.830  40.259   7.805
  989POPC   C1B14995  13.307  39.828   8.738
  989POPC   C2B14996  13.408  39.731   8.325
  989POPC   C3B14997  13.406  39.972   7.949
  989POPC   C4B14998  13.290  39.701   7.636
  990POPC   NC314999  35.683  24.071   9.509
  990POPC   PO415000  35.040  24.376   9.469
  990POPC   GL115001  35.225  24.448   9.078
  990POPC   GL215002  35.567  24.371   9.126
  990POPC   C1A15003  35.249  24.646   8.666
  990POPC   D2A15004  35.369  24.882   8.298
  990POPC   C3A15005  35.363  24.649   7.956
  990POPC   C4A15006  35.117  24.248   7.915
  990POPC   C1B15007  35.574  24.193   8.741
  990POPC   C2B15008  35.596  24.371   8.345
  990POPC   C3B15009  35.703  24.213   7.963
  990POPC   C4B15010  35.889  24.388   7.640
  991POPC   NC315011  38.969   3.317   9.514
  991POPC   PO415012  39.521   3.564   9.405
  991POPC   GL115013  39.246   3.368   9.091
  991POPC   GL215014  38.917   3.585   9.076
  991POPC   C1A15015  39.218   3.490   8.659
  991POPC   D2A15016  39.446   3.681   8.346
  991POPC   C3A15017  39.219   3.726   7.986
  991POPC   C4A15018  39.496   3.748   7.603
  991POPC   C1B15019  38.795   3.232   8.810
  991POPC   C2B15020  38.905   3.187   8.375
  991POPC   C3B15021  38.860   3.323   7.954
  991POPC   C4B15022  39.147   3.374   7.630
  992POPC   NC315023  35.339   3.802   9.880
  992POPC   PO415024  35.649   3.333   9.556
  992POPC   GL115025  35.405   3.561   9.214
  992POPC   GL215026  35.058   3.401   9.125
  992POPC   C1A15027  35.223   3.786   8.823
  992POPC   D2A15028  35.016   3.670   8.416
  992POPC   C3A15029  35.150   3.848   8.027
  992POPC   C4A15030  35.315   3.685   7.622
  992POPC   C1B15031  35.374   3.205   8.843
  992POPC   C2B15032  35.471   3.267   8.424
  992POPC   C3B15033  35.354   3.386   8.063
  992POPC   C4B15034  35.330   3.179   7.713
  993POPC   NC315035  43.705  37.791   9.400
  993POPC   PO415036  43.383  37.191   9.340
  993POPC   GL115037  43.749  37.382   9.075
  993POPC   GL215038  43.990  37.701   8.990
  993POPC   C1A15039  43.827  37.412   8.617
  993POPC   D2A15040  44.097  37.623   8.346
  993POPC   C3A15041  43.917  37.638   7.939
  993POPC   C4A15042  43.834  37.782   7.541
  993POPC   C1B15043  43.687  37.895   8.691
  993POPC   C2B15044  43.585  37.878   8.250
  993POPC   C3B15045  43.571  38.110   7.843
  993POPC   C4B15046  43.490  38.130   7.395
  994POPC   NC315047   6.833  20.188   9.519
  994POPC   PO415048   6.588  19.571   9.561
  994POPC   GL115049   6.534  19.783   9.191
  994POPC   GL215050   6.244  19.967   9.245
  994POPC   C1A15051   6.676  19.721   8.775
  994POPC   D2A15052   6.503  19.937   8.436
  994POPC   C3A15053   6.727  19.904   8.067
  994POPC   C4A15054   6.781  19.778   7.650
  994POPC   C1B15055   6.199  20.184   8.858
  994POPC   C2B15056   6.364  20.430   8.521
  994POPC   C3B15057   6.230  20.382   8.104
  994POPC   C4B15058   6.341  20.091   7.776
  995POPC   NC315059  11.231  13.856   9.479
  995POPC   PO415060  11.003  13.379   9.324
  995POPC   GL115061  11.258  13.598   9.031
  995POPC   GL215062  11.472  13.927   9.044
  995POPC   C1A15063  11.523  13.521   8.687
  995POPC   D2A15064  11.517  13.223   8.351
  995POPC   C3A15065  11.407  13.400   7.960
  995POPC   C4A15066  11.073  13.590   7.728
  995POPC   C1B15067  11.058  14.030   8.862
  995POPC   C2B15068  10.981  13.819   8.492
  995POPC   C3B15069  11.153  13.945   8.109
  995POPC   C4B15070  10.976  14.093   7.745
  996POPC   NC315071  32.469   4.539   9.824
  996POPC   PO415072  32.071   4.114   9.521
  996POPC   GL115073  32.180   4.306   9.151
  996POPC   GL215074  32.535   4.220   9.132
  996POPC   C1A15075  31.963   4.366   8.735
  996POPC   D2A15076  32.112   4.539   8.331
  996POPC   C3A15077  31.957   4.312   7.983
  996POPC   C4A15078  31.988   4.355   7.538
  996POPC   C1B15079  32.454   4.450   8.720
  996POPC   C2B15080  32.616   4.382   8.295
  996POPC   C3B15081  32.470   4.399   7.862
  996POPC   C4B15082  32.515   4.350   7.408
  997POPC   NC315083  11.804  25.426   9.306
  997POPC   PO415084  11.183  25.132   9.490
  997POPC   GL115085  11.288  25.395   9.189
  997POPC   GL215086  11.478  25.138   9.038
  997POPC   C1A15087  11.242  25.558   8.781
  997POPC   D2A15088  11.112  25.351   8.420
  997POPC   C3A15089  11.202  25.539   8.071
  997POPC   C4A15090  11.246  25.497   7.665
  997POPC   C1B15091  11.403  24.945   8.661
  997POPC   C2B15092  11.248  24.889   8.255
  997POPC   C3B15093  11.331  25.042   7.873
  997POPC   C4B15094  11.712  25.245   7.713
  998POPC   NC315095  38.742  19.461   9.512
  998POPC   PO415096  38.222  19.021   9.672
  998POPC   GL115097  38.290  18.827   9.238
  998POPC   GL215098  38.657  18.788   9.177
  998POPC   C1A15099  38.252  18.949   8.765
  998POPC   D2A15100  38.218  19.236   8.376
  998POPC   C3A15101  38.433  19.262   7.948
  998POPC   C4A15102  38.765  19.226   7.648
  998POPC   C1B15103  38.638  18.616   8.758
  998POPC   C2B15104  38.419  18.697   8.351
  998POPC   C3B15105  38.406  18.749   7.911
  998POPC   C4B15106  38.738  18.692   7.608
  999POPC   NC315107  36.585  25.949   9.407
  999POPC   PO415108  37.164  26.189   9.267
  999POPC   GL115109  37.060  25.792   9.081
  999POPC   GL215110  36.730  25.838   8.946
  999POPC   C1A15111  37.248  25.757   8.660
  999POPC   D2A15112  37.222  26.067   8.363
  999POPC   C3A15113  36.988  26.053   7.975
  999POPC   C4A15114  37.137  26.129   7.571
  999POPC   C1B15115  36.837  26.174   8.700
  999POPC   C2B15116  36.669  26.309   8.324
  999POPC   C3B15117  36.511  26.211   7.926
  999POPC   C4B15118  36.681  26.371   7.542
 1000POPC   NC315119  23.168   6.886   9.740
 1000POPC   PO415120  22.616   6.499   9.471
 1000POPC   GL115121  22.873   6.612   9.103
 1000POPC   GL215122  23.176   6.389   8.996
 1000POPC   C1A15123  22.800   6.479   8.668
 1000POPC   D2A15124  22.563   6.486   8.280
 1000POPC   C3A15125  22.767   6.673   7.904
 1000POPC   C4A15126  23.132   6.832   7.668
 1000POPC   C1B15127  23.421   6.401   8.611
 1000POPC   C2B15128  23.351   6.527   8.162
 1000POPC   C3B15129  23.224   6.352   7.760
 1000POPC   C4B15130  23.400   6.513   7.356
 1001POPC   NC315131  11.722  34.758   9.435
 1001POPC   PO415132  12.209  34.294   9.423
 1001POPC   GL115133  12.016  34.487   9.104
 1001POPC   GL215134  12.016  34.854   9.052
 1001POPC   C1A15135  11.812  34.437   8.745
 1001POPC   D2A15136  11.715  34.559   8.347
 1001POPC   C3A15137  12.048  34.512   8.070
 1001POPC   C4A15138  12.023  34.245   7.727
 1001POPC   C1B15139  12.046  34.898   8.640
 1001POPC   C2B15140  12.217  35.014   8.267
 1001POPC   C3B15141  12.046  34.984   7.866
 1001POPC   C4B15142  11.895  34.726   7.502
 1002POPC   NC315143  10.956  20.809   9.648
 1002POPC   PO415144  11.565  20.487   9.638
 1002POPC   GL115145  11.322  20.559   9.262
 1002POPC   GL215146  11.632  20.648   9.125
 1002POPC   C1A15147  11.174  20.851   8.896
 1002POPC   D2A15148  11.063  20.772   8.421
 1002POPC   C3A15149  11.243  20.731   7.983
 1002POPC   C4A15150  11.153  20.384   7.684
 1002POPC   C1B15151  11.477  20.519   8.710
 1002POPC   C2B15152  11.617  20.581   8.282
 1002POPC   C3B15153  11.647  20.429   7.842
 1002POPC   C4B15154  11.566  20.443   7.358
 1003POPC   NC315155  35.725  11.340   9.464
 1003POPC   PO415156  36.370  11.419   9.568
 1003POPC   GL115157  36.316  11.186   9.222
 1003POPC   GL215158  36.105  11.491   9.103
 1003POPC   C1A15159  36.090  10.990   8.894
 1003POPC   D2A15160  35.966  11.267   8.596
 1003POPC   C3A15161  35.965  11.258   8.138
 1003POPC   C4A15162  36.178  11.165   7.751
 1003POPC   C1B15163  35.801  11.696   8.819
 1003POPC   C2B15164  35.681  11.641   8.390
 1003POPC   C3B15165  35.765  11.762   8.000
 1003POPC   C4B15166  35.805  11.502   7.687
 1004POPC   NC315167   5.560  22.209   9.442
 1004POPC   PO415168   6.074  22.410   9.774
 1004POPC   GL115169   6.074  22.358   9.238
 1004POPC   GL215170   5.750  22.235   8.999
 1004POPC   C1A15171   6.172  22.263   8.774
 1004POPC   D2A15172   5.927  22.250   8.383
 1004POPC   C3A15173   6.135  22.153   7.998
 1004POPC   C4A15174   6.137  22.296   7.543
 1004POPC   C1B15175   5.793  21.844   8.752
 1004POPC   C2B15176   5.900  21.727   8.369
 1004POPC   C3B15177   5.669  21.709   8.021
 1004POPC   C4B15178   5.807  21.929   7.682
 1005POPC   NC315179  24.818   3.989   9.765
 1005POPC   PO415180  24.291   4.405   9.494
 1005POPC   GL115181  24.351   4.485   9.084
 1005POPC   GL215182  24.296   4.116   9.073
 1005POPC   C1A15183  24.590   4.562   8.712
 1005POPC   D2A15184  24.242   4.468   8.477
 1005POPC   C3A15185  24.250   4.575   8.090
 1005POPC   C4A15186  24.488   4.394   7.799
 1005POPC   C1B15187  24.512   4.064   8.693
 1005POPC   C2B15188  24.575   4.130   8.259
 1005POPC   C3B15189  24.688   3.938   7.872
 1005POPC   C4B15190  24.686   4.074   7.456
 1006POPC   NC315191  33.794  28.012   9.572
 1006POPC   PO415192  33.968  28.674   9.691
 1006POPC   GL115193  33.993  28.438   9.298
 1006POPC   GL215194  33.668  28.368   9.227
 1006POPC   C1A15195  33.977  28.441   8.822
 1006POPC   D2A15196  34.071  28.296   8.399
 1006POPC   C3A15197  33.831  28.446   8.075
 1006POPC   C4A15198  33.946  28.328   7.653
 1006POPC   C1B15199  33.518  28.179   8.851
 1006POPC   C2B15200  33.428  28.213   8.434
 1006POPC   C3B15201  33.218  28.170   8.063
 1006POPC   C4B15202  33.452  28.325   7.710
 1007POPC   NC315203  39.473  42.512   9.328
 1007POPC   PO415204  39.005  41.982   9.494
 1007POPC   GL115205  39.262  42.047   9.162
 1007POPC   GL215206  38.981  42.223   9.027
 1007POPC   C1A15207  39.390  42.166   8.748
 1007POPC   D2A15208  39.249  42.090   8.375
 1007POPC   C3A15209  39.529  42.269   8.109
 1007POPC   C4A15210  39.380  42.412   7.746
 1007POPC   C1B15211  38.975  42.461   8.635
 1007POPC   C2B15212  38.899  42.692   8.232
 1007POPC   C3B15213  38.970  42.706   7.785
 1007POPC   C4B15214  39.250  42.779   7.392
 1008POPC   NC315215   0.129  40.937   9.836
 1008POPC   PO415216   0.683  40.710   9.488
 1008POPC   GL115217   0.615  40.931   9.123
 1008POPC   GL215218   0.458  40.639   8.988
 1008POPC   C1A15219   0.487  41.062   8.692
 1008POPC   D2A15220   0.597  40.899   8.275
 1008POPC   C3A15221   0.456  41.063   7.843
 1008POPC   C4A15222   0.340  41.140   7.376
 1008POPC   C1B15223   0.698  40.447   8.674
 1008POPC   C2B15224   0.530  40.184   8.392
 1008POPC   C3B15225   0.428  40.449   8.056
 1008POPC   C4B15226   0.777  40.667   7.863
 1009POPC   NC315227  12.198  13.169   9.188
 1009POPC   PO415228  12.150  12.547   9.553
 1009POPC   GL115229  11.985  12.512   9.165
 1009POPC   GL215230  12.307  12.662   9.087
 1009POPC   C1A15231  11.818  12.642   8.761
 1009POPC   D2A15232  12.037  12.809   8.404
 1009POPC   C3A15233  11.857  12.988   8.046
 1009POPC   C4A15234  11.821  13.202   7.674
 1009POPC   C1B15235  12.275  12.380   8.768
 1009POPC   C2B15236  12.071  12.301   8.409
 1009POPC   C3B15237  12.020  12.438   8.009
 1009POPC   C4B15238  12.036  12.698   7.677
 1010POPC   NC315239  43.414  31.790   9.482
 1010POPC   PO415240  43.001  32.475   9.602
 1010POPC   GL115241  42.901  32.323   9.197
 1010POPC   GL215242  43.169  32.121   9.165
 1010POPC   C1A15243  42.996  32.449   8.786
 1010POPC   D2A15244  42.791  32.336   8.414
 1010POPC   C3A15245  42.892  32.531   8.041
 1010POPC   C4A15246  43.118  32.427   7.733
 1010POPC   C1B15247  43.179  31.964   8.758
 1010POPC   C2B15248  43.290  32.165   8.370
 1010POPC   C3B15249  43.342  32.016   7.963
 1010POPC   C4B15250  42.995  31.782   7.759
 1011POPC   NC315251  19.496  36.073   9.588
 1011POPC   PO415252  20.156  36.109   9.448
 1011POPC   GL115253  19.837  36.147   9.128
 1011POPC   GL215254  19.480  36.242   9.099
 1011POPC   C1A15255  19.935  36.199   8.704
 1011POPC   D2A15256  20.238  36.214   8.366
 1011POPC   C3A15257  20.041  36.094   8.023
 1011POPC   C4A15258  19.905  36.367   7.762
 1011POPC   C1B15259  19.500  35.906   8.784
 1011POPC   C2B15260  19.654  35.947   8.362
 1011POPC   C3B15261  19.527  36.299   8.122
 1011POPC   C4B15262  19.445  36.158   7.725
 1012POPC   NC315263  39.115  29.615   9.911
 1012POPC   PO415264  39.475  29.660   9.377
 1012POPC   GL115265  39.336  29.908   9.088
 1012POPC   GL215266  39.264  29.600   8.904
 1012POPC   C1A15267  39.342  30.080   8.704
 1012POPC   D2A15268  39.190  30.301   8.388
 1012POPC   C3A15269  39.258  30.045   8.097
 1012POPC   C4A15270  39.355  30.069   7.707
 1012POPC   C1B15271  38.967  29.620   8.597
 1012POPC   C2B15272  38.900  29.561   8.168
 1012POPC   C3B15273  38.901  29.823   7.811
 1012POPC   C4B15274  38.878  29.779   7.367
 1013POPC   NC315275  20.253  19.927   9.483
 1013POPC   PO415276  19.632  19.641   9.520
 1013POPC   GL115277  19.838  19.846   9.181
 1013POPC   GL215278  20.174  19.688   9.053
 1013POPC   C1A15279  19.878  19.995   8.773
 1013POPC   D2A15280  20.111  19.864   8.434
 1013POPC   C3A15281  19.911  20.069   8.080
 1013POPC   C4A15282  19.738  20.116   7.677
 1013POPC   C1B15283  20.235  19.406   8.714
 1013POPC   C2B15284  20.339  19.356   8.284
 1013POPC   C3B15285  20.089  19.586   8.003
 1013POPC   C4B15286  20.151  19.823   7.674
 1014POPC   NC315287  32.535  18.827   9.401
 1014POPC   PO415288  31.912  19.090   9.413
 1014POPC   GL115289  31.997  18.836   9.057
 1014POPC   GL215290  32.302  19.045   8.993
 1014POPC   C1A15291  32.060  18.839   8.583
 1014POPC   D2A15292  32.313  19.090   8.286
 1014POPC   C3A15293  32.506  18.919   7.946
 1014POPC   C4A15294  32.181  18.827   7.698
 1014POPC   C1B15295  32.644  19.053   8.683
 1014POPC   C2B15296  32.768  19.330   8.335
 1014POPC   C3B15297  32.605  19.431   7.931
 1014POPC   C4B15298  32.443  19.266   7.487
 1015POPC   NC315299  44.670  25.975   9.639
 1015POPC   PO415300   0.099  26.352   9.278
 1015POPC   GL115301  44.725  26.187   9.168
 1015POPC   GL215302  44.626  25.863   9.153
 1015POPC   C1A15303  44.574  26.299   8.780
 1015POPC   D2A15304  44.830  26.167   8.428
 1015POPC   C3A15305  44.653  26.168   8.059
 1015POPC   C4A15306  44.883  26.254   7.694
 1015POPC   C1B15307  44.666  25.820   8.741
 1015POPC   C2B15308  44.359  25.908   8.438
 1015POPC   C3B15309  44.249  25.832   8.024
 1015POPC   C4B15310  44.478  25.911   7.663
 1016POPC   NC315311   5.302   9.355   9.292
 1016POPC   PO415312   4.969   9.848   9.535
 1016POPC   GL115313   5.125   9.794   9.129
 1016POPC   GL215314   4.958  10.018   8.958
 1016POPC   C1A15315   5.210   9.595   8.713
 1016POPC   D2A15316   5.123   9.788   8.358
 1016POPC   C3A15317   5.294   9.608   7.968
 1016POPC   C4A15318   5.107   9.338   7.668
 1016POPC   C1B15319   5.354  10.089   8.774
 1016POPC   C2B15320   5.342  10.278   8.396
 1016POPC   C3B15321   5.286  10.118   8.009
 1016POPC   C4B15322   5.364  10.210   7.629
 1017POPC   NC315323  22.522  11.676   9.386
 1017POPC   PO415324  22.910  12.166   9.678
 1017POPC   GL115325  22.866  12.045   9.253
 1017POPC   GL215326  23.183  11.962   9.193
 1017POPC   C1A15327  22.892  11.957   8.778
 1017POPC   D2A15328  22.910  12.201   8.385
 1017POPC   C3A15329  22.791  11.956   8.040
 1017POPC   C4A15330  22.722  12.068   7.599
 1017POPC   C1B15331  23.349  12.213   8.855
 1017POPC   C2B15332  23.405  12.083   8.418
 1017POPC   C3B15333  23.240  12.241   7.992
 1017POPC   C4B15334  23.197  11.944   7.655
 1018POPC   NC315335  27.681  24.575   9.440
 1018POPC   PO415336  28.192  24.072   9.398
 1018POPC   GL115337  27.912  24.240   9.101
 1018POPC   GL215338  27.548  24.163   9.130
 1018POPC   C1A15339  27.743  24.358   8.712
 1018POPC   D2A15340  27.852  24.418   8.327
 1018POPC   C3A15341  27.768  24.747   8.086
 1018POPC   C4A15342  27.892  24.461   7.794
 1018POPC   C1B15343  27.239  24.367   8.806
 1018POPC   C2B15344  27.367  24.558   8.414
 1018POPC   C3B15345  27.433  24.349   8.020
 1018POPC   C4B15346  27.255  24.136   7.666
 1019POPC   NC315347  37.885  18.671   9.662
 1019POPC   PO415348  38.325  18.113   9.554
 1019POPC   GL115349  38.378  18.318   9.164
 1019POPC   GL215350  38.739  18.259   9.128
 1019POPC   C1A15351  38.158  18.424   8.766
 1019POPC   D2A15352  38.029  18.309   8.348
 1019POPC   C3A15353  38.273  18.256   7.952
 1019POPC   C4A15354  38.183  18.455   7.529
 1019POPC   C1B15355  38.576  18.107   8.759
 1019POPC   C2B15356  38.586  18.224   8.375
 1019POPC   C3B15357  38.802  18.347   8.030
 1019POPC   C4B15358  38.741  18.006   7.802
 1020POPC   NC315359   9.011  41.388   9.520
 1020POPC   PO415360   8.980  42.059   9.537
 1020POPC   GL115361   8.933  41.840   9.135
 1020POPC   GL215362   9.212  41.622   9.087
 1020POPC   C1A15363   8.682  41.748   8.757
 1020POPC   D2A15364   8.870  41.615   8.388
 1020POPC   C3A15365   8.667  41.706   8.033
 1020POPC   C4A15366   8.950  41.704   7.718
 1020POPC   C1B15367   9.294  41.269   8.809
 1020POPC   C2B15368   9.401  41.144   8.406
 1020POPC   C3B15369   9.557  41.134   8.000
 1020POPC   C4B15370   9.278  41.205   7.698
 1021POPC   NC315371  36.095  42.108   9.415
 1021POPC   PO415372  36.064  42.722   9.359
 1021POPC   GL115373  36.177  42.419   9.024
 1021POPC   GL215374  36.385  42.095   9.000
 1021POPC   C1A15375  35.860  42.314   8.696
 1021POPC   D2A15376  35.656  42.580   8.373
 1021POPC   C3A15377  35.822  42.470   7.980
 1021POPC   C4A15378  36.262  42.560   7.819
 1021POPC   C1B15379  36.350  42.220   8.583
 1021POPC   C2B15380  36.140  42.123   8.225
 1021POPC   C3B15381  36.231  42.045   7.801
 1021POPC   C4B15382  36.150  41.976   7.351
 1022POPC   NC315383  25.063  21.586   9.372
 1022POPC   PO415384  25.432  20.941   9.302
 1022POPC   GL115385  25.228  21.234   9.029
 1022POPC   GL215386  25.385  21.612   8.986
 1022POPC   C1A15387  25.358  21.276   8.620
 1022POPC   D2A15388  25.646  21.441   8.368
 1022POPC   C3A15389  25.426  21.280   8.033
 1022POPC   C4A15390  25.352  21.055   7.660
 1022POPC   C1B15391  24.985  21.598   8.719
 1022POPC   C2B15392  24.925  21.490   8.257
 1022POPC   C3B15393  25.103  21.600   7.811
 1022POPC   C4B15394  25.015  21.725   7.371
 1023POPC   NC315395  22.313  23.717   9.932
 1023POPC   PO415396  22.096  23.224   9.634
 1023POPC   GL115397  22.202  23.371   9.162
 1023POPC   GL215398  22.544  23.335   9.043
 1023POPC   C1A15399  22.299  23.667   8.736
 1023POPC   D2A15400  22.382  23.843   8.283
 1023POPC   C3A15401  22.065  23.749   7.948
 1023POPC   C4A15402  21.850  23.915   7.568
 1023POPC   C1B15403  22.327  23.166   8.703
 1023POPC   C2B15404  22.163  23.235   8.325
 1023POPC   C3B15405  22.080  23.238   7.923
 1023POPC   C4B15406  22.142  23.427   7.513
 1024POPC   NC315407  10.785  43.651   9.184
 1024POPC   PO415408  10.580  43.957   9.735
 1024POPC   GL115409  10.335  43.969   9.330
 1024POPC   GL215410  10.218  43.678   9.170
 1024POPC   C1A15411  10.331  44.089   8.889
 1024POPC   D2A15412  10.667  44.055   8.548
 1024POPC   C3A15413  10.600  43.881   8.138
 1024POPC   C4A15414  10.608  44.005   7.713
 1024POPC   C1B15415  10.349  43.580   8.707
 1024POPC   C2B15416  10.247  43.471   8.275
 1024POPC   C3B15417  10.280  43.583   7.830
 1024POPC   C4B15418  10.559  43.572   7.483
 1025POPC   NC315419  35.468  17.188   9.215
 1025POPC   PO415420  35.821  16.657   9.551
 1025POPC   GL115421  35.592  16.454   9.247
 1025POPC   GL215422  35.297  16.666   9.168
 1025POPC   C1A15423  35.628  16.460   8.808
 1025POPC   D2A15424  35.484  16.218   8.472
 1025POPC   C3A15425  35.401  16.495   8.120
 1025POPC   C4A15426  35.515  16.784   7.782
 1025POPC   C1B15427  35.172  16.692   8.694
 1025POPC   C2B15428  34.921  16.711   8.297
 1025POPC   C3B15429  34.824  16.468   7.937
 1025POPC   C4B15430  35.161  16.423   7.670
 1026POPC   NC315431  44.355   8.353   9.519
 1026POPC   PO415432  44.884   7.991   9.515
 1026POPC   GL115433  44.702   8.190   9.179
 1026POPC   GL215434  44.400   7.977   9.133
 1026POPC   C1A15435  44.725   8.403   8.786
 1026POPC   D2A15436  44.848   8.560   8.373
 1026POPC   C3A15437  44.803   8.353   7.982
 1026POPC   C4A15438  44.449   8.118   7.832
 1026POPC   C1B15439  44.191   8.192   8.776
 1026POPC   C2B15440  44.325   8.469   8.425
 1026POPC   C3B15441  44.321   8.611   7.989
 1026POPC   C4B15442  44.545   8.571   7.562
 1027POPC   NC315443  14.922  25.025   9.557
 1027POPC   PO415444  14.396  24.512   9.467
 1027POPC   GL115445  14.541  24.490   9.073
 1027POPC   GL215446  14.262  24.271   9.005
 1027POPC   C1A15447  14.432  24.637   8.645
 1027POPC   D2A15448  14.139  24.534   8.269
 1027POPC   C3A15449  14.274  24.762   7.904
 1027POPC   C4A15450  14.687  24.655   7.766
 1027POPC   C1B15451  14.261  24.138   8.574
 1027POPC   C2B15452  14.251  24.018   8.163
 1027POPC   C3B15453  14.170  24.205   7.807
 1027POPC   C4B15454  13.890  24.106   7.453
 1028POPC   NC315455  30.138   3.245   9.276
 1028POPC   PO415456  29.788   2.726   9.604
 1028POPC   GL115457  29.780   2.684   9.162
 1028POPC   GL215458  30.120   2.762   9.101
 1028POPC   C1A15459  29.899   2.360   8.826
 1028POPC   D2A15460  30.215   2.381   8.492
 1028POPC   C3A15461  29.998   2.405   8.118
 1028POPC   C4A15462  29.965   2.573   7.710
 1028POPC   C1B15463  30.373   2.903   8.757
 1028POPC   C2B15464  30.373   3.067   8.356
 1028POPC   C3B15465  30.329   2.832   7.975
 1028POPC   C4B15466  30.228   3.034   7.625
 1029POPC   NC315467  31.998   9.870   9.581
 1029POPC   PO415468  32.473   9.451   9.484
 1029POPC   GL115469  32.229   9.679   9.169
 1029POPC   GL215470  32.341  10.049   9.200
 1029POPC   C1A15471  32.151   9.852   8.757
 1029POPC   D2A15472  32.379   9.741   8.424
 1029POPC   C3A15473  32.236   9.636   8.059
 1029POPC   C4A15474  32.156   9.579   7.630
 1029POPC   C1B15475  32.529  10.197   8.768
 1029POPC   C2B15476  32.554  10.184   8.295
 1029POPC   C3B15477  32.480  10.038   7.881
 1029POPC   C4B15478  32.688  10.100   7.467
 1030POPC   NC315479   8.848  23.386   9.577
 1030POPC   PO415480   8.994  24.016   9.374
 1030POPC   GL115481   8.987  23.610   9.113
 1030POPC   GL215482   8.641  23.503   9.135
 1030POPC   C1A15483   9.016  23.564   8.644
 1030POPC   D2A15484   9.189  23.924   8.392
 1030POPC   C3A15485   9.256  23.887   7.949
 1030POPC   C4A15486   8.951  23.777   7.613
 1030POPC   C1B15487   8.489  23.646   8.738
 1030POPC   C2B15488   8.635  23.833   8.367
 1030POPC   C3B15489   8.857  23.593   8.088
 1030POPC   C4B15490   8.544  23.499   7.809
 1031POPC   NC315491  34.975  31.923   9.805
 1031POPC   PO415492  34.619  32.421   9.625
 1031POPC   GL115493  34.534  32.168   9.216
 1031POPC   GL215494  34.565  32.470   9.085
 1031POPC   C1A15495  34.455  32.094   8.745
 1031POPC   D2A15496  34.391  31.927   8.305
 1031POPC   C3A15497  34.539  32.149   7.940
 1031POPC   C4A15498  34.546  32.284   7.524
 1031POPC   C1B15499  34.804  32.513   8.730
 1031POPC   C2B15500  34.878  32.678   8.335
 1031POPC   C3B15501  34.970  32.464   7.977
 1031POPC   C4B15502  34.951  32.588   7.557
 1032POPC   NC315503  29.787  24.807   9.508
 1032POPC   PO415504  30.055  25.407   9.543
 1032POPC   GL115505  29.849  25.233   9.202
 1032POPC   GL215506  30.089  24.965   9.140
 1032POPC   C1A15507  29.664  25.369   8.807
 1032POPC   D2A15508  29.852  25.391   8.400
 1032POPC   C3A15509  29.727  25.298   7.970
 1032POPC   C4A15510  29.829  25.568   7.596
 1032POPC   C1B15511  30.168  25.192   8.797
 1032POPC   C2B15512  30.321  25.185   8.429
 1032POPC   C3B15513  30.232  25.322   8.048
 1032POPC   C4B15514  30.141  25.146   7.667
 1033POPC   NC315515  25.160   5.475   9.500
 1033POPC   PO415516  25.524   6.036   9.450
 1033POPC   GL115517  25.373   6.014   9.064
 1033POPC   GL215518  25.159   5.742   9.069
 1033POPC   C1A15519  25.305   5.977   8.629
 1033POPC   D2A15520  25.215   5.973   8.220
 1033POPC   C3A15521  25.402   5.851   7.873
 1033POPC   C4A15522  25.316   6.303   7.809
 1033POPC   C1B15523  25.047   5.502   8.723
 1033POPC   C2B15524  24.931   5.587   8.291
 1033POPC   C3B15525  25.084   5.356   7.936
 1033POPC   C4B15526  25.203   5.487   7.527
 1034POPC   NC315527  39.338  17.036   9.503
 1034POPC   PO415528  38.952  16.575   9.395
 1034POPC   GL115529  39.173  16.734   9.065
 1034POPC   GL215530  39.026  17.059   9.118
 1034POPC   C1A15531  39.081  16.692   8.600
 1034POPC   D2A15532  39.349  16.794   8.223
 1034POPC   C3A15533  39.314  16.695   7.781
 1034POPC   C4A15534  39.501  16.842   7.358
 1034POPC   C1B15535  39.300  17.146   8.781
 1034POPC   C2B15536  39.188  17.294   8.394
 1034POPC   C3B15537  39.047  17.144   7.994
 1034POPC   C4B15538  39.270  17.186   7.641
 1035POPC   NC315539   8.651  22.060   9.235
 1035POPC   PO415540   9.010  22.430   9.588
 1035POPC   GL115541   9.151  22.224   9.162
 1035POPC   GL215542   9.057  21.882   9.003
 1035POPC   C1A15543   9.252  22.214   8.698
 1035POPC   D2A15544   8.999  22.239   8.325
 1035POPC   C3A15545   9.099  22.078   7.931
 1035POPC   C4A15546   9.078  22.390   7.563
 1035POPC   C1B15547   8.735  21.963   8.642
 1035POPC   C2B15548   8.459  21.794   8.338
 1035POPC   C3B15549   8.661  21.777   7.947
 1035POPC   C4B15550   8.714  22.042   7.600
 1036POPC   NC315551  36.068   3.522   9.461
 1036POPC   PO415552  36.706   3.693   9.431
 1036POPC   GL115553  36.337   3.732   9.099
 1036POPC   GL215554  35.941   3.780   9.053
 1036POPC   C1A15555  36.214   3.540   8.700
 1036POPC   D2A15556  36.000   3.603   8.301
 1036POPC   C3A15557  36.208   3.626   7.870
 1036POPC   C4A15558  36.521   3.387   7.615
 1036POPC   C1B15559  35.698   3.634   8.735
 1036POPC   C2B15560  35.525   3.796   8.371
 1036POPC   C3B15561  35.679   3.770   7.957
 1036POPC   C4B15562  35.822   3.730   7.533
 1037POPC   NC315563   4.874  20.959   9.600
 1037POPC   PO415564   4.860  20.311   9.416
 1037POPC   GL115565   5.132  20.588   9.162
 1037POPC   GL215566   5.312  20.874   9.265
 1037POPC   C1A15567   5.269  20.583   8.735
 1037POPC   D2A15568   5.154  20.390   8.362
 1037POPC   C3A15569   5.189  20.670   8.040
 1037POPC   C4A15570   5.330  20.484   7.658
 1037POPC   C1B15571   5.064  21.037   8.913
 1037POPC   C2B15572   5.016  21.078   8.452
 1037POPC   C3B15573   4.891  21.105   8.007
 1037POPC   C4B15574   4.894  20.810   7.653
 1038POPC   NC315575  31.912  41.105   9.533
 1038POPC   PO415576  32.158  41.741   9.491
 1038POPC   GL115577  32.276  41.833   9.096
 1038POPC   GL215578  32.260  41.479   9.001
 1038POPC   C1A15579  32.245  41.900   8.679
 1038POPC   D2A15580  32.322  41.605   8.372
 1038POPC   C3A15581  32.142  41.734   8.001
 1038POPC   C4A15582  32.264  41.953   7.643
 1038POPC   C1B15583  32.190  41.126   8.746
 1038POPC   C2B15584  32.375  41.042   8.357
 1038POPC   C3B15585  32.329  41.255   7.969
 1038POPC   C4B15586  32.586  41.538   7.745
 1039POPC   NC315587  28.844  29.483   9.492
 1039POPC   PO415588  29.397  29.166   9.615
 1039POPC   GL115589  29.272  29.349   9.222
 1039POPC   GL215590  29.056  29.049   9.172
 1039POPC   C1A15591  29.062  29.412   8.810
 1039POPC   D2A15592  29.082  29.142   8.442
 1039POPC   C3A15593  29.038  29.345   8.072
 1039POPC   C4A15594  29.027  29.291   7.653
 1039POPC   C1B15595  28.945  28.794   8.801
 1039POPC   C2B15596  29.044  28.601   8.408
 1039POPC   C3B15597  28.999  28.795   8.020
 1039POPC   C4B15598  28.654  28.896   7.784
 1040POPC   NC315599   4.823   0.924   9.486
 1040POPC   PO415600   4.380   1.423   9.470
 1040POPC   GL115601   4.313   1.154   9.156
 1040POPC   GL215602   4.662   1.177   9.078
 1040POPC   C1A15603   4.074   1.105   8.776
 1040POPC   D2A15604   4.156   0.887   8.390
 1040POPC   C3A15605   4.216   1.081   8.026
 1040POPC   C4A15606   4.416   1.154   7.671
 1040POPC   C1B15607   4.573   0.959   8.716
 1040POPC   C2B15608   4.671   1.063   8.307
 1040POPC   C3B15609   4.653   1.456   8.087
 1040POPC   C4B15610   4.713   1.577   7.665
 1041POPC   NC315611   5.018  27.950   9.845
 1041POPC   PO415612   5.214  27.438   9.550
 1041POPC   GL115613   5.226  27.623   9.144
 1041POPC   GL215614   5.132  27.409   8.933
 1041POPC   C1A15615   5.410  27.862   8.775
 1041POPC   D2A15616   5.337  28.042   8.360
 1041POPC   C3A15617   5.188  27.767   8.047
 1041POPC   C4A15618   5.376  27.666   7.641
 1041POPC   C1B15619   4.996  27.624   8.588
 1041POPC   C2B15620   4.841  27.432   8.263
 1041POPC   C3B15621   4.693  27.614   7.964
 1041POPC   C4B15622   4.904  27.493   7.653
 1042POPC   NC315623  36.278  14.571   9.494
 1042POPC   PO415624  35.862  14.058   9.350
 1042POPC   GL115625  36.056  14.316   9.110
 1042POPC   GL215626  36.373  14.179   9.163
 1042POPC   C1A15627  36.166  14.559   8.766
 1042POPC   D2A15628  36.006  14.682   8.366
 1042POPC   C3A15629  36.246  14.523   8.044
 1042POPC   C4A15630  36.067  14.512   7.673
 1042POPC   C1B15631  36.272  14.007   8.768
 1042POPC   C2B15632  36.334  14.127   8.350
 1042POPC   C3B15633  36.248  13.970   7.928
 1042POPC   C4B15634  36.233  14.069   7.476
 1043POPC   NC315635   1.871  40.943   9.445
 1043POPC   PO415636   2.444  40.550   9.561
 1043POPC   GL115637   2.244  40.677   9.140
 1043POPC   GL215638   2.243  41.034   9.099
 1043POPC   C1A15639   1.886  40.726   8.821
 1043POPC   D2A15640   1.697  40.961   8.440
 1043POPC   C3A15641   1.717  40.795   8.036
 1043POPC   C4A15642   1.722  40.966   7.609
 1043POPC   C1B15643   2.314  40.932   8.663
 1043POPC   C2B15644   2.169  41.018   8.258
 1043POPC   C3B15645   2.181  40.962   7.825
 1043POPC   C4B15646   2.390  41.050   7.449
 1044POPC   NC315647  15.869   3.085   9.431
 1044POPC   PO415648  16.116   2.519   9.683
 1044POPC   GL115649  15.989   2.399   9.160
 1044POPC   GL215650  15.859   2.708   9.065
 1044POPC   C1A15651  16.100   2.392   8.683
 1044POPC   D2A15652  16.003   2.506   8.207
 1044POPC   C3A15653  16.066   2.830   7.868
 1044POPC   C4A15654  16.135   2.779   7.431
 1044POPC   C1B15655  15.636   2.618   8.694
 1044POPC   C2B15656  15.473   2.560   8.314
 1044POPC   C3B15657  15.561   2.699   7.913
 1044POPC   C4B15658  15.687   2.553   7.542
 1045POPC   NC315659  21.958   0.457   9.609
 1045POPC   PO415660  22.451   0.768   9.264
 1045POPC   GL115661  22.124   0.623   9.037
 1045POPC   GL215662  22.070   0.325   9.117
 1045POPC   C1A15663  22.073   0.670   8.605
 1045POPC   D2A15664  22.025   0.548   8.196
 1045POPC   C3A15665  22.351   0.469   7.947
 1045POPC   C4A15666  22.236   0.440   7.548
 1045POPC   C1B15667  21.842   0.235   8.755
 1045POPC   C2B15668  21.930   0.043   8.352
 1045POPC   C3B15669  21.976   0.116   7.915
 1045POPC   C4B15670  21.886   0.085   7.501
 1046POPC   NC315671  37.578  30.322   9.408
 1046POPC   PO415672  37.824  29.669   9.531
 1046POPC   GL115673  37.856  29.932   9.172
 1046POPC   GL215674  37.541  30.034   8.996
 1046POPC   C1A15675  38.005  29.924   8.748
 1046POPC   D2A15676  37.808  29.966   8.359
 1046POPC   C3A15677  37.956  29.962   7.933
 1046POPC   C4A15678  37.594  30.017   7.667
 1046POPC   C1B15679  37.601  29.613   8.853
 1046POPC   C2B15680  37.596  29.462   8.439
 1046POPC   C3B15681  37.574  29.634   8.019
 1046POPC   C4B15682  37.687  29.421   7.635
 1047POPC   NC315683  17.194   2.115   9.568
 1047POPC   PO415684  17.595   1.654   9.519
 1047POPC   GL115685  17.645   1.997   9.244
 1047POPC   GL215686  17.317   2.049   9.083
 1047POPC   C1A15687  17.800   2.134   8.843
 1047POPC   D2A15688  17.556   2.066   8.471
 1047POPC   C3A15689  17.725   1.819   8.104
 1047POPC   C4A15690  17.760   2.065   7.719
 1047POPC   C1B15691  17.050   2.238   8.796
 1047POPC   C2B15692  17.131   2.360   8.362
 1047POPC   C3B15693  17.321   2.135   8.020
 1047POPC   C4B15694  17.100   1.958   7.691
 1048POPC   NC315695  36.029  23.391   9.528
 1048POPC   PO415696  36.071  24.037   9.281
 1048POPC   GL115697  36.090  23.699   9.085
 1048POPC   GL215698  36.329  23.477   9.133
 1048POPC   C1A15699  35.931  23.642   8.720
 1048POPC   D2A15700  35.801  23.878   8.368
 1048POPC   C3A15701  35.929  23.694   8.033
 1048POPC   C4A15702  36.070  23.904   7.699
 1048POPC   C1B15703  36.441  23.515   8.728
 1048POPC   C2B15704  36.314  23.753   8.359
 1048POPC   C3B15705  36.449  23.693   7.973
 1048POPC   C4B15706  36.254  23.422   7.671
 1049POPC   NC315707  43.701  25.563   9.314
 1049POPC   PO415708  43.080  25.510   9.666
 1049POPC   GL115709  43.193  25.438   9.267
 1049POPC   GL215710  42.958  25.661   9.176
 1049POPC   C1A15711  43.202  25.308   8.809
 1049POPC   D2A15712  43.138  25.331   8.330
 1049POPC   C3A15713  42.972  25.047   8.001
 1049POPC   C4A15714  42.981  24.796   7.595
 1049POPC   C1B15715  42.917  25.718   8.746
 1049POPC   C2B15716  42.949  25.795   8.303
 1049POPC   C3B15717  42.860  25.547   7.925
 1049POPC   C4B15718  43.034  25.330   7.562
 1050POPC   NC315719  32.891  11.327   9.449
 1050POPC   PO415720  32.834  11.901   9.397
 1050POPC   GL115721  32.909  11.600   9.048
 1050POPC   GL215722  33.231  11.432   9.105
 1050POPC   C1A15723  32.883  11.387   8.677
 1050POPC   D2A15724  33.070  11.129   8.370
 1050POPC   C3A15725  33.088  11.305   7.975
 1050POPC   C4A15726  32.958  11.210   7.561
 1050POPC   C1B15727  33.381  11.316   8.754
 1050POPC   C2B15728  33.434  11.525   8.368
 1050POPC   C3B15729  33.600  11.415   8.000
 1050POPC   C4B15730  33.477  11.319   7.622
 1051POPC   NC315731  21.790   1.160   9.595
 1051POPC   PO415732  21.163   0.920   9.505
 1051POPC   GL115733  21.406   1.107   9.200
 1051POPC   GL215734  21.668   0.856   9.176
 1051POPC   C1A15735  21.281   1.282   8.822
 1051POPC   D2A15736  21.447   1.332   8.447
 1051POPC   C3A15737  21.216   1.205   8.081
 1051POPC   C4A15738  21.246   1.277   7.663
 1051POPC   C1B15739  21.796   1.081   8.746
 1051POPC   C2B15740  21.775   0.979   8.299
 1051POPC   C3B15741  21.617   0.992   7.884
 1051POPC   C4B15742  21.736   1.228   7.497
 1052POPC   NC315743  10.713  41.263   9.352
 1052POPC   PO415744  11.045  41.705   9.533
 1052POPC   GL115745  10.820  41.799   9.154
 1052POPC   GL215746  10.475  41.744   9.236
 1052POPC   C1A15747  10.648  41.608   8.765
 1052POPC   D2A15748  10.622  41.256   8.481
 1052POPC   C3A15749  10.575  41.489   8.100
 1052POPC   C4A15750  10.397  41.346   7.756
 1052POPC   C1B15751  10.222  41.855   8.872
 1052POPC   C2B15752  10.350  42.019   8.472
 1052POPC   C3B15753  10.194  42.078   8.084
 1052POPC   C4B15754  10.279  41.844   7.745
 1053POPC   NC315755  27.215  44.970   9.468
 1053POPC   PO415756  27.548  44.371   9.462
 1053POPC   GL115757  27.639  44.777   9.193
 1053POPC   GL215758  27.381  44.887   9.003
 1053POPC   C1A15759  27.845  44.873   8.763
 1053POPC   D2A15760  27.854  44.562   8.436
 1053POPC   C3A15761  27.601  44.661   8.099
 1053POPC   C4A15762  27.810  44.781   7.716
 1053POPC   C1B15763  27.371  44.643   8.645
 1053POPC   C2B15764  27.119  44.724   8.299
 1053POPC   C3B15765  27.215   0.016   7.974
 1053POPC   C4B15766  27.368  44.951   7.567
 1054POPC   NC315767   1.602  24.209   9.452
 1054POPC   PO415768   2.196  24.676   9.426
 1054POPC   GL115769   1.890  24.551   9.162
 1054POPC   GL215770   2.027  24.192   9.183
 1054POPC   C1A15771   1.715  24.699   8.762
 1054POPC   D2A15772   1.875  24.836   8.357
 1054POPC   C3A15773   2.227  24.671   8.080
 1054POPC   C4A15774   1.984  24.773   7.725
 1054POPC   C1B15775   1.828  24.199   8.804
 1054POPC   C2B15776   2.091  24.377   8.473
 1054POPC   C3B15777   1.999  24.231   8.016
 1054POPC   C4B15778   1.860  24.274   7.577
 1055POPC   NC315779   9.382   7.234   9.436
 1055POPC   PO415780  10.113   7.336   9.322
 1055POPC   GL115781   9.758   7.254   9.108
 1055POPC   GL215782   9.704   7.598   9.008
 1055POPC   C1A15783   9.578   7.181   8.709
 1055POPC   D2A15784   9.855   7.431   8.427
 1055POPC   C3A15785   9.862   7.446   7.966
 1055POPC   C4A15786   9.630   7.092   7.739
 1055POPC   C1B15787   9.430   7.668   8.640
 1055POPC   C2B15788   9.432   7.625   8.192
 1055POPC   C3B15789   9.435   7.581   7.740
 1055POPC   C4B15790   9.400   7.739   7.307
 1056POPC   NC315791   6.822   3.205   9.295
 1056POPC   PO415792   6.415   3.682   9.556
 1056POPC   GL115793   6.423   3.711   9.100
 1056POPC   GL215794   6.083   3.579   9.091
 1056POPC   C1A15795   6.737   3.632   8.680
 1056POPC   D2A15796   6.685   3.366   8.343
 1056POPC   C3A15797   6.633   3.463   7.901
 1056POPC   C4A15798   6.806   3.366   7.489
 1056POPC   C1B15799   6.255   3.510   8.667
 1056POPC   C2B15800   6.302   3.718   8.268
 1056POPC   C3B15801   6.222   3.766   7.835
 1056POPC   C4B15802   6.174   3.783   7.380
 1057POPC   NC315803  35.541  17.958   9.402
 1057POPC   PO415804  35.264  18.582   9.458
 1057POPC   GL115805  35.170  18.404   9.085
 1057POPC   GL215806  35.162  18.051   9.091
 1057POPC   C1A15807  35.287  18.500   8.676
 1057POPC   D2A15808  35.060  18.574   8.326
 1057POPC   C3A15809  35.225  18.549   7.919
 1057POPC   C4A15810  35.255  18.206   7.654
 1057POPC   C1B15811  35.319  17.990   8.672
 1057POPC   C2B15812  35.350  18.128   8.232
 1057POPC   C3B15813  35.549  17.895   7.890
 1057POPC   C4B15814  35.384  17.726   7.491
 1058POPC   NC315815  38.777   9.790   9.622
 1058POPC   PO415816  38.101   9.704   9.570
 1058POPC   GL115817  38.241   9.633   9.124
 1058POPC   GL215818  38.022   9.802   9.016
 1058POPC   C1A15819  38.441   9.665   8.713
 1058POPC   D2A15820  38.286   9.702   8.300
 1058POPC   C3A15821  38.574   9.825   7.974
 1058POPC   C4A15822  38.676   9.642   7.553
 1058POPC   C1B15823  38.159  10.091   8.702
 1058POPC   C2B15824  38.045  10.185   8.286
 1058POPC   C3B15825  38.098   9.983   7.909
 1058POPC   C4B15826  38.199   9.585   7.715
 1059POPC   NC315827   2.866  14.838   9.414
 1059POPC   PO415828   2.932  14.227   9.802
 1059POPC   GL115829   2.877  14.323   9.291
 1059POPC   GL215830   2.539  14.261   9.130
 1059POPC   C1A15831   2.955  14.558   8.845
 1059POPC   D2A15832   2.795  14.639   8.431
 1059POPC   C3A15833   2.892  14.256   8.224
 1059POPC   C4A15834   2.901  14.126   7.824
 1059POPC   C1B15835   2.626  14.167   8.672
 1059POPC   C2B15836   2.398  14.255   8.262
 1059POPC   C3B15837   2.421  14.350   7.797
 1059POPC   C4B15838   2.282  14.446   7.335
 1060POPC   NC315839  26.686  20.240   9.442
 1060POPC   PO415840  26.887  19.545   9.495
 1060POPC   GL115841  26.699  19.786   9.159
 1060POPC   GL215842  26.818  20.054   9.006
 1060POPC   C1A15843  26.554  19.699   8.721
 1060POPC   D2A15844  26.730  19.436   8.387
 1060POPC   C3A15845  26.648  19.561   7.974
 1060POPC   C4A15846  26.853  19.581   7.622
 1060POPC   C1B15847  26.916  20.112   8.629
 1060POPC   C2B15848  26.709  19.957   8.296
 1060POPC   C3B15849  26.832  20.018   7.904
 1060POPC   C4B15850  26.800  20.137   7.512
 1061POPC   NC315851  28.525  20.401   9.701
 1061POPC   PO415852  28.025  20.824   9.540
 1061POPC   GL115853  28.415  20.853   9.280
 1061POPC   GL215854  28.495  20.494   9.195
 1061POPC   C1A15855  28.392  20.931   8.823
 1061POPC   D2A15856  28.132  20.705   8.499
 1061POPC   C3A15857  28.200  20.731   8.053
 1061POPC   C4A15858  28.172  20.517   7.642
 1061POPC   C1B15859  28.571  20.441   8.760
 1061POPC   C2B15860  28.632  20.578   8.357
 1061POPC   C3B15861  28.605  20.448   7.953
 1061POPC   C4B15862  28.656  20.697   7.600
 1062POPC   NC315863  24.686  16.352   9.579
 1062POPC   PO415864  24.235  15.877   9.733
 1062POPC   GL115865  24.313  16.084   9.249
 1062POPC   GL215866  24.699  16.071   9.109
 1062POPC   C1A15867  24.289  15.915   8.779
 1062POPC   D2A15868  24.553  15.946   8.364
 1062POPC   C3A15869  24.416  15.680   8.019
 1062POPC   C4A15870  24.296  15.928   7.665
 1062POPC   C1B15871  24.792  15.764   8.762
 1062POPC   C2B15872  24.875  15.498   8.425
 1062POPC   C3B15873  24.929  15.679   8.008
 1062POPC   C4B15874  24.765  16.074   7.791
 1063POPC   NC315875  31.281   7.536   9.504
 1063POPC   PO415876  31.801   7.234   9.876
 1063POPC   GL115877  31.756   7.434   9.377
 1063POPC   GL215878  31.481   7.212   9.170
 1063POPC   C1A15879  31.817   7.485   8.885
 1063POPC   D2A15880  31.671   7.316   8.467
 1063POPC   C3A15881  31.857   7.309   8.032
 1063POPC   C4A15882  31.558   7.366   7.687
 1063POPC   C1B15883  31.296   7.467   8.849
 1063POPC   C2B15884  31.175   7.464   8.423
 1063POPC   C3B15885  31.270   7.595   8.021
 1063POPC   C4B15886  31.232   7.771   7.614
 1064POPC   NC315887  16.229  26.732   9.809
 1064POPC   PO415888  15.755  26.551   9.246
 1064POPC   GL115889  15.911  26.861   8.968
 1064POPC   GL215890  15.594  27.009   8.871
 1064POPC   C1A15891  16.178  26.870   8.588
 1064POPC   D2A15892  16.259  26.514   8.309
 1064POPC   C3A15893  16.198  26.648   7.887
 1064POPC   C4A15894  16.190  27.085   7.791
 1064POPC   C1B15895  15.664  26.757   8.522
 1064POPC   C2B15896  15.842  26.958   8.182
 1064POPC   C3B15897  15.745  26.874   7.799
 1064POPC   C4B15898  15.649  26.487   7.717
 1065POPC   NC315899   6.410  14.417   9.561
 1065POPC   PO415900   7.069  14.306   9.555
 1065POPC   GL115901   6.829  14.548   9.247
 1065POPC   GL215902   6.583  14.330   9.096
 1065POPC   C1A15903   6.690  14.738   8.835
 1065POPC   D2A15904   6.615  14.479   8.478
 1065POPC   C3A15905   6.786  14.539   8.101
 1065POPC   C4A15906   6.637  14.666   7.729
 1065POPC   C1B15907   6.544  14.046   8.718
 1065POPC   C2B15908   6.580  13.993   8.251
 1065POPC   C3B15909   6.576  14.138   7.816
 1065POPC   C4B15910   6.556  14.280   7.382
 1066POPC   NC315911  18.846  35.748   9.623
 1066POPC   PO415912  19.032  36.398   9.576
 1066POPC   GL115913  18.953  36.141   9.243
 1066POPC   GL215914  19.154  35.870   9.210
 1066POPC   C1A15915  19.052  36.181   8.801
 1066POPC   D2A15916  19.139  36.022   8.405
 1066POPC   C3A15917  18.999  36.193   8.016
 1066POPC   C4A15918  18.952  36.050   7.608
 1066POPC   C1B15919  18.767  35.766   8.964
 1066POPC   C2B15920  18.729  35.711   8.539
 1066POPC   C3B15921  18.647  35.867   8.164
 1066POPC   C4B15922  18.562  35.767   7.774
 1067POPC   NC315923   7.995  13.625   9.284
 1067POPC   PO415924   7.398  13.621   9.617
 1067POPC   GL115925   7.383  13.700   9.194
 1067POPC   GL215926   7.649  13.923   9.093
 1067POPC   C1A15927   7.391  13.513   8.778
 1067POPC   D2A15928   7.579  13.511   8.378
 1067POPC   C3A15929   7.342  13.455   7.973
 1067POPC   C4A15930   7.641  13.506   7.646
 1067POPC   C1B15931   7.395  14.010   8.774
 1067POPC   C2B15932   7.483  14.042   8.388
 1067POPC   C3B15933   7.602  13.886   8.014
 1067POPC   C4B15934   7.330  13.914   7.654
 1068POPC   NC315935  39.466   2.297   9.492
 1068POPC   PO415936  39.202   2.920   9.500
 1068POPC   GL115937  39.312   2.785   9.143
 1068POPC   GL215938  39.096   2.494   9.195
 1068POPC   C1A15939  39.247   2.975   8.755
 1068POPC   D2A15940  39.192   2.775   8.372
 1068POPC   C3A15941  39.225   2.967   7.987
 1068POPC   C4A15942  39.436   2.952   7.592
 1068POPC   C1B15943  39.263   2.442   8.768
 1068POPC   C2B15944  39.365   2.315   8.347
 1068POPC   C3B15945  39.436   2.492   7.987
 1068POPC   C4B15946  39.174   2.539   7.691
 1069POPC   NC315947  12.660  41.548   9.470
 1069POPC   PO415948  13.161  41.147   9.425
 1069POPC   GL115949  13.046  41.474   9.120
 1069POPC   GL215950  12.688  41.566   8.963
 1069POPC   C1A15951  13.129  41.555   8.719
 1069POPC   D2A15952  12.893  41.575   8.365
 1069POPC   C3A15953  13.019  41.680   7.977
 1069POPC   C4A15954  12.880  41.339   7.799
 1069POPC   C1B15955  12.465  41.735   8.582
 1069POPC   C2B15956  12.546  41.913   8.150
 1069POPC   C3B15957  12.590  41.786   7.724
 1069POPC   C4B15958  12.785  41.971   7.344
 1070POPC   NC315959  33.583  21.274   9.528
 1070POPC   PO415960  34.178  21.105   9.216
 1070POPC   GL115961  33.887  21.313   9.005
 1070POPC   GL215962  33.773  21.591   9.168
 1070POPC   C1A15963  33.920  21.351   8.569
 1070POPC   D2A15964  33.879  21.296   8.144
 1070POPC   C3A15965  34.113  21.041   7.861
 1070POPC   C4A15966  33.924  21.374   7.609
 1070POPC   C1B15967  33.569  21.675   8.757
 1070POPC   C2B15968  33.658  21.749   8.312
 1070POPC   C3B15969  33.598  21.694   7.859
 1070POPC   C4B15970  33.582  21.756   7.399
 1071POPC   NC315971  12.998  17.863   9.496
 1071POPC   PO415972  12.710  17.283   9.608
 1071POPC   GL115973  12.828  17.432   9.221
 1071POPC   GL215974  12.536  17.268   9.088
 1071POPC   C1A15975  12.955  17.428   8.795
 1071POPC   D2A15976  12.771  17.567   8.389
 1071POPC   C3A15977  12.918  17.589   7.945
 1071POPC   C4A15978  12.990  17.455   7.460
 1071POPC   C1B15979  12.436  17.597   8.803
 1071POPC   C2B15980  12.260  17.636   8.382
 1071POPC   C3B15981  12.431  17.377   8.047
 1071POPC   C4B15982  12.520  17.490   7.646
 1072POPC   NC315983  26.078  39.363   9.514
 1072POPC   PO415984  26.261  38.756   9.424
 1072POPC   GL115985  26.022  38.876   9.063
 1072POPC   GL215986  25.933  39.243   9.057
 1072POPC   C1A15987  26.004  39.005   8.619
 1072POPC   D2A15988  26.289  39.113   8.329
 1072POPC   C3A15989  26.183  38.857   7.996
 1072POPC   C4A15990  25.883  38.986   7.702
 1072POPC   C1B15991  26.182  39.446   8.762
 1072POPC   C2B15992  26.036  39.595   8.367
 1072POPC   C3B15993  25.964  39.462   7.943
 1072POPC   C4B15994  26.143  39.669   7.581
 1073POPC   NC315995  41.774  29.213   9.294
 1073POPC   PO415996  42.484  29.230   9.397
 1073POPC   GL115997  42.229  29.207   9.052
 1073POPC   GL215998  42.000  28.925   8.976
 1073POPC   C1A15999  42.376  29.114   8.659
 1073POPC   D2A16000  42.605  29.127   8.291
 1073POPC   C3A16001  42.454  29.363   7.963
 1073POPC   C4A16002  42.531  29.451   7.548
 1073POPC   C1B16003  41.871  29.171   8.658
 1073POPC   C2B16004  42.057  29.316   8.306
 1073POPC   C3B16005  42.027  29.099   7.951
 1073POPC   C4B16006  42.320  28.986   7.641
 1074POPC   NC316007  37.418  43.146   9.272
 1074POPC   PO416008  36.889  42.971   9.625
 1074POPC   GL116009  36.835  43.137   9.225
 1074POPC   GL216010  37.002  42.868   9.096
 1074POPC   C1A16011  36.644  43.259   8.817
 1074POPC   D2A16012  36.799  43.440   8.454
 1074POPC   C3A16013  36.833  43.263   8.083
 1074POPC   C4A16014  36.912  43.466   7.727
 1074POPC   C1B16015  37.115  43.024   8.676
 1074POPC   C2B16016  37.288  43.283   8.357
 1074POPC   C3B16017  37.316  43.199   7.917
 1074POPC   C4B16018  37.040  42.964   7.689
 1075POPC   NC316019  11.394  31.636   9.967
 1075POPC   PO416020  11.714  31.416   9.442
 1075POPC   GL116021  11.477  31.560   9.122
 1075POPC   GL216022  11.379  31.237   9.064
 1075POPC   C1A16023  11.175  31.730   8.790
 1075POPC   D2A16024  11.255  31.924   8.377
 1075POPC   C3A16025  11.122  31.758   7.973
 1075POPC   C4A16026  10.960  31.522   7.625
 1075POPC   C1B16027  11.466  31.358   8.652
 1075POPC   C2B16028  11.220  31.372   8.318
 1075POPC   C3B16029  11.301  31.265   7.914
 1075POPC   C4B16030  11.283  31.125   7.504
 1076POPC   NC316031  31.315  14.947   9.678
 1076POPC   PO416032  31.131  15.558   9.549
 1076POPC   GL116033  31.220  15.214   9.228
 1076POPC   GL216034  31.560  15.109   9.246
 1076POPC   C1A16035  31.350  15.081   8.784
 1076POPC   D2A16036  31.185  15.238   8.374
 1076POPC   C3A16037  31.353  15.132   7.980
 1076POPC   C4A16038  31.669  14.955   7.760
 1076POPC   C1B16039  31.812  15.263   8.902
 1076POPC   C2B16040  31.666  15.423   8.487
 1076POPC   C3B16041  31.824  15.357   8.065
 1076POPC   C4B16042  31.735  15.502   7.657
 1077POPC   NC316043  26.736  10.195   9.386
 1077POPC   PO416044  27.362  10.386   9.424
 1077POPC   GL116045  27.082  10.550   9.090
 1077POPC   GL216046  26.706  10.633   9.087
 1077POPC   C1A16047  27.108  10.768   8.701
 1077POPC   D2A16048  26.963  10.832   8.292
 1077POPC   C3A16049  26.767  10.422   8.142
 1077POPC   C4A16050  26.688  10.326   7.683
 1077POPC   C1B16051  26.558  10.671   8.641
 1077POPC   C2B16052  26.451  10.807   8.235
 1077POPC   C3B16053  26.706  10.821   7.839
 1077POPC   C4B16054  26.610  10.808   7.409
 1078POPC   NC316055  14.252  24.943   9.382
 1078POPC   PO416056  14.632  25.371   9.753
 1078POPC   GL116057  14.453  25.390   9.303
 1078POPC   GL216058  14.176  25.596   9.367
 1078POPC   C1A16059  14.556  25.361   8.829
 1078POPC   D2A16060  14.511  25.164   8.432
 1078POPC   C3A16061  14.629  25.431   8.100
 1078POPC   C4A16062  14.540  25.307   7.684
 1078POPC   C1B16063  14.074  25.479   8.930
 1078POPC   C2B16064  14.109  25.505   8.465
 1078POPC   C3B16065  14.137  25.347   8.025
 1078POPC   C4B16066  14.112  25.583   7.665
 1079POPC   NC316067  12.771   4.024   9.475
 1079POPC   PO416068  12.404   4.637   9.568
 1079POPC   GL116069  12.560   4.428   9.203
 1079POPC   GL216070  12.751   4.171   9.005
 1079POPC   C1A16071  12.663   4.615   8.812
 1079POPC   D2A16072  12.769   4.372   8.449
 1079POPC   C3A16073  12.876   4.512   8.046
 1079POPC   C4A16074  12.648   4.489   7.659
 1079POPC   C1B16075  13.000   3.965   8.694
 1079POPC   C2B16076  13.109   4.009   8.247
 1079POPC   C3B16077  13.222   4.094   7.848
 1079POPC   C4B16078  13.157   4.448   7.622
 1080POPC   NC316079   6.354   0.830   9.438
 1080POPC   PO416080   6.881   0.492   9.632
 1080POPC   GL116081   6.688   0.514   9.227
 1080POPC   GL216082   6.835   0.857   9.192
 1080POPC   C1A16083   6.500   0.423   8.796
 1080POPC   D2A16084   6.220   0.385   8.419
 1080POPC   C3A16085   6.461   0.251   8.068
 1080POPC   C4A16086   6.482   0.163   7.647
 1080POPC   C1B16087   7.002   0.611   8.843
 1080POPC   C2B16088   7.106   0.566   8.424
 1080POPC   C3B16089   7.062   0.730   8.021
 1080POPC   C4B16090   6.854   0.488   7.698
 1081POPC   NC316091  40.176  17.313   9.707
 1081POPC   PO416092  39.849  17.931   9.629
 1081POPC   GL116093  40.172  17.661   9.308
 1081POPC   GL216094  39.989  17.373   9.204
 1081POPC   C1A16095  40.337  17.464   8.841
 1081POPC   D2A16096  40.132  17.403   8.436
 1081POPC   C3A16097  40.260  17.474   8.058
 1081POPC   C4A16098  39.945  17.627   7.821
 1081POPC   C1B16099  39.811  17.246   8.809
 1081POPC   C2B16100  39.701  17.120   8.392
 1081POPC   C3B16101  39.738  17.116   7.933
 1081POPC   C4B16102  39.754  17.270   7.506
 1082POPC   NC316103  13.271  40.794   9.713
 1082POPC   PO416104  12.710  40.884   9.385
 1082POPC   GL116105  12.698  40.727   8.969
 1082POPC   GL216106  12.806  41.063   8.898
 1082POPC   C1A16107  12.765  40.718   8.530
 1082POPC   D2A16108  12.793  41.042   8.224
 1082POPC   C3A16109  12.680  40.839   7.851
 1082POPC   C4A16110  12.593  40.422   7.644
 1082POPC   C1B16111  13.183  41.063   8.652
 1082POPC   C2B16112  13.276  41.200   8.235
 1082POPC   C3B16113  13.189  40.932   7.834
 1082POPC   C4B16114  13.079  41.140   7.389
 1083POPC   NC316115   1.271  33.339   9.386
 1083POPC   PO416116   0.787  32.909   9.598
 1083POPC   GL116117   0.866  32.941   9.141
 1083POPC   GL216118   1.209  33.054   8.987
 1083POPC   C1A16119   0.913  32.705   8.742
 1083POPC   D2A16120   1.151  32.642   8.378
 1083POPC   C3A16121   0.984  32.684   7.986
 1083POPC   C4A16122   1.183  32.783   7.639
 1083POPC   C1B16123   0.942  33.219   8.668
 1083POPC   C2B16124   1.023  33.136   8.247
 1083POPC   C3B16125   1.362  33.155   7.926
 1083POPC   C4B16126   1.314  33.267   7.492
 1084POPC   NC316127   3.470  27.966   9.849
 1084POPC   PO416128   3.858  28.492   9.561
 1084POPC   GL116129   3.636  28.500   9.214
 1084POPC   GL216130   3.849  28.204   9.132
 1084POPC   C1A16131   3.457  28.449   8.806
 1084POPC   D2A16132   3.295  28.274   8.422
 1084POPC   C3A16133   3.519  28.247   8.088
 1084POPC   C4A16134   3.343  28.179   7.723
 1084POPC   C1B16135   3.978  28.505   8.832
 1084POPC   C2B16136   3.885  28.348   8.440
 1084POPC   C3B16137   4.035  28.444   8.039
 1084POPC   C4B16138   3.835  28.312   7.689
 1085POPC   NC316139  37.101  14.008   9.568
 1085POPC   PO416140  36.638  14.479   9.821
 1085POPC   GL116141  36.788  14.380   9.357
 1085POPC   GL216142  37.127  14.357   9.208
 1085POPC   C1A16143  36.758  14.327   8.874
 1085POPC   D2A16144  36.969  14.354   8.468
 1085POPC   C3A16145  36.765  14.520   8.095
 1085POPC   C4A16146  36.597  14.310   7.729
 1085POPC   C1B16147  37.331  14.438   8.830
 1085POPC   C2B16148  37.419  14.602   8.422
 1085POPC   C3B16149  37.277  14.467   8.039
 1085POPC   C4B16150  37.454  14.400   7.634
 1086POPC   NC316151  43.909  42.296   9.608
 1086POPC   PO416152  43.978  41.591   9.550
 1086POPC   GL116153  44.031  42.001   9.211
 1086POPC   GL216154  43.757  42.307   9.126
 1086POPC   C1A16155  44.096  42.253   8.773
 1086POPC   D2A16156  43.821  42.417   8.405
 1086POPC   C3A16157  43.838  42.283   7.950
 1086POPC   C4A16158  43.952  42.282   7.496
 1086POPC   C1B16159  43.788  42.707   8.846
 1086POPC   C2B16160  43.640  42.906   8.440
 1086POPC   C3B16161  43.530  42.700   8.044
 1086POPC   C4B16162  43.543  42.614   7.592
 1087POPC   NC316163  40.613  33.171   9.411
 1087POPC   PO416164  41.107  32.805   9.532
 1087POPC   GL116165  40.981  32.973   9.132
 1087POPC   GL216166  41.163  33.225   8.998
 1087POPC   C1A16167  40.728  32.773   8.823
 1087POPC   D2A16168  40.857  32.618   8.432
 1087POPC   C3A16169  40.820  32.890   8.069
 1087POPC   C4A16170  40.778  32.879   7.620
 1087POPC   C1B16171  40.923  33.204   8.631
 1087POPC   C2B16172  40.928  33.415   8.254
 1087POPC   C3B16173  41.144  33.283   7.924
 1087POPC   C4B16174  40.864  33.365   7.651
 1088POPC   NC316175   1.063  36.504   9.397
 1088POPC   PO416176   1.531  36.853   9.410
 1088POPC   GL116177   1.192  36.935   9.153
 1088POPC   GL216178   0.829  36.974   9.284
 1088POPC   C1A16179   1.311  36.802   8.770
 1088POPC   D2A16180   1.498  36.981   8.442
 1088POPC   C3A16181   1.480  36.803   8.055
 1088POPC   C4A16182   1.222  36.864   7.707
 1088POPC   C1B16183   0.785  36.998   8.841
 1088POPC   C2B16184   0.884  36.743   8.517
 1088POPC   C3B16185   0.901  36.747   8.091
 1088POPC   C4B16186   0.807  37.143   7.878
 1089POPC   NC316187  12.512  43.651   9.216
 1089POPC   PO416188  12.011  43.241   9.467
 1089POPC   GL116189  12.114  43.236   9.079
 1089POPC   GL216190  12.338  42.945   9.087
 1089POPC   C1A16191  11.958  43.099   8.671
 1089POPC   D2A16192  11.668  43.137   8.313
 1089POPC   C3A16193  11.888  42.901   8.024
 1089POPC   C4A16194  11.885  42.917   7.591
 1089POPC   C1B16195  12.466  43.203   8.729
 1089POPC   C2B16196  12.393  43.381   8.329
 1089POPC   C3B16197  12.529  43.400   7.919
 1089POPC   C4B16198  12.349  43.136   7.606
 1090POPC   NC316199   4.140  25.432   9.436
 1090POPC   PO416200   4.675  24.936   9.550
 1090POPC   GL116201   4.461  25.095   9.140
 1090POPC   GL216202   4.479  25.459   9.031
 1090POPC   C1A16203   4.271  25.024   8.723
 1090POPC   D2A16204   4.314  25.153   8.267
 1090POPC   C3A16205   4.124  24.909   7.937
 1090POPC   C4A16206   4.050  25.062   7.501
 1090POPC   C1B16207   4.255  25.706   8.693
 1090POPC   C2B16208   4.281  25.722   8.221
 1090POPC   C3B16209   4.211  25.499   7.816
 1090POPC   C4B16210   4.423  25.427   7.412
 1091POPC   NC316211  27.449  29.489   9.339
 1091POPC   PO416212  27.878  29.928   9.298
 1091POPC   GL116213  27.583  29.843   8.976
 1091POPC   GL216214  27.276  29.925   9.094
 1091POPC   C1A16215  27.499  30.028   8.580
 1091POPC   D2A16216  27.792  30.322   8.411
 1091POPC   C3A16217  27.905  30.105   8.049
 1091POPC   C4A16218  27.799  29.647   7.914
 1091POPC   C1B16219  27.019  29.973   8.748
 1091POPC   C2B16220  27.082  29.800   8.331
 1091POPC   C3B16221  27.387  29.994   8.044
 1091POPC   C4B16222  27.611  30.023   7.637
 1092POPC   NC316223   0.691   1.248   9.299
 1092POPC   PO416224   0.462   0.541   9.459
 1092POPC   GL116225   0.469   0.521   9.073
 1092POPC   GL216226   0.777   0.717   9.038
 1092POPC   C1A16227   0.278   0.452   8.667
 1092POPC   D2A16228  44.926   0.495   8.405
 1092POPC   C3A16229   0.127   0.464   8.025
 1092POPC   C4A16230   0.535   0.349   7.846
 1092POPC   C1B16231   0.777   0.397   8.715
 1092POPC   C2B16232   0.675   0.431   8.327
 1092POPC   C3B16233   0.836   0.730   8.056
 1092POPC   C4B16234   0.810   0.711   7.648
 1093POPC   NC316235  18.847   7.226   9.617
 1093POPC   PO416236  19.452   6.968   9.476
 1093POPC   GL116237  19.147   7.266   9.188
 1093POPC   GL216238  19.395   7.306   8.924
 1093POPC   C1A16239  18.932   7.491   8.842
 1093POPC   D2A16240  18.826   7.353   8.439
 1093POPC   C3A16241  18.943   7.556   8.095
 1093POPC   C4A16242  18.835   7.546   7.730
 1093POPC   C1B16243  19.219   7.066   8.616
 1093POPC   C2B16244  19.211   7.111   8.204
 1093POPC   C3B16245  18.925   7.071   7.923
 1093POPC   C4B16246  19.138   7.055   7.566
 1094POPC   NC316247  22.252  42.545   9.508
 1094POPC   PO416248  22.331  43.323   9.526
 1094POPC   GL116249  22.169  43.226   9.113
 1094POPC   GL216250  22.170  42.858   9.081
 1094POPC   C1A16251  22.085  43.207   8.651
 1094POPC   D2A16252  22.081  42.847   8.335
 1094POPC   C3A16253  22.006  43.028   7.919
 1094POPC   C4A16254  22.050  43.478   7.817
 1094POPC   C1B16255  22.505  42.975   8.779
 1094POPC   C2B16256  22.585  43.180   8.432
 1094POPC   C3B16257  22.566  43.194   8.013
 1094POPC   C4B16258  22.454  42.818   7.782
 1095POPC   NC316259  20.279  34.920   9.423
 1095POPC   PO416260  19.561  34.794   9.598
 1095POPC   GL116261  19.845  34.590   9.294
 1095POPC   GL216262  19.974  34.805   9.043
 1095POPC   C1A16263  19.757  34.292   8.955
 1095POPC   D2A16264  19.658  34.380   8.525
 1095POPC   C3A16265  19.925  34.288   8.175
 1095POPC   C4A16266  19.844  34.453   7.776
 1095POPC   C1B16267  20.145  34.537   8.736
 1095POPC   C2B16268  20.132  34.734   8.360
 1095POPC   C3B16269  20.278  34.647   7.992
 1095POPC   C4B16270  20.222  34.719   7.549
 1096POPC   NC316271  11.032   7.351   9.313
 1096POPC   PO416272  11.749   7.414   9.412
 1096POPC   GL116273  11.470   7.431   9.096
 1096POPC   GL216274  11.341   7.751   9.208
 1096POPC   C1A16275  11.279   7.305   8.688
 1096POPC   D2A16276  11.269   7.545   8.298
 1096POPC   C3A16277  11.443   7.371   7.948
 1096POPC   C4A16278  11.776   7.102   7.810
 1096POPC   C1B16279  11.205   7.819   8.778
 1096POPC   C2B16280  11.181   8.026   8.391
 1096POPC   C3B16281  11.055   7.920   7.976
 1096POPC   C4B16282  11.215   7.697   7.635
 1097POPC   NC316283  23.714  30.403  10.226
 1097POPC   PO416284  23.768  30.615   9.538
 1097POPC   GL116285  23.513  30.509   9.205
 1097POPC   GL216286  23.823  30.657   9.020
 1097POPC   C1A16287  23.392  30.645   8.792
 1097POPC   D2A16288  23.730  30.694   8.488
 1097POPC   C3A16289  23.533  30.718   8.089
 1097POPC   C4A16290  23.742  30.570   7.728
 1097POPC   C1B16291  24.059  31.002   8.809
 1097POPC   C2B16292  23.918  31.238   8.447
 1097POPC   C3B16293  23.954  31.015   8.069
 1097POPC   C4B16294  24.086  30.929   7.645
 1098POPC   NC316295   6.499  28.777   9.510
 1098POPC   PO416296   6.803  29.358   9.535
 1098POPC   GL116297   6.555  29.183   9.230
 1098POPC   GL216298   6.793  29.173   9.033
 1098POPC   C1A16299   6.367  29.006   8.836
 1098POPC   D2A16300   6.191  29.004   8.426
 1098POPC   C3A16301   6.443  28.916   8.066
 1098POPC   C4A16302   6.631  29.133   7.774
 1098POPC   C1B16303   6.789  29.302   8.641
 1098POPC   C2B16304   6.800  29.314   8.230
 1098POPC   C3B16305   6.773  29.588   7.917
 1098POPC   C4B16306   6.897  29.506   7.529
 1099POPC   NC316307  10.025  17.264   9.554
 1099POPC   PO416308   9.402  17.516   9.505
 1099POPC   GL116309   9.606  17.506   9.162
 1099POPC   GL216310   9.642  17.146   9.200
 1099POPC   C1A16311   9.509  17.566   8.735
 1099POPC   D2A16312   9.700  17.724   8.368
 1099POPC   C3A16313   9.642  17.482   8.016
 1099POPC   C4A16314   9.643  17.575   7.614
 1099POPC   C1B16315   9.894  17.229   8.829
 1099POPC   C2B16316   9.787  17.201   8.421
 1099POPC   C3B16317  10.054  17.154   8.058
 1099POPC   C4B16318   9.863  17.148   7.670
 1100POPC   NC316319  24.886  11.228   9.435
 1100POPC   PO416320  25.501  11.333   9.652
 1100POPC   GL116321  25.340  11.420   9.247
 1100POPC   GL216322  25.310  11.066   9.176
 1100POPC   C1A16323  25.065  11.522   8.861
 1100POPC   D2A16324  25.255  11.487   8.443
 1100POPC   C3A16325  25.088  11.459   8.067
 1100POPC   C4A16326  25.205  11.352   7.693
 1100POPC   C1B16327  25.132  11.032   8.749
 1100POPC   C2B16328  25.077  10.999   8.315
 1100POPC   C3B16329  25.000  10.964   7.923
 1100POPC   C4B16330  25.085  10.877   7.484
 1101POPC   NC316331  44.051   4.098   9.506
 1101POPC   PO416332  43.725   4.725   9.519
 1101POPC   GL116333  43.695   4.410   9.190
 1101POPC   GL216334  43.481   4.076   9.251
 1101POPC   C1A16335  43.870   4.436   8.772
 1101POPC   D2A16336  44.141   4.224   8.482
 1101POPC   C3A16337  43.963   4.264   8.076
 1101POPC   C4A16338  43.830   4.571   7.763
 1101POPC   C1B16339  43.745   3.966   8.876
 1101POPC   C2B16340  43.650   4.043   8.452
 1101POPC   C3B16341  43.657   3.842   8.049
 1101POPC   C4B16342  43.577   4.123   7.728
 1102POPC   NC316343  37.910  35.147   9.545
 1102POPC   PO416344  38.510  35.513   9.555
 1102POPC   GL116345  38.384  35.228   9.227
 1102POPC   GL216346  38.688  35.215   9.070
 1102POPC   C1A16347  38.337  34.960   8.824
 1102POPC   D2A16348  38.314  35.119   8.411
 1102POPC   C3A16349  38.399  34.919   8.027
 1102POPC   C4A16350  38.305  35.049   7.604
 1102POPC   C1B16351  38.611  35.438   8.700
 1102POPC   C2B16352  38.863  35.460   8.343
 1102POPC   C3B16353  38.567  35.408   8.047
 1102POPC   C4B16354  38.527  35.580   7.680
 1103POPC   NC316355  38.469  37.241   9.582
 1103POPC   PO416356  38.429  37.870   9.720
 1103POPC   GL116357  38.672  37.778   9.296
 1103POPC   GL216358  38.800  37.467   9.195
 1103POPC   C1A16359  38.877  37.845   8.849
 1103POPC   D2A16360  38.856  37.709   8.393
 1103POPC   C3A16361  38.456  37.768   8.181
 1103POPC   C4A16362  38.444  37.886   7.774
 1103POPC   C1B16363  38.703  37.331   8.779
 1103POPC   C2B16364  38.568  37.257   8.361
 1103POPC   C3B16365  38.686  37.399   7.955
 1103POPC   C4B16366  38.634  37.481   7.517
 1104POPC   NC316367   7.880  15.166   9.410
 1104POPC   PO416368   8.536  15.005   9.478
 1104POPC   GL116369   8.292  15.104   9.132
 1104POPC   GL216370   8.108  14.781   9.071
 1104POPC   C1A16371   8.018  15.211   8.775
 1104POPC   D2A16372   7.892  15.370   8.380
 1104POPC   C3A16373   8.267  15.474   8.168
 1104POPC   C4A16374   8.170  15.367   7.769
 1104POPC   C1B16375   8.415  14.795   8.756
 1104POPC   C2B16376   8.254  14.959   8.357
 1104POPC   C3B16377   8.384  14.944   7.927
 1104POPC   C4B16378   8.462  15.055   7.488
 1105POPC   NC316379  23.420  20.057   9.513
 1105POPC   PO416380  24.018  19.902   9.540
 1105POPC   GL116381  23.761  19.848   9.184
 1105POPC   GL216382  23.572  19.569   9.107
 1105POPC   C1A16383  23.536  20.019   8.841
 1105POPC   D2A16384  23.408  20.215   8.473
 1105POPC   C3A16385  23.546  20.025   8.088
 1105POPC   C4A16386  23.461  20.006   7.673
 1105POPC   C1B16387  23.906  19.450   8.864
 1105POPC   C2B16388  23.815  19.466   8.458
 1105POPC   C3B16389  23.985  19.530   8.088
 1105POPC   C4B16390  23.820  19.677   7.737
 1106POPC   NC316391  15.365  24.186   9.339
 1106POPC   PO416392  15.422  24.834   9.540
 1106POPC   GL116393  15.147  24.758   9.190
 1106POPC   GL216394  15.086  24.446   9.013
 1106POPC   C1A16395  15.025  24.921   8.806
 1106POPC   D2A16396  15.029  24.602   8.506
 1106POPC   C3A16397  15.068  24.672   8.093
 1106POPC   C4A16398  15.198  24.670   7.659
 1106POPC   C1B16399  15.265  24.164   8.702
 1106POPC   C2B16400  15.132  24.109   8.310
 1106POPC   C3B16401  15.206  24.203   7.911
 1106POPC   C4B16402  15.560  24.293   7.735
 1107POPC   NC316403  18.101  32.540   9.504
 1107POPC   PO416404  18.508  32.012   9.516
 1107POPC   GL116405  18.430  32.309   9.176
 1107POPC   GL216406  18.087  32.190   9.108
 1107POPC   C1A16407  18.588  32.266   8.766
 1107POPC   D2A16408  18.427  32.003   8.441
 1107POPC   C3A16409  18.447  32.162   8.031
 1107POPC   C4A16410  18.038  32.101   7.857
 1107POPC   C1B16411  18.085  32.432   8.712
 1107POPC   C2B16412  18.304  32.550   8.330
 1107POPC   C3B16413  18.169  32.630   7.897
 1107POPC   C4B16414  18.096  32.713   7.433
 1108POPC   NC316415  40.589  27.874   9.498
 1108POPC   PO416416  40.306  27.321   9.325
 1108POPC   GL116417  40.578  27.569   9.077
 1108POPC   GL216418  40.885  27.463   9.202
 1108POPC   C1A16419  40.850  27.759   8.756
 1108POPC   D2A16420  40.926  28.002   8.362
 1108POPC   C3A16421  40.866  27.757   7.968
 1108POPC   C4A16422  40.607  27.573   7.622
 1108POPC   C1B16423  41.138  27.341   8.825
 1108POPC   C2B16424  41.181  27.510   8.395
 1108POPC   C3B16425  41.175  27.344   8.003
 1108POPC   C4B16426  40.815  27.139   7.817
 1109POPC   NC316427  30.482  43.528   9.520
 1109POPC   PO416428  30.976  43.981   9.356
 1109POPC   GL116429  30.665  43.839   9.098
 1109POPC   GL216430  30.396  44.079   9.153
 1109POPC   C1A16431  30.790  43.702   8.693
 1109POPC   D2A16432  31.100  43.797   8.373
 1109POPC   C3A16433  30.845  43.795   8.006
 1109POPC   C4A16434  30.716  43.458   7.718
 1109POPC   C1B16435  30.374  44.108   8.701
 1109POPC   C2B16436  30.702  44.135   8.428
 1109POPC   C3B16437  30.787  44.315   8.061
 1109POPC   C4B16438  30.794  44.191   7.646
 1110POPC   NC316439  35.348  16.028   9.548
 1110POPC   PO416440  35.319  15.396   9.585
 1110POPC   GL116441  35.398  15.639   9.184
 1110POPC   GL216442  35.151  15.935   9.109
 1110POPC   C1A16443  35.440  15.759   8.741
 1110POPC   D2A16444  35.260  15.771   8.308
 1110POPC   C3A16445  35.521  15.746   7.905
 1110POPC   C4A16446  35.632  15.773   7.442
 1110POPC   C1B16447  35.046  16.170   8.746
 1110POPC   C2B16448  35.005  16.197   8.306
 1110POPC   C3B16449  34.958  15.961   7.903
 1110POPC   C4B16450  34.834  16.088   7.468
 1111POPC   NC316451   6.430  35.033   9.419
 1111POPC   PO416452   6.964  34.606   9.499
 1111POPC   GL116453   6.822  34.825   9.132
 1111POPC   GL216454   6.634  34.558   9.039
 1111POPC   C1A16455   6.558  34.991   8.765
 1111POPC   D2A16456   6.432  34.820   8.361
 1111POPC   C3A16457   6.815  34.726   8.171
 1111POPC   C4A16458   7.090  34.941   7.885
 1111POPC   C1B16459   6.307  34.516   8.744
 1111POPC   C2B16460   6.152  34.337   8.400
 1111POPC   C3B16461   6.136  34.489   8.002
 1111POPC   C4B16462   6.537  34.507   7.822
 1112POPC   NC316463   5.450  39.597   9.418
 1112POPC   PO416464   5.916  40.020   9.551
 1112POPC   GL116465   6.022  40.072   9.131
 1112POPC   GL216466   5.716  39.917   9.068
 1112POPC   C1A16467   6.083  39.898   8.712
 1112POPC   D2A16468   5.849  39.698   8.379
 1112POPC   C3A16469   5.943  39.786   7.970
 1112POPC   C4A16470   6.212  39.994   7.699
 1112POPC   C1B16471   5.484  39.850   8.705
 1112POPC   C2B16472   5.419  40.099   8.335
 1112POPC   C3B16473   5.560  40.281   7.970
 1112POPC   C4B16474   5.713  40.056   7.617
 1113POPC   NC316475  39.087  32.891   9.609
 1113POPC   PO416476  39.610  33.200   9.529
 1113POPC   GL116477  39.404  33.143   9.138
 1113POPC   GL216478  39.068  33.226   9.221
 1113POPC   C1A16479  39.423  33.243   8.666
 1113POPC   D2A16480  39.375  32.957   8.300
 1113POPC   C3A16481  39.468  33.097   7.879
 1113POPC   C4A16482  39.285  32.846   7.527
 1113POPC   C1B16483  38.990  33.046   8.851
 1113POPC   C2B16484  38.864  33.121   8.440
 1113POPC   C3B16485  38.974  33.089   8.000
 1113POPC   C4B16486  38.846  33.113   7.574
 1114POPC   NC316487  16.987  38.964   9.338
 1114POPC   PO416488  16.601  39.448   9.549
 1114POPC   GL116489  16.761  39.409   9.155
 1114POPC   GL216490  16.548  39.097   9.122
 1114POPC   C1A16491  16.747  39.305   8.724
 1114POPC   D2A16492  16.817  39.070   8.398
 1114POPC   C3A16493  16.764  39.308   8.085
 1114POPC   C4A16494  16.688  39.355   7.710
 1114POPC   C1B16495  16.528  38.815   8.772
 1114POPC   C2B16496  16.542  38.650   8.354
 1114POPC   C3B16497  16.509  38.874   7.939
 1114POPC   C4B16498  16.520  38.947   7.473
 1115POPC   NC316499   9.142  25.128   9.508
 1115POPC   PO416500   8.578  24.876   9.670
 1115POPC   GL116501   8.696  25.077   9.244
 1115POPC   GL216502   8.836  25.425   9.186
 1115POPC   C1A16503   8.796  25.080   8.798
 1115POPC   D2A16504   8.914  25.302   8.440
 1115POPC   C3A16505   9.053  25.087   8.092
 1115POPC   C4A16506   8.922  24.953   7.670
 1115POPC   C1B16507   9.223  25.343   8.887
 1115POPC   C2B16508   9.374  25.528   8.518
 1115POPC   C3B16509   9.390  25.480   8.052
 1115POPC   C4B16510   9.134  25.430   7.674
 1116POPC   NC316511  35.876  28.245   9.536
 1116POPC   PO416512  36.508  28.616   9.470
 1116POPC   GL116513  36.158  28.534   9.197
 1116POPC   GL216514  36.246  28.205   9.129
 1116POPC   C1A16515  36.031  28.519   8.740
 1116POPC   D2A16516  36.230  28.647   8.332
 1116POPC   C3A16517  36.025  28.625   7.921
 1116POPC   C4A16518  35.869  28.636   7.481
 1116POPC   C1B16519  36.111  27.994   8.763
 1116POPC   C2B16520  36.197  28.048   8.336
 1116POPC   C3B16521  36.023  28.113   7.922
 1116POPC   C4B16522  36.166  28.213   7.491
 1117POPC   NC316523  31.815  17.200   9.570
 1117POPC   PO416524  31.283  17.681   9.523
 1117POPC   GL116525  31.580  17.578   9.238
 1117POPC   GL216526  31.445  17.263   9.224
 1117POPC   C1A16527  31.568  17.739   8.827
 1117POPC   D2A16528  31.854  17.806   8.498
 1117POPC   C3A16529  31.695  17.736   8.088
 1117POPC   C4A16530  31.624  17.674   7.661
 1117POPC   C1B16531  31.257  17.284   8.835
 1117POPC   C2B16532  31.456  17.399   8.411
 1117POPC   C3B16533  31.496  17.265   7.948
 1117POPC   C4B16534  31.248  17.359   7.559
 1118POPC   NC316535   5.267   6.862   9.357
 1118POPC   PO416536   4.919   6.338   9.325
 1118POPC   GL116537   5.119   6.429   8.990
 1118POPC   GL216538   5.490   6.411   8.963
 1118POPC   C1A16539   4.913   6.407   8.616
 1118POPC   D2A16540   4.878   6.730   8.357
 1118POPC   C3A16541   5.042   6.573   7.979
 1118POPC   C4A16542   4.876   6.784   7.648
 1118POPC   C1B16543   5.340   6.738   8.647
 1118POPC   C2B16544   5.432   6.838   8.203
 1118POPC   C3B16545   5.361   6.931   7.769
 1118POPC   C4B16546   5.541   7.109   7.391
 1119POPC   NC316547  36.917   2.153   9.515
 1119POPC   PO416548  36.953   1.445   9.301
 1119POPC   GL116549  37.063   1.863   9.119
 1119POPC   GL216550  36.786   2.150   9.040
 1119POPC   C1A16551  37.088   1.954   8.698
 1119POPC   D2A16552  36.928   1.747   8.343
 1119POPC   C3A16553  37.072   1.872   7.973
 1119POPC   C4A16554  36.958   2.201   7.736
 1119POPC   C1B16555  36.605   1.789   8.802
 1119POPC   C2B16556  36.406   1.809   8.381
 1119POPC   C3B16557  36.546   1.932   7.961
 1119POPC   C4B16558  36.560   1.892   7.529
 1120POPC   NC316559  39.659  35.176   9.530
 1120POPC   PO416560  40.236  35.577   9.449
 1120POPC   GL116561  40.191  35.484   9.052
 1120POPC   GL216562  39.888  35.366   9.119
 1120POPC   C1A16563  40.050  35.533   8.646
 1120POPC   D2A16564  39.947  35.726   8.308
 1120POPC   C3A16565  39.839  35.428   7.978
 1120POPC   C4A16566  39.592  35.410   7.591
 1120POPC   C1B16567  39.975  35.054   8.831
 1120POPC   C2B16568  39.984  35.066   8.415
 1120POPC   C3B16569  39.647  34.992   8.191
 1120POPC   C4B16570  39.729  34.959   7.787
 1121POPC   NC316571  15.435  37.513   9.712
 1121POPC   PO416572  14.835  37.750   9.475
 1121POPC   GL116573  15.062  37.826   9.123
 1121POPC   GL216574  15.420  37.781   9.253
 1121POPC   C1A16575  15.047  37.909   8.675
 1121POPC   D2A16576  15.265  37.713   8.319
 1121POPC   C3A16577  15.103  37.515   7.951
 1121POPC   C4A16578  14.871  37.793   7.706
 1121POPC   C1B16579  15.564  37.888   8.813
 1121POPC   C2B16580  15.727  37.894   8.348
 1121POPC   C3B16581  15.545  37.806   7.881
 1121POPC   C4B16582  15.567  37.955   7.435
 1122POPC   NC316583  26.652  14.827   9.398
 1122POPC   PO416584  26.703  15.411   9.401
 1122POPC   GL116585  26.831  15.177   9.056
 1122POPC   GL216586  27.102  14.920   9.196
 1122POPC   C1A16587  26.620  15.322   8.683
 1122POPC   D2A16588  26.553  15.325   8.250
 1122POPC   C3A16589  26.440  15.544   7.925
 1122POPC   C4A16590  26.710  15.430   7.612
 1122POPC   C1B16591  26.936  14.734   8.807
 1122POPC   C2B16592  26.867  14.931   8.404
 1122POPC   C3B16593  26.948  15.117   7.981
 1122POPC   C4B16594  26.915  14.881   7.590
 1123POPC   NC316595   9.557  35.527   9.385
 1123POPC   PO416596   9.928  34.955   9.507
 1123POPC   GL116597   9.919  35.226   9.166
 1123POPC   GL216598   9.972  35.570   9.020
 1123POPC   C1A16599   9.630  35.251   8.815
 1123POPC   D2A16600   9.838  35.345   8.464
 1123POPC   C3A16601   9.663  35.156   8.110
 1123POPC   C4A16602   9.782  35.174   7.682
 1123POPC   C1B16603   9.619  35.749   8.744
 1123POPC   C2B16604   9.436  35.672   8.307
 1123POPC   C3B16605   9.599  35.605   7.870
 1123POPC   C4B16606   9.491  35.605   7.387
 1124POPC   NC316607  11.735  12.190   9.478
 1124POPC   PO416608  12.320  11.795   9.463
 1124POPC   GL116609  12.125  12.000   9.138
 1124POPC   GL216610  11.819  11.812   9.110
 1124POPC   C1A16611  12.195  11.874   8.714
 1124POPC   D2A16612  11.932  11.817   8.355
 1124POPC   C3A16613  12.183  11.923   8.044
 1124POPC   C4A16614  12.270  11.966   7.642
 1124POPC   C1B16615  11.750  12.126   8.783
 1124POPC   C2B16616  11.576  12.218   8.353
 1124POPC   C3B16617  11.625  12.135   7.904
 1124POPC   C4B16618  11.844  12.241   7.516
 1125POPC   NC316619   3.901   1.495   9.444
 1125POPC   PO416620   3.666   0.841   9.504
 1125POPC   GL116621   3.558   1.180   9.225
 1125POPC   GL216622   3.239   1.272   9.294
 1125POPC   C1A16623   3.623   1.373   8.823
 1125POPC   D2A16624   3.749   1.348   8.400
 1125POPC   C3A16625   3.700   1.061   8.096
 1125POPC   C4A16626   3.840   1.036   7.686
 1125POPC   C1B16627   3.137   1.485   8.891
 1125POPC   C2B16628   3.248   1.548   8.462
 1125POPC   C3B16629   3.196   1.261   8.123
 1125POPC   C4B16630   3.349   1.198   7.716
 1126POPC   NC316631   9.967  31.753   9.431
 1126POPC   PO416632  10.022  32.360   9.560
 1126POPC   GL116633  10.007  32.291   9.105
 1126POPC   GL216634   9.690  32.415   8.931
 1126POPC   C1A16635  10.113  32.161   8.692
 1126POPC   D2A16636   9.751  32.165   8.448
 1126POPC   C3A16637   9.795  32.105   8.056
 1126POPC   C4A16638   9.743  32.422   7.797
 1126POPC   C1B16639   9.365  32.089   8.770
 1126POPC   C2B16640   9.339  31.879   8.342
 1126POPC   C3B16641   9.302  32.061   7.915
 1126POPC   C4B16642   9.528  32.054   7.523
 1127POPC   NC316643  29.999  41.407   9.436
 1127POPC   PO416644  30.283  41.961   9.214
 1127POPC   GL116645  30.046  41.666   9.003
 1127POPC   GL216646  29.713  41.675   9.134
 1127POPC   C1A16647  30.037  41.494   8.617
 1127POPC   D2A16648  29.916  41.765   8.341
 1127POPC   C3A16649  30.164  41.811   8.012
 1127POPC   C4A16650  30.216  41.577   7.658
 1127POPC   C1B16651  29.567  41.632   8.734
 1127POPC   C2B16652  29.416  41.672   8.319
 1127POPC   C3B16653  29.630  41.602   7.914
 1127POPC   C4B16654  29.742  41.638   7.479
 1128POPC   NC316655  31.054  40.446   9.327
 1128POPC   PO416656  30.727  41.091   9.430
 1128POPC   GL116657  30.934  40.922   9.158
 1128POPC   GL216658  30.655  40.712   9.086
 1128POPC   C1A16659  30.989  40.957   8.756
 1128POPC   D2A16660  30.701  41.009   8.413
 1128POPC   C3A16661  30.920  41.090   8.046
 1128POPC   C4A16662  30.941  40.952   7.632
 1128POPC   C1B16663  30.709  40.504   8.703
 1128POPC   C2B16664  30.567  40.481   8.292
 1128POPC   C3B16665  30.629  40.678   7.915
 1128POPC   C4B16666  30.499  40.631   7.481
 1129POPC   NC316667  16.469  31.608   9.608
 1129POPC   PO416668  16.991  31.238   9.602
 1129POPC   GL116669  16.900  31.508   9.248
 1129POPC   GL216670  16.754  31.217   9.101
 1129POPC   C1A16671  16.784  31.676   8.826
 1129POPC   D2A16672  16.610  31.740   8.415
 1129POPC   C3A16673  16.768  31.594   8.027
 1129POPC   C4A16674  16.678  31.674   7.617
 1129POPC   C1B16675  17.079  31.251   8.782
 1129POPC   C2B16676  16.901  31.191   8.362
 1129POPC   C3B16677  16.447  31.253   8.224
 1129POPC   C4B16678  16.351  31.289   7.774
 1130POPC   NC316679  18.477  20.278   9.477
 1130POPC   PO416680  18.465  20.955   9.502
 1130POPC   GL116681  18.341  20.655   9.169
 1130POPC   GL216682  18.032  20.494   9.265
 1130POPC   C1A16683  18.217  20.437   8.773
 1130POPC   D2A16684  18.370  20.711   8.422
 1130POPC   C3A16685  18.407  20.672   7.972
 1130POPC   C4A16686  18.439  20.610   7.536
 1130POPC   C1B16687  17.867  20.790   8.962
 1130POPC   C2B16688  17.840  20.818   8.499
 1130POPC   C3B16689  17.962  20.937   8.064
 1130POPC   C4B16690  17.949  20.631   7.725
 1131POPC   NC316691  29.953   0.674   9.552
 1131POPC   PO416692  29.880   0.029   9.669
 1131POPC   GL116693  30.016   0.241   9.259
 1131POPC   GL216694  29.734   0.432   9.135
 1131POPC   C1A16695  30.155   0.483   8.870
 1131POPC   D2A16696  30.121   0.641   8.448
 1131POPC   C3A16697  29.929   0.397   8.133
 1131POPC   C4A16698  29.933   0.537   7.724
 1131POPC   C1B16699  29.705   0.733   8.791
 1131POPC   C2B16700  29.576   0.673   8.391
 1131POPC   C3B16701  29.477   0.668   7.973
 1131POPC   C4B16702  29.518   0.858   7.581
 1132POPC   NC316703  11.525   5.554   9.327
 1132POPC   PO416704  10.975   5.306   9.630
 1132POPC   GL116705  11.153   5.174   9.226
 1132POPC   GL216706  10.839   4.987   9.162
 1132POPC   C1A16707  11.488   5.076   8.876
 1132POPC   D2A16708  11.460   4.736   8.590
 1132POPC   C3A16709  11.402   4.818   8.149
 1132POPC   C4A16710  11.629   5.041   7.809
 1132POPC   C1B16711  11.001   5.048   8.736
 1132POPC   C2B16712  11.148   5.242   8.344
 1132POPC   C3B16713  11.132   5.196   7.885
 1132POPC   C4B16714  10.899   5.167   7.497
 1133POPC   NC316715  15.525  39.865   9.463
 1133POPC   PO416716  14.952  40.123   9.696
 1133POPC   GL116717  15.096  40.201   9.261
 1133POPC   GL216718  15.426  40.394   9.348
 1133POPC   C1A16719  15.064  40.028   8.790
 1133POPC   D2A16720  14.907  39.914   8.363
 1133POPC   C3A16721  15.201  39.801   8.030
 1133POPC   C4A16722  15.302  40.071   7.664
 1133POPC   C1B16723  15.404  40.389   8.901
 1133POPC   C2B16724  15.162  40.451   8.498
 1133POPC   C3B16725  15.203  40.355   8.065
 1133POPC   C4B16726  15.157  40.561   7.627
 1134POPC   NC316727  36.839  11.277   9.447
 1134POPC   PO416728  37.337  10.773   9.517
 1134POPC   GL116729  37.138  11.030   9.112
 1134POPC   GL216730  37.040  11.423   9.001
 1134POPC   C1A16731  36.972  11.080   8.651
 1134POPC   D2A16732  36.851  11.490   8.422
 1134POPC   C3A16733  37.040  11.616   8.048
 1134POPC   C4A16734  36.967  11.332   7.717
 1134POPC   C1B16735  36.567  11.438   8.834
 1134POPC   C2B16736  36.349  11.552   8.402
 1134POPC   C3B16737  36.527  11.465   7.965
 1134POPC   C4B16738  36.536  11.374   7.467
 1135POPC   NC316739  22.594   8.504   9.837
 1135POPC   PO416740  22.539   8.027   9.357
 1135POPC   GL116741  22.858   8.135   9.078
 1135POPC   GL216742  22.906   8.462   9.095
 1135POPC   C1A16743  22.886   8.006   8.679
 1135POPC   D2A16744  22.873   7.826   8.298
 1135POPC   C3A16745  22.900   8.082   7.924
 1135POPC   C4A16746  23.156   8.414   7.703
 1135POPC   C1B16747  22.552   8.390   8.758
 1135POPC   C2B16748  22.630   8.275   8.326
 1135POPC   C3B16749  22.789   8.551   8.017
 1135POPC   C4B16750  22.672   8.661   7.617
 1136POPC   NC316751  23.475  34.441   9.560
 1136POPC   PO416752  22.845  34.644   9.704
 1136POPC   GL116753  22.886  34.727   9.249
 1136POPC   GL216754  23.199  34.585   9.153
 1136POPC   C1A16755  22.815  34.607   8.807
 1136POPC   D2A16756  22.697  34.528   8.394
 1136POPC   C3A16757  22.951  34.624   8.026
 1136POPC   C4A16758  22.865  34.512   7.618
 1136POPC   C1B16759  23.225  34.249   8.851
 1136POPC   C2B16760  23.189  34.389   8.434
 1136POPC   C3B16761  23.347  34.307   8.023
 1136POPC   C4B16762  23.426  34.565   7.665
 1137POPC   NC316763  30.129  33.222   9.536
 1137POPC   PO416764  30.734  32.985   9.703
 1137POPC   GL116765  30.718  33.026   9.239
 1137POPC   GL216766  30.916  33.307   9.066
 1137POPC   C1A16767  30.442  33.227   8.911
 1137POPC   D2A16768  30.359  33.108   8.479
 1137POPC   C3A16769  30.499  33.209   8.072
 1137POPC   C4A16770  30.307  32.838   7.858
 1137POPC   C1B16771  30.882  32.943   8.741
 1137POPC   C2B16772  30.784  32.771   8.308
 1137POPC   C3B16773  30.823  32.875   7.867
 1137POPC   C4B16774  31.023  33.269   7.738
 1138POPC   NC316775  33.405   5.525   9.505
 1138POPC   PO416776  33.924   5.879   9.551
 1138POPC   GL116777  33.787   5.913   9.151
 1138POPC   GL216778  33.432   5.965   9.113
 1138POPC   C1A16779  33.969   5.820   8.752
 1138POPC   D2A16780  34.043   5.672   8.351
 1138POPC   C3A16781  34.152   5.880   8.008
 1138POPC   C4A16782  33.883   5.810   7.658
 1138POPC   C1B16783  33.424   5.962   8.687
 1138POPC   C2B16784  33.583   5.901   8.288
 1138POPC   C3B16785  33.438   5.944   7.873
 1138POPC   C4B16786  33.299   6.032   7.439
 1139POPC   NC316787  29.194  25.528   9.754
 1139POPC   PO416788  29.352  24.953   9.498
 1139POPC   GL116789  29.254  25.281   9.191
 1139POPC   GL216790  29.018  25.016   9.075
 1139POPC   C1A16791  29.137  25.394   8.750
 1139POPC   D2A16792  28.920  25.164   8.434
 1139POPC   C3A16793  29.011  25.402   8.067
 1139POPC   C4A16794  29.295  25.369   7.712
 1139POPC   C1B16795  29.401  24.940   8.807
 1139POPC   C2B16796  29.430  25.105   8.378
 1139POPC   C3B16797  29.191  24.937   8.021
 1139POPC   C4B16798  29.295  24.850   7.603
 1140POPC   NC316799   6.888  18.427   9.580
 1140POPC   PO416800   6.237  18.326   9.641
 1140POPC   GL116801   6.543  18.267   9.230
 1140POPC   GL216802   6.792  18.499   9.091
 1140POPC   C1A16803   6.821  18.096   8.833
 1140POPC   D2A16804   6.928  18.359   8.445
 1140POPC   C3A16805   6.767  18.384   8.003
 1140POPC   C4A16806   6.882  18.374   7.534
 1140POPC   C1B16807   6.507  18.504   8.779
 1140POPC   C2B16808   6.378  18.434   8.373
 1140POPC   C3B16809   6.364  18.691   8.029
 1140POPC   C4B16810   6.392  18.438   7.645
 1141POPC   NC316811  32.674  12.108   9.767
 1141POPC   PO416812  32.003  11.926   9.611
 1141POPC   GL116813  32.339  12.105   9.349
 1141POPC   GL216814  32.386  11.786   9.200
 1141POPC   C1A16815  32.414  12.221   8.899
 1141POPC   D2A16816  32.122  12.256   8.513
 1141POPC   C3A16817  32.275  12.339   8.094
 1141POPC   C4A16818  32.468  12.228   7.724
 1141POPC   C1B16819  32.537  11.755   8.765
 1141POPC   C2B16820  32.493  11.917   8.392
 1141POPC   C3B16821  32.366  11.816   7.993
 1141POPC   C4B16822  32.543  11.613   7.657
 1142POPC   NC316823  18.508  17.970   9.522
 1142POPC   PO416824  18.087  18.496   9.537
 1142POPC   GL116825  18.357  18.357   9.177
 1142POPC   GL216826  18.617  18.579   9.035
 1142POPC   C1A16827  18.393  17.988   8.861
 1142POPC   D2A16828  18.511  17.853   8.404
 1142POPC   C3A16829  18.556  18.104   8.070
 1142POPC   C4A16830  18.307  18.217   7.731
 1142POPC   C1B16831  18.531  18.421   8.620
 1142POPC   C2B16832  18.450  18.566   8.208
 1142POPC   C3B16833  18.562  18.657   7.789
 1142POPC   C4B16834  18.650  18.636   7.319
 1143POPC   NC316835   8.641  28.646   9.431
 1143POPC   PO416836   8.041  28.354   9.483
 1143POPC   GL116837   8.346  28.371   9.129
 1143POPC   GL216838   8.483  28.085   9.026
 1143POPC   C1A16839   8.582  28.560   8.774
 1143POPC   D2A16840   8.337  28.607   8.414
 1143POPC   C3A16841   8.456  28.555   8.004
 1143POPC   C4A16842   8.170  28.533   7.649
 1143POPC   C1B16843   8.435  28.118   8.597
 1143POPC   C2B16844   8.124  28.112   8.292
 1143POPC   C3B16845   8.192  28.097   7.872
 1143POPC   C4B16846   8.424  27.809   7.702
 1144POPC   NC316847  28.919  20.206   9.263
 1144POPC   PO416848  29.312  19.719   9.430
 1144POPC   GL116849  29.024  19.709   9.115
 1144POPC   GL216850  29.160  19.943   8.897
 1144POPC   C1A16851  28.999  19.492   8.757
 1144POPC   D2A16852  29.048  19.769   8.403
 1144POPC   C3A16853  29.112  19.598   7.990
 1144POPC   C4A16854  28.882  19.373   7.726
 1144POPC   C1B16855  29.501  20.101   8.662
 1144POPC   C2B16856  29.589  20.240   8.268
 1144POPC   C3B16857  29.440  20.181   7.857
 1144POPC   C4B16858  29.427  19.975   7.440
 1145POPC   NC316859  21.176  10.779   9.555
 1145POPC   PO416860  21.392  11.493   9.555
 1145POPC   GL116861  21.457  11.179   9.222
 1145POPC   GL216862  21.124  11.038   9.123
 1145POPC   C1A16863  21.604  11.177   8.767
 1145POPC   D2A16864  21.604  11.438   8.365
 1145POPC   C3A16865  21.634  11.202   7.993
 1145POPC   C4A16866  21.421  10.960   7.706
 1145POPC   C1B16867  21.137  11.348   8.801
 1145POPC   C2B16868  21.089  11.272   8.353
 1145POPC   C3B16869  21.120  11.348   7.910
 1145POPC   C4B16870  21.107  11.279   7.472
 1146POPC   NC316871   7.643  30.912   9.539
 1146POPC   PO416872   7.232  30.452   9.247
 1146POPC   GL116873   7.336  30.843   9.118
 1146POPC   GL216874   7.001  30.903   9.021
 1146POPC   C1A16875   7.663  30.859   8.804
 1146POPC   D2A16876   7.634  30.914   8.354
 1146POPC   C3A16877   7.558  30.638   8.005
 1146POPC   C4A16878   7.786  30.777   7.658
 1146POPC   C1B16879   7.136  30.815   8.624
 1146POPC   C2B16880   7.149  30.893   8.217
 1146POPC   C3B16881   6.965  30.958   7.866
 1146POPC   C4B16882   7.269  30.813   7.568
 1147POPC   NC316883  30.753   3.755   9.668
 1147POPC   PO416884  30.565   4.403   9.508
 1147POPC   GL116885  30.617   4.476   9.108
 1147POPC   GL216886  30.784   4.142   9.111
 1147POPC   C1A16887  30.386   4.282   8.788
 1147POPC   D2A16888  30.547   4.116   8.425
 1147POPC   C3A16889  30.483   4.277   8.039
 1147POPC   C4A16890  30.536   4.485   7.701
 1147POPC   C1B16891  30.928   4.283   8.735
 1147POPC   C2B16892  31.174   4.201   8.427
 1147POPC   C3B16893  30.962   4.103   8.078
 1147POPC   C4B16894  30.971   4.231   7.673
 1148POPC   NC316895  44.248   1.219   9.401
 1148POPC   PO416896  44.716   1.661   9.568
 1148POPC   GL116897  44.684   1.364   9.206
 1148POPC   GL216898  44.407   1.535   9.007
 1148POPC   C1A16899  44.515   1.097   8.808
 1148POPC   D2A16900  44.472   1.365   8.427
 1148POPC   C3A16901  44.450   1.217   8.005
 1148POPC   C4A16902  44.668   1.174   7.612
 1148POPC   C1B16903  44.852   1.475   8.759
 1148POPC   C2B16904   0.053   1.517   8.341
 1148POPC   C3B16905  44.892   1.515   7.917
 1148POPC   C4B16906  44.514   1.721   7.741
 1149POPC   NC316907  24.346   4.862   9.605
 1149POPC   PO416908  24.929   4.627   9.345
 1149POPC   GL116909  24.609   4.949   9.172
 1149POPC   GL216910  24.339   5.250   9.263
 1149POPC   C1A16911  24.306   4.939   8.866
 1149POPC   D2A16912  24.248   4.976   8.440
 1149POPC   C3A16913  24.644   4.860   8.213
 1149POPC   C4A16914  24.561   4.897   7.771
 1149POPC   C1B16915  24.387   5.435   8.861
 1149POPC   C2B16916  24.610   5.296   8.516
 1149POPC   C3B16917  24.556   5.348   8.046
 1149POPC   C4B16918  24.353   5.571   7.702
 1150POPC   NC316919  36.213  13.774   9.410
 1150POPC   PO416920  36.541  13.258   9.608
 1150POPC   GL116921  36.305  13.219   9.205
 1150POPC   GL216922  35.953  13.310   9.223
 1150POPC   C1A16923  36.218  13.471   8.804
 1150POPC   D2A16924  36.121  13.644   8.389
 1150POPC   C3A16925  36.284  13.441   8.004
 1150POPC   C4A16926  36.175  13.574   7.590
 1150POPC   C1B16927  35.682  13.257   8.852
 1150POPC   C2B16928  35.556  13.381   8.415
 1150POPC   C3B16929  35.784  13.434   8.023
 1150POPC   C4B16930  35.654  13.585   7.624
 1151POPC   NC316931  24.357  15.413   9.677
 1151POPC   PO416932  23.653  15.324   9.479
 1151POPC   GL116933  23.757  15.200   9.110
 1151POPC   GL216934  24.063  15.222   9.155
 1151POPC   C1A16935  23.896  14.948   8.747
 1151POPC   D2A16936  23.796  14.809   8.327
 1151POPC   C3A16937  23.578  15.105   8.058
 1151POPC   C4A16938  23.376  15.077   7.688
 1151POPC   C1B16939  24.013  15.464   8.763
 1151POPC   C2B16940  23.889  15.365   8.355
 1151POPC   C3B16941  23.967  15.418   7.901
 1151POPC   C4B16942  23.816  15.263   7.512
 1152POPC   NC316943  41.191  25.969   9.288
 1152POPC   PO416944  41.629  26.256   9.633
 1152POPC   GL116945  41.710  26.085   9.202
 1152POPC   GL216946  41.451  26.223   8.941
 1152POPC   C1A16947  41.904  26.038   8.787
 1152POPC   D2A16948  41.661  26.047   8.403
 1152POPC   C3A16949  41.660  26.274   8.015
 1152POPC   C4A16950  41.604  25.987   7.662
 1152POPC   C1B16951  41.228  25.926   8.650
 1152POPC   C2B16952  40.993  26.000   8.285
 1152POPC   C3B16953  41.162  26.109   7.880
 1152POPC   C4B16954  41.168  26.082   7.378
 1153POPC   NC316955  43.522   8.406   9.471
 1153POPC   PO416956  44.087   7.941   9.551
 1153POPC   GL116957  43.867   8.080   9.222
 1153POPC   GL216958  43.960   8.428   9.195
 1153POPC   C1A16959  43.775   7.876   8.848
 1153POPC   D2A16960  43.955   7.741   8.468
 1153POPC   C3A16961  43.719   7.790   8.106
 1153POPC   C4A16962  43.995   7.876   7.759
 1153POPC   C1B16963  43.702   8.412   8.827
 1153POPC   C2B16964  43.704   8.208   8.445
 1153POPC   C3B16965  43.972   8.239   8.111
 1153POPC   C4B16966  43.838   8.333   7.695
 1154POPC   NC316967  19.863  28.770   9.671
 1154POPC   PO416968  19.583  28.230   9.404
 1154POPC   GL116969  19.721  28.553   9.148
 1154POPC   GL216970  20.071  28.645   9.114
 1154POPC   C1A16971  19.738  28.553   8.705
 1154POPC   D2A16972  19.964  28.540   8.319
 1154POPC   C3A16973  19.753  28.574   7.905
 1154POPC   C4A16974  19.612  28.337   7.548
 1154POPC   C1B16975  20.184  28.314   8.774
 1154POPC   C2B16976  20.177  28.057   8.382
 1154POPC   C3B16977  20.182  28.209   7.952
 1154POPC   C4B16978  20.193  28.524   7.621
 1155POPC   NC316979   3.752  33.409   9.574
 1155POPC   PO416980   3.884  34.075   9.591
 1155POPC   GL116981   3.662  33.785   9.221
 1155POPC   GL216982   3.775  33.521   9.070
 1155POPC   C1A16983   3.416  33.802   8.801
 1155POPC   D2A16984   3.475  34.077   8.416
 1155POPC   C3A16985   3.417  34.022   7.958
 1155POPC   C4A16986   3.367  33.592   7.807
 1155POPC   C1B16987   3.822  33.458   8.631
 1155POPC   C2B16988   3.953  33.304   8.233
 1155POPC   C3B16989   3.913  33.383   7.816
 1155POPC   C4B16990   3.801  33.798   7.627
 1156POPC   NC316991  22.955  10.099   9.338
 1156POPC   PO416992  23.166  10.650   9.620
 1156POPC   GL116993  22.936  10.631   9.176
 1156POPC   GL216994  22.580  10.755   9.148
 1156POPC   C1A16995  22.757  10.340   8.781
 1156POPC   D2A16996  22.574  10.227   8.366
 1156POPC   C3A16997  22.862  10.274   8.021
 1156POPC   C4A16998  23.021  10.544   7.692
 1156POPC   C1B16999  22.719  10.839   8.741
 1156POPC   C2B17000  22.800  10.696   8.367
 1156POPC   C3B17001  22.694  10.838   8.003
 1156POPC   C4B17002  22.831  11.081   7.658
 1157POPC   NC317003  15.707  40.842   9.572
 1157POPC   PO417004  16.353  41.099   9.501
 1157POPC   GL117005  16.051  40.985   9.221
 1157POPC   GL217006  16.040  40.678   9.174
 1157POPC   C1A17007  15.963  41.030   8.790
 1157POPC   D2A17008  16.001  40.767   8.421
 1157POPC   C3A17009  15.949  40.901   8.010
 1157POPC   C4A17010  16.032  40.727   7.635
 1157POPC   C1B17011  15.916  40.470   8.842
 1157POPC   C2B17012  15.733  40.331   8.470
 1157POPC   C3B17013  15.894  40.389   8.069
 1157POPC   C4B17014  15.630  40.455   7.771
 1158POPC   NC317015  32.448  34.305   9.347
 1158POPC   PO417016  32.204  34.840   9.735
 1158POPC   GL117017  32.090  34.659   9.257
 1158POPC   GL217018  32.370  34.640   8.986
 1158POPC   C1A17019  31.886  34.698   8.832
 1158POPC   D2A17020  31.885  34.520   8.421
 1158POPC   C3A17021  32.205  34.312   8.212
 1158POPC   C4A17022  32.030  34.372   7.824
 1158POPC   C1B17023  32.451  34.859   8.607
 1158POPC   C2B17024  32.441  34.805   8.184
 1158POPC   C3B17025  32.414  34.686   7.788
 1158POPC   C4B17026  32.456  34.873   7.354
 1159POPC   NC317027   6.295   1.618   9.497
 1159POPC   PO417028   6.963   1.482   9.516
 1159POPC   GL117029   6.801   1.393   9.128
 1159POPC   GL217030   6.473   1.232   9.110
 1159POPC   C1A17031   6.731   1.467   8.705
 1159POPC   D2A17032   6.540   1.271   8.372
 1159POPC   C3A17033   6.733   1.158   8.035
 1159POPC   C4A17034   6.571   1.217   7.672
 1159POPC   C1B17035   6.557   0.932   8.754
 1159POPC   C2B17036   6.627   0.728   8.329
 1159POPC   C3B17037   6.462   0.747   7.879
 1159POPC   C4B17038   6.236   0.899   7.471
 1160POPC   NC317039  15.335  20.668   9.508
 1160POPC   PO417040  14.670  20.580   9.568
 1160POPC   GL117041  14.938  20.620   9.172
 1160POPC   GL217042  15.254  20.817   9.024
 1160POPC   C1A17043  14.859  20.672   8.741
 1160POPC   D2A17044  14.941  20.500   8.346
 1160POPC   C3A17045  14.911  20.694   7.951
 1160POPC   C4A17046  15.164  21.025   7.765
 1160POPC   C1B17047  15.357  20.452   8.831
 1160POPC   C2B17048  15.490  20.372   8.437
 1160POPC   C3B17049  15.340  20.337   8.058
 1160POPC   C4B17050  15.302  20.509   7.665
 1161POPC   NC317051   6.407  12.186  10.092
 1161POPC   PO417052   6.755  12.318   9.505
 1161POPC   GL117053   6.868  12.171   9.121
 1161POPC   GL217054   6.540  12.141   9.019
 1161POPC   C1A17055   6.893  11.996   8.720
 1161POPC   D2A17056   6.765  11.917   8.368
 1161POPC   C3A17057   6.870  12.145   8.037
 1161POPC   C4A17058   6.703  12.065   7.658
 1161POPC   C1B17059   6.325  11.991   8.643
 1161POPC   C2B17060   6.289  11.918   8.180
 1161POPC   C3B17061   6.189  12.000   7.748
 1161POPC   C4B17062   6.338  12.140   7.319
 1162POPC   NC317063   0.478  14.540   9.594
 1162POPC   PO417064   0.318  13.984   9.538
 1162POPC   GL117065   0.303  14.296   9.183
 1162POPC   GL217066   0.063  14.572   9.176
 1162POPC   C1A17067   0.519  14.521   8.862
 1162POPC   D2A17068   0.674  14.460   8.458
 1162POPC   C3A17069   0.533  14.288   8.082
 1162POPC   C4A17070   0.579  14.544   7.738
 1162POPC   C1B17071   0.020  14.563   8.712
 1162POPC   C2B17072   0.083  14.472   8.266
 1162POPC   C3B17073   0.097  14.379   7.799
 1162POPC   C4B17074   0.338  14.157   7.462
 1163POPC   NC317075  11.821  34.002   9.363
 1163POPC   PO417076  12.420  33.959   9.776
 1163POPC   GL117077  12.297  33.839   9.230
 1163POPC   GL217078  11.910  33.583   9.132
 1163POPC   C1A17079  12.314  34.113   8.811
 1163POPC   D2A17080  12.065  34.133   8.425
 1163POPC   C3A17081  12.301  34.014   8.093
 1163POPC   C4A17082  12.209  33.765   7.737
 1163POPC   C1B17083  11.970  33.740   8.745
 1163POPC   C2B17084  12.336  33.667   8.493
 1163POPC   C3B17085  12.214  33.469   8.136
 1163POPC   C4B17086  11.780  33.540   7.923
 1164POPC   NC317087  42.828  34.396   9.420
 1164POPC   PO417088  43.214  34.866   9.588
 1164POPC   GL117089  43.104  34.777   9.181
 1164POPC   GL217090  43.416  34.603   9.173
 1164POPC   C1A17091  43.020  34.589   8.791
 1164POPC   D2A17092  42.875  34.410   8.427
 1164POPC   C3A17093  43.044  34.460   8.024
 1164POPC   C4A17094  42.933  34.645   7.652
 1164POPC   C1B17095  43.508  34.384   8.801
 1164POPC   C2B17096  43.357  34.254   8.412
 1164POPC   C3B17097  43.530  34.248   8.010
 1164POPC   C4B17098  43.426  34.460   7.661
 1165POPC   NC317099  39.861  40.763   9.592
 1165POPC   PO417100  40.464  40.740   9.592
 1165POPC   GL117101  40.148  40.951   9.216
 1165POPC   GL217102  39.732  41.024   9.173
 1165POPC   C1A17103  39.991  40.813   8.799
 1165POPC   D2A17104  40.005  40.507   8.477
 1165POPC   C3A17105  40.235  40.569   8.063
 1165POPC   C4A17106  40.127  40.521   7.629
 1165POPC   C1B17107  39.586  41.130   8.742
 1165POPC   C2B17108  39.853  41.032   8.369
 1165POPC   C3B17109  39.764  40.779   8.023
 1165POPC   C4B17110  39.654  40.934   7.665
 1166POPC   NC317111  38.641  18.468   9.585
 1166POPC   PO417112  39.307  18.243   9.689
 1166POPC   GL117113  39.220  18.078   9.194
 1166POPC   GL217114  39.483  18.223   8.924
 1166POPC   C1A17115  39.070  18.062   8.736
 1166POPC   D2A17116  39.295  17.977   8.351
 1166POPC   C3A17117  39.241  18.032   7.909
 1166POPC   C4A17118  39.089  18.303   7.574
 1166POPC   C1B17119  39.545  18.573   8.706
 1166POPC   C2B17120  39.577  18.438   8.316
 1166POPC   C3B17121  39.330  18.515   7.997
 1166POPC   C4B17122  39.533  18.536   7.622
 1167POPC   NC317123   0.278   0.074   9.421
 1167POPC   PO417124   0.236  44.389   9.498
 1167POPC   GL117125   0.366  44.572   9.077
 1167POPC   GL217126   0.444  44.991   8.965
 1167POPC   C1A17127   0.345  44.650   8.643
 1167POPC   D2A17128   0.561  44.933   8.411
 1167POPC   C3A17129   0.472  44.708   8.038
 1167POPC   C4A17130   0.298  44.529   7.651
 1167POPC   C1B17131   0.028   0.025   8.670
 1167POPC   C2B17132   0.089   0.015   8.231
 1167POPC   C3B17133   0.181   0.023   7.763
 1167POPC   C4B17134   0.251  44.922   7.325
 1168POPC   NC317135  13.186   0.366   9.331
 1168POPC   PO417136  12.539   0.490   9.387
 1168POPC   GL117137  12.756   0.343   9.059
 1168POPC   GL217138  12.695   0.002   9.166
 1168POPC   C1A17139  12.957   0.588   8.726
 1168POPC   D2A17140  12.843   0.790   8.342
 1168POPC   C3A17141  12.711   0.518   8.019
 1168POPC   C4A17142  12.806   0.672   7.640
 1168POPC   C1B17143  12.478   0.006   8.784
 1168POPC   C2B17144  12.501   0.243   8.407
 1168POPC   C3B17145  12.457   0.057   7.998
 1168POPC   C4B17146  12.621   0.157   7.603
 1169POPC   NC317147  27.558   5.310   9.587
 1169POPC   PO417148  27.366   4.697   9.369
 1169POPC   GL117149  27.561   4.879   9.062
 1169POPC   GL217150  27.710   5.175   9.113
 1169POPC   C1A17151  27.758   4.828   8.695
 1169POPC   D2A17152  27.754   4.988   8.299
 1169POPC   C3A17153  27.507   4.882   7.942
 1169POPC   C4A17154  27.470   4.963   7.496
 1169POPC   C1B17155  27.540   5.326   8.688
 1169POPC   C2B17156  27.570   5.466   8.222
 1169POPC   C3B17157  27.552   5.378   7.776
 1169POPC   C4B17158  27.438   5.520   7.358
 1170POPC   NC317159  41.600  44.598   9.742
 1170POPC   PO417160  41.609  43.877   9.601
 1170POPC   GL117161  41.655  43.854   9.135
 1170POPC   GL217162  41.806  44.171   9.108
 1170POPC   C1A17163  41.547  43.708   8.719
 1170POPC   D2A17164  41.158  43.649   8.415
 1170POPC   C3A17165  41.333  43.614   7.991
 1170POPC   C4A17166  41.781  43.658   7.926
 1170POPC   C1B17167  41.706  44.206   8.713
 1170POPC   C2B17168  41.519  44.064   8.328
 1170POPC   C3B17169  41.670  44.171   7.936
 1170POPC   C4B17170  41.757  44.463   7.634
 1171POPC   NC317171  25.707  11.746   9.638
 1171POPC   PO417172  26.065  12.353   9.515
 1171POPC   GL117173  26.043  12.196   9.120
 1171POPC   GL217174  26.150  11.871   9.106
 1171POPC   C1A17175  26.270  12.254   8.726
 1171POPC   D2A17176  26.032  12.229   8.321
 1171POPC   C3A17177  25.894  12.257   7.889
 1171POPC   C4A17178  26.238  12.143   7.619
 1171POPC   C1B17179  25.919  11.895   8.715
 1171POPC   C2B17180  25.759  11.781   8.339
 1171POPC   C3B17181  25.908  11.755   7.957
 1171POPC   C4B17182  25.787  11.859   7.555
 1172POPC   NC317183  29.686  10.489   9.605
 1172POPC   PO417184  30.161  10.995   9.530
 1172POPC   GL117185  30.128  10.788   9.175
 1172POPC   GL217186  29.967  10.489   9.169
 1172POPC   C1A17187  30.020  10.856   8.783
 1172POPC   D2A17188  29.909  10.575   8.500
 1172POPC   C3A17189  30.036  10.734   8.161
 1172POPC   C4A17190  30.027  10.704   7.797
 1172POPC   C1B17191  29.788  10.221   8.854
 1172POPC   C2B17192  29.789  10.080   8.402
 1172POPC   C3B17193  29.865  10.259   8.006
 1172POPC   C4B17194  29.579  10.455   7.703
 1173POPC   NC317195   8.381  17.611   9.527
 1173POPC   PO417196   8.589  16.935   9.459
 1173POPC   GL117197   8.400  17.241   9.144
 1173POPC   GL217198   8.550  17.584   9.065
 1173POPC   C1A17199   8.197  17.356   8.755
 1173POPC   D2A17200   8.275  17.538   8.340
 1173POPC   C3A17201   7.938  17.501   8.040
 1173POPC   C4A17202   7.942  17.338   7.595
 1173POPC   C1B17203   8.512  17.826   8.701
 1173POPC   C2B17204   8.724  17.890   8.289
 1173POPC   C3B17205   8.520  17.780   7.915
 1173POPC   C4B17206   8.387  17.356   7.849
 1174POPC   NC317207  39.065  35.912   9.450
 1174POPC   PO417208  39.576  36.375   9.570
 1174POPC   GL117209  39.466  36.058   9.185
 1174POPC   GL217210  39.134  36.178   9.025
 1174POPC   C1A17211  39.474  35.968   8.685
 1174POPC   D2A17212  39.178  35.919   8.297
 1174POPC   C3A17213  39.278  36.133   7.898
 1174POPC   C4A17214  39.115  36.550   7.739
 1174POPC   C1B17215  39.152  36.375   8.615
 1174POPC   C2B17216  39.297  36.538   8.241
 1174POPC   C3B17217  39.587  36.573   7.888
 1174POPC   C4B17218  39.564  36.682   7.412
 1175POPC   NC317219  36.765  32.124   9.449
 1175POPC   PO417220  37.385  32.365   9.399
 1175POPC   GL117221  37.081  32.277   9.089
 1175POPC   GL217222  36.767  32.491   9.104
 1175POPC   C1A17223  37.026  32.018   8.757
 1175POPC   D2A17224  36.728  31.920   8.451
 1175POPC   C3A17225  36.827  31.980   8.022
 1175POPC   C4A17226  37.176  32.061   7.745
 1175POPC   C1B17227  36.573  32.309   8.731
 1175POPC   C2B17228  36.617  32.394   8.272
 1175POPC   C3B17229  36.537  32.423   7.818
 1175POPC   C4B17230  36.636  32.507   7.356
 1176POPC   NC317231  42.230   7.651   9.816
 1176POPC   PO417232  42.330   8.255   9.411
 1176POPC   GL117233  42.402   8.352   9.039
 1176POPC   GL217234  42.100   8.517   9.012
 1176POPC   C1A17235  42.228   8.148   8.679
 1176POPC   D2A17236  42.070   8.129   8.271
 1176POPC   C3A17237  42.477   8.052   8.095
 1176POPC   C4A17238  42.555   7.922   7.696
 1176POPC   C1B17239  42.397   8.623   8.622
 1176POPC   C2B17240  42.336   8.556   8.172
 1176POPC   C3B17241  42.293   8.404   7.778
 1176POPC   C4B17242  42.058   8.538   7.443
 1177POPC   NC317243  18.359  16.330   9.444
 1177POPC   PO417244  18.542  15.652   9.579
 1177POPC   GL117245  18.454  15.889   9.203
 1177POPC   GL217246  18.095  15.965   9.174
 1177POPC   C1A17247  18.508  16.075   8.805
 1177POPC   D2A17248  18.606  15.958   8.400
 1177POPC   C3A17249  18.490  16.134   8.023
 1177POPC   C4A17250  18.335  15.919   7.704
 1177POPC   C1B17251  17.979  16.126   8.757
 1177POPC   C2B17252  18.072  16.028   8.316
 1177POPC   C3B17253  17.906  16.103   7.903
 1177POPC   C4B17254  17.917  16.087   7.411
 1178POPC   NC317255  25.069   0.000   9.570
 1178POPC   PO417256  25.392   0.592   9.382
 1178POPC   GL117257  25.097   0.599   9.069
 1178POPC   GL217258  24.956   0.277   9.155
 1178POPC   C1A17259  25.149   0.631   8.646
 1178POPC   D2A17260  25.324   0.372   8.320
 1178POPC   C3A17261  25.178   0.604   7.979
 1178POPC   C4A17262  25.280   0.784   7.567
 1178POPC   C1B17263  25.146   0.130   8.758
 1178POPC   C2B17264  25.104  44.906   8.360
 1178POPC   C3B17265  25.075   0.070   7.955
 1178POPC   C4B17266  25.231   0.295   7.594
 1179POPC   NC317267  32.704  32.697   9.528
 1179POPC   PO417268  33.273  33.093   9.393
 1179POPC   GL117269  33.193  33.189   9.014
 1179POPC   GL217270  32.833  33.170   9.085
 1179POPC   C1A17271  33.375  33.024   8.621
 1179POPC   D2A17272  33.468  32.797   8.242
 1179POPC   C3A17273  33.354  32.999   7.874
 1179POPC   C4A17274  33.077  32.718   7.672
 1179POPC   C1B17275  32.871  32.972   8.687
 1179POPC   C2B17276  33.018  33.089   8.277
 1179POPC   C3B17277  32.828  33.085   7.913
 1179POPC   C4B17278  32.595  33.165   7.577
 1180POPC   NC317279  33.954   7.711   9.585
 1180POPC   PO417280  33.529   8.201   9.389
 1180POPC   GL117281  33.893   7.995   9.173
 1180POPC   GL217282  33.856   8.268   8.983
 1180POPC   C1A17283  34.163   7.945   8.781
 1180POPC   D2A17284  33.927   8.217   8.473
 1180POPC   C3A17285  33.763   8.199   8.048
 1180POPC   C4A17286  33.944   8.120   7.652
 1180POPC   C1B17287  33.547   8.480   8.745
 1180POPC   C2B17288  33.442   8.479   8.359
 1180POPC   C3B17289  33.493   8.663   7.975
 1180POPC   C4B17290  33.473   8.392   7.635
 1181POPC   NC317291  44.292  15.382   9.642
 1181POPC   PO417292  44.883  14.915   9.502
 1181POPC   GL117293  44.742  15.118   9.157
 1181POPC   GL217294  44.390  15.159   9.197
 1181POPC   C1A17295  44.793  15.207   8.716
 1181POPC   D2A17296  44.876  14.992   8.324
 1181POPC   C3A17297  44.931  15.224   7.946
 1181POPC   C4A17298  44.856  15.349   7.507
 1181POPC   C1B17299  44.248  15.231   8.778
 1181POPC   C2B17300  44.402  15.270   8.367
 1181POPC   C3B17301  44.434  15.040   8.014
 1181POPC   C4B17302  44.417  15.175   7.632
 1182POPC   NC317303  39.416   4.842   9.629
 1182POPC   PO417304  39.079   5.463   9.425
 1182POPC   GL117305  39.354   5.300   9.156
 1182POPC   GL217306  39.395   4.926   9.135
 1182POPC   C1A17307  39.334   5.231   8.737
 1182POPC   D2A17308  39.160   5.394   8.388
 1182POPC   C3A17309  39.255   5.297   7.991
 1182POPC   C4A17310  39.013   5.165   7.650
 1182POPC   C1B17311  39.255   4.714   8.759
 1182POPC   C2B17312  39.268   4.870   8.328
 1182POPC   C3B17313  39.448   4.835   7.925
 1182POPC   C4B17314  39.457   4.492   7.647
 1183POPC   NC317315  43.595   5.949   9.540
 1183POPC   PO417316  42.977   5.690   9.475
 1183POPC   GL117317  42.973   5.986   9.143
 1183POPC   GL217318  43.296   5.877   9.113
 1183POPC   C1A17319  43.098   6.132   8.723
 1183POPC   D2A17320  43.023   5.914   8.336
 1183POPC   C3A17321  43.169   6.125   8.015
 1183POPC   C4A17322  43.194   5.933   7.639
 1183POPC   C1B17323  43.143   5.612   8.788
 1183POPC   C2B17324  43.301   5.456   8.397
 1183POPC   C3B17325  43.147   5.500   7.998
 1183POPC   C4B17326  43.339   5.454   7.613
 1184POPC   NC317327  18.544  17.212   9.455
 1184POPC   PO417328  18.098  17.697   9.464
 1184POPC   GL117329  18.207  17.483   9.129
 1184POPC   GL217330  18.055  17.178   9.181
 1184POPC   C1A17331  18.375  17.472   8.738
 1184POPC   D2A17332  18.678  17.383   8.432
 1184POPC   C3A17333  18.479  17.328   8.059
 1184POPC   C4A17334  18.381  17.705   7.811
 1184POPC   C1B17335  17.878  17.312   8.747
 1184POPC   C2B17336  18.036  17.490   8.327
 1184POPC   C3B17337  17.999  17.375   7.879
 1184POPC   C4B17338  17.802  17.413   7.489
 1185POPC   NC317339  26.240  43.798   9.606
 1185POPC   PO417340  25.566  43.924   9.651
 1185POPC   GL117341  25.876  43.778   9.236
 1185POPC   GL217342  26.269  43.611   9.149
 1185POPC   C1A17343  26.044  43.922   8.812
 1185POPC   D2A17344  26.284  44.096   8.454
 1185POPC   C3A17345  26.213  44.117   8.017
 1185POPC   C4A17346  25.925  43.948   7.744
 1185POPC   C1B17347  26.317  43.488   8.714
 1185POPC   C2B17348  26.067  43.638   8.325
 1185POPC   C3B17349  26.257  43.597   7.914
 1185POPC   C4B17350  26.498  43.887   7.652
 1186POPC   NC317351  15.718   1.592   9.474
 1186POPC   PO417352  16.152   1.050   9.473
 1186POPC   GL117353  16.039   1.337   9.166
 1186POPC   GL217354  15.710   1.194   9.175
 1186POPC   C1A17355  16.012   1.309   8.747
 1186POPC   D2A17356  15.910   1.399   8.351
 1186POPC   C3A17357  16.059   1.160   8.043
 1186POPC   C4A17358  16.250   1.461   7.789
 1186POPC   C1B17359  15.529   1.129   8.811
 1186POPC   C2B17360  15.442   1.225   8.410
 1186POPC   C3B17361  15.540   1.247   7.961
 1186POPC   C4B17362  15.764   0.988   7.665
 1187POPC   NC317363  32.383  42.155   9.477
 1187POPC   PO417364  31.925  42.641   9.546
 1187POPC   GL117365  32.056  42.379   9.145
 1187POPC   GL217366  32.427  42.419   9.048
 1187POPC   C1A17367  32.064  42.473   8.685
 1187POPC   D2A17368  31.936  42.624   8.268
 1187POPC   C3A17369  32.227  42.440   7.945
 1187POPC   C4A17370  32.166  42.427   7.503
 1187POPC   C1B17371  32.637  42.220   8.697
 1187POPC   C2B17372  32.493  42.104   8.259
 1187POPC   C3B17373  32.712  42.072   7.857
 1187POPC   C4B17374  32.724  41.901   7.416
 1188POPC   NC317375  14.870  15.852   9.649
 1188POPC   PO417376  14.256  16.195   9.609
 1188POPC   GL117377  14.434  15.957   9.250
 1188POPC   GL217378  14.700  16.207   9.140
 1188POPC   C1A17379  14.211  15.694   8.887
 1188POPC   D2A17380  14.000  15.646   8.452
 1188POPC   C3A17381  14.103  15.870   8.073
 1188POPC   C4A17382  14.336  16.120   7.784
 1188POPC   C1B17383  14.550  16.035   8.741
 1188POPC   C2B17384  14.540  16.112   8.301
 1188POPC   C3B17385  14.680  15.819   8.017
 1188POPC   C4B17386  14.657  15.550   7.709
 1189POPC   NC317387   8.042  21.882   9.559
 1189POPC   PO417388   8.377  22.401   9.382
 1189POPC   GL117389   8.172  22.236   9.074
 1189POPC   GL217390   7.862  22.209   9.202
 1189POPC   C1A17391   8.193  22.428   8.676
 1189POPC   D2A17392   8.477  22.313   8.350
 1189POPC   C3A17393   8.337  22.197   7.944
 1189POPC   C4A17394   8.310  22.322   7.512
 1189POPC   C1B17395   7.796  22.088   8.756
 1189POPC   C2B17396   8.003  22.060   8.370
 1189POPC   C3B17397   7.937  21.874   8.003
 1189POPC   C4B17398   7.628  21.902   7.696
 1190POPC   NC317399  28.301  36.067   9.558
 1190POPC   PO417400  28.892  35.847   9.383
 1190POPC   GL117401  28.603  36.134   9.154
 1190POPC   GL217402  28.261  36.025   9.062
 1190POPC   C1A17403  28.619  36.106   8.703
 1190POPC   D2A17404  28.628  35.935   8.293
 1190POPC   C3A17405  28.324  36.029   7.992
 1190POPC   C4A17406  28.339  35.914   7.558
 1190POPC   C1B17407  28.004  36.013   8.716
 1190POPC   C2B17408  28.031  35.766   8.373
 1190POPC   C3B17409  27.779  35.575   8.077
 1190POPC   C4B17410  27.881  35.859   7.771
 1191POPC   NC317411  33.674   2.504   9.435
 1191POPC   PO417412  34.112   3.019   9.474
 1191POPC   GL117413  33.936   2.839   9.139
 1191POPC   GL217414  33.595   2.965   9.184
 1191POPC   C1A17415  33.735   2.617   8.807
 1191POPC   D2A17416  33.776   2.791   8.436
 1191POPC   C3A17417  33.828   2.496   8.139
 1191POPC   C4A17418  33.698   2.530   7.707
 1191POPC   C1B17419  33.509   3.119   8.757
 1191POPC   C2B17420  33.339   3.021   8.319
 1191POPC   C3B17421  33.639   2.970   7.973
 1191POPC   C4B17422  33.573   3.022   7.527
 1192POPC   NC317423  40.944  21.919   9.526
 1192POPC   PO417424  40.478  22.321   9.624
 1192POPC   GL117425  40.606  22.328   9.225
 1192POPC   GL217426  40.598  21.993   9.173
 1192POPC   C1A17427  40.588  22.386   8.786
 1192POPC   D2A17428  40.780  22.359   8.393
 1192POPC   C3A17429  40.532  22.317   8.031
 1192POPC   C4A17430  40.678  22.229   7.564
 1192POPC   C1B17431  40.861  21.952   8.820
 1192POPC   C2B17432  41.013  21.891   8.416
 1192POPC   C3B17433  40.945  21.648   8.084
 1192POPC   C4B17434  40.951  21.786   7.603
 1193POPC   NC317435  16.388   9.764   9.502
 1193POPC   PO417436  16.951   9.577   9.888
 1193POPC   GL117437  16.924   9.744   9.364
 1193POPC   GL217438  16.681  10.007   9.168
 1193POPC   C1A17439  16.960   9.740   8.837
 1193POPC   D2A17440  16.965   9.943   8.375
 1193POPC   C3A17441  16.967   9.727   7.976
 1193POPC   C4A17442  16.845   9.940   7.584
 1193POPC   C1B17443  16.437   9.856   8.777
 1193POPC   C2B17444  16.239   9.823   8.338
 1193POPC   C3B17445  16.414   9.788   7.944
 1193POPC   C4B17446  16.301   9.974   7.598
 1194POPC   NC317447  37.185  44.069   9.578
 1194POPC   PO417448  37.516  43.488   9.614
 1194POPC   GL117449  37.109  43.584   9.325
 1194POPC   GL217450  37.003  43.934   9.109
 1194POPC   C1A17451  37.092  43.517   8.862
 1194POPC   D2A17452  37.113  43.848   8.547
 1194POPC   C3A17453  37.033  43.777   8.122
 1194POPC   C4A17454  37.034  44.042   7.751
 1194POPC   C1B17455  36.661  43.813   8.802
 1194POPC   C2B17456  36.583  43.909   8.351
 1194POPC   C3B17457  36.582  43.854   7.891
 1194POPC   C4B17458  36.617  44.057   7.442
 1195POPC   NC317459  10.723   7.968   9.569
 1195POPC   PO417460  10.138   8.276   9.558
 1195POPC   GL117461  10.458   8.303   9.217
 1195POPC   GL217462  10.290   8.046   9.057
 1195POPC   C1A17463  10.604   8.510   8.804
 1195POPC   D2A17464  10.466   8.322   8.387
 1195POPC   C3A17465  10.543   8.537   8.043
 1195POPC   C4A17466  10.785   8.439   7.709
 1195POPC   C1B17467  10.609   7.995   8.732
 1195POPC   C2B17468  10.681   7.825   8.317
 1195POPC   C3B17469  10.550   8.000   7.906
 1195POPC   C4B17470  10.794   7.963   7.524
 1196POPC   NC317471   6.785  39.945   9.438
 1196POPC   PO417472   7.451  40.112   9.438
 1196POPC   GL117473   7.177  40.036   9.128
 1196POPC   GL217474   6.947  40.340   9.141
 1196POPC   C1A17475   7.411  39.883   8.805
 1196POPC   D2A17476   7.710  40.004   8.519
 1196POPC   C3A17477   7.472  39.964   8.150
 1196POPC   C4A17478   7.568  39.773   7.737
 1196POPC   C1B17479   7.001  40.239   8.698
 1196POPC   C2B17480   6.903  40.220   8.261
 1196POPC   C3B17481   7.101  40.395   7.927
 1196POPC   C4B17482   7.511  40.297   7.791
 1197POPC   NC317483  23.304  11.053   9.427
 1197POPC   PO417484  23.667  11.512   9.692
 1197POPC   GL117485  23.704  11.385   9.259
 1197POPC   GL217486  23.396  11.486   9.173
 1197POPC   C1A17487  23.622  11.242   8.794
 1197POPC   D2A17488  23.741  11.130   8.399
 1197POPC   C3A17489  23.648  11.308   8.037
 1197POPC   C4A17490  23.770  11.144   7.646
 1197POPC   C1B17491  23.408  11.702   8.799
 1197POPC   C2B17492  23.333  11.491   8.430
 1197POPC   C3B17493  23.213  11.622   8.052
 1197POPC   C4B17494  23.297  11.441   7.670
 1198POPC   NC317495   4.744   8.061   9.366
 1198POPC   PO417496   5.045   8.619   9.483
 1198POPC   GL117497   5.276   8.412   9.143
 1198POPC   GL217498   5.243   8.071   9.185
 1198POPC   C1A17499   5.157   8.414   8.718
 1198POPC   D2A17500   5.115   8.676   8.353
 1198POPC   C3A17501   5.035   8.452   7.981
 1198POPC   C4A17502   5.270   8.330   7.605
 1198POPC   C1B17503   5.192   7.875   8.765
 1198POPC   C2B17504   5.115   8.044   8.340
 1198POPC   C3B17505   5.125   7.939   7.914
 1198POPC   C4B17506   5.411   7.840   7.588
 1199POPC   NC317507  16.721  34.829   9.632
 1199POPC   PO417508  16.805  34.143   9.698
 1199POPC   GL117509  16.899  34.460   9.296
 1199POPC   GL217510  16.555  34.584   9.220
 1199POPC   C1A17511  16.905  34.782   8.908
 1199POPC   D2A17512  16.951  34.748   8.442
 1199POPC   C3A17513  17.190  34.940   8.083
 1199POPC   C4A17514  16.950  34.775   7.738
 1199POPC   C1B17515  16.448  34.563   8.793
 1199POPC   C2B17516  16.413  34.709   8.398
 1199POPC   C3B17517  16.496  34.590   7.981
 1199POPC   C4B17518  16.368  34.458   7.567
 1200POPC   NC317519  24.058   6.679   9.333
 1200POPC   PO417520  23.346   6.594   9.425
 1200POPC   GL117521  23.611   6.652   9.099
 1200POPC   GL217522  23.720   6.351   9.044
 1200POPC   C1A17523  23.752   6.791   8.712
 1200POPC   D2A17524  23.847   6.581   8.340
 1200POPC   C3A17525  23.981   6.809   8.018
 1200POPC   C4A17526  23.646   6.983   7.781
 1200POPC   C1B17527  24.047   6.359   8.757
 1200POPC   C2B17528  24.256   6.260   8.381
 1200POPC   C3B17529  24.043   6.296   7.965
 1200POPC   C4B17530  23.739   6.460   7.717
 1201POPC   NC317531  39.106  22.522   9.581
 1201POPC   PO417532  39.150  23.186   9.531
 1201POPC   GL117533  39.181  22.915   9.186
 1201POPC   GL217534  39.474  22.720   9.234
 1201POPC   C1A17535  39.153  22.844   8.730
 1201POPC   D2A17536  39.226  23.050   8.314
 1201POPC   C3A17537  39.037  22.963   7.930
 1201POPC   C4A17538  38.929  22.557   7.775
 1201POPC   C1B17539  39.656  22.901   8.855
 1201POPC   C2B17540  39.727  22.897   8.395
 1201POPC   C3B17541  39.606  23.128   7.980
 1201POPC   C4B17542  39.552  23.232   7.536
 1202POPC   NC317543  32.548  29.095   9.468
 1202POPC   PO417544  31.861  29.330   9.448
 1202POPC   GL117545  32.163  29.192   9.164
 1202POPC   GL217546  32.090  28.828   9.270
 1202POPC   C1A17547  32.438  29.379   8.816
 1202POPC   D2A17548  32.511  29.549   8.384
 1202POPC   C3A17549  32.171  29.495   8.067
 1202POPC   C4A17550  32.253  29.367   7.646
 1202POPC   C1B17551  32.211  28.817   8.842
 1202POPC   C2B17552  32.159  29.093   8.488
 1202POPC   C3B17553  32.375  29.038   8.123
 1202POPC   C4B17554  32.282  28.889   7.742
 1203POPC   NC317555  22.406  29.530   9.393
 1203POPC   PO417556  22.262  30.218   9.399
 1203POPC   GL117557  22.294  29.918   9.103
 1203POPC   GL217558  21.957  29.739   9.118
 1203POPC   C1A17559  22.299  29.654   8.739
 1203POPC   D2A17560  22.003  29.720   8.425
 1203POPC   C3A17561  22.223  29.877   8.081
 1203POPC   C4A17562  22.188  29.864   7.635
 1203POPC   C1B17563  21.940  30.115   8.798
 1203POPC   C2B17564  21.946  30.253   8.360
 1203POPC   C3B17565  21.850  30.191   7.917
 1203POPC   C4B17566  21.917  30.319   7.511
 1204POPC   NC317567  16.930  18.102   9.567
 1204POPC   PO417568  16.308  18.131   9.414
 1204POPC   GL117569  16.612  18.370   9.155
 1204POPC   GL217570  16.990  18.434   9.189
 1204POPC   C1A17571  16.708  18.271   8.731
 1204POPC   D2A17572  16.635  18.432   8.320
 1204POPC   C3A17573  16.533  18.102   8.050
 1204POPC   C4A17574  16.690  18.229   7.696
 1204POPC   C1B17575  17.163  18.529   8.807
 1204POPC   C2B17576  17.167  18.358   8.408
 1204POPC   C3B17577  17.081  18.395   7.988
 1204POPC   C4B17578  17.342  18.681   7.760
 1205POPC   NC317579  36.506  42.706   9.492
 1205POPC   PO417580  36.025  43.237   9.537
 1205POPC   GL117581  36.224  43.162   9.134
 1205POPC   GL217582  36.419  42.888   9.050
 1205POPC   C1A17583  36.020  43.138   8.730
 1205POPC   D2A17584  35.794  43.412   8.402
 1205POPC   C3A17585  36.023  43.312   8.034
 1205POPC   C4A17586  35.924  42.950   7.828
 1205POPC   C1B17587  36.467  42.709   8.715
 1205POPC   C2B17588  36.680  42.882   8.405
 1205POPC   C3B17589  36.411  42.977   8.087
 1205POPC   C4B17590  36.465  43.157   7.711
 1206POPC   NC317591  13.215  27.607   9.302
 1206POPC   PO417592  13.847  27.449   9.510
 1206POPC   GL117593  13.780  27.529   9.117
 1206POPC   GL217594  13.703  27.846   9.155
 1206POPC   C1A17595  13.546  27.552   8.740
 1206POPC   D2A17596  13.680  27.572   8.327
 1206POPC   C3A17597  13.500  27.356   7.975
 1206POPC   C4A17598  13.514  27.330   7.516
 1206POPC   C1B17599  13.932  27.905   8.748
 1206POPC   C2B17600  14.110  27.867   8.308
 1206POPC   C3B17601  13.993  27.644   7.935
 1206POPC   C4B17602  13.759  27.772   7.589
 1207POPC   NC317603  36.630  35.393   9.457
 1207POPC   PO417604  37.258  35.484   9.278
 1207POPC   GL117605  36.999  35.192   9.051
 1207POPC   GL217606  36.601  35.117   9.033
 1207POPC   C1A17607  37.070  35.404   8.643
 1207POPC   D2A17608  36.998  35.729   8.340
 1207POPC   C3A17609  37.085  35.598   7.917
 1207POPC   C4A17610  37.074  35.272   7.660
 1207POPC   C1B17611  36.586  35.260   8.622
 1207POPC   C2B17612  36.791  35.292   8.227
 1207POPC   C3B17613  36.617  35.363   7.850
 1207POPC   C4B17614  36.456  35.001   7.669
 1208POPC   NC317615   7.294  20.557   9.432
 1208POPC   PO417616   6.884  21.110   9.368
 1208POPC   GL117617   7.212  20.901   9.053
 1208POPC   GL217618   7.600  20.759   9.053
 1208POPC   C1A17619   7.267  20.534   8.763
 1208POPC   D2A17620   7.507  20.480   8.393
 1208POPC   C3A17621   7.293  20.473   8.034
 1208POPC   C4A17622   7.332  20.618   7.650
 1208POPC   C1B17623   7.911  20.554   8.719
 1208POPC   C2B17624   7.998  20.443   8.255
 1208POPC   C3B17625   7.848  20.644   7.864
 1208POPC   C4B17626   7.789  20.602   7.361
 1209POPC   NC317627  17.244   1.334   9.482
 1209POPC   PO417628  17.831   1.097   9.761
 1209POPC   GL117629  17.736   1.205   9.279
 1209POPC   GL217630  17.864   1.511   9.108
 1209POPC   C1A17631  17.554   1.165   8.826
 1209POPC   D2A17632  17.728   1.390   8.446
 1209POPC   C3A17633  17.699   1.284   8.009
 1209POPC   C4A17634  17.821   1.059   7.602
 1209POPC   C1B17635  17.545   1.678   8.826
 1209POPC   C2B17636  17.263   1.652   8.464
 1209POPC   C3B17637  17.258   1.589   8.019
 1209POPC   C4B17638  17.340   1.355   7.654
 1210POPC   NC317639  35.950  25.416   9.459
 1210POPC   PO417640  35.804  24.716   9.429
 1210POPC   GL117641  36.124  24.941   9.122
 1210POPC   GL217642  36.060  25.317   8.980
 1210POPC   C1A17643  36.292  24.980   8.675
 1210POPC   D2A17644  36.052  25.303   8.419
 1210POPC   C3A17645  35.864  25.204   8.056
 1210POPC   C4A17646  35.884  25.435   7.719
 1210POPC   C1B17647  36.390  25.500   8.723
 1210POPC   C2B17648  36.561  25.313   8.338
 1210POPC   C3B17649  36.348  25.028   8.049
 1210POPC   C4B17650  36.240  25.071   7.619
 1211POPC   NC317651  23.435   5.232   9.422
 1211POPC   PO417652  23.912   4.833   9.769
 1211POPC   GL117653  23.951   4.918   9.273
 1211POPC   GL217654  23.675   4.871   9.118
 1211POPC   C1A17655  23.897   5.221   8.844
 1211POPC   D2A17656  23.899   5.523   8.534
 1211POPC   C3A17657  23.705   5.288   8.203
 1211POPC   C4A17658  23.836   5.275   7.786
 1211POPC   C1B17659  23.872   4.710   8.762
 1211POPC   C2B17660  23.808   4.772   8.319
 1211POPC   C3B17661  23.611   4.815   7.913
 1211POPC   C4B17662  23.458   4.557   7.557
 1212POPC   NC317663  26.451  33.398   9.362
 1212POPC   PO417664  26.929  32.869   9.501
 1212POPC   GL117665  26.676  32.965   9.175
 1212POPC   GL217666  26.905  33.246   9.155
 1212POPC   C1A17667  26.729  32.732   8.792
 1212POPC   D2A17668  26.826  32.899   8.404
 1212POPC   C3A17669  26.724  32.749   8.009
 1212POPC   C4A17670  26.883  32.707   7.557
 1212POPC   C1B17671  26.864  33.299   8.754
 1212POPC   C2B17672  27.092  33.321   8.388
 1212POPC   C3B17673  26.860  33.397   8.051
 1212POPC   C4B17674  26.788  33.186   7.699
 1213POPC   NC317675   3.039   6.787   9.424
 1213POPC   PO417676   2.386   6.812   9.404
 1213POPC   GL117677   2.661   6.534   9.156
 1213POPC   GL217678   2.429   6.338   9.003
 1213POPC   C1A17679   2.992   6.639   8.815
 1213POPC   D2A17680   3.083   6.520   8.406
 1213POPC   C3A17681   2.941   6.745   8.098
 1213POPC   C4A17682   2.838   6.485   7.836
 1213POPC   C1B17683   2.586   6.419   8.589
 1213POPC   C2B17684   2.472   6.737   8.285
 1213POPC   C3B17685   2.463   6.825   7.868
 1213POPC   C4B17686   2.407   7.046   7.532
 1214POPC   NC317687   8.752  10.674   9.502
 1214POPC   PO417688   9.385  10.695   9.228
 1214POPC   GL117689   9.039  10.514   9.099
 1214POPC   GL217690   9.059  10.705   8.823
 1214POPC   C1A17691   8.904  10.224   8.777
 1214POPC   D2A17692   8.802  10.390   8.414
 1214POPC   C3A17693   9.085  10.410   8.088
 1214POPC   C4A17694   8.914  10.276   7.690
 1214POPC   C1B17695   9.371  10.542   8.570
 1214POPC   C2B17696   9.440  10.878   8.313
 1214POPC   C3B17697   9.385  10.868   7.914
 1214POPC   C4B17698   9.032  10.759   7.721
 1215POPC   NC317699   9.629  13.403   9.459
 1215POPC   PO417700   9.910  13.954   9.416
 1215POPC   GL117701   9.844  13.766   9.069
 1215POPC   GL217702   9.492  13.711   9.085
 1215POPC   C1A17703  10.095  13.576   8.752
 1215POPC   D2A17704  10.057  13.326   8.417
 1215POPC   C3A17705  10.171  13.581   8.089
 1215POPC   C4A17706  10.090  13.663   7.675
 1215POPC   C1B17707   9.614  13.425   8.762
 1215POPC   C2B17708   9.526  13.360   8.370
 1215POPC   C3B17709   9.745  13.323   8.020
 1215POPC   C4B17710   9.617  13.483   7.687
 1216POPC   NC317711  30.919  18.024   9.429
 1216POPC   PO417712  30.418  18.554   9.541
 1216POPC   GL117713  30.621  18.389   9.210
 1216POPC   GL217714  30.491  18.074   9.126
 1216POPC   C1A17715  30.716  18.424   8.787
 1216POPC   D2A17716  30.517  18.609   8.449
 1216POPC   C3A17717  30.583  18.413   8.076
 1216POPC   C4A17718  30.603  18.535   7.675
 1216POPC   C1B17719  30.633  17.929   8.771
 1216POPC   C2B17720  30.805  18.026   8.350
 1216POPC   C3B17721  30.747  17.967   7.892
 1216POPC   C4B17722  30.726  18.095   7.430
 1217POPC   NC317723  13.497  23.453   9.429
 1217POPC   PO417724  13.928  24.035   9.377
 1217POPC   GL117725  13.526  24.118   9.142
 1217POPC   GL217726  13.510  23.761   9.029
 1217POPC   C1A17727  13.306  24.083   8.725
 1217POPC   D2A17728  13.358  23.681   8.512
 1217POPC   C3A17729  13.424  23.667   8.094
 1217POPC   C4A17730  13.777  23.732   7.868
 1217POPC   C1B17731  13.708  23.407   8.810
 1217POPC   C2B17732  13.827  23.128   8.488
 1217POPC   C3B17733  13.800  23.266   8.086
 1217POPC   C4B17734  13.867  23.255   7.641
 1218POPC   NC317735  32.140  33.505   9.695
 1218POPC   PO417736  32.066  34.080   9.194
 1218POPC   GL117737  32.339  33.842   8.965
 1218POPC   GL217738  32.411  33.479   9.058
 1218POPC   C1A17739  32.312  33.766   8.543
 1218POPC   D2A17740  32.083  33.584   8.235
 1218POPC   C3A17741  32.120  33.865   7.880
 1218POPC   C4A17742  32.512  34.132   7.827
 1218POPC   C1B17743  32.689  33.456   8.697
 1218POPC   C2B17744  32.577  33.346   8.296
 1218POPC   C3B17745  32.493  33.537   7.910
 1218POPC   C4B17746  32.299  33.558   7.475
 1219POPC   NC317747  10.105  26.775   9.493
 1219POPC   PO417748  10.734  26.906   9.445
 1219POPC   GL117749  10.454  26.734   9.131
 1219POPC   GL217750  10.258  27.037   9.080
 1219POPC   C1A17751  10.477  26.683   8.712
 1219POPC   D2A17752  10.480  26.919   8.364
 1219POPC   C3A17753  10.595  26.669   8.039
 1219POPC   C4A17754  10.776  26.872   7.672
 1219POPC   C1B17755  10.124  27.220   8.698
 1219POPC   C2B17756  10.106  27.285   8.252
 1219POPC   C3B17757  10.322  27.095   7.886
 1219POPC   C4B17758  10.236  26.692   7.699
 1220POPC   NC317759  24.039  44.574   9.554
 1220POPC   PO417760  24.603  44.964   9.518
 1220POPC   GL117761  24.511  44.946   9.084
 1220POPC   GL217762  24.286  44.650   9.018
 1220POPC   C1A17763  24.681  44.923   8.674
 1220POPC   D2A17764  24.576  44.938   8.235
 1220POPC   C3A17765  24.434  44.586   8.002
 1220POPC   C4A17766  24.478  44.810   7.625
 1220POPC   C1B17767  24.624  44.408   8.727
 1220POPC   C2B17768  24.952  44.335   8.368
 1220POPC   C3B17769  24.947  44.114   7.965
 1220POPC   C4B17770  24.630  44.200   7.676
 1221POPC   NC317771  30.272  33.969   9.502
 1221POPC   PO417772  30.942  33.655   9.465
 1221POPC   GL117773  30.635  33.765   9.157
 1221POPC   GL217774  30.592  34.131   9.103
 1221POPC   C1A17775  30.730  33.792   8.727
 1221POPC   D2A17776  30.887  34.037   8.360
 1221POPC   C3A17777  30.820  33.677   8.067
 1221POPC   C4A17778  30.602  33.575   7.699
 1221POPC   C1B17779  30.484  34.222   8.654
 1221POPC   C2B17780  30.405  33.885   8.332
 1221POPC   C3B17781  30.207  33.710   7.997
 1221POPC   C4B17782  30.162  33.804   7.546
 1222POPC   NC317783  19.594   7.885   9.722
 1222POPC   PO417784  19.914   8.407   9.506
 1222POPC   GL117785  19.854   8.173   9.155
 1222POPC   GL217786  19.543   8.037   9.234
 1222POPC   C1A17787  19.959   8.041   8.712
 1222POPC   D2A17788  20.071   8.235   8.311
 1222POPC   C3A17789  19.808   8.170   7.970
 1222POPC   C4A17790  19.882   7.759   7.876
 1222POPC   C1B17791  19.464   8.274   8.858
 1222POPC   C2B17792  19.564   8.282   8.441
 1222POPC   C3B17793  19.458   8.551   8.110
 1222POPC   C4B17794  19.436   8.495   7.682
 1223POPC   NC317795   4.079  27.301   9.418
 1223POPC   PO417796   4.011  26.583   9.574
 1223POPC   GL117797   4.205  26.734   9.110
 1223POPC   GL217798   4.317  27.093   9.008
 1223POPC   C1A17799   4.380  26.638   8.689
 1223POPC   D2A17800   4.120  26.691   8.279
 1223POPC   C3A17801   4.311  26.669   7.870
 1223POPC   C4A17802   4.499  26.779   7.439
 1223POPC   C1B17803   4.136  27.058   8.654
 1223POPC   C2B17804   3.838  27.095   8.424
 1223POPC   C3B17805   3.929  27.138   8.004
 1223POPC   C4B17806   4.137  27.081   7.632
 1224POPC   NC317807  11.917  31.832   9.387
 1224POPC   PO417808  12.348  31.307   9.441
 1224POPC   GL117809  12.228  31.486   9.054
 1224POPC   GL217810  11.936  31.329   8.998
 1224POPC   C1A17811  12.077  31.676   8.652
 1224POPC   D2A17812  11.742  31.666   8.333
 1224POPC   C3A17813  11.914  31.584   7.911
 1224POPC   C4A17814  12.244  31.800   7.713
 1224POPC   C1B17815  11.896  31.134   8.633
 1224POPC   C2B17816  11.736  31.167   8.197
 1224POPC   C3B17817  11.710  30.964   7.779
 1224POPC   C4B17818  11.763  31.173   7.358
 1225POPC   NC317819  23.477  17.487   9.493
 1225POPC   PO417820  24.171  17.613   9.613
 1225POPC   GL117821  23.852  17.734   9.244
 1225POPC   GL217822  23.571  17.466   9.008
 1225POPC   C1A17823  23.929  17.744   8.831
 1225POPC   D2A17824  23.804  17.432   8.502
 1225POPC   C3A17825  23.651  17.598   8.089
 1225POPC   C4A17826  23.574  17.425   7.689
 1225POPC   C1B17827  23.327  17.572   8.657
 1225POPC   C2B17828  23.248  17.343   8.271
 1225POPC   C3B17829  23.126  17.558   7.885
 1225POPC   C4B17830  23.294  17.891   7.578
 1226POPC   NC317831  44.553  34.633   9.558
 1226POPC   PO417832  44.743  35.236   9.545
 1226POPC   GL117833  44.608  34.962   9.192
 1226POPC   GL217834  44.887  34.710   9.170
 1226POPC   C1A17835  44.459  34.756   8.811
 1226POPC   D2A17836  44.322  34.731   8.370
 1226POPC   C3A17837  44.534  34.454   8.047
 1226POPC   C4A17838  44.882  34.134   7.968
 1226POPC   C1B17839   0.059  34.547   8.768
 1226POPC   C2B17840   0.055  34.486   8.326
 1226POPC   C3B17841  44.990  34.671   7.948
 1226POPC   C4B17842  44.727  34.752   7.600
 1227POPC   NC317843   8.797  26.066   9.540
 1227POPC   PO417844   9.473  26.281   9.468
 1227POPC   GL117845   9.147  26.141   9.150
 1227POPC   GL217846   8.796  26.288   9.075
 1227POPC   C1A17847   8.994  25.811   8.843
 1227POPC   D2A17848   8.857  25.806   8.387
 1227POPC   C3A17849   9.061  25.860   7.980
 1227POPC   C4A17850   8.868  25.841   7.581
 1227POPC   C1B17851   9.004  26.307   8.672
 1227POPC   C2B17852   8.978  26.301   8.231
 1227POPC   C3B17853   8.716  26.238   7.857
 1227POPC   C4B17854   8.581  26.241   7.385
 1228POPC   NC317855  13.747  38.330   9.415
 1228POPC   PO417856  13.998  38.804   9.154
 1228POPC   GL117857  13.625  38.652   8.969
 1228POPC   GL217858  13.339  38.547   9.176
 1228POPC   C1A17859  13.506  38.700   8.563
 1228POPC   D2A17860  13.750  38.462   8.343
 1228POPC   C3A17861  13.881  38.597   7.976
 1228POPC   C4A17862  13.865  38.300   7.667
 1228POPC   C1B17863  13.367  38.256   8.784
 1228POPC   C2B17864  13.201  38.337   8.352
 1228POPC   C3B17865  13.427  38.371   7.954
 1228POPC   C4B17866  13.506  38.661   7.608
 1229POPC   NC317867  19.401  37.047   9.381
 1229POPC   PO417868  19.972  36.790   9.592
 1229POPC   GL117869  20.000  36.788   9.147
 1229POPC   GL217870  19.667  36.713   9.088
 1229POPC   C1A17871  19.926  36.930   8.703
 1229POPC   D2A17872  19.869  36.611   8.390
 1229POPC   C3A17873  19.951  36.800   8.018
 1229POPC   C4A17874  19.993  36.833   7.566
 1229POPC   C1B17875  19.435  36.702   8.691
 1229POPC   C2B17876  19.437  36.902   8.262
 1229POPC   C3B17877  19.505  36.929   7.805
 1229POPC   C4B17878  19.604  37.090   7.351
 1230POPC   NC317879  41.371  24.169   9.361
 1230POPC   PO417880  41.623  24.783   9.603
 1230POPC   GL117881  41.679  24.584   9.178
 1230POPC   GL217882  41.422  24.422   8.929
 1230POPC   C1A17883  41.835  24.624   8.738
 1230POPC   D2A17884  41.591  24.592   8.342
 1230POPC   C3A17885  41.676  24.311   7.981
 1230POPC   C4A17886  41.740  24.685   7.713
 1230POPC   C1B17887  41.164  24.654   8.626
 1230POPC   C2B17888  41.100  24.527   8.227
 1230POPC   C3B17889  41.271  24.581   7.833
 1230POPC   C4B17890  41.417  24.382   7.464
 1231POPC   NC317891  42.443   3.088   9.794
 1231POPC   PO417892  42.746   3.528   9.411
 1231POPC   GL117893  42.348   3.539   9.200
 1231POPC   GL217894  42.267   3.197   9.173
 1231POPC   C1A17895  42.078   3.531   8.812
 1231POPC   D2A17896  41.973   3.432   8.374
 1231POPC   C3A17897  42.293   3.620   8.107
 1231POPC   C4A17898  42.456   3.518   7.692
 1231POPC   C1B17899  42.514   3.248   8.806
 1231POPC   C2B17900  42.596   3.367   8.421
 1231POPC   C3B17901  42.502   3.148   8.043
 1231POPC   C4B17902  42.595   3.040   7.633
 1232POPC   NC317903  28.482  24.077   9.772
 1232POPC   PO417904  28.345  23.426   9.562
 1232POPC   GL117905  28.344  23.631   9.160
 1232POPC   GL217906  28.330  23.950   8.916
 1232POPC   C1A17907  28.240  23.454   8.789
 1232POPC   D2A17908  28.435  23.445   8.441
 1232POPC   C3A17909  28.200  23.566   8.131
 1232POPC   C4A17910  28.427  23.691   7.789
 1232POPC   C1B17911  27.996  23.909   8.656
 1232POPC   C2B17912  27.819  23.910   8.294
 1232POPC   C3B17913  28.121  24.071   8.016
 1232POPC   C4B17914  28.165  24.085   7.567
 1233POPC   NC317915  12.917  15.864   9.627
 1233POPC   PO417916  12.279  15.831   9.531
 1233POPC   GL117917  12.658  15.953   9.215
 1233POPC   GL217918  13.003  16.173   9.238
 1233POPC   C1A17919  12.624  15.910   8.786
 1233POPC   D2A17920  12.635  16.088   8.402
 1233POPC   C3A17921  12.508  15.823   8.049
 1233POPC   C4A17922  12.760  15.687   7.681
 1233POPC   C1B17923  13.112  15.862   8.941
 1233POPC   C2B17924  13.158  15.915   8.506
 1233POPC   C3B17925  13.019  15.989   8.089
 1233POPC   C4B17926  12.997  16.158   7.701
 1234POPC   NC317927  11.662  43.725   9.433
 1234POPC   PO417928  12.270  44.054   9.357
 1234POPC   GL117929  12.076  44.142   9.027
 1234POPC   GL217930  11.977  43.786   9.041
 1234POPC   C1A17931  12.026  44.093   8.603
 1234POPC   D2A17932  12.379  43.907   8.406
 1234POPC   C3A17933  12.269  43.831   8.016
 1234POPC   C4A17934  11.835  43.852   7.843
 1234POPC   C1B17935  12.073  43.590   8.692
 1234POPC   C2B17936  11.907  43.591   8.297
 1234POPC   C3B17937  12.022  43.385   7.906
 1234POPC   C4B17938  11.942  43.401   7.428
 1235POPC   NC317939  31.854  30.534   9.250
 1235POPC   PO417940  31.476  30.960   9.540
 1235POPC   GL117941  31.355  30.653   9.198
 1235POPC   GL217942  31.250  30.920   9.026
 1235POPC   C1A17943  31.484  30.543   8.733
 1235POPC   D2A17944  31.703  30.823   8.416
 1235POPC   C3A17945  31.881  30.611   8.042
 1235POPC   C4A17946  31.568  30.383   7.829
 1235POPC   C1B17947  31.092  30.847   8.617
 1235POPC   C2B17948  31.020  30.933   8.189
 1235POPC   C3B17949  31.406  30.831   7.979
 1235POPC   C4B17950  31.767  31.070   7.815
 1236POPC   NC317951   1.464  13.992   9.514
 1236POPC   PO417952   2.103  13.680   9.685
 1236POPC   GL117953   1.856  13.575   9.193
 1236POPC   GL217954   1.540  13.706   9.088
 1236POPC   C1A17955   2.119  13.410   8.763
 1236POPC   D2A17956   2.172  13.666   8.398
 1236POPC   C3A17957   2.070  13.461   8.012
 1236POPC   C4A17958   2.116  13.523   7.602
 1236POPC   C1B17959   1.740  13.755   8.702
 1236POPC   C2B17960   1.658  13.740   8.275
 1236POPC   C3B17961   1.530  14.013   7.955
 1236POPC   C4B17962   1.630  13.719   7.682
 1237POPC   NC317963   1.721  12.470   9.454
 1237POPC   PO417964   2.031  11.801   9.427
 1237POPC   GL117965   2.088  11.817   8.973
 1237POPC   GL217966   1.729  11.915   9.002
 1237POPC   C1A17967   2.240  11.918   8.536
 1237POPC   D2A17968   1.944  11.990   8.225
 1237POPC   C3A17969   2.065  11.893   7.834
 1237POPC   C4A17970   2.202  11.917   7.429
 1237POPC   C1B17971   1.870  12.214   8.708
 1237POPC   C2B17972   1.724  12.442   8.374
 1237POPC   C3B17973   1.863  12.418   7.933
 1237POPC   C4B17974   1.825  12.694   7.556
 1238POPC   NC317975  37.592  11.840   9.453
 1238POPC   PO417976  38.117  12.202   9.386
 1238POPC   GL117977  37.789  12.061   9.047
 1238POPC   GL217978  37.415  11.863   8.996
 1238POPC   C1A17979  37.764  12.086   8.626
 1238POPC   D2A17980  37.765  12.375   8.288
 1238POPC   C3A17981  37.758  12.151   7.920
 1238POPC   C4A17982  37.592  11.744   7.845
 1238POPC   C1B17983  37.269  12.120   8.695
 1238POPC   C2B17984  37.387  11.989   8.272
 1238POPC   C3B17985  37.250  12.135   7.879
 1238POPC   C4B17986  37.461  12.363   7.527
 1239POPC   NC317987  10.347   0.951   9.501
 1239POPC   PO417988  10.684   1.491   9.486
 1239POPC   GL117989  10.613   1.243   9.127
 1239POPC   GL217990  10.287   1.279   9.071
 1239POPC   C1A17991  10.672   1.297   8.658
 1239POPC   D2A17992  10.842   1.078   8.265
 1239POPC   C3A17993  10.670   1.275   7.862
 1239POPC   C4A17994  10.757   1.198   7.409
 1239POPC   C1B17995  10.194   1.100   8.674
 1239POPC   C2B17996  10.345   1.134   8.240
 1239POPC   C3B17997  10.201   1.067   7.800
 1239POPC   C4B17998  10.258   0.975   7.334
 1240POPC   NC317999  43.197  27.478   9.478
 1240POPC   PO418000  42.929  28.083   9.502
 1240POPC   GL118001  43.165  27.889   9.165
 1240POPC   GL218002  43.483  27.664   9.113
 1240POPC   C1A18003  43.042  27.836   8.763
 1240POPC   D2A18004  42.862  27.685   8.391
 1240POPC   C3A18005  43.105  27.819   8.062
 1240POPC   C4A18006  42.922  27.662   7.723
 1240POPC   C1B18007  43.321  27.428   8.790
 1240POPC   C2B18008  43.308  27.430   8.360
 1240POPC   C3B18009  43.120  27.280   8.006
 1240POPC   C4B18010  43.188  27.216   7.586
 1241POPC   NC318011  27.117   2.959   9.356
 1241POPC   PO418012  26.544   2.802   9.539
 1241POPC   GL118013  26.670   2.529   9.207
 1241POPC   GL218014  26.994   2.574   9.013
 1241POPC   C1A18015  26.500   2.574   8.803
 1241POPC   D2A18016  26.711   2.799   8.489
 1241POPC   C3A18017  26.902   2.692   8.145
 1241POPC   C4A18018  26.766   2.719   7.688
 1241POPC   C1B18019  27.220   2.764   8.643
 1241POPC   C2B18020  27.201   3.082   8.291
 1241POPC   C3B18021  27.215   2.964   7.844
 1241POPC   C4B18022  27.207   2.684   7.467
 1242POPC   NC318023  36.364   8.580   9.440
 1242POPC   PO418024  37.058   8.430   9.443
 1242POPC   GL118025  36.958   8.246   9.063
 1242POPC   GL218026  36.623   8.125   9.116
 1242POPC   C1A18027  37.193   8.290   8.655
 1242POPC   D2A18028  37.284   8.093   8.268
 1242POPC   C3A18029  37.237   8.331   7.939
 1242POPC   C4A18030  36.853   8.273   7.767
 1242POPC   C1B18031  36.681   8.263   8.660
 1242POPC   C2B18032  36.467   8.343   8.283
 1242POPC   C3B18033  36.408   8.546   7.884
 1242POPC   C4B18034  36.547   8.532   7.452
 1243POPC   NC318035  11.196  22.477   9.286
 1243POPC   PO418036  11.162  21.838   9.390
 1243POPC   GL118037  11.494  21.980   9.119
 1243POPC   GL218038  11.618  22.308   9.115
 1243POPC   C1A18039  11.394  22.103   8.701
 1243POPC   D2A18040  11.496  21.897   8.332
 1243POPC   C3A18041  11.216  21.986   8.008
 1243POPC   C4A18042  11.236  22.226   7.665
 1243POPC   C1B18043  11.689  22.532   8.738
 1243POPC   C2B18044  11.713  22.360   8.330
 1243POPC   C3B18045  11.590  22.505   7.929
 1243POPC   C4B18046  11.704  22.387   7.530
 1244POPC   NC318047   2.959  10.665   9.672
 1244POPC   PO418048   2.426  10.272   9.796
 1244POPC   GL118049   2.627  10.608   9.313
 1244POPC   GL218050   2.875  10.819   9.158
 1244POPC   C1A18051   2.554  10.615   8.844
 1244POPC   D2A18052   2.414  10.436   8.483
 1244POPC   C3A18053   2.730  10.338   8.181
 1244POPC   C4A18054   2.708  10.418   7.750
 1244POPC   C1B18055   3.097  10.619   8.786
 1244POPC   C2B18056   3.195  10.486   8.366
 1244POPC   C3B18057   3.082  10.670   7.969
 1244POPC   C4B18058   3.176  10.561   7.536
 1245POPC   NC318059  38.982  29.649   9.335
 1245POPC   PO418060  39.248  29.194   9.757
 1245POPC   GL118061  39.222  29.176   9.263
 1245POPC   GL218062  38.947  28.929   9.157
 1245POPC   C1A18063  39.422  29.121   8.826
 1245POPC   D2A18064  39.294  29.194   8.378
 1245POPC   C3A18065  39.485  28.991   7.987
 1245POPC   C4A18066  39.421  29.268   7.667
 1245POPC   C1B18067  38.918  29.101   8.740
 1245POPC   C2B18068  38.862  28.925   8.316
 1245POPC   C3B18069  39.001  29.114   7.918
 1245POPC   C4B18070  38.980  29.140   7.436
 1246POPC   NC318071  11.791  29.997   9.489
 1246POPC   PO418072  12.393  29.841   9.284
 1246POPC   GL118073  12.075  30.021   9.070
 1246POPC   GL218074  11.805  29.764   9.043
 1246POPC   C1A18075  12.228  30.232   8.744
 1246POPC   D2A18076  12.135  30.285   8.356
 1246POPC   C3A18077  12.335  30.168   8.026
 1246POPC   C4A18078  12.064  30.113   7.684
 1246POPC   C1B18079  12.018  29.735   8.650
 1246POPC   C2B18080  12.319  29.763   8.331
 1246POPC   C3B18081  12.106  29.691   7.957
 1246POPC   C4B18082  12.028  29.324   7.747
 1247POPC   NC318083  18.175   9.495   9.466
 1247POPC   PO418084  17.793   9.816   9.906
 1247POPC   GL118085  17.851   9.826   9.271
 1247POPC   GL218086  18.208   9.786   9.041
 1247POPC   C1A18087  17.772   9.740   8.806
 1247POPC   D2A18088  18.128   9.639   8.531
 1247POPC   C3A18089  18.086   9.651   8.092
 1247POPC   C4A18090  17.911   9.506   7.709
 1247POPC   C1B18091  18.584   9.793   8.721
 1247POPC   C2B18092  18.797   9.771   8.340
 1247POPC   C3B18093  18.690   9.873   7.935
 1247POPC   C4B18094  18.378   9.748   7.676
 1248POPC   NC318095  17.770   9.363   9.987
 1248POPC   PO418096  17.539   8.862   9.613
 1248POPC   GL118097  17.673   9.017   9.226
 1248POPC   GL218098  17.398   9.029   9.137
 1248POPC   C1A18099  17.733   9.023   8.734
 1248POPC   D2A18100  17.520   8.943   8.319
 1248POPC   C3A18101  17.681   9.099   7.923
 1248POPC   C4A18102  17.616   9.108   7.450
 1248POPC   C1B18103  17.228   8.918   8.773
 1248POPC   C2B18104  17.024   9.175   8.504
 1248POPC   C3B18105  17.122   9.226   8.108
 1248POPC   C4B18106  17.227   8.919   7.782
 1249POPC   NC318107  20.296  31.306   9.525
 1249POPC   PO418108  20.860  31.113   9.334
 1249POPC   GL118109  20.634  31.335   9.053
 1249POPC   GL218110  20.494  31.659   9.196
 1249POPC   C1A18111  20.707  31.141   8.660
 1249POPC   D2A18112  20.677  30.893   8.291
 1249POPC   C3A18113  20.783  31.159   7.975
 1249POPC   C4A18114  20.717  31.509   7.720
 1249POPC   C1B18115  20.583  31.810   8.782
 1249POPC   C2B18116  20.300  31.830   8.437
 1249POPC   C3B18117  20.356  31.729   8.018
 1249POPC   C4B18118  20.697  32.008   7.803
 1250POPC   NC318119   7.388  25.670   9.390
 1250POPC   PO418120   7.588  26.242   9.665
 1250POPC   GL118121   7.664  26.116   9.234
 1250POPC   GL218122   7.310  26.123   9.115
 1250POPC   C1A18123   7.711  26.254   8.809
 1250POPC   D2A18124   7.372  26.229   8.517
 1250POPC   C3A18125   7.402  26.322   8.074
 1250POPC   C4A18126   7.432  26.130   7.683
 1250POPC   C1B18127   7.099  25.872   8.811
 1250POPC   C2B18128   6.976  25.810   8.395
 1250POPC   C3B18129   7.119  25.868   7.997
 1250POPC   C4B18130   7.246  25.657   7.636
 1251POPC   NC318131  37.268  17.314   9.938
 1251POPC   PO418132  37.421  17.720   9.426
 1251POPC   GL118133  37.534  17.459   9.108
 1251POPC   GL218134  37.323  17.638   8.913
 1251POPC   C1A18135  37.719  17.337   8.713
 1251POPC   D2A18136  37.621  17.102   8.321
 1251POPC   C3A18137  37.722  17.236   7.889
 1251POPC   C4A18138  37.935  17.067   7.517
 1251POPC   C1B18139  37.703  17.857   8.717
 1251POPC   C2B18140  37.774  17.821   8.267
 1251POPC   C3B18141  37.453  17.632   8.057
 1251POPC   C4B18142  37.455  17.608   7.662
 1252POPC   NC318143   6.555  37.436   9.530
 1252POPC   PO418144   7.087  37.775   9.397
 1252POPC   GL118145   6.802  37.662   9.070
 1252POPC   GL218146   6.414  37.725   9.117
 1252POPC   C1A18147   6.655  37.793   8.652
 1252POPC   D2A18148   6.516  38.140   8.366
 1252POPC   C3A18149   6.708  38.025   7.981
 1252POPC   C4A18150   7.074  37.801   7.893
 1252POPC   C1B18151   6.471  37.325   8.872
 1252POPC   C2B18152   6.679  37.277   8.466
 1252POPC   C3B18153   6.693  37.482   8.048
 1252POPC   C4B18154   6.452  37.429   7.669
 1253POPC   NC318155  18.442  29.948   9.448
 1253POPC   PO418156  17.829  29.850   9.392
 1253POPC   GL118157  18.093  29.939   9.076
 1253POPC   GL218158  18.288  29.617   9.072
 1253POPC   C1A18159  18.404  30.010   8.759
 1253POPC   D2A18160  18.414  29.842   8.356
 1253POPC   C3A18161  18.272  30.058   7.996
 1253POPC   C4A18162  18.471  29.790   7.711
 1253POPC   C1B18163  18.035  29.636   8.671
 1253POPC   C2B18164  17.894  29.778   8.251
 1253POPC   C3B18165  17.993  29.649   7.832
 1253POPC   C4B18166  17.920  29.783   7.400
 1254POPC   NC318167  28.681  40.190   9.801
 1254POPC   PO418168  29.251  39.857   9.562
 1254POPC   GL118169  29.272  40.061   9.195
 1254POPC   GL218170  29.393  40.417   9.275
 1254POPC   C1A18171  29.131  39.922   8.760
 1254POPC   D2A18172  29.117  39.637   8.415
 1254POPC   C3A18173  28.924  39.694   8.029
 1254POPC   C4A18174  29.134  40.019   7.796
 1254POPC   C1B18175  29.230  40.419   8.860
 1254POPC   C2B18176  29.408  40.286   8.474
 1254POPC   C3B18177  29.346  40.454   8.066
 1254POPC   C4B18178  29.393  40.413   7.647
 1255POPC   NC318179  29.849  30.960   9.459
 1255POPC   PO418180  29.902  30.335   9.795
 1255POPC   GL118181  29.969  30.455   9.342
 1255POPC   GL218182  29.634  30.543   9.227
 1255POPC   C1A18183  29.984  30.605   8.877
 1255POPC   D2A18184  30.114  30.581   8.428
 1255POPC   C3A18185  29.923  30.730   8.047
 1255POPC   C4A18186  30.150  30.880   7.686
 1255POPC   C1B18187  29.556  30.359   8.753
 1255POPC   C2B18188  29.643  30.325   8.300
 1255POPC   C3B18189  29.463  30.486   7.899
 1255POPC   C4B18190  29.416  30.517   7.409
 1256POPC   NC318191  42.608  17.552   9.519
 1256POPC   PO418192  43.200  17.957   9.483
 1256POPC   GL118193  43.050  17.686   9.129
 1256POPC   GL218194  42.740  17.560   9.029
 1256POPC   C1A18195  43.333  17.599   8.789
 1256POPC   D2A18196  43.494  17.724   8.396
 1256POPC   C3A18197  43.221  17.589   8.088
 1256POPC   C4A18198  43.211  17.637   7.648
 1256POPC   C1B18199  42.928  17.267   8.722
 1256POPC   C2B18200  42.900  17.160   8.240
 1256POPC   C3B18201  42.814  17.411   7.841
 1256POPC   C4B18202  42.806  17.386   7.362
 1257POPC   NC318203  36.210  16.923   9.448
 1257POPC   PO418204  36.563  16.453   9.235
 1257POPC   GL118205  36.125  16.545   9.068
 1257POPC   GL218206  35.869  16.862   9.071
 1257POPC   C1A18207  36.114  16.512   8.622
 1257POPC   D2A18208  35.914  16.371   8.268
 1257POPC   C3A18209  36.000  16.564   7.888
 1257POPC   C4A18210  36.190  16.340   7.517
 1257POPC   C1B18211  36.197  16.982   8.791
 1257POPC   C2B18212  36.311  16.918   8.360
 1257POPC   C3B18213  36.529  16.923   7.976
 1257POPC   C4B18214  36.315  16.817   7.579
 1258POPC   NC318215  35.623  42.842   9.452
 1258POPC   PO418216  35.319  42.236   9.555
 1258POPC   GL118217  35.298  42.260   9.133
 1258POPC   GL218218  35.077  42.015   9.008
 1258POPC   C1A18219  35.373  42.543   8.806
 1258POPC   D2A18220  35.162  42.718   8.439
 1258POPC   C3A18221  35.243  42.449   8.077
 1258POPC   C4A18222  35.398  42.325   7.689
 1258POPC   C1B18223  35.444  41.990   8.702
 1258POPC   C2B18224  35.619  42.073   8.255
 1258POPC   C3B18225  35.708  41.963   7.784
 1258POPC   C4B18226  35.631  41.972   7.314
 1259POPC   NC318227  41.431   0.904   9.473
 1259POPC   PO418228  41.885   0.408   9.431
 1259POPC   GL118229  41.599   0.449   9.115
 1259POPC   GL218230  41.298   0.621   9.048
 1259POPC   C1A18231  41.628   0.376   8.697
 1259POPC   D2A18232  41.431   0.190   8.340
 1259POPC   C3A18233  41.561   0.334   7.929
 1259POPC   C4A18234  41.734   0.281   7.527
 1259POPC   C1B18235  41.126   0.478   8.639
 1259POPC   C2B18236  41.133   0.553   8.172
 1259POPC   C3B18237  41.215   0.689   7.738
 1259POPC   C4B18238  41.356   0.589   7.308
 1260POPC   NC318239  34.614  32.844   9.432
 1260POPC   PO418240  34.211  33.432   9.470
 1260POPC   GL118241  34.492  33.262   9.134
 1260POPC   GL218242  34.814  33.303   9.265
 1260POPC   C1A18243  34.574  32.974   8.758
 1260POPC   D2A18244  34.442  32.953   8.312
 1260POPC   C3A18245  34.591  32.799   7.920
 1260POPC   C4A18246  34.321  33.067   7.704
 1260POPC   C1B18247  34.886  33.396   8.814
 1260POPC   C2B18248  34.854  33.244   8.391
 1260POPC   C3B18249  34.722  33.285   7.989
 1260POPC   C4B18250  34.889  33.083   7.606
 1261POPC   NC318251  44.753  44.498   9.467
 1261POPC   PO418252  44.826   0.151   9.493
 1261POPC   GL118253  44.629  44.935   9.167
 1261POPC   GL218254  44.922  44.800   9.096
 1261POPC   C1A18255  44.491  44.782   8.744
 1261POPC   D2A18256  44.595  44.953   8.322
 1261POPC   C3A18257  44.419  44.721   7.924
 1261POPC   C4A18258  44.369  44.960   7.492
 1261POPC   C1B18259  44.888  44.442   8.814
 1261POPC   C2B18260  44.749  44.468   8.395
 1261POPC   C3B18261  44.917  44.612   7.994
 1261POPC   C4B18262  44.816  44.750   7.569
 1262POPC   NC318263  35.859  34.778   9.623
 1262POPC   PO418264  35.208  34.728   9.632
 1262POPC   GL118265  35.143  34.554   9.207
 1262POPC   GL218266  35.079  34.827   9.057
 1262POPC   C1A18267  34.960  34.418   8.799
 1262POPC   D2A18268  34.941  34.621   8.433
 1262POPC   C3A18269  35.297  34.562   8.187
 1262POPC   C4A18270  35.277  34.496   7.773
 1262POPC   C1B18271  35.320  34.832   8.683
 1262POPC   C2B18272  35.273  35.051   8.266
 1262POPC   C3B18273  35.397  34.990   7.864
 1262POPC   C4B18274  35.645  34.802   7.582
 1263POPC   NC318275  41.072  28.504   9.367
 1263POPC   PO418276  40.420  28.313   9.379
 1263POPC   GL118277  40.627  28.137   9.025
 1263POPC   GL218278  40.991  28.208   8.959
 1263POPC   C1A18279  40.645  28.364   8.624
 1263POPC   D2A18280  40.399  28.355   8.268
 1263POPC   C3A18281  40.592  28.189   7.883
 1263POPC   C4A18282  40.540  28.094   7.446
 1263POPC   C1B18283  41.125  28.589   8.741
 1263POPC   C2B18284  41.094  28.708   8.337
 1263POPC   C3B18285  41.060  28.387   8.014
 1263POPC   C4B18286  40.920  28.541   7.621
 1264POPC   NC318287  28.629  43.611   9.368
 1264POPC   PO418288  28.330  44.228   9.506
 1264POPC   GL118289  28.221  43.933   9.213
 1264POPC   GL218290  28.538  44.018   9.065
 1264POPC   C1A18291  28.196  43.780   8.792
 1264POPC   D2A18292  28.213  43.898   8.363
 1264POPC   C3A18293  28.318  43.578   8.103
 1264POPC   C4A18294  28.109  43.420   7.792
 1264POPC   C1B18295  28.435  44.239   8.681
 1264POPC   C2B18296  28.545  44.283   8.223
 1264POPC   C3B18297  28.333  44.055   7.861
 1264POPC   C4B18298  28.566  43.920   7.488
 1265POPC   NC318299   8.995  37.965   9.637
 1265POPC   PO418300   9.002  37.352   9.590
 1265POPC   GL118301   8.982  37.585   9.186
 1265POPC   GL218302   8.894  37.957   9.145
 1265POPC   C1A18303   8.995  37.495   8.730
 1265POPC   D2A18304   8.972  37.323   8.300
 1265POPC   C3A18305   9.068  37.648   7.972
 1265POPC   C4A18306   8.882  37.716   7.544
 1265POPC   C1B18307   9.188  37.974   8.808
 1265POPC   C2B18308   9.373  37.980   8.393
 1265POPC   C3B18309   9.409  38.073   7.946
 1265POPC   C4B18310   9.392  37.816   7.544
 1266POPC   NC318311   6.725  21.040   9.801
 1266POPC   PO418312   6.242  21.394   9.669
 1266POPC   GL118313   6.490  21.549   9.250
 1266POPC   GL218314   6.791  21.655   9.068
 1266POPC   C1A18315   6.535  21.357   8.777
 1266POPC   D2A18316   6.792  21.208   8.440
 1266POPC   C3A18317   6.655  21.270   8.016
 1266POPC   C4A18318   6.320  21.339   7.747
 1266POPC   C1B18319   6.811  21.834   8.688
 1266POPC   C2B18320   6.871  21.698   8.278
 1266POPC   C3B18321   6.805  21.732   7.841
 1266POPC   C4B18322   6.830  21.471   7.562
 1267POPC   NC318323  43.548  19.777   9.549
 1267POPC   PO418324  43.914  20.378   9.582
 1267POPC   GL118325  43.938  19.989   9.235
 1267POPC   GL218326  43.719  19.689   9.092
 1267POPC   C1A18327  44.071  19.928   8.762
 1267POPC   D2A18328  44.289  20.085   8.351
 1267POPC   C3A18329  44.203  20.039   7.886
 1267POPC   C4A18330  44.139  20.137   7.442
 1267POPC   C1B18331  43.747  19.506   8.705
 1267POPC   C2B18332  43.867  19.717   8.348
 1267POPC   C3B18333  43.756  19.862   7.993
 1267POPC   C4B18334  43.866  19.715   7.604
 1268POPC   NC318335  27.433  26.286   9.377
 1268POPC   PO418336  27.869  25.922   9.552
 1268POPC   GL118337  27.738  25.961   9.113
 1268POPC   GL218338  27.465  25.751   8.993
 1268POPC   C1A18339  27.824  26.312   8.799
 1268POPC   D2A18340  27.863  26.273   8.337
 1268POPC   C3A18341  27.442  26.233   8.170
 1268POPC   C4A18342  27.276  26.167   7.770
 1268POPC   C1B18343  27.694  25.845   8.602
 1268POPC   C2B18344  27.710  25.806   8.160
 1268POPC   C3B18345  27.692  25.828   7.724
 1268POPC   C4B18346  27.884  25.754   7.233
 1269POPC   NC318347   5.662  20.396   9.848
 1269POPC   PO418348   5.981  20.899   9.485
 1269POPC   GL118349   5.790  20.642   9.203
 1269POPC   GL218350   6.066  20.724   8.977
 1269POPC   C1A18351   5.716  20.368   8.848
 1269POPC   D2A18352   5.863  20.227   8.457
 1269POPC   C3A18353   5.624  20.382   8.119
 1269POPC   C4A18354   5.847  20.399   7.752
 1269POPC   C1B18355   6.295  20.923   8.644
 1269POPC   C2B18356   6.373  20.881   8.202
 1269POPC   C3B18357   6.141  20.857   7.815
 1269POPC   C4B18358   6.147  20.612   7.409
 1270POPC   NC318359  18.680  34.020   9.411
 1270POPC   PO418360  19.139  33.540   9.366
 1270POPC   GL118361  18.826  33.620   9.108
 1270POPC   GL218362  19.089  33.575   8.845
 1270POPC   C1A18363  18.606  33.749   8.754
 1270POPC   D2A18364  18.822  33.958   8.441
 1270POPC   C3A18365  19.087  33.783   8.150
 1270POPC   C4A18366  19.102  33.749   7.717
 1270POPC   C1B18367  19.318  33.929   8.664
 1270POPC   C2B18368  19.566  33.930   8.282
 1270POPC   C3B18369  19.475  34.097   7.874
 1270POPC   C4B18370  19.613  34.124   7.416
 1271POPC   NC318371  19.240  38.460   9.373
 1271POPC   PO418372  18.716  38.748   9.742
 1271POPC   GL118373  18.716  38.480   9.301
 1271POPC   GL218374  18.609  38.670   9.026
 1271POPC   C1A18375  18.846  38.262   8.872
 1271POPC   D2A18376  18.821  38.080   8.466
 1271POPC   C3A18377  18.934  38.300   8.090
 1271POPC   C4A18378  19.149  38.297   7.690
 1271POPC   C1B18379  18.861  38.828   8.670
 1271POPC   C2B18380  18.871  38.895   8.229
 1271POPC   C3B18381  18.744  38.932   7.793
 1271POPC   C4B18382  18.979  38.725   7.417
 1272POPC   NC318383   4.882  36.300   9.230
 1272POPC   PO418384   5.439  35.938   9.496
 1272POPC   GL118385   5.304  36.031   9.117
 1272POPC   GL218386   5.360  36.400   9.025
 1272POPC   C1A18387   5.255  35.787   8.739
 1272POPC   D2A18388   4.898  35.774   8.461
 1272POPC   C3A18389   5.140  35.756   8.106
 1272POPC   C4A18390   5.354  35.829   7.737
 1272POPC   C1B18391   5.216  36.281   8.603
 1272POPC   C2B18392   4.952  36.240   8.218
 1272POPC   C3B18393   5.058  36.284   7.777
 1272POPC   C4B18394   4.797  36.495   7.452
 1273POPC   NC318395   1.261  14.763   9.550
 1273POPC   PO418396   1.000  14.140   9.521
 1273POPC   GL118397   1.247  14.308   9.158
 1273POPC   GL218398   1.483  14.597   9.090
 1273POPC   C1A18399   1.107  14.464   8.744
 1273POPC   D2A18400   1.092  14.718   8.374
 1273POPC   C3A18401   0.996  14.499   8.037
 1273POPC   C4A18402   1.089  14.646   7.657
 1273POPC   C1B18403   1.581  14.273   8.769
 1273POPC   C2B18404   1.432  14.319   8.351
 1273POPC   C3B18405   1.478  14.634   8.017
 1273POPC   C4B18406   1.578  14.503   7.621
 1274POPC   NC318407   4.884  37.122   9.393
 1274POPC   PO418408   4.988  37.828   9.447
 1274POPC   GL118409   4.914  37.694   9.052
 1274POPC   GL218410   5.256  37.721   8.969
 1274POPC   C1A18411   4.943  37.850   8.616
 1274POPC   D2A18412   5.261  37.874   8.339
 1274POPC   C3A18413   5.035  37.788   7.940
 1274POPC   C4A18414   4.940  37.721   7.503
 1274POPC   C1B18415   5.474  37.510   8.685
 1274POPC   C2B18416   5.728  37.614   8.367
 1274POPC   C3B18417   5.524  37.590   8.012
 1274POPC   C4B18418   5.440  37.725   7.618
 1275POPC   NC318419   2.085  42.783   9.500
 1275POPC   PO418420   1.620  42.360   9.411
 1275POPC   GL118421   1.707  42.129   9.113
 1275POPC   GL218422   2.048  42.255   9.126
 1275POPC   C1A18423   1.710  42.320   8.718
 1275POPC   D2A18424   1.956  42.617   8.453
 1275POPC   C3A18425   1.981  42.443   8.048
 1275POPC   C4A18426   1.936  42.306   7.607
 1275POPC   C1B18427   2.218  42.277   8.736
 1275POPC   C2B18428   2.393  42.254   8.338
 1275POPC   C3B18429   2.468  42.621   8.125
 1275POPC   C4B18430   2.280  42.667   7.718
 1276POPC   NC318431  19.189   6.442   9.355
 1276POPC   PO418432  18.656   6.738   9.655
 1276POPC   GL118433  18.883   6.822   9.212
 1276POPC   GL218434  19.290   6.803   9.037
 1276POPC   C1A18435  18.879   6.666   8.780
 1276POPC   D2A18436  18.809   6.850   8.390
 1276POPC   C3A18437  18.697   6.625   8.037
 1276POPC   C4A18438  18.982   6.463   7.730
 1276POPC   C1B18439  19.395   6.557   8.677
 1276POPC   C2B18440  19.251   6.611   8.294
 1276POPC   C3B18441  19.443   6.541   7.965
 1276POPC   C4B18442  19.434   6.633   7.575
 1277POPC   NC318443   3.155   3.518   9.338
 1277POPC   PO418444   2.545   3.291   9.440
 1277POPC   GL118445   2.688   3.570   9.130
 1277POPC   GL218446   2.896   3.307   8.945
 1277POPC   C1A18447   2.567   3.671   8.750
 1277POPC   D2A18448   2.525   3.321   8.525
 1277POPC   C3A18449   2.645   3.371   8.101
 1277POPC   C4A18450   2.528   3.602   7.754
 1277POPC   C1B18451   3.076   3.574   8.630
 1277POPC   C2B18452   2.937   3.830   8.272
 1277POPC   C3B18453   3.020   3.755   7.819
 1277POPC   C4B18454   2.945   3.339   7.650
 1278POPC   NC318455  17.199  31.787   9.569
 1278POPC   PO418456  17.747  31.384   9.635
 1278POPC   GL118457  17.749  31.472   9.191
 1278POPC   GL218458  17.432  31.641   9.133
 1278POPC   C1A18459  17.671  31.236   8.808
 1278POPC   D2A18460  17.454  31.173   8.435
 1278POPC   C3A18461  17.620  31.366   8.075
 1278POPC   C4A18462  17.548  31.283   7.650
 1278POPC   C1B18463  17.256  31.847   8.770
 1278POPC   C2B18464  17.160  31.641   8.370
 1278POPC   C3B18465  17.244  31.696   7.905
 1278POPC   C4B18466  17.153  31.774   7.460
 1279POPC   NC318467  42.502  29.720   9.446
 1279POPC   PO418468  41.768  29.601   9.516
 1279POPC   GL118469  41.989  29.691   9.133
 1279POPC   GL218470  42.263  29.947   9.070
 1279POPC   C1A18471  42.182  29.594   8.727
 1279POPC   D2A18472  42.470  29.670   8.366
 1279POPC   C3A18473  42.367  29.858   7.933
 1279POPC   C4A18474  42.619  30.080   7.629
 1279POPC   C1B18475  42.337  30.196   8.705
 1279POPC   C2B18476  42.367  30.268   8.256
 1279POPC   C3B18477  42.266  30.400   7.798
 1279POPC   C4B18478  42.138  30.313   7.333
 1280POPC   NC318479  41.421  13.863   9.438
 1280POPC   PO418480  41.177  13.313   9.572
 1280POPC   GL118481  41.430  12.956   9.319
 1280POPC   GL218482  41.786  12.988   9.255
 1280POPC   C1A18483  41.336  12.726   8.911
 1280POPC   D2A18484  41.554  12.429   8.624
 1280POPC   C3A18485  41.549  12.592   8.260
 1280POPC   C4A18486  41.140  12.472   8.184
 1280POPC   C1B18487  41.589  13.158   8.866
 1280POPC   C2B18488  41.405  13.062   8.446
 1280POPC   C3B18489  41.352  13.435   8.109
 1280POPC   C4B18490  41.379  13.439   7.569
 1281POPC   NC318491   1.272  42.678   9.471
 1281POPC   PO418492   1.286  42.076   9.731
 1281POPC   GL118493   1.187  42.165   9.239
 1281POPC   GL218494   1.322  42.502   9.015
 1281POPC   C1A18495   0.991  42.185   8.822
 1281POPC   D2A18496   0.813  42.278   8.415
 1281POPC   C3A18497   1.060  42.304   8.032
 1281POPC   C4A18498   1.039  42.566   7.662
 1281POPC   C1B18499   1.421  42.740   8.630
 1281POPC   C2B18500   1.507  42.497   8.265
 1281POPC   C3B18501   1.504  42.464   7.839
 1281POPC   C4B18502   1.426  42.092   7.681
 1282POPC   NC318503  10.904  27.376   9.486
 1282POPC   PO418504  10.377  27.715   9.511
 1282POPC   GL118505  10.427  27.644   9.099
 1282POPC   GL218506  10.781  27.663   9.058
 1282POPC   C1A18507  10.174  27.734   8.753
 1282POPC   D2A18508  10.273  27.834   8.327
 1282POPC   C3A18509  10.339  27.624   7.950
 1282POPC   C4A18510  10.184  27.474   7.571
 1282POPC   C1B18511  10.671  27.580   8.620
 1282POPC   C2B18512  10.797  27.829   8.254
 1282POPC   C3B18513  10.798  27.759   7.807
 1282POPC   C4B18514  10.707  27.373   7.597
 1283POPC   NC318515  28.340  39.288   9.690
 1283POPC   PO418516  27.780  39.381   9.489
 1283POPC   GL118517  28.128  39.374   9.231
 1283POPC   GL218518  28.387  39.068   9.236
 1283POPC   C1A18519  28.281  39.394   8.848
 1283POPC   D2A18520  28.362  39.228   8.478
 1283POPC   C3A18521  28.398  39.463   8.082
 1283POPC   C4A18522  28.171  39.350   7.728
 1283POPC   C1B18523  28.323  38.844   8.845
 1283POPC   C2B18524  28.452  38.738   8.428
 1283POPC   C3B18525  28.390  38.948   8.023
 1283POPC   C4B18526  28.397  38.916   7.553
 1284POPC   NC318527   7.118  21.532   9.408
 1284POPC   PO418528   7.789  21.525   9.458
 1284POPC   GL118529   7.551  21.394   9.120
 1284POPC   GL218530   7.453  21.755   9.074
 1284POPC   C1A18531   7.558  21.129   8.727
 1284POPC   D2A18532   7.732  20.938   8.356
 1284POPC   C3A18533   7.473  20.963   8.013
 1284POPC   C4A18534   7.601  21.041   7.611
 1284POPC   C1B18535   7.223  21.525   8.737
 1284POPC   C2B18536   7.297  21.341   8.340
 1284POPC   C3B18537   7.156  21.359   7.944
 1284POPC   C4B18538   7.342  21.500   7.584
 1285POPC   NC318539   0.536  17.105   9.426
 1285POPC   PO418540   0.251  16.466   9.517
 1285POPC   GL118541   0.299  16.707   9.161
 1285POPC   GL218542   0.641  16.677   9.187
 1285POPC   C1A18543   0.047  16.882   8.824
 1285POPC   D2A18544   0.268  16.886   8.456
 1285POPC   C3A18545   0.223  16.595   8.148
 1285POPC   C4A18546   0.228  16.771   7.758
 1285POPC   C1B18547   0.854  16.725   8.812
 1285POPC   C2B18548   0.772  16.696   8.384
 1285POPC   C3B18549   0.642  16.908   8.024
 1285POPC   C4B18550   0.662  16.994   7.568
 1286POPC   NC318551  35.042   5.228   9.480
 1286POPC   PO418552  35.574   4.855   9.503
 1286POPC   GL118553  35.414   5.123   9.141
 1286POPC   GL218554  35.627   5.428   9.103
 1286POPC   C1A18555  35.220   4.968   8.733
 1286POPC   D2A18556  35.358   4.718   8.349
 1286POPC   C3A18557  35.116   4.861   7.988
 1286POPC   C4A18558  35.170   5.025   7.550
 1286POPC   C1B18559  35.417   5.474   8.713
 1286POPC   C2B18560  35.371   5.272   8.316
 1286POPC   C3B18561  35.252   5.395   7.907
 1286POPC   C4B18562  35.594   5.499   7.623
 1287POPC   NC318563  42.856  26.080   9.447
 1287POPC   PO418564  43.514  25.992   9.452
 1287POPC   GL118565  43.281  26.064   9.119
 1287POPC   GL218566  43.411  25.797   8.965
 1287POPC   C1A18567  43.019  26.223   8.800
 1287POPC   D2A18568  43.208  26.401   8.454
 1287POPC   C3A18569  43.264  26.148   8.094
 1287POPC   C4A18570  42.920  26.043   7.813
 1287POPC   C1B18571  43.388  25.920   8.587
 1287POPC   C2B18572  43.530  25.653   8.294
 1287POPC   C3B18573  43.349  25.664   7.903
 1287POPC   C4B18574  43.389  25.932   7.575
 1288POPC   NC318575  17.224  33.259   9.449
 1288POPC   PO418576  17.759  32.851   9.445
 1288POPC   GL118577  17.626  33.114   9.139
 1288POPC   GL218578  17.344  32.928   9.079
 1288POPC   C1A18579  17.702  33.376   8.784
 1288POPC   D2A18580  17.584  33.265   8.374
 1288POPC   C3A18581  17.678  33.335   7.953
 1288POPC   C4A18582  17.749  32.964   7.743
 1288POPC   C1B18583  17.228  33.180   8.771
 1288POPC   C2B18584  17.106  33.076   8.396
 1288POPC   C3B18585  17.335  32.927   8.063
 1288POPC   C4B18586  17.163  33.235   7.809
 1289POPC   NC318587  22.641  17.714   9.993
 1289POPC   PO418588  22.977  17.576   9.460
 1289POPC   GL118589  22.843  17.469   9.087
 1289POPC   GL218590  22.634  17.239   9.225
 1289POPC   C1A18591  22.704  17.660   8.725
 1289POPC   D2A18592  22.908  17.694   8.367
 1289POPC   C3A18593  22.679  17.764   8.044
 1289POPC   C4A18594  22.718  17.762   7.635
 1289POPC   C1B18595  22.493  17.188   8.827
 1289POPC   C2B18596  22.681  17.206   8.443
 1289POPC   C3B18597  22.507  17.264   8.063
 1289POPC   C4B18598  22.707  17.249   7.683
 1290POPC   NC318599  16.634  22.339   9.556
 1290POPC   PO418600  16.589  21.697   9.487
 1290POPC   GL118601  16.706  22.037   9.150
 1290POPC   GL218602  16.451  22.309   9.077
 1290POPC   C1A18603  16.729  22.178   8.691
 1290POPC   D2A18604  16.656  22.303   8.290
 1290POPC   C3A18605  16.946  22.122   7.990
 1290POPC   C4A18606  17.072  22.104   7.545
 1290POPC   C1B18607  16.259  22.440   8.664
 1290POPC   C2B18608  16.167  22.443   8.208
 1290POPC   C3B18609  16.461  22.556   7.861
 1290POPC   C4B18610  16.608  22.345   7.466
 1291POPC   NC318611  11.427   0.293   9.498
 1291POPC   PO418612  11.464   0.948   9.334
 1291POPC   GL118613  11.390   0.641   9.071
 1291POPC   GL218614  11.061   0.511   9.162
 1291POPC   C1A18615  11.606   0.522   8.698
 1291POPC   D2A18616  11.570   0.221   8.352
 1291POPC   C3A18617  11.540   0.394   7.930
 1291POPC   C4A18618  11.541   0.828   7.779
 1291POPC   C1B18619  11.199   0.218   8.841
 1291POPC   C2B18620  11.049   0.185   8.436
 1291POPC   C3B18621  11.127   0.090   8.034
 1291POPC   C4B18622  11.010   0.411   7.765
 1292POPC   NC318623  33.320  14.974   9.780
 1292POPC   PO418624  32.707  15.302   9.542
 1292POPC   GL118625  32.828  15.224   9.105
 1292POPC   GL218626  33.143  15.179   9.091
 1292POPC   C1A18627  32.934  15.050   8.659
 1292POPC   D2A18628  32.867  14.907   8.256
 1292POPC   C3A18629  33.147  15.024   7.965
 1292POPC   C4A18630  33.043  15.051   7.496
 1292POPC   C1B18631  33.324  15.404   8.771
 1292POPC   C2B18632  33.429  15.197   8.420
 1292POPC   C3B18633  33.526  15.372   8.053
 1292POPC   C4B18634  33.503  15.229   7.669
 1293POPC   NC318635  35.073  11.642   9.620
 1293POPC   PO418636  35.441  11.175   9.782
 1293POPC   GL118637  35.353  11.027   9.324
 1293POPC   GL218638  35.301  11.368   9.196
 1293POPC   C1A18639  35.540  10.979   8.858
 1293POPC   D2A18640  35.514  11.158   8.399
 1293POPC   C3A18641  35.476  11.021   7.969
 1293POPC   C4A18642  35.251  11.098   7.569
 1293POPC   C1B18643  35.314  11.458   8.775
 1293POPC   C2B18644  35.158  11.562   8.373
 1293POPC   C3B18645  35.324  11.529   7.967
 1293POPC   C4B18646  35.337  11.613   7.523
 1294POPC   NC318647  42.014  18.574   9.346
 1294POPC   PO418648  42.403  18.003   9.600
 1294POPC   GL118649  42.331  18.179   9.191
 1294POPC   GL218650  42.665  18.082   9.099
 1294POPC   C1A18651  42.129  18.259   8.756
 1294POPC   D2A18652  42.308  18.218   8.380
 1294POPC   C3A18653  42.051  18.264   8.072
 1294POPC   C4A18654  42.107  18.356   7.653
 1294POPC   C1B18655  42.663  18.382   8.728
 1294POPC   C2B18656  42.670  18.544   8.270
 1294POPC   C3B18657  42.560  18.278   7.885
 1294POPC   C4B18658  42.526  18.268   7.404
 1295POPC   NC318659  15.423   0.104   9.579
 1295POPC   PO418660  15.004  44.600   9.558
 1295POPC   GL118661  14.920  44.737   9.160
 1295POPC   GL218662  15.212  44.933   9.127
 1295POPC   C1A18663  14.804  44.526   8.791
 1295POPC   D2A18664  14.713  44.664   8.388
 1295POPC   C3A18665  15.027  44.540   8.114
 1295POPC   C4A18666  14.948  44.407   7.710
 1295POPC   C1B18667  15.252  44.769   8.712
 1295POPC   C2B18668  15.493  44.847   8.357
 1295POPC   C3B18669  15.385  44.909   7.960
 1295POPC   C4B18670  15.448  44.553   7.732
 1296POPC   NC318671  11.529  24.738   9.448
 1296POPC   PO418672  11.422  24.110   9.299
 1296POPC   GL118673  11.136  24.345   9.075
 1296POPC   GL218674  11.116  24.722   9.122
 1296POPC   C1A18675  11.284  24.342   8.659
 1296POPC   D2A18676  11.574  24.508   8.367
 1296POPC   C3A18677  11.672  24.290   7.968
 1296POPC   C4A18678  11.484  24.245   7.551
 1296POPC   C1B18679  10.948  24.705   8.697
 1296POPC   C2B18680  10.960  24.466   8.275
 1296POPC   C3B18681  11.213  24.530   7.874
 1296POPC   C4B18682  11.156  24.625   7.400
 1297POPC   NC318683  40.753  35.700   9.444
 1297POPC   PO418684  40.387  36.280   9.396
 1297POPC   GL118685  40.733  36.181   9.075
 1297POPC   GL218686  40.917  35.858   8.992
 1297POPC   C1A18687  40.861  36.199   8.625
 1297POPC   D2A18688  41.109  36.452   8.316
 1297POPC   C3A18689  40.888  36.310   8.001
 1297POPC   C4A18690  40.515  36.202   7.791
 1297POPC   C1B18691  40.785  35.639   8.639
 1297POPC   C2B18692  40.958  35.535   8.250
 1297POPC   C3B18693  41.122  35.716   7.862
 1297POPC   C4B18694  40.947  36.001   7.607
 1298POPC   NC318695  38.005  43.743   9.392
 1298POPC   PO418696  37.667  44.286   9.523
 1298POPC   GL118697  37.469  44.148   9.130
 1298POPC   GL218698  37.528  43.771   9.106
 1298POPC   C1A18699  37.541  44.112   8.660
 1298POPC   D2A18700  37.886  44.014   8.391
 1298POPC   C3A18701  37.848  44.013   7.956
 1298POPC   C4A18702  37.917  43.691   7.694
 1298POPC   C1B18703  37.569  43.598   8.668
 1298POPC   C2B18704  37.523  43.706   8.217
 1298POPC   C3B18705  37.412  43.686   7.775
 1298POPC   C4B18706  37.474  43.760   7.338
 1299POPC   NC318707  34.365   5.250   9.443
 1299POPC   PO418708  34.605   4.606   9.497
 1299POPC   GL118709  34.458   4.811   9.115
 1299POPC   GL218710  34.167   5.012   9.038
 1299POPC   C1A18711  34.583   4.995   8.693
 1299POPC   D2A18712  34.869   5.143   8.348
 1299POPC   C3A18713  34.684   5.145   7.910
 1299POPC   C4A18714  34.648   5.030   7.470
 1299POPC   C1B18715  34.168   5.295   8.714
 1299POPC   C2B18716  34.196   5.052   8.341
 1299POPC   C3B18717  34.123   5.209   7.972
 1299POPC   C4B18718  34.311   5.494   7.723
 1300POPC   NC318719  18.514  18.750   9.517
 1300POPC   PO418720  18.095  19.178   9.400
 1300POPC   GL118721  18.258  18.944   9.128
 1300POPC   GL218722  18.548  19.090   9.095
 1300POPC   C1A18723  18.210  18.809   8.752
 1300POPC   D2A18724  17.976  18.980   8.460
 1300POPC   C3A18725  18.216  19.141   8.182
 1300POPC   C4A18726  18.236  19.058   7.760
 1300POPC   C1B18727  18.407  19.306   8.717
 1300POPC   C2B18728  18.627  19.457   8.364
 1300POPC   C3B18729  18.462  19.522   7.955
 1300POPC   C4B18730  18.558  19.401   7.526
 1301POPC   NC318731   7.885  35.474   9.312
 1301POPC   PO418732   8.446  35.262   9.483
 1301POPC   GL118733   8.233  35.161   9.090
 1301POPC   GL218734   8.261  35.528   8.959
 1301POPC   C1A18735   7.930  35.192   8.724
 1301POPC   D2A18736   7.975  35.526   8.414
 1301POPC   C3A18737   7.811  35.483   7.991
 1301POPC   C4A18738   7.926  35.111   7.757
 1301POPC   C1B18739   8.414  35.261   8.628
 1301POPC   C2B18740   8.549  35.054   8.289
 1301POPC   C3B18741   8.420  35.141   7.886
 1301POPC   C4B18742   8.268  35.524   7.665
 1302POPC   NC318743  18.848   1.672   9.546
 1302POPC   PO418744  19.081   2.260   9.502
 1302POPC   GL118745  19.109   1.962   9.183
 1302POPC   GL218746  18.780   2.018   9.107
 1302POPC   C1A18747  19.203   2.042   8.747
 1302POPC   D2A18748  18.982   2.050   8.356
 1302POPC   C3A18749  19.210   1.970   7.976
 1302POPC   C4A18750  19.279   1.933   7.513
 1302POPC   C1B18751  18.744   1.674   8.832
 1302POPC   C2B18752  18.641   1.504   8.421
 1302POPC   C3B18753  18.668   1.761   8.050
 1302POPC   C4B18754  18.894   1.677   7.692
 1303POPC   NC318755  41.817  28.238   9.514
 1303POPC   PO418756  41.137  28.024   9.418
 1303POPC   GL118757  41.478  28.166   9.131
 1303POPC   GL218758  41.509  28.470   9.068
 1303POPC   C1A18759  41.793  28.132   8.763
 1303POPC   D2A18760  42.046  28.244   8.396
 1303POPC   C3A18761  41.872  28.115   8.004
 1303POPC   C4A18762  41.630  28.382   7.787
 1303POPC   C1B18763  41.683  28.646   8.691
 1303POPC   C2B18764  41.596  28.559   8.260
 1303POPC   C3B18765  41.352  28.778   7.896
 1303POPC   C4B18766  41.424  28.738   7.437
 1304POPC   NC318767  37.862  19.274   9.837
 1304POPC   PO418768  37.744  18.881   9.284
 1304POPC   GL118769  37.681  19.079   8.943
 1304POPC   GL218770  37.396  19.235   9.114
 1304POPC   C1A18771  37.778  18.827   8.603
 1304POPC   D2A18772  37.932  18.809   8.224
 1304POPC   C3A18773  37.602  18.863   7.972
 1304POPC   C4A18774  37.874  18.842   7.626
 1304POPC   C1B18775  37.325  19.285   8.653
 1304POPC   C2B18776  37.702  19.279   8.373
 1304POPC   C3B18777  37.908  19.267   7.960
 1304POPC   C4B18778  37.609  19.278   7.651
 1305POPC   NC318779   3.817   6.188   9.616
 1305POPC   PO418780   4.434   5.873   9.439
 1305POPC   GL118781   4.191   5.854   9.109
 1305POPC   GL218782   4.428   5.621   8.949
 1305POPC   C1A18783   4.094   5.857   8.681
 1305POPC   D2A18784   3.896   5.809   8.304
 1305POPC   C3A18785   4.192   5.828   7.991
 1305POPC   C4A18786   4.165   6.077   7.630
 1305POPC   C1B18787   4.618   5.956   8.677
 1305POPC   C2B18788   4.591   6.131   8.260
 1305POPC   C3B18789   4.656   6.001   7.829
 1305POPC   C4B18790   4.494   5.708   7.517
 1306POPC   NC318791  40.245  41.905   9.502
 1306POPC   PO418792  39.717  41.403   9.537
 1306POPC   GL118793  40.007  41.461   9.230
 1306POPC   GL218794  39.928  41.747   9.091
 1306POPC   C1A18795  40.045  41.340   8.793
 1306POPC   D2A18796  39.957  41.539   8.393
 1306POPC   C3A18797  39.858  41.366   7.992
 1306POPC   C4A18798  40.143  41.068   7.839
 1306POPC   C1B18799  40.214  41.831   8.728
 1306POPC   C2B18800  40.392  41.780   8.313
 1306POPC   C3B18801  40.287  41.624   7.912
 1306POPC   C4B18802  40.116  41.817   7.548
 1307POPC   NC318803  11.395  25.854   9.767
 1307POPC   PO418804  11.050  26.324   9.501
 1307POPC   GL118805  11.217  26.099   9.163
 1307POPC   GL218806  11.486  25.874   9.243
 1307POPC   C1A18807  11.205  26.109   8.719
 1307POPC   D2A18808  11.005  25.904   8.401
 1307POPC   C3A18809  11.209  26.041   8.026
 1307POPC   C4A18810  11.100  25.966   7.626
 1307POPC   C1B18811  11.649  25.888   8.805
 1307POPC   C2B18812  11.525  25.801   8.374
 1307POPC   C3B18813  11.660  25.704   7.932
 1307POPC   C4B18814  11.585  25.881   7.519
 1308POPC   NC318815  19.880  15.695   9.521
 1308POPC   PO418816  19.394  16.169   9.499
 1308POPC   GL118817  19.763  16.318   9.229
 1308POPC   GL218818  19.792  15.999   9.145
 1308POPC   C1A18819  19.858  16.277   8.753
 1308POPC   D2A18820  19.518  16.152   8.519
 1308POPC   C3A18821  19.614  16.048   8.111
 1308POPC   C4A18822  19.983  15.946   7.918
 1308POPC   C1B18823  20.051  15.815   8.848
 1308POPC   C2B18824  19.960  15.787   8.420
 1308POPC   C3B18825  20.169  15.516   8.135
 1308POPC   C4B18826  20.103  15.359   7.717
 1309POPC   NC318827   8.035  41.177   9.479
 1309POPC   PO418828   8.588  41.497   9.356
 1309POPC   GL118829   8.291  41.677   9.094
 1309POPC   GL218830   7.984  41.497   9.108
 1309POPC   C1A18831   8.075  41.789   8.717
 1309POPC   D2A18832   7.899  41.637   8.358
 1309POPC   C3A18833   8.029  41.843   8.016
 1309POPC   C4A18834   8.330  41.823   7.665
 1309POPC   C1B18835   8.238  41.269   8.791
 1309POPC   C2B18836   8.383  41.450   8.421
 1309POPC   C3B18837   8.246  41.377   8.018
 1309POPC   C4B18838   8.383  41.307   7.633
 1310POPC   NC318839  31.127  33.158   9.522
 1310POPC   PO418840  31.789  33.271   9.491
 1310POPC   GL118841  31.542  33.201   9.115
 1310POPC   GL218842  31.285  32.954   9.072
 1310POPC   C1A18843  31.668  33.069   8.689
 1310POPC   D2A18844  31.666  33.170   8.248
 1310POPC   C3A18845  31.758  32.887   7.883
 1310POPC   C4A18846  31.528  33.160   7.705
 1310POPC   C1B18847  31.373  32.663   8.766
 1310POPC   C2B18848  31.297  32.643   8.402
 1310POPC   C3B18849  31.280  32.875   8.071
 1310POPC   C4B18850  31.278  32.708   7.688
 1311POPC   NC318851   4.131  12.409   9.605
 1311POPC   PO418852   4.670  12.837   9.440
 1311POPC   GL118853   4.455  12.896   9.053
 1311POPC   GL218854   4.153  13.062   9.146
 1311POPC   C1A18855   4.228  12.884   8.643
 1311POPC   D2A18856   3.938  12.721   8.332
 1311POPC   C3A18857   4.094  12.507   8.000
 1311POPC   C4A18858   4.268  12.715   7.668
 1311POPC   C1B18859   3.990  13.292   8.808
 1311POPC   C2B18860   3.925  13.227   8.370
 1311POPC   C3B18861   4.029  13.276   7.919
 1311POPC   C4B18862   4.167  13.178   7.492
 1312POPC   NC318863  19.281  21.982   9.449
 1312POPC   PO418864  18.818  22.436   9.385
 1312POPC   GL118865  18.761  22.239   8.991
 1312POPC   GL218866  18.862  21.931   9.109
 1312POPC   C1A18867  18.986  22.302   8.575
 1312POPC   D2A18868  19.247  22.434   8.191
 1312POPC   C3A18869  19.057  22.359   7.807
 1312POPC   C4A18870  18.986  21.917   7.754
 1312POPC   C1B18871  19.182  21.886   8.798
 1312POPC   C2B18872  19.182  21.848   8.333
 1312POPC   C3B18873  18.812  21.594   8.142
 1312POPC   C4B18874  18.514  21.691   7.799
 1313POPC   NC318875   3.132  44.101   9.442
 1313POPC   PO418876   3.704  43.709   9.339
 1313POPC   GL118877   3.355  43.805   9.057
 1313POPC   GL218878   3.331  44.153   8.978
 1313POPC   C1A18879   3.387  43.721   8.604
 1313POPC   D2A18880   3.456  43.438   8.252
 1313POPC   C3A18881   3.847  43.465   8.028
 1313POPC   C4A18882   3.982  43.799   7.800
 1313POPC   C1B18883   3.364  44.225   8.533
 1313POPC   C2B18884   3.198  44.005   8.183
 1313POPC   C3B18885   3.280  43.862   7.755
 1313POPC   C4B18886   3.344  44.084   7.322
 1314POPC   NC318887   2.407  11.491   9.554
 1314POPC   PO418888   2.901  11.128   9.592
 1314POPC   GL118889   2.685  11.281   9.184
 1314POPC   GL218890   2.582  11.627   9.087
 1314POPC   C1A18891   2.688  11.110   8.771
 1314POPC   D2A18892   2.808  10.848   8.428
 1314POPC   C3A18893   2.707  11.097   8.104
 1314POPC   C4A18894   2.725  11.065   7.702
 1314POPC   C1B18895   2.963  11.566   8.791
 1314POPC   C2B18896   3.055  11.436   8.337
 1314POPC   C3B18897   2.882  11.573   7.915
 1314POPC   C4B18898   2.452  11.538   7.723
 1315POPC   NC318899   0.111  25.080   9.570
 1315POPC   PO418900   0.711  25.210   9.252
 1315POPC   GL118901   0.369  25.342   9.079
 1315POPC   GL218902   0.219  25.028   9.079
 1315POPC   C1A18903   0.406  25.415   8.646
 1315POPC   D2A18904   0.549  25.685   8.345
 1315POPC   C3A18905   0.877  25.547   8.139
 1315POPC   C4A18906   0.757  25.351   7.796
 1315POPC   C1B18907   0.481  24.906   8.722
 1315POPC   C2B18908   0.577  25.072   8.299
 1315POPC   C3B18909   0.349  25.076   7.935
 1315POPC   C4B18910   0.183  25.461   7.878
 1316POPC   NC318911  37.494  20.674   9.290
 1316POPC   PO418912  38.006  20.798   9.688
 1316POPC   GL118913  37.977  20.776   9.215
 1316POPC   GL218914  38.044  20.457   9.243
 1316POPC   C1A18915  37.845  20.950   8.769
 1316POPC   D2A18916  37.593  21.009   8.376
 1316POPC   C3A18917  37.552  20.704   8.040
 1316POPC   C4A18918  37.313  20.474   7.732
 1316POPC   C1B18919  38.086  20.500   8.784
 1316POPC   C2B18920  37.881  20.502   8.382
 1316POPC   C3B18921  38.029  20.494   7.949
 1316POPC   C4B18922  37.841  20.713   7.591
 1317POPC   NC318923   3.462  34.169   9.450
 1317POPC   PO418924   3.515  34.868   9.381
 1317POPC   GL118925   3.391  34.554   9.068
 1317POPC   GL218926   3.568  34.259   8.973
 1317POPC   C1A18927   3.252  34.489   8.617
 1317POPC   D2A18928   3.157  34.465   8.165
 1317POPC   C3A18929   3.231  34.823   7.871
 1317POPC   C4A18930   3.440  34.848   7.468
 1317POPC   C1B18931   3.773  34.429   8.627
 1317POPC   C2B18932   3.659  34.507   8.200
 1317POPC   C3B18933   3.636  34.480   7.752
 1317POPC   C4B18934   3.550  34.213   7.375
 1318POPC   NC318935  14.375  20.248   9.663
 1318POPC   PO418936  14.130  20.760   9.335
 1318POPC   GL118937  14.429  20.632   9.073
 1318POPC   GL218938  14.513  20.285   9.132
 1318POPC   C1A18939  14.319  20.596   8.649
 1318POPC   D2A18940  14.075  20.799   8.332
 1318POPC   C3A18941  14.363  20.715   8.049
 1318POPC   C4A18942  14.490  20.774   7.676
 1318POPC   C1B18943  14.660  20.199   8.688
 1318POPC   C2B18944  14.530  20.205   8.233
 1318POPC   C3B18945  14.513  20.283   7.769
 1318POPC   C4B18946  14.839  20.516   7.432
 1319POPC   NC318947  20.773   6.312   9.472
 1319POPC   PO418948  20.389   5.786   9.441
 1319POPC   GL118949  20.533   6.020   9.118
 1319POPC   GL218950  20.816   5.843   9.097
 1319POPC   C1A18951  20.478   5.982   8.695
 1319POPC   D2A18952  20.751   5.846   8.381
 1319POPC   C3A18953  20.632   5.989   7.998
 1319POPC   C4A18954  20.241   6.053   7.780
 1319POPC   C1B18955  21.067   5.663   8.768
 1319POPC   C2B18956  21.094   5.461   8.362
 1319POPC   C3B18957  21.052   5.693   7.976
 1319POPC   C4B18958  20.844   5.719   7.608
 1320POPC   NC318959  30.122   4.874   9.413
 1320POPC   PO418960  29.638   5.450   9.345
 1320POPC   GL118961  29.949   5.233   9.068
 1320POPC   GL218962  29.918   4.838   8.960
 1320POPC   C1A18963  30.033   5.218   8.639
 1320POPC   D2A18964  30.216   5.075   8.308
 1320POPC   C3A18965  29.927   5.137   8.030
 1320POPC   C4A18966  29.926   5.371   7.667
 1320POPC   C1B18967  30.269   4.778   8.754
 1320POPC   C2B18968  30.300   4.588   8.392
 1320POPC   C3B18969  30.115   4.639   7.972
 1320POPC   C4B18970  29.904   4.859   7.608
 1321POPC   NC318971  25.097  36.420   9.395
 1321POPC   PO418972  25.390  37.068   9.404
 1321POPC   GL118973  25.282  36.817   9.104
 1321POPC   GL218974  24.962  36.901   9.049
 1321POPC   C1A18975  25.297  36.684   8.693
 1321POPC   D2A18976  25.241  36.825   8.280
 1321POPC   C3A18977  25.372  36.709   7.885
 1321POPC   C4A18978  25.490  36.994   7.550
 1321POPC   C1B18979  24.804  36.858   8.663
 1321POPC   C2B18980  24.848  36.510   8.378
 1321POPC   C3B18981  24.848  36.676   7.974
 1321POPC   C4B18982  24.752  37.107   7.804
 1322POPC   NC318983   4.716  39.322   9.768
 1322POPC   PO418984   5.166  39.258   9.306
 1322POPC   GL118985   5.040  39.293   8.973
 1322POPC   GL218986   4.759  39.047   9.081
 1322POPC   C1A18987   5.292  39.289   8.618
 1322POPC   D2A18988   5.114  39.165   8.240
 1322POPC   C3A18989   5.276  39.372   7.883
 1322POPC   C4A18990   5.177  39.343   7.444
 1322POPC   C1B18991   4.991  38.827   8.785
 1322POPC   C2B18992   4.884  38.684   8.428
 1322POPC   C3B18993   5.074  38.689   8.047
 1322POPC   C4B18994   5.170  38.885   7.704
 1323POPC   NC318995  18.603  31.460   9.472
 1323POPC   PO418996  19.263  31.367   9.397
 1323POPC   GL118997  19.024  31.429   9.039
 1323POPC   GL218998  18.688  31.311   9.007
 1323POPC   C1A18999  19.027  31.360   8.587
 1323POPC   D2A19000  19.236  31.184   8.202
 1323POPC   C3A19001  19.165  31.310   7.755
 1323POPC   C4A19002  19.267  31.155   7.311
 1323POPC   C1B19003  18.637  31.012   8.719
 1323POPC   C2B19004  18.564  30.877   8.315
 1323POPC   C3B19005  18.776  31.003   7.943
 1323POPC   C4B19006  18.662  31.395   7.764
 1324POPC   NC319007  28.455  14.859   9.338
 1324POPC   PO419008  28.009  15.290   9.655
 1324POPC   GL119009  28.173  15.434   9.209
 1324POPC   GL219010  28.497  15.311   9.128
 1324POPC   C1A19011  28.126  15.362   8.733
 1324POPC   D2A19012  28.445  15.127   8.441
 1324POPC   C3A19013  28.330  15.024   8.013
 1324POPC   C4A19014  28.049  15.324   7.776
 1324POPC   C1B19015  28.611  15.497   8.771
 1324POPC   C2B19016  28.756  15.537   8.346
 1324POPC   C3B19017  28.714  15.358   7.934
 1324POPC   C4B19018  28.489  15.173   7.549
 1325POPC   NC319019  38.596  13.898   9.894
 1325POPC   PO419020  38.713  13.371   9.579
 1325POPC   GL119021  38.695  13.532   9.171
 1325POPC   GL219022  38.380  13.706   9.143
 1325POPC   C1A19023  38.575  13.398   8.754
 1325POPC   D2A19024  38.345  13.529   8.386
 1325POPC   C3A19025  38.648  13.648   8.085
 1325POPC   C4A19026  38.747  13.593   7.679
 1325POPC   C1B19027  38.314  13.911   8.764
 1325POPC   C2B19028  38.058  13.979   8.422
 1325POPC   C3B19029  38.215  13.922   8.048
 1325POPC   C4B19030  38.235  13.710   7.678
 1326POPC   NC319031  12.062  18.508   9.515
 1326POPC   PO419032  12.570  18.070   9.440
 1326POPC   GL119033  12.277  18.273   9.100
 1326POPC   GL219034  11.896  18.328   9.064
 1326POPC   C1A19035  12.297  18.089   8.680
 1326POPC   D2A19036  12.569  18.043   8.334
 1326POPC   C3A19037  12.436  17.907   7.947
 1326POPC   C4A19038  12.074  18.119   7.815
 1326POPC   C1B19039  12.019  18.505   8.683
 1326POPC   C2B19040  12.014  18.378   8.269
 1326POPC   C3B19041  11.811  18.541   7.916
 1326POPC   C4B19042  12.115  18.700   7.674
 1327POPC   NC319043  30.879   8.301   9.552
 1327POPC   PO419044  30.433   7.816   9.520
 1327POPC   GL119045  30.674   7.910   9.122
 1327POPC   GL219046  31.016   7.827   9.142
 1327POPC   C1A19047  30.730   8.162   8.700
 1327POPC   D2A19048  30.854   8.418   8.293
 1327POPC   C3A19049  30.753   8.194   7.894
 1327POPC   C4A19050  30.630   8.195   7.441
 1327POPC   C1B19051  31.185   7.947   8.747
 1327POPC   C2B19052  31.054   7.950   8.330
 1327POPC   C3B19053  31.260   8.137   7.991
 1327POPC   C4B19054  31.146   8.267   7.575
 1328POPC   NC319055  10.783   3.123   9.327
 1328POPC   PO419056  10.294   3.675   9.387
 1328POPC   GL119057  10.441   3.416   9.089
 1328POPC   GL219058  10.808   3.532   9.016
 1328POPC   C1A19059  10.394   3.587   8.701
 1328POPC   D2A19060  10.602   3.669   8.372
 1328POPC   C3A19061  10.301   3.695   8.109
 1328POPC   C4A19062  10.382   3.486   7.778
 1328POPC   C1B19063  10.742   3.217   8.668
 1328POPC   C2B19064  10.653   3.175   8.199
 1328POPC   C3B19065  10.859   3.439   7.888
 1328POPC   C4B19066  10.815   3.684   7.498
 1329POPC   NC319067   8.801  42.810   9.455
 1329POPC   PO419068   9.295  43.249   9.481
 1329POPC   GL119069   9.033  43.167   9.147
 1329POPC   GL219070   9.189  42.881   9.070
 1329POPC   C1A19071   8.956  43.130   8.696
 1329POPC   D2A19072   9.199  43.042   8.325
 1329POPC   C3A19073   8.887  43.014   8.062
 1329POPC   C4A19074   8.640  43.137   7.752
 1329POPC   C1B19075   9.159  42.651   8.709
 1329POPC   C2B19076   9.008  42.533   8.312
 1329POPC   C3B19077   9.121  42.575   7.903
 1329POPC   C4B19078   9.278  42.935   7.753
 1330POPC   NC319079  34.220  40.482   9.257
 1330POPC   PO419080  34.586  40.997   9.459
 1330POPC   GL119081  34.512  40.836   9.073
 1330POPC   GL219082  34.839  40.761   9.049
 1330POPC   C1A19083  34.481  40.774   8.630
 1330POPC   D2A19084  34.725  41.052   8.372
 1330POPC   C3A19085  34.718  40.944   7.930
 1330POPC   C4A19086  34.535  40.651   7.674
 1330POPC   C1B19087  34.977  40.666   8.651
 1330POPC   C2B19088  34.772  40.533   8.247
 1330POPC   C3B19089  34.988  40.510   7.843
 1330POPC   C4B19090  35.003  40.616   7.375
 1331POPC   NC319091  44.894  42.467   9.480
 1331POPC   PO419092  44.344  42.116   9.670
 1331POPC   GL119093  44.528  42.189   9.220
 1331POPC   GL219094  44.562  42.536   9.091
 1331POPC   C1A19095  44.610  42.198   8.734
 1331POPC   D2A19096  44.398  42.471   8.412
 1331POPC   C3A19097  44.363  42.312   7.999
 1331POPC   C4A19098  44.449  42.429   7.591
 1331POPC   C1B19099  44.792  42.687   8.700
 1331POPC   C2B19100  44.883  42.554   8.281
 1331POPC   C3B19101  44.893  42.398   7.874
 1331POPC   C4B19102   0.195  42.487   7.594
 1332POPC   NC319103   7.898  35.804   9.777
 1332POPC   PO419104   8.463  35.965   9.438
 1332POPC   GL119105   8.106  35.979   9.188
 1332POPC   GL219106   8.260  36.255   9.029
 1332POPC   C1A19107   7.953  35.924   8.752
 1332POPC   D2A19108   8.160  36.017   8.334
 1332POPC   C3A19109   8.057  36.215   7.936
 1332POPC   C4A19110   7.866  35.928   7.667
 1332POPC   C1B19111   8.491  36.461   8.709
 1332POPC   C2B19112   8.347  36.497   8.300
 1332POPC   C3B19113   8.422  36.635   7.890
 1332POPC   C4B19114   8.378  36.411   7.524
 1333POPC   NC319115  29.293  43.189   9.361
 1333POPC   PO419116  28.753  42.780   9.520
 1333POPC   GL119117  28.843  43.063   9.171
 1333POPC   GL219118  29.110  42.835   9.006
 1333POPC   C1A19119  29.017  43.332   8.795
 1333POPC   D2A19120  29.057  43.111   8.400
 1333POPC   C3A19121  29.116  43.378   8.108
 1333POPC   C4A19122  29.069  43.361   7.680
 1333POPC   C1B19123  29.437  43.065   8.736
 1333POPC   C2B19124  29.591  43.110   8.315
 1333POPC   C3B19125  29.527  43.202   7.883
 1333POPC   C4B19126  29.427  42.959   7.554
 1334POPC   NC319127   2.833  40.806   9.682
 1334POPC   PO419128   2.710  41.249   9.186
 1334POPC   GL119129   2.724  40.821   8.977
 1334POPC   GL219130   3.042  40.648   8.933
 1334POPC   C1A19131   2.750  40.711   8.521
 1334POPC   D2A19132   2.523  40.664   8.151
 1334POPC   C3A19133   2.689  40.993   7.873
 1334POPC   C4A19134   3.087  41.189   7.831
 1334POPC   C1B19135   3.046  40.328   8.655
 1334POPC   C2B19136   3.137  40.437   8.274
 1334POPC   C3B19137   2.984  40.571   7.909
 1334POPC   C4B19138   3.036  40.332   7.566
 1335POPC   NC319139  39.090  27.739   9.520
 1335POPC   PO419140  38.468  27.651   9.379
 1335POPC   GL119141  38.769  27.570   9.146
 1335POPC   GL219142  38.764  27.218   9.260
 1335POPC   C1A19143  38.788  27.744   8.754
 1335POPC   D2A19144  38.626  27.957   8.403
 1335POPC   C3A19145  38.649  27.708   8.051
 1335POPC   C4A19146  38.286  27.601   7.848
 1335POPC   C1B19147  38.487  27.294   8.818
 1335POPC   C2B19148  38.365  27.347   8.371
 1335POPC   C3B19149  38.578  27.160   8.030
 1335POPC   C4B19150  38.734  27.261   7.661
 1336POPC   NC319151   6.537  44.267   9.534
 1336POPC   PO419152   6.285  43.701   9.729
 1336POPC   GL119153   6.319  43.851   9.299
 1336POPC   GL219154   6.670  43.878   9.133
 1336POPC   C1A19155   6.238  43.963   8.863
 1336POPC   D2A19156   6.434  43.793   8.476
 1336POPC   C3A19157   6.344  43.944   8.042
 1336POPC   C4A19158   6.406  43.844   7.597
 1336POPC   C1B19159   6.802  44.129   8.740
 1336POPC   C2B19160   6.773  44.147   8.272
 1336POPC   C3B19161   6.895  43.929   7.894
 1336POPC   C4B19162   6.876  43.935   7.433
 1337POPC   NC319163  34.167   4.458   9.510
 1337POPC   PO419164  33.508   4.147   9.524
 1337POPC   GL119165  33.531   4.186   9.102
 1337POPC   GL219166  33.815   4.394   9.144
 1337POPC   C1A19167  33.778   4.124   8.718
 1337POPC   D2A19168  33.751   4.316   8.326
 1337POPC   C3A19169  33.854   4.084   7.964
 1337POPC   C4A19170  33.698   4.044   7.522
 1337POPC   C1B19171  34.131   4.519   8.856
 1337POPC   C2B19172  34.192   4.543   8.427
 1337POPC   C3B19173  34.090   4.561   7.998
 1337POPC   C4B19174  34.150   4.312   7.624
 1338POPC   NC319175  34.330  41.381   9.448
 1338POPC   PO419176  34.869  41.760   9.420
 1338POPC   GL119177  34.675  41.621   9.061
 1338POPC   GL219178  34.786  41.279   9.059
 1338POPC   C1A19179  34.521  41.729   8.633
 1338POPC   D2A19180  34.382  41.862   8.217
 1338POPC   C3A19181  34.680  41.761   7.896
 1338POPC   C4A19182  34.895  41.418   7.791
 1338POPC   C1B19183  34.399  41.247   8.810
 1338POPC   C2B19184  34.214  41.227   8.426
 1338POPC   C3B19185  34.416  41.326   8.059
 1338POPC   C4B19186  34.278  41.106   7.699
 1339POPC   NC319187  18.212  35.560   9.426
 1339POPC   PO419188  18.759  35.223   9.578
 1339POPC   GL119189  18.636  35.286   9.157
 1339POPC   GL219190  18.355  35.060   9.124
 1339POPC   C1A19191  18.365  35.455   8.802
 1339POPC   D2A19192  18.087  35.495   8.445
 1339POPC   C3A19193  18.381  35.404   8.121
 1339POPC   C4A19194  18.532  35.244   7.745
 1339POPC   C1B19195  18.009  35.058   8.786
 1339POPC   C2B19196  17.905  34.995   8.362
 1339POPC   C3B19197  18.097  34.992   7.939
 1339POPC   C4B19198  18.105  35.055   7.488
 1340POPC   NC319199  12.992  20.896   9.479
 1340POPC   PO419200  12.794  21.540   9.438
 1340POPC   GL119201  13.035  21.497   9.126
 1340POPC   GL219202  12.967  21.156   9.037
 1340POPC   C1A19203  13.222  21.628   8.776
 1340POPC   D2A19204  13.099  21.707   8.356
 1340POPC   C3A19205  13.253  21.394   8.083
 1340POPC   C4A19206  13.219  21.617   7.721
 1340POPC   C1B19207  12.747  21.399   8.713
 1340POPC   C2B19208  12.775  21.299   8.294
 1340POPC   C3B19209  12.745  21.558   7.918
 1340POPC   C4B19210  12.431  21.553   7.586
 1341POPC   NC319211   5.769  16.059   9.686
 1341POPC   PO419212   6.285  15.679   9.527
 1341POPC   GL119213   6.060  16.011   9.260
 1341POPC   GL219214   5.768  15.937   9.041
 1341POPC   C1A19215   6.101  16.297   8.895
 1341POPC   D2A19216   6.185  16.118   8.475
 1341POPC   C3A19217   5.867  16.047   8.170
 1341POPC   C4A19218   5.859  16.029   7.709
 1341POPC   C1B19219   5.848  15.717   8.637
 1341POPC   C2B19220   5.645  15.568   8.245
 1341POPC   C3B19221   5.774  15.498   7.787
 1341POPC   C4B19222   5.924  15.670   7.359
 1342POPC   NC319223  35.527  10.021   9.402
 1342POPC   PO419224  34.988   9.516   9.491
 1342POPC   GL119225  35.287   9.649   9.166
 1342POPC   GL219226  35.087   9.949   9.076
 1342POPC   C1A19227  35.467   9.913   8.756
 1342POPC   D2A19228  35.583  10.097   8.343
 1342POPC   C3A19229  35.360   9.889   8.020
 1342POPC   C4A19230  35.512   9.693   7.646
 1342POPC   C1B19231  35.013   9.622   8.758
 1342POPC   C2B19232  35.018   9.637   8.349
 1342POPC   C3B19233  34.930   9.408   8.022
 1342POPC   C4B19234  35.061   9.420   7.611
 1343POPC   NC319235  18.921  29.086   9.561
 1343POPC   PO419236  19.467  29.465   9.376
 1343POPC   GL119237  19.118  29.336   9.140
 1343POPC   GL219238  19.107  29.015   9.079
 1343POPC   C1A19239  19.043  29.317   8.689
 1343POPC   D2A19240  19.243  29.264   8.294
 1343POPC   C3A19241  19.075  29.348   7.905
 1343POPC   C4A19242  19.252  29.328   7.468
 1343POPC   C1B19243  18.846  28.814   8.751
 1343POPC   C2B19244  18.893  28.659   8.314
 1343POPC   C3B19245  19.134  28.843   7.970
 1343POPC   C4B19246  18.960  28.903   7.528
 1344POPC   NC319247  12.247  26.308   9.467
 1344POPC   PO419248  11.835  25.756   9.626
 1344POPC   GL119249  11.993  25.878   9.176
 1344POPC   GL219250  12.038  26.199   9.016
 1344POPC   C1A19251  12.133  25.739   8.758
 1344POPC   D2A19252  12.029  25.748   8.337
 1344POPC   C3A19253  11.937  26.102   8.060
 1344POPC   C4A19254  12.062  25.963   7.670
 1344POPC   C1B19255  12.029  26.231   8.554
 1344POPC   C2B19256  12.378  26.304   8.215
 1344POPC   C3B19257  12.444  26.313   7.757
 1344POPC   C4B19258  12.170  26.374   7.403
 1345POPC   NC319259  23.975  10.001   9.892
 1345POPC   PO419260  23.289   9.909   9.620
 1345POPC   GL119261  23.489   9.847   9.220
 1345POPC   GL219262  23.565   9.507   9.071
 1345POPC   C1A19263  23.508  10.019   8.795
 1345POPC   D2A19264  23.499   9.786   8.389
 1345POPC   C3A19265  23.839   9.911   8.109
 1345POPC   C4A19266  23.735  10.023   7.688
 1345POPC   C1B19267  23.492   9.320   8.666
 1345POPC   C2B19268  23.572   9.285   8.226
 1345POPC   C3B19269  23.588   9.550   7.871
 1345POPC   C4B19270  23.283   9.570   7.534
 1346POPC   NC319271  26.797  13.286   9.597
 1346POPC   PO419272  27.191  13.762   9.737
 1346POPC   GL119273  27.047  13.866   9.275
 1346POPC   GL219274  26.996  13.526   9.165
 1346POPC   C1A19275  26.757  13.867   8.875
 1346POPC   D2A19276  26.570  13.935   8.450
 1346POPC   C3A19277  26.871  13.921   8.132
 1346POPC   C4A19278  26.937  13.828   7.723
 1346POPC   C1B19279  26.846  13.374   8.757
 1346POPC   C2B19280  26.760  13.469   8.337
 1346POPC   C3B19281  26.688  13.389   7.909
 1346POPC   C4B19282  26.841  13.073   7.623
 1347POPC   NC319283  33.139  42.656   9.480
 1347POPC   PO419284  32.764  43.176   9.641
 1347POPC   GL119285  32.892  43.058   9.224
 1347POPC   GL219286  32.823  42.740   9.096
 1347POPC   C1A19287  33.048  43.146   8.817
 1347POPC   D2A19288  33.085  43.403   8.478
 1347POPC   C3A19289  33.222  43.229   8.107
 1347POPC   C4A19290  33.083  43.189   7.704
 1347POPC   C1B19291  32.807  42.716   8.662
 1347POPC   C2B19292  32.876  42.875   8.253
 1347POPC   C3B19293  32.820  42.736   7.817
 1347POPC   C4B19294  32.820  42.880   7.364
 1348POPC   NC319295  40.301  16.944   9.253
 1348POPC   PO419296  39.782  17.097   9.591
 1348POPC   GL119297  39.779  16.866   9.162
 1348POPC   GL219298  39.657  16.526   9.141
 1348POPC   C1A19299  40.043  16.662   8.782
 1348POPC   D2A19300  40.241  16.933   8.528
 1348POPC   C3A19301  40.216  16.953   8.076
 1348POPC   C4A19302  40.317  16.598   7.836
 1348POPC   C1B19303  39.572  16.713   8.697
 1348POPC   C2B19304  39.853  16.655   8.300
 1348POPC   C3B19305  39.809  16.612   7.858
 1348POPC   C4B19306  39.746  16.399   7.434
 1349POPC   NC319307  23.422  44.993   9.310
 1349POPC   PO419308  22.708  44.805   9.340
 1349POPC   GL119309  22.930  44.534   9.107
 1349POPC   GL219310  23.098  44.780   8.993
 1349POPC   C1A19311  22.773  44.488   8.721
 1349POPC   D2A19312  22.931  44.511   8.326
 1349POPC   C3A19313  22.810  44.727   7.966
 1349POPC   C4A19314  22.935  44.485   7.649
 1349POPC   C1B19315  23.287  44.700   8.658
 1349POPC   C2B19316  23.309  44.899   8.293
 1349POPC   C3B19317  23.421  44.824   7.880
 1349POPC   C4B19318  23.336  44.741   7.475
 1350POPC   NC319319  24.265   0.275   9.406
 1350POPC   PO419320  23.803   0.752   9.578
 1350POPC   GL119321  24.160   0.831   9.221
 1350POPC   GL219322  24.518   0.647   9.145
 1350POPC   C1A19323  24.270   0.852   8.755
 1350POPC   D2A19324  24.312   0.545   8.415
 1350POPC   C3A19325  24.170   0.579   7.987
 1350POPC   C4A19326  24.196   0.226   7.683
 1350POPC   C1B19327  24.673   0.448   8.784
 1350POPC   C2B19328  24.816   0.358   8.385
 1350POPC   C3B19329  24.678   0.529   8.028
 1350POPC   C4B19330  24.731   0.326   7.683
 1351POPC   NC319331  26.577  26.264   9.412
 1351POPC   PO419332  27.158  25.843   9.410
 1351POPC   GL119333  26.937  25.733   9.035
 1351POPC   GL219334  26.644  25.908   9.057
 1351POPC   C1A19335  26.835  25.776   8.600
 1351POPC   D2A19336  26.977  25.995   8.238
 1351POPC   C3A19337  27.219  25.707   7.987
 1351POPC   C4A19338  27.004  25.731   7.623
 1351POPC   C1B19339  26.559  26.193   8.728
 1351POPC   C2B19340  26.506  26.424   8.354
 1351POPC   C3B19341  26.591  26.264   7.972
 1351POPC   C4B19342  26.654  26.113   7.590
 1352POPC   NC319343  22.352  26.101   9.640
 1352POPC   PO419344  22.303  25.464   9.471
 1352POPC   GL119345  22.347  25.814   9.100
 1352POPC   GL219346  22.359  26.173   9.138
 1352POPC   C1A19347  22.227  26.052   8.653
 1352POPC   D2A19348  22.072  26.360   8.297
 1352POPC   C3A19349  22.026  26.186   7.862
 1352POPC   C4A19350  21.900  25.986   7.462
 1352POPC   C1B19351  22.617  26.342   8.804
 1352POPC   C2B19352  22.581  26.345   8.332
 1352POPC   C3B19353  22.508  26.062   7.979
 1352POPC   C4B19354  22.413  26.093   7.524
 1353POPC   NC319355  30.765  29.193   9.475
 1353POPC   PO419356  31.192  28.602   9.299
 1353POPC   GL119357  31.014  28.985   9.046
 1353POPC   GL219358  30.645  29.122   9.007
 1353POPC   C1A19359  30.944  29.163   8.618
 1353POPC   D2A19360  31.140  29.206   8.264
 1353POPC   C3A19361  30.944  29.089   7.902
 1353POPC   C4A19362  31.149  29.175   7.492
 1353POPC   C1B19363  30.452  28.923   8.677
 1353POPC   C2B19364  30.547  28.989   8.251
 1353POPC   C3B19365  30.454  29.278   7.904
 1353POPC   C4B19366  30.615  29.146   7.520
 1354POPC   NC319367  35.627   0.985   9.973
 1354POPC   PO419368  35.457   1.482   9.481
 1354POPC   GL119369  35.484   1.381   9.071
 1354POPC   GL219370  35.820   1.456   9.083
 1354POPC   C1A19371  35.382   1.148   8.703
 1354POPC   D2A19372  35.169   1.306   8.340
 1354POPC   C3A19373  35.127   1.096   7.951
 1354POPC   C4A19374  35.282   1.257   7.592
 1354POPC   C1B19375  35.738   1.525   8.654
 1354POPC   C2B19376  35.849   1.399   8.255
 1354POPC   C3B19377  35.755   1.352   7.814
 1354POPC   C4B19378  35.730   1.356   7.347
 1355POPC   NC319379  13.558  18.616   9.418
 1355POPC   PO419380  14.040  19.070   9.606
 1355POPC   GL119381  13.893  18.932   9.205
 1355POPC   GL219382  13.532  19.066   9.168
 1355POPC   C1A19383  13.808  18.919   8.780
 1355POPC   D2A19384  13.641  19.007   8.399
 1355POPC   C3A19385  13.774  18.892   8.011
 1355POPC   C4A19386  13.791  19.112   7.652
 1355POPC   C1B19387  13.424  19.300   8.790
 1355POPC   C2B19388  13.287  19.362   8.371
 1355POPC   C3B19389  13.497  19.403   7.990
 1355POPC   C4B19390  13.386  19.378   7.538
 1356POPC   NC319391  34.262  30.606   9.344
 1356POPC   PO419392  34.907  30.817   9.445
 1356POPC   GL119393  34.660  30.850   9.121
 1356POPC   GL219394  34.713  30.489   9.108
 1356POPC   C1A19395  34.454  30.758   8.730
 1356POPC   D2A19396  34.608  30.902   8.361
 1356POPC   C3A19397  34.420  30.991   7.965
 1356POPC   C4A19398  34.571  30.837   7.541
 1356POPC   C1B19399  34.752  30.302   8.734
 1356POPC   C2B19400  34.504  30.374   8.364
 1356POPC   C3B19401  34.613  30.522   7.964
 1356POPC   C4B19402  34.554  30.343   7.568
 1357POPC   NC319403   3.105  40.071   9.540
 1357POPC   PO419404   2.719  39.601   9.411
 1357POPC   GL119405   2.725  39.951   9.125
 1357POPC   GL219406   2.692  40.321   9.152
 1357POPC   C1A19407   2.729  39.948   8.697
 1357POPC   D2A19408   2.962  39.933   8.323
 1357POPC   C3A19409   2.816  39.717   7.971
 1357POPC   C4A19410   2.649  39.833   7.565
 1357POPC   C1B19411   2.435  40.363   8.754
 1357POPC   C2B19412   2.399  40.129   8.335
 1357POPC   C3B19413   2.586  40.202   7.924
 1357POPC   C4B19414   2.512  40.556   7.644
 1358POPC   NC319415  24.293  37.928   9.740
 1358POPC   PO419416  24.433  37.333   9.525
 1358POPC   GL119417  24.626  37.361   9.100
 1358POPC   GL219418  24.387  37.576   8.962
 1358POPC   C1A19419  24.789  37.422   8.682
 1358POPC   D2A19420  24.868  37.734   8.352
 1358POPC   C3A19421  24.685  37.599   7.982
 1358POPC   C4A19422  24.350  37.808   7.758
 1358POPC   C1B19423  24.356  37.636   8.497
 1358POPC   C2B19424  24.052  37.631   8.157
 1358POPC   C3B19425  23.882  37.615   7.725
 1358POPC   C4B19426  24.113  37.597   7.322
 1359POPC   NC319427  37.728  40.536   9.874
 1359POPC   PO419428  37.534  40.991   9.340
 1359POPC   GL119429  37.701  40.810   8.949
 1359POPC   GL219430  37.559  40.457   8.929
 1359POPC   C1A19431  37.782  40.703   8.535
 1359POPC   D2A19432  37.910  40.705   8.139
 1359POPC   C3A19433  37.673  40.970   7.911
 1359POPC   C4A19434  38.017  41.049   7.659
 1359POPC   C1B19435  37.426  40.326   8.563
 1359POPC   C2B19436  37.392  40.585   8.213
 1359POPC   C3B19437  37.518  40.481   7.827
 1359POPC   C4B19438  37.384  40.346   7.421
 1360POPC   NC319439  28.684  28.606   9.713
 1360POPC   PO419440  28.067  28.223   9.536
 1360POPC   GL119441  28.343  28.487   9.325
 1360POPC   GL219442  28.498  28.189   9.214
 1360POPC   C1A19443  28.468  28.641   8.932
 1360POPC   D2A19444  28.385  28.651   8.529
 1360POPC   C3A19445  28.576  28.490   8.172
 1360POPC   C4A19446  28.339  28.499   7.792
 1360POPC   C1B19447  28.336  28.107   8.797
 1360POPC   C2B19448  28.137  28.220   8.405
 1360POPC   C3B19449  28.063  28.101   7.998
 1360POPC   C4B19450  27.766  28.023   7.699
 1361POPC   NC319451  17.135  20.939   9.279
 1361POPC   PO419452  17.194  20.352   9.597
 1361POPC   GL119453  17.471  20.510   9.225
 1361POPC   GL219454  17.643  20.239   9.039
 1361POPC   C1A19455  17.406  20.663   8.774
 1361POPC   D2A19456  17.281  20.897   8.408
 1361POPC   C3A19457  17.478  20.737   8.057
 1361POPC   C4A19458  17.312  20.698   7.667
 1361POPC   C1B19459  17.264  20.174   8.794
 1361POPC   C2B19460  17.217  20.380   8.382
 1361POPC   C3B19461  17.172  20.259   7.966
 1361POPC   C4B19462  17.334  20.181   7.567
 1362POPC   NC319463  22.485   0.317   9.426
 1362POPC   PO419464  23.132   0.644   9.565
 1362POPC   GL119465  22.941   0.609   9.157
 1362POPC   GL219466  22.968   0.255   9.159
 1362POPC   C1A19467  22.759   0.526   8.728
 1362POPC   D2A19468  22.584   0.747   8.337
 1362POPC   C3A19469  22.845   0.635   7.964
 1362POPC   C4A19470  22.732   0.363   7.611
 1362POPC   C1B19471  23.206   0.247   8.754
 1362POPC   C2B19472  23.119   0.420   8.350
 1362POPC   C3B19473  23.075   0.192   7.954
 1362POPC   C4B19474  23.269   0.252   7.577
 1363POPC   NC319475  16.680  12.427   9.472
 1363POPC   PO419476  16.689  11.841   9.578
 1363POPC   GL119477  16.716  11.991   9.158
 1363POPC   GL219478  16.758  11.650   9.103
 1363POPC   C1A19479  16.570  12.002   8.694
 1363POPC   D2A19480  16.341  11.971   8.258
 1363POPC   C3A19481  16.533  12.120   7.831
 1363POPC   C4A19482  16.865  12.041   7.496
 1363POPC   C1B19483  17.023  11.706   8.755
 1363POPC   C2B19484  17.130  11.942   8.392
 1363POPC   C3B19485  17.012  11.910   7.979
 1363POPC   C4B19486  17.001  11.581   7.699
 1364POPC   NC319487  28.532  30.204   9.656
 1364POPC   PO419488  29.147  29.879   9.515
 1364POPC   GL119489  29.095  29.875   9.099
 1364POPC   GL219490  29.233  30.204   9.115
 1364POPC   C1A19491  28.964  29.938   8.659
 1364POPC   D2A19492  28.744  29.698   8.336
 1364POPC   C3A19493  28.808  29.813   7.917
 1364POPC   C4A19494  29.231  29.762   7.796
 1364POPC   C1B19495  29.036  30.461   8.818
 1364POPC   C2B19496  29.143  30.381   8.446
 1364POPC   C3B19497  29.148  30.144   8.122
 1364POPC   C4B19498  29.034  30.248   7.711
 1365POPC   NC319499   7.682  24.172   9.502
 1365POPC   PO419500   7.174  24.596   9.355
 1365POPC   GL119501   7.548  24.515   9.111
 1365POPC   GL219502   7.415  24.174   9.066
 1365POPC   C1A19503   7.602  24.791   8.739
 1365POPC   D2A19504   7.205  24.855   8.505
 1365POPC   C3A19505   7.263  24.771   8.060
 1365POPC   C4A19506   7.707  24.754   7.959
 1365POPC   C1B19507   7.296  24.363   8.676
 1365POPC   C2B19508   7.561  24.444   8.341
 1365POPC   C3B19509   7.571  24.260   7.944
 1365POPC   C4B19510   7.156  24.221   7.833
 1366POPC   NC319511  15.875  22.000   9.686
 1366POPC   PO419512  16.179  22.591   9.531
 1366POPC   GL119513  15.962  22.272   9.238
 1366POPC   GL219514  16.160  21.918   9.221
 1366POPC   C1A19515  15.919  22.087   8.804
 1366POPC   D2A19516  15.771  22.101   8.367
 1366POPC   C3A19517  15.931  22.029   7.944
 1366POPC   C4A19518  16.003  22.401   7.697
 1366POPC   C1B19519  16.368  21.828   8.799
 1366POPC   C2B19520  16.277  21.970   8.367
 1366POPC   C3B19521  16.432  22.043   7.903
 1366POPC   C4B19522  16.234  22.022   7.470
 1367POPC   NC319523  34.897  10.781   9.420
 1367POPC   PO419524  34.439  10.344   9.486
 1367POPC   GL119525  34.645  10.399   9.120
 1367POPC   GL219526  34.600  10.754   9.016
 1367POPC   C1A19527  34.397  10.419   8.704
 1367POPC   D2A19528  34.271  10.578   8.305
 1367POPC   C3A19529  34.401  10.324   7.982
 1367POPC   C4A19530  34.663  10.444   7.690
 1367POPC   C1B19531  34.592  10.888   8.586
 1367POPC   C2B19532  34.791  10.648   8.266
 1367POPC   C3B19533  34.994  10.761   7.872
 1367POPC   C4B19534  34.749  10.943   7.563
 1368POPC   NC319535  37.341  27.176   9.595
 1368POPC   PO419536  36.948  27.719   9.443
 1368POPC   GL119537  37.004  27.594   9.065
 1368POPC   GL219538  36.842  27.375   9.006
 1368POPC   C1A19539  36.983  27.732   8.660
 1368POPC   D2A19540  37.082  28.030   8.376
 1368POPC   C3A19541  37.077  27.791   8.016
 1368POPC   C4A19542  36.772  27.692   7.743
 1368POPC   C1B19543  36.775  27.209   8.682
 1368POPC   C2B19544  36.995  27.281   8.330
 1368POPC   C3B19545  36.810  27.224   7.956
 1368POPC   C4B19546  36.441  27.265   7.733
 1369POPC   NC319547  11.911  42.799   9.310
 1369POPC   PO419548  12.432  42.406   9.436
 1369POPC   GL119549  12.173  42.419   9.067
 1369POPC   GL219550  11.791  42.348   9.091
 1369POPC   C1A19551  12.027  42.575   8.698
 1369POPC   D2A19552  11.943  42.409   8.298
 1369POPC   C3A19553  12.229  42.296   7.961
 1369POPC   C4A19554  12.300  42.612   7.617
 1369POPC   C1B19555  11.605  42.289   8.685
 1369POPC   C2B19556  11.439  42.060   8.363
 1369POPC   C3B19557  11.683  42.082   8.009
 1369POPC   C4B19558  11.792  42.461   7.789
 1370POPC   NC319559  16.284  37.366   9.196
 1370POPC   PO419560  15.825  37.755   9.616
 1370POPC   GL119561  15.936  37.762   9.164
 1370POPC   GL219562  15.781  37.442   9.047
 1370POPC   C1A19563  16.067  37.727   8.700
 1370POPC   D2A19564  16.245  37.996   8.355
 1370POPC   C3A19565  16.038  37.936   7.936
 1370POPC   C4A19566  15.993  37.510   7.768
 1370POPC   C1B19567  15.588  37.422   8.618
 1370POPC   C2B19568  15.657  37.403   8.174
 1370POPC   C3B19569  15.528  37.304   7.756
 1370POPC   C4B19570  15.724  37.468   7.339
 1371POPC   NC319571  42.481   9.512   9.707
 1371POPC   PO419572  42.551  10.059   9.328
 1371POPC   GL119573  42.367   9.775   9.038
 1371POPC   GL219574  42.480   9.429   9.155
 1371POPC   C1A19575  42.520   9.658   8.622
 1371POPC   D2A19576  42.504   9.916   8.267
 1371POPC   C3A19577  42.343   9.953   7.857
 1371POPC   C4A19578  42.598   9.644   7.702
 1371POPC   C1B19579  42.160   9.365   8.810
 1371POPC   C2B19580  42.087   9.468   8.399
 1371POPC   C3B19581  42.261   9.446   8.020
 1371POPC   C4B19582  42.098   9.488   7.596
 1372POPC   NC319583  30.663  22.474   9.348
 1372POPC   PO419584  30.970  21.861   9.363
 1372POPC   GL119585  30.753  22.043   9.077
 1372POPC   GL219586  31.041  22.269   9.044
 1372POPC   C1A19587  30.569  22.231   8.730
 1372POPC   D2A19588  30.691  22.248   8.322
 1372POPC   C3A19589  30.373  22.219   8.044
 1372POPC   C4A19590  30.635  22.224   7.704
 1372POPC   C1B19591  31.061  22.418   8.649
 1372POPC   C2B19592  30.951  22.704   8.343
 1372POPC   C3B19593  30.944  22.563   7.937
 1372POPC   C4B19594  31.027  22.713   7.541
 1373POPC   NC319595   0.782  16.310   9.571
 1373POPC   PO419596   0.438  15.660   9.498
 1373POPC   GL119597   0.651  15.894   9.192
 1373POPC   GL219598   0.467  16.194   9.143
 1373POPC   C1A19599   0.608  15.906   8.742
 1373POPC   D2A19600   0.201  15.940   8.523
 1373POPC   C3A19601   0.263  15.837   8.114
 1373POPC   C4A19602   0.074  15.716   7.754
 1373POPC   C1B19603   0.464  16.399   8.725
 1373POPC   C2B19604   0.582  16.229   8.305
 1373POPC   C3B19605   0.501  16.222   7.851
 1373POPC   C4B19606   0.720  16.080   7.472
 1374POPC   NC319607  31.753  12.295   9.458
 1374POPC   PO419608  31.111  12.237   9.403
 1374POPC   GL119609  31.414  12.158   9.095
 1374POPC   GL219610  31.664  11.850   9.195
 1374POPC   C1A19611  31.414  12.350   8.683
 1374POPC   D2A19612  31.202  12.164   8.342
 1374POPC   C3A19613  31.387  12.033   7.973
 1374POPC   C4A19614  31.130  12.157   7.666
 1374POPC   C1B19615  31.538  11.801   8.757
 1374POPC   C2B19616  31.683  12.011   8.409
 1374POPC   C3B19617  31.891  11.987   8.050
 1374POPC   C4B19618  31.744  11.670   7.833
 1375POPC   NC319619  16.997  29.917   9.589
 1375POPC   PO419620  16.311  29.765   9.530
 1375POPC   GL119621  16.617  29.925   9.197
 1375POPC   GL219622  16.935  29.779   9.115
 1375POPC   C1A19623  16.630  29.912   8.740
 1375POPC   D2A19624  16.683  30.146   8.378
 1375POPC   C3A19625  16.670  29.909   8.015
 1375POPC   C4A19626  16.637  30.035   7.569
 1375POPC   C1B19627  16.945  29.494   8.786
 1375POPC   C2B19628  16.751  29.518   8.388
 1375POPC   C3B19629  16.970  29.469   7.999
 1375POPC   C4B19630  17.075  29.806   7.699
 1376POPC   NC319631  25.058  35.629   9.539
 1376POPC   PO419632  25.504  36.077   9.477
 1376POPC   GL119633  25.264  36.031   9.083
 1376POPC   GL219634  25.023  35.781   9.026
 1376POPC   C1A19635  25.158  36.198   8.684
 1376POPC   D2A19636  25.424  36.339   8.344
 1376POPC   C3A19637  25.181  36.261   8.087
 1376POPC   C4A19638  25.088  36.315   7.698
 1376POPC   C1B19639  25.120  35.692   8.620
 1376POPC   C2B19640  25.174  35.750   8.218
 1376POPC   C3B19641  25.172  35.802   7.807
 1376POPC   C4B19642  24.850  35.848   7.531
 1377POPC   NC319643   6.304  22.039   9.572
 1377POPC   PO419644   6.638  22.675   9.442
 1377POPC   GL119645   6.591  22.431   9.099
 1377POPC   GL219646   6.530  22.087   9.126
 1377POPC   C1A19647   6.755  22.343   8.715
 1377POPC   D2A19648   6.957  22.214   8.344
 1377POPC   C3A19649   6.668  22.148   8.071
 1377POPC   C4A19650   6.629  22.210   7.680
 1377POPC   C1B19651   6.315  21.802   8.851
 1377POPC   C2B19652   6.370  21.920   8.436
 1377POPC   C3B19653   6.353  21.708   8.075
 1377POPC   C4B19654   6.323  21.823   7.625
 1378POPC   NC319655  37.277  31.268   9.526
 1378POPC   PO419656  37.893  31.546   9.476
 1378POPC   GL119657  37.853  31.238   9.133
 1378POPC   GL219658  37.507  31.185   9.096
 1378POPC   C1A19659  37.786  31.227   8.682
 1378POPC   D2A19660  37.968  31.513   8.428
 1378POPC   C3A19661  37.939  31.619   8.037
 1378POPC   C4A19662  37.901  31.288   7.712
 1378POPC   C1B19663  37.464  31.583   8.892
 1378POPC   C2B19664  37.460  31.592   8.450
 1378POPC   C3B19665  37.540  31.325   8.108
 1378POPC   C4B19666  37.498  31.623   7.768
 1379POPC   NC319667   8.128  19.414   9.952
 1379POPC   PO419668   8.660  19.295   9.534
 1379POPC   GL119669   8.482  19.206   9.114
 1379POPC   GL219670   8.410  18.842   9.107
 1379POPC   C1A19671   8.170  19.313   8.772
 1379POPC   D2A19672   8.041  19.476   8.363
 1379POPC   C3A19673   8.328  19.474   8.017
 1379POPC   C4A19674   8.302  19.337   7.596
 1379POPC   C1B19675   8.185  18.793   8.716
 1379POPC   C2B19676   8.018  18.947   8.297
 1379POPC   C3B19677   7.971  19.004   7.812
 1379POPC   C4B19678   7.889  18.843   7.358
 1380POPC   NC319679  24.708  14.926   9.418
 1380POPC   PO419680  24.536  15.649   9.330
 1380POPC   GL119681  24.554  15.314   9.155
 1380POPC   GL219682  24.847  15.331   9.021
 1380POPC   C1A19683  24.411  15.113   8.800
 1380POPC   D2A19684  24.389  15.311   8.423
 1380POPC   C3A19685  24.230  15.027   8.122
 1380POPC   C4A19686  24.310  15.094   7.697
 1380POPC   C1B19687  24.898  14.978   8.725
 1380POPC   C2B19688  24.708  14.893   8.342
 1380POPC   C3B19689  24.702  15.211   8.027
 1380POPC   C4B19690  24.693  15.427   7.637
 1381POPC   NC319691   6.479  12.691   9.590
 1381POPC   PO419692   6.909  13.141   9.498
 1381POPC   GL119693   6.631  12.994   9.177
 1381POPC   GL219694   6.757  12.671   9.129
 1381POPC   C1A19695   6.541  12.966   8.723
 1381POPC   D2A19696   6.761  12.835   8.313
 1381POPC   C3A19697   6.676  12.971   7.879
 1381POPC   C4A19698   6.423  13.146   7.524
 1381POPC   C1B19699   6.761  12.493   8.715
 1381POPC   C2B19700   6.509  12.372   8.352
 1381POPC   C3B19701   6.519  12.487   7.909
 1381POPC   C4B19702   6.906  12.525   7.666
 1382POPC   NC319703  44.792  39.834   9.620
 1382POPC   PO419704  44.267  39.962   9.490
 1382POPC   GL119705  44.621  39.937   9.144
 1382POPC   GL219706  44.902  39.670   9.150
 1382POPC   C1A19707  44.622  40.181   8.749
 1382POPC   D2A19708  44.605  40.326   8.314
 1382POPC   C3A19709  44.608  40.045   7.947
 1382POPC   C4A19710  44.332  39.794   7.645
 1382POPC   C1B19711  44.976  39.825   8.738
 1382POPC   C2B19712  44.689  39.787   8.402
 1382POPC   C3B19713  44.697  39.562   8.019
 1382POPC   C4B19714  44.904  39.755   7.647
 1383POPC   NC319715  22.159   6.381   9.512
 1383POPC   PO419716  21.965   5.741   9.514
 1383POPC   GL119717  22.173   5.906   9.199
 1383POPC   GL219718  21.878   6.072   9.115
 1383POPC   C1A19719  22.131   5.764   8.763
 1383POPC   D2A19720  21.921   5.685   8.365
 1383POPC   C3A19721  22.160   5.683   7.964
 1383POPC   C4A19722  22.547   5.715   7.699
 1383POPC   C1B19723  22.259   6.241   8.846
 1383POPC   C2B19724  22.212   6.151   8.436
 1383POPC   C3B19725  22.140   6.193   8.022
 1383POPC   C4B19726  22.211   6.083   7.600
 1384POPC   NC319727  35.031  25.805   9.399
 1384POPC   PO419728  35.396  26.382   9.538
 1384POPC   GL119729  35.390  26.169   9.102
 1384POPC   GL219730  35.045  26.143   9.009
 1384POPC   C1A19731  35.394  26.103   8.602
 1384POPC   D2A19732  35.654  25.834   8.307
 1384POPC   C3A19733  35.642  25.882   7.847
 1384POPC   C4A19734  35.774  26.125   7.500
 1384POPC   C1B19735  35.002  25.795   8.714
 1384POPC   C2B19736  35.118  25.783   8.271
 1384POPC   C3B19737  35.188  26.101   7.938
 1384POPC   C4B19738  35.265  26.230   7.485
 1385POPC   NC319739  34.451  21.385   9.438
 1385POPC   PO419740  34.909  21.770   9.592
 1385POPC   GL119741  34.702  21.730   9.158
 1385POPC   GL219742  34.802  21.364   9.090
 1385POPC   C1A19743  34.455  21.546   8.767
 1385POPC   D2A19744  34.409  21.268   8.389
 1385POPC   C3A19745  34.364  21.450   7.981
 1385POPC   C4A19746  34.362  21.650   7.611
 1385POPC   C1B19747  35.058  21.294   8.777
 1385POPC   C2B19748  34.927  21.340   8.398
 1385POPC   C3B19749  34.868  21.466   8.004
 1385POPC   C4B19750  35.090  21.215   7.759
 1386POPC   NC319751  34.542  27.537   9.447
 1386POPC   PO419752  33.991  27.656   9.780
 1386POPC   GL119753  34.179  27.797   9.246
 1386POPC   GL219754  34.591  27.813   9.029
 1386POPC   C1A19755  34.262  27.528   8.815
 1386POPC   D2A19756  34.564  27.292   8.567
 1386POPC   C3A19757  34.528  27.421   8.133
 1386POPC   C4A19758  34.422  27.175   7.758
 1386POPC   C1B19759  34.652  27.819   8.595
 1386POPC   C2B19760  34.307  27.839   8.368
 1386POPC   C3B19761  34.168  27.868   7.956
 1386POPC   C4B19762  34.467  27.677   7.706
 1387POPC   NC319763  15.739  32.180   9.630
 1387POPC   PO419764  15.102  32.196   9.487
 1387POPC   GL119765  15.071  32.413   9.120
 1387POPC   GL219766  15.381  32.359   9.000
 1387POPC   C1A19767  14.903  32.531   8.759
 1387POPC   D2A19768  15.126  32.366   8.451
 1387POPC   C3A19769  15.034  32.464   8.045
 1387POPC   C4A19770  15.393  32.503   7.816
 1387POPC   C1B19771  15.213  31.985   8.803
 1387POPC   C2B19772  15.134  31.860   8.372
 1387POPC   C3B19773  15.262  31.990   7.951
 1387POPC   C4B19774  15.165  31.910   7.506
 1388POPC   NC319775  32.773   6.265   9.478
 1388POPC   PO419776  33.331   6.684   9.538
 1388POPC   GL119777  33.189   6.431   9.199
 1388POPC   GL219778  32.882   6.633   9.141
 1388POPC   C1A19779  33.288   6.472   8.756
 1388POPC   D2A19780  33.432   6.820   8.472
 1388POPC   C3A19781  33.374   6.685   8.036
 1388POPC   C4A19782  33.133   6.917   7.725
 1388POPC   C1B19783  32.785   6.496   8.731
 1388POPC   C2B19784  32.924   6.698   8.357
 1388POPC   C3B19785  32.721   6.722   7.962
 1388POPC   C4B19786  32.490   6.450   7.746
 1389POPC   NC319787   2.413  43.566   9.887
 1389POPC   PO419788   1.950  43.923   9.495
 1389POPC   GL119789   1.938  44.062   9.086
 1389POPC   GL219790   1.613  43.951   9.070
 1389POPC   C1A19791   1.722  44.202   8.667
 1389POPC   D2A19792   1.869  44.405   8.333
 1389POPC   C3A19793   1.753  44.185   7.968
 1389POPC   C4A19794   1.851  44.100   7.531
 1389POPC   C1B19795   1.869  43.695   8.749
 1389POPC   C2B19796   2.025  43.512   8.348
 1389POPC   C3B19797   1.916  43.690   7.942
 1389POPC   C4B19798   1.637  43.653   7.582
 1390POPC   NC319799  36.096  41.127   9.462
 1390POPC   PO419800  35.811  41.754   9.379
 1390POPC   GL119801  36.093  41.667   9.102
 1390POPC   GL219802  36.425  41.649   9.255
 1390POPC   C1A19803  36.063  41.794   8.692
 1390POPC   D2A19804  36.051  41.462   8.422
 1390POPC   C3A19805  35.940  41.662   8.100
 1390POPC   C4A19806  36.047  41.600   7.670
 1390POPC   C1B19807  36.511  41.576   8.810
 1390POPC   C2B19808  36.501  41.737   8.394
 1390POPC   C3B19809  36.432  41.525   8.020
 1390POPC   C4B19810  36.442  41.281   7.637
 1391POPC   NC319811  11.081  34.811   9.676
 1391POPC   PO419812  11.563  34.342   9.540
 1391POPC   GL119813  11.461  34.423   9.107
 1391POPC   GL219814  11.218  34.687   9.088
 1391POPC   C1A19815  11.288  34.429   8.658
 1391POPC   D2A19816  11.222  34.716   8.332
 1391POPC   C3A19817  11.254  34.536   7.976
 1391POPC   C4A19818  11.611  34.500   7.841
 1391POPC   C1B19819  10.982  34.918   8.719
 1391POPC   C2B19820  10.902  35.104   8.333
 1391POPC   C3B19821  10.949  34.946   7.926
 1391POPC   C4B19822  10.922  34.618   7.605
 1392POPC   NC319823  27.546  11.797   9.791
 1392POPC   PO419824  27.559  12.463   9.710
 1392POPC   GL119825  27.616  12.188   9.291
 1392POPC   GL219826  27.655  11.796   9.285
 1392POPC   C1A19827  27.466  12.198   8.807
 1392POPC   D2A19828  27.230  12.127   8.380
 1392POPC   C3A19829  27.388  12.326   7.972
 1392POPC   C4A19830  27.585  12.236   7.558
 1392POPC   C1B19831  27.564  11.696   8.848
 1392POPC   C2B19832  27.657  11.794   8.428
 1392POPC   C3B19833  27.869  11.696   8.077
 1392POPC   C4B19834  27.936  11.927   7.746
 1393POPC   NC319835  40.324  28.821   9.446
 1393POPC   PO419836  40.984  29.014   9.429
 1393POPC   GL119837  40.697  28.990   9.111
 1393POPC   GL219838  40.656  28.649   9.066
 1393POPC   C1A19839  40.774  28.978   8.670
 1393POPC   D2A19840  40.998  29.235   8.382
 1393POPC   C3A19841  40.750  29.417   8.092
 1393POPC   C4A19842  40.892  29.060   7.891
 1393POPC   C1B19843  40.308  28.754   8.776
 1393POPC   C2B19844  40.346  28.883   8.337
 1393POPC   C3B19845  40.548  28.710   7.956
 1393POPC   C4B19846  40.380  28.581   7.577
 1394POPC   NC319847   5.970  15.310   9.507
 1394POPC   PO419848   5.496  15.768   9.454
 1394POPC   GL119849   5.688  15.452   9.120
 1394POPC   GL219850   6.079  15.453   9.033
 1394POPC   C1A19851   5.732  15.162   8.788
 1394POPC   D2A19852   5.918  15.162   8.393
 1394POPC   C3A19853   5.624  15.069   8.081
 1394POPC   C4A19854   5.721  15.000   7.659
 1394POPC   C1B19855   6.197  15.017   8.824
 1394POPC   C2B19856   6.342  14.889   8.477
 1394POPC   C3B19857   6.278  14.669   8.134
 1394POPC   C4B19858   6.195  14.918   7.799
 1395POPC   NC319859  35.647  40.576   9.577
 1395POPC   PO419860  36.270  40.701   9.544
 1395POPC   GL119861  36.169  40.755   9.131
 1395POPC   GL219862  35.820  40.820   9.121
 1395POPC   C1A19863  36.214  40.622   8.728
 1395POPC   D2A19864  36.534  40.649   8.443
 1395POPC   C3A19865  36.436  40.519   8.054
 1395POPC   C4A19866  36.136  40.730   7.813
 1395POPC   C1B19867  35.942  41.057   8.754
 1395POPC   C2B19868  36.088  40.933   8.329
 1395POPC   C3B19869  36.040  41.191   7.966
 1395POPC   C4B19870  35.975  41.118   7.507
 1396POPC   NC319871  11.424   5.432   9.807
 1396POPC   PO419872  11.370   6.061   9.464
 1396POPC   GL119873  11.073   6.008   9.135
 1396POPC   GL219874  11.047   5.680   9.185
 1396POPC   C1A19875  11.108   6.092   8.683
 1396POPC   D2A19876  11.219   6.345   8.316
 1396POPC   C3A19877  11.530   6.124   8.102
 1396POPC   C4A19878  11.531   5.807   7.807
 1396POPC   C1B19879  11.169   5.543   8.786
 1396POPC   C2B19880  11.354   5.729   8.423
 1396POPC   C3B19881  11.075   5.866   8.106
 1396POPC   C4B19882  11.042   5.676   7.700
 1397POPC   NC319883  42.584  44.551   9.561
 1397POPC   PO419884  41.961  44.415   9.521
 1397POPC   GL119885  42.172  44.557   9.152
 1397POPC   GL219886  42.515  44.674   9.064
 1397POPC   C1A19887  42.107  44.577   8.729
 1397POPC   D2A19888  42.279  44.348   8.383
 1397POPC   C3A19889  42.129  44.443   7.979
 1397POPC   C4A19890  42.238  44.502   7.555
 1397POPC   C1B19891  42.533  44.844   8.642
 1397POPC   C2B19892  42.247  44.857   8.268
 1397POPC   C3B19893  42.470  44.841   7.866
 1397POPC   C4B19894  42.785   0.097   7.692
 1398POPC   NC319895  35.848   4.496   9.371
 1398POPC   PO419896  35.431   4.260   9.863
 1398POPC   GL119897  35.347   4.386   9.349
 1398POPC   GL219898  35.487   4.612   9.047
 1398POPC   C1A19899  35.111   4.301   8.911
 1398POPC   D2A19900  35.177   4.185   8.462
 1398POPC   C3A19901  34.992   4.343   8.058
 1398POPC   C4A19902  35.158   4.180   7.658
 1398POPC   C1B19903  35.634   4.221   8.818
 1398POPC   C2B19904  35.741   4.267   8.404
 1398POPC   C3B19905  35.503   4.248   8.052
 1398POPC   C4B19906  35.678   4.178   7.668
 1399POPC   NC319907   4.937  41.056   9.491
 1399POPC   PO419908   5.239  40.453   9.502
 1399POPC   GL119909   5.091  40.658   9.156
 1399POPC   GL219910   5.281  40.945   9.101
 1399POPC   C1A19911   4.899  40.781   8.780
 1399POPC   D2A19912   5.042  40.932   8.392
 1399POPC   C3A19913   5.116  40.616   8.070
 1399POPC   C4A19914   4.965  40.624   7.661
 1399POPC   C1B19915   5.423  40.751   8.712
 1399POPC   C2B19916   5.538  40.874   8.269
 1399POPC   C3B19917   5.561  40.775   7.823
 1399POPC   C4B19918   5.375  40.734   7.386
 1400POPC   NC319919  23.493  43.638   9.446
 1400POPC   PO419920  23.916  44.137   9.697
 1400POPC   GL119921  23.904  43.959   9.280
 1400POPC   GL219922  24.163  44.136   9.113
 1400POPC   C1A19923  23.803  43.880   8.832
 1400POPC   D2A19924  23.460  43.831   8.540
 1400POPC   C3A19925  23.565  43.905   8.128
 1400POPC   C4A19926  23.446  43.839   7.718
 1400POPC   C1B19927  24.109  44.294   8.685
 1400POPC   C2B19928  23.954  44.261   8.268
 1400POPC   C3B19929  24.104  44.190   7.872
 1400POPC   C4B19930  23.876  44.076   7.513
 1401POPC   NC319931   5.000  17.624   9.590
 1401POPC   PO419932   5.551  17.211   9.494
 1401POPC   GL119933   5.201  17.320   9.244
 1401POPC   GL219934   5.328  17.627   9.157
 1401POPC   C1A19935   4.992  17.372   8.858
 1401POPC   D2A19936   5.113  17.433   8.451
 1401POPC   C3A19937   4.845  17.481   8.116
 1401POPC   C4A19938   5.035  17.227   7.801
 1401POPC   C1B19939   5.276  17.821   8.778
 1401POPC   C2B19940   5.243  18.006   8.358
 1401POPC   C3B19941   5.156  17.896   7.943
 1401POPC   C4B19942   5.448  17.930   7.542
 1402POPC   NC319943  40.815  13.593   9.666
 1402POPC   PO419944  40.313  14.041   9.780
 1402POPC   GL119945  40.582  13.892   9.313
 1402POPC   GL219946  40.727  13.531   9.183
 1402POPC   C1A19947  40.680  13.882   8.831
 1402POPC   D2A19948  40.871  14.185   8.516
 1402POPC   C3A19949  40.800  14.099   8.060
 1402POPC   C4A19950  41.049  13.857   7.752
 1402POPC   C1B19951  40.586  13.343   8.782
 1402POPC   C2B19952  40.535  13.532   8.369
 1402POPC   C3B19953  40.573  13.665   7.923
 1402POPC   C4B19954  40.733  13.569   7.454
 1403POPC   NC319955  15.407  17.371   9.434
 1403POPC   PO419956  14.806  17.747   9.450
 1403POPC   GL119957  15.067  17.625   9.133
 1403POPC   GL219958  15.328  17.892   9.061
 1403POPC   C1A19959  15.131  17.270   8.825
 1403POPC   D2A19960  15.466  17.301   8.519
 1403POPC   C3A19961  15.322  17.332   8.082
 1403POPC   C4A19962  14.864  17.235   8.012
 1403POPC   C1B19963  15.294  17.733   8.699
 1403POPC   C2B19964  15.020  17.587   8.390
 1403POPC   C3B19965  14.981  17.737   7.958
 1403POPC   C4B19966  15.175  17.807   7.549
 1404POPC   NC319967  33.226  38.816   9.543
 1404POPC   PO419968  32.954  38.234   9.362
 1404POPC   GL119969  32.706  38.367   9.037
 1404POPC   GL219970  32.891  38.669   9.032
 1404POPC   C1A19971  32.603  38.289   8.634
 1404POPC   D2A19972  32.917  38.143   8.315
 1404POPC   C3A19973  32.838  38.221   7.879
 1404POPC   C4A19974  32.993  38.410   7.493
 1404POPC   C1B19975  32.856  38.746   8.563
 1404POPC   C2B19976  32.994  38.950   8.169
 1404POPC   C3B19977  32.981  38.894   7.686
 1404POPC   C4B19978  33.173  38.796   7.224
 1405POPC   NC319979  17.696   2.967   9.418
 1405POPC   PO419980  17.107   2.578   9.550
 1405POPC   GL119981  17.418   2.571   9.179
 1405POPC   GL219982  17.413   2.928   9.015
 1405POPC   C1A19983  17.484   2.525   8.715
 1405POPC   D2A19984  17.417   2.773   8.335
 1405POPC   C3A19985  17.530   2.627   7.915
 1405POPC   C4A19986  17.484   2.857   7.484
 1405POPC   C1B19987  17.756   2.968   8.693
 1405POPC   C2B19988  17.786   3.151   8.261
 1405POPC   C3B19989  17.927   2.987   7.844
 1405POPC   C4B19990  17.974   3.025   7.376
 1406POPC   NC319991  31.186  24.924   9.621
 1406POPC   PO419992  31.869  24.964   9.713
 1406POPC   GL119993  31.588  25.139   9.352
 1406POPC   GL219994  31.404  25.462   9.282
 1406POPC   C1A19995  31.634  25.251   8.858
 1406POPC   D2A19996  31.586  25.047   8.432
 1406POPC   C3A19997  31.688  25.246   8.012
 1406POPC   C4A19998  31.589  25.163   7.552
 1406POPC   C1B19999  31.129  25.352   8.904
 1406POPC   C2B20000  31.063  25.137   8.513
 1406POPC   C3B20001  31.198  25.075   8.078
 1406POPC   C4B20002  31.117  25.233   7.696
 1407POPC   NC320003  38.184  32.587   9.914
 1407POPC   PO420004  37.912  33.093   9.498
 1407POPC   GL120005  37.735  33.112   9.128
 1407POPC   GL220006  37.395  33.251   9.146
 1407POPC   C1A20007  37.962  33.071   8.779
 1407POPC   D2A20008  37.842  32.877   8.436
 1407POPC   C3A20009  37.944  33.093   8.090
 1407POPC   C4A20010  37.878  32.815   7.778
 1407POPC   C1B20011  37.436  33.106   8.702
 1407POPC   C2B20012  37.415  33.122   8.242
 1407POPC   C3B20013  37.382  32.905   7.875
 1407POPC   C4B20014  37.226  33.105   7.520
 1408POPC   NC320015  41.710  25.107   9.284
 1408POPC   PO420016  41.232  25.512   9.401
 1408POPC   GL120017  41.295  25.319   9.022
 1408POPC   GL220018  41.311  24.944   9.023
 1408POPC   C1A20019  41.570  25.536   8.721
 1408POPC   D2A20020  41.601  25.544   8.276
 1408POPC   C3A20021  41.733  25.262   7.933
 1408POPC   C4A20022  41.690  25.323   7.484
 1408POPC   C1B20023  41.475  25.046   8.611
 1408POPC   C2B20024  41.281  25.026   8.209
 1408POPC   C3B20025  41.238  25.128   7.790
 1408POPC   C4B20026  40.956  25.015   7.480
 1409POPC   NC320027  42.217  28.849   9.439
 1409POPC   PO420028  42.274  28.235   9.648
 1409POPC   GL120029  42.331  28.344   9.213
 1409POPC   GL220030  42.028  28.433   9.096
 1409POPC   C1A20031  42.322  28.099   8.803
 1409POPC   D2A20032  42.545  28.085   8.405
 1409POPC   C3A20033  42.403  28.216   7.988
 1409POPC   C4A20034  42.563  28.374   7.594
 1409POPC   C1B20035  42.262  28.592   8.746
 1409POPC   C2B20036  42.108  28.784   8.386
 1409POPC   C3B20037  42.071  28.603   8.028
 1409POPC   C4B20038  42.082  28.546   7.646
 1410POPC   NC320039  14.625  44.896   9.565
 1410POPC   PO420040  14.091  44.528   9.392
 1410POPC   GL120041  14.412  44.596   9.126
 1410POPC   GL220042  14.369  44.928   9.120
 1410POPC   C1A20043  14.316  44.650   8.698
 1410POPC   D2A20044  14.211  44.497   8.315
 1410POPC   C3A20045  14.548  44.264   8.145
 1410POPC   C4A20046  14.508  44.597   7.865
 1410POPC   C1B20047  14.094   0.094   8.806
 1410POPC   C2B20048  14.311   0.083   8.401
 1410POPC   C3B20049  14.212   0.018   7.979
 1410POPC   C4B20050  14.451   0.182   7.640
 1411POPC   NC320051   4.483  26.519   9.471
 1411POPC   PO420052   4.532  25.765   9.506
 1411POPC   GL120053   4.406  25.964   9.145
 1411POPC   GL220054   4.179  26.206   9.222
 1411POPC   C1A20055   4.534  26.159   8.774
 1411POPC   D2A20056   4.369  26.236   8.362
 1411POPC   C3A20057   4.599  26.093   8.010
 1411POPC   C4A20058   4.545  25.860   7.628
 1411POPC   C1B20059   4.034  26.255   8.826
 1411POPC   C2B20060   3.839  26.299   8.448
 1411POPC   C3B20061   3.944  26.123   8.072
 1411POPC   C4B20062   4.174  26.193   7.719
 1412POPC   NC320063  20.755  44.391   9.456
 1412POPC   PO420064  20.816  43.768   9.629
 1412POPC   GL120065  20.635  43.823   9.191
 1412POPC   GL220066  20.583  44.149   9.041
 1412POPC   C1A20067  20.542  43.708   8.766
 1412POPC   D2A20068  20.558  43.975   8.413
 1412POPC   C3A20069  20.714  43.819   8.072
 1412POPC   C4A20070  20.568  43.809   7.699
 1412POPC   C1B20071  20.912  44.111   8.728
 1412POPC   C2B20072  21.103  44.070   8.265
 1412POPC   C3B20073  20.987  44.147   7.793
 1412POPC   C4B20074  20.782  44.108   7.356
 1413POPC   NC320075  15.703  19.738   9.521
 1413POPC   PO420076  16.285  20.009   9.411
 1413POPC   GL120077  15.946  20.055   9.152
 1413POPC   GL220078  15.938  19.732   9.053
 1413POPC   C1A20079  15.779  20.098   8.765
 1413POPC   D2A20080  15.805  19.795   8.476
 1413POPC   C3A20081  15.764  19.985   8.117
 1413POPC   C4A20082  15.978  19.909   7.745
 1413POPC   C1B20083  16.140  19.470   8.735
 1413POPC   C2B20084  15.951  19.286   8.404
 1413POPC   C3B20085  16.107  19.523   8.099
 1413POPC   C4B20086  16.180  19.441   7.707
 1414POPC   NC320087  21.485  15.179   9.528
 1414POPC   PO420088  20.838  15.121   9.425
 1414POPC   GL120089  21.058  15.370   9.110
 1414POPC   GL220090  21.414  15.286   9.051
 1414POPC   C1A20091  21.124  15.408   8.665
 1414POPC   D2A20092  21.136  15.112   8.337
 1414POPC   C3A20093  21.143  15.284   7.923
 1414POPC   C4A20094  21.327  15.016   7.564
 1414POPC   C1B20095  21.586  15.126   8.669
 1414POPC   C2B20096  21.607  15.306   8.245
 1414POPC   C3B20097  21.629  15.347   7.796
 1414POPC   C4B20098  21.749  15.532   7.388
 1415POPC   NC320099  33.587  34.911   9.320
 1415POPC   PO420100  33.823  34.315   9.584
 1415POPC   GL120101  33.779  34.456   9.188
 1415POPC   GL220102  34.094  34.500   9.045
 1415POPC   C1A20103  33.684  34.405   8.760
 1415POPC   D2A20104  33.800  34.328   8.338
 1415POPC   C3A20105  33.853  34.742   8.138
 1415POPC   C4A20106  33.896  35.009   7.775
 1415POPC   C1B20107  34.080  34.770   8.651
 1415POPC   C2B20108  34.380  34.744   8.282
 1415POPC   C3B20109  34.322  34.711   7.868
 1415POPC   C4B20110  34.231  34.627   7.444
 1416POPC   NC320111  10.361  42.754   9.313
 1416POPC   PO420112  10.756  43.346   9.530
 1416POPC   GL120113  10.707  43.128   9.136
 1416POPC   GL220114  10.392  43.220   9.102
 1416POPC   C1A20115  10.656  43.130   8.665
 1416POPC   D2A20116  10.766  43.417   8.315
 1416POPC   C3A20117  10.651  43.237   7.904
 1416POPC   C4A20118  10.858  42.850   7.784
 1416POPC   C1B20119  10.140  43.083   8.757
 1416POPC   C2B20120  10.100  42.942   8.355
 1416POPC   C3B20121  10.157  43.071   7.951
 1416POPC   C4B20122  10.365  42.830   7.706
 1417POPC   NC320123  14.641  36.935   9.522
 1417POPC   PO420124  14.274  36.477   9.611
 1417POPC   GL120125  14.273  36.757   9.174
 1417POPC   GL220126  14.582  36.929   9.026
 1417POPC   C1A20127  14.156  36.986   8.748
 1417POPC   D2A20128  14.191  36.817   8.313
 1417POPC   C3A20129  14.278  37.081   7.964
 1417POPC   C4A20130  14.411  37.041   7.506
 1417POPC   C1B20131  14.563  36.684   8.676
 1417POPC   C2B20132  14.686  36.694   8.268
 1417POPC   C3B20133  14.499  36.616   7.881
 1417POPC   C4B20134  14.664  36.579   7.491
 1418POPC   NC320135  40.700   1.551   9.461
 1418POPC   PO420136  40.737   2.189   9.439
 1418POPC   GL120137  40.693   2.048   9.038
 1418POPC   GL220138  40.477   1.813   9.048
 1418POPC   C1A20139  40.859   2.027   8.627
 1418POPC   D2A20140  40.714   1.894   8.249
 1418POPC   C3A20141  40.676   2.207   7.967
 1418POPC   C4A20142  40.867   2.117   7.627
 1418POPC   C1B20143  40.476   1.665   8.667
 1418POPC   C2B20144  40.305   1.507   8.322
 1418POPC   C3B20145  40.639   1.423   8.071
 1418POPC   C4B20146  40.650   1.695   7.759
 1419POPC   NC320147   8.774  36.277   9.294
 1419POPC   PO420148   9.357  35.965   9.390
 1419POPC   GL120149   9.085  35.942   9.020
 1419POPC   GL220150   8.734  35.847   9.032
 1419POPC   C1A20151   9.051  36.257   8.686
 1419POPC   D2A20152   9.261  36.195   8.304
 1419POPC   C3A20153   9.063  36.025   7.944
 1419POPC   C4A20154   9.129  35.979   7.472
 1419POPC   C1B20155   8.481  35.942   8.719
 1419POPC   C2B20156   8.683  36.090   8.372
 1419POPC   C3B20157   8.565  36.150   7.993
 1419POPC   C4B20158   8.648  36.006   7.638
 1420POPC   NC320159  10.874  33.833   9.637
 1420POPC   PO420160  11.532  33.623   9.596
 1420POPC   GL120161  11.371  33.805   9.212
 1420POPC   GL220162  11.385  33.521   8.984
 1420POPC   C1A20163  11.508  33.981   8.802
 1420POPC   D2A20164  11.518  33.771   8.419
 1420POPC   C3A20165  11.454  34.077   8.114
 1420POPC   C4A20166  11.566  33.987   7.708
 1420POPC   C1B20167  11.047  33.750   8.714
 1420POPC   C2B20168  11.013  33.809   8.255
 1420POPC   C3B20169  11.215  33.666   7.887
 1420POPC   C4B20170  11.060  33.745   7.476
 1421POPC   NC320171   4.856  22.557   9.472
 1421POPC   PO420172   4.392  22.053   9.530
 1421POPC   GL120173   4.268  22.149   9.139
 1421POPC   GL220174   4.336  22.496   9.180
 1421POPC   C1A20175   4.388  22.111   8.725
 1421POPC   D2A20176   4.549  22.014   8.326
 1421POPC   C3A20177   4.454  22.253   7.969
 1421POPC   C4A20178   4.241  22.021   7.617
 1421POPC   C1B20179   4.046  22.497   8.820
 1421POPC   C2B20180   4.026  22.459   8.358
 1421POPC   C3B20181   3.962  22.395   7.895
 1421POPC   C4B20182   4.267  22.526   7.554
 1422POPC   NC320183  13.399  12.637   9.574
 1422POPC   PO420184  13.997  12.982   9.372
 1422POPC   GL120185  13.700  12.964   9.101
 1422POPC   GL220186  13.656  12.654   9.121
 1422POPC   C1A20187  13.646  13.056   8.671
 1422POPC   D2A20188  13.385  13.064   8.310
 1422POPC   C3A20189  13.408  12.894   7.932
 1422POPC   C4A20190  13.705  13.068   7.658
 1422POPC   C1B20191  13.915  12.621   8.757
 1422POPC   C2B20192  13.707  12.637   8.360
 1422POPC   C3B20193  13.874  12.702   7.982
 1422POPC   C4B20194  13.861  12.595   7.547
 1423POPC   NC320195  26.098  20.247   9.762
 1423POPC   PO420196  26.383  20.841   9.594
 1423POPC   GL120197  26.141  20.843   9.112
 1423POPC   GL220198  25.809  20.687   9.009
 1423POPC   C1A20199  26.232  20.721   8.679
 1423POPC   D2A20200  26.072  20.734   8.262
 1423POPC   C3A20201  26.239  20.810   7.861
 1423POPC   C4A20202  25.856  20.875   7.599
 1423POPC   C1B20203  25.898  20.352   8.669
 1423POPC   C2B20204  25.830  20.278   8.243
 1423POPC   C3B20205  25.954  20.393   7.844
 1423POPC   C4B20206  26.335  20.359   7.607
 1424POPC   NC320207   7.226  23.318   9.374
 1424POPC   PO420208   7.550  22.693   9.441
 1424POPC   GL120209   7.330  22.864   9.086
 1424POPC   GL220210   7.055  22.649   8.988
 1424POPC   C1A20211   7.446  22.988   8.660
 1424POPC   D2A20212   7.754  23.073   8.316
 1424POPC   C3A20213   7.707  22.851   7.937
 1424POPC   C4A20214   7.458  22.720   7.597
 1424POPC   C1B20215   7.232  22.531   8.623
 1424POPC   C2B20216   7.302  22.706   8.230
 1424POPC   C3B20217   7.194  22.999   7.916
 1424POPC   C4B20218   6.964  22.900   7.517
 1425POPC   NC320219  25.554  29.663   9.478
 1425POPC   PO420220  25.543  30.341   9.445
 1425POPC   GL120221  25.277  30.042   9.183
 1425POPC   GL220222  25.031  29.793   9.162
 1425POPC   C1A20223  25.348  29.922   8.747
 1425POPC   D2A20224  25.386  29.641   8.390
 1425POPC   C3A20225  25.299  29.868   8.005
 1425POPC   C4A20226  25.534  30.042   7.663
 1425POPC   C1B20227  24.963  29.596   8.751
 1425POPC   C2B20228  24.823  29.623   8.327
 1425POPC   C3B20229  24.855  29.663   7.885
 1425POPC   C4B20230  25.064  29.809   7.531
 1426POPC   NC320231  32.145  35.304   9.792
 1426POPC   PO420232  32.340  35.079   9.226
 1426POPC   GL120233  32.116  35.143   8.897
 1426POPC   GL220234  32.076  35.474   8.808
 1426POPC   C1A20235  31.996  35.039   8.462
 1426POPC   D2A20236  31.946  34.920   8.046
 1426POPC   C3A20237  32.099  35.292   7.948
 1426POPC   C4A20238  32.444  35.173   7.752
 1426POPC   C1B20239  32.511  35.379   8.670
 1426POPC   C2B20240  32.580  35.300   8.283
 1426POPC   C3B20241  32.670  35.555   7.941
 1426POPC   C4B20242  32.318  35.655   7.672
 1427POPC   NC320243  30.375  16.445   9.427
 1427POPC   PO420244  30.975  16.843   9.416
 1427POPC   GL120245  30.814  16.671   9.090
 1427POPC   GL220246  30.528  16.916   9.060
 1427POPC   C1A20247  30.902  16.874   8.697
 1427POPC   D2A20248  30.590  17.029   8.438
 1427POPC   C3A20249  30.740  16.949   8.074
 1427POPC   C4A20250  30.745  16.548   7.872
 1427POPC   C1B20251  30.450  16.603   8.740
 1427POPC   C2B20252  30.491  16.465   8.318
 1427POPC   C3B20253  30.374  16.212   7.970
 1427POPC   C4B20254  30.237  16.490   7.653
 1428POPC   NC320255   2.276  16.308   9.348
 1428POPC   PO420256   1.912  16.659   9.823
 1428POPC   GL120257   2.004  16.723   9.303
 1428POPC   GL220258   1.737  16.515   9.209
 1428POPC   C1A20259   2.050  16.818   8.798
 1428POPC   D2A20260   2.100  16.937   8.288
 1428POPC   C3A20261   2.103  16.755   7.814
 1428POPC   C4A20262   1.983  16.873   7.363
 1428POPC   C1B20263   1.793  16.365   8.789
 1428POPC   C2B20264   1.697  16.610   8.434
 1428POPC   C3B20265   1.654  16.743   8.029
 1428POPC   C4B20266   1.713  16.522   7.616
 1429POPC   NC320267  31.277   9.187   9.534
 1429POPC   PO420268  31.780   8.822   9.296
 1429POPC   GL120269  31.587   9.150   9.080
 1429POPC   GL220270  31.365   9.453   9.098
 1429POPC   C1A20271  31.665   9.142   8.650
 1429POPC   D2A20272  31.455   9.172   8.275
 1429POPC   C3A20273  31.661   8.930   7.962
 1429POPC   C4A20274  31.467   8.647   7.731
 1429POPC   C1B20275  31.732   9.599   8.865
 1429POPC   C2B20276  31.886   9.538   8.421
 1429POPC   C3B20277  31.790   9.424   7.973
 1429POPC   C4B20278  31.682   9.311   7.544
 1430POPC   NC320279   9.858  24.960   9.461
 1430POPC   PO420280   9.458  25.470   9.489
 1430POPC   GL120281   9.708  25.364   9.147
 1430POPC   GL220282  10.002  25.532   9.149
 1430POPC   C1A20283   9.735  25.162   8.745
 1430POPC   D2A20284   9.570  25.095   8.331
 1430POPC   C3A20285   9.822  24.914   8.046
 1430POPC   C4A20286   9.950  24.993   7.641
 1430POPC   C1B20287   9.848  25.674   8.739
 1430POPC   C2B20288   9.828  25.645   8.300
 1430POPC   C3B20289   9.901  25.433   7.912
 1430POPC   C4B20290   9.644  25.441   7.568
 1431POPC   NC320291   0.126  17.721   9.438
 1431POPC   PO420292   0.755  17.517   9.520
 1431POPC   GL120293   0.583  17.642   9.104
 1431POPC   GL220294   0.318  17.395   9.012
 1431POPC   C1A20295   0.708  17.567   8.648
 1431POPC   D2A20296   0.489  17.319   8.335
 1431POPC   C3A20297   0.493  17.379   7.902
 1431POPC   C4A20298   0.581  17.737   7.763
 1431POPC   C1B20299   0.228  17.732   8.711
 1431POPC   C2B20300   0.367  17.836   8.265
 1431POPC   C3B20301   0.100  17.730   7.888
 1431POPC   C4B20302   0.146  17.706   7.410
 1432POPC   NC320303  11.867  15.621   9.426
 1432POPC   PO420304  12.110  14.986   9.460
 1432POPC   GL120305  12.247  15.211   9.123
 1432POPC   GL220306  11.899  15.306   9.026
 1432POPC   C1A20307  12.245  15.070   8.698
 1432POPC   D2A20308  11.904  15.059   8.413
 1432POPC   C3A20309  12.043  14.899   8.023
 1432POPC   C4A20310  11.851  15.030   7.630
 1432POPC   C1B20311  12.161  15.616   8.808
 1432POPC   C2B20312  12.299  15.499   8.402
 1432POPC   C3B20313  12.190  15.388   7.989
 1432POPC   C4B20314  12.406  15.312   7.616
 1433POPC   NC320315  44.366   9.082   9.388
 1433POPC   PO420316  43.730   8.833   9.486
 1433POPC   GL120317  43.742   8.893   9.094
 1433POPC   GL220318  43.393   8.820   9.055
 1433POPC   C1A20319  44.013   9.079   8.763
 1433POPC   D2A20320  43.904   9.281   8.370
 1433POPC   C3A20321  44.036   9.093   8.001
 1433POPC   C4A20322  44.011   9.257   7.573
 1433POPC   C1B20323  43.544   8.879   8.636
 1433POPC   C2B20324  43.869   8.718   8.409
 1433POPC   C3B20325  43.731   8.678   8.038
 1433POPC   C4B20326  43.618   8.915   7.715
 1434POPC   NC320327  26.720  28.561   9.665
 1434POPC   PO420328  26.369  28.057   9.698
 1434POPC   GL120329  26.724  28.140   9.313
 1434POPC   GL220330  26.809  28.508   9.182
 1434POPC   C1A20331  26.844  28.156   8.841
 1434POPC   D2A20332  26.791  28.376   8.471
 1434POPC   C3A20333  26.854  28.131   8.109
 1434POPC   C4A20334  26.923  28.246   7.708
 1434POPC   C1B20335  26.956  28.756   8.815
 1434POPC   C2B20336  27.001  28.833   8.380
 1434POPC   C3B20337  26.871  28.673   7.992
 1434POPC   C4B20338  27.040  28.743   7.605
 1435POPC   NC320339  18.193  42.817   9.509
 1435POPC   PO420340  17.856  43.323   9.393
 1435POPC   GL120341  18.156  43.145   9.043
 1435POPC   GL220342  18.536  43.333   8.939
 1435POPC   C1A20343  18.166  43.159   8.616
 1435POPC   D2A20344  17.983  43.409   8.296
 1435POPC   C3A20345  18.059  43.163   7.943
 1435POPC   C4A20346  18.130  42.748   7.944
 1435POPC   C1B20347  18.678  43.020   8.648
 1435POPC   C2B20348  18.487  43.027   8.236
 1435POPC   C3B20349  18.622  42.878   7.847
 1435POPC   C4B20350  18.862  43.061   7.543
 1436POPC   NC320351   3.376  17.153   9.401
 1436POPC   PO420352   3.377  16.490   9.441
 1436POPC   GL120353   3.468  16.685   9.103
 1436POPC   GL220354   3.665  16.446   8.923
 1436POPC   C1A20355   3.559  16.954   8.779
 1436POPC   D2A20356   3.357  16.971   8.412
 1436POPC   C3A20357   3.543  16.815   8.111
 1436POPC   C4A20358   3.291  16.902   7.819
 1436POPC   C1B20359   3.857  16.318   8.546
 1436POPC   C2B20360   3.823  16.377   8.096
 1436POPC   C3B20361   3.610  16.515   7.701
 1436POPC   C4B20362   3.758  16.463   7.232
 1437POPC   NC320363  29.459  13.763   9.490
 1437POPC   PO420364  30.084  13.575   9.333
 1437POPC   GL120365  29.903  13.691   9.019
 1437POPC   GL220366  29.669  13.457   9.071
 1437POPC   C1A20367  29.915  13.771   8.613
 1437POPC   D2A20368  29.847  13.906   8.216
 1437POPC   C3A20369  30.175  13.719   7.994
 1437POPC   C4A20370  30.315  13.497   7.645
 1437POPC   C1B20371  29.853  13.264   8.725
 1437POPC   C2B20372  30.040  13.114   8.341
 1437POPC   C3B20373  29.936  13.224   7.915
 1437POPC   C4B20374  29.737  13.207   7.496
 1438POPC   NC320375  11.073  29.421   9.332
 1438POPC   PO420376  11.374  28.764   9.417
 1438POPC   GL120377  11.525  28.978   9.076
 1438POPC   GL220378  11.589  29.314   9.225
 1438POPC   C1A20379  11.186  29.039   8.760
 1438POPC   D2A20380  11.045  29.221   8.366
 1438POPC   C3A20381  11.309  29.076   8.028
 1438POPC   C4A20382  11.204  29.005   7.588
 1438POPC   C1B20383  11.475  29.467   8.809
 1438POPC   C2B20384  11.550  29.312   8.424
 1438POPC   C3B20385  11.636  29.475   8.020
 1438POPC   C4B20386  11.512  29.409   7.600
 1439POPC   NC320387   1.098  17.921   9.566
 1439POPC   PO420388   0.606  18.402   9.486
 1439POPC   GL120389   0.528  18.297   9.071
 1439POPC   GL220390   0.245  18.069   9.099
 1439POPC   C1A20391   0.653  18.081   8.676
 1439POPC   D2A20392   0.901  17.942   8.307
 1439POPC   C3A20393   0.742  18.170   7.941
 1439POPC   C4A20394   0.308  18.186   7.821
 1439POPC   C1B20395   0.165  18.237   8.710
 1439POPC   C2B20396   0.342  18.363   8.334
 1439POPC   C3B20397   0.082  18.560   8.066
 1439POPC   C4B20398   0.193  18.774   7.699
 1440POPC   NC320399  25.844  42.881   9.557
 1440POPC   PO420400  26.348  43.303   9.612
 1440POPC   GL120401  26.215  43.084   9.252
 1440POPC   GL220402  25.906  43.257   9.201
 1440POPC   C1A20403  26.108  42.991   8.818
 1440POPC   D2A20404  26.065  43.145   8.412
 1440POPC   C3A20405  25.890  43.023   8.055
 1440POPC   C4A20406  26.162  42.997   7.715
 1440POPC   C1B20407  25.812  43.428   8.784
 1440POPC   C2B20408  25.599  43.370   8.349
 1440POPC   C3B20409  25.621  43.595   7.979
 1440POPC   C4B20410  25.857  43.423   7.650
 1441POPC   NC320411   3.095  38.487   9.447
 1441POPC   PO420412   2.484  38.193   9.577
 1441POPC   GL120413   2.649  38.414   9.233
 1441POPC   GL220414   2.479  38.653   9.122
 1441POPC   C1A20415   2.878  38.325   8.851
 1441POPC   D2A20416   2.840  38.463   8.434
 1441POPC   C3A20417   2.785  38.204   8.080
 1441POPC   C4A20418   2.705  38.319   7.662
 1441POPC   C1B20419   2.630  38.804   8.749
 1441POPC   C2B20420   2.456  38.807   8.338
 1441POPC   C3B20421   2.634  38.786   7.914
 1441POPC   C4B20422   2.402  38.752   7.515
 1442POPC   NC320423  33.268   7.819   9.452
 1442POPC   PO420424  33.045   8.344   9.720
 1442POPC   GL120425  33.075   8.403   9.231
 1442POPC   GL220426  32.996   8.066   9.098
 1442POPC   C1A20427  33.027   8.446   8.762
 1442POPC   D2A20428  33.001   8.195   8.393
 1442POPC   C3A20429  33.047   8.431   8.010
 1442POPC   C4A20430  32.888   8.452   7.593
 1442POPC   C1B20431  33.338   8.020   8.795
 1442POPC   C2B20432  33.459   7.939   8.385
 1442POPC   C3B20433  33.298   7.998   7.973
 1442POPC   C4B20434  33.491   7.894   7.616
 1443POPC   NC320435  33.225  17.352   9.458
 1443POPC   PO420436  32.584  17.643   9.469
 1443POPC   GL120437  32.686  17.502   9.064
 1443POPC   GL220438  32.980  17.310   9.007
 1443POPC   C1A20439  32.864  17.681   8.673
 1443POPC   D2A20440  33.171  17.767   8.350
 1443POPC   C3A20441  33.018  17.625   7.937
 1443POPC   C4A20442  33.226  17.702   7.540
 1443POPC   C1B20443  33.277  17.340   8.645
 1443POPC   C2B20444  33.266  17.259   8.200
 1443POPC   C3B20445  33.308  17.237   7.730
 1443POPC   C4B20446  33.490  17.291   7.293
 1444POPC   NC320447  12.407  38.899   9.565
 1444POPC   PO420448  12.179  38.311   9.287
 1444POPC   GL120449  12.119  38.422   8.917
 1444POPC   GL220450  12.345  38.713   9.052
 1444POPC   C1A20451  11.715  38.382   8.648
 1444POPC   D2A20452  11.480  38.362   8.269
 1444POPC   C3A20453  11.798  38.262   7.993
 1444POPC   C4A20454  12.194  38.225   7.816
 1444POPC   C1B20455  12.097  38.862   8.725
 1444POPC   C2B20456  12.118  38.577   8.374
 1444POPC   C3B20457  12.119  38.736   7.963
 1444POPC   C4B20458  11.710  38.909   7.890
 1445POPC   NC320459  13.843  36.346   9.648
 1445POPC   PO420460  13.425  36.978   9.439
 1445POPC   GL120461  13.475  37.034   9.005
 1445POPC   GL220462  13.754  36.823   9.010
 1445POPC   C1A20463  13.691  37.314   8.694
 1445POPC   D2A20464  13.924  37.252   8.338
 1445POPC   C3A20465  13.672  36.940   8.178
 1445POPC   C4A20466  13.386  36.974   7.801
 1445POPC   C1B20467  13.451  36.554   8.756
 1445POPC   C2B20468  13.345  36.379   8.341
 1445POPC   C3B20469  13.541  36.501   7.928
 1445POPC   C4B20470  13.877  36.828   7.745
 1446POPC   NC320471  24.028  11.764   9.558
 1446POPC   PO420472  24.507  11.421   9.592
 1446POPC   GL120473  24.417  11.288   9.179
 1446POPC   GL220474  24.229  10.979   9.155
 1446POPC   C1A20475  24.508  11.496   8.784
 1446POPC   D2A20476  24.735  11.342   8.442
 1446POPC   C3A20477  24.588  11.477   8.027
 1446POPC   C4A20478  24.666  11.235   7.653
 1446POPC   C1B20479  24.119  11.150   8.767
 1446POPC   C2B20480  24.226  11.301   8.358
 1446POPC   C3B20481  24.192  11.162   7.914
 1446POPC   C4B20482  24.226  11.092   7.448
 1447POPC   NC320483  39.408  17.782   9.756
 1447POPC   PO420484  38.937  17.322   9.566
 1447POPC   GL120485  39.113  17.555   9.237
 1447POPC   GL220486  39.452  17.428   9.187
 1447POPC   C1A20487  38.968  17.543   8.818
 1447POPC   D2A20488  38.779  17.728   8.479
 1447POPC   C3A20489  38.945  17.644   8.102
 1447POPC   C4A20490  39.038  17.625   7.668
 1447POPC   C1B20491  39.456  17.650   8.770
 1447POPC   C2B20492  39.640  17.611   8.362
 1447POPC   C3B20493  39.450  17.544   7.985
 1447POPC   C4B20494  39.511  17.727   7.590
 1448POPC   NC320495  26.076  40.317   9.248
 1448POPC   PO420496  26.342  39.747   9.534
 1448POPC   GL120497  26.138  39.796   9.132
 1448POPC   GL220498  25.831  39.895   9.162
 1448POPC   C1A20499  26.249  39.939   8.697
 1448POPC   D2A20500  26.598  40.076   8.432
 1448POPC   C3A20501  26.369  40.221   8.095
 1448POPC   C4A20502  26.052  40.130   7.786
 1448POPC   C1B20503  25.705  40.116   8.770
 1448POPC   C2B20504  25.901  40.157   8.378
 1448POPC   C3B20505  25.747  40.408   8.084
 1448POPC   C4B20506  25.530  40.327   7.712
 1449POPC   NC320507  17.823  39.512   9.348
 1449POPC   PO420508  17.433  39.025   9.420
 1449POPC   GL120509  17.489  39.202   9.089
 1449POPC   GL220510  17.295  39.457   9.179
 1449POPC   C1A20511  17.641  39.355   8.728
 1449POPC   D2A20512  17.527  39.551   8.377
 1449POPC   C3A20513  17.756  39.308   8.070
 1449POPC   C4A20514  17.834  39.084   7.645
 1449POPC   C1B20515  17.181  39.554   8.797
 1449POPC   C2B20516  17.017  39.622   8.398
 1449POPC   C3B20517  17.197  39.586   7.989
 1449POPC   C4B20518  17.374  39.327   7.701
 1450POPC   NC320519   8.588  40.601   9.530
 1450POPC   PO420520   7.975  40.712   9.441
 1450POPC   GL120521   8.154  40.826   9.092
 1450POPC   GL220522   8.436  40.998   9.199
 1450POPC   C1A20523   7.992  40.803   8.667
 1450POPC   D2A20524   7.743  40.533   8.382
 1450POPC   C3A20525   7.945  40.511   7.993
 1450POPC   C4A20526   8.108  40.901   7.839
 1450POPC   C1B20527   8.529  40.810   8.772
 1450POPC   C2B20528   8.392  40.939   8.354
 1450POPC   C3B20529   8.566  40.763   7.986
 1450POPC   C4B20530   8.537  40.790   7.561
 1451POPC   NC320531   1.048  17.256   9.757
 1451POPC   PO420532   1.445  17.692   9.784
 1451POPC   GL120533   1.406  17.523   9.376
 1451POPC   GL220534   1.468  17.811   9.173
 1451POPC   C1A20535   1.177  17.434   8.969
 1451POPC   D2A20536   1.228  17.520   8.515
 1451POPC   C3A20537   0.986  17.414   8.145
 1451POPC   C4A20538   1.066  17.730   7.845
 1451POPC   C1B20539   1.662  17.670   8.809
 1451POPC   C2B20540   1.591  17.867   8.413
 1451POPC   C3B20541   1.536  17.671   8.025
 1451POPC   C4B20542   1.496  17.241   7.882
 1452POPC   NC320543  15.028  34.701   9.287
 1452POPC   PO420544  15.503  34.255   9.237
 1452POPC   GL120545  15.391  34.497   8.961
 1452POPC   GL220546  15.606  34.757   9.037
 1452POPC   C1A20547  15.093  34.476   8.613
 1452POPC   D2A20548  15.078  34.287   8.202
 1452POPC   C3A20549  15.381  34.338   7.864
 1452POPC   C4A20550  15.486  34.038   7.509
 1452POPC   C1B20551  15.384  34.900   8.677
 1452POPC   C2B20552  15.341  34.761   8.246
 1452POPC   C3B20553  15.002  34.766   7.983
 1452POPC   C4B20554  14.762  35.130   7.852
 1453POPC   NC320555  29.832  15.605   9.400
 1453POPC   PO420556  30.350  15.996   9.561
 1453POPC   GL120557  30.053  16.015   9.164
 1453POPC   GL220558  29.676  15.969   9.080
 1453POPC   C1A20559  29.998  15.738   8.759
 1453POPC   D2A20560  29.810  15.541   8.380
 1453POPC   C3A20561  29.922  15.671   7.976
 1453POPC   C4A20562  29.913  16.070   7.805
 1453POPC   C1B20563  29.870  16.242   8.749
 1453POPC   C2B20564  29.997  16.242   8.328
 1453POPC   C3B20565  29.898  16.514   8.008
 1453POPC   C4B20566  29.700  16.474   7.557
 1454POPC   NC320567  10.940  12.274   9.452
 1454POPC   PO420568  11.489  11.781   9.513
 1454POPC   GL120569  11.306  11.991   9.173
 1454POPC   GL220570  11.014  11.796   9.172
 1454POPC   C1A20571  11.236  12.152   8.747
 1454POPC   D2A20572  11.054  12.437   8.434
 1454POPC   C3A20573  11.182  12.417   7.986
 1454POPC   C4A20574  11.323  12.349   7.528
 1454POPC   C1B20575  11.300  11.599   8.868
 1454POPC   C2B20576  11.470  11.747   8.533
 1454POPC   C3B20577  11.271  11.858   8.159
 1454POPC   C4B20578  11.120  11.957   7.790
 1455POPC   NC320579  41.189  31.093   9.471
 1455POPC   PO420580  41.594  30.496   9.484
 1455POPC   GL120581  41.630  30.679   9.085
 1455POPC   GL220582  41.331  30.790   9.078
 1455POPC   C1A20583  41.482  30.482   8.698
 1455POPC   D2A20584  41.317  30.589   8.316
 1455POPC   C3A20585  41.653  30.506   8.063
 1455POPC   C4A20586  41.779  30.467   7.666
 1455POPC   C1B20587  41.501  30.985   8.710
 1455POPC   C2B20588  41.710  30.988   8.352
 1455POPC   C3B20589  41.487  30.965   8.002
 1455POPC   C4B20590  41.497  31.150   7.662
 1456POPC   NC320591   1.497   6.312   9.395
 1456POPC   PO420592   0.849   6.184   9.458
 1456POPC   GL120593   1.106   6.026   9.180
 1456POPC   GL220594   1.051   5.687   9.285
 1456POPC   C1A20595   1.273   6.161   8.773
 1456POPC   D2A20596   1.368   5.936   8.399
 1456POPC   C3A20597   1.507   6.079   8.020
 1456POPC   C4A20598   1.364   5.951   7.640
 1456POPC   C1B20599   1.177   5.641   8.845
 1456POPC   C2B20600   1.005   5.592   8.429
 1456POPC   C3B20601   1.233   5.588   8.030
 1456POPC   C4B20602   0.963   5.524   7.676
 1457POPC   NC320603  18.521  40.452   9.387
 1457POPC   PO420604  18.128  40.915   9.520
 1457POPC   GL120605  18.299  40.838   9.154
 1457POPC   GL220606  18.641  40.965   9.237
 1457POPC   C1A20607  18.217  40.611   8.790
 1457POPC   D2A20608  18.394  40.648   8.431
 1457POPC   C3A20609  18.133  40.618   8.108
 1457POPC   C4A20610  18.183  40.613   7.690
 1457POPC   C1B20611  18.681  40.886   8.795
 1457POPC   C2B20612  18.609  41.082   8.364
 1457POPC   C3B20613  18.622  40.815   8.001
 1457POPC   C4B20614  18.588  40.921   7.631
 1458POPC   NC320615   0.961   0.668   9.509
 1458POPC   PO420616   1.360   0.185   9.719
 1458POPC   GL120617   1.226   0.248   9.279
 1458POPC   GL220618   0.858   0.217   9.231
 1458POPC   C1A20619   1.256   0.502   8.891
 1458POPC   D2A20620   1.154   0.635   8.452
 1458POPC   C3A20621   1.408   0.544   8.080
 1458POPC   C4A20622   1.650   0.220   7.847
 1458POPC   C1B20623   1.022  44.998   8.859
 1458POPC   C2B20624   1.079   0.033   8.412
 1458POPC   C3B20625   0.966   0.153   8.002
 1458POPC   C4B20626   1.165   0.341   7.646
 1459POPC   NC320627   9.725  16.522   9.674
 1459POPC   PO420628  10.137  16.865   9.312
 1459POPC   GL120629   9.991  16.491   9.205
 1459POPC   GL220630   9.646  16.626   9.189
 1459POPC   C1A20631   9.928  16.457   8.788
 1459POPC   D2A20632   9.925  16.700   8.434
 1459POPC   C3A20633  10.006  16.517   8.041
 1459POPC   C4A20634  10.111  16.721   7.699
 1459POPC   C1B20635   9.553  16.820   8.807
 1459POPC   C2B20636   9.425  16.762   8.400
 1459POPC   C3B20637   9.628  16.874   8.044
 1459POPC   C4B20638   9.606  16.722   7.664
 1460POPC   NC320639   2.562  35.986   9.319
 1460POPC   PO420640   3.086  36.367   9.517
 1460POPC   GL120641   2.892  36.357   9.114
 1460POPC   GL220642   2.990  36.031   9.056
 1460POPC   C1A20643   2.707  36.246   8.681
 1460POPC   D2A20644   2.752  35.967   8.319
 1460POPC   C3A20645   2.596  36.120   7.912
 1460POPC   C4A20646   2.537  36.135   7.428
 1460POPC   C1B20647   3.193  36.075   8.704
 1460POPC   C2B20648   3.277  35.871   8.353
 1460POPC   C3B20649   3.127  36.051   7.987
 1460POPC   C4B20650   2.950  35.892   7.608
 1461POPC   NC320651  26.689  37.548   9.504
 1461POPC   PO420652  27.381  37.764   9.668
 1461POPC   GL120653  27.078  37.798   9.244
 1461POPC   GL220654  27.030  37.503   9.041
 1461POPC   C1A20655  26.671  37.875   8.929
 1461POPC   D2A20656  26.536  37.755   8.500
 1461POPC   C3A20657  26.575  37.863   8.049
 1461POPC   C4A20658  26.702  37.498   7.813
 1461POPC   C1B20659  27.039  37.698   8.654
 1461POPC   C2B20660  26.976  37.640   8.253
 1461POPC   C3B20661  27.135  37.685   7.925
 1461POPC   C4B20662  26.996  37.983   7.679
 1462POPC   NC320663  38.640  34.364   9.553
 1462POPC   PO420664  38.075  34.728   9.444
 1462POPC   GL120665  38.311  34.497   9.196
 1462POPC   GL220666  38.625  34.722   9.189
 1462POPC   C1A20667  38.415  34.456   8.804
 1462POPC   D2A20668  38.196  34.601   8.457
 1462POPC   C3A20669  38.277  34.437   8.075
 1462POPC   C4A20670  38.113  34.509   7.700
 1462POPC   C1B20671  38.831  34.814   8.786
 1462POPC   C2B20672  38.721  34.639   8.410
 1462POPC   C3B20673  38.782  34.464   8.031
 1462POPC   C4B20674  38.608  34.623   7.659
 1463POPC   NC320675  26.347  12.837   9.494
 1463POPC   PO420676  25.734  12.978   9.435
 1463POPC   GL120677  25.864  12.681   9.083
 1463POPC   GL220678  26.208  12.692   9.044
 1463POPC   C1A20679  25.937  12.632   8.643
 1463POPC   D2A20680  25.908  12.978   8.367
 1463POPC   C3A20681  26.004  12.738   8.038
 1463POPC   C4A20682  26.086  12.655   7.619
 1463POPC   C1B20683  26.291  13.016   8.699
 1463POPC   C2B20684  26.367  13.143   8.259
 1463POPC   C3B20685  26.414  12.960   7.858
 1463POPC   C4B20686  26.381  13.045   7.393
 1464POPC   NC320687  29.292  37.861   9.541
 1464POPC   PO420688  28.703  38.177   9.559
 1464POPC   GL120689  28.835  37.859   9.297
 1464POPC   GL220690  29.062  38.079   9.115
 1464POPC   C1A20691  28.791  37.695   8.873
 1464POPC   D2A20692  28.997  37.485   8.523
 1464POPC   C3A20693  28.884  37.551   8.090
 1464POPC   C4A20694  29.226  37.584   7.793
 1464POPC   C1B20695  29.162  38.014   8.662
 1464POPC   C2B20696  29.188  38.242   8.256
 1464POPC   C3B20697  29.338  38.151   7.839
 1464POPC   C4B20698  29.295  37.930   7.430
 1465POPC   NC320699  37.765  42.198   9.520
 1465POPC   PO420700  37.435  42.738   9.517
 1465POPC   GL120701  37.421  42.464   9.155
 1465POPC   GL220702  37.745  42.330   9.046
 1465POPC   C1A20703  37.352  42.272   8.753
 1465POPC   D2A20704  37.653  42.321   8.466
 1465POPC   C3A20705  37.524  42.203   8.095
 1465POPC   C4A20706  37.426  42.425   7.749
 1465POPC   C1B20707  38.098  42.285   8.804
 1465POPC   C2B20708  38.130  42.185   8.392
 1465POPC   C3B20709  37.972  42.407   8.061
 1465POPC   C4B20710  38.043  42.385   7.695
 1466POPC   NC320711  13.940  16.539   9.556
 1466POPC   PO420712  13.511  16.895   9.153
 1466POPC   GL120713  13.858  16.674   9.073
 1466POPC   GL220714  13.688  16.401   9.114
 1466POPC   C1A20715  13.856  16.578   8.652
 1466POPC   D2A20716  13.573  16.790   8.398
 1466POPC   C3A20717  13.652  16.835   7.980
 1466POPC   C4A20718  13.349  17.153   7.792
 1466POPC   C1B20719  13.392  16.300   8.815
 1466POPC   C2B20720  13.255  16.400   8.417
 1466POPC   C3B20721  13.396  16.353   8.012
 1466POPC   C4B20722  13.278  16.616   7.703
 1467POPC   NC320723   6.232  26.549   9.519
 1467POPC   PO420724   5.602  26.886   9.474
 1467POPC   GL120725   5.875  26.849   9.122
 1467POPC   GL220726   5.639  26.618   8.941
 1467POPC   C1A20727   5.940  26.935   8.670
 1467POPC   D2A20728   5.651  26.915   8.326
 1467POPC   C3A20729   5.789  27.153   7.988
 1467POPC   C4A20730   5.944  27.034   7.573
 1467POPC   C1B20731   6.038  26.445   8.808
 1467POPC   C2B20732   6.112  26.498   8.377
 1467POPC   C3B20733   6.015  26.691   7.995
 1467POPC   C4B20734   5.596  26.707   7.832
 1468POPC   NC320735   5.486  23.188   9.259
 1468POPC   PO420736   6.065  23.373   9.601
 1468POPC   GL120737   6.025  23.087   9.227
 1468POPC   GL220738   5.797  22.782   9.179
 1468POPC   C1A20739   5.987  23.124   8.769
 1468POPC   D2A20740   5.628  23.114   8.461
 1468POPC   C3A20741   5.734  23.086   8.010
 1468POPC   C4A20742   5.687  22.960   7.568
 1468POPC   C1B20743   5.802  22.654   8.728
 1468POPC   C2B20744   5.994  22.754   8.313
 1468POPC   C3B20745   5.857  22.571   7.905
 1468POPC   C4B20746   5.635  22.440   7.517
 1469POPC   NC320747  11.440  17.774   9.459
 1469POPC   PO420748  11.605  18.422   9.495
 1469POPC   GL120749  11.391  18.503   9.096
 1469POPC   GL220750  11.057  18.357   9.114
 1469POPC   C1A20751  11.474  18.401   8.662
 1469POPC   D2A20752  11.490  18.302   8.237
 1469POPC   C3A20753  11.276  18.398   7.859
 1469POPC   C4A20754  11.566  18.183   7.637
 1469POPC   C1B20755  10.948  18.339   8.692
 1469POPC   C2B20756  11.004  18.135   8.288
 1469POPC   C3B20757  11.202  17.906   7.942
 1469POPC   C4B20758  10.976  18.050   7.618
 1470POPC   NC320759  11.390  13.117   9.329
 1470POPC   PO420760  11.372  12.451   9.360
 1470POPC   GL120761  11.131  12.699   9.105
 1470POPC   GL220762  10.900  12.477   8.973
 1470POPC   C1A20763  11.323  12.848   8.705
 1470POPC   D2A20764  11.505  12.712   8.328
 1470POPC   C3A20765  11.357  12.891   7.957
 1470POPC   C4A20766  11.555  12.785   7.601
 1470POPC   C1B20767  10.819  12.831   8.706
 1470POPC   C2B20768  10.978  13.020   8.311
 1470POPC   C3B20769  10.903  13.128   7.863
 1470POPC   C4B20770  10.849  13.253   7.392
 1471POPC   NC320771  43.977   9.955   9.627
 1471POPC   PO420772  43.371   9.665   9.487
 1471POPC   GL120773  43.687   9.867   9.195
 1471POPC   GL220774  44.063   9.758   9.166
 1471POPC   C1A20775  43.692   9.999   8.776
 1471POPC   D2A20776  43.659   9.773   8.382
 1471POPC   C3A20777  43.715   9.995   7.988
 1471POPC   C4A20778  43.627   9.779   7.637
 1471POPC   C1B20779  44.038   9.610   8.750
 1471POPC   C2B20780  44.176   9.738   8.341
 1471POPC   C3B20781  44.048   9.618   7.935
 1471POPC   C4B20782  44.139   9.748   7.503
 1472POPC   NC320783  36.184   0.208   9.502
 1472POPC   PO420784  35.660   0.598   9.541
 1472POPC   GL120785  36.046   0.603   9.171
 1472POPC   GL220786  36.362   0.351   9.069
 1472POPC   C1A20787  36.241   0.670   8.720
 1472POPC   D2A20788  36.402   0.598   8.317
 1472POPC   C3A20789  36.032   0.696   8.029
 1472POPC   C4A20790  36.021   0.618   7.546
 1472POPC   C1B20791  36.106   0.134   8.787
 1472POPC   C2B20792  36.025   0.276   8.373
 1472POPC   C3B20793  36.240   0.239   7.972
 1472POPC   C4B20794  36.027   0.124   7.616
 1473POPC   NC320795  24.216  43.589   9.549
 1473POPC   PO420796  24.869  43.599   9.549
 1473POPC   GL120797  24.556  43.764   9.164
 1473POPC   GL220798  24.247  43.608   9.050
 1473POPC   C1A20799  24.424  43.897   8.699
 1473POPC   D2A20800  24.466  44.114   8.296
 1473POPC   C3A20801  24.466  43.819   7.959
 1473POPC   C4A20802  24.314  43.763   7.510
 1473POPC   C1B20803  24.064  43.482   8.656
 1473POPC   C2B20804  24.037  43.758   8.312
 1473POPC   C3B20805  23.965  43.699   7.877
 1473POPC   C4B20806  24.015  43.345   7.627
 1474POPC   NC320807  32.762   1.364  10.029
 1474POPC   PO420808  32.501   0.967   9.476
 1474POPC   GL120809  32.275   1.177   9.169
 1474POPC   GL220810  31.936   1.154   9.095
 1474POPC   C1A20811  32.280   1.429   8.802
 1474POPC   D2A20812  32.158   1.258   8.415
 1474POPC   C3A20813  32.315   1.450   8.034
 1474POPC   C4A20814  32.415   1.419   7.608
 1474POPC   C1B20815  32.010   0.899   8.767
 1474POPC   C2B20816  31.996   0.758   8.374
 1474POPC   C3B20817  31.995   0.981   8.009
 1474POPC   C4B20818  32.040   1.078   7.605
 1475POPC   NC320819   2.657  33.625   9.610
 1475POPC   PO420820   2.969  34.202   9.490
 1475POPC   GL120821   2.630  33.952   9.183
 1475POPC   GL220822   2.437  33.605   9.162
 1475POPC   C1A20823   2.677  33.873   8.733
 1475POPC   D2A20824   2.954  34.059   8.408
 1475POPC   C3A20825   2.885  34.081   7.941
 1475POPC   C4A20826   3.018  33.862   7.568
 1475POPC   C1B20827   2.465  33.374   8.811
 1475POPC   C2B20828   2.403  33.547   8.437
 1475POPC   C3B20829   2.637  33.699   8.146
 1475POPC   C4B20830   2.510  33.796   7.714
 1476POPC   NC320831  20.959  34.658   9.363
 1476POPC   PO420832  20.298  34.429   9.487
 1476POPC   GL120833  20.578  34.303   9.204
 1476POPC   GL220834  20.533  34.653   9.063
 1476POPC   C1A20835  20.654  34.258   8.776
 1476POPC   D2A20836  20.593  34.497   8.412
 1476POPC   C3A20837  20.737  34.365   8.017
 1476POPC   C4A20838  20.399  34.210   7.791
 1476POPC   C1B20839  20.473  34.938   8.713
 1476POPC   C2B20840  20.688  34.981   8.318
 1476POPC   C3B20841  20.974  34.863   8.022
 1476POPC   C4B20842  20.688  34.799   7.726
 1477POPC   NC320843  11.703  27.880   9.610
 1477POPC   PO420844  11.365  27.249   9.529
 1477POPC   GL120845  11.273  27.435   9.136
 1477POPC   GL220846  11.287  27.786   9.230
 1477POPC   C1A20847  11.174  27.493   8.719
 1477POPC   D2A20848  11.316  27.737   8.388
 1477POPC   C3A20849  11.211  27.569   8.038
 1477POPC   C4A20850  11.206  27.410   7.663
 1477POPC   C1B20851  11.515  27.847   8.853
 1477POPC   C2B20852  11.656  28.109   8.481
 1477POPC   C3B20853  11.665  28.020   8.022
 1477POPC   C4B20854  11.637  27.733   7.626
 1478POPC   NC320855  29.612  44.675   9.833
 1478POPC   PO420856  29.041  44.810   9.431
 1478POPC   GL120857  29.068  44.927   9.022
 1478POPC   GL220858  29.362  44.722   9.001
 1478POPC   C1A20859  29.138  44.843   8.573
 1478POPC   D2A20860  29.034  44.414   8.411
 1478POPC   C3A20861  29.029  44.487   7.983
 1478POPC   C4A20862  29.112  44.890   7.774
 1478POPC   C1B20863  29.622  44.728   8.664
 1478POPC   C2B20864  29.470  44.630   8.240
 1478POPC   C3B20865  29.506  44.550   7.782
 1478POPC   C4B20866  29.498  44.164   7.533
 1479POPC   NC320867  42.515   2.130   9.515
 1479POPC   PO420868  42.979   1.615   9.414
 1479POPC   GL120869  42.890   1.925   9.118
 1479POPC   GL220870  43.077   2.207   9.248
 1479POPC   C1A20871  42.930   1.852   8.673
 1479POPC   D2A20872  42.777   2.005   8.282
 1479POPC   C3A20873  43.071   1.852   7.999
 1479POPC   C4A20874  43.143   1.727   7.600
 1479POPC   C1B20875  43.064   2.331   8.791
 1479POPC   C2B20876  43.213   2.285   8.375
 1479POPC   C3B20877  43.020   2.357   7.987
 1479POPC   C4B20878  43.169   2.234   7.591
 1480POPC   NC320879  19.323  18.566   9.506
 1480POPC   PO420880  18.766  18.369   9.485
 1480POPC   GL120881  19.078  18.347   9.126
 1480POPC   GL220882  19.300  18.677   9.024
 1480POPC   C1A20883  19.131  18.148   8.742
 1480POPC   D2A20884  18.963  18.283   8.356
 1480POPC   C3A20885  19.062  18.109   7.980
 1480POPC   C4A20886  18.839  18.257   7.647
 1480POPC   C1B20887  19.012  18.653   8.718
 1480POPC   C2B20888  19.095  18.793   8.333
 1480POPC   C3B20889  19.082  18.614   7.939
 1480POPC   C4B20890  19.401  18.356   7.707
 1481POPC   NC320891   8.018  43.432   9.466
 1481POPC   PO420892   8.325  42.813   9.485
 1481POPC   GL120893   8.291  42.927   9.082
 1481POPC   GL220894   7.961  43.030   9.121
 1481POPC   C1A20895   8.258  43.109   8.669
 1481POPC   D2A20896   8.420  43.130   8.257
 1481POPC   C3A20897   8.332  43.456   7.994
 1481POPC   C4A20898   8.170  43.243   7.616
 1481POPC   C1B20899   7.819  43.348   8.818
 1481POPC   C2B20900   7.825  43.293   8.409
 1481POPC   C3B20901   7.869  43.221   8.029
 1481POPC   C4B20902   7.691  43.118   7.688
 1482POPC   NC320903   0.647  24.207   9.511
 1482POPC   PO420904   0.544  24.880   9.701
 1482POPC   GL120905   0.650  24.695   9.268
 1482POPC   GL220906   0.375  24.542   9.153
 1482POPC   C1A20907   0.806  24.518   8.865
 1482POPC   D2A20908   0.812  24.637   8.409
 1482POPC   C3A20909   0.562  24.605   8.007
 1482POPC   C4A20910   0.680  24.358   7.653
 1482POPC   C1B20911   0.325  24.386   8.725
 1482POPC   C2B20912   0.426  24.220   8.309
 1482POPC   C3B20913   0.252  24.181   7.853
 1482POPC   C4B20914   0.161  24.145   7.389
 1483POPC   NC320915  20.104  30.609   9.503
 1483POPC   PO420916  19.450  30.437   9.608
 1483POPC   GL120917  19.582  30.671   9.154
 1483POPC   GL220918  19.931  30.738   9.061
 1483POPC   C1A20919  19.561  30.721   8.731
 1483POPC   D2A20920  19.877  30.470   8.581
 1483POPC   C3A20921  19.816  30.469   8.131
 1483POPC   C4A20922  19.773  30.364   7.701
 1483POPC   C1B20923  19.950  31.040   8.748
 1483POPC   C2B20924  19.727  31.086   8.381
 1483POPC   C3B20925  19.722  30.950   7.982
 1483POPC   C4B20926  20.028  30.802   7.711
 1484POPC   NC320927  42.897  36.080   9.441
 1484POPC   PO420928  43.454  36.005   9.819
 1484POPC   GL120929  43.399  36.272   9.307
 1484POPC   GL220930  43.113  36.162   9.007
 1484POPC   C1A20931  43.457  36.412   8.791
 1484POPC   D2A20932  43.172  36.168   8.443
 1484POPC   C3A20933  43.099  36.244   7.960
 1484POPC   C4A20934  43.262  36.494   7.566
 1484POPC   C1B20935  42.854  35.853   8.769
 1484POPC   C2B20936  42.697  35.928   8.363
 1484POPC   C3B20937  42.806  35.828   7.954
 1484POPC   C4B20938  42.975  35.712   7.559
 1485POPC   NC320939   4.474  44.989   9.429
 1485POPC   PO420940   4.338  44.386   9.328
 1485POPC   GL120941   4.294  44.652   9.032
 1485POPC   GL220942   4.044  44.828   9.194
 1485POPC   C1A20943   4.226  44.476   8.637
 1485POPC   D2A20944   4.351  44.347   8.240
 1485POPC   C3A20945   4.272  44.670   7.951
 1485POPC   C4A20946   4.488   0.065   7.946
 1485POPC   C1B20947   4.005  44.999   8.765
 1485POPC   C2B20948   4.099  44.907   8.367
 1485POPC   C3B20949   3.957   0.056   7.974
 1485POPC   C4B20950   3.675  44.764   7.792
 1486POPC   NC320951  18.564  38.309   9.750
 1486POPC   PO420952  18.014  38.615   9.479
 1486POPC   GL120953  18.126  38.505   9.097
 1486POPC   GL220954  18.332  38.203   9.128
 1486POPC   C1A20955  18.144  38.483   8.660
 1486POPC   D2A20956  18.512  38.514   8.435
 1486POPC   C3A20957  18.417  38.399   8.030
 1486POPC   C4A20958  18.642  38.455   7.678
 1486POPC   C1B20959  17.999  38.042   8.866
 1486POPC   C2B20960  17.804  38.104   8.446
 1486POPC   C3B20961  17.965  38.110   8.010
 1486POPC   C4B20962  18.238  38.111   7.624
 1487POPC   NC320963  37.016  10.356   9.709
 1487POPC   PO420964  36.703  10.833   9.364
 1487POPC   GL120965  36.764  10.425   9.170
 1487POPC   GL220966  36.923  10.617   8.936
 1487POPC   C1A20967  36.876  10.180   8.747
 1487POPC   D2A20968  36.816  10.510   8.419
 1487POPC   C3A20969  36.643  10.446   8.008
 1487POPC   C4A20970  37.007  10.509   7.769
 1487POPC   C1B20971  36.530  10.776   8.751
 1487POPC   C2B20972  36.496  11.059   8.431
 1487POPC   C3B20973  36.829  11.048   8.130
 1487POPC   C4B20974  36.649  10.925   7.751
 1488POPC   NC320975  25.729   9.491   9.306
 1488POPC   PO420976  25.231  10.017   9.563
 1488POPC   GL120977  25.390   9.864   9.188
 1488POPC   GL220978  25.174   9.552   9.145
 1488POPC   C1A20979  25.439   9.751   8.760
 1488POPC   D2A20980  25.230   9.801   8.395
 1488POPC   C3A20981  25.167  10.138   8.191
 1488POPC   C4A20982  25.278  10.009   7.815
 1488POPC   C1B20983  25.063   9.418   8.706
 1488POPC   C2B20984  25.390   9.325   8.369
 1488POPC   C3B20985  25.379   9.503   7.914
 1488POPC   C4B20986  25.067   9.456   7.576
 1489POPC   NC320987  23.810  19.470   9.565
 1489POPC   PO420988  23.567  18.837   9.495
 1489POPC   GL120989  23.686  19.075   9.159
 1489POPC   GL220990  24.026  19.008   9.066
 1489POPC   C1A20991  23.458  19.194   8.767
 1489POPC   D2A20992  23.498  19.002   8.372
 1489POPC   C3A20993  23.563  19.253   8.027
 1489POPC   C4A20994  23.541  19.287   7.594
 1489POPC   C1B20995  24.110  18.901   8.651
 1489POPC   C2B20996  24.001  19.030   8.234
 1489POPC   C3B20997  24.018  19.116   7.788
 1489POPC   C4B20998  24.336  19.073   7.421
 1490POPC   NC320999  37.026  13.324   9.472
 1490POPC   PO421000  36.650  13.921   9.538
 1490POPC   GL121001  36.913  13.786   9.163
 1490POPC   GL221002  36.641  13.593   9.113
 1490POPC   C1A21003  37.095  13.469   8.833
 1490POPC   D2A21004  37.013  13.388   8.400
 1490POPC   C3A21005  37.283  13.477   8.044
 1490POPC   C4A21006  37.195  13.597   7.599
 1490POPC   C1B21007  36.700  13.755   8.686
 1490POPC   C2B21008  36.635  13.724   8.261
 1490POPC   C3B21009  36.789  13.512   7.914
 1490POPC   C4B21010  36.696  13.605   7.478
 1491POPC   NC321011  16.385   7.880   9.538
 1491POPC   PO421012  17.006   8.039   9.421
 1491POPC   GL121013  16.667   8.162   9.164
 1491POPC   GL221014  16.497   8.481   9.167
 1491POPC   C1A21015  16.733   8.256   8.733
 1491POPC   D2A21016  16.915   8.132   8.325
 1491POPC   C3A21017  16.734   8.089   7.908
 1491POPC   C4A21018  16.828   8.146   7.462
 1491POPC   C1B21019  16.300   8.557   8.776
 1491POPC   C2B21020  16.488   8.500   8.343
 1491POPC   C3B21021  16.379   8.486   7.901
 1491POPC   C4B21022  16.419   8.465   7.427
 1492POPC   NC321023   9.431  38.482   9.549
 1492POPC   PO421024   8.769  38.344   9.496
 1492POPC   GL121025   8.895  38.500   9.105
 1492POPC   GL221026   9.213  38.384   9.097
 1492POPC   C1A21027   8.929  38.387   8.651
 1492POPC   D2A21028   8.881  38.069   8.308
 1492POPC   C3A21029   8.953  38.304   7.933
 1492POPC   C4A21030   8.743  38.692   7.806
 1492POPC   C1B21031   9.463  38.410   8.688
 1492POPC   C2B21032   9.394  38.548   8.254
 1492POPC   C3B21033   9.366  38.608   7.789
 1492POPC   C4B21034   9.363  38.326   7.442
 1493POPC   NC321035  29.474  16.912   9.359
 1493POPC   PO421036  30.105  16.819   9.346
 1493POPC   GL121037  30.018  16.792   8.948
 1493POPC   GL221038  29.788  17.088   8.973
 1493POPC   C1A21039  30.027  16.743   8.482
 1493POPC   D2A21040  29.716  16.953   8.224
 1493POPC   C3A21041  29.769  16.944   7.762
 1493POPC   C4A21042  30.040  16.889   7.399
 1493POPC   C1B21043  30.122  17.234   8.688
 1493POPC   C2B21044  30.150  17.195   8.261
 1493POPC   C3B21045  30.255  16.866   8.001
 1493POPC   C4B21046  30.505  16.929   7.618
 1494POPC   NC321047  43.513  15.206   9.437
 1494POPC   PO421048  44.138  14.926   9.608
 1494POPC   GL121049  43.903  14.996   9.192
 1494POPC   GL221050  43.869  15.342   9.107
 1494POPC   C1A21051  43.763  15.025   8.727
 1494POPC   D2A21052  44.025  14.903   8.359
 1494POPC   C3A21053  43.897  14.991   7.935
 1494POPC   C4A21054  43.869  14.714   7.569
 1494POPC   C1B21055  43.831  15.548   8.734
 1494POPC   C2B21056  43.888  15.384   8.345
 1494POPC   C3B21057  44.100  15.453   7.981
 1494POPC   C4B21058  43.982  15.395   7.563
 1495POPC   NC321059  23.743  31.803   9.544
 1495POPC   PO421060  23.226  31.340   9.547
 1495POPC   GL121061  23.597  31.429   9.231
 1495POPC   GL221062  23.889  31.207   9.223
 1495POPC   C1A21063  23.830  31.577   8.849
 1495POPC   D2A21064  23.652  31.707   8.442
 1495POPC   C3A21065  23.861  31.630   8.070
 1495POPC   C4A21066  23.577  31.571   7.718
 1495POPC   C1B21067  23.581  31.114   8.833
 1495POPC   C2B21068  23.418  31.101   8.438
 1495POPC   C3B21069  23.497  31.258   8.092
 1495POPC   C4B21070  23.596  31.060   7.710
 1496POPC   NC321071  22.771  22.400   9.454
 1496POPC   PO421072  23.260  21.935   9.429
 1496POPC   GL121073  23.026  22.090   9.056
 1496POPC   GL221074  22.690  22.007   9.079
 1496POPC   C1A21075  22.857  22.211   8.635
 1496POPC   D2A21076  22.966  22.518   8.336
 1496POPC   C3A21077  22.733  22.499   7.978
 1496POPC   C4A21078  22.835  22.307   7.610
 1496POPC   C1B21079  22.737  21.707   8.762
 1496POPC   C2B21080  22.898  21.661   8.387
 1496POPC   C3B21081  22.987  21.968   8.087
 1496POPC   C4B21082  22.842  21.824   7.706
 1497POPC   NC321083  27.803   3.708   9.580
 1497POPC   PO421084  27.336   3.360   9.291
 1497POPC   GL121085  27.658   3.352   9.107
 1497POPC   GL221086  27.649   3.751   9.098
 1497POPC   C1A21087  27.540   3.194   8.687
 1497POPC   D2A21088  27.563   3.475   8.341
 1497POPC   C3A21089  27.382   3.458   7.936
 1497POPC   C4A21090  27.475   3.552   7.511
 1497POPC   C1B21091  27.870   3.611   8.744
 1497POPC   C2B21092  28.062   3.641   8.377
 1497POPC   C3B21093  27.859   3.729   8.000
 1497POPC   C4B21094  28.032   3.776   7.607
 1498POPC   NC321095   0.638  40.269   9.311
 1498POPC   PO421096   0.245  39.773   9.541
 1498POPC   GL121097   0.357  39.900   9.122
 1498POPC   GL221098   0.142  40.176   9.087
 1498POPC   C1A21099   0.495  39.771   8.717
 1498POPC   D2A21100   0.671  39.696   8.308
 1498POPC   C3A21101   0.440  39.867   7.956
 1498POPC   C4A21102   0.541  40.149   7.672
 1498POPC   C1B21103   0.116  40.304   8.645
 1498POPC   C2B21104   0.058  40.099   8.221
 1498POPC   C3B21105   0.049  40.228   7.775
 1498POPC   C4B21106   0.186  40.265   7.334
 1499POPC   NC321107  44.149  27.955   9.626
 1499POPC   PO421108  43.625  27.533   9.640
 1499POPC   GL121109  43.953  27.555   9.325
 1499POPC   GL221110  44.113  27.241   9.344
 1499POPC   C1A21111  43.959  27.784   8.927
 1499POPC   D2A21112  44.051  27.876   8.484
 1499POPC   C3A21113  43.779  27.697   8.169
 1499POPC   C4A21114  43.918  27.670   7.740
 1499POPC   C1B21115  44.260  27.195   8.937
 1499POPC   C2B21116  44.198  27.360   8.515
 1499POPC   C3B21117  44.126  27.317   8.076
 1499POPC   C4B21118  44.063  27.182   7.654
 1500POPC   NC321119  17.122  20.818   9.776
 1500POPC   PO421120  16.459  20.708   9.558
 1500POPC   GL121121  16.708  20.676   9.187
 1500POPC   GL221122  16.968  20.445   9.152
 1500POPC   C1A21123  16.848  20.765   8.747
 1500POPC   D2A21124  16.730  20.597   8.396
 1500POPC   C3A21125  16.940  20.715   8.040
 1500POPC   C4A21126  16.796  20.767   7.642
 1500POPC   C1B21127  16.737  20.238   8.832
 1500POPC   C2B21128  16.794  20.101   8.416
 1500POPC   C3B21129  16.672  20.257   8.016
 1500POPC   C4B21130  16.793  20.251   7.604
 1501POPC   NC321131  13.860   8.937   9.538
 1501POPC   PO421132  13.224   8.921   9.239
 1501POPC   GL121133  13.604   9.037   9.094
 1501POPC   GL221134  13.843   8.772   9.060
 1501POPC   C1A21135  13.730   9.129   8.692
 1501POPC   D2A21136  13.555   8.983   8.335
 1501POPC   C3A21137  13.722   9.218   7.995
 1501POPC   C4A21138  13.546   9.076   7.608
 1501POPC   C1B21139  13.558   8.596   8.742
 1501POPC   C2B21140  13.694   8.487   8.313
 1501POPC   C3B21141  13.775   8.723   7.940
 1501POPC   C4B21142  13.958   8.756   7.527
 1502POPC   NC321143  29.212  24.531   9.635
 1502POPC   PO421144  29.116  24.018   9.200
 1502POPC   GL121145  29.108  24.473   9.133
 1502POPC   GL221146  29.470  24.557   9.187
 1502POPC   C1A21147  28.996  24.653   8.712
 1502POPC   D2A21148  28.783  24.538   8.352
 1502POPC   C3A21149  29.042  24.426   8.039
 1502POPC   C4A21150  28.864  24.633   7.722
 1502POPC   C1B21151  29.448  24.412   8.779
 1502POPC   C2B21152  29.418  24.597   8.370
 1502POPC   C3B21153  29.590  24.620   7.957
 1502POPC   C4B21154  29.495  24.389   7.552
 1503POPC   NC321155   9.585   0.679   9.594
 1503POPC   PO421156   9.956   1.307   9.455
 1503POPC   GL121157   9.739   1.189   9.064
 1503POPC   GL221158   9.554   0.895   9.083
 1503POPC   C1A21159   9.689   1.097   8.635
 1503POPC   D2A21160   9.858   1.044   8.242
 1503POPC   C3A21161   9.704   1.031   7.851
 1503POPC   C4A21162   9.782   1.216   7.428
 1503POPC   C1B21163   9.229   0.931   8.713
 1503POPC   C2B21164   9.303   1.013   8.255
 1503POPC   C3B21165   9.223   0.998   7.821
 1503POPC   C4B21166   9.455   0.774   7.469
 1504POPC   NC321167  33.933  22.241   9.448
 1504POPC   PO421168  33.515  22.044   9.930
 1504POPC   GL121169  33.478  22.088   9.333
 1504POPC   GL221170  33.775  22.074   9.022
 1504POPC   C1A21171  33.368  22.283   8.876
 1504POPC   D2A21172  33.653  22.247   8.510
 1504POPC   C3A21173  33.451  22.198   8.086
 1504POPC   C4A21174  33.598  22.187   7.658
 1504POPC   C1B21175  34.048  21.868   8.738
 1504POPC   C2B21176  34.176  21.757   8.332
 1504POPC   C3B21177  34.053  21.941   7.918
 1504POPC   C4B21178  34.029  21.985   7.455
 1505POPC   NC321179  22.459  13.805   9.510
 1505POPC   PO421180  21.964  13.435   9.671
 1505POPC   GL121181  22.078  13.608   9.231
 1505POPC   GL221182  22.216  13.361   9.025
 1505POPC   C1A21183  22.193  13.819   8.806
 1505POPC   D2A21184  22.355  13.586   8.415
 1505POPC   C3A21185  22.119  13.580   8.031
 1505POPC   C4A21186  22.117  13.825   7.658
 1505POPC   C1B21187  21.994  13.364   8.691
 1505POPC   C2B21188  21.771  13.355   8.351
 1505POPC   C3B21189  21.797  13.170   7.978
 1505POPC   C4B21190  21.823  13.403   7.619
 1506POPC   NC321191  35.430  14.038   9.502
 1506POPC   PO421192  35.105  14.591   9.730
 1506POPC   GL121193  35.163  14.321   9.184
 1506POPC   GL221194  35.177  14.013   9.036
 1506POPC   C1A21195  35.114  14.428   8.695
 1506POPC   D2A21196  35.497  14.627   8.468
 1506POPC   C3A21197  35.562  14.650   8.007
 1506POPC   C4A21198  35.295  14.335   7.791
 1506POPC   C1B21199  35.557  14.270   8.855
 1506POPC   C2B21200  35.853  14.205   8.537
 1506POPC   C3B21201  35.834  14.228   8.098
 1506POPC   C4B21202  35.759  14.092   7.672
 1507POPC   NC321203  40.969  11.910   9.497
 1507POPC   PO421204  40.911  12.506   9.530
 1507POPC   GL121205  40.658  12.316   9.207
 1507POPC   GL221206  40.929  12.158   9.076
 1507POPC   C1A21207  40.546  12.189   8.768
 1507POPC   D2A21208  40.732  12.186   8.359
 1507POPC   C3A21209  40.432  11.981   8.154
 1507POPC   C4A21210  40.547  11.746   7.817
 1507POPC   C1B21211  41.056  12.323   8.740
 1507POPC   C2B21212  41.233  12.080   8.461
 1507POPC   C3B21213  41.462  12.094   8.121
 1507POPC   C4B21214  41.073  12.046   7.903
 1508POPC   NC321215  28.870  22.118   9.683
 1508POPC   PO421216  29.447  22.208   9.393
 1508POPC   GL121217  29.263  22.120   9.012
 1508POPC   GL221218  29.397  21.823   8.961
 1508POPC   C1A21219  29.078  22.293   8.642
 1508POPC   D2A21220  28.933  22.568   8.308
 1508POPC   C3A21221  29.099  22.452   7.894
 1508POPC   C4A21222  29.191  22.261   7.497
 1508POPC   C1B21223  29.137  21.750   8.641
 1508POPC   C2B21224  29.092  21.878   8.260
 1508POPC   C3B21225  29.322  21.816   7.945
 1508POPC   C4B21226  29.524  21.463   7.787
 1509POPC   NC321227  13.239   9.960   9.607
 1509POPC   PO421228  13.829   9.649   9.496
 1509POPC   GL121229  13.640   9.950   9.188
 1509POPC   GL221230  13.275  10.086   9.131
 1509POPC   C1A21231  13.850   9.937   8.786
 1509POPC   D2A21232  13.862   9.608   8.480
 1509POPC   C3A21233  13.748   9.742   8.055
 1509POPC   C4A21234  13.600   9.599   7.661
 1509POPC   C1B21235  13.313   9.851   8.778
 1509POPC   C2B21236  13.444   9.952   8.400
 1509POPC   C3B21237  13.270   9.896   7.997
 1509POPC   C4B21238  13.273  10.153   7.621
 1510POPC   NC321239  17.053  21.660   9.546
 1510POPC   PO421240  17.474  21.075   9.553
 1510POPC   GL121241  17.526  21.387   9.246
 1510POPC   GL221242  17.221  21.423   9.128
 1510POPC   C1A21243  17.627  21.364   8.794
 1510POPC   D2A21244  17.660  21.273   8.360
 1510POPC   C3A21245  17.571  21.578   8.063
 1510POPC   C4A21246  17.626  21.461   7.683
 1510POPC   C1B21247  17.132  21.257   8.729
 1510POPC   C2B21248  17.163  21.425   8.331
 1510POPC   C3B21249  17.156  21.273   7.907
 1510POPC   C4B21250  17.156  21.595   7.566
 1511POPC   NC321251  12.498  20.095   9.370
 1511POPC   PO421252  13.186  19.870   9.403
 1511POPC   GL121253  12.863  19.674   9.163
 1511POPC   GL221254  13.041  19.325   9.151
 1511POPC   C1A21255  12.623  19.815   8.775
 1511POPC   D2A21256  12.856  19.891   8.385
 1511POPC   C3A21257  12.664  19.740   7.996
 1511POPC   C4A21258  12.718  19.890   7.584
 1511POPC   C1B21259  12.881  19.381   8.716
 1511POPC   C2B21260  12.801  19.283   8.254
 1511POPC   C3B21261  12.914  19.337   7.787
 1511POPC   C4B21262  12.648  19.419   7.422
 1512POPC   NC321263  37.932  15.974   9.330
 1512POPC   PO421264  38.568  15.781   9.607
 1512POPC   GL121265  38.452  16.013   9.223
 1512POPC   GL221266  38.751  16.122   9.041
 1512POPC   C1A21267  38.287  15.963   8.781
 1512POPC   D2A21268  38.460  16.013   8.381
 1512POPC   C3A21269  38.252  15.977   7.981
 1512POPC   C4A21270  38.617  16.102   7.786
 1512POPC   C1B21271  38.693  15.664   8.901
 1512POPC   C2B21272  38.554  15.528   8.497
 1512POPC   C3B21273  38.647  15.640   8.063
 1512POPC   C4B21274  38.707  15.280   7.807
 1513POPC   NC321275  17.796  36.394   9.303
 1513POPC   PO421276  17.566  35.892   9.689
 1513POPC   GL121277  17.444  35.999   9.221
 1513POPC   GL221278  17.427  36.313   8.962
 1513POPC   C1A21279  17.576  35.843   8.784
 1513POPC   D2A21280  17.740  35.973   8.359
 1513POPC   C3A21281  17.659  35.792   7.956
 1513POPC   C4A21282  17.582  35.967   7.544
 1513POPC   C1B21283  17.832  36.369   8.671
 1513POPC   C2B21284  18.066  36.448   8.288
 1513POPC   C3B21285  17.887  36.278   7.931
 1513POPC   C4B21286  17.638  36.459   7.638
 1514POPC   NC321287  41.100  12.880   9.702
 1514POPC   PO421288  40.493  13.267   9.770
 1514POPC   GL121289  40.801  13.018   9.344
 1514POPC   GL221290  41.012  13.118   9.113
 1514POPC   C1A21291  40.710  12.761   8.923
 1514POPC   D2A21292  40.891  12.761   8.520
 1514POPC   C3A21293  40.656  12.663   8.134
 1514POPC   C4A21294  40.511  12.752   7.722
 1514POPC   C1B21295  41.089  13.331   8.762
 1514POPC   C2B21296  40.940  13.244   8.357
 1514POPC   C3B21297  41.062  12.933   8.061
 1514POPC   C4B21298  41.141  12.949   7.605
 1515POPC   NC321299  33.837   3.861   9.351
 1515POPC   PO421300  33.300   3.593   9.583
 1515POPC   GL121301  33.510   3.501   9.150
 1515POPC   GL221302  33.902   3.385   9.122
 1515POPC   C1A21303  33.647   3.600   8.709
 1515POPC   D2A21304  33.654   3.414   8.273
 1515POPC   C3A21305  33.681   3.574   7.844
 1515POPC   C4A21306  33.993   3.285   7.658
 1515POPC   C1B21307  34.133   3.662   8.814
 1515POPC   C2B21308  34.007   3.797   8.392
 1515POPC   C3B21309  34.149   3.670   8.022
 1515POPC   C4B21310  34.157   3.798   7.631
 1516POPC   NC321311  19.085  28.171   9.482
 1516POPC   PO421312  19.303  28.814   9.581
 1516POPC   GL121313  19.176  28.532   9.155
 1516POPC   GL221314  19.332  28.239   8.983
 1516POPC   C1A21315  18.824  28.282   8.863
 1516POPC   D2A21316  18.639  27.986   8.527
 1516POPC   C3A21317  18.827  28.039   8.093
 1516POPC   C4A21318  18.947  28.396   7.843
 1516POPC   C1B21319  19.240  28.484   8.654
 1516POPC   C2B21320  19.403  28.524   8.286
 1516POPC   C3B21321  19.401  28.220   8.001
 1516POPC   C4B21322  19.235  28.012   7.637
 1517POPC   NC321323  28.426  42.757   9.846
 1517POPC   PO421324  28.355  43.237   9.374
 1517POPC   GL121325  28.354  43.202   9.021
 1517POPC   GL221326  28.543  43.427   8.889
 1517POPC   C1A21327  28.142  43.068   8.682
 1517POPC   D2A21328  28.063  42.764   8.370
 1517POPC   C3A21329  28.133  42.963   8.014
 1517POPC   C4A21330  28.427  42.866   7.712
 1517POPC   C1B21331  28.659  42.991   8.705
 1517POPC   C2B21332  28.592  42.873   8.299
 1517POPC   C3B21333  28.656  43.201   8.006
 1517POPC   C4B21334  28.578  43.435   7.641
 1518POPC   NC321335  38.975   1.466   9.517
 1518POPC   PO421336  39.521   1.034   9.497
 1518POPC   GL121337  39.268   1.172   9.165
 1518POPC   GL221338  39.257   1.528   9.108
 1518POPC   C1A21339  39.119   1.061   8.755
 1518POPC   D2A21340  39.342   1.047   8.384
 1518POPC   C3A21341  39.192   1.158   7.995
 1518POPC   C4A21342  39.278   1.245   7.568
 1518POPC   C1B21343  39.466   1.429   8.729
 1518POPC   C2B21344  39.606   1.552   8.322
 1518POPC   C3B21345  39.463   1.579   7.910
 1518POPC   C4B21346  39.632   1.581   7.453
 1519POPC   NC321347  33.510  23.013   9.335
 1519POPC   PO421348  34.081  22.668   9.586
 1519POPC   GL121349  33.869  22.673   9.184
 1519POPC   GL221350  34.027  23.007   9.137
 1519POPC   C1A21351  33.752  22.773   8.746
 1519POPC   D2A21352  33.982  22.993   8.419
 1519POPC   C3A21353  33.987  22.753   8.051
 1519POPC   C4A21354  33.657  22.669   7.789
 1519POPC   C1B21355  33.916  23.294   8.813
 1519POPC   C2B21356  33.571  23.380   8.559
 1519POPC   C3B21357  33.628  23.247   8.150
 1519POPC   C4B21358  33.761  23.170   7.752
 1520POPC   NC321359  34.340  29.366   9.431
 1520POPC   PO421360  34.751  28.861   9.626
 1520POPC   GL121361  34.791  29.122   9.238
 1520POPC   GL221362  34.761  29.506   9.202
 1520POPC   C1A21363  34.669  29.093   8.795
 1520POPC   D2A21364  34.407  29.255   8.446
 1520POPC   C3A21365  34.597  29.036   8.101
 1520POPC   C4A21366  34.485  28.938   7.698
 1520POPC   C1B21367  34.580  29.593   8.801
 1520POPC   C2B21368  34.830  29.514   8.413
 1520POPC   C3B21369  34.706  29.546   7.985
 1520POPC   C4B21370  34.896  29.537   7.584
 1521POPC   NC321371  11.672  17.095   9.861
 1521POPC   PO421372  11.211  17.375   9.474
 1521POPC   GL121373  11.242  17.497   9.065
 1521POPC   GL221374  10.874  17.488   9.032
 1521POPC   C1A21375  11.457  17.342   8.709
 1521POPC   D2A21376  11.356  17.158   8.322
 1521POPC   C3A21377  11.521  17.375   7.958
 1521POPC   C4A21378  11.596  17.393   7.527
 1521POPC   C1B21379  11.003  17.818   8.742
 1521POPC   C2B21380  11.194  17.654   8.380
 1521POPC   C3B21381  11.018  17.428   8.035
 1521POPC   C4B21382  10.976  17.544   7.598
 1522POPC   NC321383   4.290  29.339   9.576
 1522POPC   PO421384   4.483  29.949   9.423
 1522POPC   GL121385   4.381  29.828   9.056
 1522POPC   GL221386   4.140  29.605   9.121
 1522POPC   C1A21387   4.515  29.962   8.676
 1522POPC   D2A21388   4.385  30.284   8.421
 1522POPC   C3A21389   4.492  30.205   7.985
 1522POPC   C4A21390   4.163  30.019   7.745
 1522POPC   C1B21391   4.032  29.694   8.686
 1522POPC   C2B21392   4.260  29.788   8.262
 1522POPC   C3B21393   4.137  29.537   7.917
 1522POPC   C4B21394   3.962  29.496   7.548
 1523POPC   NC321395   2.584  36.723   9.481
 1523POPC   PO421396   2.921  37.303   9.444
 1523POPC   GL121397   2.705  37.189   9.069
 1523POPC   GL221398   2.571  36.855   9.000
 1523POPC   C1A21399   2.655  37.178   8.618
 1523POPC   D2A21400   2.858  36.950   8.318
 1523POPC   C3A21401   2.977  37.156   7.936
 1523POPC   C4A21402   2.837  36.906   7.612
 1523POPC   C1B21403   2.363  36.708   8.638
 1523POPC   C2B21404   2.393  36.423   8.295
 1523POPC   C3B21405   2.619  36.622   8.006
 1523POPC   C4B21406   2.466  37.026   7.958
 1524POPC   NC321407  35.310  30.580   9.433
 1524POPC   PO421408  35.824  31.028   9.494
 1524POPC   GL121409  35.508  30.927   9.141
 1524POPC   GL221410  35.175  31.025   9.055
 1524POPC   C1A21411  35.457  30.606   8.818
 1524POPC   D2A21412  35.439  30.761   8.431
 1524POPC   C3A21413  35.433  30.960   8.063
 1524POPC   C4A21414  35.318  30.994   7.654
 1524POPC   C1B21415  34.982  30.758   8.734
 1524POPC   C2B21416  34.986  30.548   8.350
 1524POPC   C3B21417  35.147  30.503   7.976
 1524POPC   C4B21418  35.030  30.567   7.545
 1525POPC   NC321419  16.286  21.397   9.312
 1525POPC   PO421420  16.893  21.206   9.568
 1525POPC   GL121421  16.725  21.202   9.143
 1525POPC   GL221422  16.738  21.530   9.060
 1525POPC   C1A21423  16.625  21.237   8.694
 1525POPC   D2A21424  16.788  21.103   8.333
 1525POPC   C3A21425  16.581  21.136   7.966
 1525POPC   C4A21426  16.752  21.263   7.559
 1525POPC   C1B21427  16.928  21.716   8.741
 1525POPC   C2B21428  16.727  21.729   8.349
 1525POPC   C3B21429  16.759  21.626   7.929
 1525POPC   C4B21430  16.678  21.770   7.516
 1526POPC   NC321431   9.177  32.093   9.432
 1526POPC   PO421432   8.548  31.899   9.275
 1526POPC   GL121433   8.814  32.161   9.038
 1526POPC   GL221434   8.672  32.508   9.009
 1526POPC   C1A21435   8.859  32.103   8.594
 1526POPC   D2A21436   8.702  32.384   8.308
 1526POPC   C3A21437   8.828  32.319   7.904
 1526POPC   C4A21438   8.561  32.315   7.575
 1526POPC   C1B21439   9.085  32.530   8.740
 1526POPC   C2B21440   9.222  32.381   8.332
 1526POPC   C3B21441   9.289  32.573   7.953
 1526POPC   C4B21442   9.081  32.713   7.621
 1527POPC   NC321443  36.999  34.324   9.574
 1527POPC   PO421444  36.732  34.928   9.485
 1527POPC   GL121445  37.066  34.699   9.230
 1527POPC   GL221446  36.836  34.656   9.011
 1527POPC   C1A21447  37.269  34.541   8.812
 1527POPC   D2A21448  37.322  34.509   8.381
 1527POPC   C3A21449  36.997  34.382   8.096
 1527POPC   C4A21450  37.137  34.503   7.711
 1527POPC   C1B21451  36.923  34.881   8.656
 1527POPC   C2B21452  36.737  34.794   8.281
 1527POPC   C3B21453  36.891  34.892   7.906
 1527POPC   C4B21454  36.873  34.825   7.421
 1528POPC   NC321455  18.692   0.030   9.447
 1528POPC   PO421456  19.086   0.513   9.721
 1528POPC   GL121457  18.928   0.519   9.295
 1528POPC   GL221458  19.080   0.263   9.206
 1528POPC   C1A21459  18.828   0.544   8.841
 1528POPC   D2A21460  19.045   0.665   8.452
 1528POPC   C3A21461  18.888   0.545   8.024
 1528POPC   C4A21462  18.830   0.859   7.699
 1528POPC   C1B21463  19.230   0.219   8.791
 1528POPC   C2B21464  19.038   0.153   8.410
 1528POPC   C3B21465  19.067   0.058   7.997
 1528POPC   C4B21466  18.776   0.109   7.679
 1529POPC   NC321467   0.701  39.525   9.493
 1529POPC   PO421468   0.684  38.904   9.309
 1529POPC   GL121469   0.534  39.112   8.991
 1529POPC   GL221470   0.372  39.396   9.107
 1529POPC   C1A21471   0.653  39.275   8.611
 1529POPC   D2A21472   0.457  39.192   8.254
 1529POPC   C3A21473   0.636  39.393   7.911
 1529POPC   C4A21474   0.650  39.034   7.800
 1529POPC   C1B21475   0.163  39.365   8.690
 1529POPC   C2B21476   0.147  39.576   8.263
 1529POPC   C3B21477   0.133  39.340   7.825
 1529POPC   C4B21478   0.051  39.359   7.345
 1530POPC   NC321479  29.526  20.225   9.479
 1530POPC   PO421480  28.917  20.588   9.516
 1530POPC   GL121481  29.099  20.664   9.112
 1530POPC   GL221482  29.341  20.407   9.033
 1530POPC   C1A21483  29.343  20.833   8.746
 1530POPC   D2A21484  29.352  20.695   8.319
 1530POPC   C3A21485  29.024  20.728   8.020
 1530POPC   C4A21486  29.283  20.907   7.770
 1530POPC   C1B21487  29.074  20.400   8.654
 1530POPC   C2B21488  29.067  20.261   8.259
 1530POPC   C3B21489  28.945  20.082   7.911
 1530POPC   C4B21490  29.018  20.320   7.568
 1531POPC   NC321491  12.777   6.493   9.425
 1531POPC   PO421492  12.641   7.139   9.338
 1531POPC   GL121493  12.591   6.828   9.068
 1531POPC   GL221494  12.935   6.775   9.005
 1531POPC   C1A21495  12.568   6.829   8.647
 1531POPC   D2A21496  12.913   6.906   8.389
 1531POPC   C3A21497  12.685   6.916   8.029
 1531POPC   C4A21498  12.828   6.728   7.684
 1531POPC   C1B21499  13.247   6.657   8.694
 1531POPC   C2B21500  13.239   6.457   8.295
 1531POPC   C3B21501  13.262   6.610   7.891
 1531POPC   C4B21502  13.526   6.564   7.504
 1532POPC   NC321503  17.804  36.294   9.820
 1532POPC   PO421504  18.456  36.175   9.560
 1532POPC   GL121505  18.370  36.016   9.188
 1532POPC   GL221506  18.245  36.325   9.078
 1532POPC   C1A21507  18.110  35.907   8.818
 1532POPC   D2A21508  18.243  35.997   8.427
 1532POPC   C3A21509  18.141  35.841   8.052
 1532POPC   C4A21510  18.077  35.919   7.627
 1532POPC   C1B21511  18.546  36.236   8.750
 1532POPC   C2B21512  18.592  36.357   8.333
 1532POPC   C3B21513  18.421  36.265   7.930
 1532POPC   C4B21514  18.594  36.506   7.643
 1533POPC   NC321515  23.283  25.873   9.490
 1533POPC   PO421516  22.779  26.313   9.699
 1533POPC   GL121517  22.794  26.008   9.363
 1533POPC   GL221518  23.008  26.254   9.226
 1533POPC   C1A21519  22.830  25.848   8.923
 1533POPC   D2A21520  22.694  25.859   8.473
 1533POPC   C3A21521  22.955  25.816   8.071
 1533POPC   C4A21522  22.869  25.841   7.622
 1533POPC   C1B21523  23.130  26.247   8.819
 1533POPC   C2B21524  23.060  26.220   8.391
 1533POPC   C3B21525  22.949  26.335   7.944
 1533POPC   C4B21526  23.131  26.273   7.534
 1534POPC   NC321527  31.564   6.829   9.816
 1534POPC   PO421528  31.897   6.965   9.310
 1534POPC   GL121529  31.652   6.693   9.063
 1534POPC   GL221530  31.291   6.632   9.004
 1534POPC   C1A21531  31.702   6.575   8.655
 1534POPC   D2A21532  31.362   6.464   8.380
 1534POPC   C3A21533  31.545   6.523   8.008
 1534POPC   C4A21534  31.669   6.875   7.782
 1534POPC   C1B21535  31.002   6.338   8.747
 1534POPC   C2B21536  30.933   6.175   8.305
 1534POPC   C3B21537  31.040   6.439   7.947
 1534POPC   C4B21538  31.172   6.879   7.851
 1535POPC   NC321539  42.648  25.364   9.518
 1535POPC   PO421540  42.123  24.929   9.328
 1535POPC   GL121541  42.469  25.119   9.053
 1535POPC   GL221542  42.507  25.489   9.041
 1535POPC   C1A21543  42.641  25.241   8.619
 1535POPC   D2A21544  42.497  25.496   8.270
 1535POPC   C3A21545  42.291  25.312   7.888
 1535POPC   C4A21546  42.096  25.013   7.604
 1535POPC   C1B21547  42.229  25.619   8.737
 1535POPC   C2B21548  42.140  25.844   8.363
 1535POPC   C3B21549  41.943  25.809   7.994
 1535POPC   C4B21550  42.052  25.718   7.584
 1536POPC   NC321551  10.473   7.067   9.414
 1536POPC   PO421552  10.463   6.447   9.632
 1536POPC   GL121553  10.604   6.437   9.161
 1536POPC   GL221554  10.488   6.747   9.010
 1536POPC   C1A21555  10.749   6.451   8.705
 1536POPC   D2A21556  10.882   6.738   8.376
 1536POPC   C3A21557  10.828   6.524   7.980
 1536POPC   C4A21558  10.725   6.449   7.548
 1536POPC   C1B21559  10.438   7.139   8.766
 1536POPC   C2B21560  10.346   7.262   8.363
 1536POPC   C3B21561  10.537   7.022   8.029
 1536POPC   C4B21562  10.721   6.965   7.665
 1537POPC   NC321563  10.729   2.699   9.781
 1537POPC   PO421564  10.306   2.967   9.369
 1537POPC   GL121565  10.443   2.884   8.998
 1537POPC   GL221566  10.636   2.611   9.089
 1537POPC   C1A21567  10.431   2.832   8.568
 1537POPC   D2A21568  10.202   2.698   8.221
 1537POPC   C3A21569  10.223   2.946   7.878
 1537POPC   C4A21570  10.555   3.032   7.685
 1537POPC   C1B21571  10.852   2.549   8.712
 1537POPC   C2B21572  10.725   2.521   8.285
 1537POPC   C3B21573  10.635   2.546   7.868
 1537POPC   C4B21574  10.848   2.666   7.484
 1538POPC   NC321575  42.777   1.241   9.601
 1538POPC   PO421576  42.102   1.049   9.594
 1538POPC   GL121577  42.221   0.983   9.151
 1538POPC   GL221578  42.593   1.006   9.129
 1538POPC   C1A21579  42.106   1.139   8.732
 1538POPC   D2A21580  42.025   1.479   8.450
 1538POPC   C3A21581  42.008   1.319   8.027
 1538POPC   C4A21582  42.097   1.635   7.712
 1538POPC   C1B21583  42.549   0.890   8.691
 1538POPC   C2B21584  42.443   1.186   8.338
 1538POPC   C3B21585  42.497   1.237   7.910
 1538POPC   C4B21586  42.753   1.053   7.636
 1539POPC   NC321587   0.893   7.430   9.457
 1539POPC   PO421588   1.506   7.697   9.497
 1539POPC   GL121589   1.261   7.597   9.128
 1539POPC   GL221590   0.987   7.403   8.965
 1539POPC   C1A21591   1.363   7.630   8.719
 1539POPC   D2A21592   1.151   7.550   8.365
 1539POPC   C3A21593   1.386   7.556   8.010
 1539POPC   C4A21594   1.474   7.434   7.551
 1539POPC   C1B21595   0.957   7.063   8.707
 1539POPC   C2B21596   1.192   7.028   8.364
 1539POPC   C3B21597   1.425   7.062   8.031
 1539POPC   C4B21598   1.294   6.927   7.696
 1540POPC   NC321599  33.301  23.672   9.199
 1540POPC   PO421600  32.645  23.935   9.248
 1540POPC   GL121601  32.819  23.623   8.992
 1540POPC   GL221602  32.681  23.347   9.112
 1540POPC   C1A21603  32.958  23.714   8.579
 1540POPC   D2A21604  32.794  24.075   8.354
 1540POPC   C3A21605  32.762  24.015   7.923
 1540POPC   C4A21606  33.115  23.850   7.743
 1540POPC   C1B21607  32.914  23.178   8.715
 1540POPC   C2B21608  33.100  23.283   8.330
 1540POPC   C3B21609  32.862  23.538   8.067
 1540POPC   C4B21610  32.789  23.436   7.632
 1541POPC   NC321611  28.947  19.410   9.510
 1541POPC   PO421612  29.511  18.969   9.460
 1541POPC   GL121613  29.257  19.142   9.168
 1541POPC   GL221614  28.970  18.931   9.232
 1541POPC   C1A21615  29.338  19.086   8.744
 1541POPC   D2A21616  29.261  19.287   8.369
 1541POPC   C3A21617  29.351  19.039   8.041
 1541POPC   C4A21618  29.241  19.027   7.626
 1541POPC   C1B21619  28.828  18.997   8.825
 1541POPC   C2B21620  28.982  18.856   8.427
 1541POPC   C3B21621  28.865  18.936   8.018
 1541POPC   C4B21622  28.745  18.905   7.608
 1542POPC   NC321623  16.299  39.807   9.564
 1542POPC   PO421624  15.915  40.363   9.552
 1542POPC   GL121625  16.159  40.166   9.232
 1542POPC   GL221626  15.994  39.833   9.146
 1542POPC   C1A21627  16.357  40.173   8.839
 1542POPC   D2A21628  16.282  40.328   8.428
 1542POPC   C3A21629  16.291  40.060   8.059
 1542POPC   C4A21630  16.178  40.220   7.642
 1542POPC   C1B21631  16.305  39.588   8.887
 1542POPC   C2B21632  16.458  39.602   8.412
 1542POPC   C3B21633  16.256  39.524   7.996
 1542POPC   C4B21634  15.912  39.726   7.732
 1543POPC   NC321635  35.858  20.374   9.437
 1543POPC   PO421636  36.390  20.728   9.637
 1543POPC   GL121637  36.286  20.622   9.181
 1543POPC   GL221638  36.175  20.296   9.045
 1543POPC   C1A21639  36.380  20.633   8.708
 1543POPC   D2A21640  36.557  20.756   8.283
 1543POPC   C3A21641  36.353  20.509   7.921
 1543POPC   C4A21642  36.348  20.481   7.471
 1543POPC   C1B21643  35.856  20.453   8.726
 1543POPC   C2B21644  35.545  20.471   8.385
 1543POPC   C3B21645  35.624  20.326   7.969
 1543POPC   C4B21646  35.901  20.313   7.618
 1544POPC   NC321647  25.860  13.458   9.407
 1544POPC   PO421648  25.137  13.574   9.463
 1544POPC   GL121649  25.416  13.473   9.124
 1544POPC   GL221650  25.637  13.717   8.977
 1544POPC   C1A21651  25.259  13.335   8.735
 1544POPC   D2A21652  24.955  13.448   8.398
 1544POPC   C3A21653  25.213  13.373   8.018
 1544POPC   C4A21654  25.293  13.604   7.618
 1544POPC   C1B21655  25.293  13.851   8.708
 1544POPC   C2B21656  25.102  13.958   8.332
 1544POPC   C3B21657  25.295  13.960   7.970
 1544POPC   C4B21658  25.335  14.137   7.558
 1545POPC   NC321659  24.593  13.288   9.402
 1545POPC   PO421660  24.355  13.901   9.275
 1545POPC   GL121661  24.507  13.601   9.018
 1545POPC   GL221662  24.883  13.578   9.008
 1545POPC   C1A21663  24.370  13.518   8.644
 1545POPC   D2A21664  24.371  13.315   8.292
 1545POPC   C3A21665  24.327  13.539   7.966
 1545POPC   C4A21666  24.442  13.861   7.722
 1545POPC   C1B21667  24.749  13.903   8.695
 1545POPC   C2B21668  24.600  13.872   8.261
 1545POPC   C3B21669  24.850  13.689   7.921
 1545POPC   C4B21670  24.820  13.464   7.507
 1546POPC   NC321671  10.199   2.502   9.356
 1546POPC   PO421672   9.656   2.864   9.444
 1546POPC   GL121673   9.825   2.684   9.066
 1546POPC   GL221674   9.612   2.426   8.909
 1546POPC   C1A21675   9.939   2.719   8.660
 1546POPC   D2A21676   9.747   2.992   8.355
 1546POPC   C3A21677   9.737   2.818   7.958
 1546POPC   C4A21678   9.986   2.447   7.825
 1546POPC   C1B21679   9.422   2.694   8.600
 1546POPC   C2B21680   9.230   2.616   8.227
 1546POPC   C3B21681   9.393   2.428   7.861
 1546POPC   C4B21682   9.496   2.427   7.426
 1547POPC   NC321683   4.177  36.006   9.490
 1547POPC   PO421684   4.804  35.849   9.200
 1547POPC   GL121685   4.496  36.099   9.001
 1547POPC   GL221686   4.174  36.183   9.031
 1547POPC   C1A21687   4.572  36.175   8.601
 1547POPC   D2A21688   4.430  36.070   8.223
 1547POPC   C3A21689   4.557  36.222   7.823
 1547POPC   C4A21690   4.314  36.369   7.449
 1547POPC   C1B21691   3.967  36.322   8.695
 1547POPC   C2B21692   4.036  36.464   8.298
 1547POPC   C3B21693   4.064  36.239   7.907
 1547POPC   C4B21694   3.997  35.959   7.583
 1548POPC   NC321695  32.335  15.136   9.844
 1548POPC   PO421696  31.791  14.953   9.669
 1548POPC   GL121697  32.026  14.853   9.275
 1548POPC   GL221698  32.348  15.055   9.216
 1548POPC   C1A21699  32.117  14.824   8.829
 1548POPC   D2A21700  32.069  15.096   8.443
 1548POPC   C3A21701  32.172  14.956   8.013
 1548POPC   C4A21702  32.114  14.964   7.534
 1548POPC   C1B21703  32.454  15.210   8.753
 1548POPC   C2B21704  32.522  15.280   8.265
 1548POPC   C3B21705  32.644  15.138   7.806
 1548POPC   C4B21706  32.505  15.254   7.329
 1549POPC   NC321707   6.912  42.322   9.535
 1549POPC   PO421708   6.270  42.139   9.281
 1549POPC   GL121709   6.717  42.218   9.081
 1549POPC   GL221710   6.974  42.561   9.107
 1549POPC   C1A21711   6.759  42.386   8.687
 1549POPC   D2A21712   6.631  42.513   8.296
 1549POPC   C3A21713   6.703  42.210   7.974
 1549POPC   C4A21714   6.421  42.067   7.722
 1549POPC   C1B21715   7.235  42.596   8.745
 1549POPC   C2B21716   7.146  42.479   8.353
 1549POPC   C3B21717   7.035  42.579   7.931
 1549POPC   C4B21718   6.860  42.511   7.531
 1550POPC   NC321719  38.657  28.793   9.574
 1550POPC   PO421720  38.505  29.493   9.508
 1550POPC   GL121721  38.437  29.206   9.187
 1550POPC   GL221722  38.183  29.507   9.091
 1550POPC   C1A21723  38.410  29.063   8.793
 1550POPC   D2A21724  38.524  29.347   8.464
 1550POPC   C3A21725  38.507  29.204   8.060
 1550POPC   C4A21726  38.645  29.412   7.699
 1550POPC   C1B21727  38.045  29.407   8.685
 1550POPC   C2B21728  38.053  29.459   8.233
 1550POPC   C3B21729  38.145  29.443   7.813
 1550POPC   C4B21730  38.284  29.106   7.526
 1551POPC   NC321731  42.499  10.489   9.496
 1551POPC   PO421732  42.194   9.898   9.698
 1551POPC   GL121733  42.084  10.259   9.307
 1551POPC   GL221734  42.156  10.628   9.146
 1551POPC   C1A21735  42.185  10.251   8.831
 1551POPC   D2A21736  42.276  10.342   8.402
 1551POPC   C3A21737  42.034  10.404   8.024
 1551POPC   C4A21738  42.167  10.380   7.569
 1551POPC   C1B21739  42.510  10.642   8.792
 1551POPC   C2B21740  42.569  10.743   8.318
 1551POPC   C3B21741  42.520  10.474   7.928
 1551POPC   C4B21742  42.633  10.696   7.498
 1552POPC   NC321743  20.784   2.381   9.358
 1552POPC   PO421744  20.470   3.021   9.555
 1552POPC   GL121745  20.513   2.927   9.137
 1552POPC   GL221746  20.847   2.832   9.105
 1552POPC   C1A21747  20.448   2.879   8.694
 1552POPC   D2A21748  20.333   2.947   8.278
 1552POPC   C3A21749  20.506   2.716   7.915
 1552POPC   C4A21750  20.514   2.455   7.507
 1552POPC   C1B21751  20.901   2.649   8.727
 1552POPC   C2B21752  20.867   2.913   8.365
 1552POPC   C3B21753  20.982   3.021   7.973
 1552POPC   C4B21754  20.896   2.761   7.592
 1553POPC   NC321755   3.338  13.180   9.530
 1553POPC   PO421756   3.706  12.616   9.588
 1553POPC   GL121757   3.653  12.876   9.203
 1553POPC   GL221758   3.309  12.943   9.082
 1553POPC   C1A21759   3.700  12.885   8.753
 1553POPC   D2A21760   3.447  12.921   8.404
 1553POPC   C3A21761   3.627  12.974   8.005
 1553POPC   C4A21762   3.757  12.706   7.688
 1553POPC   C1B21763   3.100  12.748   8.741
 1553POPC   C2B21764   2.904  12.793   8.369
 1553POPC   C3B21765   3.154  12.797   8.000
 1553POPC   C4B21766   3.281  12.862   7.584
 1554POPC   NC321767  21.970  10.311   9.558
 1554POPC   PO421768  22.659  10.414   9.537
 1554POPC   GL121769  22.332  10.323   9.197
 1554POPC   GL221770  22.069  10.636   9.175
 1554POPC   C1A21771  22.250  10.393   8.753
 1554POPC   D2A21772  22.255  10.636   8.371
 1554POPC   C3A21773  22.301  10.447   7.960
 1554POPC   C4A21774  22.557  10.348   7.606
 1554POPC   C1B21775  21.843  10.710   8.781
 1554POPC   C2B21776  21.818  10.907   8.364
 1554POPC   C3B21777  21.810  10.666   7.945
 1554POPC   C4B21778  21.741  10.220   7.772
 1555POPC   NC321779  12.576  14.950   9.450
 1555POPC   PO421780  13.068  15.424   9.563
 1555POPC   GL121781  12.796  15.386   9.222
 1555POPC   GL221782  12.953  15.095   9.081
 1555POPC   C1A21783  12.639  15.395   8.802
 1555POPC   D2A21784  12.798  15.577   8.414
 1555POPC   C3A21785  12.717  15.333   8.061
 1555POPC   C4A21786  13.001  15.141   7.767
 1555POPC   C1B21787  13.082  15.183   8.641
 1555POPC   C2B21788  13.027  14.946   8.257
 1555POPC   C3B21789  13.138  14.680   7.909
 1555POPC   C4B21790  13.125  14.720   7.437
 1556POPC   NC321791  32.681   5.503   9.665
 1556POPC   PO421792  33.168   5.943   9.539
 1556POPC   GL121793  32.955   5.722   9.236
 1556POPC   GL221794  32.875   6.012   9.032
 1556POPC   C1A21795  33.075   5.579   8.825
 1556POPC   D2A21796  33.292   5.524   8.452
 1556POPC   C3A21797  33.052   5.724   8.133
 1556POPC   C4A21798  33.054   5.664   7.697
 1556POPC   C1B21799  32.926   6.005   8.573
 1556POPC   C2B21800  33.160   6.235   8.256
 1556POPC   C3B21801  33.039   6.321   7.819
 1556POPC   C4B21802  32.790   6.111   7.497
 1557POPC   NC321803  28.475  17.916   9.504
 1557POPC   PO421804  28.205  17.206   9.531
 1557POPC   GL121805  28.374  17.477   9.229
 1557POPC   GL221806  28.147  17.700   9.153
 1557POPC   C1A21807  28.590  17.614   8.841
 1557POPC   D2A21808  28.639  17.369   8.449
 1557POPC   C3A21809  28.406  17.515   8.066
 1557POPC   C4A21810  28.425  17.189   7.721
 1557POPC   C1B21811  28.069  17.677   8.743
 1557POPC   C2B21812  28.054  17.844   8.326
 1557POPC   C3B21813  27.905  17.966   7.904
 1557POPC   C4B21814  28.058  17.631   7.690
 1558POPC   NC321815  36.005  30.533   9.626
 1558POPC   PO421816  36.556  30.917   9.427
 1558POPC   GL121817  36.311  30.628   9.193
 1558POPC   GL221818  35.961  30.700   9.129
 1558POPC   C1A21819  36.319  30.571   8.761
 1558POPC   D2A21820  36.555  30.430   8.414
 1558POPC   C3A21821  36.400  30.673   8.077
 1558POPC   C4A21822  36.295  30.743   7.667
 1558POPC   C1B21823  35.889  30.860   8.728
 1558POPC   C2B21824  35.946  30.638   8.388
 1558POPC   C3B21825  35.676  30.448   8.108
 1558POPC   C4B21826  35.582  30.546   7.716
 1559POPC   NC321827  41.944  30.824   9.447
 1559POPC   PO421828  42.270  30.201   9.510
 1559POPC   GL121829  42.059  30.410   9.146
 1559POPC   GL221830  42.292  30.689   9.096
 1559POPC   C1A21831  41.971  30.586   8.684
 1559POPC   D2A21832  42.105  30.694   8.225
 1559POPC   C3A21833  41.962  30.894   7.817
 1559POPC   C4A21834  42.141  30.820   7.384
 1559POPC   C1B21835  42.467  30.688   8.667
 1559POPC   C2B21836  42.587  30.847   8.265
 1559POPC   C3B21837  42.499  30.848   7.847
 1559POPC   C4B21838  42.658  30.966   7.457
 1560POPC   NC321839  15.571   9.196   9.598
 1560POPC   PO421840  15.152   8.631   9.502
 1560POPC   GL121841  15.313   8.906   9.188
 1560POPC   GL221842  15.165   9.236   9.091
 1560POPC   C1A21843  15.431   8.979   8.744
 1560POPC   D2A21844  15.216   8.920   8.351
 1560POPC   C3A21845  15.472   8.927   7.957
 1560POPC   C4A21846  15.316   8.914   7.521
 1560POPC   C1B21847  14.936   9.263   8.682
 1560POPC   C2B21848  14.759   9.131   8.274
 1560POPC   C3B21849  14.992   9.081   7.901
 1560POPC   C4B21850  15.257   9.388   7.681
 1561POPC   NC321851  38.955  44.052   9.428
 1561POPC   PO421852  38.471  43.557   9.459
 1561POPC   GL121853  38.502  43.692   9.072
 1561POPC   GL221854  38.496  44.042   9.163
 1561POPC   C1A21855  38.280  43.856   8.709
 1561POPC   D2A21856  38.385  44.124   8.355
 1561POPC   C3A21857  38.339  43.939   7.932
 1561POPC   C4A21858  38.375  43.717   7.512
 1561POPC   C1B21859  38.748  44.070   8.798
 1561POPC   C2B21860  38.881  44.026   8.396
 1561POPC   C3B21861  38.780  44.190   8.019
 1561POPC   C4B21862  38.724  44.061   7.623
 1562POPC   NC321863  37.559  31.940   9.478
 1562POPC   PO421864  37.852  32.535   9.616
 1562POPC   GL121865  37.804  32.413   9.135
 1562POPC   GL221866  37.580  32.102   9.007
 1562POPC   C1A21867  37.920  32.292   8.702
 1562POPC   D2A21868  37.744  32.032   8.385
 1562POPC   C3A21869  37.969  32.132   8.016
 1562POPC   C4A21870  37.850  31.999   7.649
 1562POPC   C1B21871  37.406  32.364   8.690
 1562POPC   C2B21872  37.272  32.264   8.271
 1562POPC   C3B21873  37.524  32.402   7.890
 1562POPC   C4B21874  37.535  32.326   7.437
 1563POPC   NC321875  18.442  22.139   9.440
 1563POPC   PO421876  17.844  21.720   9.536
 1563POPC   GL121877  18.013  22.031   9.192
 1563POPC   GL221878  18.337  21.943   9.000
 1563POPC   C1A21879  18.035  22.303   8.821
 1563POPC   D2A21880  17.893  22.166   8.414
 1563POPC   C3A21881  17.893  22.374   8.019
 1563POPC   C4A21882  17.966  22.260   7.594
 1563POPC   C1B21883  18.404  22.044   8.570
 1563POPC   C2B21884  18.299  22.039   8.124
 1563POPC   C3B21885  18.459  22.235   7.756
 1563POPC   C4B21886  18.741  22.231   7.403
 1564POPC   NC321887  12.564   1.738   9.688
 1564POPC   PO421888  12.798   2.311   9.383
 1564POPC   GL121889  12.614   2.061   9.077
 1564POPC   GL221890  12.640   1.679   9.106
 1564POPC   C1A21891  12.627   2.050   8.673
 1564POPC   D2A21892  12.902   2.126   8.380
 1564POPC   C3A21893  12.684   2.186   8.012
 1564POPC   C4A21894  12.545   2.015   7.643
 1564POPC   C1B21895  12.916   1.622   8.735
 1564POPC   C2B21896  12.889   1.613   8.314
 1564POPC   C3B21897  12.929   1.742   7.897
 1564POPC   C4B21898  12.837   1.671   7.447
 1565POPC   NC321899  17.211  28.809   9.427
 1565POPC   PO421900  17.678  28.349   9.583
 1565POPC   GL121901  17.441  28.292   9.198
 1565POPC   GL221902  17.503  28.606   9.063
 1565POPC   C1A21903  17.315  28.271   8.742
 1565POPC   D2A21904  17.545  28.480   8.396
 1565POPC   C3A21905  17.360  28.474   7.981
 1565POPC   C4A21906  17.233  28.156   7.640
 1565POPC   C1B21907  17.751  28.820   8.725
 1565POPC   C2B21908  17.882  28.875   8.287
 1565POPC   C3B21909  17.703  28.924   7.895
 1565POPC   C4B21910  17.681  28.604   7.611
 1566POPC   NC321911  34.369  15.827   9.528
 1566POPC   PO421912  34.921  16.224   9.499
 1566POPC   GL121913  34.655  16.067   9.187
 1566POPC   GL221914  34.683  15.712   9.169
 1566POPC   C1A21915  34.538  16.124   8.794
 1566POPC   D2A21916  34.562  16.382   8.464
 1566POPC   C3A21917  34.480  16.102   8.119
 1566POPC   C4A21918  34.438  15.926   7.726
 1566POPC   C1B21919  34.413  15.625   8.822
 1566POPC   C2B21920  34.228  15.666   8.427
 1566POPC   C3B21921  34.070  15.655   8.013
 1566POPC   C4B21922  34.183  15.500   7.589
 1567POPC   NC321923  38.472   0.001   9.671
 1567POPC   PO421924  38.838  44.488   9.457
 1567POPC   GL121925  38.565  44.569   9.146
 1567POPC   GL221926  38.414  44.902   9.078
 1567POPC   C1A21927  38.449  44.484   8.747
 1567POPC   D2A21928  38.512  44.695   8.377
 1567POPC   C3A21929  38.353  44.521   8.024
 1567POPC   C4A21930  38.570  44.549   7.653
 1567POPC   C1B21931  38.284   0.091   8.646
 1567POPC   C2B21932  38.104  44.993   8.212
 1567POPC   C3B21933  38.144  44.928   7.740
 1567POPC   C4B21934  38.027  44.989   7.266
 1568POPC   NC321935  23.227  30.045   9.429
 1568POPC   PO421936  22.847  29.524   9.528
 1568POPC   GL121937  22.833  29.805   9.149
 1568POPC   GL221938  22.769  30.189   9.170
 1568POPC   C1A21939  23.124  29.901   8.781
 1568POPC   D2A21940  23.414  29.719   8.466
 1568POPC   C3A21941  23.228  29.863   8.086
 1568POPC   C4A21942  23.112  29.769   7.665
 1568POPC   C1B21943  22.625  30.046   8.744
 1568POPC   C2B21944  22.692  29.792   8.382
 1568POPC   C3B21945  22.707  29.904   7.949
 1568POPC   C4B21946  22.680  29.996   7.517
 1569POPC   NC321947   7.334   5.496   9.468
 1569POPC   PO421948   7.662   6.098   9.440
 1569POPC   GL121949   7.390   5.962   9.076
 1569POPC   GL221950   7.215   5.627   8.995
 1569POPC   C1A21951   7.433   6.196   8.696
 1569POPC   D2A21952   7.325   6.109   8.285
 1569POPC   C3A21953   7.613   6.096   7.956
 1569POPC   C4A21954   7.619   5.693   7.762
 1569POPC   C1B21955   7.440   5.689   8.630
 1569POPC   C2B21956   7.493   5.535   8.238
 1569POPC   C3B21957   7.169   5.467   7.929
 1569POPC   C4B21958   7.005   5.498   7.521
 1570POPC   NC321959  20.998  29.907   9.470
 1570POPC   PO421960  20.425  30.232   9.520
 1570POPC   GL121961  20.522  30.173   9.110
 1570POPC   GL221962  20.723  29.902   9.016
 1570POPC   C1A21963  20.351  30.139   8.694
 1570POPC   D2A21964  20.542  29.925   8.317
 1570POPC   C3A21965  20.417  29.981   7.888
 1570POPC   C4A21966  20.682  30.161   7.607
 1570POPC   C1B21967  20.528  29.634   8.737
 1570POPC   C2B21968  20.720  29.448   8.388
 1570POPC   C3B21969  20.821  29.620   7.988
 1570POPC   C4B21970  20.716  29.658   7.552
 1571POPC   NC321971  43.744  37.273   9.599
 1571POPC   PO421972  43.915  36.724   9.816
 1571POPC   GL121973  43.796  36.849   9.328
 1571POPC   GL221974  44.093  37.009   9.234
 1571POPC   C1A21975  43.777  36.938   8.809
 1571POPC   D2A21976  44.001  37.016   8.351
 1571POPC   C3A21977  43.937  36.727   7.990
 1571POPC   C4A21978  43.666  36.817   7.646
 1571POPC   C1B21979  44.245  37.268   8.901
 1571POPC   C2B21980  44.450  37.251   8.506
 1571POPC   C3B21981  44.409  37.238   8.066
 1571POPC   C4B21982  44.063  37.170   7.764
 1572POPC   NC321983  21.266  10.095   9.402
 1572POPC   PO421984  21.693  10.715   9.584
 1572POPC   GL121985  21.505  10.661   9.167
 1572POPC   GL221986  21.192  10.496   9.123
 1572POPC   C1A21987  21.339  10.749   8.733
 1572POPC   D2A21988  21.501  10.503   8.428
 1572POPC   C3A21989  21.323  10.676   8.122
 1572POPC   C4A21990  21.288  10.466   7.783
 1572POPC   C1B21991  21.199  10.235   8.753
 1572POPC   C2B21992  21.006  10.302   8.362
 1572POPC   C3B21993  20.829  10.409   7.992
 1572POPC   C4B21994  20.833  10.306   7.581
 1573POPC   NC321995  35.927  29.689   9.551
 1573POPC   PO421996  35.399  30.141   9.540
 1573POPC   GL121997  35.462  30.113   9.111
 1573POPC   GL221998  35.676  29.824   9.129
 1573POPC   C1A21999  35.485  29.971   8.674
 1573POPC   D2A22000  35.441  30.016   8.251
 1573POPC   C3A22001  35.223  29.771   7.955
 1573POPC   C4A22002  35.257  30.114   7.674
 1573POPC   C1B22003  35.926  29.746   8.788
 1573POPC   C2B22004  35.856  29.602   8.405
 1573POPC   C3B22005  35.859  29.812   8.048
 1573POPC   C4B22006  35.664  29.821   7.678
 1574POPC   NC322007  29.069  41.760   9.535
 1574POPC   PO422008  29.572  41.265   9.448
 1574POPC   GL122009  29.194  41.334   9.222
 1574POPC   GL222010  29.211  41.637   9.082
 1574POPC   C1A22011  29.198  41.269   8.763
 1574POPC   D2A22012  29.004  41.196   8.404
 1574POPC   C3A22013  29.254  41.253   8.071
 1574POPC   C4A22014  28.968  41.278   7.761
 1574POPC   C1B22015  29.069  41.809   8.696
 1574POPC   C2B22016  28.906  41.771   8.281
 1574POPC   C3B22017  29.133  41.739   7.903
 1574POPC   C4B22018  29.159  41.790   7.456
 1575POPC   NC322019  20.091  41.688   9.408
 1575POPC   PO422020  19.458  41.313   9.479
 1575POPC   GL122021  19.678  41.496   9.117
 1575POPC   GL222022  19.699  41.870   9.118
 1575POPC   C1A22023  19.926  41.384   8.731
 1575POPC   D2A22024  19.734  41.191   8.334
 1575POPC   C3A22025  19.830  41.279   7.903
 1575POPC   C4A22026  19.647  41.411   7.523
 1575POPC   C1B22027  19.701  41.826   8.685
 1575POPC   C2B22028  19.923  41.718   8.300
 1575POPC   C3B22029  19.773  41.792   7.898
 1575POPC   C4B22030  19.529  41.896   7.522
 1576POPC   NC322031  28.095  15.756   9.596
 1576POPC   PO422032  28.074  16.446   9.350
 1576POPC   GL122033  28.271  16.039   9.157
 1576POPC   GL222034  28.656  15.978   9.164
 1576POPC   C1A22035  28.438  15.965   8.721
 1576POPC   D2A22036  28.289  15.703   8.403
 1576POPC   C3A22037  28.403  15.844   8.047
 1576POPC   C4A22038  28.419  15.685   7.673
 1576POPC   C1B22039  28.811  16.291   8.847
 1576POPC   C2B22040  28.606  16.482   8.486
 1576POPC   C3B22041  28.568  16.330   8.088
 1576POPC   C4B22042  28.598  16.160   7.682
 1577POPC   NC322043  40.150   9.189   9.421
 1577POPC   PO422044  39.831   8.604   9.566
 1577POPC   GL122045  39.798   8.699   9.125
 1577POPC   GL222046  39.731   9.056   9.171
 1577POPC   C1A22047  40.042   8.807   8.721
 1577POPC   D2A22048  40.328   8.819   8.348
 1577POPC   C3A22049  40.067   8.823   8.018
 1577POPC   C4A22050  39.735   8.723   7.808
 1577POPC   C1B22051  39.932   9.311   8.809
 1577POPC   C2B22052  40.003   9.246   8.372
 1577POPC   C3B22053  39.800   9.265   7.937
 1577POPC   C4B22054  39.560   9.152   7.567
 1578POPC   NC322055  28.625  11.816   9.570
 1578POPC   PO422056  27.998  11.791   9.669
 1578POPC   GL122057  28.229  12.077   9.321
 1578POPC   GL222058  28.460  12.393   9.373
 1578POPC   C1A22059  28.325  11.989   8.854
 1578POPC   D2A22060  28.181  11.962   8.391
 1578POPC   C3A22061  28.427  11.891   7.996
 1578POPC   C4A22062  28.383  11.891   7.530
 1578POPC   C1B22063  28.580  12.444   8.935
 1578POPC   C2B22064  28.578  12.270   8.493
 1578POPC   C3B22065  28.508  12.396   8.033
 1578POPC   C4B22066  28.664  12.284   7.606
 1579POPC   NC322067   5.966  37.084   9.587
 1579POPC   PO422068   5.323  36.931   9.493
 1579POPC   GL122069   5.692  36.795   9.223
 1579POPC   GL222070   6.007  37.010   9.094
 1579POPC   C1A22071   5.870  36.570   8.857
 1579POPC   D2A22072   5.980  36.728   8.452
 1579POPC   C3A22073   5.692  36.671   8.109
 1579POPC   C4A22074   5.826  36.731   7.701
 1579POPC   C1B22075   5.687  37.051   8.785
 1579POPC   C2B22076   5.625  37.118   8.375
 1579POPC   C3B22077   5.860  37.160   8.025
 1579POPC   C4B22078   5.595  37.190   7.722
 1580POPC   NC322079  22.286   1.457   9.443
 1580POPC   PO422080  22.148   0.887   9.675
 1580POPC   GL122081  22.102   1.104   9.169
 1580POPC   GL222082  21.871   1.374   9.130
 1580POPC   C1A22083  22.320   1.118   8.728
 1580POPC   D2A22084  22.550   1.279   8.366
 1580POPC   C3A22085  22.371   1.196   7.956
 1580POPC   C4A22086  22.095   0.903   7.805
 1580POPC   C1B22087  22.056   1.552   8.769
 1580POPC   C2B22088  22.057   1.456   8.348
 1580POPC   C3B22089  21.910   1.410   7.947
 1580POPC   C4B22090  22.058   1.623   7.583
 1581POPC   NC322091   2.753  15.475   9.629
 1581POPC   PO422092   2.562  16.118   9.700
 1581POPC   GL122093   2.692  15.996   9.278
 1581POPC   GL222094   2.404  15.788   9.276
 1581POPC   C1A22095   2.696  16.149   8.837
 1581POPC   D2A22096   2.934  16.116   8.450
 1581POPC   C3A22097   2.832  15.893   8.089
 1581POPC   C4A22098   2.993  15.920   7.670
 1581POPC   C1B22099   2.510  15.635   8.869
 1581POPC   C2B22100   2.579  15.397   8.483
 1581POPC   C3B22101   2.454  15.478   8.067
 1581POPC   C4B22102   2.442  15.855   7.785
 1582POPC   NC322103  34.414  11.678   9.373
 1582POPC   PO422104  34.885  11.239   9.459
 1582POPC   GL122105  34.634  11.256   9.129
 1582POPC   GL222106  34.903  11.174   8.936
 1582POPC   C1A22107  34.479  11.403   8.729
 1582POPC   D2A22108  34.602  11.385   8.295
 1582POPC   C3A22109  34.503  11.002   8.049
 1582POPC   C4A22110  34.279  10.814   7.701
 1582POPC   C1B22111  35.085  10.984   8.600
 1582POPC   C2B22112  35.033  11.105   8.215
 1582POPC   C3B22113  34.885  11.313   7.871
 1582POPC   C4B22114  34.483  11.430   7.739
 1583POPC   NC322115  13.409   1.265   9.438
 1583POPC   PO422116  13.905   0.839   9.525
 1583POPC   GL122117  13.796   1.065   9.164
 1583POPC   GL222118  13.840   1.420   9.184
 1583POPC   C1A22119  13.612   0.943   8.768
 1583POPC   D2A22120  13.745   1.075   8.405
 1583POPC   C3A22121  13.541   1.012   8.062
 1583POPC   C4A22122  13.664   1.054   7.695
 1583POPC   C1B22123  13.671   1.441   8.781
 1583POPC   C2B22124  13.800   1.593   8.414
 1583POPC   C3B22125  13.819   1.452   8.054
 1583POPC   C4B22126  13.812   1.542   7.681
 1584POPC   NC322127  22.040  28.155   9.816
 1584POPC   PO422128  22.270  27.568   9.527
 1584POPC   GL122129  22.052  27.453   9.149
 1584POPC   GL222130  22.066  27.697   8.911
 1584POPC   C1A22131  22.055  27.231   8.753
 1584POPC   D2A22132  21.975  27.502   8.413
 1584POPC   C3A22133  22.175  27.571   8.024
 1584POPC   C4A22134  22.222  27.308   7.667
 1584POPC   C1B22135  21.835  27.937   8.685
 1584POPC   C2B22136  21.827  27.988   8.281
 1584POPC   C3B22137  21.780  27.919   7.886
 1584POPC   C4B22138  22.192  28.022   7.730
 1585POPC   NC322139  12.875   4.734   9.467
 1585POPC   PO422140  12.631   5.243   9.659
 1585POPC   GL122141  12.598   5.208   9.227
 1585POPC   GL222142  12.445   4.921   9.160
 1585POPC   C1A22143  12.855   5.097   8.855
 1585POPC   D2A22144  12.831   4.903   8.430
 1585POPC   C3A22145  12.916   5.166   8.076
 1585POPC   C4A22146  13.155   4.925   7.804
 1585POPC   C1B22147  12.360   5.081   8.760
 1585POPC   C2B22148  12.374   5.092   8.338
 1585POPC   C3B22149  12.502   4.853   8.016
 1585POPC   C4B22150  12.659   5.008   7.658
 1586POPC   NC322151  12.369   5.585   9.519
 1586POPC   PO422152  12.432   6.216   9.542
 1586POPC   GL122153  12.603   5.997   9.207
 1586POPC   GL222154  12.580   6.279   9.010
 1586POPC   C1A22155  12.814   5.869   8.794
 1586POPC   D2A22156  12.985   6.001   8.362
 1586POPC   C3A22157  13.071   5.729   8.005
 1586POPC   C4A22158  13.097   5.799   7.563
 1586POPC   C1B22159  12.805   6.384   8.668
 1586POPC   C2B22160  12.732   6.455   8.259
 1586POPC   C3B22161  12.852   6.252   7.922
 1586POPC   C4B22162  12.670   6.069   7.580
 1587POPC   NC322163  39.715  32.730   9.407
 1587POPC   PO422164  40.153  33.287   9.451
 1587POPC   GL122165  40.252  33.263   9.041
 1587POPC   GL222166  40.084  32.930   9.062
 1587POPC   C1A22167  40.127  33.232   8.615
 1587POPC   D2A22168  39.845  33.170   8.270
 1587POPC   C3A22169  40.044  33.208   7.862
 1587POPC   C4A22170  39.933  33.382   7.453
 1587POPC   C1B22171  39.761  32.872   8.753
 1587POPC   C2B22172  39.788  32.651   8.379
 1587POPC   C3B22173  39.819  32.731   7.961
 1587POPC   C4B22174  39.789  32.895   7.544
 1588POPC   NC322175  42.060  18.721   9.997
 1588POPC   PO422176  42.378  18.975   9.462
 1588POPC   GL122177  42.163  19.204   9.150
 1588POPC   GL222178  42.035  18.927   8.999
 1588POPC   C1A22179  42.287  19.253   8.711
 1588POPC   D2A22180  42.527  19.043   8.382
 1588POPC   C3A22181  42.398  19.198   7.992
 1588POPC   C4A22182  42.615  19.239   7.619
 1588POPC   C1B22183  42.270  18.738   8.715
 1588POPC   C2B22184  42.080  18.696   8.353
 1588POPC   C3B22185  42.271  18.712   7.991
 1588POPC   C4B22186  42.176  18.886   7.628
 1589POPC   NC322187   1.172   4.582   9.774
 1589POPC   PO422188   1.176   5.213   9.491
 1589POPC   GL122189   0.983   5.219   9.077
 1589POPC   GL222190   0.774   4.950   9.025
 1589POPC   C1A22191   1.158   5.136   8.697
 1589POPC   D2A22192   1.359   5.182   8.317
 1589POPC   C3A22193   1.098   5.096   7.949
 1589POPC   C4A22194   1.261   4.968   7.554
 1589POPC   C1B22195   0.858   4.703   8.671
 1589POPC   C2B22196   0.935   4.640   8.245
 1589POPC   C3B22197   1.029   4.607   7.813
 1589POPC   C4B22198   0.811   4.794   7.432
 1590POPC   NC322199   4.290  34.024   9.831
 1590POPC   PO422200   4.451  34.583   9.473
 1590POPC   GL122201   4.304  34.513   9.120
 1590POPC   GL222202   3.935  34.567   9.141
 1590POPC   C1A22203   4.286  34.292   8.737
 1590POPC   D2A22204   4.212  34.446   8.348
 1590POPC   C3A22205   4.479  34.372   7.992
 1590POPC   C4A22206   4.738  34.727   7.838
 1590POPC   C1B22207   4.083  34.795   8.771
 1590POPC   C2B22208   3.936  34.890   8.378
 1590POPC   C3B22209   4.057  34.714   7.958
 1590POPC   C4B22210   4.252  34.702   7.614
 1591POPC   NC322211  36.234   6.184   9.446
 1591POPC   PO422212  35.668   5.849   9.456
 1591POPC   GL122213  35.957   5.864   9.106
 1591POPC   GL222214  36.283   6.045   8.973
 1591POPC   C1A22215  35.873   5.736   8.723
 1591POPC   D2A22216  36.075   5.751   8.361
 1591POPC   C3A22217  36.066   6.010   8.072
 1591POPC   C4A22218  36.281   5.842   7.739
 1591POPC   C1B22219  36.495   5.843   8.651
 1591POPC   C2B22220  36.574   5.910   8.219
 1591POPC   C3B22221  36.568   6.229   7.900
 1591POPC   C4B22222  36.579   6.159   7.454
 1592POPC   NC322223   8.351  14.561   9.491
 1592POPC   PO422224   7.925  14.011   9.542
 1592POPC   GL122225   8.106  14.234   9.211
 1592POPC   GL222226   8.469  14.208   9.147
 1592POPC   C1A22227   8.136  14.350   8.771
 1592POPC   D2A22228   8.364  14.447   8.390
 1592POPC   C3A22229   8.125  14.523   7.987
 1592POPC   C4A22230   8.115  14.679   7.550
 1592POPC   C1B22231   8.629  14.084   8.759
 1592POPC   C2B22232   8.663  13.998   8.325
 1592POPC   C3B22233   8.588  14.269   7.983
 1592POPC   C4B22234   8.427  14.233   7.597
 1593POPC   NC322235   1.550  39.984   9.465
 1593POPC   PO422236   0.902  39.887   9.274
 1593POPC   GL122237   1.304  39.838   9.044
 1593POPC   GL222238   1.505  40.170   9.002
 1593POPC   C1A22239   1.493  39.839   8.629
 1593POPC   D2A22240   1.467  39.702   8.240
 1593POPC   C3A22241   1.321  39.974   7.955
 1593POPC   C4A22242   0.931  39.783   7.720
 1593POPC   C1B22243   1.160  40.222   8.747
 1593POPC   C2B22244   1.046  40.047   8.397
 1593POPC   C3B22245   0.876  40.184   8.042
 1593POPC   C4B22246   1.033  40.290   7.663
 1594POPC   NC322247  24.890  37.167   9.484
 1594POPC   PO422248  25.368  37.632   9.615
 1594POPC   GL122249  25.162  37.673   9.202
 1594POPC   GL222250  25.157  37.365   9.069
 1594POPC   C1A22251  25.201  37.746   8.741
 1594POPC   D2A22252  25.392  37.646   8.343
 1594POPC   C3A22253  25.245  37.814   7.958
 1594POPC   C4A22254  25.358  37.733   7.528
 1594POPC   C1B22255  25.236  37.200   8.654
 1594POPC   C2B22256  25.026  37.270   8.233
 1594POPC   C3B22257  25.207  37.324   7.818
 1594POPC   C4B22258  25.132  37.319   7.357
 1595POPC   NC322259  28.115  31.140   9.522
 1595POPC   PO422260  28.564  30.612   9.446
 1595POPC   GL122261  28.408  30.687   9.083
 1595POPC   GL222262  28.129  30.885   9.094
 1595POPC   C1A22263  28.437  30.798   8.679
 1595POPC   D2A22264  28.341  30.639   8.272
 1595POPC   C3A22265  28.540  30.829   7.902
 1595POPC   C4A22266  28.704  30.610   7.520
 1595POPC   C1B22267  27.934  30.695   8.750
 1595POPC   C2B22268  27.875  30.848   8.350
 1595POPC   C3B22269  27.998  30.862   7.931
 1595POPC   C4B22270  28.211  30.745   7.505
 1596POPC   NC322271  25.098  39.093   9.520
 1596POPC   PO422272  25.646  39.542   9.488
 1596POPC   GL122273  25.437  39.295   9.165
 1596POPC   GL222274  25.540  38.973   9.280
 1596POPC   C1A22275  25.295  39.316   8.702
 1596POPC   D2A22276  25.173  39.239   8.301
 1596POPC   C3A22277  25.392  39.453   7.983
 1596POPC   C4A22278  25.214  39.368   7.608
 1596POPC   C1B22279  25.554  38.910   8.839
 1596POPC   C2B22280  25.576  38.896   8.367
 1596POPC   C3B22281  25.410  38.949   7.925
 1596POPC   C4B22282  25.035  38.894   7.697
 1597POPC   NC322283   0.831  30.566   9.564
 1597POPC   PO422284   1.229  31.023   9.319
 1597POPC   GL122285   1.348  30.578   9.187
 1597POPC   GL222286   1.089  30.321   9.085
 1597POPC   C1A22287   1.512  30.372   8.804
 1597POPC   D2A22288   1.646  30.388   8.373
 1597POPC   C3A22289   1.378  30.678   8.173
 1597POPC   C4A22290   1.409  30.960   7.813
 1597POPC   C1B22291   1.013  30.599   8.752
 1597POPC   C2B22292   0.866  30.657   8.323
 1597POPC   C3B22293   0.938  30.639   7.878
 1597POPC   C4B22294   0.939  31.036   7.621
 1598POPC   NC322295  29.880  32.332   9.403
 1598POPC   PO422296  29.902  31.689   9.542
 1598POPC   GL122297  29.881  31.865   9.146
 1598POPC   GL222298  29.532  31.898   9.206
 1598POPC   C1A22299  30.017  31.832   8.701
 1598POPC   D2A22300  30.144  31.909   8.246
 1598POPC   C3A22301  30.128  32.358   8.073
 1598POPC   C4A22302  30.013  32.487   7.639
 1598POPC   C1B22303  29.505  31.877   8.748
 1598POPC   C2B22304  29.607  32.071   8.332
 1598POPC   C3B22305  29.739  32.085   7.897
 1598POPC   C4B22306  29.745  32.115   7.449
 1599POPC   NC322307  22.769  10.903   9.610
 1599POPC   PO422308  22.982  11.550   9.442
 1599POPC   GL122309  22.881  11.515   9.064
 1599POPC   GL222310  22.876  11.160   9.133
 1599POPC   C1A22311  22.618  11.382   8.761
 1599POPC   D2A22312  22.865  11.234   8.432
 1599POPC   C3A22313  22.710  11.385   8.065
 1599POPC   C4A22314  22.814  11.586   7.698
 1599POPC   C1B22315  23.172  11.020   8.821
 1599POPC   C2B22316  23.265  10.922   8.440
 1599POPC   C3B22317  23.177  11.080   8.052
 1599POPC   C4B22318  23.329  10.936   7.681
 1600POPC   NC322319  14.337   3.657   9.503
 1600POPC   PO422320  14.532   3.066   9.382
 1600POPC   GL122321  14.184   3.319   9.124
 1600POPC   GL222322  14.129   3.678   9.044
 1600POPC   C1A22323  14.002   3.323   8.720
 1600POPC   D2A22324  14.087   3.575   8.355
 1600POPC   C3A22325  14.399   3.428   8.092
 1600POPC   C4A22326  14.283   3.364   7.697
 1600POPC   C1B22327  14.441   3.666   8.705
 1600POPC   C2B22328  14.463   3.911   8.311
 1600POPC   C3B22329  14.257   3.875   7.918
 1600POPC   C4B22330  14.441   3.808   7.501
 1601POPC   NC322331  11.380  41.387   9.543
 1601POPC   PO422332  11.611  42.025   9.464
 1601POPC   GL122333  11.370  41.750   9.141
 1601POPC   GL222334  11.161  41.424   9.108
 1601POPC   C1A22335  11.481  41.686   8.714
 1601POPC   D2A22336  11.493  41.370   8.373
 1601POPC   C3A22337  11.619  41.552   7.984
 1601POPC   C4A22338  11.382  41.796   7.708
 1601POPC   C1B22339  11.087  41.359   8.725
 1601POPC   C2B22340  11.024  41.584   8.372
 1601POPC   C3B22341  11.076  41.487   7.972
 1601POPC   C4B22342  10.851  41.479   7.604
 1602POPC   NC322343   5.324  41.976   9.447
 1602POPC   PO422344   4.991  41.448   9.708
 1602POPC   GL122345   5.154  41.433   9.215
 1602POPC   GL222346   5.360  41.684   9.055
 1602POPC   C1A22347   5.068  41.373   8.730
 1602POPC   D2A22348   4.771  41.373   8.346
 1602POPC   C3A22349   4.833  41.617   7.914
 1602POPC   C4A22350   4.735  41.663   7.438
 1602POPC   C1B22351   5.425  41.814   8.644
 1602POPC   C2B22352   5.180  41.670   8.284
 1602POPC   C3B22353   5.192  41.268   8.003
 1602POPC   C4B22354   4.960  41.156   7.593
 1603POPC   NC322355  24.443   6.662   9.773
 1603POPC   PO422356  24.047   6.214   9.428
 1603POPC   GL122357  24.374   6.312   9.165
 1603POPC   GL222358  24.557   6.633   9.240
 1603POPC   C1A22359  24.566   6.401   8.778
 1603POPC   D2A22360  24.617   6.649   8.429
 1603POPC   C3A22361  24.466   6.562   8.037
 1603POPC   C4A22362  24.643   6.519   7.672
 1603POPC   C1B22363  24.582   6.936   8.886
 1603POPC   C2B22364  24.423   7.092   8.490
 1603POPC   C3B22365  24.535   7.078   8.059
 1603POPC   C4B22366  24.329   6.940   7.671
 1604POPC   NC322367  37.895  12.565   9.209
 1604POPC   PO422368  37.396  12.254   9.347
 1604POPC   GL122369  37.370  12.538   9.042
 1604POPC   GL222370  37.431  12.869   9.208
 1604POPC   C1A22371  37.425  12.606   8.609
 1604POPC   D2A22372  37.273  12.536   8.196
 1604POPC   C3A22373  37.596  12.680   7.897
 1604POPC   C4A22374  37.764  12.791   7.480
 1604POPC   C1B22375  37.535  13.189   8.875
 1604POPC   C2B22376  37.458  13.112   8.422
 1604POPC   C3B22377  37.690  13.173   8.029
 1604POPC   C4B22378  37.452  13.150   7.668
 1605POPC   NC322379  18.746  39.532   9.505
 1605POPC   PO422380  18.982  38.897   9.307
 1605POPC   GL122381  18.709  39.177   9.118
 1605POPC   GL222382  19.005  39.374   9.087
 1605POPC   C1A22383  18.662  39.320   8.693
 1605POPC   D2A22384  18.965  39.428   8.390
 1605POPC   C3A22385  19.024  39.335   7.971
 1605POPC   C4A22386  19.257  38.960   7.842
 1605POPC   C1B22387  19.303  39.417   8.772
 1605POPC   C2B22388  19.438  39.604   8.412
 1605POPC   C3B22389  19.530  39.424   8.024
 1605POPC   C4B22390  19.411  39.411   7.628
 1606POPC   NC322391  22.023  14.706   9.419
 1606POPC   PO422392  22.453  14.254   9.372
 1606POPC   GL122393  22.531  14.543   9.036
 1606POPC   GL222394  22.415  14.861   9.129
 1606POPC   C1A22395  22.397  14.461   8.605
 1606POPC   D2A22396  21.996  14.222   8.495
 1606POPC   C3A22397  21.957  14.108   8.066
 1606POPC   C4A22398  21.709  14.150   7.704
 1606POPC   C1B22399  22.054  14.809   8.769
 1606POPC   C2B22400  22.041  14.709   8.297
 1606POPC   C3B22401  21.910  14.600   7.874
 1606POPC   C4B22402  22.192  14.324   7.597
 1607POPC   NC322403   4.811  28.816   9.651
 1607POPC   PO422404   5.224  29.347   9.721
 1607POPC   GL122405   5.171  29.308   9.248
 1607POPC   GL222406   5.044  28.950   9.189
 1607POPC   C1A22407   5.234  29.248   8.805
 1607POPC   D2A22408   5.122  29.039   8.432
 1607POPC   C3A22409   5.365  29.052   8.042
 1607POPC   C4A22410   5.331  28.825   7.657
 1607POPC   C1B22411   4.755  28.990   8.817
 1607POPC   C2B22412   4.603  28.900   8.392
 1607POPC   C3B22413   4.877  28.889   8.015
 1607POPC   C4B22414   4.961  29.255   7.745
 1608POPC   NC322415  22.732   9.317   9.921
 1608POPC   PO422416  22.216   9.005   9.504
 1608POPC   GL122417  22.193   9.027   9.096
 1608POPC   GL222418  21.909   8.826   9.046
 1608POPC   C1A22419  22.291   8.869   8.695
 1608POPC   D2A22420  22.472   8.756   8.339
 1608POPC   C3A22421  22.294   8.866   7.919
 1608POPC   C4A22422  22.395   9.056   7.487
 1608POPC   C1B22423  21.838   9.148   8.721
 1608POPC   C2B22424  21.876   9.100   8.314
 1608POPC   C3B22425  21.770   9.242   7.946
 1608POPC   C4B22426  21.898   9.004   7.596
 1609POPC   NC322427   6.314  36.621   9.906
 1609POPC   PO422428   6.802  36.197   9.582
 1609POPC   GL122429   6.820  36.081   9.167
 1609POPC   GL222430   7.130  36.265   9.143
 1609POPC   C1A22431   6.698  35.962   8.740
 1609POPC   D2A22432   6.634  35.790   8.328
 1609POPC   C3A22433   6.557  36.080   7.971
 1609POPC   C4A22434   6.490  35.944   7.532
 1609POPC   C1B22435   6.937  36.416   8.786
 1609POPC   C2B22436   6.784  36.340   8.402
 1609POPC   C3B22437   6.835  36.506   8.020
 1609POPC   C4B22438   6.644  36.461   7.634
 1610POPC   NC322439  12.490  12.240   9.442
 1610POPC   PO422440  13.124  11.918   9.471
 1610POPC   GL122441  12.982  11.842   9.064
 1610POPC   GL222442  12.637  11.917   9.081
 1610POPC   C1A22443  13.147  11.875   8.643
 1610POPC   D2A22444  13.053  12.154   8.300
 1610POPC   C3A22445  13.143  11.946   7.919
 1610POPC   C4A22446  13.108  12.161   7.501
 1610POPC   C1B22447  12.743  12.186   8.751
 1610POPC   C2B22448  12.549  12.150   8.366
 1610POPC   C3B22449  12.663  12.126   7.943
 1610POPC   C4B22450  12.479  12.425   7.738
 1611POPC   NC322451  25.817   0.736   9.538
 1611POPC   PO422452  26.008   1.378   9.440
 1611POPC   GL122453  25.914   1.351   9.043
 1611POPC   GL222454  26.235   1.492   8.941
 1611POPC   C1A22455  25.883   1.176   8.638
 1611POPC   D2A22456  25.993   0.964   8.261
 1611POPC   C3A22457  25.890   1.218   7.888
 1611POPC   C4A22458  26.172   1.147   7.534
 1611POPC   C1B22459  26.429   1.277   8.592
 1611POPC   C2B22460  26.270   1.397   8.190
 1611POPC   C3B22461  26.240   1.607   7.807
 1611POPC   C4B22462  26.341   1.589   7.333
 1612POPC   NC322463   0.338  30.319   9.464
 1612POPC   PO422464   0.601  30.960   9.629
 1612POPC   GL122465   0.639  30.864   9.175
 1612POPC   GL222466   0.605  30.535   9.087
 1612POPC   C1A22467   0.599  30.919   8.719
 1612POPC   D2A22468   0.356  30.828   8.351
 1612POPC   C3A22469   0.517  30.891   7.950
 1612POPC   C4A22470   0.300  30.933   7.571
 1612POPC   C1B22471   0.287  30.488   8.748
 1612POPC   C2B22472   0.168  30.360   8.310
 1612POPC   C3B22473   0.168  30.496   7.877
 1612POPC   C4B22474   0.014  30.551   7.446
 1613POPC   NC322475  27.123  32.435   9.353
 1613POPC   PO422476  26.628  31.917   9.449
 1613POPC   GL122477  26.459  32.037   9.057
 1613POPC   GL222478  26.778  32.230   8.999
 1613POPC   C1A22479  26.515  32.071   8.606
 1613POPC   D2A22480  26.805  32.318   8.387
 1613POPC   C3A22481  26.679  32.136   8.022
 1613POPC   C4A22482  26.470  32.408   7.757
 1613POPC   C1B22483  27.084  32.012   8.700
 1613POPC   C2B22484  27.213  32.046   8.240
 1613POPC   C3B22485  27.127  32.353   7.905
 1613POPC   C4B22486  26.966  32.038   7.602
 1614POPC   NC322487  24.221  36.011   9.540
 1614POPC   PO422488  24.848  36.022   9.419
 1614POPC   GL122489  24.534  36.023   9.092
 1614POPC   GL222490  24.258  35.773   9.075
 1614POPC   C1A22491  24.542  36.193   8.675
 1614POPC   D2A22492  24.714  35.929   8.374
 1614POPC   C3A22493  24.734  36.082   7.980
 1614POPC   C4A22494  24.601  36.347   7.649
 1614POPC   C1B22495  24.205  35.810   8.638
 1614POPC   C2B22496  24.231  35.792   8.225
 1614POPC   C3B22497  24.261  35.995   7.811
 1614POPC   C4B22498  24.080  35.974   7.367
 1615POPC   NC322499   9.978  38.124   9.544
 1615POPC   PO422500   9.743  38.811   9.606
 1615POPC   GL122501   9.833  38.556   9.251
 1615POPC   GL222502   9.685  38.231   9.148
 1615POPC   C1A22503   9.960  38.554   8.863
 1615POPC   D2A22504   9.867  38.694   8.479
 1615POPC   C3A22505  10.172  38.763   8.151
 1615POPC   C4A22506  10.118  38.825   7.706
 1615POPC   C1B22507   9.787  38.040   8.747
 1615POPC   C2B22508   9.827  38.209   8.334
 1615POPC   C3B22509   9.823  38.424   7.952
 1615POPC   C4B22510   9.819  38.119   7.639
 1616POPC   NC322511  21.286  31.128   9.487
 1616POPC   PO422512  21.287  30.398   9.544
 1616POPC   GL122513  21.452  30.606   9.203
 1616POPC   GL222514  21.176  30.770   9.133
 1616POPC   C1A22515  21.451  30.496   8.771
 1616POPC   D2A22516  21.198  30.550   8.401
 1616POPC   C3A22517  21.395  30.398   8.058
 1616POPC   C4A22518  21.561  30.606   7.714
 1616POPC   C1B22519  21.230  31.023   8.773
 1616POPC   C2B22520  21.170  31.071   8.345
 1616POPC   C3B22521  21.488  31.087   8.043
 1616POPC   C4B22522  21.481  31.102   7.608
 1617POPC   NC322523  33.063  29.511   9.590
 1617POPC   PO422524  33.195  30.099   9.490
 1617POPC   GL122525  33.087  30.016   9.083
 1617POPC   GL222526  33.387  30.218   9.005
 1617POPC   C1A22527  32.869  29.738   8.753
 1617POPC   D2A22528  33.046  29.570   8.333
 1617POPC   C3A22529  33.037  29.731   7.886
 1617POPC   C4A22530  32.874  30.096   7.636
 1617POPC   C1B22531  33.242  30.057   8.601
 1617POPC   C2B22532  33.234  30.092   8.196
 1617POPC   C3B22533  33.361  30.128   7.781
 1617POPC   C4B22534  33.353  30.185   7.357
 1618POPC   NC322535  38.267  24.560   9.490
 1618POPC   PO422536  38.949  24.542   9.345
 1618POPC   GL122537  38.586  24.292   9.161
 1618POPC   GL222538  38.199  24.280   9.081
 1618POPC   C1A22539  38.562  24.153   8.744
 1618POPC   D2A22540  38.812  24.140   8.372
 1618POPC   C3A22541  38.558  24.260   8.008
 1618POPC   C4A22542  38.466  24.632   7.697
 1618POPC   C1B22543  38.341  24.628   8.819
 1618POPC   C2B22544  38.416  24.620   8.375
 1618POPC   C3B22545  38.105  24.501   8.032
 1618POPC   C4B22546  38.103  24.275   7.592
 1619POPC   NC322547  42.430  16.098   9.691
 1619POPC   PO422548  42.378  15.442   9.690
 1619POPC   GL122549  42.447  15.717   9.314
 1619POPC   GL222550  42.244  16.025   9.230
 1619POPC   C1A22551  42.457  15.772   8.852
 1619POPC   D2A22552  42.231  15.836   8.434
 1619POPC   C3A22553  42.418  15.763   8.020
 1619POPC   C4A22554  42.224  15.775   7.635
 1619POPC   C1B22555  42.176  16.193   8.828
 1619POPC   C2B22556  42.425  16.326   8.489
 1619POPC   C3B22557  42.226  16.238   8.109
 1619POPC   C4B22558  42.200  16.268   7.706
 1620POPC   NC322559  32.075  27.114   9.389
 1620POPC   PO422560  32.401  27.679   9.554
 1620POPC   GL122561  32.490  27.472   9.170
 1620POPC   GL222562  32.778  27.256   9.174
 1620POPC   C1A22563  32.263  27.558   8.784
 1620POPC   D2A22564  32.143  27.784   8.425
 1620POPC   C3A22565  32.231  27.623   8.033
 1620POPC   C4A22566  31.985  27.672   7.643
 1620POPC   C1B22567  32.606  27.189   8.755
 1620POPC   C2B22568  32.598  27.427   8.373
 1620POPC   C3B22569  32.595  27.241   7.974
 1620POPC   C4B22570  32.256  27.230   7.697
 1621POPC   NC322571  40.573  44.433   9.552
 1621POPC   PO422572  41.159  44.745   9.807
 1621POPC   GL122573  40.919  44.656   9.293
 1621POPC   GL222574  40.691  44.871   9.155
 1621POPC   C1A22575  40.847  44.490   8.850
 1621POPC   D2A22576  40.622  44.665   8.507
 1621POPC   C3A22577  40.805  44.649   8.120
 1621POPC   C4A22578  40.776  44.409   7.806
 1621POPC   C1B22579  40.391  44.963   8.869
 1621POPC   C2B22580  40.366   0.137   8.495
 1621POPC   C3B22581  40.433  44.991   8.129
 1621POPC   C4B22582  40.623  44.975   7.748
 1622POPC   NC322583  11.142  32.459   9.457
 1622POPC   PO422584  11.099  31.828   9.664
 1622POPC   GL122585  11.277  32.015   9.237
 1622POPC   GL222586  11.584  32.267   9.236
 1622POPC   C1A22587  11.124  32.230   8.826
 1622POPC   D2A22588  10.893  32.310   8.438
 1622POPC   C3A22589  11.060  32.270   8.013
 1622POPC   C4A22590  11.384  32.143   7.739
 1622POPC   C1B22591  11.550  32.505   8.822
 1622POPC   C2B22592  11.398  32.419   8.379
 1622POPC   C3B22593  11.581  32.561   7.961
 1622POPC   C4B22594  11.595  32.552   7.489
 1623POPC   NC322595  33.989  39.655   9.499
 1623POPC   PO422596  33.596  39.085   9.655
 1623POPC   GL122597  33.648  39.334   9.224
 1623POPC   GL222598  33.431  39.630   9.153
 1623POPC   C1A22599  33.878  39.352   8.784
 1623POPC   D2A22600  34.202  39.248   8.429
 1623POPC   C3A22601  34.136  39.326   7.976
 1623POPC   C4A22602  33.737  39.175   7.854
 1623POPC   C1B22603  33.532  39.728   8.716
 1623POPC   C2B22604  33.711  39.547   8.313
 1623POPC   C3B22605  33.589  39.718   7.918
 1623POPC   C4B22606  33.334  39.694   7.550
 1624POPC   NC322607   5.718  23.723   9.651
 1624POPC   PO422608   5.310  23.598   9.107
 1624POPC   GL122609   5.780  23.598   9.160
 1624POPC   GL222610   5.879  23.946   9.201
 1624POPC   C1A22611   5.998  23.650   8.799
 1624POPC   D2A22612   5.667  23.687   8.482
 1624POPC   C3A22613   5.752  23.700   8.057
 1624POPC   C4A22614   5.627  23.494   7.689
 1624POPC   C1B22615   5.728  24.110   8.779
 1624POPC   C2B22616   5.877  24.150   8.345
 1624POPC   C3B22617   5.750  24.232   7.932
 1624POPC   C4B22618   5.876  23.957   7.612
 1625POPC   NC322619   9.897  19.563   9.449
 1625POPC   PO422620   9.907  19.032   9.947
 1625POPC   GL122621   9.765  19.064   9.424
 1625POPC   GL222622  10.046  18.972   9.162
 1625POPC   C1A22623   9.654  19.191   8.925
 1625POPC   D2A22624   9.724  19.033   8.468
 1625POPC   C3A22625   9.546  19.212   8.047
 1625POPC   C4A22626   9.671  19.245   7.536
 1625POPC   C1B22627  10.168  18.804   8.727
 1625POPC   C2B22628  10.156  18.783   8.259
 1625POPC   C3B22629   9.924  18.920   7.899
 1625POPC   C4B22630   9.934  18.791   7.470
 1626POPC   NC322631  15.935  43.691   9.484
 1626POPC   PO422632  15.607  44.322   9.423
 1626POPC   GL122633  15.834  44.041   9.139
 1626POPC   GL222634  16.171  44.115   9.237
 1626POPC   C1A22635  15.862  43.710   8.813
 1626POPC   D2A22636  15.646  43.654   8.418
 1626POPC   C3A22637  15.886  43.679   8.011
 1626POPC   C4A22638  15.850  43.988   7.674
 1626POPC   C1B22639  16.206  44.153   8.800
 1626POPC   C2B22640  16.076  43.993   8.414
 1626POPC   C3B22641  16.256  44.050   8.032
 1626POPC   C4B22642  16.330  43.841   7.698
 1627POPC   NC322643   1.890  14.896   9.522
 1627POPC   PO422644   2.478  14.577   9.537
 1627POPC   GL122645   2.208  14.884   9.150
 1627POPC   GL222646   1.808  15.050   9.048
 1627POPC   C1A22647   2.216  15.117   8.742
 1627POPC   D2A22648   1.966  15.149   8.337
 1627POPC   C3A22649   2.082  15.171   7.890
 1627POPC   C4A22650   2.305  15.404   7.571
 1627POPC   C1B22651   1.630  15.385   8.728
 1627POPC   C2B22652   1.641  15.558   8.273
 1627POPC   C3B22653   1.588  15.279   7.874
 1627POPC   C4B22654   1.738  15.042   7.517
 1628POPC   NC322655  31.139  23.023   9.542
 1628POPC   PO422656  30.479  22.980   9.416
 1628POPC   GL122657  30.833  23.077   9.125
 1628POPC   GL222658  30.937  22.782   8.997
 1628POPC   C1A22659  30.847  23.183   8.665
 1628POPC   D2A22660  30.612  23.097   8.304
 1628POPC   C3A22661  30.860  23.073   7.935
 1628POPC   C4A22662  30.711  23.116   7.542
 1628POPC   C1B22663  30.568  22.756   8.740
 1628POPC   C2B22664  30.363  22.638   8.374
 1628POPC   C3B22665  30.467  22.720   7.950
 1628POPC   C4B22666  30.498  22.663   7.502
 1629POPC   NC322667  37.918  14.978   9.410
 1629POPC   PO422668  37.778  15.614   9.601
 1629POPC   GL122669  37.535  15.380   9.271
 1629POPC   GL222670  37.359  15.023   9.245
 1629POPC   C1A22671  37.645  15.298   8.843
 1629POPC   D2A22672  37.897  15.116   8.526
 1629POPC   C3A22673  37.775  15.290   8.148
 1629POPC   C4A22674  37.798  15.209   7.700
 1629POPC   C1B22675  37.137  15.322   8.942
 1629POPC   C2B22676  37.265  15.600   8.593
 1629POPC   C3B22677  37.306  15.519   8.142
 1629POPC   C4B22678  37.305  15.348   7.714
 1630POPC   NC322679   2.882   2.694   9.550
 1630POPC   PO422680   2.224   2.630   9.650
 1630POPC   GL122681   2.510   2.726   9.189
 1630POPC   GL222682   2.863   2.552   9.074
 1630POPC   C1A22683   2.708   2.877   8.741
 1630POPC   D2A22684   2.955   3.073   8.396
 1630POPC   C3A22685   2.854   2.919   7.956
 1630POPC   C4A22686   2.846   2.875   7.476
 1630POPC   C1B22687   3.090   2.416   8.733
 1630POPC   C2B22688   2.960   2.556   8.340
 1630POPC   C3B22689   3.132   2.486   7.950
 1630POPC   C4B22690   3.051   2.399   7.504
 1631POPC   NC322691  29.658  40.131   9.597
 1631POPC   PO422692  30.223  39.701   9.657
 1631POPC   GL122693  30.056  39.985   9.291
 1631POPC   GL222694  30.002  40.354   9.247
 1631POPC   C1A22695  29.849  39.925   8.881
 1631POPC   D2A22696  29.651  39.708   8.530
 1631POPC   C3A22697  29.791  39.866   8.125
 1631POPC   C4A22698  29.713  39.983   7.716
 1631POPC   C1B22699  29.780  40.442   8.857
 1631POPC   C2B22700  29.940  40.261   8.458
 1631POPC   C3B22701  29.874  40.377   8.012
 1631POPC   C4B22702  30.122  40.307   7.632
 1632POPC   NC322703  11.578  20.044   9.488
 1632POPC   PO422704  12.230  19.603   9.353
 1632POPC   GL122705  11.908  19.801   9.057
 1632POPC   GL222706  11.758  20.159   9.015
 1632POPC   C1A22707  12.082  19.827   8.651
 1632POPC   D2A22708  12.214  19.824   8.238
 1632POPC   C3A22709  11.999  19.536   7.949
 1632POPC   C4A22710  12.243  19.651   7.608
 1632POPC   C1B22711  11.908  20.293   8.618
 1632POPC   C2B22712  11.758  20.086   8.254
 1632POPC   C3B22713  11.943  20.025   7.862
 1632POPC   C4B22714  12.382  20.167   7.827
 1633POPC   NC322715  23.874  42.866   9.628
 1633POPC   PO422716  23.869  43.423   9.296
 1633POPC   GL122717  23.772  43.042   9.123
 1633POPC   GL222718  23.414  43.064   9.161
 1633POPC   C1A22719  23.867  42.997   8.696
 1633POPC   D2A22720  24.085  42.782   8.391
 1633POPC   C3A22721  23.961  43.011   8.019
 1633POPC   C4A22722  23.668  42.936   7.700
 1633POPC   C1B22723  23.466  43.333   8.768
 1633POPC   C2B22724  23.645  43.388   8.357
 1633POPC   C3B22725  23.579  43.381   7.937
 1633POPC   C4B22726  23.355  43.336   7.572
 1634POPC   NC322727  13.911  24.487   9.435
 1634POPC   PO422728  13.380  24.820   9.665
 1634POPC   GL122729  13.454  24.639   9.189
 1634POPC   GL222730  13.809  24.648   8.965
 1634POPC   C1A22731  13.357  24.604   8.765
 1634POPC   D2A22732  13.651  24.642   8.433
 1634POPC   C3A22733  13.409  24.594   8.094
 1634POPC   C4A22734  13.088  24.286   7.928
 1634POPC   C1B22735  13.799  24.257   8.745
 1634POPC   C2B22736  13.742  24.034   8.355
 1634POPC   C3B22737  13.671  24.201   7.948
 1634POPC   C4B22738  13.809  24.548   7.723
 1635POPC   NC322739  41.300  18.228   9.652
 1635POPC   PO422740  41.801  18.177   9.289
 1635POPC   GL122741  41.401  18.116   9.165
 1635POPC   GL222742  41.403  18.502   9.195
 1635POPC   C1A22743  41.398  17.897   8.773
 1635POPC   D2A22744  41.726  18.056   8.454
 1635POPC   C3A22745  41.577  18.134   8.023
 1635POPC   C4A22746  41.642  18.144   7.617
 1635POPC   C1B22747  41.633  18.614   8.780
 1635POPC   C2B22748  41.556  18.566   8.320
 1635POPC   C3B22749  41.756  18.641   7.914
 1635POPC   C4B22750  41.737  18.630   7.466
 1636POPC   NC322751  30.838   2.535   9.500
 1636POPC   PO422752  30.502   3.053   9.498
 1636POPC   GL122753  30.766   2.898   9.119
 1636POPC   GL222754  30.966   2.578   9.028
 1636POPC   C1A22755  30.879   2.949   8.689
 1636POPC   D2A22756  30.884   3.207   8.338
 1636POPC   C3A22757  30.808   3.020   7.926
 1636POPC   C4A22758  30.726   2.928   7.477
 1636POPC   C1B22759  30.687   2.476   8.732
 1636POPC   C2B22760  30.654   2.643   8.330
 1636POPC   C3B22761  30.844   2.513   7.959
 1636POPC   C4B22762  30.861   2.448   7.547
 1637POPC   NC322763  14.993  25.468  10.020
 1637POPC   PO422764  14.956  25.423   9.340
 1637POPC   GL122765  15.282  25.334   9.062
 1637POPC   GL222766  15.536  25.066   9.079
 1637POPC   C1A22767  15.221  25.374   8.643
 1637POPC   D2A22768  15.026  25.156   8.327
 1637POPC   C3A22769  15.131  25.426   8.016
 1637POPC   C4A22770  15.003  25.551   7.657
 1637POPC   C1B22771  15.678  25.180   8.711
 1637POPC   C2B22772  15.528  25.065   8.337
 1637POPC   C3B22773  15.412  25.027   7.952
 1637POPC   C4B22774  15.407  25.153   7.562
 1638POPC   NC322775  35.754   4.606   9.859
 1638POPC   PO422776  36.041   4.074   9.454
 1638POPC   GL122777  36.162   4.236   9.069
 1638POPC   GL222778  36.312   4.551   9.093
 1638POPC   C1A22779  36.182   4.088   8.688
 1638POPC   D2A22780  36.260   4.325   8.338
 1638POPC   C3A22781  36.084   4.100   8.021
 1638POPC   C4A22782  36.233   4.197   7.620
 1638POPC   C1B22783  36.010   4.594   8.736
 1638POPC   C2B22784  35.937   4.770   8.327
 1638POPC   C3B22785  35.884   4.563   7.931
 1638POPC   C4B22786  35.895   4.575   7.461
 1639POPC   NC322787  17.258  23.418   9.739
 1639POPC   PO422788  16.707  23.699   9.394
 1639POPC   GL122789  16.690  23.553   9.048
 1639POPC   GL222790  16.437  23.308   9.082
 1639POPC   C1A22791  16.658  23.740   8.655
 1639POPC   D2A22792  16.401  23.667   8.308
 1639POPC   C3A22793  16.443  24.002   8.019
 1639POPC   C4A22794  16.837  23.969   7.805
 1639POPC   C1B22795  16.718  23.218   8.687
 1639POPC   C2B22796  17.032  23.436   8.422
 1639POPC   C3B22797  16.989  23.503   7.974
 1639POPC   C4B22798  16.561  23.520   7.820
 1640POPC   NC322799  20.911  41.379   9.472
 1640POPC   PO422800  20.504  41.885   9.305
 1640POPC   GL122801  20.405  41.521   9.024
 1640POPC   GL222802  20.746  41.437   8.992
 1640POPC   C1A22803  20.384  41.563   8.559
 1640POPC   D2A22804  20.617  41.859   8.262
 1640POPC   C3A22805  20.352  41.843   7.920
 1640POPC   C4A22806  20.340  41.418   7.865
 1640POPC   C1B22807  20.876  41.506   8.596
 1640POPC   C2B22808  20.755  41.344   8.197
 1640POPC   C3B22809  20.876  41.624   7.872
 1640POPC   C4B22810  21.102  42.008   7.839
 1641POPC   NC322811   5.032  13.082   9.645
 1641POPC   PO422812   5.294  12.480   9.497
 1641POPC   GL122813   5.127  12.729   9.127
 1641POPC   GL222814   4.967  13.070   9.112
 1641POPC   C1A22815   5.342  12.957   8.779
 1641POPC   D2A22816   5.447  13.241   8.432
 1641POPC   C3A22817   5.333  13.067   8.026
 1641POPC   C4A22818   5.166  12.894   7.645
 1641POPC   C1B22819   4.818  12.920   8.692
 1641POPC   C2B22820   4.958  12.789   8.278
 1641POPC   C3B22821   4.727  12.805   7.878
 1641POPC   C4B22822   4.677  12.929   7.416
 1642POPC   NC322823  17.731  37.025   9.636
 1642POPC   PO422824  17.407  36.426   9.572
 1642POPC   GL122825  17.469  36.784   9.241
 1642POPC   GL222826  17.263  37.085   9.347
 1642POPC   C1A22827  17.735  36.862   8.836
 1642POPC   D2A22828  17.788  36.864   8.395
 1642POPC   C3A22829  17.535  36.573   8.183
 1642POPC   C4A22830  17.214  36.623   7.867
 1642POPC   C1B22831  17.310  37.133   8.896
 1642POPC   C2B22832  17.531  37.297   8.537
 1642POPC   C3B22833  17.442  37.220   8.097
 1642POPC   C4B22834  17.659  36.932   7.830
 1643POPC   NC322835  28.790   3.423   9.517
 1643POPC   PO422836  28.059   3.320   9.632
 1643POPC   GL122837  28.133   3.556   9.213
 1643POPC   GL222838  28.449   3.749   9.266
 1643POPC   C1A22839  28.366   3.539   8.805
 1643POPC   D2A22840  28.776   3.472   8.561
 1643POPC   C3A22841  28.700   3.521   8.124
 1643POPC   C4A22842  28.303   3.478   7.952
 1643POPC   C1B22843  28.647   3.951   8.896
 1643POPC   C2B22844  28.511   3.915   8.473
 1643POPC   C3B22845  28.363   3.972   8.066
 1643POPC   C4B22846  28.537   3.831   7.692
 1644POPC   NC322847  27.401  40.925   9.561
 1644POPC   PO422848  27.977  41.263   9.410
 1644POPC   GL122849  27.645  41.055   9.113
 1644POPC   GL222850  27.304  41.169   9.096
 1644POPC   C1A22851  27.556  40.839   8.705
 1644POPC   D2A22852  27.373  40.687   8.306
 1644POPC   C3A22853  27.704  40.525   7.999
 1644POPC   C4A22854  27.921  40.221   7.724
 1644POPC   C1B22855  27.267  41.259   8.683
 1644POPC   C2B22856  27.538  41.213   8.339
 1644POPC   C3B22857  27.563  41.030   7.926
 1644POPC   C4B22858  27.538  41.122   7.486
 1645POPC   NC322859   3.645  38.208   9.591
 1645POPC   PO422860   3.407  38.872   9.458
 1645POPC   GL122861   3.484  38.593   9.107
 1645POPC   GL222862   3.824  38.529   9.203
 1645POPC   C1A22863   3.400  38.304   8.735
 1645POPC   D2A22864   3.259  38.203   8.289
 1645POPC   C3A22865   3.131  38.574   8.013
 1645POPC   C4A22866   3.352  38.750   7.662
 1645POPC   C1B22867   3.927  38.448   8.768
 1645POPC   C2B22868   3.731  38.489   8.363
 1645POPC   C3B22869   3.605  38.376   7.949
 1645POPC   C4B22870   3.785  38.205   7.584
 1646POPC   NC322871  14.853  42.471   9.469
 1646POPC   PO422872  15.453  42.673   9.112
 1646POPC   GL122873  15.031  42.451   8.993
 1646POPC   GL222874  14.757  42.165   9.050
 1646POPC   C1A22875  14.830  42.383   8.598
 1646POPC   D2A22876  14.894  42.353   8.155
 1646POPC   C3A22877  15.286  42.531   8.098
 1646POPC   C4A22878  15.511  42.585   7.753
 1646POPC   C1B22879  15.095  41.966   8.802
 1646POPC   C2B22880  15.272  42.039   8.399
 1646POPC   C3B22881  15.083  41.896   8.037
 1646POPC   C4B22882  15.147  42.154   7.679
 1647POPC   NC322883  11.850   3.648   9.572
 1647POPC   PO422884  12.152   3.066   9.750
 1647POPC   GL122885  12.146   3.324   9.308
 1647POPC   GL222886  11.866   3.348   9.105
 1647POPC   C1A22887  12.314   3.357   8.878
 1647POPC   D2A22888  12.230   3.478   8.469
 1647POPC   C3A22889  12.284   3.671   8.071
 1647POPC   C4A22890  12.361   3.525   7.683
 1647POPC   C1B22891  11.742   3.359   8.656
 1647POPC   C2B22892  11.799   3.519   8.204
 1647POPC   C3B22893  11.838   3.569   7.758
 1647POPC   C4B22894  11.731   3.690   7.329
 1648POPC   NC322895  37.976   1.487   9.569
 1648POPC   PO422896  38.589   1.131   9.538
 1648POPC   GL122897  38.385   1.198   9.182
 1648POPC   GL222898  38.755   1.263   9.072
 1648POPC   C1A22899  38.110   1.099   8.816
 1648POPC   D2A22900  38.227   1.227   8.407
 1648POPC   C3A22901  38.210   0.968   8.064
 1648POPC   C4A22902  38.271   1.181   7.665
 1648POPC   C1B22903  38.608   1.065   8.730
 1648POPC   C2B22904  38.754   1.122   8.340
 1648POPC   C3B22905  38.692   1.140   7.943
 1648POPC   C4B22906  38.804   1.097   7.529
 1649POPC   NC322907   8.735   1.435   9.384
 1649POPC   PO422908   9.229   0.942   9.462
 1649POPC   GL122909   9.151   1.216   9.154
 1649POPC   GL222910   8.850   1.043   9.067
 1649POPC   C1A22911   9.181   1.447   8.774
 1649POPC   D2A22912   8.973   1.360   8.409
 1649POPC   C3A22913   9.160   1.499   8.008
 1649POPC   C4A22914   8.943   1.525   7.642
 1649POPC   C1B22915   8.584   1.058   8.726
 1649POPC   C2B22916   8.598   0.977   8.307
 1649POPC   C3B22917   8.755   1.185   7.973
 1649POPC   C4B22918   8.794   1.025   7.563
 1650POPC   NC322919  19.447  20.517   9.433
 1650POPC   PO422920  20.042  20.337   9.485
 1650POPC   GL122921  19.851  20.379   9.107
 1650POPC   GL222922  19.749  20.719   9.090
 1650POPC   C1A22923  19.904  20.496   8.680
 1650POPC   D2A22924  19.916  20.750   8.388
 1650POPC   C3A22925  19.847  20.604   8.016
 1650POPC   C4A22926  20.046  20.539   7.672
 1650POPC   C1B22927  19.512  20.854   8.726
 1650POPC   C2B22928  19.332  20.829   8.335
 1650POPC   C3B22929  19.484  20.991   7.983
 1650POPC   C4B22930  19.599  20.813   7.578
 1651POPC   NC322931  25.683  24.524   9.679
 1651POPC   PO422932  26.318  24.253   9.545
 1651POPC   GL122933  26.283  24.477   9.187
 1651POPC   GL222934  25.904  24.561   9.191
 1651POPC   C1A22935  26.208  24.366   8.782
 1651POPC   D2A22936  26.108  24.105   8.458
 1651POPC   C3A22937  26.347  24.197   8.088
 1651POPC   C4A22938  26.203  24.399   7.728
 1651POPC   C1B22939  25.922  24.781   8.783
 1651POPC   C2B22940  26.007  24.612   8.375
 1651POPC   C3B22941  25.996  24.806   8.008
 1651POPC   C4B22942  25.736  24.960   7.695
 1652POPC   NC322943   5.572   0.510   9.402
 1652POPC   PO422944   6.203   0.412   9.611
 1652POPC   GL122945   6.152   0.379   9.170
 1652POPC   GL222946   5.827   0.281   9.029
 1652POPC   C1A22947   6.049   0.684   8.819
 1652POPC   D2A22948   5.720   0.597   8.500
 1652POPC   C3A22949   5.843   0.589   8.074
 1652POPC   C4A22950   6.082   0.448   7.724
 1652POPC   C1B22951   5.624   0.042   8.702
 1652POPC   C2B22952   5.484  44.861   8.312
 1652POPC   C3B22953   5.449  44.966   7.885
 1652POPC   C4B22954   5.720   0.113   7.558
 1653POPC   NC322955  15.897  44.690   9.477
 1653POPC   PO422956  16.462  44.394   9.559
 1653POPC   GL122957  16.284  44.601   9.114
 1653POPC   GL222958  15.898  44.525   9.012
 1653POPC   C1A22959  16.188  44.662   8.639
 1653POPC   D2A22960  15.812  44.459   8.492
 1653POPC   C3A22961  15.795  44.323   8.064
 1653POPC   C4A22962  16.071  44.446   7.728
 1653POPC   C1B22963  15.748  44.925   8.825
 1653POPC   C2B22964  15.963   0.077   8.466
 1653POPC   C3B22965  16.005  44.798   8.115
 1653POPC   C4B22966  15.819  44.901   7.710
 1654POPC   NC322967   0.081  27.744   9.506
 1654POPC   PO422968  44.426  27.524   9.631
 1654POPC   GL122969  44.545  27.501   9.210
 1654POPC   GL222970  44.871  27.527   9.100
 1654POPC   C1A22971  44.456  27.710   8.816
 1654POPC   D2A22972  44.567  27.701   8.388
 1654POPC   C3A22973  44.344  27.781   8.032
 1654POPC   C4A22974  44.457  27.490   7.720
 1654POPC   C1B22975   0.130  27.561   8.781
 1654POPC   C2B22976   0.026  27.519   8.382
 1654POPC   C3B22977  44.912  27.596   7.993
 1654POPC   C4B22978   0.149  27.506   7.645
 1655POPC   NC322979  14.087  34.438   9.504
 1655POPC   PO422980  14.585  34.848   9.242
 1655POPC   GL122981  14.318  34.561   8.974
 1655POPC   GL222982  14.096  34.269   9.036
 1655POPC   C1A22983  14.422  34.261   8.643
 1655POPC   D2A22984  14.566  34.327   8.229
 1655POPC   C3A22985  14.471  34.713   8.002
 1655POPC   C4A22986  14.656  34.540   7.657
 1655POPC   C1B22987  13.901  34.388   8.658
 1655POPC   C2B22988  14.081  34.509   8.285
 1655POPC   C3B22989  14.147  34.329   7.895
 1655POPC   C4B22990  13.804  34.188   7.670
 1656POPC   NC322991  25.290  43.626   9.347
 1656POPC   PO422992  25.377  42.947   9.560
 1656POPC   GL122993  25.412  43.156   9.189
 1656POPC   GL222994  25.092  43.160   9.192
 1656POPC   C1A22995  25.381  43.163   8.747
 1656POPC   D2A22996  25.305  42.920   8.351
 1656POPC   C3A22997  25.400  43.123   7.921
 1656POPC   C4A22998  25.651  42.953   7.575
 1656POPC   C1B22999  24.909  43.045   8.842
 1656POPC   C2B23000  24.962  43.296   8.438
 1656POPC   C3B23001  24.904  43.089   8.039
 1656POPC   C4B23002  24.957  43.180   7.593
 1657POPC   NC323003  29.825   9.559   9.431
 1657POPC   PO423004  30.063  10.185   9.570
 1657POPC   GL123005  30.227   9.991   9.154
 1657POPC   GL223006  30.218   9.615   9.112
 1657POPC   C1A23007  30.164   9.902   8.692
 1657POPC   D2A23008  29.924   9.557   8.487
 1657POPC   C3A23009  29.754   9.600   8.052
 1657POPC   C4A23010  29.647   9.893   7.709
 1657POPC   C1B23011  30.442   9.487   8.728
 1657POPC   C2B23012  30.423   9.555   8.334
 1657POPC   C3B23013  30.198   9.848   8.143
 1657POPC   C4B23014  30.156   9.896   7.730
 1658POPC   NC323015  13.680  44.407   9.573
 1658POPC   PO423016  13.397   0.015   9.534
 1658POPC   GL123017  13.650  44.739   9.200
 1658POPC   GL223018  13.496  44.401   9.103
 1658POPC   C1A23019  13.815  44.661   8.784
 1658POPC   D2A23020  13.849  44.867   8.363
 1658POPC   C3A23021  13.779  44.677   7.927
 1658POPC   C4A23022  13.541  44.838   7.530
 1658POPC   C1B23023  13.317  44.564   8.707
 1658POPC   C2B23024  13.327  44.787   8.319
 1658POPC   C3B23025  13.257  44.634   7.910
 1658POPC   C4B23026  13.317  44.361   7.529
 1659POPC   NC323027  17.178  23.358   9.223
 1659POPC   PO423028  17.592  23.741   9.699
 1659POPC   GL123029  17.554  23.713   9.222
 1659POPC   GL223030  17.617  23.416   8.953
 1659POPC   C1A23031  17.461  23.891   8.810
 1659POPC   D2A23032  17.206  23.933   8.425
 1659POPC   C3A23033  17.430  23.791   8.057
 1659POPC   C4A23034  17.477  23.427   7.806
 1659POPC   C1B23035  17.558  23.508   8.490
 1659POPC   C2B23036  17.855  23.486   8.136
 1659POPC   C3B23037  18.010  23.387   7.738
 1659POPC   C4B23038  17.937  23.316   7.289
 1660POPC   NC323039  42.818  33.674   9.550
 1660POPC   PO423040  43.236  34.161   9.388
 1660POPC   GL123041  43.152  33.788   9.184
 1660POPC   GL223042  42.842  33.930   9.123
 1660POPC   C1A23043  43.042  33.583   8.805
 1660POPC   D2A23044  42.964  33.841   8.483
 1660POPC   C3A23045  42.890  33.576   8.156
 1660POPC   C4A23046  43.042  33.727   7.762
 1660POPC   C1B23047  42.661  34.115   8.801
 1660POPC   C2B23048  42.514  34.082   8.395
 1660POPC   C3B23049  42.742  34.049   8.064
 1660POPC   C4B23050  42.770  34.139   7.676
 1661POPC   NC323051   2.377  17.147   9.419
 1661POPC   PO423052   3.023  17.544   9.466
 1661POPC   GL123053   2.684  17.520   9.181
 1661POPC   GL223054   2.629  17.861   9.097
 1661POPC   C1A23055   2.647  17.251   8.809
 1661POPC   D2A23056   2.841  17.197   8.394
 1661POPC   C3A23057   2.638  17.489   8.104
 1661POPC   C4A23058   2.486  17.537   7.682
 1661POPC   C1B23059   2.856  17.713   8.718
 1661POPC   C2B23060   2.937  17.844   8.278
 1661POPC   C3B23061   2.919  17.845   7.817
 1661POPC   C4B23062   2.959  17.618   7.427
 1662POPC   NC323063   7.858  13.630   9.806
 1662POPC   PO423064   8.425  13.610   9.449
 1662POPC   GL123065   8.449  13.650   9.049
 1662POPC   GL223066   8.202  13.861   8.906
 1662POPC   C1A23067   8.270  13.448   8.684
 1662POPC   D2A23068   8.266  13.669   8.328
 1662POPC   C3A23069   7.984  13.515   8.056
 1662POPC   C4A23070   8.118  13.346   7.712
 1662POPC   C1B23071   7.889  13.868   8.642
 1662POPC   C2B23072   7.968  14.130   8.330
 1662POPC   C3B23073   8.120  14.025   7.980
 1662POPC   C4B23074   8.070  13.843   7.617
 1663POPC   NC323075  38.132  22.834   9.903
 1663POPC   PO423076  38.620  22.708   9.543
 1663POPC   GL123077  38.381  22.785   9.195
 1663POPC   GL223078  38.709  22.799   9.002
 1663POPC   C1A23079  38.298  22.920   8.752
 1663POPC   D2A23080  38.131  22.816   8.327
 1663POPC   C3A23081  38.342  22.965   7.970
 1663POPC   C4A23082  38.375  22.992   7.517
 1663POPC   C1B23083  38.749  23.154   8.678
 1663POPC   C2B23084  38.706  23.244   8.242
 1663POPC   C3B23085  38.687  23.313   7.796
 1663POPC   C4B23086  38.776  23.272   7.371
 1664POPC   NC323087  28.743   4.418   9.421
 1664POPC   PO423088  28.236   4.852   9.548
 1664POPC   GL123089  28.234   4.611   9.148
 1664POPC   GL223090  28.265   4.247   9.196
 1664POPC   C1A23091  28.492   4.503   8.767
 1664POPC   D2A23092  28.777   4.716   8.428
 1664POPC   C3A23093  28.557   4.606   8.062
 1664POPC   C4A23094  28.510   4.345   7.746
 1664POPC   C1B23095  28.129   4.057   8.798
 1664POPC   C2B23096  27.984   4.161   8.358
 1664POPC   C3B23097  27.908   4.220   7.900
 1664POPC   C4B23098  28.074   4.261   7.469
 1665POPC   NC323099  39.329  10.520   9.658
 1665POPC   PO423100  39.006  10.042   9.312
 1665POPC   GL123101  39.118  10.485   9.205
 1665POPC   GL223102  39.470  10.550   9.155
 1665POPC   C1A23103  39.058  10.701   8.834
 1665POPC   D2A23104  38.901  10.579   8.434
 1665POPC   C3A23105  39.124  10.725   8.066
 1665POPC   C4A23106  38.975  10.589   7.620
 1665POPC   C1B23107  39.334  10.266   8.796
 1665POPC   C2B23108  39.429  10.330   8.385
 1665POPC   C3B23109  39.302  10.260   8.006
 1665POPC   C4B23110  39.457  10.139   7.684
 1666POPC   NC323111   4.349  28.238   9.639
 1666POPC   PO423112   4.344  28.884   9.610
 1666POPC   GL123113   4.391  28.614   9.221
 1666POPC   GL223114   4.392  28.233   9.144
 1666POPC   C1A23115   4.496  28.551   8.775
 1666POPC   D2A23116   4.398  28.370   8.415
 1666POPC   C3A23117   4.588  28.468   8.066
 1666POPC   C4A23118   4.445  28.728   7.795
 1666POPC   C1B23119   4.202  28.048   8.787
 1666POPC   C2B23120   4.240  27.892   8.369
 1666POPC   C3B23121   4.345  28.012   7.992
 1666POPC   C4B23122   4.336  28.254   7.668
 1667POPC   NC323123  12.772  14.130   9.399
 1667POPC   PO423124  12.986  14.733   9.445
 1667POPC   GL123125  12.863  14.547   9.102
 1667POPC   GL223126  13.133  14.657   8.872
 1667POPC   C1A23127  12.855  14.274   8.753
 1667POPC   D2A23128  13.078  14.415   8.384
 1667POPC   C3A23129  12.894  14.241   8.026
 1667POPC   C4A23130  12.780  14.424   7.654
 1667POPC   C1B23131  12.732  14.798   8.685
 1667POPC   C2B23132  12.521  14.834   8.303
 1667POPC   C3B23133  12.596  14.862   7.879
 1667POPC   C4B23134  12.308  14.810   7.579
 1668POPC   NC323135  26.294  22.786   9.489
 1668POPC   PO423136  25.652  22.887   9.589
 1668POPC   GL123137  25.876  23.008   9.237
 1668POPC   GL223138  25.891  22.657   9.164
 1668POPC   C1A23139  26.059  23.118   8.842
 1668POPC   D2A23140  26.301  23.217   8.482
 1668POPC   C3A23141  26.226  23.113   8.079
 1668POPC   C4A23142  25.975  23.061   7.725
 1668POPC   C1B23143  25.966  22.613   8.752
 1668POPC   C2B23144  26.128  22.676   8.368
 1668POPC   C3B23145  25.891  22.639   8.024
 1668POPC   C4B23146  25.986  22.571   7.644
 1669POPC   NC323147  41.355  31.758   9.263
 1669POPC   PO423148  41.699  31.226   9.446
 1669POPC   GL123149  41.632  31.378   9.063
 1669POPC   GL223150  41.294  31.308   9.026
 1669POPC   C1A23151  41.787  31.649   8.752
 1669POPC   D2A23152  41.892  31.490   8.402
 1669POPC   C3A23153  41.616  31.461   8.103
 1669POPC   C4A23154  41.844  31.517   7.743
 1669POPC   C1B23155  41.335  31.452   8.605
 1669POPC   C2B23156  41.374  31.844   8.448
 1669POPC   C3B23157  41.271  31.907   8.049
 1669POPC   C4B23158  41.338  31.665   7.690
 1670POPC   NC323159  21.713  44.642   9.324
 1670POPC   PO423160  21.190  44.329   9.580
 1670POPC   GL123161  21.148  44.541   9.130
 1670POPC   GL223162  21.250  44.881   9.230
 1670POPC   C1A23163  21.179  44.520   8.624
 1670POPC   D2A23164  21.478  44.418   8.285
 1670POPC   C3A23165  21.406  44.420   7.821
 1670POPC   C4A23166  21.193  44.398   7.392
 1670POPC   C1B23167  21.469  44.892   8.797
 1670POPC   C2B23168  21.429  44.938   8.354
 1670POPC   C3B23169  21.521  44.893   7.920
 1670POPC   C4B23170  21.388   0.170   7.596
 1671POPC   NC323171   4.190   8.836   9.612
 1671POPC   PO423172   4.516   9.369   9.574
 1671POPC   GL123173   4.353   9.213   9.176
 1671POPC   GL223174   4.380   8.839   9.138
 1671POPC   C1A23175   4.327   9.134   8.718
 1671POPC   D2A23176   4.199   9.288   8.309
 1671POPC   C3A23177   4.404   9.230   7.909
 1671POPC   C4A23178   4.227   9.453   7.520
 1671POPC   C1B23179   4.427   8.625   8.746
 1671POPC   C2B23180   4.266   8.618   8.328
 1671POPC   C3B23181   4.498   8.581   7.951
 1671POPC   C4B23182   4.400   8.663   7.536
 1672POPC   NC323183  26.090  41.914   9.491
 1672POPC   PO423184  26.167  42.571   9.509
 1672POPC   GL123185  26.020  42.390   9.148
 1672POPC   GL223186  26.282  42.135   9.064
 1672POPC   C1A23187  25.910  42.265   8.717
 1672POPC   D2A23188  25.773  42.042   8.362
 1672POPC   C3A23189  26.039  42.209   8.062
 1672POPC   C4A23190  25.932  42.556   7.850
 1672POPC   C1B23191  26.376  42.548   8.846
 1672POPC   C2B23192  26.181  42.622   8.458
 1672POPC   C3B23193  26.351  42.711   8.092
 1672POPC   C4B23194  26.408  42.531   7.705
 1673POPC   NC323195  33.734   6.939   9.544
 1673POPC   PO423196  34.273   7.362   9.487
 1673POPC   GL123197  33.927   7.418   9.175
 1673POPC   GL223198  33.977   7.078   9.117
 1673POPC   C1A23199  33.735   7.669   8.802
 1673POPC   D2A23200  33.936   7.719   8.377
 1673POPC   C3A23201  33.797   7.694   7.949
 1673POPC   C4A23202  33.900   7.634   7.483
 1673POPC   C1B23203  33.671   7.171   8.797
 1673POPC   C2B23204  33.868   7.155   8.403
 1673POPC   C3B23205  34.107   7.322   8.091
 1673POPC   C4B23206  33.940   7.220   7.755
 1674POPC   NC323207   1.736   8.931   9.377
 1674POPC   PO423208   2.299   9.380   9.671
 1674POPC   GL123209   2.334   9.204   9.189
 1674POPC   GL223210   2.209   8.851   9.140
 1674POPC   C1A23211   2.096   9.132   8.752
 1674POPC   D2A23212   1.885   9.116   8.341
 1674POPC   C3A23213   1.963   9.213   7.904
 1674POPC   C4A23214   2.320   9.255   7.630
 1674POPC   C1B23215   2.231   8.614   8.783
 1674POPC   C2B23216   2.034   8.636   8.386
 1674POPC   C3B23217   1.933   8.716   7.966
 1674POPC   C4B23218   1.580   8.781   7.693
 1675POPC   NC323219  14.637  16.489   9.556
 1675POPC   PO423220  15.087  17.002   9.453
 1675POPC   GL123221  14.962  16.661   9.167
 1675POPC   GL223222  15.218  16.439   9.088
 1675POPC   C1A23223  14.988  16.633   8.688
 1675POPC   D2A23224  15.144  16.936   8.383
 1675POPC   C3A23225  15.222  16.844   7.955
 1675POPC   C4A23226  14.857  16.782   7.780
 1675POPC   C1B23227  15.434  16.360   8.703
 1675POPC   C2B23228  15.380  16.442   8.252
 1675POPC   C3B23229  15.609  16.527   7.865
 1675POPC   C4B23230  15.597  16.377   7.449
 1676POPC   NC323231  10.126  34.533   9.588
 1676POPC   PO423232   9.451  34.228   9.455
 1676POPC   GL123233   9.772  34.483   9.211
 1676POPC   GL223234   9.616  34.806   9.111
 1676POPC   C1A23235   9.903  34.360   8.789
 1676POPC   D2A23236   9.647  34.266   8.418
 1676POPC   C3A23237   9.815  34.459   8.039
 1676POPC   C4A23238   9.584  34.740   7.812
 1676POPC   C1B23239   9.921  34.855   8.799
 1676POPC   C2B23240  10.014  34.850   8.363
 1676POPC   C3B23241  10.127  34.889   7.942
 1676POPC   C4B23242  10.070  34.762   7.504
 1677POPC   NC323243  39.797  33.476   9.217
 1677POPC   PO423244  39.308  33.836   9.510
 1677POPC   GL123245  39.273  33.683   9.112
 1677POPC   GL223246  39.017  33.941   9.089
 1677POPC   C1A23247  38.995  33.550   8.753
 1677POPC   D2A23248  38.718  33.626   8.370
 1677POPC   C3A23249  38.938  33.732   8.013
 1677POPC   C4A23250  39.155  33.501   7.756
 1677POPC   C1B23251  39.374  34.094   8.812
 1677POPC   C2B23252  39.542  34.095   8.382
 1677POPC   C3B23253  39.467  33.765   8.099
 1677POPC   C4B23254  39.622  33.685   7.695
 1678POPC   NC323255  24.515  23.333   9.277
 1678POPC   PO423256  24.161  22.897   9.689
 1678POPC   GL123257  24.193  22.879   9.218
 1678POPC   GL223258  24.160  23.105   8.965
 1678POPC   C1A23259  24.507  22.714   8.909
 1678POPC   D2A23260  24.512  22.612   8.463
 1678POPC   C3A23261  24.261  22.826   8.155
 1678POPC   C4A23262  24.515  22.937   7.827
 1678POPC   C1B23263  24.319  23.072   8.604
 1678POPC   C2B23264  24.639  23.118   8.347
 1678POPC   C3B23265  24.561  23.390   8.031
 1678POPC   C4B23266  24.716  23.475   7.641
 1679POPC   NC323267  26.385  11.870   9.552
 1679POPC   PO423268  27.044  11.961   9.815
 1679POPC   GL123269  26.881  11.973   9.309
 1679POPC   GL223270  26.566  12.182   9.177
 1679POPC   C1A23271  26.940  12.171   8.835
 1679POPC   D2A23272  26.689  12.188   8.414
 1679POPC   C3A23273  26.886  12.204   7.976
 1679POPC   C4A23274  27.076  12.124   7.542
 1679POPC   C1B23275  26.558  11.837   8.828
 1679POPC   C2B23276  26.332  11.750   8.446
 1679POPC   C3B23277  26.393  11.900   8.047
 1679POPC   C4B23278  26.649  11.853   7.696
 1680POPC   NC323279  17.241   9.248   9.580
 1680POPC   PO423280  16.773   8.729   9.506
 1680POPC   GL123281  16.882   8.915   9.150
 1680POPC   GL223282  16.957   9.279   9.125
 1680POPC   C1A23283  16.725   8.824   8.759
 1680POPC   D2A23284  16.554   9.007   8.410
 1680POPC   C3A23285  16.755   8.855   8.040
 1680POPC   C4A23286  16.843   8.586   7.713
 1680POPC   C1B23287  16.626   9.345   8.818
 1680POPC   C2B23288  16.654   9.528   8.408
 1680POPC   C3B23289  16.616   9.342   8.024
 1680POPC   C4B23290  16.853   9.271   7.676
 1681POPC   NC323291   7.586  24.945   9.404
 1681POPC   PO423292   7.037  25.367   9.398
 1681POPC   GL123293   7.162  25.209   9.042
 1681POPC   GL223294   7.512  25.271   8.996
 1681POPC   C1A23295   7.177  25.376   8.639
 1681POPC   D2A23296   7.460  25.269   8.347
 1681POPC   C3A23297   7.214  25.300   8.011
 1681POPC   C4A23298   7.433  25.124   7.712
 1681POPC   C1B23299   7.578  25.682   8.749
 1681POPC   C2B23300   7.500  25.779   8.325
 1681POPC   C3B23301   7.631  25.601   7.939
 1681POPC   C4B23302   7.724  25.453   7.483
 1682POPC   NC323303   8.324  25.249   9.599
 1682POPC   PO423304   7.751  25.395   9.430
 1682POPC   GL123305   8.010  25.197   9.173
 1682POPC   GL223306   8.308  25.407   9.116
 1682POPC   C1A23307   7.954  25.332   8.754
 1682POPC   D2A23308   7.929  25.480   8.361
 1682POPC   C3A23309   7.930  25.211   8.016
 1682POPC   C4A23310   8.144  25.458   7.781
 1682POPC   C1B23311   8.456  25.476   8.687
 1682POPC   C2B23312   8.422  25.343   8.243
 1682POPC   C3B23313   8.666  25.468   7.886
 1682POPC   C4B23314   8.660  25.376   7.424
 1683POPC   NC323315  13.465  19.508   9.460
 1683POPC   PO423316  13.825  20.045   9.556
 1683POPC   GL123317  13.636  19.944   9.172
 1683POPC   GL223318  13.513  20.246   9.039
 1683POPC   C1A23319  13.710  19.871   8.731
 1683POPC   D2A23320  13.476  19.842   8.334
 1683POPC   C3A23321  13.725  19.876   7.999
 1683POPC   C4A23322  13.814  19.655   7.671
 1683POPC   C1B23323  13.287  20.164   8.679
 1683POPC   C2B23324  13.319  20.331   8.256
 1683POPC   C3B23325  13.357  20.182   7.848
 1683POPC   C4B23326  13.196  19.790   7.768
 1684POPC   NC323327  19.534   2.221   9.348
 1684POPC   PO423328  20.081   2.093   9.659
 1684POPC   GL123329  20.017   2.016   9.228
 1684POPC   GL223330  19.928   1.674   9.280
 1684POPC   C1A23331  19.879   2.094   8.804
 1684POPC   D2A23332  19.901   2.319   8.426
 1684POPC   C3A23333  19.716   2.083   8.095
 1684POPC   C4A23334  19.737   2.057   7.680
 1684POPC   C1B23335  20.124   1.646   8.861
 1684POPC   C2B23336  20.002   1.782   8.420
 1684POPC   C3B23337  20.057   1.720   7.969
 1684POPC   C4B23338  19.990   1.369   7.723
 1685POPC   NC323339  15.567  26.282   9.572
 1685POPC   PO423340  15.347  25.619   9.783
 1685POPC   GL123341  15.333  25.784   9.331
 1685POPC   GL223342  15.063  26.009   9.236
 1685POPC   C1A23343  15.396  25.828   8.848
 1685POPC   D2A23344  15.443  26.067   8.431
 1685POPC   C3A23345  15.334  25.895   7.996
 1685POPC   C4A23346  15.353  25.871   7.514
 1685POPC   C1B23347  14.909  26.273   8.899
 1685POPC   C2B23348  14.847  26.264   8.457
 1685POPC   C3B23349  15.076  26.321   8.136
 1685POPC   C4B23350  15.186  26.311   7.735
 1686POPC   NC323351  10.611  26.421   9.513
 1686POPC   PO423352  10.867  25.846   9.858
 1686POPC   GL123353  10.751  25.926   9.373
 1686POPC   GL223354  10.405  25.823   9.330
 1686POPC   C1A23355  10.722  26.132   8.915
 1686POPC   D2A23356  10.502  26.198   8.493
 1686POPC   C3A23357  10.678  26.153   8.087
 1686POPC   C4A23358  10.500  26.244   7.717
 1686POPC   C1B23359  10.317  25.828   8.878
 1686POPC   C2B23360  10.315  25.730   8.432
 1686POPC   C3B23361  10.216  25.861   7.999
 1686POPC   C4B23362  10.336  25.772   7.568
 1687POPC   NC323363   1.832  35.102   9.444
 1687POPC   PO423364   2.236  35.664   9.419
 1687POPC   GL123365   1.919  35.509   9.158
 1687POPC   GL223366   2.157  35.250   9.059
 1687POPC   C1A23367   1.712  35.510   8.776
 1687POPC   D2A23368   1.893  35.608   8.380
 1687POPC   C3A23369   1.690  35.451   8.016
 1687POPC   C4A23370   1.730  35.562   7.562
 1687POPC   C1B23371   2.019  35.116   8.647
 1687POPC   C2B23372   2.112  35.177   8.215
 1687POPC   C3B23373   2.167  35.484   7.885
 1687POPC   C4B23374   2.515  35.661   7.725
 1688POPC   NC323375   3.093   4.293   9.511
 1688POPC   PO423376   2.405   4.178   9.483
 1688POPC   GL123377   2.712   4.105   9.173
 1688POPC   GL223378   2.720   4.469   9.149
 1688POPC   C1A23379   2.825   4.134   8.731
 1688POPC   D2A23380   3.009   4.331   8.346
 1688POPC   C3A23381   2.881   4.241   7.919
 1688POPC   C4A23382   2.920   4.508   7.551
 1688POPC   C1B23383   2.390   4.637   8.848
 1688POPC   C2B23384   2.221   4.501   8.468
 1688POPC   C3B23385   2.417   4.445   8.115
 1688POPC   C4B23386   2.426   4.441   7.717
 1689POPC   NC323387   4.471  43.289   9.549
 1689POPC   PO423388   3.969  42.843   9.417
 1689POPC   GL123389   4.259  43.026   9.132
 1689POPC   GL223390   4.256  43.392   9.087
 1689POPC   C1A23391   4.232  43.042   8.686
 1689POPC   D2A23392   4.345  42.840   8.318
 1689POPC   C3A23393   4.159  42.948   7.910
 1689POPC   C4A23394   4.362  42.968   7.527
 1689POPC   C1B23395   4.426  43.521   8.680
 1689POPC   C2B23396   4.332  43.361   8.246
 1689POPC   C3B23397   4.340  43.420   7.801
 1689POPC   C4B23398   4.479  43.774   7.588
 1690POPC   NC323399  26.744  34.071   9.669
 1690POPC   PO423400  26.824  33.386   9.654
 1690POPC   GL123401  26.854  33.720   9.322
 1690POPC   GL223402  27.192  33.821   9.390
 1690POPC   C1A23403  26.691  33.821   8.882
 1690POPC   D2A23404  26.596  33.623   8.453
 1690POPC   C3A23405  26.670  33.877   8.069
 1690POPC   C4A23406  26.500  33.816   7.653
 1690POPC   C1B23407  27.197  33.700   8.948
 1690POPC   C2B23408  27.073  33.802   8.533
 1690POPC   C3B23409  27.220  33.768   8.123
 1690POPC   C4B23410  27.089  33.866   7.716
 1691POPC   NC323411  20.967   8.919   9.501
 1691POPC   PO423412  20.275   9.004   9.454
 1691POPC   GL123413  20.591   9.045   9.135
 1691POPC   GL223414  20.939   9.231   9.120
 1691POPC   C1A23415  20.434   8.892   8.749
 1691POPC   D2A23416  20.296   9.100   8.393
 1691POPC   C3A23417  20.442   9.041   7.987
 1691POPC   C4A23418  20.388   9.357   7.671
 1691POPC   C1B23419  20.958   8.921   8.788
 1691POPC   C2B23420  20.797   8.913   8.378
 1691POPC   C3B23421  20.967   8.973   7.986
 1691POPC   C4B23422  21.049   8.654   7.701
 1692POPC   NC323423  17.113   7.602   9.480
 1692POPC   PO423424  17.640   7.258   9.559
 1692POPC   GL123425  17.533   7.423   9.155
 1692POPC   GL223426  17.214   7.344   9.058
 1692POPC   C1A23427  17.540   7.604   8.735
 1692POPC   D2A23428  17.517   7.484   8.296
 1692POPC   C3A23429  17.608   7.738   7.921
 1692POPC   C4A23430  17.830   7.685   7.526
 1692POPC   C1B23431  17.181   7.212   8.642
 1692POPC   C2B23432  17.083   7.218   8.219
 1692POPC   C3B23433  17.346   7.276   7.855
 1692POPC   C4B23434  17.340   7.458   7.454
 1693POPC   NC323435  25.549  17.766   9.696
 1693POPC   PO423436  24.954  17.451   9.590
 1693POPC   GL123437  25.234  17.448   9.231
 1693POPC   GL223438  25.196  17.716   8.982
 1693POPC   C1A23439  25.469  17.293   8.880
 1693POPC   D2A23440  25.455  17.294   8.434
 1693POPC   C3A23441  25.310  17.638   8.180
 1693POPC   C4A23442  25.224  17.643   7.740
 1693POPC   C1B23443  24.996  17.394   8.717
 1693POPC   C2B23444  25.028  17.018   8.466
 1693POPC   C3B23445  25.092  17.150   8.060
 1693POPC   C4B23446  24.926  17.241   7.675
 1694POPC   NC323447  36.616  13.101  10.030
 1694POPC   PO423448  36.907  12.843   9.549
 1694POPC   GL123449  36.915  12.760   9.162
 1694POPC   GL223450  36.616  12.798   9.012
 1694POPC   C1A23451  37.097  12.937   8.808
 1694POPC   D2A23452  36.956  12.892   8.415
 1694POPC   C3A23453  37.102  12.995   8.010
 1694POPC   C4A23454  37.137  12.747   7.632
 1694POPC   C1B23455  36.657  13.183   8.818
 1694POPC   C2B23456  36.513  13.250   8.433
 1694POPC   C3B23457  36.583  13.016   8.086
 1694POPC   C4B23458  36.578  13.105   7.695
 1695POPC   NC323459  40.699   6.982   9.520
 1695POPC   PO423460  40.605   6.396   9.618
 1695POPC   GL123461  40.583   6.593   9.205
 1695POPC   GL223462  40.929   6.749   9.121
 1695POPC   C1A23463  40.582   6.666   8.760
 1695POPC   D2A23464  40.933   6.617   8.479
 1695POPC   C3A23465  40.876   6.747   8.075
 1695POPC   C4A23466  40.636   6.594   7.770
 1695POPC   C1B23467  40.931   6.323   8.912
 1695POPC   C2B23468  41.126   6.129   8.528
 1695POPC   C3B23469  41.203   6.331   8.110
 1695POPC   C4B23470  41.047   6.307   7.661
 1696POPC   NC323471  32.983  12.328   9.366
 1696POPC   PO423472  33.295  11.678   9.550
 1696POPC   GL123473  33.248  11.959   9.112
 1696POPC   GL223474  32.929  12.098   8.927
 1696POPC   C1A23475  33.307  11.839   8.738
 1696POPC   D2A23476  33.002  11.819   8.426
 1696POPC   C3A23477  33.198  11.823   8.024
 1696POPC   C4A23478  33.059  11.697   7.615
 1696POPC   C1B23479  32.869  12.502   8.740
 1696POPC   C2B23480  32.643  12.399   8.428
 1696POPC   C3B23481  32.805  12.163   8.091
 1696POPC   C4B23482  33.015  12.209   7.721
 1697POPC   NC323483  39.206  36.604   9.357
 1697POPC   PO423484  38.950  37.155   9.565
 1697POPC   GL123485  39.137  37.078   9.171
 1697POPC   GL223486  39.470  37.023   9.032
 1697POPC   C1A23487  39.011  36.902   8.788
 1697POPC   D2A23488  38.832  36.811   8.424
 1697POPC   C3A23489  38.960  36.919   8.058
 1697POPC   C4A23490  38.837  37.016   7.692
 1697POPC   C1B23491  39.473  36.943   8.568
 1697POPC   C2B23492  39.462  37.012   8.116
 1697POPC   C3B23493  39.493  37.111   7.670
 1697POPC   C4B23494  39.592  37.172   7.194
 1698POPC   NC323495  32.369  15.566   9.347
 1698POPC   PO423496  31.953  15.940   9.699
 1698POPC   GL123497  32.132  16.064   9.279
 1698POPC   GL223498  32.498  16.165   9.200
 1698POPC   C1A23499  32.054  16.127   8.832
 1698POPC   D2A23500  32.189  16.200   8.409
 1698POPC   C3A23501  31.944  16.202   8.047
 1698POPC   C4A23502  32.031  15.878   7.804
 1698POPC   C1B23503  32.584  16.076   8.751
 1698POPC   C2B23504  32.660  15.923   8.325
 1698POPC   C3B23505  32.561  15.697   7.914
 1698POPC   C4B23506  32.234  15.415   7.750
 1699POPC   NC323507  29.456  23.708   9.295
 1699POPC   PO423508  29.021  24.042   9.745
 1699POPC   GL123509  28.906  23.599   9.335
 1699POPC   GL223510  29.155  23.430   9.019
 1699POPC   C1A23511  28.739  23.598   8.830
 1699POPC   D2A23512  28.923  23.624   8.404
 1699POPC   C3A23513  29.005  23.883   8.049
 1699POPC   C4A23514  28.955  23.635   7.737
 1699POPC   C1B23515  29.347  23.710   8.664
 1699POPC   C2B23516  29.265  24.095   8.425
 1699POPC   C3B23517  29.467  24.133   8.025
 1699POPC   C4B23518  29.468  23.794   7.756
 1700POPC   NC323519  21.411   9.687   9.701
 1700POPC   PO423520  21.685  10.149   9.239
 1700POPC   GL123521  21.583   9.741   9.193
 1700POPC   GL223522  21.260   9.628   9.153
 1700POPC   C1A23523  21.638   9.670   8.764
 1700POPC   D2A23524  21.633   9.967   8.406
 1700POPC   C3A23525  21.666   9.762   7.994
 1700POPC   C4A23526  21.466   9.745   7.591
 1700POPC   C1B23527  21.083   9.728   8.749
 1700POPC   C2B23528  21.147   9.828   8.310
 1700POPC   C3B23529  21.095   9.965   7.900
 1700POPC   C4B23530  20.969   9.830   7.499
 1701POPC   NC323531  43.340   2.677   9.627
 1701POPC   PO423532  42.682   2.567   9.440
 1701POPC   GL123533  42.889   2.668   9.089
 1701POPC   GL223534  43.182   2.797   9.147
 1701POPC   C1A23535  42.913   2.927   8.734
 1701POPC   D2A23536  43.002   2.740   8.355
 1701POPC   C3A23537  42.961   2.911   7.969
 1701POPC   C4A23538  42.893   2.647   7.597
 1701POPC   C1B23539  43.378   2.732   8.728
 1701POPC   C2B23540  43.514   2.838   8.343
 1701POPC   C3B23541  43.421   2.669   7.965
 1701POPC   C4B23542  43.338   2.908   7.615
 1702POPC   NC323543  16.200  41.613   9.572
 1702POPC   PO423544  15.614  41.280   9.439
 1702POPC   GL123545  15.891  41.471   9.144
 1702POPC   GL223546  16.256  41.423   9.098
 1702POPC   C1A23547  15.928  41.549   8.719
 1702POPC   D2A23548  15.719  41.722   8.393
 1702POPC   C3A23549  16.055  41.674   8.161
 1702POPC   C4A23550  16.024  41.802   7.792
 1702POPC   C1B23551  16.415  41.280   8.710
 1702POPC   C2B23552  16.217  41.225   8.363
 1702POPC   C3B23553  16.304  41.248   7.967
 1702POPC   C4B23554  16.153  41.342   7.576
 1703POPC   NC323555   9.315  17.963   9.472
 1703POPC   PO423556   9.083  18.544   9.677
 1703POPC   GL123557   9.062  18.355   9.237
 1703POPC   GL223558   8.777  18.146   9.060
 1703POPC   C1A23559   9.240  18.343   8.830
 1703POPC   D2A23560   9.194  18.148   8.426
 1703POPC   C3A23561   9.269  18.112   7.967
 1703POPC   C4A23562   8.931  18.048   7.642
 1703POPC   C1B23563   8.755  18.538   8.857
 1703POPC   C2B23564   8.911  18.599   8.456
 1703POPC   C3B23565   8.839  18.373   8.083
 1703POPC   C4B23566   8.660  18.486   7.705
 1704POPC   NC323567   7.895  16.304   9.386
 1704POPC   PO423568   8.049  15.596   9.480
 1704POPC   GL123569   8.227  15.621   9.070
 1704POPC   GL223570   8.141  15.969   9.062
 1704POPC   C1A23571   8.162  15.722   8.623
 1704POPC   D2A23572   7.983  15.997   8.305
 1704POPC   C3A23573   8.057  15.875   7.871
 1704POPC   C4A23574   7.845  15.679   7.526
 1704POPC   C1B23575   8.187  16.275   8.727
 1704POPC   C2B23576   7.962  16.561   8.452
 1704POPC   C3B23577   8.009  16.476   8.020
 1704POPC   C4B23578   8.360  16.275   7.770
 1705POPC   NC323579  37.896  34.287   9.508
 1705POPC   PO423580  37.434  34.704   9.696
 1705POPC   GL123581  37.592  34.749   9.249
 1705POPC   GL223582  37.586  34.416   9.157
 1705POPC   C1A23583  37.785  34.716   8.797
 1705POPC   D2A23584  37.747  34.843   8.363
 1705POPC   C3A23585  37.714  34.524   8.033
 1705POPC   C4A23586  37.614  34.611   7.592
 1705POPC   C1B23587  37.680  34.230   8.741
 1705POPC   C2B23588  37.579  34.041   8.354
 1705POPC   C3B23589  37.405  34.095   7.958
 1705POPC   C4B23590  37.370  34.119   7.503
 1706POPC   NC323591  26.092  14.498   9.690
 1706POPC   PO423592  25.806  13.928   9.401
 1706POPC   GL123593  26.009  14.308   9.193
 1706POPC   GL223594  26.142  14.645   9.206
 1706POPC   C1A23595  26.121  14.251   8.802
 1706POPC   D2A23596  25.941  13.948   8.563
 1706POPC   C3A23597  26.035  14.096   8.159
 1706POPC   C4A23598  26.113  14.219   7.747
 1706POPC   C1B23599  25.943  14.731   8.818
 1706POPC   C2B23600  25.920  14.569   8.374
 1706POPC   C3B23601  26.035  14.683   7.927
 1706POPC   C4B23602  26.082  14.852   7.487
 1707POPC   NC323603  27.268  44.008   9.646
 1707POPC   PO423604  26.677  43.881   9.482
 1707POPC   GL123605  26.878  43.926   9.112
 1707POPC   GL223606  27.157  44.153   9.177
 1707POPC   C1A23607  26.724  43.895   8.688
 1707POPC   D2A23608  26.574  43.692   8.321
 1707POPC   C3A23609  26.862  43.618   8.044
 1707POPC   C4A23610  26.972  43.737   7.663
 1707POPC   C1B23611  27.080  44.253   8.781
 1707POPC   C2B23612  27.198  44.067   8.421
 1707POPC   C3B23613  27.265  44.265   8.069
 1707POPC   C4B23614  26.986  44.242   7.752
 1708POPC   NC323615  42.298   0.618   9.514
 1708POPC   PO423616  42.362  44.953   9.473
 1708POPC   GL123617  42.296   0.178   9.094
 1708POPC   GL223618  42.425   0.503   9.049
 1708POPC   C1A23619  42.128   0.142   8.690
 1708POPC   D2A23620  41.929   0.276   8.296
 1708POPC   C3A23621  42.109   0.438   7.911
 1708POPC   C4A23622  42.275   0.226   7.562
 1708POPC   C1B23623  42.086   0.633   8.780
 1708POPC   C2B23624  42.163   0.752   8.349
 1708POPC   C3B23625  42.528   0.750   8.064
 1708POPC   C4B23626  42.628   0.566   7.682
 1709POPC   NC323627  30.050  26.036   9.665
 1709POPC   PO423628  30.407  26.302   9.198
 1709POPC   GL123629  30.080  26.018   9.145
 1709POPC   GL223630  29.780  26.190   9.265
 1709POPC   C1A23631  30.060  25.709   8.810
 1709POPC   D2A23632  30.256  25.699   8.403
 1709POPC   C3A23633  29.978  25.783   8.056
 1709POPC   C4A23634  30.030  26.043   7.703
 1709POPC   C1B23635  29.687  26.182   8.827
 1709POPC   C2B23636  29.618  25.836   8.535
 1709POPC   C3B23637  29.449  25.714   8.138
 1709POPC   C4B23638  29.525  25.946   7.771
 1710POPC   NC323639  24.105  35.392   9.729
 1710POPC   PO423640  24.763  35.254   9.620
 1710POPC   GL123641  24.652  35.474   9.239
 1710POPC   GL223642  24.511  35.190   9.107
 1710POPC   C1A23643  24.637  35.584   8.781
 1710POPC   D2A23644  24.612  35.399   8.362
 1710POPC   C3A23645  24.595  35.602   7.944
 1710POPC   C4A23646  24.399  35.598   7.545
 1710POPC   C1B23647  24.233  35.276   8.724
 1710POPC   C2B23648  23.971  35.285   8.363
 1710POPC   C3B23649  24.129  35.363   7.951
 1710POPC   C4B23650  24.172  35.144   7.551
 1711POPC   NC323651   9.027   7.918   9.504
 1711POPC   PO423652   9.190   8.595   9.568
 1711POPC   GL123653   9.289   8.290   9.252
 1711POPC   GL223654   8.952   8.305   9.138
 1711POPC   C1A23655   9.298   8.163   8.812
 1711POPC   D2A23656   8.993   8.251   8.465
 1711POPC   C3A23657   9.153   8.283   8.055
 1711POPC   C4A23658   9.285   8.048   7.721
 1711POPC   C1B23659   8.668   8.456   8.817
 1711POPC   C2B23660   8.537   8.510   8.370
 1711POPC   C3B23661   8.692   8.507   7.908
 1711POPC   C4B23662   8.642   8.398   7.401
 1712POPC   NC323663  16.462  38.211   9.417
 1712POPC   PO423664  17.017  38.540   9.490
 1712POPC   GL123665  16.738  38.521   9.129
 1712POPC   GL223666  16.902  38.197   9.035
 1712POPC   C1A23667  16.503  38.291   8.744
 1712POPC   D2A23668  16.751  38.090   8.387
 1712POPC   C3A23669  16.834  38.368   8.041
 1712POPC   C4A23670  16.668  38.475   7.656
 1712POPC   C1B23671  16.969  38.495   8.677
 1712POPC   C2B23672  17.121  38.663   8.319
 1712POPC   C3B23673  17.015  38.847   7.917
 1712POPC   C4B23674  17.208  38.518   7.696
 1713POPC   NC323675   5.310  22.747   9.862
 1713POPC   PO423676   5.111  22.175   9.609
 1713POPC   GL123677   5.121  22.272   9.155
 1713POPC   GL223678   4.779  22.217   9.065
 1713POPC   C1A23679   5.307  22.319   8.749
 1713POPC   D2A23680   5.462  22.056   8.414
 1713POPC   C3A23681   5.488  22.196   8.005
 1713POPC   C4A23682   5.302  21.957   7.711
 1713POPC   C1B23683   4.802  22.417   8.646
 1713POPC   C2B23684   5.043  22.388   8.282
 1713POPC   C3B23685   4.989  22.334   7.874
 1713POPC   C4B23686   4.775  22.040   7.638
 1714POPC   NC323687  27.279  33.228   9.621
 1714POPC   PO423688  27.925  32.880   9.589
 1714POPC   GL123689  27.674  32.969   9.193
 1714POPC   GL223690  27.428  33.259   9.129
 1714POPC   C1A23691  27.771  33.125   8.773
 1714POPC   D2A23692  27.599  33.357   8.410
 1714POPC   C3A23693  27.659  33.105   8.065
 1714POPC   C4A23694  27.778  33.182   7.658
 1714POPC   C1B23695  27.269  32.946   8.782
 1714POPC   C2B23696  27.285  32.711   8.353
 1714POPC   C3B23697  27.175  32.966   7.990
 1714POPC   C4B23698  27.303  33.370   7.808
 1715POPC   NC323699  37.643   5.333   9.610
 1715POPC   PO423700  37.802   4.707   9.379
 1715POPC   GL123701  37.663   5.083   9.101
 1715POPC   GL223702  37.390   5.381   9.186
 1715POPC   C1A23703  37.873   5.037   8.678
 1715POPC   D2A23704  37.861   5.074   8.224
 1715POPC   C3A23705  38.004   4.935   7.846
 1715POPC   C4A23706  37.712   4.789   7.521
 1715POPC   C1B23707  37.236   5.284   8.793
 1715POPC   C2B23708  37.372   5.114   8.426
 1715POPC   C3B23709  37.401   4.959   8.020
 1715POPC   C4B23710  37.576   5.226   7.751
 1716POPC   NC323711  10.928   9.275   9.474
 1716POPC   PO423712  11.262   9.775   9.322
 1716POPC   GL123713  11.229   9.765   8.913
 1716POPC   GL223714  10.919   9.954   8.921
 1716POPC   C1A23715  11.270   9.444   8.599
 1716POPC   D2A23716  11.224   9.279   8.209
 1716POPC   C3A23717  11.366   9.606   7.954
 1716POPC   C4A23718  11.428   9.963   7.691
 1716POPC   C1B23719  11.099  10.082   8.556
 1716POPC   C2B23720  11.140  10.082   8.119
 1716POPC   C3B23721  10.876   9.916   7.801
 1716POPC   C4B23722  11.022   9.572   7.551
 1717POPC   NC323723  17.821  16.785   9.610
 1717POPC   PO423724  18.460  16.777   9.612
 1717POPC   GL123725  18.422  16.776   9.192
 1717POPC   GL223726  18.092  16.653   9.111
 1717POPC   C1A23727  18.560  16.580   8.821
 1717POPC   D2A23728  18.292  16.451   8.497
 1717POPC   C3A23729  18.276  16.599   8.074
 1717POPC   C4A23730  18.227  16.425   7.657
 1717POPC   C1B23731  18.183  16.912   8.765
 1717POPC   C2B23732  18.031  16.976   8.364
 1717POPC   C3B23733  17.851  16.880   7.978
 1717POPC   C4B23734  18.101  16.913   7.639
 1718POPC   NC323735  33.687  36.391   9.431
 1718POPC   PO423736  33.601  35.744   9.517
 1718POPC   GL123737  33.875  35.950   9.196
 1718POPC   GL223738  34.059  35.731   8.978
 1718POPC   C1A23739  33.928  36.170   8.778
 1718POPC   D2A23740  33.817  35.994   8.363
 1718POPC   C3A23741  33.879  36.200   7.958
 1718POPC   C4A23742  34.120  36.049   7.594
 1718POPC   C1B23743  33.578  35.785   8.795
 1718POPC   C2B23744  33.331  35.857   8.404
 1718POPC   C3B23745  33.505  35.846   7.970
 1718POPC   C4B23746  33.659  35.906   7.578
 1719POPC   NC323747  39.619   3.117   9.406
 1719POPC   PO423748  40.144   3.575   9.603
 1719POPC   GL123749  40.186   3.616   9.178
 1719POPC   GL223750  40.031   3.303   9.134
 1719POPC   C1A23751  40.226   3.559   8.735
 1719POPC   D2A23752  39.928   3.533   8.420
 1719POPC   C3A23753  40.044   3.520   8.036
 1719POPC   C4A23754  40.027   3.697   7.622
 1719POPC   C1B23755  39.720   3.253   8.788
 1719POPC   C2B23756  39.544   3.169   8.372
 1719POPC   C3B23757  39.567   3.349   7.956
 1719POPC   C4B23758  39.847   3.240   7.643
 1720POPC   NC323759  40.955  32.351   9.599
 1720POPC   PO423760  40.367  32.294   9.610
 1720POPC   GL123761  40.645  32.396   9.190
 1720POPC   GL223762  41.047  32.463   9.115
 1720POPC   C1A23763  40.586  32.274   8.751
 1720POPC   D2A23764  40.396  32.091   8.385
 1720POPC   C3A23765  40.499  32.247   7.982
 1720POPC   C4A23766  40.604  32.424   7.563
 1720POPC   C1B23767  41.086  32.159   8.797
 1720POPC   C2B23768  40.913  32.109   8.381
 1720POPC   C3B23769  40.991  32.346   8.021
 1720POPC   C4B23770  41.000  32.131   7.674
 1721POPC   NC323771  27.376   0.887   9.371
 1721POPC   PO423772  27.812   1.214   9.829
 1721POPC   GL123773  27.686   1.445   9.333
 1721POPC   GL223774  27.947   1.369   9.032
 1721POPC   C1A23775  27.491   1.423   8.854
 1721POPC   D2A23776  27.727   1.417   8.426
 1721POPC   C3A23777  27.508   1.205   8.069
 1721POPC   C4A23778  27.150   1.347   7.815
 1721POPC   C1B23779  27.840   1.009   8.705
 1721POPC   C2B23780  28.054   0.821   8.376
 1721POPC   C3B23781  27.878   0.865   7.976
 1721POPC   C4B23782  27.952   1.263   7.778
 1722POPC   NC323783  21.937  12.488   9.560
 1722POPC   PO423784  21.639  12.985   9.446
 1722POPC   GL123785  21.509  12.774   9.112
 1722POPC   GL223786  21.869  12.704   9.087
 1722POPC   C1A23787  21.254  12.854   8.710
 1722POPC   D2A23788  21.052  12.761   8.302
 1722POPC   C3A23789  20.946  12.976   7.891
 1722POPC   C4A23790  21.098  12.766   7.484
 1722POPC   C1B23791  21.760  12.928   8.722
 1722POPC   C2B23792  21.599  12.835   8.324
 1722POPC   C3B23793  21.408  12.787   7.923
 1722POPC   C4B23794  21.591  12.918   7.530
 1723POPC   NC323795  22.346   2.137   9.565
 1723POPC   PO423796  21.854   1.642   9.544
 1723POPC   GL123797  21.896   1.904   9.211
 1723POPC   GL223798  22.238   1.853   9.145
 1723POPC   C1A23799  21.905   2.043   8.795
 1723POPC   D2A23800  22.135   2.020   8.390
 1723POPC   C3A23801  21.930   1.917   8.022
 1723POPC   C4A23802  21.855   2.081   7.641
 1723POPC   C1B23803  22.449   1.895   8.781
 1723POPC   C2B23804  22.592   1.786   8.382
 1723POPC   C3B23805  22.427   1.706   7.997
 1723POPC   C4B23806  22.376   2.002   7.694
 1724POPC   NC323807  29.348  35.791   9.294
 1724POPC   PO423808  29.108  35.266   9.640
 1724POPC   GL123809  29.005  35.221   9.190
 1724POPC   GL223810  29.058  35.519   8.984
 1724POPC   C1A23811  29.118  35.052   8.812
 1724POPC   D2A23812  29.143  35.308   8.475
 1724POPC   C3A23813  29.151  35.135   8.078
 1724POPC   C4A23814  29.067  35.167   7.668
 1724POPC   C1B23815  29.493  35.447   8.804
 1724POPC   C2B23816  29.696  35.619   8.467
 1724POPC   C3B23817  29.451  35.559   8.119
 1724POPC   C4B23818  29.510  35.454   7.720
 1725POPC   NC323819  19.817  44.360   9.505
 1725POPC   PO423820  19.823  44.925   9.390
 1725POPC   GL123821  19.834  44.612   9.067
 1725POPC   GL223822  19.511  44.393   9.119
 1725POPC   C1A23823  20.088  44.562   8.706
 1725POPC   D2A23824  20.225  44.383   8.342
 1725POPC   C3A23825  20.113  44.555   7.902
 1725POPC   C4A23826  19.883  44.510   7.499
 1725POPC   C1B23827  19.672  44.270   8.721
 1725POPC   C2B23828  19.721  44.426   8.295
 1725POPC   C3B23829  19.734  44.205   7.893
 1725POPC   C4B23830  19.466  44.242   7.531
 1726POPC   NC323831   1.643  11.402   9.444
 1726POPC   PO423832   2.220  11.058   9.512
 1726POPC   GL123833   2.152  11.329   9.130
 1726POPC   GL223834   1.821  11.378   8.968
 1726POPC   C1A23835   2.283  11.421   8.682
 1726POPC   D2A23836   2.212  11.498   8.206
 1726POPC   C3A23837   2.197  11.132   7.909
 1726POPC   C4A23838   1.857  10.866   7.696
 1726POPC   C1B23839   1.816  11.631   8.585
 1726POPC   C2B23840   1.597  11.574   8.220
 1726POPC   C3B23841   1.681  11.301   7.888
 1726POPC   C4B23842   1.969  11.432   7.575
 1727POPC   NC323843   2.522   0.110   9.795
 1727POPC   PO423844   2.711  44.561   9.384
 1727POPC   GL123845   3.095  44.595   9.183
 1727POPC   GL223846   3.079  44.949   9.155
 1727POPC   C1A23847   3.006  44.503   8.767
 1727POPC   D2A23848   2.659  44.434   8.508
 1727POPC   C3A23849   2.824  44.434   8.109
 1727POPC   C4A23850   2.643  44.442   7.705
 1727POPC   C1B23851   2.812  44.999   8.754
 1727POPC   C2B23852   2.813  44.910   8.341
 1727POPC   C3B23853   2.636  44.921   7.954
 1727POPC   C4B23854   2.544  44.896   7.512
 1728POPC   NC323855  16.442  33.755   9.650
 1728POPC   PO423856  15.833  34.066   9.675
 1728POPC   GL123857  15.925  33.949   9.229
 1728POPC   GL223858  16.203  33.721   9.179
 1728POPC   C1A23859  15.714  33.838   8.822
 1728POPC   D2A23860  15.893  33.820   8.442
 1728POPC   C3A23861  15.641  33.935   8.100
 1728POPC   C4A23862  15.847  33.817   7.765
 1728POPC   C1B23863  16.371  33.754   8.752
 1728POPC   C2B23864  16.351  33.625   8.316
 1728POPC   C3B23865  16.347  33.676   7.847
 1728POPC   C4B23866  16.393  33.556   7.395
 1729POPC   NC323867  18.486  19.451   9.455
 1729POPC   PO423868  18.048  20.047   9.497
 1729POPC   GL123869  18.263  19.973   9.116
 1729POPC   GL223870  18.221  19.595   9.067
 1729POPC   C1A23871  18.448  19.846   8.707
 1729POPC   D2A23872  18.168  19.677   8.390
 1729POPC   C3A23873  18.150  20.016   8.088
 1729POPC   C4A23874  18.435  20.168   7.768
 1729POPC   C1B23875  17.897  19.388   8.776
 1729POPC   C2B23876  17.702  19.405   8.353
 1729POPC   C3B23877  17.883  19.585   7.973
 1729POPC   C4B23878  18.149  19.766   7.633
 1730POPC   NC323879   8.562  30.538   9.489
 1730POPC   PO423880   8.099  30.963   9.701
 1730POPC   GL123881   8.164  30.889   9.282
 1730POPC   GL223882   8.449  31.033   9.171
 1730POPC   C1A23883   8.185  30.757   8.841
 1730POPC   D2A23884   7.969  30.551   8.496
 1730POPC   C3A23885   8.070  30.693   8.097
 1730POPC   C4A23886   8.271  30.569   7.728
 1730POPC   C1B23887   8.511  31.182   8.774
 1730POPC   C2B23888   8.439  30.951   8.403
 1730POPC   C3B23889   8.505  30.982   7.985
 1730POPC   C4B23890   8.533  31.008   7.556
 1731POPC   NC323891   2.150   3.047   9.481
 1731POPC   PO423892   1.685   2.582   9.335
 1731POPC   GL123893   1.697   2.835   9.024
 1731POPC   GL223894   2.035   2.817   9.025
 1731POPC   C1A23895   1.704   2.803   8.599
 1731POPC   D2A23896   1.909   2.979   8.274
 1731POPC   C3A23897   1.855   2.755   7.936
 1731POPC   C4A23898   1.821   3.001   7.630
 1731POPC   C1B23899   2.224   2.768   8.642
 1731POPC   C2B23900   2.416   2.908   8.266
 1731POPC   C3B23901   2.341   2.953   7.841
 1731POPC   C4B23902   2.540   2.565   7.705
 1732POPC   NC323903  39.905  26.395   9.351
 1732POPC   PO423904  39.985  25.786   9.376
 1732POPC   GL123905  39.859  26.004   9.046
 1732POPC   GL223906  39.534  26.120   9.087
 1732POPC   C1A23907  40.017  26.076   8.675
 1732POPC   D2A23908  40.074  25.846   8.338
 1732POPC   C3A23909  40.163  26.188   8.064
 1732POPC   C4A23910  40.312  26.273   7.674
 1732POPC   C1B23911  39.637  26.437   8.745
 1732POPC   C2B23912  39.746  26.359   8.333
 1732POPC   C3B23913  39.656  26.030   8.084
 1732POPC   C4B23914  39.670  26.136   7.685
 1733POPC   NC323915  31.345  27.304   9.676
 1733POPC   PO423916  31.041  27.787   9.483
 1733POPC   GL123917  31.318  27.550   9.202
 1733POPC   GL223918  31.122  27.271   9.173
 1733POPC   C1A23919  31.616  27.491   8.835
 1733POPC   D2A23920  31.820  27.358   8.435
 1733POPC   C3A23921  31.711  27.545   8.060
 1733POPC   C4A23922  31.493  27.493   7.665
 1733POPC   C1B23923  31.031  27.109   8.791
 1733POPC   C2B23924  31.332  27.176   8.474
 1733POPC   C3B23925  31.286  27.241   8.062
 1733POPC   C4B23926  31.013  27.114   7.744
 1734POPC   NC323927  34.073  44.234   9.384
 1734POPC   PO423928  33.663  43.872   9.771
 1734POPC   GL123929  33.585  44.057   9.315
 1734POPC   GL223930  33.769  43.835   9.151
 1734POPC   C1A23931  33.697  44.183   8.823
 1734POPC   D2A23932  33.726  44.006   8.410
 1734POPC   C3A23933  33.802  44.207   8.039
 1734POPC   C4A23934  33.455  44.132   7.813
 1734POPC   C1B23935  33.733  43.592   8.776
 1734POPC   C2B23936  33.582  43.508   8.369
 1734POPC   C3B23937  33.783  43.659   8.028
 1734POPC   C4B23938  34.020  43.427   7.781
 1735POPC   NC323939   2.798  14.679   9.879
 1735POPC   PO423940   2.479  15.148   9.471
 1735POPC   GL123941   2.752  15.270   9.147
 1735POPC   GL223942   2.672  14.968   8.967
 1735POPC   C1A23943   3.001  15.265   8.770
 1735POPC   D2A23944   3.176  15.072   8.404
 1735POPC   C3A23945   2.901  15.207   8.095
 1735POPC   C4A23946   2.823  15.434   7.727
 1735POPC   C1B23947   2.441  14.628   8.801
 1735POPC   C2B23948   2.267  14.705   8.439
 1735POPC   C3B23949   2.451  14.949   8.155
 1735POPC   C4B23950   2.518  14.930   7.722
 1736POPC   NC323951   7.975  10.910   9.262
 1736POPC   PO423952   8.007  10.345   9.518
 1736POPC   GL123953   8.315  10.523   9.196
 1736POPC   GL223954   8.089  10.601   8.896
 1736POPC   C1A23955   8.567  10.635   8.818
 1736POPC   D2A23956   8.356  10.654   8.422
 1736POPC   C3A23957   8.638  10.775   8.094
 1736POPC   C4A23958   8.534  10.636   7.710
 1736POPC   C1B23959   7.858  10.327   8.667
 1736POPC   C2B23960   8.084  10.212   8.344
 1736POPC   C3B23961   8.049  10.307   7.938
 1736POPC   C4B23962   7.945  10.049   7.608
 1737POPC   NC323963   4.869  42.529   9.533
 1737POPC   PO423964   4.892  41.860   9.289
 1737POPC   GL123965   4.953  42.253   9.126
 1737POPC   GL223966   5.244  42.185   8.972
 1737POPC   C1A23967   4.976  42.606   8.813
 1737POPC   D2A23968   5.149  42.794   8.426
 1737POPC   C3A23969   5.017  42.648   8.019
 1737POPC   C4A23970   5.200  42.440   7.661
 1737POPC   C1B23971   4.978  42.064   8.664
 1737POPC   C2B23972   4.923  42.306   8.371
 1737POPC   C3B23973   5.191  42.129   8.061
 1737POPC   C4B23974   5.103  41.957   7.663
 1738POPC   NC323975   3.446  30.615   9.406
 1738POPC   PO423976   4.128  30.556   9.404
 1738POPC   GL123977   3.846  30.637   9.088
 1738POPC   GL223978   3.692  30.317   9.052
 1738POPC   C1A23979   3.588  30.851   8.764
 1738POPC   D2A23980   3.282  30.975   8.412
 1738POPC   C3A23981   3.441  30.790   7.996
 1738POPC   C4A23982   3.263  30.553   7.686
 1738POPC   C1B23983   3.356  30.420   8.792
 1738POPC   C2B23984   3.392  30.470   8.388
 1738POPC   C3B23985   3.479  30.222   8.051
 1738POPC   C4B23986   3.713  30.297   7.691
 1739POPC   NC323987  44.314  25.047   9.536
 1739POPC   PO423988  44.820  25.473   9.629
 1739POPC   GL123989  44.562  25.376   9.255
 1739POPC   GL223990  44.847  25.396   9.112
 1739POPC   C1A23991  44.374  25.453   8.816
 1739POPC   D2A23992  44.590  25.449   8.393
 1739POPC   C3A23993  44.700  25.608   8.019
 1739POPC   C4A23994  44.393  25.414   7.746
 1739POPC   C1B23995  44.919  25.276   8.737
 1739POPC   C2B23996   0.026  25.185   8.332
 1739POPC   C3B23997  44.816  25.107   7.959
 1739POPC   C4B23998  44.978  25.039   7.559
 1740POPC   NC323999  31.908  40.643   9.166
 1740POPC   PO424000  32.370  41.018   9.431
 1740POPC   GL124001  32.513  40.791   9.057
 1740POPC   GL224002  32.403  40.464   9.063
 1740POPC   C1A24003  32.748  40.580   8.687
 1740POPC   D2A24004  32.582  40.237   8.388
 1740POPC   C3A24005  32.451  40.367   7.960
 1740POPC   C4A24006  32.243  40.750   7.962
 1740POPC   C1B24007  32.248  40.607   8.619
 1740POPC   C2B24008  31.897  40.780   8.384
 1740POPC   C3B24009  31.672  40.528   8.104
 1740POPC   C4B24010  31.925  40.390   7.736
 1741POPC   NC324011  40.152   5.459   9.352
 1741POPC   PO424012  39.872   6.072   9.459
 1741POPC   GL124013  39.952   5.877   9.112
 1741POPC   GL224014  39.692   5.684   8.960
 1741POPC   C1A24015  40.168   5.735   8.774
 1741POPC   D2A24016  39.952   5.649   8.410
 1741POPC   C3A24017  40.180   5.793   8.099
 1741POPC   C4A24018  40.195   5.771   7.676
 1741POPC   C1B24019  39.751   6.105   8.690
 1741POPC   C2B24020  39.533   6.313   8.314
 1741POPC   C3B24021  39.588   6.130   7.913
 1741POPC   C4B24022  39.707   5.714   7.897
 1742POPC   NC324023  41.357  44.191   9.373
 1742POPC   PO424024  40.705  44.049   9.313
 1742POPC   GL124025  40.821  43.779   9.023
 1742POPC   GL224026  41.152  43.636   9.026
 1742POPC   C1A24027  40.737  43.886   8.626
 1742POPC   D2A24028  40.586  43.704   8.311
 1742POPC   C3A24029  40.675  43.949   8.008
 1742POPC   C4A24030  40.680  43.833   7.616
 1742POPC   C1B24031  41.184  44.057   8.756
 1742POPC   C2B24032  41.029  44.215   8.322
 1742POPC   C3B24033  41.156  44.074   7.880
 1742POPC   C4B24034  41.160  43.847   7.463
 1743POPC   NC324035  27.216  21.676   9.517
 1743POPC   PO424036  27.879  21.681   9.408
 1743POPC   GL124037  27.582  21.409   9.181
 1743POPC   GL224038  27.247  21.482   9.043
 1743POPC   C1A24039  27.576  21.212   8.770
 1743POPC   D2A24040  27.644  21.365   8.371
 1743POPC   C3A24041  27.567  21.165   7.990
 1743POPC   C4A24042  27.814  21.378   7.637
 1743POPC   C1B24043  27.248  21.651   8.634
 1743POPC   C2B24044  27.492  21.855   8.304
 1743POPC   C3B24045  27.397  21.640   7.948
 1743POPC   C4B24046  27.120  21.347   7.794
 1744POPC   NC324047   6.701  10.846   9.336
 1744POPC   PO424048   6.262  10.412   9.556
 1744POPC   GL124049   6.466  10.322   9.141
 1744POPC   GL224050   6.825  10.419   9.074
 1744POPC   C1A24051   6.403  10.219   8.690
 1744POPC   D2A24052   6.391  10.472   8.309
 1744POPC   C3A24053   6.290  10.346   7.889
 1744POPC   C4A24054   6.483  10.464   7.475
 1744POPC   C1B24055   6.936  10.669   8.699
 1744POPC   C2B24056   6.905  10.559   8.264
 1744POPC   C3B24057   6.669  10.697   7.898
 1744POPC   C4B24058   6.934  10.916   7.613
 1745POPC   NC324059   9.543   2.416   9.399
 1745POPC   PO424060   8.832   2.651   9.414
 1745POPC   GL124061   9.123   2.565   9.087
 1745POPC   GL224062   9.315   2.841   9.054
 1745POPC   C1A24063   9.022   2.385   8.667
 1745POPC   D2A24064   8.752   2.392   8.310
 1745POPC   C3A24065   8.835   2.519   7.899
 1745POPC   C4A24066   9.006   2.525   7.518
 1745POPC   C1B24067   8.958   2.904   8.730
 1745POPC   C2B24068   8.700   3.120   8.412
 1745POPC   C3B24069   8.773   3.022   7.980
 1745POPC   C4B24070   8.875   3.011   7.488
 1746POPC   NC324071   2.541  24.995   9.363
 1746POPC   PO424072   3.082  25.146   9.649
 1746POPC   GL124073   2.958  25.210   9.155
 1746POPC   GL224074   2.624  25.298   8.971
 1746POPC   C1A24075   2.856  24.930   8.741
 1746POPC   D2A24076   2.872  24.957   8.290
 1746POPC   C3A24077   2.684  25.093   7.888
 1746POPC   C4A24078   2.894  24.927   7.509
 1746POPC   C1B24079   2.932  25.418   8.670
 1746POPC   C2B24080   2.893  25.460   8.226
 1746POPC   C3B24081   2.999  25.526   7.825
 1746POPC   C4B24082   2.593  25.589   7.730
 1747POPC   NC324083  40.308  35.121   9.391
 1747POPC   PO424084  41.005  35.252   9.452
 1747POPC   GL124085  41.041  35.352   9.057
 1747POPC   GL224086  40.683  35.360   9.057
 1747POPC   C1A24087  40.969  35.142   8.656
 1747POPC   D2A24088  40.943  35.014   8.235
 1747POPC   C3A24089  40.756  35.237   7.901
 1747POPC   C4A24090  40.644  35.612   7.673
 1747POPC   C1B24091  40.459  35.222   8.702
 1747POPC   C2B24092  40.397  35.384   8.286
 1747POPC   C3B24093  40.257  35.164   7.924
 1747POPC   C4B24094  40.410  35.212   7.497
 1748POPC   NC324095   5.338   4.046   9.403
 1748POPC   PO424096   5.116   4.533   9.610
 1748POPC   GL124097   5.068   4.413   9.152
 1748POPC   GL224098   4.892   4.661   8.966
 1748POPC   C1A24099   4.996   4.132   8.802
 1748POPC   D2A24100   5.272   4.052   8.476
 1748POPC   C3A24101   5.269   4.316   8.186
 1748POPC   C4A24102   5.207   4.255   7.779
 1748POPC   C1B24103   5.230   4.567   8.661
 1748POPC   C2B24104   5.488   4.777   8.349
 1748POPC   C3B24105   5.463   4.708   7.905
 1748POPC   C4B24106   5.184   4.684   7.525
 1749POPC   NC324107   0.963  37.876   9.528
 1749POPC   PO424108   1.494  37.657   9.321
 1749POPC   GL124109   1.166  37.753   9.062
 1749POPC   GL224110   1.017  37.445   9.176
 1749POPC   C1A24111   1.105  37.782   8.620
 1749POPC   D2A24112   1.031  37.747   8.199
 1749POPC   C3A24113   1.317  37.959   7.949
 1749POPC   C4A24114   1.471  37.886   7.545
 1749POPC   C1B24115   1.204  37.306   8.793
 1749POPC   C2B24116   1.023  37.229   8.407
 1749POPC   C3B24117   1.253  37.272   8.064
 1749POPC   C4B24118   1.135  37.512   7.747
 1750POPC   NC324119  38.698  23.144   9.376
 1750POPC   PO424120  38.608  23.798   9.566
 1750POPC   GL124121  38.668  23.783   9.146
 1750POPC   GL224122  38.341  23.795   9.069
 1750POPC   C1A24123  38.775  23.689   8.723
 1750POPC   D2A24124  38.465  23.740   8.435
 1750POPC   C3A24125  38.669  23.735   8.098
 1750POPC   C4A24126  38.563  23.806   7.743
 1750POPC   C1B24127  38.349  23.425   8.843
 1750POPC   C2B24128  38.220  23.297   8.421
 1750POPC   C3B24129  38.244  23.468   8.019
 1750POPC   C4B24130  38.099  23.890   7.914
 1751POPC   NC324131  44.402  17.574   9.425
 1751POPC   PO424132   0.038  17.233   9.426
 1751POPC   GL124133  44.816  17.456   9.115
 1751POPC   GL224134  44.685  17.752   8.999
 1751POPC   C1A24135  44.835  17.359   8.702
 1751POPC   D2A24136  44.988  17.485   8.340
 1751POPC   C3A24137   0.049  17.180   8.069
 1751POPC   C4A24138   0.010  17.287   7.667
 1751POPC   C1B24139  44.354  17.546   8.760
 1751POPC   C2B24140  44.486  17.695   8.387
 1751POPC   C3B24141  44.622  17.585   7.995
 1751POPC   C4B24142  44.474  17.294   7.719
 1752POPC   NC324143  37.929  25.383   9.608
 1752POPC   PO424144  37.280  25.455   9.502
 1752POPC   GL124145  37.614  25.365   9.219
 1752POPC   GL224146  37.541  25.623   9.038
 1752POPC   C1A24147  37.860  25.208   8.841
 1752POPC   D2A24148  37.694  25.249   8.423
 1752POPC   C3A24149  37.902  25.301   8.054
 1752POPC   C4A24150  37.870  25.047   7.730
 1752POPC   C1B24151  37.338  25.256   8.798
 1752POPC   C2B24152  37.196  25.151   8.340
 1752POPC   C3B24153  37.395  25.220   7.911
 1752POPC   C4B24154  37.569  25.389   7.495
 1753POPC   NC324155  42.354  42.955   9.518
 1753POPC   PO424156  41.924  43.484   9.357
 1753POPC   GL124157  42.178  43.210   9.114
 1753POPC   GL224158  42.532  43.255   9.148
 1753POPC   C1A24159  42.232  43.077   8.707
 1753POPC   D2A24160  41.927  42.975   8.378
 1753POPC   C3A24161  42.088  43.000   7.998
 1753POPC   C4A24162  42.069  42.673   7.706
 1753POPC   C1B24163  42.708  43.287   8.772
 1753POPC   C2B24164  42.675  43.113   8.409
 1753POPC   C3B24165  42.826  43.209   8.076
 1753POPC   C4B24166  42.797  43.162   7.696
 1754POPC   NC324167  37.331  26.631   9.343
 1754POPC   PO424168  36.896  27.108   9.536
 1754POPC   GL124169  36.891  26.885   9.153
 1754POPC   GL224170  37.209  27.052   9.097
 1754POPC   C1A24171  36.714  26.682   8.761
 1754POPC   D2A24172  36.713  26.847   8.328
 1754POPC   C3A24173  36.682  26.710   7.919
 1754POPC   C4A24174  36.735  26.910   7.507
 1754POPC   C1B24175  37.178  26.902   8.712
 1754POPC   C2B24176  37.121  26.548   8.468
 1754POPC   C3B24177  37.160  26.523   8.040
 1754POPC   C4B24178  37.162  26.885   7.777
 1755POPC   NC324179   1.003  31.768   9.680
 1755POPC   PO424180   0.455  31.575   9.350
 1755POPC   GL124181   0.352  31.541   8.982
 1755POPC   GL224182   0.259  31.178   8.995
 1755POPC   C1A24183   0.658  31.437   8.685
 1755POPC   D2A24184   0.616  31.296   8.283
 1755POPC   C3A24185   0.421  31.570   8.003
 1755POPC   C4A24186   0.549  31.355   7.679
 1755POPC   C1B24187   0.186  31.254   8.591
 1755POPC   C2B24188  44.939  31.124   8.306
 1755POPC   C3B24189   0.102  31.173   7.973
 1755POPC   C4B24190   0.032  31.396   7.655
 1756POPC   NC324191  26.941  11.509   9.710
 1756POPC   PO424192  26.448  11.454   9.353
 1756POPC   GL124193  26.880  11.436   9.211
 1756POPC   GL224194  27.003  11.069   9.222
 1756POPC   C1A24195  27.045  11.639   8.864
 1756POPC   D2A24196  27.188  11.614   8.440
 1756POPC   C3A24197  26.981  11.622   8.038
 1756POPC   C4A24198  27.067  11.192   7.825
 1756POPC   C1B24199  26.751  11.108   8.847
 1756POPC   C2B24200  26.488  11.235   8.524
 1756POPC   C3B24201  26.670  11.248   8.131
 1756POPC   C4B24202  26.607  11.302   7.674
 1757POPC   NC324203   6.985  23.548   9.856
 1757POPC   PO424204   7.576  23.691   9.493
 1757POPC   GL124205   7.407  23.660   9.066
 1757POPC   GL224206   7.608  23.360   8.994
 1757POPC   C1A24207   7.172  23.855   8.730
 1757POPC   D2A24208   7.378  23.960   8.337
 1757POPC   C3A24209   7.249  23.744   7.973
 1757POPC   C4A24210   7.269  23.684   7.551
 1757POPC   C1B24211   7.473  23.481   8.553
 1757POPC   C2B24212   7.685  23.560   8.154
 1757POPC   C3B24213   7.622  23.360   7.763
 1757POPC   C4B24214   7.831  23.069   7.454
 1758POPC   NC324215   3.010   1.706   9.466
 1758POPC   PO424216   2.637   2.294   9.435
 1758POPC   GL124217   2.832   2.036   9.120
 1758POPC   GL224218   2.638   1.746   9.081
 1758POPC   C1A24219   2.952   1.923   8.698
 1758POPC   D2A24220   3.161   2.076   8.312
 1758POPC   C3A24221   2.894   1.969   7.977
 1758POPC   C4A24222   3.045   1.615   7.762
 1758POPC   C1B24223   2.363   1.789   8.672
 1758POPC   C2B24224   2.171   1.876   8.249
 1758POPC   C3B24225   2.372   1.838   7.827
 1758POPC   C4B24226   2.645   2.079   7.536
 1759POPC   NC324227  25.665  16.255   9.400
 1759POPC   PO424228  26.283  15.952   9.579
 1759POPC   GL124229  26.264  15.918   9.164
 1759POPC   GL224230  25.967  16.064   9.020
 1759POPC   C1A24231  26.254  15.659   8.818
 1759POPC   D2A24232  26.016  15.817   8.494
 1759POPC   C3A24233  25.972  15.708   8.071
 1759POPC   C4A24234  26.092  15.885   7.698
 1759POPC   C1B24235  25.681  16.218   8.710
 1759POPC   C2B24236  25.634  16.074   8.276
 1759POPC   C3B24237  25.749  16.293   7.882
 1759POPC   C4B24238  25.759  16.228   7.396
 1760POPC   NC324239   6.984  33.414   9.406
 1760POPC   PO424240   7.375  33.957   9.410
 1760POPC   GL124241   7.340  33.673   9.099
 1760POPC   GL224242   7.659  33.497   9.132
 1760POPC   C1A24243   7.259  33.874   8.691
 1760POPC   D2A24244   7.577  34.061   8.409
 1760POPC   C3A24245   7.429  34.010   8.017
 1760POPC   C4A24246   7.197  33.961   7.660
 1760POPC   C1B24247   7.734  33.695   8.745
 1760POPC   C2B24248   7.773  33.576   8.361
 1760POPC   C3B24249   7.570  33.515   7.983
 1760POPC   C4B24250   7.638  33.744   7.628
 1761POPC   NC324251  12.270  36.219   9.474
 1761POPC   PO424252  11.809  35.804   9.705
 1761POPC   GL124253  11.903  35.884   9.255
 1761POPC   GL224254  11.842  36.242   9.165
 1761POPC   C1A24255  11.870  35.862   8.791
 1761POPC   D2A24256  12.122  35.961   8.445
 1761POPC   C3A24257  11.978  35.910   8.042
 1761POPC   C4A24258  12.227  35.962   7.709
 1761POPC   C1B24259  12.057  36.379   8.790
 1761POPC   C2B24260  12.303  36.452   8.432
 1761POPC   C3B24261  12.196  36.385   8.015
 1761POPC   C4B24262  12.186  36.547   7.573
 1762POPC   NC324263  24.528  17.327   9.732
 1762POPC   PO424264  24.734  17.024   9.176
 1762POPC   GL124265  24.705  17.511   9.127
 1762POPC   GL224266  24.363  17.701   9.118
 1762POPC   C1A24267  24.734  17.852   8.812
 1762POPC   D2A24268  24.920  17.839   8.435
 1762POPC   C3A24269  24.644  17.910   8.131
 1762POPC   C4A24270  24.709  17.720   7.735
 1762POPC   C1B24271  24.345  17.528   8.668
 1762POPC   C2B24272  24.193  17.652   8.238
 1762POPC   C3B24273  24.076  17.535   7.807
 1762POPC   C4B24274  24.018  17.327   7.371
 1763POPC   NC324275  24.565  30.466   9.923
 1763POPC   PO424276  24.500  29.976   9.487
 1763POPC   GL124277  24.520  29.806   9.071
 1763POPC   GL224278  24.602  30.130   8.984
 1763POPC   C1A24279  24.412  29.798   8.627
 1763POPC   D2A24280  24.500  30.182   8.435
 1763POPC   C3A24281  24.685  30.144   8.051
 1763POPC   C4A24282  24.486  29.995   7.700
 1763POPC   C1B24283  24.149  30.153   8.885
 1763POPC   C2B24284  23.977  30.159   8.483
 1763POPC   C3B24285  24.126  30.062   8.073
 1763POPC   C4B24286  23.942  30.095   7.666
 1764POPC   NC324287  32.986   8.769   9.583
 1764POPC   PO424288  33.278   9.321   9.545
 1764POPC   GL124289  33.192   9.053   9.189
 1764POPC   GL224290  32.880   8.876   9.107
 1764POPC   C1A24291  33.240   8.909   8.766
 1764POPC   D2A24292  33.056   8.816   8.372
 1764POPC   C3A24293  33.163   9.068   8.012
 1764POPC   C4A24294  32.909   9.136   7.667
 1764POPC   C1B24295  32.669   8.836   8.725
 1764POPC   C2B24296  32.591   8.544   8.409
 1764POPC   C3B24297  32.672   8.758   8.032
 1764POPC   C4B24298  32.505   8.778   7.662
 1765POPC   NC324299  26.720  38.646   9.470
 1765POPC   PO424300  26.893  39.268   9.489
 1765POPC   GL124301  26.948  39.114   9.076
 1765POPC   GL224302  26.601  38.947   9.062
 1765POPC   C1A24303  27.149  39.245   8.638
 1765POPC   D2A24304  27.067  39.558   8.274
 1765POPC   C3A24305  26.853  39.457   7.845
 1765POPC   C4A24306  26.427  39.266   7.795
 1765POPC   C1B24307  26.720  38.974   8.640
 1765POPC   C2B24308  26.784  39.106   8.210
 1765POPC   C3B24309  26.715  38.835   7.851
 1765POPC   C4B24310  26.380  38.773   7.527
 1766POPC   NC324311  33.094  37.800   9.440
 1766POPC   PO424312  32.484  37.773   9.654
 1766POPC   GL124313  32.635  37.767   9.187
 1766POPC   GL224314  32.759  37.445   9.112
 1766POPC   C1A24315  32.853  37.825   8.749
 1766POPC   D2A24316  32.909  37.598   8.296
 1766POPC   C3A24317  33.214  37.766   7.961
 1766POPC   C4A24318  33.429  37.646   7.529
 1766POPC   C1B24319  32.916  37.287   8.718
 1766POPC   C2B24320  32.853  36.984   8.380
 1766POPC   C3B24321  32.703  37.058   7.972
 1766POPC   C4B24322  32.875  37.431   7.773
 1767POPC   NC324323  24.073   1.220   9.584
 1767POPC   PO424324  24.592   0.876   9.579
 1767POPC   GL124325  24.557   1.169   9.274
 1767POPC   GL224326  24.675   1.493   9.304
 1767POPC   C1A24327  24.345   1.331   8.942
 1767POPC   D2A24328  24.446   1.298   8.531
 1767POPC   C3A24329  24.216   1.060   8.243
 1767POPC   C4A24330  24.287   1.072   7.788
 1767POPC   C1B24331  24.795   1.606   8.833
 1767POPC   C2B24332  24.680   1.711   8.375
 1767POPC   C3B24333  24.447   1.502   8.048
 1767POPC   C4B24334  24.663   1.425   7.669
 1768POPC   NC324335  27.507  37.472   9.332
 1768POPC   PO424336  27.802  36.866   9.538
 1768POPC   GL124337  27.663  36.837   9.130
 1768POPC   GL224338  27.730  37.140   9.026
 1768POPC   C1A24339  27.431  36.690   8.769
 1768POPC   D2A24340  27.331  36.885   8.380
 1768POPC   C3A24341  27.625  36.835   8.029
 1768POPC   C4A24342  27.576  36.970   7.586
 1768POPC   C1B24343  27.818  36.994   8.620
 1768POPC   C2B24344  27.945  37.226   8.283
 1768POPC   C3B24345  27.979  37.173   7.857
 1768POPC   C4B24346  28.015  37.162   7.394
 1769POPC   NC324347  21.068  14.272   9.485
 1769POPC   PO424348  21.567  14.717   9.453
 1769POPC   GL124349  21.227  14.655   9.159
 1769POPC   GL224350  21.274  14.302   9.024
 1769POPC   C1A24351  21.220  14.762   8.726
 1769POPC   D2A24352  21.533  14.694   8.406
 1769POPC   C3A24353  21.409  14.775   8.008
 1769POPC   C4A24354  21.336  14.510   7.652
 1769POPC   C1B24355  21.339  14.240   8.585
 1769POPC   C2B24356  21.439  14.234   8.146
 1769POPC   C3B24357  21.157  14.072   7.846
 1769POPC   C4B24358  20.958  14.151   7.474
 1770POPC   NC324359  13.318  43.070   9.321
 1770POPC   PO424360  13.919  43.372   9.455
 1770POPC   GL124361  13.778  43.225   9.094
 1770POPC   GL224362  13.531  43.473   9.103
 1770POPC   C1A24363  13.618  43.024   8.721
 1770POPC   D2A24364  13.598  42.767   8.336
 1770POPC   C3A24365  13.611  42.997   7.944
 1770POPC   C4A24366  13.688  43.011   7.488
 1770POPC   C1B24367  13.352  43.558   8.747
 1770POPC   C2B24368  13.353  43.333   8.381
 1770POPC   C3B24369  13.425  43.457   7.999
 1770POPC   C4B24370  13.319  43.324   7.623
 1771POPC   NC324371  27.640  43.267   9.506
 1771POPC   PO424372  27.997  42.755   9.658
 1771POPC   GL124373  27.900  43.002   9.171
 1771POPC   GL224374  27.898  43.415   9.093
 1771POPC   C1A24375  27.645  43.120   8.749
 1771POPC   D2A24376  27.640  43.102   8.322
 1771POPC   C3A24377  27.463  42.876   7.973
 1771POPC   C4A24378  27.825  42.809   7.639
 1771POPC   C1B24379  27.740  43.619   8.682
 1771POPC   C2B24380  27.808  43.570   8.222
 1771POPC   C3B24381  27.629  43.329   7.864
 1771POPC   C4B24382  27.748  43.352   7.433
 1772POPC   NC324383   9.365  15.736   9.768
 1772POPC   PO424384   9.770  15.392   9.372
 1772POPC   GL124385   9.813  15.135   9.028
 1772POPC   GL224386   9.448  15.141   8.932
 1772POPC   C1A24387   9.917  15.013   8.593
 1772POPC   D2A24388   9.541  14.988   8.357
 1772POPC   C3A24389   9.601  15.019   7.938
 1772POPC   C4A24390   9.939  15.264   7.735
 1772POPC   C1B24391   9.665  15.478   8.685
 1772POPC   C2B24392   9.592  15.753   8.349
 1772POPC   C3B24393   9.566  15.569   7.917
 1772POPC   C4B24394   9.589  15.495   7.450
 1773POPC   NC324395  33.907  42.806   9.536
 1773POPC   PO424396  33.676  43.422   9.421
 1773POPC   GL124397  33.866  43.203   9.086
 1773POPC   GL224398  33.951  42.861   9.048
 1773POPC   C1A24399  33.748  43.095   8.660
 1773POPC   D2A24400  33.944  43.170   8.279
 1773POPC   C3A24401  33.679  43.057   7.952
 1773POPC   C4A24402  33.582  43.246   7.574
 1773POPC   C1B24403  34.288  42.728   8.783
 1773POPC   C2B24404  34.373  42.859   8.345
 1773POPC   C3B24405  34.143  42.840   7.956
 1773POPC   C4B24406  34.159  42.993   7.550
 1774POPC   NC324407  12.077  42.093   9.461
 1774POPC   PO424408  12.207  41.434   9.515
 1774POPC   GL124409  12.188  41.669   9.113
 1774POPC   GL224410  11.869  41.843   9.066
 1774POPC   C1A24411  11.999  41.520   8.708
 1774POPC   D2A24412  12.011  41.383   8.303
 1774POPC   C3A24413  12.415  41.415   8.127
 1774POPC   C4A24414  12.385  41.283   7.723
 1774POPC   C1B24415  12.057  42.042   8.728
 1774POPC   C2B24416  12.059  41.900   8.310
 1774POPC   C3B24417  12.088  41.778   7.879
 1774POPC   C4B24418  11.869  42.011   7.551
 1775POPC   NC324419  44.429  18.574   9.443
 1775POPC   PO424420  44.717  17.943   9.456
 1775POPC   GL124421  44.727  18.267   9.117
 1775POPC   GL224422  44.996  18.521   9.096
 1775POPC   C1A24423  44.634  18.173   8.690
 1775POPC   D2A24424  44.890  18.003   8.358
 1775POPC   C3A24425  44.783  18.114   7.973
 1775POPC   C4A24426  44.804  18.038   7.533
 1775POPC   C1B24427  44.903  18.677   8.674
 1775POPC   C2B24428  44.635  18.548   8.343
 1775POPC   C3B24429  44.429  18.501   7.968
 1775POPC   C4B24430  44.761  18.514   7.675
 1776POPC   NC324431   7.551  37.521   9.490
 1776POPC   PO424432   7.633  38.243   9.400
 1776POPC   GL124433   7.504  37.907   9.103
 1776POPC   GL224434   7.368  37.530   9.041
 1776POPC   C1A24435   7.417  37.882   8.677
 1776POPC   D2A24436   7.619  37.675   8.365
 1776POPC   C3A24437   7.581  37.880   8.026
 1776POPC   C4A24438   7.549  37.678   7.689
 1776POPC   C1B24439   7.306  37.370   8.668
 1776POPC   C2B24440   7.097  37.590   8.379
 1776POPC   C3B24441   7.262  37.371   8.082
 1776POPC   C4B24442   7.119  37.311   7.717
 1777POPC   NC324443   6.278  29.581   9.572
 1777POPC   PO424444   6.758  29.990   9.718
 1777POPC   GL124445   6.529  29.991   9.321
 1777POPC   GL224446   6.641  29.686   9.208
 1777POPC   C1A24447   6.532  30.005   8.851
 1777POPC   D2A24448   6.449  30.145   8.438
 1777POPC   C3A24449   6.407  29.905   8.097
 1777POPC   C4A24450   6.564  30.007   7.689
 1777POPC   C1B24451   6.402  29.527   8.894
 1777POPC   C2B24452   6.366  29.513   8.461
 1777POPC   C3B24453   6.307  29.404   8.065
 1777POPC   C4B24454   6.313  29.568   7.659
 1778POPC   NC324455  27.151  23.901   9.413
 1778POPC   PO424456  26.605  23.450   9.441
 1778POPC   GL124457  26.750  23.718   9.154
 1778POPC   GL224458  27.005  23.495   9.096
 1778POPC   C1A24459  26.934  23.888   8.777
 1778POPC   D2A24460  26.703  23.962   8.401
 1778POPC   C3A24461  26.833  23.888   8.006
 1778POPC   C4A24462  26.455  23.769   7.782
 1778POPC   C1B24463  27.219  23.450   8.746
 1778POPC   C2B24464  27.025  23.556   8.370
 1778POPC   C3B24465  26.700  23.392   8.110
 1778POPC   C4B24466  26.856  23.460   7.689
 1779POPC   NC324467   9.516  20.419   9.800
 1779POPC   PO424468   9.700  20.867   9.388
 1779POPC   GL124469   9.852  20.568   9.150
 1779POPC   GL224470   9.533  20.397   9.104
 1779POPC   C1A24471   9.827  20.596   8.716
 1779POPC   D2A24472   9.719  20.888   8.434
 1779POPC   C3A24473   9.789  20.640   8.097
 1779POPC   C4A24474   9.683  20.739   7.702
 1779POPC   C1B24475   9.448  20.209   8.710
 1779POPC   C2B24476   9.695  20.179   8.336
 1779POPC   C3B24477   9.752  20.120   7.867
 1779POPC   C4B24478   9.531  20.281   7.507
 1780POPC   NC324479  34.840  43.790   9.344
 1780POPC   PO424480  35.493  43.922   9.397
 1780POPC   GL124481  35.262  43.903   9.043
 1780POPC   GL224482  35.345  44.266   9.020
 1780POPC   C1A24483  35.134  44.007   8.622
 1780POPC   D2A24484  35.120  44.032   8.192
 1780POPC   C3A24485  35.332  43.637   8.060
 1780POPC   C4A24486  35.673  43.575   7.800
 1780POPC   C1B24487  35.674  44.055   8.754
 1780POPC   C2B24488  35.630  43.925   8.326
 1780POPC   C3B24489  35.529  44.055   7.886
 1780POPC   C4B24490  35.713  44.025   7.490
 1781POPC   NC324491   0.047  32.640   9.520
 1781POPC   PO424492  44.777  33.286   9.544
 1781POPC   GL124493  44.630  33.140   9.160
 1781POPC   GL224494  44.715  32.770   9.144
 1781POPC   C1A24495  44.417  33.245   8.813
 1781POPC   D2A24496  44.427  32.974   8.476
 1781POPC   C3A24497  44.286  33.178   8.115
 1781POPC   C4A24498  44.534  33.283   7.787
 1781POPC   C1B24499  44.972  32.591   8.801
 1781POPC   C2B24500  44.778  32.577   8.413
 1781POPC   C3B24501  44.649  32.761   8.065
 1781POPC   C4B24502  44.752  32.675   7.649
 1782POPC   NC324503  35.948   2.546   9.479
 1782POPC   PO424504  36.292   3.106   9.432
 1782POPC   GL124505  36.042   2.974   9.139
 1782POPC   GL224506  35.845   3.271   9.075
 1782POPC   C1A24507  36.224   2.775   8.787
 1782POPC   D2A24508  36.104   2.601   8.421
 1782POPC   C3A24509  36.354   2.809   8.112
 1782POPC   C4A24510  36.219   2.890   7.701
 1782POPC   C1B24511  35.893   3.145   8.665
 1782POPC   C2B24512  35.937   3.094   8.243
 1782POPC   C3B24513  35.831   3.281   7.860
 1782POPC   C4B24514  36.041   3.298   7.457
 1783POPC   NC324515   5.586   1.525   9.360
 1783POPC   PO424516   6.078   1.193   9.465
 1783POPC   GL124517   5.993   1.428   9.065
 1783POPC   GL224518   5.655   1.453   8.882
 1783POPC   C1A24519   6.130   1.262   8.672
 1783POPC   D2A24520   6.156   0.908   8.362
 1783POPC   C3A24521   6.059   1.059   7.939
 1783POPC   C4A24522   6.124   1.453   7.736
 1783POPC   C1B24523   5.660   1.060   8.730
 1783POPC   C2B24524   5.719   1.152   8.324
 1783POPC   C3B24525   5.690   1.442   8.009
 1783POPC   C4B24526   5.667   1.705   7.669
 1784POPC   NC324527  15.466  33.857   9.465
 1784POPC   PO424528  14.818  33.992   9.528
 1784POPC   GL124529  15.034  33.807   9.171
 1784POPC   GL224530  15.115  33.455   9.189
 1784POPC   C1A24531  15.056  33.816   8.725
 1784POPC   D2A24532  14.798  33.862   8.348
 1784POPC   C3A24533  15.079  33.826   7.974
 1784POPC   C4A24534  15.027  33.813   7.529
 1784POPC   C1B24535  15.425  33.395   8.852
 1784POPC   C2B24536  15.425  33.588   8.442
 1784POPC   C3B24537  15.436  33.448   8.037
 1784POPC   C4B24538  15.462  33.513   7.623
 1785POPC   NC324539   1.014   2.215   9.453
 1785POPC   PO424540   1.372   1.698   9.492
 1785POPC   GL124541   1.202   1.857   9.148
 1785POPC   GL224542   0.898   1.721   9.229
 1785POPC   C1A24543   1.167   2.109   8.789
 1785POPC   D2A24544   1.000   2.041   8.391
 1785POPC   C3A24545   1.209   2.238   8.065
 1785POPC   C4A24546   1.386   2.141   7.674
 1785POPC   C1B24547   0.844   1.687   8.776
 1785POPC   C2B24548   0.557   1.805   8.439
 1785POPC   C3B24549   0.765   1.691   8.086
 1785POPC   C4B24550   0.784   1.751   7.692
 1786POPC   NC324551  33.137  26.670   9.662
 1786POPC   PO424552  32.455  26.908   9.571
 1786POPC   GL124553  32.828  26.754   9.264
 1786POPC   GL224554  33.178  26.912   9.213
 1786POPC   C1A24555  32.923  26.806   8.793
 1786POPC   D2A24556  32.733  26.892   8.354
 1786POPC   C3A24557  32.936  26.742   7.999
 1786POPC   C4A24558  33.158  26.889   7.621
 1786POPC   C1B24559  33.308  27.160   8.840
 1786POPC   C2B24560  33.074  27.253   8.492
 1786POPC   C3B24561  33.132  27.206   8.064
 1786POPC   C4B24562  33.494  27.265   7.752
 1787POPC   NC324563  44.740  24.148   9.643
 1787POPC   PO424564  44.718  24.828   9.489
 1787POPC   GL124565  44.614  24.583   9.143
 1787POPC   GL224566  44.896  24.394   9.066
 1787POPC   C1A24567  44.538  24.507   8.689
 1787POPC   D2A24568  44.697  24.690   8.282
 1787POPC   C3A24569  44.461  24.552   7.936
 1787POPC   C4A24570  44.329  24.379   7.525
 1787POPC   C1B24571  44.974  24.752   8.742
 1787POPC   C2B24572   0.198  24.711   8.336
 1787POPC   C3B24573   0.054  24.652   7.903
 1787POPC   C4B24574  44.813  24.540   7.537
 1788POPC   NC324575   8.985  18.986   9.664
 1788POPC   PO424576   9.421  19.483   9.617
 1788POPC   GL124577   9.258  19.134   9.253
 1788POPC   GL224578   8.919  18.933   9.176
 1788POPC   C1A24579   9.251  18.887   8.817
 1788POPC   D2A24580   9.185  19.027   8.400
 1788POPC   C3A24581   9.181  18.827   7.986
 1788POPC   C4A24582   9.184  19.140   7.649
 1788POPC   C1B24583   8.770  19.041   8.739
 1788POPC   C2B24584   8.494  19.146   8.408
 1788POPC   C3B24585   8.440  18.985   8.011
 1788POPC   C4B24586   8.721  19.028   7.788
 1789POPC   NC324587  21.572  34.651   9.478
 1789POPC   PO424588  21.098  34.192   9.414
 1789POPC   GL124589  21.322  34.407   9.099
 1789POPC   GL224590  21.360  34.788   9.038
 1789POPC   C1A24591  21.368  34.410   8.677
 1789POPC   D2A24592  21.337  34.583   8.291
 1789POPC   C3A24593  21.269  34.323   7.959
 1789POPC   C4A24594  21.093  34.526   7.622
 1789POPC   C1B24595  21.402  35.012   8.638
 1789POPC   C2B24596  21.641  34.987   8.250
 1789POPC   C3B24597  21.505  34.838   7.848
 1789POPC   C4B24598  21.360  35.022   7.448
 1790POPC   NC324599  32.374   0.452  10.070
 1790POPC   PO424600  32.395   0.236   9.334
 1790POPC   GL124601  32.346   0.611   9.079
 1790POPC   GL224602  31.996   0.654   9.208
 1790POPC   C1A24603  32.396   0.517   8.614
 1790POPC   D2A24604  32.517   0.120   8.364
 1790POPC   C3A24605  32.508   0.200   7.908
 1790POPC   C4A24606  32.722   0.536   7.697
 1790POPC   C1B24607  31.947   0.379   8.815
 1790POPC   C2B24608  31.985   0.245   8.372
 1790POPC   C3B24609  31.880   0.446   7.967
 1790POPC   C4B24610  32.191   0.595   7.699
 1791POPC   NC324611  34.894  31.303   9.415
 1791POPC   PO424612  34.547  31.806   9.643
 1791POPC   GL124613  34.519  31.652   9.186
 1791POPC   GL224614  34.836  31.620   9.015
 1791POPC   C1A24615  34.453  31.589   8.708
 1791POPC   D2A24616  34.808  31.613   8.410
 1791POPC   C3A24617  34.665  31.487   8.027
 1791POPC   C4A24618  34.615  31.724   7.665
 1791POPC   C1B24619  34.811  31.231   8.755
 1791POPC   C2B24620  35.064  31.134   8.382
 1791POPC   C3B24621  34.933  30.973   7.983
 1791POPC   C4B24622  34.852  31.213   7.646
 1792POPC   NC324623  41.154  30.212   9.454
 1792POPC   PO424624  40.777  30.842   9.498
 1792POPC   GL124625  40.833  30.763   9.077
 1792POPC   GL224626  40.741  30.423   9.110
 1792POPC   C1A24627  40.665  30.727   8.645
 1792POPC   D2A24628  40.596  30.861   8.198
 1792POPC   C3A24629  40.989  30.803   7.948
 1792POPC   C4A24630  41.285  30.569   7.698
 1792POPC   C1B24631  41.005  30.355   8.789
 1792POPC   C2B24632  41.004  30.188   8.385
 1792POPC   C3B24633  40.963  30.278   7.969
 1792POPC   C4B24634  40.580  30.450   7.795
 1793POPC   NC324635  41.960  20.596   9.536
 1793POPC   PO424636  42.548  20.659   9.378
 1793POPC   GL124637  42.167  20.632   9.078
 1793POPC   GL224638  42.019  20.290   9.121
 1793POPC   C1A24639  42.037  20.755   8.652
 1793POPC   D2A24640  42.328  20.671   8.314
 1793POPC   C3A24641  42.181  20.555   7.896
 1793POPC   C4A24642  42.395  20.675   7.542
 1793POPC   C1B24643  42.143  20.266   8.709
 1793POPC   C2B24644  41.925  20.380   8.311
 1793POPC   C3B24645  41.948  20.129   7.962
 1793POPC   C4B24646  42.367  20.088   7.818
 1794POPC   NC324647  34.004  10.189   9.416
 1794POPC   PO424648  33.543  10.778   9.397
 1794POPC   GL124649  33.694  10.461   9.113
 1794POPC   GL224650  33.466  10.236   8.974
 1794POPC   C1A24651  33.873  10.397   8.701
 1794POPC   D2A24652  33.773  10.593   8.317
 1794POPC   C3A24653  33.909  10.475   7.905
 1794POPC   C4A24654  34.138  10.370   7.522
 1794POPC   C1B24655  33.328  10.634   8.783
 1794POPC   C2B24656  33.265  10.647   8.374
 1794POPC   C3B24657  33.401  10.420   8.018
 1794POPC   C4B24658  33.311  10.563   7.650
 1795POPC   NC324659  34.038  40.448   9.776
 1795POPC   PO424660  33.616  39.938   9.526
 1795POPC   GL124661  33.608  40.108   9.107
 1795POPC   GL224662  33.923  40.113   9.127
 1795POPC   C1A24663  33.711  40.276   8.708
 1795POPC   D2A24664  33.794  40.046   8.370
 1795POPC   C3A24665  33.737  40.222   7.982
 1795POPC   C4A24666  33.766  40.044   7.545
 1795POPC   C1B24667  34.040  39.844   8.803
 1795POPC   C2B24668  34.202  39.753   8.388
 1795POPC   C3B24669  34.079  39.832   7.974
 1795POPC   C4B24670  34.246  39.728   7.591
 1796POPC   NC324671  40.813  29.458   9.331
 1796POPC   PO424672  40.675  30.104   9.528
 1796POPC   GL124673  40.607  29.928   9.182
 1796POPC   GL224674  40.943  29.907   9.060
 1796POPC   C1A24675  40.559  30.063   8.754
 1796POPC   D2A24676  40.657  29.810   8.420
 1796POPC   C3A24677  40.541  29.998   8.061
 1796POPC   C4A24678  40.701  29.959   7.660
 1796POPC   C1B24679  41.027  29.608   8.716
 1796POPC   C2B24680  41.152  29.712   8.256
 1796POPC   C3B24681  41.081  29.655   7.794
 1796POPC   C4B24682  41.157  29.632   7.307
 1797POPC   NC324683  30.342  30.096   9.554
 1797POPC   PO424684  30.852  29.618   9.707
 1797POPC   GL124685  30.665  29.723   9.261
 1797POPC   GL224686  30.467  30.023   9.063
 1797POPC   C1A24687  30.700  29.616   8.803
 1797POPC   D2A24688  30.581  29.502   8.372
 1797POPC   C3A24689  30.636  29.880   8.112
 1797POPC   C4A24690  30.681  29.961   7.684
 1797POPC   C1B24691  30.476  30.360   8.715
 1797POPC   C2B24692  30.608  30.405   8.253
 1797POPC   C3B24693  30.463  30.431   7.799
 1797POPC   C4B24694  30.244  30.136   7.492
 1798POPC   NC324695  31.376  43.381   9.655
 1798POPC   PO424696  31.143  42.915   9.232
 1798POPC   GL124697  31.528  42.975   9.026
 1798POPC   GL224698  31.529  43.294   9.129
 1798POPC   C1A24699  31.584  42.817   8.634
 1798POPC   D2A24700  31.307  42.883   8.264
 1798POPC   C3A24701  31.549  43.045   7.913
 1798POPC   C4A24702  31.862  42.763   7.759
 1798POPC   C1B24703  31.391  43.313   8.676
 1798POPC   C2B24704  31.410  43.403   8.261
 1798POPC   C3B24705  31.225  43.464   7.874
 1798POPC   C4B24706  31.129  43.320   7.437
 1799POPC   NC324707  41.435   7.308   9.365
 1799POPC   PO424708  41.874   7.813   9.578
 1799POPC   GL124709  41.862   7.482   9.154
 1799POPC   GL224710  42.006   7.141   9.185
 1799POPC   C1A24711  41.577   7.424   8.736
 1799POPC   D2A24712  41.423   7.764   8.503
 1799POPC   C3A24713  41.388   7.477   8.195
 1799POPC   C4A24714  41.632   7.528   7.838
 1799POPC   C1B24715  41.997   7.175   8.710
 1799POPC   C2B24716  41.776   7.118   8.324
 1799POPC   C3B24717  41.981   7.167   7.937
 1799POPC   C4B24718  41.875   7.224   7.501
 1800POPC   NC324719  29.072  11.091   9.473
 1800POPC   PO424720  29.571  11.572   9.378
 1800POPC   GL124721  29.256  11.717   9.068
 1800POPC   GL224722  28.964  11.567   9.214
 1800POPC   C1A24723  29.307  11.699   8.631
 1800POPC   D2A24724  29.301  11.333   8.419
 1800POPC   C3A24725  29.142  11.275   8.054
 1800POPC   C4A24726  29.280  11.411   7.686
 1800POPC   C1B24727  28.941  11.343   8.812
 1800POPC   C2B24728  28.776  11.397   8.400
 1800POPC   C3B24729  28.649  11.273   7.981
 1800POPC   C4B24730  28.679  11.413   7.588
 1801POPC   NC324731   7.062  44.638   9.425
 1801POPC   PO424732   7.616  44.953   9.582
 1801POPC   GL124733   7.510  44.824   9.187
 1801POPC   GL224734   7.231  44.989   9.077
 1801POPC   C1A24735   7.685  44.717   8.803
 1801POPC   D2A24736   7.570  44.609   8.407
 1801POPC   C3A24737   7.473  44.875   8.086
 1801POPC   C4A24738   7.676  44.679   7.757
 1801POPC   C1B24739   7.177  44.615   8.778
 1801POPC   C2B24740   7.016  44.582   8.359
 1801POPC   C3B24741   7.074  44.446   7.946
 1801POPC   C4B24742   7.204  44.752   7.655
 1802POPC   NC324743  12.761  11.631   9.488
 1802POPC   PO424744  12.889  10.989   9.553
 1802POPC   GL124745  12.717  11.043   9.178
 1802POPC   GL224746  12.746  11.377   9.041
 1802POPC   C1A24747  12.740  10.934   8.770
 1802POPC   D2A24748  12.764  11.207   8.416
 1802POPC   C3A24749  12.552  11.097   8.055
 1802POPC   C4A24750  12.681  11.087   7.629
 1802POPC   C1B24751  12.677  11.640   8.681
 1802POPC   C2B24752  12.762  11.703   8.255
 1802POPC   C3B24753  12.591  11.596   7.873
 1802POPC   C4B24754  12.816  11.757   7.549
 1803POPC   NC324755  20.293  38.143   9.784
 1803POPC   PO424756  19.730  38.446   9.460
 1803POPC   GL124757  19.857  38.373   9.074
 1803POPC   GL224758  19.882  38.718   9.004
 1803POPC   C1A24759  19.538  38.344   8.751
 1803POPC   D2A24760  19.261  38.514   8.441
 1803POPC   C3A24761  19.463  38.389   8.061
 1803POPC   C4A24762  19.644  38.640   7.759
 1803POPC   C1B24763  20.015  38.518   8.622
 1803POPC   C2B24764  19.923  38.533   8.208
 1803POPC   C3B24765  20.153  38.609   7.858
 1803POPC   C4B24766  20.311  38.817   7.532
 1804POPC   NC324767  37.587   2.402   9.672
 1804POPC   PO424768  37.947   2.909   9.426
 1804POPC   GL124769  37.832   2.851   9.060
 1804POPC   GL224770  37.532   2.668   9.155
 1804POPC   C1A24771  37.770   2.636   8.706
 1804POPC   D2A24772  37.564   2.646   8.357
 1804POPC   C3A24773  37.801   2.776   7.994
 1804POPC   C4A24774  37.762   2.963   7.578
 1804POPC   C1B24775  37.206   2.470   8.855
 1804POPC   C2B24776  37.105   2.373   8.409
 1804POPC   C3B24777  37.362   2.302   8.042
 1804POPC   C4B24778  37.498   2.520   7.666
 1805POPC   NC324779  38.705  21.352   9.616
 1805POPC   PO424780  38.051  21.245   9.334
 1805POPC   GL124781  38.377  21.441   9.205
 1805POPC   GL224782  38.618  21.224   9.122
 1805POPC   C1A24783  38.385  21.693   8.865
 1805POPC   D2A24784  38.226  21.692   8.471
 1805POPC   C3A24785  38.498  21.607   8.095
 1805POPC   C4A24786  38.383  21.393   7.759
 1805POPC   C1B24787  38.311  21.206   8.766
 1805POPC   C2B24788  38.514  21.250   8.428
 1805POPC   C3B24789  38.651  21.064   8.061
 1805POPC   C4B24790  38.847  21.246   7.712
 1806POPC   NC324791  10.407  32.999   9.867
 1806POPC   PO424792  10.734  33.418   9.434
 1806POPC   GL124793  10.553  33.079   9.225
 1806POPC   GL224794  10.749  32.761   9.205
 1806POPC   C1A24795  10.541  33.013   8.797
 1806POPC   D2A24796  10.647  33.239   8.428
 1806POPC   C3A24797  10.465  33.056   8.108
 1806POPC   C4A24798  10.576  32.978   7.696
 1806POPC   C1B24799  10.999  32.729   8.836
 1806POPC   C2B24800  11.057  32.831   8.422
 1806POPC   C3B24801  10.863  32.743   8.046
 1806POPC   C4B24802  10.756  32.472   7.653
 1807POPC   NC324803  11.824   0.993   9.618
 1807POPC   PO424804  12.288   1.455   9.464
 1807POPC   GL124805  11.964   1.291   9.187
 1807POPC   GL224806  12.249   1.275   8.948
 1807POPC   C1A24807  11.782   1.162   8.785
 1807POPC   D2A24808  12.055   1.240   8.439
 1807POPC   C3A24809  11.942   1.063   8.052
 1807POPC   C4A24810  12.080   1.252   7.699
 1807POPC   C1B24811  12.413   1.589   8.639
 1807POPC   C2B24812  12.421   1.759   8.212
 1807POPC   C3B24813  12.479   1.527   7.815
 1807POPC   C4B24814  12.363   1.448   7.333
 1808POPC   NC324815  40.707  15.451   9.476
 1808POPC   PO424816  40.751  14.820   9.591
 1808POPC   GL124817  40.658  14.953   9.148
 1808POPC   GL224818  40.712  15.301   8.985
 1808POPC   C1A24819  40.539  14.932   8.710
 1808POPC   D2A24820  40.690  15.211   8.397
 1808POPC   C3A24821  40.706  15.043   7.997
 1808POPC   C4A24822  40.648  15.181   7.590
 1808POPC   C1B24823  41.057  15.541   8.778
 1808POPC   C2B24824  41.048  15.752   8.387
 1808POPC   C3B24825  41.230  15.627   8.016
 1808POPC   C4B24826  41.103  15.391   7.685
 1809POPC   NC324827  26.167  38.322   9.492
 1809POPC   PO424828  25.697  37.950   9.244
 1809POPC   GL124829  25.901  38.329   9.065
 1809POPC   GL224830  26.312  38.386   9.029
 1809POPC   C1A24831  25.856  38.514   8.699
 1809POPC   D2A24832  26.023  38.447   8.306
 1809POPC   C3A24833  25.722  38.561   8.005
 1809POPC   C4A24834  25.554  38.578   7.586
 1809POPC   C1B24835  26.346  38.647   8.707
 1809POPC   C2B24836  26.533  38.637   8.318
 1809POPC   C3B24837  26.449  38.387   8.019
 1809POPC   C4B24838  26.594  38.331   7.666
 1810POPC   NC324839   6.881  28.131   9.489
 1810POPC   PO424840   6.379  28.449   9.225
 1810POPC   GL124841   6.723  28.332   9.050
 1810POPC   GL224842   6.841  28.665   9.071
 1810POPC   C1A24843   6.787  28.251   8.633
 1810POPC   D2A24844   6.524  28.523   8.365
 1810POPC   C3A24845   6.420  28.379   7.943
 1810POPC   C4A24846   6.714  28.136   7.720
 1810POPC   C1B24847   6.909  28.793   8.655
 1810POPC   C2B24848   6.972  28.832   8.209
 1810POPC   C3B24849   6.840  28.675   7.813
 1810POPC   C4B24850   6.508  28.720   7.481
 1811POPC   NC324851  32.049   7.602   9.770
 1811POPC   PO424852  32.688   7.446   9.465
 1811POPC   GL124853  32.453   7.710   9.163
 1811POPC   GL224854  32.476   7.407   8.916
 1811POPC   C1A24855  32.198   7.809   8.795
 1811POPC   D2A24856  32.138   7.534   8.435
 1811POPC   C3A24857  32.239   7.681   8.027
 1811POPC   C4A24858  32.217   7.507   7.617
 1811POPC   C1B24859  32.646   7.012   8.743
 1811POPC   C2B24860  32.469   6.946   8.353
 1811POPC   C3B24861  32.384   7.182   8.014
 1811POPC   C4B24862  32.617   7.096   7.618
 1812POPC   NC324863  22.884  24.272   9.326
 1812POPC   PO424864  22.674  23.715   9.624
 1812POPC   GL124865  22.961  23.591   9.243
 1812POPC   GL224866  23.110  23.863   9.006
 1812POPC   C1A24867  23.216  23.355   8.913
 1812POPC   D2A24868  23.297  23.544   8.500
 1812POPC   C3A24869  23.134  23.357   8.141
 1812POPC   C4A24870  23.048  23.576   7.769
 1812POPC   C1B24871  22.817  23.607   8.716
 1812POPC   C2B24872  22.651  23.413   8.319
 1812POPC   C3B24873  22.536  23.512   7.857
 1812POPC   C4B24874  22.399  23.859   7.539
 1813POPC   NC324875  40.479  23.437   9.585
 1813POPC   PO424876  41.017  23.861   9.403
 1813POPC   GL124877  40.869  24.010   9.000
 1813POPC   GL224878  40.505  24.212   8.980
 1813POPC   C1A24879  40.888  23.768   8.621
 1813POPC   D2A24880  41.091  23.666   8.240
 1813POPC   C3A24881  40.814  23.678   7.908
 1813POPC   C4A24882  40.858  23.547   7.489
 1813POPC   C1B24883  40.427  23.968   8.690
 1813POPC   C2B24884  40.439  23.802   8.332
 1813POPC   C3B24885  40.373  23.966   7.939
 1813POPC   C4B24886  40.639  24.041   7.594
 1814POPC   NC324887  10.240  30.228   9.324
 1814POPC   PO424888   9.683  30.709   9.419
 1814POPC   GL124889   9.689  30.951   9.080
 1814POPC   GL224890  10.037  30.871   9.041
 1814POPC   C1A24891   9.664  30.764   8.686
 1814POPC   D2A24892   9.808  30.648   8.292
 1814POPC   C3A24893   9.510  30.925   8.078
 1814POPC   C4A24894   9.483  31.150   7.684
 1814POPC   C1B24895  10.122  30.531   8.756
 1814POPC   C2B24896  10.210  30.307   8.386
 1814POPC   C3B24897  10.168  30.482   7.975
 1814POPC   C4B24898   9.799  30.692   7.740
 1815POPC   NC324899  16.532  43.261   9.484
 1815POPC   PO424900  16.788  42.630   9.468
 1815POPC   GL124901  16.853  42.924   9.133
 1815POPC   GL224902  16.665  43.241   8.994
 1815POPC   C1A24903  16.763  42.850   8.699
 1815POPC   D2A24904  16.724  43.220   8.444
 1815POPC   C3A24905  16.778  42.990   8.110
 1815POPC   C4A24906  16.776  42.979   7.705
 1815POPC   C1B24907  16.371  43.519   8.724
 1815POPC   C2B24908  16.284  43.512   8.303
 1815POPC   C3B24909  16.581  43.465   7.978
 1815POPC   C4B24910  16.500  43.381   7.560
 1816POPC   NC324911  23.679   7.933   9.161
 1816POPC   PO424912  23.188   8.231   9.520
 1816POPC   GL124913  23.407   8.374   9.141
 1816POPC   GL224914  23.775   8.447   9.202
 1816POPC   C1A24915  23.281   8.311   8.696
 1816POPC   D2A24916  23.211   8.335   8.242
 1816POPC   C3A24917  23.486   8.104   7.917
 1816POPC   C4A24918  23.644   8.165   7.460
 1816POPC   C1B24919  23.755   8.453   8.763
 1816POPC   C2B24920  23.735   8.241   8.363
 1816POPC   C3B24921  23.968   8.243   7.950
 1816POPC   C4B24922  23.922   8.567   7.608
 1817POPC   NC324923  35.009  15.038   9.560
 1817POPC   PO424924  34.360  15.374   9.451
 1817POPC   GL124925  34.664  15.166   9.174
 1817POPC   GL224926  35.000  15.321   9.126
 1817POPC   C1A24927  34.695  15.201   8.739
 1817POPC   D2A24928  34.471  15.203   8.366
 1817POPC   C3A24929  34.676  15.067   7.986
 1817POPC   C4A24930  34.392  15.020   7.642
 1817POPC   C1B24931  34.947  15.645   8.764
 1817POPC   C2B24932  34.729  15.792   8.434
 1817POPC   C3B24933  34.605  15.588   8.050
 1817POPC   C4B24934  34.696  15.459   7.622
 1818POPC   NC324935   5.409  36.475   9.519
 1818POPC   PO424936   4.919  36.741   9.129
 1818POPC   GL124937   5.232  36.892   8.927
 1818POPC   GL224938   5.258  37.210   9.055
 1818POPC   C1A24939   5.168  36.899   8.484
 1818POPC   D2A24940   4.790  37.026   8.242
 1818POPC   C3A24941   4.831  36.830   7.846
 1818POPC   C4A24942   5.281  36.759   7.736
 1818POPC   C1B24943   4.989  37.328   8.705
 1818POPC   C2B24944   5.144  37.388   8.293
 1818POPC   C3B24945   5.106  37.278   7.863
 1818POPC   C4B24946   5.218  37.306   7.427
 1819POPC   NC324947   3.718   2.425   9.531
 1819POPC   PO424948   3.481   1.757   9.424
 1819POPC   GL124949   3.474   2.095   9.161
 1819POPC   GL224950   3.842   2.121   9.104
 1819POPC   C1A24951   3.475   2.059   8.725
 1819POPC   D2A24952   3.672   2.326   8.429
 1819POPC   C3A24953   3.616   2.188   8.034
 1819POPC   C4A24954   3.341   2.046   7.752
 1819POPC   C1B24955   3.939   1.821   8.755
 1819POPC   C2B24956   3.850   1.827   8.307
 1819POPC   C3B24957   3.630   1.623   7.930
 1819POPC   C4B24958   3.521   1.668   7.471
 1820POPC   NC324959  28.924  16.262   9.508
 1820POPC   PO424960  29.384  15.755   9.468
 1820POPC   GL124961  29.134  15.736   9.146
 1820POPC   GL224962  29.175  16.085   9.115
 1820POPC   C1A24963  29.000  15.802   8.734
 1820POPC   D2A24964  28.846  16.029   8.416
 1820POPC   C3A24965  28.944  15.900   8.037
 1820POPC   C4A24966  29.002  15.701   7.673
 1820POPC   C1B24967  29.343  16.181   8.731
 1820POPC   C2B24968  29.546  15.989   8.397
 1820POPC   C3B24969  29.439  16.127   7.996
 1820POPC   C4B24970  29.087  16.285   7.747
 1821POPC   NC324971  13.957  22.563   9.342
 1821POPC   PO424972  13.520  22.191   9.649
 1821POPC   GL124973  13.341  22.296   9.220
 1821POPC   GL224974  13.624  22.264   9.088
 1821POPC   C1A24975  13.265  22.446   8.759
 1821POPC   D2A24976  13.268  22.229   8.358
 1821POPC   C3A24977  13.411  22.354   7.956
 1821POPC   C4A24978  13.600  22.069   7.695
 1821POPC   C1B24979  13.625  22.078   8.690
 1821POPC   C2B24980  13.802  22.254   8.285
 1821POPC   C3B24981  14.078  22.049   8.005
 1821POPC   C4B24982  14.137  21.967   7.599
 1822POPC   NC324983   7.548   7.268   9.552
 1822POPC   PO424984   7.724   7.928   9.579
 1822POPC   GL124985   7.573   7.634   9.189
 1822POPC   GL224986   7.666   7.264   9.055
 1822POPC   C1A24987   7.275   7.558   8.843
 1822POPC   D2A24988   7.042   7.351   8.522
 1822POPC   C3A24989   7.274   7.203   8.170
 1822POPC   C4A24990   7.166   7.386   7.777
 1822POPC   C1B24991   7.686   7.395   8.602
 1822POPC   C2B24992   7.563   7.623   8.220
 1822POPC   C3B24993   7.648   7.495   7.776
 1822POPC   C4B24994   7.740   7.074   7.696
 1823POPC   NC324995  24.653  12.524   9.721
 1823POPC   PO424996  24.252  13.012   9.536
 1823POPC   GL124997  24.406  12.859   9.126
 1823POPC   GL224998  24.774  12.856   9.172
 1823POPC   C1A24999  24.237  12.990   8.692
 1823POPC   D2A25000  24.100  12.846   8.261
 1823POPC   C3A25001  24.463  12.719   7.962
 1823POPC   C4A25002  24.796  12.422   7.883
 1823POPC   C1B25003  24.727  13.133   8.777
 1823POPC   C2B25004  24.699  12.955   8.359
 1823POPC   C3B25005  24.714  13.179   7.943
 1823POPC   C4B25006  24.707  12.968   7.548
 1824POPC   NC325007  16.784  15.426   9.561
 1824POPC   PO425008  17.040  14.700   9.566
 1824POPC   GL125009  16.860  15.017   9.193
 1824POPC   GL225010  16.752  15.397   9.078
 1824POPC   C1A25011  16.625  15.029   8.768
 1824POPC   D2A25012  16.502  14.864   8.346
 1824POPC   C3A25013  16.797  14.776   8.020
 1824POPC   C4A25014  17.063  14.959   7.699
 1824POPC   C1B25015  16.990  15.378   8.723
 1824POPC   C2B25016  16.932  15.206   8.317
 1824POPC   C3B25017  16.742  15.403   7.967
 1824POPC   C4B25018  16.578  15.626   7.596
 1825POPC   NC325019  22.060  44.472   9.755
 1825POPC   PO425020  22.219   0.088   9.736
 1825POPC   GL125021  22.187  44.872   9.327
 1825POPC   GL225022  22.243  44.530   9.270
 1825POPC   C1A25023  22.195  44.872   8.850
 1825POPC   D2A25024  22.424  44.714   8.455
 1825POPC   C3A25025  22.293  44.762   8.045
 1825POPC   C4A25026  22.394  44.960   7.648
 1825POPC   C1B25027  22.221  44.365   8.859
 1825POPC   C2B25028  21.960  44.514   8.491
 1825POPC   C3B25029  21.930  44.397   8.050
 1825POPC   C4B25030  22.013  44.576   7.642
 1826POPC   NC325031  36.410  34.647   9.295
 1826POPC   PO425032  35.880  34.315   9.615
 1826POPC   GL125033  35.924  34.485   9.204
 1826POPC   GL225034  35.640  34.641   9.149
 1826POPC   C1A25035  35.972  34.332   8.787
 1826POPC   D2A25036  36.054  34.265   8.337
 1826POPC   C3A25037  36.290  34.571   8.076
 1826POPC   C4A25038  36.601  34.506   7.761
 1826POPC   C1B25039  35.837  34.826   8.772
 1826POPC   C2B25040  35.752  34.830   8.320
 1826POPC   C3B25041  35.774  34.523   7.978
 1826POPC   C4B25042  36.055  34.468   7.622
 1827POPC   NC325043  34.920   8.416   9.522
 1827POPC   PO425044  34.284   8.084   9.515
 1827POPC   GL125045  34.351   8.336   9.166
 1827POPC   GL225046  34.672   8.163   9.115
 1827POPC   C1A25047  34.332   8.431   8.731
 1827POPC   D2A25048  34.518   8.134   8.436
 1827POPC   C3A25049  34.270   8.059   8.082
 1827POPC   C4A25050  34.409   8.347   7.751
 1827POPC   C1B25051  34.835   8.386   8.772
 1827POPC   C2B25052  35.046   8.252   8.408
 1827POPC   C3B25053  34.995   8.351   8.020
 1827POPC   C4B25054  34.920   8.248   7.629
 1828POPC   NC325055  27.762  20.427   9.473
 1828POPC   PO425056  27.105  20.439   9.468
 1828POPC   GL125057  27.354  20.391   9.109
 1828POPC   GL225058  27.689  20.235   9.018
 1828POPC   C1A25059  27.287  20.563   8.683
 1828POPC   D2A25060  27.599  20.796   8.441
 1828POPC   C3A25061  27.706  20.581   8.087
 1828POPC   C4A25062  27.770  20.799   7.713
 1828POPC   C1B25063  27.403  20.053   8.754
 1828POPC   C2B25064  27.434  20.147   8.357
 1828POPC   C3B25065  27.287  20.236   7.986
 1828POPC   C4B25066  27.577  20.304   7.669
 1829POPC   NC325067  40.459  21.183   9.392
 1829POPC   PO425068  39.985  21.454   9.697
 1829POPC   GL125069  40.007  21.372   9.241
 1829POPC   GL225070  40.282  21.566   9.091
 1829POPC   C1A25071  39.857  21.495   8.828
 1829POPC   D2A25072  40.099  21.591   8.461
 1829POPC   C3A25073  39.972  21.509   8.038
 1829POPC   C4A25074  39.737  21.550   7.644
 1829POPC   C1B25075  40.329  21.217   8.764
 1829POPC   C2B25076  40.257  20.968   8.393
 1829POPC   C3B25077  40.232  21.082   7.968
 1829POPC   C4B25078  40.262  21.355   7.590
 1830POPC   NC325079  32.236  31.867   9.498
 1830POPC   PO425080  32.127  31.123   9.506
 1830POPC   GL125081  32.129  31.436   9.155
 1830POPC   GL225082  32.426  31.576   9.115
 1830POPC   C1A25083  31.969  31.484   8.704
 1830POPC   D2A25084  31.981  31.269   8.275
 1830POPC   C3A25085  32.158  31.452   7.854
 1830POPC   C4A25086  32.216  31.700   7.449
 1830POPC   C1B25087  32.450  31.327   8.706
 1830POPC   C2B25088  32.505  31.418   8.243
 1830POPC   C3B25089  32.590  31.752   7.882
 1830POPC   C4B25090  32.678  31.853   7.442
 1831POPC   NC325091   8.336   3.109   9.754
 1831POPC   PO425092   8.058   3.663   9.468
 1831POPC   GL125093   8.338   3.508   9.181
 1831POPC   GL225094   8.061   3.548   8.975
 1831POPC   C1A25095   8.551   3.610   8.810
 1831POPC   D2A25096   8.362   3.565   8.392
 1831POPC   C3A25097   8.572   3.505   7.993
 1831POPC   C4A25098   8.604   3.422   7.523
 1831POPC   C1B25099   7.744   3.791   8.845
 1831POPC   C2B25100   7.824   3.671   8.442
 1831POPC   C3B25101   7.989   3.517   8.042
 1831POPC   C4B25102   8.131   3.501   7.630
 1832POPC   NC325103   1.180  32.748   9.781
 1832POPC   PO425104   1.309  32.130   9.504
 1832POPC   GL125105   1.246  32.265   9.114
 1832POPC   GL225106   1.234  32.578   9.143
 1832POPC   C1A25107   1.201  32.206   8.690
 1832POPC   D2A25108   1.444  31.972   8.390
 1832POPC   C3A25109   1.298  32.101   8.017
 1832POPC   C4A25110   1.053  32.259   7.698
 1832POPC   C1B25111   1.464  32.635   8.778
 1832POPC   C2B25112   1.645  32.485   8.371
 1832POPC   C3B25113   1.492  32.578   7.986
 1832POPC   C4B25114   1.562  32.383   7.618
 1833POPC   NC325115  10.942  38.332   9.377
 1833POPC   PO425116  10.279  38.491   9.497
 1833POPC   GL125117  10.445  38.330   9.117
 1833POPC   GL225118  10.183  38.108   9.056
 1833POPC   C1A25119  10.674  38.512   8.737
 1833POPC   D2A25120  10.609  38.865   8.410
 1833POPC   C3A25121  10.662  38.730   7.939
 1833POPC   C4A25122  10.560  38.709   7.480
 1833POPC   C1B25123  10.258  38.238   8.624
 1833POPC   C2B25124  10.485  38.380   8.256
 1833POPC   C3B25125  10.330  38.364   7.822
 1833POPC   C4B25126  10.296  38.275   7.389
 1834POPC   NC325127   2.193   6.381   9.468
 1834POPC   PO425128   1.644   6.710   9.571
 1834POPC   GL125129   1.859   6.643   9.199
 1834POPC   GL225130   1.966   6.950   9.096
 1834POPC   C1A25131   1.755   6.559   8.795
 1834POPC   D2A25132   1.696   6.817   8.418
 1834POPC   C3A25133   1.983   6.835   8.058
 1834POPC   C4A25134   1.981   6.689   7.638
 1834POPC   C1B25135   2.222   6.750   8.760
 1834POPC   C2B25136   2.078   6.442   8.417
 1834POPC   C3B25137   2.008   6.309   7.992
 1834POPC   C4B25138   2.355   6.349   7.747
 1835POPC   NC325139   4.344  19.285   9.421
 1835POPC   PO425140   4.382  18.660   9.510
 1835POPC   GL125141   4.244  18.764   9.117
 1835POPC   GL225142   4.519  18.954   9.049
 1835POPC   C1A25143   4.149  18.832   8.680
 1835POPC   D2A25144   4.332  18.878   8.267
 1835POPC   C3A25145   4.104  18.944   7.892
 1835POPC   C4A25146   4.352  18.889   7.525
 1835POPC   C1B25147   4.635  19.073   8.636
 1835POPC   C2B25148   4.592  19.344   8.278
 1835POPC   C3B25149   4.587  19.218   7.847
 1835POPC   C4B25150   4.399  19.390   7.450
 1836POPC   NC325151  10.714  17.104   9.611
 1836POPC   PO425152  10.322  17.637   9.608
 1836POPC   GL125153  10.407  17.417   9.256
 1836POPC   GL225154  10.116  17.586   9.150
 1836POPC   C1A25155  10.435  17.305   8.834
 1836POPC   D2A25156  10.712  17.448   8.513
 1836POPC   C3A25157  10.526  17.334   8.163
 1836POPC   C4A25158  10.602  17.263   7.767
 1836POPC   C1B25159   9.981  17.755   8.810
 1836POPC   C2B25160  10.168  17.566   8.470
 1836POPC   C3B25161  10.162  17.687   8.076
 1836POPC   C4B25162  10.169  17.550   7.705
 1837POPC   NC325163  31.754  32.381   9.568
 1837POPC   PO425164  31.188  32.686   9.484
 1837POPC   GL125165  31.431  32.456   9.203
 1837POPC   GL225166  31.724  32.688   9.160
 1837POPC   C1A25167  31.639  32.210   8.878
 1837POPC   D2A25168  31.595  32.213   8.442
 1837POPC   C3A25169  31.369  31.960   8.090
 1837POPC   C4A25170  31.259  32.118   7.687
 1837POPC   C1B25171  31.914  32.626   8.771
 1837POPC   C2B25172  31.808  32.665   8.335
 1837POPC   C3B25173  31.565  32.431   7.993
 1837POPC   C4B25174  31.660  32.382   7.542
 1838POPC   NC325175  41.948   2.370   9.471
 1838POPC   PO425176  42.293   1.777   9.702
 1838POPC   GL125177  42.274   1.827   9.198
 1838POPC   GL225178  42.305   2.204   9.069
 1838POPC   C1A25179  42.036   1.863   8.804
 1838POPC   D2A25180  42.264   2.004   8.440
 1838POPC   C3A25181  42.388   1.696   8.130
 1838POPC   C4A25182  42.635   1.688   7.737
 1838POPC   C1B25183  42.031   2.399   8.760
 1838POPC   C2B25184  42.027   2.443   8.302
 1838POPC   C3B25185  42.176   2.153   7.940
 1838POPC   C4B25186  42.078   2.212   7.486
 1839POPC   NC325187  37.944   2.356   9.269
 1839POPC   PO425188  37.434   1.987   9.540
 1839POPC   GL125189  37.499   2.149   9.125
 1839POPC   GL225190  37.621   1.850   9.001
 1839POPC   C1A25191  37.540   2.176   8.631
 1839POPC   D2A25192  37.463   1.819   8.375
 1839POPC   C3A25193  37.644   1.845   7.994
 1839POPC   C4A25194  37.444   1.971   7.637
 1839POPC   C1B25195  38.004   2.015   8.723
 1839POPC   C2B25196  38.099   1.884   8.297
 1839POPC   C3B25197  38.084   2.168   7.946
 1839POPC   C4B25198  37.896   2.190   7.552
 1840POPC   NC325199  27.356  39.161   9.500
 1840POPC   PO425200  27.296  39.815   9.410
 1840POPC   GL125201  27.424  39.450   9.096
 1840POPC   GL225202  27.456  39.042   9.016
 1840POPC   C1A25203  27.741  39.401   8.790
 1840POPC   D2A25204  27.555  39.517   8.421
 1840POPC   C3A25205  27.459  39.278   8.059
 1840POPC   C4A25206  27.582  39.298   7.633
 1840POPC   C1B25207  27.583  38.971   8.553
 1840POPC   C2B25208  27.909  39.117   8.259
 1840POPC   C3B25209  27.902  38.952   7.850
 1840POPC   C4B25210  27.607  38.799   7.544
 1841POPC   NC325211  43.562  44.733   9.474
 1841POPC   PO425212  44.277  44.658   9.450
 1841POPC   GL125213  44.120  44.821   9.118
 1841POPC   GL225214  43.864   0.023   9.172
 1841POPC   C1A25215  43.968  44.645   8.767
 1841POPC   D2A25216  44.156  44.422   8.446
 1841POPC   C3A25217  43.923  44.493   8.099
 1841POPC   C4A25218  44.032  44.377   7.716
 1841POPC   C1B25219  43.589   0.035   8.801
 1841POPC   C2B25220  43.594  44.943   8.361
 1841POPC   C3B25221  43.611  44.864   7.915
 1841POPC   C4B25222  43.497  44.751   7.470
 1842POPC   NC325223  26.254  23.785   9.447
 1842POPC   PO425224  25.628  23.664   9.470
 1842POPC   GL125225  25.899  23.552   9.136
 1842POPC   GL225226  25.658  23.418   8.978
 1842POPC   C1A25227  26.173  23.641   8.744
 1842POPC   D2A25228  26.287  23.675   8.270
 1842POPC   C3A25229  26.011  23.534   7.934
 1842POPC   C4A25230  26.027  23.635   7.500
 1842POPC   C1B25231  25.688  23.811   8.700
 1842POPC   C2B25232  25.731  23.831   8.232
 1842POPC   C3B25233  25.896  24.010   7.813
 1842POPC   C4B25234  25.836  24.190   7.344
 1843POPC   NC325235   5.388   5.039   9.516
 1843POPC   PO425236   4.729   4.979   9.348
 1843POPC   GL125237   5.076   5.221   9.115
 1843POPC   GL225238   5.454   5.336   9.116
 1843POPC   C1A25239   5.125   5.068   8.696
 1843POPC   D2A25240   4.811   4.837   8.461
 1843POPC   C3A25241   4.986   4.737   8.075
 1843POPC   C4A25242   5.148   5.099   7.836
 1843POPC   C1B25243   5.391   5.501   8.725
 1843POPC   C2B25244   5.464   5.330   8.327
 1843POPC   C3B25245   5.435   5.527   7.938
 1843POPC   C4B25246   5.324   5.474   7.487
 1844POPC   NC325247  11.979  11.381   9.465
 1844POPC   PO425248  12.134  10.753   9.551
 1844POPC   GL125249  12.189  11.056   9.128
 1844POPC   GL225250  12.245  11.483   9.058
 1844POPC   C1A25251  12.312  11.173   8.694
 1844POPC   D2A25252  12.306  11.479   8.379
 1844POPC   C3A25253  12.127  11.402   8.015
 1844POPC   C4A25254  12.192  11.184   7.664
 1844POPC   C1B25255  11.871  11.455   8.744
 1844POPC   C2B25256  11.696  11.346   8.313
 1844POPC   C3B25257  11.684  11.623   7.929
 1844POPC   C4B25258  11.927  11.619   7.557
 1845POPC   NC325259  25.122  43.958   9.757
 1845POPC   PO425260  25.419  44.003   9.131
 1845POPC   GL125261  25.347  43.677   8.842
 1845POPC   GL225262  24.984  43.576   8.937
 1845POPC   C1A25263  25.626  43.831   8.529
 1845POPC   D2A25264  25.782  44.088   8.266
 1845POPC   C3A25265  25.475  44.107   7.972
 1845POPC   C4A25266  25.313  43.878   7.630
 1845POPC   C1B25267  24.926  43.845   8.595
 1845POPC   C2B25268  25.195  43.770   8.267
 1845POPC   C3B25269  25.075  43.555   7.925
 1845POPC   C4B25270  24.819  43.689   7.572
 1846POPC   NC325271   9.442  42.096   9.487
 1846POPC   PO425272   9.957  42.561   9.518
 1846POPC   GL125273   9.836  42.317   9.216
 1846POPC   GL225274   9.934  41.957   9.295
 1846POPC   C1A25275   9.610  42.434   8.849
 1846POPC   D2A25276   9.418  42.242   8.483
 1846POPC   C3A25277   9.550  42.423   8.100
 1846POPC   C4A25278   9.628  42.557   7.685
 1846POPC   C1B25279   9.713  41.939   8.897
 1846POPC   C2B25280   9.848  41.940   8.484
 1846POPC   C3B25281   9.661  41.931   8.104
 1846POPC   C4B25282   9.793  42.072   7.719
 1847POPC   NC325283   6.931  41.323   9.496
 1847POPC   PO425284   7.609  41.353   9.498
 1847POPC   GL125285   7.488  41.484   9.106
 1847POPC   GL225286   7.202  41.563   9.108
 1847POPC   C1A25287   7.540  41.694   8.736
 1847POPC   D2A25288   7.418  41.502   8.316
 1847POPC   C3A25289   7.533  41.709   7.943
 1847POPC   C4A25290   7.834  41.637   7.607
 1847POPC   C1B25291   7.196  41.294   8.734
 1847POPC   C2B25292   6.964  41.287   8.343
 1847POPC   C3B25293   7.130  41.287   7.911
 1847POPC   C4B25294   7.234  41.579   7.550
 1848POPC   NC325295  17.998  10.122   9.617
 1848POPC   PO425296  18.358  10.650   9.645
 1848POPC   GL125297  18.089  10.554   9.262
 1848POPC   GL225298  18.263  10.288   9.136
 1848POPC   C1A25299  18.103  10.626   8.756
 1848POPC   D2A25300  18.319  10.524   8.322
 1848POPC   C3A25301  18.192  10.683   7.885
 1848POPC   C4A25302  18.465  10.971   7.649
 1848POPC   C1B25303  18.239  10.149   8.702
 1848POPC   C2B25304  17.990  10.125   8.358
 1848POPC   C3B25305  18.181  10.156   7.954
 1848POPC   C4B25306  18.271  10.230   7.519
 1849POPC   NC325307   8.140   6.088   9.479
 1849POPC   PO425308   8.453   5.492   9.356
 1849POPC   GL125309   8.154   5.716   9.127
 1849POPC   GL225310   8.164   5.514   8.853
 1849POPC   C1A25311   7.841   5.909   8.847
 1849POPC   D2A25312   7.829   6.028   8.415
 1849POPC   C3A25313   8.033   5.772   8.103
 1849POPC   C4A25314   8.078   5.427   7.836
 1849POPC   C1B25315   8.316   5.977   8.727
 1849POPC   C2B25316   8.335   6.166   8.331
 1849POPC   C3B25317   8.507   5.940   7.986
 1849POPC   C4B25318   8.515   5.652   7.662
 1850POPC   NC325319  23.940  10.280   9.388
 1850POPC   PO425320  23.713  10.878   9.324
 1850POPC   GL125321  23.662  10.581   9.068
 1850POPC   GL225322  23.406  10.367   9.238
 1850POPC   C1A25323  23.675  10.681   8.642
 1850POPC   D2A25324  23.638  10.663   8.204
 1850POPC   C3A25325  23.958  10.422   8.026
 1850POPC   C4A25326  24.069  10.673   7.709
 1850POPC   C1B25327  23.240  10.485   8.815
 1850POPC   C2B25328  23.218  10.386   8.398
 1850POPC   C3B25329  23.413  10.246   8.031
 1850POPC   C4B25330  23.569  10.496   7.698
 1851POPC   NC325331  14.630  26.541   9.451
 1851POPC   PO425332  14.414  27.214   9.499
 1851POPC   GL125333  14.230  27.063   9.117
 1851POPC   GL225334  14.279  26.715   9.128
 1851POPC   C1A25335  14.161  26.953   8.641
 1851POPC   D2A25336  14.513  26.935   8.315
 1851POPC   C3A25337  14.359  26.861   7.897
 1851POPC   C4A25338  14.134  26.563   7.700
 1851POPC   C1B25339  14.563  26.657   8.748
 1851POPC   C2B25340  14.364  26.452   8.324
 1851POPC   C3B25341  14.541  26.331   7.943
 1851POPC   C4B25342  14.826  26.640   7.814
 1852POPC   NC325343  14.045   7.406   9.648
 1852POPC   PO425344  13.456   7.512   9.667
 1852POPC   GL125345  13.466   7.621   9.234
 1852POPC   GL225346  13.368   7.287   9.143
 1852POPC   C1A25347  13.402   7.635   8.770
 1852POPC   D2A25348  13.658   7.530   8.420
 1852POPC   C3A25349  13.555   7.439   8.001
 1852POPC   C4A25350  13.883   7.352   7.690
 1852POPC   C1B25351  13.500   7.116   8.702
 1852POPC   C2B25352  13.435   6.941   8.277
 1852POPC   C3B25353  13.627   6.947   7.835
 1852POPC   C4B25354  13.709   7.012   7.351
 1853POPC   NC325355   5.889  35.919   9.630
 1853POPC   PO425356   5.890  36.594   9.685
 1853POPC   GL125357   5.839  36.277   9.277
 1853POPC   GL225358   6.195  36.102   9.251
 1853POPC   C1A25359   5.704  36.081   8.839
 1853POPC   D2A25360   5.774  36.230   8.432
 1853POPC   C3A25361   5.457  36.209   8.116
 1853POPC   C4A25362   5.588  36.281   7.690
 1853POPC   C1B25363   6.200  36.040   8.799
 1853POPC   C2B25364   6.289  36.190   8.398
 1853POPC   C3B25365   6.113  36.372   8.042
 1853POPC   C4B25366   6.113  36.275   7.618
 1854POPC   NC325367   7.602  28.164   9.469
 1854POPC   PO425368   7.067  28.577   9.514
 1854POPC   GL125369   7.229  28.326   9.166
 1854POPC   GL225370   7.119  28.004   9.015
 1854POPC   C1A25371   7.337  28.442   8.774
 1854POPC   D2A25372   7.208  28.404   8.379
 1854POPC   C3A25373   7.431  28.545   8.040
 1854POPC   C4A25374   7.197  28.318   7.757
 1854POPC   C1B25375   7.392  27.896   8.648
 1854POPC   C2B25376   7.591  28.035   8.231
 1854POPC   C3B25377   7.674  28.110   7.773
 1854POPC   C4B25378   7.897  28.109   7.354
 1855POPC   NC325379  14.547  36.096   9.555
 1855POPC   PO425380  14.920  36.643   9.302
 1855POPC   GL125381  14.631  36.349   9.088
 1855POPC   GL225382  14.280  36.230   9.159
 1855POPC   C1A25383  14.468  36.192   8.694
 1855POPC   D2A25384  14.342  36.308   8.295
 1855POPC   C3A25385  14.479  36.088   7.929
 1855POPC   C4A25386  14.377  36.174   7.520
 1855POPC   C1B25387  14.070  35.944   8.903
 1855POPC   C2B25388  13.881  35.958   8.509
 1855POPC   C3B25389  14.011  35.947   8.096
 1855POPC   C4B25390  14.072  35.785   7.698
 1856POPC   NC325391  27.387   1.345   9.747
 1856POPC   PO425392  26.915   0.959   9.467
 1856POPC   GL125393  26.735   1.091   9.097
 1856POPC   GL225394  26.486   0.809   9.078
 1856POPC   C1A25395  27.052   1.141   8.772
 1856POPC   D2A25396  27.111   1.339   8.377
 1856POPC   C3A25397  26.750   1.257   8.132
 1856POPC   C4A25398  26.617   1.286   7.719
 1856POPC   C1B25399  26.837   0.672   8.814
 1856POPC   C2B25400  26.842   0.822   8.420
 1856POPC   C3B25401  27.101   0.891   8.104
 1856POPC   C4B25402  26.902   0.872   7.734
 1857POPC   NC325403  28.186  16.863   9.202
 1857POPC   PO425404  27.667  16.741   9.593
 1857POPC   GL125405  27.607  16.649   9.119
 1857POPC   GL225406  27.760  16.323   8.959
 1857POPC   C1A25407  27.331  16.505   8.753
 1857POPC   D2A25408  27.486  16.312   8.385
 1857POPC   C3A25409  27.400  16.555   8.038
 1857POPC   C4A25410  27.387  16.997   7.899
 1857POPC   C1B25411  27.790  16.704   8.660
 1857POPC   C2B25412  27.737  16.889   8.276
 1857POPC   C3B25413  27.841  16.741   7.857
 1857POPC   C4B25414  28.046  16.836   7.505
 1858POPC   NC325415  20.415  20.605   9.503
 1858POPC   PO425416  21.029  20.902   9.490
 1858POPC   GL125417  20.816  20.594   9.153
 1858POPC   GL225418  20.462  20.605   9.008
 1858POPC   C1A25419  20.821  20.314   8.791
 1858POPC   D2A25420  20.773  20.569   8.399
 1858POPC   C3A25421  20.727  20.410   7.974
 1858POPC   C4A25422  20.843  20.516   7.546
 1858POPC   C1B25423  20.324  20.248   8.774
 1858POPC   C2B25424  20.261  20.359   8.330
 1858POPC   C3B25425  20.349  20.743   8.104
 1858POPC   C4B25426  20.451  20.839   7.696
 1859POPC   NC325427   0.232   7.675   9.490
 1859POPC   PO425428   0.165   7.048   9.338
 1859POPC   GL125429   0.274   7.383   9.049
 1859POPC   GL225430   0.524   7.600   9.063
 1859POPC   C1A25431   0.224   7.521   8.591
 1859POPC   D2A25432   0.389   7.738   8.215
 1859POPC   C3A25433   0.416   7.515   7.790
 1859POPC   C4A25434   0.257   7.572   7.328
 1859POPC   C1B25435   0.699   7.663   8.663
 1859POPC   C2B25436   0.688   7.349   8.379
 1859POPC   C3B25437   0.797   7.191   8.026
 1859POPC   C4B25438   1.011   7.355   7.708
 1860POPC   NC325439  20.184  29.805   9.401
 1860POPC   PO425440  19.822  30.244   9.243
 1860POPC   GL125441  19.659  30.047   8.930
 1860POPC   GL225442  19.777  29.739   9.060
 1860POPC   C1A25443  19.759  29.980   8.524
 1860POPC   D2A25444  20.058  30.049   8.272
 1860POPC   C3A25445  19.890  29.930   7.924
 1860POPC   C4A25446  19.990  29.944   7.511
 1860POPC   C1B25447  19.985  29.564   8.697
 1860POPC   C2B25448  19.762  29.493   8.311
 1860POPC   C3B25449  19.958  29.423   7.916
 1860POPC   C4B25450  19.755  29.483   7.525
 1861POPC   NC325451  10.450  10.657   9.597
 1861POPC   PO425452  10.360  10.036   9.392
 1861POPC   GL125453  10.575  10.380   9.130
 1861POPC   GL225454  10.668  10.744   9.160
 1861POPC   C1A25455  10.698  10.425   8.703
 1861POPC   D2A25456  10.635  10.153   8.355
 1861POPC   C3A25457  10.397  10.285   8.014
 1861POPC   C4A25458  10.636  10.350   7.641
 1861POPC   C1B25459  10.351  10.798   8.838
 1861POPC   C2B25460  10.312  10.644   8.392
 1861POPC   C3B25461  10.402  10.799   7.955
 1861POPC   C4B25462  10.283  10.702   7.517
 1862POPC   NC325463  24.968  18.389   9.468
 1862POPC   PO425464  25.615  18.194   9.493
 1862POPC   GL125465  25.379  18.175   9.138
 1862POPC   GL225466  25.337  18.512   9.142
 1862POPC   C1A25467  25.168  18.180   8.724
 1862POPC   D2A25468  25.019  18.326   8.300
 1862POPC   C3A25469  25.096  18.092   7.944
 1862POPC   C4A25470  25.335  18.110   7.563
 1862POPC   C1B25471  25.243  18.683   8.786
 1862POPC   C2B25472  25.437  18.619   8.404
 1862POPC   C3B25473  25.424  18.503   7.967
 1862POPC   C4B25474  25.570  18.645   7.564
 1863POPC   NC325475  17.746  34.774   9.364
 1863POPC   PO425476  17.409  34.310   9.538
 1863POPC   GL125477  17.579  34.366   9.109
 1863POPC   GL225478  17.375  34.667   9.035
 1863POPC   C1A25479  17.755  34.561   8.719
 1863POPC   D2A25480  17.483  34.625   8.383
 1863POPC   C3A25481  17.673  34.703   8.006
 1863POPC   C4A25482  17.623  34.945   7.674
 1863POPC   C1B25483  17.193  34.369   8.746
 1863POPC   C2B25484  17.182  34.176   8.333
 1863POPC   C3B25485  17.256  34.410   7.938
 1863POPC   C4B25486  17.611  34.298   7.661
 1864POPC   NC325487  25.409  23.249   9.437
 1864POPC   PO425488  24.841  22.753   9.521
 1864POPC   GL125489  25.058  22.948   9.173
 1864POPC   GL225490  25.399  22.863   9.114
 1864POPC   C1A25491  25.022  23.068   8.740
 1864POPC   D2A25492  25.152  22.924   8.333
 1864POPC   C3A25493  24.988  23.063   7.953
 1864POPC   C4A25494  25.146  23.200   7.585
 1864POPC   C1B25495  25.569  22.990   8.735
 1864POPC   C2B25496  25.768  23.075   8.343
 1864POPC   C3B25497  25.521  23.040   7.970
 1864POPC   C4B25498  25.532  22.838   7.548
 1865POPC   NC325499  26.045  34.191   9.500
 1865POPC   PO425500  26.293  34.761   9.863
 1865POPC   GL125501  26.207  34.688   9.351
 1865POPC   GL225502  25.852  34.644   9.189
 1865POPC   C1A25503  26.304  34.576   8.866
 1865POPC   D2A25504  26.117  34.603   8.448
 1865POPC   C3A25505  26.327  34.448   8.076
 1865POPC   C4A25506  26.245  34.625   7.657
 1865POPC   C1B25507  25.900  34.292   8.854
 1865POPC   C2B25508  25.792  34.205   8.421
 1865POPC   C3B25509  25.580  34.423   8.090
 1865POPC   C4B25510  25.894  34.304   7.821
 1866POPC   NC325511  13.071  35.896   9.978
 1866POPC   PO425512  12.757  36.235   9.470
 1866POPC   GL125513  12.836  36.147   9.070
 1866POPC   GL225514  12.531  36.299   8.967
 1866POPC   C1A25515  13.148  36.063   8.744
 1866POPC   D2A25516  13.038  35.959   8.339
 1866POPC   C3A25517  13.039  36.008   7.906
 1866POPC   C4A25518  13.069  36.238   7.522
 1866POPC   C1B25519  12.606  36.046   8.594
 1866POPC   C2B25520  12.545  35.982   8.131
 1866POPC   C3B25521  12.622  36.287   7.777
 1866POPC   C4B25522  12.618  36.422   7.345
 1867POPC   NC325523  22.510  17.724   9.394
 1867POPC   PO425524  22.353  17.102   9.659
 1867POPC   GL125525  22.153  17.073   9.214
 1867POPC   GL225526  22.152  17.452   9.113
 1867POPC   C1A25527  21.893  17.122   8.823
 1867POPC   D2A25528  21.914  17.410   8.459
 1867POPC   C3A25529  21.983  17.235   8.055
 1867POPC   C4A25530  22.191  17.394   7.667
 1867POPC   C1B25531  22.197  17.748   8.739
 1867POPC   C2B25532  22.229  17.842   8.284
 1867POPC   C3B25533  22.246  17.863   7.804
 1867POPC   C4B25534  22.307  17.980   7.336
 1868POPC   NC325535  23.120  42.658   9.389
 1868POPC   PO425536  23.757  42.411   9.556
 1868POPC   GL125537  23.725  42.411   9.129
 1868POPC   GL225538  23.370  42.428   8.993
 1868POPC   C1A25539  23.801  42.488   8.718
 1868POPC   D2A25540  23.586  42.388   8.373
 1868POPC   C3A25541  23.828  42.485   8.048
 1868POPC   C4A25542  23.751  42.414   7.653
 1868POPC   C1B25543  23.403  42.798   8.719
 1868POPC   C2B25544  23.528  42.890   8.277
 1868POPC   C3B25545  23.338  42.657   7.932
 1868POPC   C4B25546  23.355  42.229   7.914
 1869POPC   NC325547  36.100  33.849   9.636
 1869POPC   PO425548  36.770  33.958   9.725
 1869POPC   GL125549  36.471  33.783   9.300
 1869POPC   GL225550  36.207  34.057   9.177
 1869POPC   C1A25551  36.141  33.632   8.928
 1869POPC   D2A25552  35.918  33.614   8.501
 1869POPC   C3A25553  35.959  33.815   8.091
 1869POPC   C4A25554  36.136  33.658   7.735
 1869POPC   C1B25555  36.385  34.023   8.728
 1869POPC   C2B25556  36.398  33.855   8.325
 1869POPC   C3B25557  36.431  34.040   7.893
 1869POPC   C4B25558  36.345  34.045   7.421
 1870POPC   NC325559  10.581  20.104   9.637
 1870POPC   PO425560  10.354  19.483   9.354
 1870POPC   GL125561  10.490  19.709   9.055
 1870POPC   GL225562  10.714  19.949   9.174
 1870POPC   C1A25563  10.539  19.597   8.627
 1870POPC   D2A25564  10.530  19.913   8.353
 1870POPC   C3A25565  10.471  19.820   7.968
 1870POPC   C4A25566  10.216  19.942   7.681
 1870POPC   C1B25567  10.843  20.364   8.949
 1870POPC   C2B25568  10.740  20.377   8.486
 1870POPC   C3B25569  10.817  20.217   8.057
 1870POPC   C4B25570  10.651  20.235   7.656
 1871POPC   NC325571  44.218  28.759   9.273
 1871POPC   PO425572  44.756  28.466   9.586
 1871POPC   GL125573  44.792  28.352   9.171
 1871POPC   GL225574  44.688  28.005   9.223
 1871POPC   C1A25575  44.645  28.457   8.756
 1871POPC   D2A25576  44.471  28.181   8.486
 1871POPC   C3A25577  44.493  28.284   8.070
 1871POPC   C4A25578  44.397  28.411   7.652
 1871POPC   C1B25579  44.885  28.001   8.819
 1871POPC   C2B25580  44.992  28.033   8.411
 1871POPC   C3B25581  44.986  28.124   7.994
 1871POPC   C4B25582  44.716  27.974   7.715
 1872POPC   NC325583  31.298  26.645   9.650
 1872POPC   PO425584  31.762  27.119   9.752
 1872POPC   GL125585  31.553  26.994   9.313
 1872POPC   GL225586  31.278  26.775   9.145
 1872POPC   C1A25587  31.639  26.983   8.861
 1872POPC   D2A25588  31.816  26.713   8.505
 1872POPC   C3A25589  31.544  26.736   8.143
 1872POPC   C4A25590  31.524  26.967   7.712
 1872POPC   C1B25591  31.300  26.678   8.664
 1872POPC   C2B25592  31.048  26.780   8.270
 1872POPC   C3B25593  31.159  26.631   7.836
 1872POPC   C4B25594  31.145  26.726   7.379
 1873POPC   NC325595   4.855  27.251   9.331
 1873POPC   PO425596   4.662  27.898   9.536
 1873POPC   GL125597   4.407  27.700   9.165
 1873POPC   GL225598   4.647  27.551   8.964
 1873POPC   C1A25599   4.206  27.540   8.733
 1873POPC   D2A25600   4.316  27.367   8.281
 1873POPC   C3A25601   4.212  27.548   7.849
 1873POPC   C4A25602   4.486  27.785   7.524
 1873POPC   C1B25603   4.671  27.179   8.671
 1873POPC   C2B25604   4.604  26.934   8.273
 1873POPC   C3B25605   4.611  27.108   7.835
 1873POPC   C4B25606   4.519  27.294   7.382
 1874POPC   NC325607  30.056   5.386   9.553
 1874POPC   PO425608  29.913   6.018   9.624
 1874POPC   GL125609  30.005   5.773   9.220
 1874POPC   GL225610  30.302   5.933   9.160
 1874POPC   C1A25611  29.849   5.681   8.773
 1874POPC   D2A25612  29.885   5.876   8.351
 1874POPC   C3A25613  30.011   5.816   7.929
 1874POPC   C4A25614  30.114   6.209   7.696
 1874POPC   C1B25615  30.328   5.575   8.861
 1874POPC   C2B25616  30.322   5.589   8.415
 1874POPC   C3B25617  30.379   5.457   8.006
 1874POPC   C4B25618  30.456   5.517   7.603
 1875POPC   NC325619  31.297  37.036   9.671
 1875POPC   PO425620  31.423  36.432   9.712
 1875POPC   GL125621  31.554  36.735   9.318
 1875POPC   GL225622  31.440  37.066   9.199
 1875POPC   C1A25623  31.418  36.725   8.835
 1875POPC   D2A25624  31.119  36.868   8.479
 1875POPC   C3A25625  31.304  36.732   8.124
 1875POPC   C4A25626  31.719  36.754   7.975
 1875POPC   C1B25627  31.328  37.206   8.792
 1875POPC   C2B25628  31.307  37.364   8.410
 1875POPC   C3B25629  31.105  37.249   8.098
 1875POPC   C4B25630  31.347  37.118   7.782
 1876POPC   NC325631   8.108  11.404   9.732
 1876POPC   PO425632   8.428  11.043   9.311
 1876POPC   GL125633   8.346  11.315   9.019
 1876POPC   GL225634   8.066  11.428   9.197
 1876POPC   C1A25635   8.301  11.129   8.625
 1876POPC   D2A25636   8.049  11.077   8.291
 1876POPC   C3A25637   8.332  11.232   8.015
 1876POPC   C4A25638   8.622  11.182   7.702
 1876POPC   C1B25639   7.870  11.320   8.774
 1876POPC   C2B25640   7.992  11.574   8.408
 1876POPC   C3B25641   7.912  11.543   7.986
 1876POPC   C4B25642   7.928  11.225   7.678
 1877POPC   NC325643   8.952  21.732   9.578
 1877POPC   PO425644   9.200  21.089   9.608
 1877POPC   GL125645   8.913  21.310   9.272
 1877POPC   GL225646   9.160  21.398   9.087
 1877POPC   C1A25647   8.746  21.486   8.824
 1877POPC   D2A25648   8.963  21.583   8.384
 1877POPC   C3A25649   8.900  21.321   7.997
 1877POPC   C4A25650   8.618  21.118   7.718
 1877POPC   C1B25651   9.129  21.190   8.693
 1877POPC   C2B25652   9.241  21.046   8.301
 1877POPC   C3B25653   9.339  21.084   7.885
 1877POPC   C4B25654   9.273  21.474   7.658
 1878POPC   NC325655  17.408  31.182   9.409
 1878POPC   PO425656  17.506  30.660   9.732
 1878POPC   GL125657  17.544  30.648   9.279
 1878POPC   GL225658  17.805  30.908   9.196
 1878POPC   C1A25659  17.383  30.670   8.842
 1878POPC   D2A25660  17.554  30.656   8.422
 1878POPC   C3A25661  17.279  30.854   8.080
 1878POPC   C4A25662  17.141  30.761   7.670
 1878POPC   C1B25663  17.909  30.627   8.834
 1878POPC   C2B25664  18.069  30.680   8.370
 1878POPC   C3B25665  17.815  30.884   8.052
 1878POPC   C4B25666  17.659  30.768   7.684
 1879POPC   NC325667  12.779   0.890   9.343
 1879POPC   PO425668  12.988   1.470   9.509
 1879POPC   GL125669  12.953   1.285   9.101
 1879POPC   GL225670  13.212   1.152   8.970
 1879POPC   C1A25671  12.702   1.142   8.724
 1879POPC   D2A25672  12.556   1.227   8.296
 1879POPC   C3A25673  12.876   1.194   7.965
 1879POPC   C4A25674  12.731   1.176   7.532
 1879POPC   C1B25675  13.191   1.176   8.549
 1879POPC   C2B25676  13.351   1.442   8.276
 1879POPC   C3B25677  13.338   1.446   7.856
 1879POPC   C4B25678  13.218   1.187   7.515
 1880POPC   NC325679  38.079  29.263   9.528
 1880POPC   PO425680  37.425  29.015   9.514
 1880POPC   GL125681  37.610  29.230   9.194
 1880POPC   GL225682  37.913  29.049   9.110
 1880POPC   C1A25683  37.461  29.104   8.779
 1880POPC   D2A25684  37.202  29.116   8.392
 1880POPC   C3A25685  37.402  29.171   8.002
 1880POPC   C4A25686  37.520  28.920   7.627
 1880POPC   C1B25687  37.924  28.897   8.722
 1880POPC   C2B25688  37.740  28.975   8.333
 1880POPC   C3B25689  37.914  29.008   7.934
 1880POPC   C4B25690  37.992  28.691   7.622
 1881POPC   NC325691  17.341   9.999   9.693
 1881POPC   PO425692  17.688   9.436   9.534
 1881POPC   GL125693  17.419   9.551   9.206
 1881POPC   GL225694  17.361   9.901   9.140
 1881POPC   C1A25695  17.371   9.418   8.809
 1881POPC   D2A25696  17.312   9.598   8.440
 1881POPC   C3A25697  17.550   9.550   8.105
 1881POPC   C4A25698  17.349   9.448   7.720
 1881POPC   C1B25699  17.357  10.048   8.708
 1881POPC   C2B25700  17.483  10.074   8.269
 1881POPC   C3B25701  17.421   9.961   7.834
 1881POPC   C4B25702  17.348  10.058   7.428
 1882POPC   NC325703   7.152   6.231   9.426
 1882POPC   PO425704   7.323   6.863   9.522
 1882POPC   GL125705   7.206   6.900   9.128
 1882POPC   GL225706   7.338   6.559   9.074
 1882POPC   C1A25707   7.339   6.952   8.707
 1882POPC   D2A25708   7.367   6.636   8.389
 1882POPC   C3A25709   7.547   6.778   8.049
 1882POPC   C4A25710   7.710   6.560   7.719
 1882POPC   C1B25711   7.041   6.503   8.746
 1882POPC   C2B25712   6.895   6.367   8.318
 1882POPC   C3B25713   7.174   6.459   7.929
 1882POPC   C4B25714   7.242   6.442   7.456
 1883POPC   NC325715  30.523  10.234   9.673
 1883POPC   PO425716  30.893   9.628   9.573
 1883POPC   GL125717  30.687   9.736   9.262
 1883POPC   GL225718  30.716   9.436   9.127
 1883POPC   C1A25719  30.689   9.906   8.863
 1883POPC   D2A25720  30.602  10.022   8.450
 1883POPC   C3A25721  30.835   9.913   8.099
 1883POPC   C4A25722  30.657   9.862   7.707
 1883POPC   C1B25723  30.964   9.461   8.773
 1883POPC   C2B25724  30.931   9.423   8.329
 1883POPC   C3B25725  30.719   9.403   7.941
 1883POPC   C4B25726  30.825   9.391   7.527
 1884POPC   NC325727  37.715   0.650   9.756
 1884POPC   PO425728  37.325   0.217   9.488
 1884POPC   GL125729  37.667   0.414   9.219
 1884POPC   GL225730  37.809   0.687   9.228
 1884POPC   C1A25731  37.827   0.294   8.804
 1884POPC   D2A25732  37.645   0.069   8.463
 1884POPC   C3A25733  37.648   0.365   8.081
 1884POPC   C4A25734  37.773   0.259   7.638
 1884POPC   C1B25735  37.668   0.789   8.836
 1884POPC   C2B25736  37.770   0.913   8.426
 1884POPC   C3B25737  37.657   0.955   7.991
 1884POPC   C4B25738  37.885   0.848   7.621
 1885POPC   NC325739   4.847  18.418   9.528
 1885POPC   PO425740   5.373  17.954   9.554
 1885POPC   GL125741   5.235  18.178   9.198
 1885POPC   GL225742   4.953  18.013   9.227
 1885POPC   C1A25743   5.056  18.279   8.774
 1885POPC   D2A25744   5.256  18.521   8.427
 1885POPC   C3A25745   5.081  18.413   8.039
 1885POPC   C4A25746   5.107  18.309   7.622
 1885POPC   C1B25747   4.731  17.838   8.938
 1885POPC   C2B25748   4.802  17.824   8.529
 1885POPC   C3B25749   4.728  18.088   8.211
 1885POPC   C4B25750   4.682  18.100   7.781
 1886POPC   NC325751  39.562  30.225   9.488
 1886POPC   PO425752  39.195  30.824   9.599
 1886POPC   GL125753  39.199  30.734   9.186
 1886POPC   GL225754  39.284  30.425   9.084
 1886POPC   C1A25755  39.220  30.936   8.807
 1886POPC   D2A25756  39.076  30.790   8.448
 1886POPC   C3A25757  39.241  30.755   8.047
 1886POPC   C4A25758  39.126  30.518   7.709
 1886POPC   C1B25759  39.545  30.551   8.716
 1886POPC   C2B25760  39.666  30.476   8.268
 1886POPC   C3B25761  39.625  30.477   7.828
 1886POPC   C4B25762  39.649  30.367   7.355
 1887POPC   NC325763  28.390  41.034   9.461
 1887POPC   PO425764  28.388  40.353   9.467
 1887POPC   GL125765  28.527  40.663   9.109
 1887POPC   GL225766  28.499  41.055   8.979
 1887POPC   C1A25767  28.434  40.671   8.658
 1887POPC   D2A25768  28.468  40.413   8.312
 1887POPC   C3A25769  28.471  40.636   7.964
 1887POPC   C4A25770  28.174  40.642   7.696
 1887POPC   C1B25771  28.056  41.005   8.791
 1887POPC   C2B25772  27.938  40.891   8.348
 1887POPC   C3B25773  28.093  41.068   7.962
 1887POPC   C4B25774  28.491  41.083   7.695
 1888POPC   NC325775  22.127  13.087   9.429
 1888POPC   PO425776  22.390  12.530   9.673
 1888POPC   GL125777  22.423  12.733   9.247
 1888POPC   GL225778  22.327  12.495   9.064
 1888POPC   C1A25779  22.320  12.925   8.793
 1888POPC   D2A25780  22.107  12.951   8.368
 1888POPC   C3A25781  22.280  12.999   7.981
 1888POPC   C4A25782  22.639  12.918   7.796
 1888POPC   C1B25783  22.061  12.505   8.667
 1888POPC   C2B25784  21.926  12.431   8.258
 1888POPC   C3B25785  21.885  12.666   7.890
 1888POPC   C4B25786  22.001  12.594   7.452
 1889POPC   NC325787  30.411  23.440   9.417
 1889POPC   PO425788  30.947  23.863   9.454
 1889POPC   GL125789  30.824  23.855   9.057
 1889POPC   GL225790  30.671  23.547   9.011
 1889POPC   C1A25791  30.876  23.794   8.643
 1889POPC   D2A25792  30.618  23.707   8.329
 1889POPC   C3A25793  30.892  23.572   8.066
 1889POPC   C4A25794  30.914  23.571   7.642
 1889POPC   C1B25795  30.349  23.372   8.743
 1889POPC   C2B25796  30.204  23.396   8.331
 1889POPC   C3B25797  30.430  23.415   7.919
 1889POPC   C4B25798  30.428  23.529   7.448
 1890POPC   NC325799  10.885  14.896   9.580
 1890POPC   PO425800  11.336  14.283   9.611
 1890POPC   GL125801  11.186  14.368   9.225
 1890POPC   GL225802  11.124  14.718   9.139
 1890POPC   C1A25803  11.439  14.425   8.861
 1890POPC   D2A25804  11.417  14.385   8.428
 1890POPC   C3A25805  11.578  14.691   8.156
 1890POPC   C4A25806  11.377  14.472   7.823
 1890POPC   C1B25807  11.085  14.750   8.666
 1890POPC   C2B25808  11.075  14.733   8.197
 1890POPC   C3B25809  10.893  14.605   7.793
 1890POPC   C4B25810  10.932  14.782   7.390
 1891POPC   NC325811   6.344  38.953   9.401
 1891POPC   PO425812   6.671  39.495   9.543
 1891POPC   GL125813   6.739  39.278   9.167
 1891POPC   GL225814   6.933  39.564   9.075
 1891POPC   C1A25815   6.677  39.040   8.783
 1891POPC   D2A25816   6.788  39.195   8.377
 1891POPC   C3A25817   6.629  39.023   8.020
 1891POPC   C4A25818   6.484  39.110   7.632
 1891POPC   C1B25819   6.959  39.710   8.663
 1891POPC   C2B25820   6.825  39.681   8.254
 1891POPC   C3B25821   6.906  39.424   7.876
 1891POPC   C4B25822   7.237  39.424   7.601
 1892POPC   NC325823   9.376  12.877   9.491
 1892POPC   PO425824  10.037  13.201   9.470
 1892POPC   GL125825   9.768  13.026   9.122
 1892POPC   GL225826   9.390  13.103   9.052
 1892POPC   C1A25827   9.917  12.924   8.707
 1892POPC   D2A25828  10.038  12.619   8.395
 1892POPC   C3A25829  10.019  12.737   7.986
 1892POPC   C4A25830   9.700  12.882   7.742
 1892POPC   C1B25831   9.434  12.763   8.724
 1892POPC   C2B25832   9.579  12.866   8.277
 1892POPC   C3B25833   9.307  13.101   7.945
 1892POPC   C4B25834   9.341  13.134   7.457
 1893POPC   NC325835  10.221  38.960   9.558
 1893POPC   PO425836  10.925  39.267   9.593
 1893POPC   GL125837  10.576  39.281   9.253
 1893POPC   GL225838  10.331  39.569   9.158
 1893POPC   C1A25839  10.535  39.227   8.802
 1893POPC   D2A25840  10.593  39.401   8.401
 1893POPC   C3A25841  10.824  39.200   8.080
 1893POPC   C4A25842  10.570  39.173   7.716
 1893POPC   C1B25843  10.049  39.385   8.843
 1893POPC   C2B25844  10.018  39.209   8.431
 1893POPC   C3B25845  10.139  39.261   8.013
 1893POPC   C4B25846  10.123  39.350   7.591
 1894POPC   NC325847  38.124  15.876   9.797
 1894POPC   PO425848  37.516  16.112   9.465
 1894POPC   GL125849  37.566  16.149   9.035
 1894POPC   GL225850  37.840  16.406   9.048
 1894POPC   C1A25851  37.690  15.895   8.702
 1894POPC   D2A25852  37.541  15.969   8.305
 1894POPC   C3A25853  37.744  15.787   7.986
 1894POPC   C4A25854  37.513  15.801   7.621
 1894POPC   C1B25855  38.121  16.442   8.719
 1894POPC   C2B25856  37.990  16.207   8.406
 1894POPC   C3B25857  37.878  16.328   8.050
 1894POPC   C4B25858  37.856  16.185   7.684
 1895POPC   NC325859   0.648   2.503   9.911
 1895POPC   PO425860   0.222   2.981   9.609
 1895POPC   GL125861   0.327   2.750   9.229
 1895POPC   GL225862   0.156   2.428   9.270
 1895POPC   C1A25863   0.577   2.686   8.828
 1895POPC   D2A25864   0.619   2.873   8.410
 1895POPC   C3A25865   0.526   2.700   7.996
 1895POPC   C4A25866   0.741   2.932   7.676
 1895POPC   C1B25867   0.151   2.393   8.824
 1895POPC   C2B25868   0.100   2.683   8.492
 1895POPC   C3B25869   0.015   2.661   8.055
 1895POPC   C4B25870   0.056   2.475   7.657
 1896POPC   NC325871   0.137  29.502   9.637
 1896POPC   PO425872  44.586  29.973   9.492
 1896POPC   GL125873  44.642  30.085   9.112
 1896POPC   GL225874  44.944  30.311   9.130
 1896POPC   C1A25875  44.454  29.876   8.756
 1896POPC   D2A25876  44.224  29.727   8.396
 1896POPC   C3A25877  44.440  29.785   8.026
 1896POPC   C4A25878  44.579  29.649   7.609
 1896POPC   C1B25879  44.794  30.291   8.692
 1896POPC   C2B25880  44.779  30.029   8.331
 1896POPC   C3B25881  44.726  30.223   7.936
 1896POPC   C4B25882  44.771  30.117   7.501
 1897POPC   NC325883   0.096  43.991   9.695
 1897POPC   PO425884  44.436  43.788   9.510
 1897POPC   GL125885  44.558  44.088   9.232
 1897POPC   GL225886  44.905  44.070   9.216
 1897POPC   C1A25887  44.413  44.216   8.841
 1897POPC   D2A25888  44.506  44.021   8.453
 1897POPC   C3A25889  44.302  44.089   8.067
 1897POPC   C4A25890  44.373  43.985   7.639
 1897POPC   C1B25891  44.879  43.880   8.810
 1897POPC   C2B25892   0.000  43.853   8.375
 1897POPC   C3B25893  44.840  44.108   8.048
 1897POPC   C4B25894  44.825  44.234   7.654
 1898POPC   NC325895   9.955  31.096   9.491
 1898POPC   PO425896   9.498  31.645   9.459
 1898POPC   GL125897   9.681  31.507   9.097
 1898POPC   GL225898  10.053  31.393   9.088
 1898POPC   C1A25899   9.758  31.746   8.728
 1898POPC   D2A25900   9.796  31.609   8.299
 1898POPC   C3A25901   9.630  31.660   7.871
 1898POPC   C4A25902   9.235  31.613   7.649
 1898POPC   C1B25903   9.866  31.255   8.719
 1898POPC   C2B25904   9.929  31.114   8.377
 1898POPC   C3B25905   9.931  31.197   7.986
 1898POPC   C4B25906   9.964  31.356   7.630
 1899POPC   NC325907  20.772   7.037   9.389
 1899POPC   PO425908  20.315   6.546   9.410
 1899POPC   GL125909  20.559   6.652   9.085
 1899POPC   GL225910  20.360   6.962   9.069
 1899POPC   C1A25911  20.550   6.503   8.670
 1899POPC   D2A25912  20.341   6.299   8.302
 1899POPC   C3A25913  20.507   6.475   7.926
 1899POPC   C4A25914  20.847   6.628   7.701
 1899POPC   C1B25915  20.644   7.024   8.700
 1899POPC   C2B25916  20.607   6.845   8.266
 1899POPC   C3B25917  20.326   6.963   7.875
 1899POPC   C4B25918  20.337   7.023   7.403
 1900POPC   NC325919   4.757  32.494   9.387
 1900POPC   PO425920   5.206  32.030   9.453
 1900POPC   GL125921   5.143  32.193   9.052
 1900POPC   GL225922   5.162  32.490   9.060
 1900POPC   C1A25923   5.221  32.258   8.612
 1900POPC   D2A25924   5.123  31.992   8.277
 1900POPC   C3A25925   5.044  32.173   7.904
 1900POPC   C4A25926   5.323  32.430   7.675
 1900POPC   C1B25927   4.757  32.385   8.773
 1900POPC   C2B25928   4.751  32.335   8.350
 1900POPC   C3B25929   4.711  32.558   7.940
 1900POPC   C4B25930   4.510  32.611   7.538
 1901POPC   NC325931  19.589  19.187   9.596
 1901POPC   PO425932  18.861  19.119   9.534
 1901POPC   GL125933  19.062  19.143   9.153
 1901POPC   GL225934  19.348  19.378   9.164
 1901POPC   C1A25935  18.890  19.133   8.728
 1901POPC   D2A25936  18.630  18.944   8.459
 1901POPC   C3A25937  18.738  19.071   8.037
 1901POPC   C4A25938  18.915  18.993   7.631
 1901POPC   C1B25939  19.385  19.157   8.772
 1901POPC   C2B25940  19.260  19.317   8.382
 1901POPC   C3B25941  19.275  19.118   7.989
 1901POPC   C4B25942  19.446  18.851   7.677
 1902POPC   NC325943  15.464  14.374   9.593
 1902POPC   PO425944  14.806  14.486   9.701
 1902POPC   GL125945  15.038  14.530   9.250
 1902POPC   GL225946  15.345  14.385   9.092
 1902POPC   C1A25947  15.022  14.643   8.793
 1902POPC   D2A25948  14.818  14.559   8.371
 1902POPC   C3A25949  15.101  14.648   8.029
 1902POPC   C4A25950  15.255  14.343   7.751
 1902POPC   C1B25951  15.311  14.199   8.698
 1902POPC   C2B25952  15.307  14.192   8.249
 1902POPC   C3B25953  15.659  14.109   7.942
 1902POPC   C4B25954  15.607  14.075   7.462
 1903POPC   NC325955  34.805  14.333   9.507
 1903POPC   PO425956  34.218  14.609   9.411
 1903POPC   GL125957  34.474  14.350   9.124
 1903POPC   GL225958  34.727  14.592   9.086
 1903POPC   C1A25959  34.714  14.111   8.811
 1903POPC   D2A25960  34.886  14.082   8.391
 1903POPC   C3A25961  34.618  14.255   8.102
 1903POPC   C4A25962  34.337  14.586   7.940
 1903POPC   C1B25963  34.617  14.689   8.700
 1903POPC   C2B25964  34.929  14.854   8.446
 1903POPC   C3B25965  35.063  14.607   8.158
 1903POPC   C4B25966  34.838  14.612   7.802
 1904POPC   NC325967  40.459  22.782   9.679
 1904POPC   PO425968  40.896  23.226   9.544
 1904POPC   GL125969  40.603  23.147   9.196
 1904POPC   GL225970  40.604  22.832   9.035
 1904POPC   C1A25971  40.752  23.299   8.815
 1904POPC   D2A25972  40.699  23.335   8.371
 1904POPC   C3A25973  40.596  22.987   8.092
 1904POPC   C4A25974  40.552  23.124   7.646
 1904POPC   C1B25975  40.770  22.843   8.588
 1904POPC   C2B25976  41.055  22.783   8.227
 1904POPC   C3B25977  40.866  22.652   7.810
 1904POPC   C4B25978  40.394  22.652   7.699
 1905POPC   NC325979  10.204  12.595   9.479
 1905POPC   PO425980  10.511  11.972   9.527
 1905POPC   GL125981  10.566  12.020   9.148
 1905POPC   GL225982  10.452  12.308   9.142
 1905POPC   C1A25983  10.743  12.044   8.771
 1905POPC   D2A25984  10.821  11.896   8.394
 1905POPC   C3A25985  10.730  12.123   8.045
 1905POPC   C4A25986  10.629  11.930   7.636
 1905POPC   C1B25987  10.243  12.119   8.767
 1905POPC   C2B25988  10.080  12.125   8.352
 1905POPC   C3B25989  10.243  12.283   7.988
 1905POPC   C4B25990  10.296  12.333   7.577
 1906POPC   NC325991  35.192  34.266   9.628
 1906POPC   PO425992  35.185  33.597   9.578
 1906POPC   GL125993  35.205  33.925   9.250
 1906POPC   GL225994  35.506  34.149   9.217
 1906POPC   C1A25995  35.139  33.869   8.843
 1906POPC   D2A25996  35.490  33.836   8.595
 1906POPC   C3A25997  35.449  33.787   8.147
 1906POPC   C4A25998  35.609  33.605   7.777
 1906POPC   C1B25999  35.444  34.313   8.777
 1906POPC   C2B26000  35.142  34.145   8.415
 1906POPC   C3B26001  35.078  34.080   7.981
 1906POPC   C4B26002  35.317  33.990   7.596
 1907POPC   NC326003  23.598   6.038   9.429
 1907POPC   PO426004  23.869   5.418   9.431
 1907POPC   GL126005  23.820   5.683   9.085
 1907POPC   GL226006  23.497   5.583   9.051
 1907POPC   C1A26007  23.680   5.942   8.750
 1907POPC   D2A26008  23.786   6.083   8.387
 1907POPC   C3A26009  23.582   6.076   8.026
 1907POPC   C4A26010  23.907   5.790   7.886
 1907POPC   C1B26011  23.394   5.480   8.668
 1907POPC   C2B26012  23.424   5.700   8.309
 1907POPC   C3B26013  23.440   5.600   7.862
 1907POPC   C4B26014  23.427   5.506   7.449
 1908POPC   NC326015  39.482   5.730   9.456
 1908POPC   PO426016  39.009   6.270   9.449
 1908POPC   GL126017  39.135   5.952   9.169
 1908POPC   GL226018  39.468   6.130   9.119
 1908POPC   C1A26019  39.223   5.743   8.778
 1908POPC   D2A26020  39.462   5.804   8.398
 1908POPC   C3A26021  39.212   5.801   8.057
 1908POPC   C4A26022  39.180   5.792   7.633
 1908POPC   C1B26023  39.208   6.252   8.773
 1908POPC   C2B26024  39.021   6.154   8.387
 1908POPC   C3B26025  39.120   6.310   7.997
 1908POPC   C4B26026  38.993   6.305   7.602
 1909POPC   NC326027  38.758  12.697   9.479
 1909POPC   PO426028  38.098  12.966   9.301
 1909POPC   GL126029  38.452  12.964   9.052
 1909POPC   GL226030  38.488  12.596   9.040
 1909POPC   C1A26031  38.408  12.883   8.588
 1909POPC   D2A26032  38.208  12.629   8.235
 1909POPC   C3A26033  38.128  12.866   7.880
 1909POPC   C4A26034  38.379  13.250   7.848
 1909POPC   C1B26035  38.856  12.759   8.808
 1909POPC   C2B26036  38.870  12.838   8.364
 1909POPC   C3B26037  38.660  12.803   7.980
 1909POPC   C4B26038  38.550  12.548   7.650
 1910POPC   NC326039  18.143  41.332   9.691
 1910POPC   PO426040  17.883  41.732   9.220
 1910POPC   GL126041  18.136  41.593   8.947
 1910POPC   GL226042  18.281  41.339   9.158
 1910POPC   C1A26043  18.397  41.629   8.643
 1910POPC   D2A26044  18.322  41.502   8.249
 1910POPC   C3A26045  18.454  41.773   7.955
 1910POPC   C4A26046  18.346  41.808   7.571
 1910POPC   C1B26047  18.231  41.136   8.749
 1910POPC   C2B26048  18.060  41.067   8.357
 1910POPC   C3B26049  18.199  41.102   7.933
 1910POPC   C4B26050  18.124  41.377   7.617
 1911POPC   NC326051  40.165  18.285   9.594
 1911POPC   PO426052  40.840  18.199   9.564
 1911POPC   GL126053  40.572  18.244   9.214
 1911POPC   GL226054  40.890  18.176   9.036
 1911POPC   C1A26055  40.444  18.100   8.787
 1911POPC   D2A26056  40.727  18.191   8.460
 1911POPC   C3A26057  40.639  18.392   8.087
 1911POPC   C4A26058  40.790  18.413   7.645
 1911POPC   C1B26059  41.177  18.356   8.757
 1911POPC   C2B26060  41.221  18.169   8.367
 1911POPC   C3B26061  41.076  18.132   7.945
 1911POPC   C4B26062  41.169  18.096   7.463
 1912POPC   NC326063  26.180  17.108   9.485
 1912POPC   PO426064  25.643  16.742   9.343
 1912POPC   GL126065  25.938  16.598   9.049
 1912POPC   GL226066  26.287  16.727   9.136
 1912POPC   C1A26067  26.022  16.782   8.643
 1912POPC   D2A26068  25.879  17.048   8.303
 1912POPC   C3A26069  25.886  16.843   7.904
 1912POPC   C4A26070  26.102  16.537   7.617
 1912POPC   C1B26071  26.470  16.999   8.820
 1912POPC   C2B26072  26.654  16.961   8.422
 1912POPC   C3B26073  26.432  16.913   8.025
 1912POPC   C4B26074  26.361  16.981   7.579
 1913POPC   NC326075   8.373  32.293   9.468
 1913POPC   PO426076   7.628  32.189   9.538
 1913POPC   GL126077   7.999  32.120   9.176
 1913POPC   GL226078   8.110  32.489   9.101
 1913POPC   C1A26079   8.272  32.170   8.754
 1913POPC   D2A26080   8.164  32.190   8.320
 1913POPC   C3A26081   8.412  32.005   8.030
 1913POPC   C4A26082   8.237  31.922   7.663
 1913POPC   C1B26083   8.081  32.679   8.710
 1913POPC   C2B26084   8.290  32.688   8.328
 1913POPC   C3B26085   8.232  32.531   7.928
 1913POPC   C4B26086   8.086  32.817   7.633
 1914POPC   NC326087  13.752  17.911   9.552
 1914POPC   PO426088  13.466  17.306   9.745
 1914POPC   GL126089  13.357  17.460   9.263
 1914POPC   GL226090  13.409  17.811   9.195
 1914POPC   C1A26091  13.633  17.482   8.836
 1914POPC   D2A26092  13.868  17.564   8.440
 1914POPC   C3A26093  13.855  17.333   8.042
 1914POPC   C4A26094  13.800  17.593   7.693
 1914POPC   C1B26095  13.314  17.861   8.782
 1914POPC   C2B26096  13.306  17.543   8.442
 1914POPC   C3B26097  13.419  17.597   8.042
 1914POPC   C4B26098  13.312  17.810   7.683
 1915POPC   NC326099  31.939  26.168   9.455
 1915POPC   PO426100  31.321  26.189   9.660
 1915POPC   GL126101  31.496  26.315   9.257
 1915POPC   GL226102  31.574  25.956   9.185
 1915POPC   C1A26103  31.701  26.288   8.811
 1915POPC   D2A26104  31.545  26.070   8.427
 1915POPC   C3A26105  31.547  26.223   7.992
 1915POPC   C4A26106  31.427  25.912   7.688
 1915POPC   C1B26107  31.444  25.745   8.824
 1915POPC   C2B26108  31.146  25.712   8.494
 1915POPC   C3B26109  31.132  25.624   8.038
 1915POPC   C4B26110  30.945  25.735   7.624
 1916POPC   NC326111   4.511   9.831   9.676
 1916POPC   PO426112   4.037  10.194   9.274
 1916POPC   GL126113   4.275   9.793   9.125
 1916POPC   GL226114   4.602   9.714   9.189
 1916POPC   C1A26115   4.330   9.650   8.731
 1916POPC   D2A26116   4.461   9.856   8.368
 1916POPC   C3A26117   4.277   9.716   8.001
 1916POPC   C4A26118   4.359   9.968   7.666
 1916POPC   C1B26119   4.759   9.425   8.906
 1916POPC   C2B26120   4.704   9.416   8.472
 1916POPC   C3B26121   4.787   9.535   8.065
 1916POPC   C4B26122   4.679   9.587   7.658
 1917POPC   NC326123  19.439  30.007   9.395
 1917POPC   PO426124  18.792  30.198   9.302
 1917POPC   GL126125  18.809  29.801   9.064
 1917POPC   GL226126  19.171  29.819   9.025
 1917POPC   C1A26127  18.876  29.807   8.615
 1917POPC   D2A26128  18.960  30.117   8.345
 1917POPC   C3A26129  18.861  30.077   7.926
 1917POPC   C4A26130  18.744  30.229   7.521
 1917POPC   C1B26131  19.379  29.698   8.685
 1917POPC   C2B26132  19.320  29.761   8.289
 1917POPC   C3B26133  19.457  29.669   7.895
 1917POPC   C4B26134  19.469  29.898   7.521
 1918POPC   NC326135  17.051  14.254   9.698
 1918POPC   PO426136  16.535  14.177   9.377
 1918POPC   GL126137  16.842  14.407   9.140
 1918POPC   GL226138  17.139  14.210   9.183
 1918POPC   C1A26139  16.689  14.532   8.719
 1918POPC   D2A26140  16.353  14.399   8.428
 1918POPC   C3A26141  16.451  14.336   7.972
 1918POPC   C4A26142  16.499  14.111   7.551
 1918POPC   C1B26143  16.992  14.122   8.724
 1918POPC   C2B26144  16.871  14.295   8.279
 1918POPC   C3B26145  16.941  14.294   7.805
 1918POPC   C4B26146  16.972  13.978   7.437
 1919POPC   NC326147  27.537  15.258   9.573
 1919POPC   PO426148  28.026  14.929   9.183
 1919POPC   GL126149  27.712  15.281   9.081
 1919POPC   GL226150  27.360  15.347   9.114
 1919POPC   C1A26151  27.613  15.476   8.682
 1919POPC   D2A26152  27.826  15.444   8.290
 1919POPC   C3A26153  27.846  15.012   8.153
 1919POPC   C4A26154  27.759  14.890   7.739
 1919POPC   C1B26155  27.238  15.133   8.735
 1919POPC   C2B26156  27.370  15.099   8.314
 1919POPC   C3B26157  27.459  15.293   7.914
 1919POPC   C4B26158  27.375  15.106   7.497
 1920POPC   NC326159  29.677   2.279   9.452
 1920POPC   PO426160  30.074   1.795   9.334
 1920POPC   GL126161  29.750   1.840   9.013
 1920POPC   GL226162  29.468   2.050   9.057
 1920POPC   C1A26163  29.859   1.801   8.597
 1920POPC   D2A26164  30.154   1.899   8.267
 1920POPC   C3A26165  29.932   1.839   7.891
 1920POPC   C4A26166  29.680   1.819   7.475
 1920POPC   C1B26167  29.428   2.133   8.634
 1920POPC   C2B26168  29.588   2.035   8.232
 1920POPC   C3B26169  29.613   2.212   7.850
 1920POPC   C4B26170  29.458   2.573   7.740
 1921POPC   NC326171  14.937  22.376   9.402
 1921POPC   PO426172  15.427  21.980   9.598
 1921POPC   GL126173  15.349  22.144   9.181
 1921POPC   GL226174  15.459  22.472   9.111
 1921POPC   C1A26175  15.044  22.078   8.804
 1921POPC   D2A26176  14.858  22.050   8.373
 1921POPC   C3A26177  15.094  21.987   7.995
 1921POPC   C4A26178  15.050  22.301   7.693
 1921POPC   C1B26179  15.475  22.328   8.715
 1921POPC   C2B26180  15.292  22.335   8.329
 1921POPC   C3B26181  15.513  22.329   7.963
 1921POPC   C4B26182  15.547  22.166   7.585
 1922POPC   NC326183  36.984  30.611   9.438
 1922POPC   PO426184  36.937  31.122   9.786
 1922POPC   GL126185  36.969  31.061   9.206
 1922POPC   GL226186  36.784  30.767   8.990
 1922POPC   C1A26187  37.157  31.036   8.775
 1922POPC   D2A26188  37.142  31.076   8.337
 1922POPC   C3A26189  36.946  30.722   8.140
 1922POPC   C4A26190  36.797  30.731   7.747
 1922POPC   C1B26191  37.025  30.531   8.649
 1922POPC   C2B26192  37.199  30.269   8.282
 1922POPC   C3B26193  37.135  30.082   7.864
 1922POPC   C4B26194  36.936  30.329   7.489
 1923POPC   NC326195  31.008  44.308   9.725
 1923POPC   PO426196  31.568  44.697   9.494
 1923POPC   GL126197  31.662  44.803   9.121
 1923POPC   GL226198  31.321  44.802   9.002
 1923POPC   C1A26199  31.766  44.497   8.836
 1923POPC   D2A26200  31.600  44.502   8.482
 1923POPC   C3A26201  31.777  44.373   8.099
 1923POPC   C4A26202  31.594  44.499   7.732
 1923POPC   C1B26203  31.123  44.653   8.659
 1923POPC   C2B26204  31.186  44.911   8.333
 1923POPC   C3B26205  31.200  44.983   7.911
 1923POPC   C4B26206  31.094  44.590   7.773
 1924POPC   NC326207  42.851  26.837   9.477
 1924POPC   PO426208  43.497  26.780   9.589
 1924POPC   GL126209  43.273  26.729   9.192
 1924POPC   GL226210  43.141  27.079   9.123
 1924POPC   C1A26211  42.954  26.736   8.811
 1924POPC   D2A26212  42.719  26.568   8.473
 1924POPC   C3A26213  42.915  26.569   8.080
 1924POPC   C4A26214  42.901  26.837   7.731
 1924POPC   C1B26215  43.429  26.929   8.767
 1924POPC   C2B26216  43.259  26.908   8.375
 1924POPC   C3B26217  43.354  26.830   7.970
 1924POPC   C4B26218  43.539  26.848   7.566
 1925POPC   NC326219   6.110  19.553   9.546
 1925POPC   PO426220   5.590  20.007   9.569
 1925POPC   GL126221   5.737  19.910   9.146
 1925POPC   GL226222   5.794  19.559   9.118
 1925POPC   C1A26223   5.610  19.852   8.714
 1925POPC   D2A26224   5.458  19.926   8.303
 1925POPC   C3A26225   5.822  19.936   8.007
 1925POPC   C4A26226   5.617  19.964   7.599
 1925POPC   C1B26227   6.116  19.673   8.810
 1925POPC   C2B26228   6.159  19.566   8.363
 1925POPC   C3B26229   6.347  19.550   7.941
 1925POPC   C4B26230   6.079  19.678   7.635
 1926POPC   NC326231  11.353   8.576   9.473
 1926POPC   PO426232  11.745   9.182   9.469
 1926POPC   GL126233  11.411   9.053   9.199
 1926POPC   GL226234  11.225   9.290   9.074
 1926POPC   C1A26235  11.454   8.973   8.756
 1926POPC   D2A26236  11.290   8.808   8.377
 1926POPC   C3A26237  11.465   8.861   7.979
 1926POPC   C4A26238  11.317   9.162   7.701
 1926POPC   C1B26239  10.965   9.035   8.771
 1926POPC   C2B26240  10.788   8.959   8.355
 1926POPC   C3B26241  10.964   8.852   7.960
 1926POPC   C4B26242  11.169   8.715   7.532
 1927POPC   NC326243  25.416   6.433   9.634
 1927POPC   PO426244  24.862   6.753   9.639
 1927POPC   GL126245  25.042   6.807   9.210
 1927POPC   GL226246  25.388   6.678   9.174
 1927POPC   C1A26247  25.015   6.666   8.772
 1927POPC   D2A26248  25.053   6.887   8.375
 1927POPC   C3A26249  24.971   6.664   8.025
 1927POPC   C4A26250  25.128   6.738   7.612
 1927POPC   C1B26251  25.473   6.438   8.796
 1927POPC   C2B26252  25.323   6.444   8.368
 1927POPC   C3B26253  25.470   6.735   8.056
 1927POPC   C4B26254  25.647   6.652   7.673
 1928POPC   NC326255   0.322  36.137   9.300
 1928POPC   PO426256   0.669  35.513   9.413
 1928POPC   GL126257   0.531  35.731   9.021
 1928POPC   GL226258   0.175  35.756   9.016
 1928POPC   C1A26259   0.614  36.083   8.708
 1928POPC   D2A26260   0.823  36.282   8.359
 1928POPC   C3A26261   0.615  36.272   7.986
 1928POPC   C4A26262   0.641  35.931   7.699
 1928POPC   C1B26263   0.096  35.998   8.667
 1928POPC   C2B26264   0.217  36.051   8.269
 1928POPC   C3B26265   0.183  35.824   7.896
 1928POPC   C4B26266   0.204  36.222   7.695
 1929POPC   NC326267  42.032   9.614   9.373
 1929POPC   PO426268  41.360   9.843   9.533
 1929POPC   GL126269  41.546   9.734   9.154
 1929POPC   GL226270  41.810   9.928   9.060
 1929POPC   C1A26271  41.444   9.862   8.723
 1929POPC   D2A26272  41.571   9.639   8.368
 1929POPC   C3A26273  41.359   9.665   7.984
 1929POPC   C4A26274  41.310  10.010   7.748
 1929POPC   C1B26275  41.957   9.852   8.667
 1929POPC   C2B26276  41.982   9.927   8.221
 1929POPC   C3B26277  41.819   9.865   7.797
 1929POPC   C4B26278  41.865  10.011   7.351
 1930POPC   NC326279  20.091   2.750   9.424
 1930POPC   PO426280  19.394   2.656   9.333
 1930POPC   GL126281  19.688   2.834   9.094
 1930POPC   GL226282  19.854   2.534   9.030
 1930POPC   C1A26283  19.957   2.955   8.748
 1930POPC   D2A26284  19.826   3.039   8.304
 1930POPC   C3A26285  20.019   3.030   7.879
 1930POPC   C4A26286  20.230   2.864   7.495
 1930POPC   C1B26287  19.496   2.501   8.722
 1930POPC   C2B26288  19.388   2.396   8.316
 1930POPC   C3B26289  19.705   2.600   8.039
 1930POPC   C4B26290  19.785   2.652   7.600
 1931POPC   NC326291   9.257  34.686   9.447
 1931POPC   PO426292   8.569  34.423   9.494
 1931POPC   GL126293   8.855  34.584   9.184
 1931POPC   GL226294   8.785  34.914   9.243
 1931POPC   C1A26295   9.111  34.497   8.811
 1931POPC   D2A26296   9.090  34.283   8.416
 1931POPC   C3A26297   9.184  34.429   8.032
 1931POPC   C4A26298   8.844  34.262   7.789
 1931POPC   C1B26299   8.765  34.891   8.765
 1931POPC   C2B26300   8.986  34.802   8.355
 1931POPC   C3B26301   8.765  34.743   7.938
 1931POPC   C4B26302   8.654  34.679   7.501
 1932POPC   NC326303  20.311   0.841   9.412
 1932POPC   PO426304  20.723   0.199   9.415
 1932POPC   GL126305  20.675   0.501   9.144
 1932POPC   GL226306  20.613   0.255   8.892
 1932POPC   C1A26307  20.477   0.712   8.781
 1932POPC   D2A26308  20.803   0.546   8.497
 1932POPC   C3A26309  20.697   0.337   8.142
 1932POPC   C4A26310  20.911   0.302   7.762
 1932POPC   C1B26311  20.402   0.007   8.578
 1932POPC   C2B26312  20.478  44.827   8.174
 1932POPC   C3B26313  20.450   0.052   7.795
 1932POPC   C4B26314  20.200   0.273   7.471
 1933POPC   NC326315  38.896  43.306   9.518
 1933POPC   PO426316  39.417  42.889   9.573
 1933POPC   GL126317  39.195  43.001   9.211
 1933POPC   GL226318  39.036  42.736   9.065
 1933POPC   C1A26319  39.224  43.228   8.823
 1933POPC   D2A26320  39.408  43.222   8.420
 1933POPC   C3A26321  39.164  43.106   8.068
 1933POPC   C4A26322  39.156  43.355   7.735
 1933POPC   C1B26323  39.378  42.747   8.733
 1933POPC   C2B26324  39.400  42.713   8.303
 1933POPC   C3B26325  39.574  42.845   7.923
 1933POPC   C4B26326  39.759  42.703   7.538
 1934POPC   NC326327  27.099   2.181   9.452
 1934POPC   PO426328  26.616   1.888   9.248
 1934POPC   GL126329  26.952   2.021   8.997
 1934POPC   GL226330  27.121   1.706   9.095
 1934POPC   C1A26331  26.865   2.252   8.626
 1934POPC   D2A26332  26.508   2.304   8.354
 1934POPC   C3A26333  26.692   2.277   7.961
 1934POPC   C4A26334  27.123   2.351   7.856
 1934POPC   C1B26335  26.831   1.589   8.740
 1934POPC   C2B26336  26.665   1.727   8.367
 1934POPC   C3B26337  26.738   1.745   7.938
 1934POPC   C4B26338  26.555   1.959   7.607
 1935POPC   NC326339  32.259   7.260   9.347
 1935POPC   PO426340  32.446   6.597   9.454
 1935POPC   GL126341  32.370   6.520   9.045
 1935POPC   GL226342  32.276   6.847   9.021
 1935POPC   C1A26343  32.276   6.556   8.610
 1935POPC   D2A26344  32.478   6.368   8.272
 1935POPC   C3A26345  32.115   6.211   8.051
 1935POPC   C4A26346  31.874   6.358   7.668
 1935POPC   C1B26347  32.077   7.054   8.682
 1935POPC   C2B26348  31.939   6.870   8.305
 1935POPC   C3B26349  32.130   6.732   7.962
 1935POPC   C4B26350  32.121   7.011   7.629
 1936POPC   NC326351   7.374  14.659   9.530
 1936POPC   PO426352   7.205  15.289   9.486
 1936POPC   GL126353   7.431  15.211   9.105
 1936POPC   GL226354   7.559  14.902   9.088
 1936POPC   C1A26355   7.501  15.181   8.660
 1936POPC   D2A26356   7.289  15.201   8.278
 1936POPC   C3A26357   7.582  15.139   7.966
 1936POPC   C4A26358   7.729  15.191   7.558
 1936POPC   C1B26359   7.234  14.762   8.802
 1936POPC   C2B26360   7.239  14.641   8.358
 1936POPC   C3B26361   7.256  14.709   7.903
 1936POPC   C4B26362   7.612  14.716   7.649
 1937POPC   NC326363  29.308  28.025   9.508
 1937POPC   PO426364  28.948  28.356   9.991
 1937POPC   GL126365  29.136  28.517   9.497
 1937POPC   GL226366  28.866  28.558   9.243
 1937POPC   C1A26367  29.315  28.501   9.022
 1937POPC   D2A26368  29.328  28.234   8.644
 1937POPC   C3A26369  29.475  28.316   8.208
 1937POPC   C4A26370  29.368  28.510   7.801
 1937POPC   C1B26371  28.846  28.293   8.847
 1937POPC   C2B26372  28.838  28.059   8.459
 1937POPC   C3B26373  28.994  28.144   8.049
 1937POPC   C4B26374  28.834  28.382   7.728
 1938POPC   NC326375   1.785  36.453   9.488
 1938POPC   PO426376   2.401  36.404   9.206
 1938POPC   GL126377   2.015  36.362   9.020
 1938POPC   GL226378   1.896  36.023   9.029
 1938POPC   C1A26379   1.948  36.334   8.578
 1938POPC   D2A26380   1.812  36.367   8.160
 1938POPC   C3A26381   2.103  36.259   7.802
 1938POPC   C4A26382   2.038  36.317   7.352
 1938POPC   C1B26383   1.562  35.996   8.678
 1938POPC   C2B26384   1.486  35.899   8.255
 1938POPC   C3B26385   1.695  35.952   7.878
 1938POPC   C4B26386   1.611  36.052   7.457
 1939POPC   NC326387  17.186   8.476   9.477
 1939POPC   PO426388  17.840   8.231   9.451
 1939POPC   GL126389  17.778   7.932   9.141
 1939POPC   GL226390  17.421   7.918   9.144
 1939POPC   C1A26391  17.761   8.058   8.724
 1939POPC   D2A26392  17.762   8.396   8.455
 1939POPC   C3A26393  17.787   8.272   8.026
 1939POPC   C4A26394  17.649   8.619   7.781
 1939POPC   C1B26395  17.266   8.109   8.752
 1939POPC   C2B26396  17.422   8.025   8.326
 1939POPC   C3B26397  17.282   8.173   7.925
 1939POPC   C4B26398  17.303   7.952   7.561
 1940POPC   NC326399  32.691  32.080  10.094
 1940POPC   PO426400  32.201  32.327   9.652
 1940POPC   GL126401  32.099  32.285   9.201
 1940POPC   GL226402  32.063  31.952   9.026
 1940POPC   C1A26403  32.354  32.342   8.855
 1940POPC   D2A26404  32.235  32.384   8.434
 1940POPC   C3A26405  32.434  32.328   8.041
 1940POPC   C4A26406  32.054  32.468   7.882
 1940POPC   C1B26407  32.343  31.855   8.691
 1940POPC   C2B26408  32.279  31.879   8.266
 1940POPC   C3B26409  32.074  31.962   7.870
 1940POPC   C4B26410  32.289  32.197   7.521
 1941POPC   NC326411  15.818   0.687   9.491
 1941POPC   PO426412  15.177   0.497   9.574
 1941POPC   GL126413  15.043   0.412   9.143
 1941POPC   GL226414  14.769   0.240   9.164
 1941POPC   C1A26415  15.249   0.290   8.736
 1941POPC   D2A26416  15.549   0.347   8.414
 1941POPC   C3A26417  15.338   0.417   8.053
 1941POPC   C4A26418  15.182   0.325   7.698
 1941POPC   C1B26419  14.793   0.042   8.741
 1941POPC   C2B26420  15.014   0.053   8.299
 1941POPC   C3B26421  14.882  44.953   7.821
 1941POPC   C4B26422  14.861   0.169   7.352
 1942POPC   NC326423   8.010   1.444   9.519
 1942POPC   PO426424   8.466   0.971   9.417
 1942POPC   GL126425   8.300   1.237   9.134
 1942POPC   GL226426   7.991   1.091   9.145
 1942POPC   C1A26427   8.320   1.523   8.790
 1942POPC   D2A26428   8.477   1.446   8.407
 1942POPC   C3A26429   8.290   1.390   8.034
 1942POPC   C4A26430   8.441   1.414   7.620
 1942POPC   C1B26431   7.958   0.958   8.764
 1942POPC   C2B26432   8.091   1.036   8.371
 1942POPC   C3B26433   7.996   0.975   7.938
 1942POPC   C4B26434   8.396   0.848   7.819
 1943POPC   NC326435  38.183  43.187   9.452
 1943POPC   PO426436  38.714  42.857   9.442
 1943POPC   GL126437  38.530  43.083   9.114
 1943POPC   GL226438  38.773  43.245   9.034
 1943POPC   C1A26439  38.368  43.326   8.731
 1943POPC   D2A26440  38.481  43.573   8.329
 1943POPC   C3A26441  38.282  43.422   7.952
 1943POPC   C4A26442  38.270  43.214   7.566
 1943POPC   C1B26443  38.757  42.950   8.686
 1943POPC   C2B26444  38.511  43.021   8.331
 1943POPC   C3B26445  38.668  43.101   7.926
 1943POPC   C4B26446  38.787  43.096   7.492
 1944POPC   NC326447  34.005  29.845   9.584
 1944POPC   PO426448  33.874  30.373   9.283
 1944POPC   GL126449  33.905  29.986   9.063
 1944POPC   GL226450  34.139  29.695   9.100
 1944POPC   C1A26451  33.606  29.779   8.828
 1944POPC   D2A26452  33.554  29.577   8.433
 1944POPC   C3A26453  33.532  29.700   8.028
 1944POPC   C4A26454  33.484  29.664   7.580
 1944POPC   C1B26455  34.064  29.622   8.664
 1944POPC   C2B26456  33.891  29.978   8.421
 1944POPC   C3B26457  33.815  30.130   8.019
 1944POPC   C4B26458  33.950  29.822   7.729
 1945POPC   NC326459  33.230  19.001   9.466
 1945POPC   PO426460  32.593  19.317   9.366
 1945POPC   GL126461  32.918  19.208   9.109
 1945POPC   GL226462  32.945  18.862   9.035
 1945POPC   C1A26463  33.148  19.275   8.741
 1945POPC   D2A26464  33.287  19.219   8.330
 1945POPC   C3A26465  33.033  18.972   8.045
 1945POPC   C4A26466  32.892  19.108   7.636
 1945POPC   C1B26467  33.159  18.746   8.627
 1945POPC   C2B26468  33.514  18.756   8.322
 1945POPC   C3B26469  33.535  18.974   7.935
 1945POPC   C4B26470  33.369  19.010   7.518
 1946POPC   NC326471  17.821  29.403   9.284
 1946POPC   PO426472  18.494  29.263   9.495
 1946POPC   GL126473  18.305  29.093   9.116
 1946POPC   GL226474  18.625  29.219   9.002
 1946POPC   C1A26475  18.171  29.104   8.660
 1946POPC   D2A26476  18.210  29.359   8.257
 1946POPC   C3A26477  18.166  29.168   7.863
 1946POPC   C4A26478  18.170  28.748   7.790
 1946POPC   C1B26479  18.547  29.431   8.651
 1946POPC   C2B26480  18.695  29.142   8.335
 1946POPC   C3B26481  18.636  28.970   7.933
 1946POPC   C4B26482  18.662  29.320   7.642
 1947POPC   NC326483  37.076  33.716   9.460
 1947POPC   PO426484  36.658  34.256   9.254
 1947POPC   GL126485  36.876  33.981   9.056
 1947POPC   GL226486  37.169  34.133   9.123
 1947POPC   C1A26487  36.826  33.722   8.689
 1947POPC   D2A26488  36.906  33.879   8.272
 1947POPC   C3A26489  36.681  33.582   7.998
 1947POPC   C4A26490  36.460  33.287   7.763
 1947POPC   C1B26491  37.295  33.900   8.760
 1947POPC   C2B26492  37.297  33.580   8.438
 1947POPC   C3B26493  37.206  33.586   7.978
 1947POPC   C4B26494  36.952  33.945   7.756
 1948POPC   NC326495  15.374   8.365   9.845
 1948POPC   PO426496  15.968   8.136   9.503
 1948POPC   GL126497  16.153   8.093   9.126
 1948POPC   GL226498  15.835   8.132   8.995
 1948POPC   C1A26499  16.256   8.059   8.699
 1948POPC   D2A26500  16.026   8.296   8.408
 1948POPC   C3A26501  15.971   8.076   8.036
 1948POPC   C4A26502  16.067   8.176   7.647
 1948POPC   C1B26503  15.488   8.183   8.735
 1948POPC   C2B26504  15.554   8.107   8.350
 1948POPC   C3B26505  15.500   8.268   7.990
 1948POPC   C4B26506  15.583   8.058   7.620
 1949POPC   NC326507  12.344  21.635   9.386
 1949POPC   PO426508  11.907  21.175   9.464
 1949POPC   GL126509  12.071  21.330   9.095
 1949POPC   GL226510  12.455  21.216   9.117
 1949POPC   C1A26511  11.981  21.535   8.704
 1949POPC   D2A26512  11.759  21.452   8.307
 1949POPC   C3A26513  11.996  21.529   7.894
 1949POPC   C4A26514  12.028  21.222   7.541
 1949POPC   C1B26515  12.306  21.125   8.700
 1949POPC   C2B26516  12.268  21.338   8.311
 1949POPC   C3B26517  12.376  21.172   7.930
 1949POPC   C4B26518  12.505  21.036   7.504
 1950POPC   NC326519   8.093  19.194   9.429
 1950POPC   PO426520   7.445  19.056   9.586
 1950POPC   GL126521   7.440  18.908   9.189
 1950POPC   GL226522   7.098  18.884   9.194
 1950POPC   C1A26523   7.387  19.077   8.768
 1950POPC   D2A26524   7.108  19.202   8.426
 1950POPC   C3A26525   7.299  19.137   8.020
 1950POPC   C4A26526   7.569  19.350   7.735
 1950POPC   C1B26527   7.201  18.612   8.818
 1950POPC   C2B26528   7.275  18.722   8.386
 1950POPC   C3B26529   7.263  18.590   7.969
 1950POPC   C4B26530   7.523  18.798   7.704
 1951POPC   NC326531  25.535  39.992   9.560
 1951POPC   PO426532  24.949  40.255   9.555
 1951POPC   GL126533  25.242  40.145   9.178
 1951POPC   GL226534  25.341  39.788   9.113
 1951POPC   C1A26535  25.188  40.106   8.735
 1951POPC   D2A26536  25.326  40.237   8.333
 1951POPC   C3A26537  25.157  39.972   8.024
 1951POPC   C4A26538  24.868  39.979   7.644
 1951POPC   C1B26539  25.670  39.617   8.791
 1951POPC   C2B26540  25.543  39.753   8.385
 1951POPC   C3B26541  25.655  39.885   7.969
 1951POPC   C4B26542  25.379  39.837   7.601
 1952POPC   NC326543  21.564  37.137   9.493
 1952POPC   PO426544  21.522  36.485   9.420
 1952POPC   GL126545  21.296  36.622   9.053
 1952POPC   GL226546  21.150  36.916   9.178
 1952POPC   C1A26547  21.309  36.779   8.617
 1952POPC   D2A26548  21.219  36.626   8.188
 1952POPC   C3A26549  21.373  36.851   7.818
 1952POPC   C4A26550  21.543  36.888   7.405
 1952POPC   C1B26551  20.956  37.129   8.809
 1952POPC   C2B26552  21.196  37.288   8.443
 1952POPC   C3B26553  21.233  37.360   7.997
 1952POPC   C4B26554  21.168  37.321   7.568
 1953POPC   NC326555  10.739  13.278   9.687
 1953POPC   PO426556  10.677  12.647   9.540
 1953POPC   GL126557  10.557  12.819   9.169
 1953POPC   GL226558  10.521  13.158   9.241
 1953POPC   C1A26559  10.353  12.635   8.797
 1953POPC   D2A26560  10.529  12.401   8.444
 1953POPC   C3A26561  10.695  12.635   8.103
 1953POPC   C4A26562  10.503  12.777   7.762
 1953POPC   C1B26563  10.388  13.154   8.818
 1953POPC   C2B26564  10.427  12.964   8.421
 1953POPC   C3B26565  10.436  13.148   8.084
 1953POPC   C4B26566  10.154  13.173   7.758
 1954POPC   NC326567  23.139  28.384   9.396
 1954POPC   PO426568  22.397  28.259   9.513
 1954POPC   GL126569  22.665  28.433   9.197
 1954POPC   GL226570  22.838  28.113   9.097
 1954POPC   C1A26571  22.569  28.566   8.775
 1954POPC   D2A26572  22.867  28.725   8.470
 1954POPC   C3A26573  22.744  28.540   8.077
 1954POPC   C4A26574  22.922  28.646   7.694
 1954POPC   C1B26575  22.908  28.233   8.663
 1954POPC   C2B26576  23.068  28.152   8.276
 1954POPC   C3B26577  23.132  28.215   7.860
 1954POPC   C4B26578  23.112  27.977   7.498
 1955POPC   NC326579  22.762  31.618   9.482
 1955POPC   PO426580  22.965  32.306   9.550
 1955POPC   GL126581  22.848  32.071   9.202
 1955POPC   GL226582  22.764  32.385   9.048
 1955POPC   C1A26583  23.085  32.027   8.801
 1955POPC   D2A26584  22.973  32.410   8.569
 1955POPC   C3A26585  22.960  32.422   8.120
 1955POPC   C4A26586  23.051  32.236   7.743
 1955POPC   C1B26587  22.592  32.051   8.749
 1955POPC   C2B26588  22.774  31.934   8.370
 1955POPC   C3B26589  22.613  32.039   7.985
 1955POPC   C4B26590  22.665  31.934   7.600
 1956POPC   NC326591  10.574  29.985   9.737
 1956POPC   PO426592  10.611  29.409   9.374
 1956POPC   GL126593  10.484  29.762   9.182
 1956POPC   GL226594  10.756  29.981   9.253
 1956POPC   C1A26595  10.310  29.882   8.790
 1956POPC   D2A26596  10.054  29.755   8.457
 1956POPC   C3A26597  10.279  29.874   8.097
 1956POPC   C4A26598  10.201  29.883   7.691
 1956POPC   C1B26599  10.805  30.215   8.883
 1956POPC   C2B26600  10.674  30.095   8.486
 1956POPC   C3B26601  10.805  29.932   8.101
 1956POPC   C4B26602  10.636  30.114   7.759
 1957POPC   NC326603   4.202  37.851   9.447
 1957POPC   PO426604   4.430  37.252   9.515
 1957POPC   GL126605   4.425  37.481   9.133
 1957POPC   GL226606   4.087  37.585   9.030
 1957POPC   C1A26607   4.505  37.602   8.720
 1957POPC   D2A26608   4.640  37.531   8.325
 1957POPC   C3A26609   4.523  37.885   8.097
 1957POPC   C4A26610   4.495  37.742   7.707
 1957POPC   C1B26611   3.943  37.627   8.612
 1957POPC   C2B26612   4.095  37.567   8.201
 1957POPC   C3B26613   4.013  37.807   7.854
 1957POPC   C4B26614   3.929  37.747   7.427
 1958POPC   NC326615  14.237  11.488   9.469
 1958POPC   PO426616  14.835  11.241   9.561
 1958POPC   GL126617  14.677  11.194   9.147
 1958POPC   GL226618  14.324  11.312   9.020
 1958POPC   C1A26619  14.728  11.306   8.737
 1958POPC   D2A26620  14.438  11.536   8.482
 1958POPC   C3A26621  14.536  11.404   8.057
 1958POPC   C4A26622  14.433  11.245   7.606
 1958POPC   C1B26623  14.214  11.071   8.696
 1958POPC   C2B26624  14.125  11.178   8.320
 1958POPC   C3B26625  14.027  11.339   7.945
 1958POPC   C4B26626  13.991  11.004   7.680
 1959POPC   NC326627  40.538  34.124   9.394
 1959POPC   PO426628  40.962  33.532   9.395
 1959POPC   GL126629  40.747  33.551   9.043
 1959POPC   GL226630  40.846  33.899   9.020
 1959POPC   C1A26631  40.656  33.647   8.627
 1959POPC   D2A26632  40.374  33.598   8.327
 1959POPC   C3A26633  40.503  33.592   7.915
 1959POPC   C4A26634  40.630  33.890   7.574
 1959POPC   C1B26635  40.905  34.089   8.603
 1959POPC   C2B26636  40.770  33.931   8.186
 1959POPC   C3B26637  41.042  33.809   7.840
 1959POPC   C4B26638  41.183  34.015   7.431
 1960POPC   NC326639  15.682   2.402   9.549
 1960POPC   PO426640  16.122   1.829   9.423
 1960POPC   GL126641  15.909   1.851   9.067
 1960POPC   GL226642  15.635   2.030   9.211
 1960POPC   C1A26643  16.067   1.831   8.661
 1960POPC   D2A26644  16.245   2.023   8.308
 1960POPC   C3A26645  16.082   1.948   7.924
 1960POPC   C4A26646  16.118   2.329   7.710
 1960POPC   C1B26647  15.559   2.123   8.803
 1960POPC   C2B26648  15.728   2.132   8.414
 1960POPC   C3B26649  15.642   2.200   7.979
 1960POPC   C4B26650  15.716   2.041   7.559
 1961POPC   NC326651  40.242  20.949   9.859
 1961POPC   PO426652  39.680  20.511   9.566
 1961POPC   GL126653  39.926  20.536   9.170
 1961POPC   GL226654  40.141  20.832   9.210
 1961POPC   C1A26655  39.890  20.418   8.726
 1961POPC   D2A26656  39.704  20.645   8.394
 1961POPC   C3A26657  39.986  20.638   8.065
 1961POPC   C4A26658  39.983  20.369   7.766
 1961POPC   C1B26659  39.898  20.938   8.830
 1961POPC   C2B26660  39.796  21.157   8.456
 1961POPC   C3B26661  39.709  21.055   8.053
 1961POPC   C4B26662  39.842  21.046   7.652
 1962POPC   NC326663  11.233  16.251   9.556
 1962POPC   PO426664  11.506  15.717   9.142
 1962POPC   GL126665  11.169  15.996   9.118
 1962POPC   GL226666  11.391  16.275   9.085
 1962POPC   C1A26667  10.900  16.001   8.785
 1962POPC   D2A26668  11.076  16.066   8.351
 1962POPC   C3A26669  11.168  15.769   8.033
 1962POPC   C4A26670  11.297  15.892   7.639
 1962POPC   C1B26671  11.386  16.308   8.681
 1962POPC   C2B26672  11.661  16.320   8.337
 1962POPC   C3B26673  11.498  16.276   7.951
 1962POPC   C4B26674  11.724  16.176   7.590
 1963POPC   NC326675  17.497  24.713   9.617
 1963POPC   PO426676  17.982  24.257   9.288
 1963POPC   GL126677  17.548  24.262   9.143
 1963POPC   GL226678  17.507  24.589   9.134
 1963POPC   C1A26679  17.295  24.373   8.733
 1963POPC   D2A26680  17.541  24.324   8.347
 1963POPC   C3A26681  17.487  24.470   7.939
 1963POPC   C4A26682  17.314  24.132   7.700
 1963POPC   C1B26683  17.765  24.600   8.730
 1963POPC   C2B26684  17.909  24.675   8.283
 1963POPC   C3B26685  17.993  24.546   7.869
 1963POPC   C4B26686  18.097  24.666   7.445
 1964POPC   NC326687   3.487   5.341   9.528
 1964POPC   PO426688   3.198   4.738   9.493
 1964POPC   GL126689   3.432   4.890   9.136
 1964POPC   GL226690   3.358   5.245   9.060
 1964POPC   C1A26691   3.641   4.735   8.755
 1964POPC   D2A26692   3.759   4.852   8.319
 1964POPC   C3A26693   3.547   4.718   7.952
 1964POPC   C4A26694   3.404   4.869   7.531
 1964POPC   C1B26695   3.251   5.069   8.682
 1964POPC   C2B26696   3.197   4.891   8.297
 1964POPC   C3B26697   3.166   5.109   7.900
 1964POPC   C4B26698   3.075   5.292   7.473
 1965POPC   NC326699  30.845  18.888   9.571
 1965POPC   PO426700  30.852  19.558   9.371
 1965POPC   GL126701  30.666  19.169   9.167
 1965POPC   GL226702  30.866  18.841   9.078
 1965POPC   C1A26703  30.567  19.061   8.738
 1965POPC   D2A26704  30.819  19.042   8.370
 1965POPC   C3A26705  30.544  18.981   8.004
 1965POPC   C4A26706  30.439  19.300   7.723
 1965POPC   C1B26707  31.125  18.725   8.731
 1965POPC   C2B26708  31.041  18.513   8.367
 1965POPC   C3B26709  30.976  18.726   8.005
 1965POPC   C4B26710  30.933  18.943   7.629
 1966POPC   NC326711  28.613  14.011   9.586
 1966POPC   PO426712  29.141  13.357   9.504
 1966POPC   GL126713  29.177  13.488   9.109
 1966POPC   GL226714  28.949  13.669   8.969
 1966POPC   C1A26715  29.365  13.555   8.676
 1966POPC   D2A26716  29.614  13.452   8.312
 1966POPC   C3A26717  29.444  13.387   7.903
 1966POPC   C4A26718  29.725  13.663   7.721
 1966POPC   C1B26719  28.853  13.622   8.557
 1966POPC   C2B26720  29.091  13.563   8.238
 1966POPC   C3B26721  29.348  13.859   8.110
 1966POPC   C4B26722  29.277  13.869   7.695
 1967POPC   NC326723   0.078  28.719   9.372
 1967POPC   PO426724   0.534  29.168   9.592
 1967POPC   GL126725   0.456  29.290   9.219
 1967POPC   GL226726   0.795  29.291   9.091
 1967POPC   C1A26727   0.150  29.261   8.892
 1967POPC   D2A26728   0.274  29.270   8.465
 1967POPC   C3A26729   0.007  29.090   8.148
 1967POPC   C4A26730  44.983  29.382   7.801
 1967POPC   C1B26731   0.556  28.924   8.872
 1967POPC   C2B26732   0.458  28.789   8.437
 1967POPC   C3B26733   0.501  29.019   8.053
 1967POPC   C4B26734   0.674  28.991   7.660
 1968POPC   NC326735   4.029  30.093   9.349
 1968POPC   PO426736   3.345  30.154   9.430
 1968POPC   GL126737   3.340  29.949   9.050
 1968POPC   GL226738   3.641  29.740   9.085
 1968POPC   C1A26739   3.512  29.989   8.633
 1968POPC   D2A26740   3.831  30.044   8.380
 1968POPC   C3A26741   3.753  29.664   8.219
 1968POPC   C4A26742   3.694  29.807   7.827
 1968POPC   C1B26743   3.397  29.512   8.747
 1968POPC   C2B26744   3.236  29.660   8.320
 1968POPC   C3B26745   3.248  29.584   7.846
 1968POPC   C4B26746   3.470  29.615   7.417
 1969POPC   NC326747  17.211  34.140   9.922
 1969POPC   PO426748  16.892  33.568   9.636
 1969POPC   GL126749  16.732  33.683   9.223
 1969POPC   GL226750  16.594  34.036   9.238
 1969POPC   C1A26751  16.842  33.533   8.824
 1969POPC   D2A26752  16.839  33.751   8.444
 1969POPC   C3A26753  16.795  33.484   8.081
 1969POPC   C4A26754  16.834  33.647   7.667
 1969POPC   C1B26755  16.737  34.129   8.848
 1969POPC   C2B26756  16.693  34.267   8.454
 1969POPC   C3B26757  16.587  34.054   8.109
 1969POPC   C4B26758  16.750  34.190   7.779
 1970POPC   NC326759  18.905  16.760   9.719
 1970POPC   PO426760  19.378  17.113   9.401
 1970POPC   GL126761  19.217  16.971   9.025
 1970POPC   GL226762  18.911  16.928   9.199
 1970POPC   C1A26763  19.065  16.806   8.638
 1970POPC   D2A26764  19.253  16.549   8.330
 1970POPC   C3A26765  19.205  16.814   8.050
 1970POPC   C4A26766  19.137  16.783   7.657
 1970POPC   C1B26767  18.689  17.079   8.845
 1970POPC   C2B26768  18.563  16.904   8.436
 1970POPC   C3B26769  18.714  16.869   8.067
 1970POPC   C4B26770  18.618  16.800   7.679
 1971POPC   NC326771  42.076  31.553   9.519
 1971POPC   PO426772  42.460  30.995   9.519
 1971POPC   GL126773  42.455  31.212   9.125
 1971POPC   GL226774  42.117  31.199   9.156
 1971POPC   C1A26775  42.294  31.526   8.812
 1971POPC   D2A26776  42.253  31.842   8.500
 1971POPC   C3A26777  42.235  31.718   8.074
 1971POPC   C4A26778  42.477  31.783   7.727
 1971POPC   C1B26779  41.986  31.095   8.801
 1971POPC   C2B26780  42.230  31.117   8.493
 1971POPC   C3B26781  42.219  31.217   8.089
 1971POPC   C4B26782  42.276  31.267   7.645
 1972POPC   NC326783  34.622  16.644   9.485
 1972POPC   PO426784  35.114  17.105   9.495
 1972POPC   GL126785  34.847  16.946   9.124
 1972POPC   GL226786  34.801  16.541   9.029
 1972POPC   C1A26787  34.672  16.896   8.711
 1972POPC   D2A26788  34.413  16.892   8.386
 1972POPC   C3A26789  34.552  16.897   7.952
 1972POPC   C4A26790  34.981  16.928   7.779
 1972POPC   C1B26791  34.320  16.575   8.911
 1972POPC   C2B26792  34.068  16.523   8.565
 1972POPC   C3B26793  34.204  16.526   8.132
 1972POPC   C4B26794  34.364  16.427   7.724
 1973POPC   NC326795   9.272  30.456   9.422
 1973POPC   PO426796   8.805  30.962   9.513
 1973POPC   GL126797   8.918  30.770   9.140
 1973POPC   GL226798   8.868  30.420   9.097
 1973POPC   C1A26799   8.857  30.791   8.702
 1973POPC   D2A26800   8.944  31.081   8.369
 1973POPC   C3A26801   9.003  30.812   8.014
 1973POPC   C4A26802   8.772  30.571   7.699
 1973POPC   C1B26803   9.207  30.392   8.780
 1973POPC   C2B26804   9.288  30.565   8.391
 1973POPC   C3B26805   9.455  30.424   8.023
 1973POPC   C4B26806   9.304  30.568   7.688
 1974POPC   NC326807   3.100  40.985   9.299
 1974POPC   PO426808   3.686  40.621   9.553
 1974POPC   GL126809   3.607  40.871   9.214
 1974POPC   GL226810   3.530  40.578   9.071
 1974POPC   C1A26811   3.481  41.062   8.803
 1974POPC   D2A26812   3.242  40.972   8.429
 1974POPC   C3A26813   3.496  40.922   8.071
 1974POPC   C4A26814   3.364  40.804   7.665
 1974POPC   C1B26815   3.495  40.563   8.656
 1974POPC   C2B26816   3.670  40.479   8.280
 1974POPC   C3B26817   3.507  40.407   7.927
 1974POPC   C4B26818   3.641  40.358   7.601
 1975POPC   NC326819   5.441  37.865   9.407
 1975POPC   PO426820   6.096  37.565   9.504
 1975POPC   GL126821   5.888  37.774   9.195
 1975POPC   GL226822   5.690  37.466   9.154
 1975POPC   C1A26823   5.726  37.938   8.802
 1975POPC   D2A26824   5.937  38.086   8.435
 1975POPC   C3A26825   5.847  38.004   8.015
 1975POPC   C4A26826   6.229  37.993   7.776
 1975POPC   C1B26827   5.984  37.465   8.812
 1975POPC   C2B26828   6.147  37.292   8.442
 1975POPC   C3B26829   6.170  37.568   8.084
 1975POPC   C4B26830   5.924  37.597   7.710
 1976POPC   NC326831  42.819  19.120   9.474
 1976POPC   PO426832  43.374  19.384   9.760
 1976POPC   GL126833  43.279  19.249   9.255
 1976POPC   GL226834  43.384  18.937   9.097
 1976POPC   C1A26835  42.970  19.090   8.839
 1976POPC   D2A26836  43.053  18.903   8.386
 1976POPC   C3A26837  42.902  19.055   7.997
 1976POPC   C4A26838  43.067  19.040   7.546
 1976POPC   C1B26839  43.449  19.085   8.717
 1976POPC   C2B26840  43.498  19.205   8.320
 1976POPC   C3B26841  43.413  19.048   7.924
 1976POPC   C4B26842  43.512  19.324   7.594
 1977POPC   NC326843  16.345  35.481   9.619
 1977POPC   PO426844  16.970  35.233   9.592
 1977POPC   GL126845  16.622  35.183   9.280
 1977POPC   GL226846  16.536  35.515   9.168
 1977POPC   C1A26847  16.466  35.064   8.888
 1977POPC   D2A26848  16.624  35.177   8.481
 1977POPC   C3A26849  16.685  35.065   8.070
 1977POPC   C4A26850  16.848  35.286   7.715
 1977POPC   C1B26851  16.669  35.564   8.795
 1977POPC   C2B26852  16.721  35.799   8.445
 1977POPC   C3B26853  16.678  35.655   8.046
 1977POPC   C4B26854  16.677  35.788   7.644
 1978POPC   NC326855   1.590  15.693   9.385
 1978POPC   PO426856   0.994  15.902   9.583
 1978POPC   GL126857   1.162  15.836   9.138
 1978POPC   GL226858   1.435  16.100   9.101
 1978POPC   C1A26859   1.090  15.688   8.687
 1978POPC   D2A26860   1.221  15.901   8.276
 1978POPC   C3A26861   0.960  15.866   7.895
 1978POPC   C4A26862   0.592  15.668   7.730
 1978POPC   C1B26863   1.543  15.918   8.709
 1978POPC   C2B26864   1.702  16.084   8.346
 1978POPC   C3B26865   1.515  16.249   7.988
 1978POPC   C4B26866   1.242  16.225   7.604
 1979POPC   NC326867  41.129   5.345   9.516
 1979POPC   PO426868  41.279   4.718   9.218
 1979POPC   GL126869  41.311   5.156   9.058
 1979POPC   GL226870  41.582   5.335   9.228
 1979POPC   C1A26871  41.361   5.266   8.624
 1979POPC   D2A26872  41.518   5.001   8.285
 1979POPC   C3A26873  41.358   5.071   7.894
 1979POPC   C4A26874  41.393   4.919   7.474
 1979POPC   C1B26875  41.819   5.190   8.852
 1979POPC   C2B26876  41.825   5.371   8.434
 1979POPC   C3B26877  41.951   5.230   8.021
 1979POPC   C4B26878  41.775   5.210   7.637
 1980POPC   NC326879  26.186   6.897  10.072
 1980POPC   PO426880  25.849   6.476   9.776
 1980POPC   GL126881  25.848   6.418   9.280
 1980POPC   GL226882  26.198   6.313   9.225
 1980POPC   C1A26883  25.985   6.532   8.823
 1980POPC   D2A26884  25.833   6.516   8.394
 1980POPC   C3A26885  25.991   6.795   8.040
 1980POPC   C4A26886  26.020   6.973   7.594
 1980POPC   C1B26887  26.292   6.107   8.837
 1980POPC   C2B26888  26.205   6.125   8.410
 1980POPC   C3B26889  26.354   6.303   8.032
 1980POPC   C4B26890  26.195   6.501   7.679
 1981POPC   NC326891  35.904   1.792   9.450
 1981POPC   PO426892  36.447   2.140   9.581
 1981POPC   GL126893  36.289   2.026   9.178
 1981POPC   GL226894  36.209   2.358   9.067
 1981POPC   C1A26895  36.094   1.866   8.801
 1981POPC   D2A26896  35.850   2.005   8.454
 1981POPC   C3A26897  35.994   1.850   8.054
 1981POPC   C4A26898  36.079   2.000   7.653
 1981POPC   C1B26899  36.415   2.260   8.708
 1981POPC   C2B26900  36.544   2.324   8.323
 1981POPC   C3B26901  36.247   2.337   7.993
 1981POPC   C4B26902  36.480   2.430   7.655
 1982POPC   NC326903  30.757  11.959   9.456
 1982POPC   PO426904  30.517  12.604   9.312
 1982POPC   GL126905  30.793  12.203   9.004
 1982POPC   GL226906  30.643  11.767   9.014
 1982POPC   C1A26907  30.821  11.951   8.593
 1982POPC   D2A26908  30.523  11.717   8.348
 1982POPC   C3A26909  30.441  12.000   8.004
 1982POPC   C4A26910  30.594  12.222   7.590
 1982POPC   C1B26911  31.071  11.625   8.911
 1982POPC   C2B26912  31.166  11.600   8.466
 1982POPC   C3B26913  30.977  11.748   8.081
 1982POPC   C4B26914  30.775  11.757   7.685
 1983POPC   NC326915  16.470   0.704   9.415
 1983POPC   PO426916  15.877   0.204   9.526
 1983POPC   GL126917  15.905   0.310   9.124
 1983POPC   GL226918  15.551   0.352   9.137
 1983POPC   C1A26919  16.176   0.450   8.771
 1983POPC   D2A26920  16.263   0.537   8.322
 1983POPC   C3A26921  16.074   0.283   7.994
 1983POPC   C4A26922  16.206   0.175   7.573
 1983POPC   C1B26923  15.657   0.644   8.821
 1983POPC   C2B26924  15.831   0.862   8.467
 1983POPC   C3B26925  15.774   0.700   8.072
 1983POPC   C4B26926  15.694   0.461   7.675
 1984POPC   NC326927  23.679  22.814   9.455
 1984POPC   PO426928  24.064  23.368   9.384
 1984POPC   GL126929  23.694  23.206   9.108
 1984POPC   GL226930  23.720  22.825   8.959
 1984POPC   C1A26931  23.680  23.204   8.645
 1984POPC   D2A26932  23.793  22.919   8.331
 1984POPC   C3A26933  23.742  23.095   7.930
 1984POPC   C4A26934  23.347  23.166   7.707
 1984POPC   C1B26935  24.040  22.640   8.693
 1984POPC   C2B26936  23.993  22.393   8.344
 1984POPC   C3B26937  23.824  22.538   7.969
 1984POPC   C4B26938  24.053  22.758   7.670
 1985POPC   NC326939  12.580  19.284   9.388
 1985POPC   PO426940  13.151  18.883   9.470
 1985POPC   GL126941  13.056  18.801   9.047
 1985POPC   GL226942  12.710  18.904   9.037
 1985POPC   C1A26943  13.032  18.915   8.600
 1985POPC   D2A26944  13.231  18.769   8.241
 1985POPC   C3A26945  13.279  18.963   7.866
 1985POPC   C4A26946  13.158  18.766   7.523
 1985POPC   C1B26947  12.521  18.675   8.702
 1985POPC   C2B26948  12.451  18.848   8.287
 1985POPC   C3B26949  12.759  18.861   7.945
 1985POPC   C4B26950  12.672  18.918   7.531
 1986POPC   NC326951  33.225  25.952   9.447
 1986POPC   PO426952  32.767  26.389   9.650
 1986POPC   GL126953  32.873  26.236   9.214
 1986POPC   GL226954  33.137  26.395   9.051
 1986POPC   C1A26955  33.003  25.892   8.839
 1986POPC   D2A26956  32.872  25.639   8.476
 1986POPC   C3A26957  32.846  25.787   8.043
 1986POPC   C4A26958  33.113  25.996   7.762
 1986POPC   C1B26959  32.787  26.323   8.731
 1986POPC   C2B26960  32.618  26.118   8.383
 1986POPC   C3B26961  32.643  26.281   7.969
 1986POPC   C4B26962  32.884  26.432   7.610
 1987POPC   NC326963  11.722   9.662   9.380
 1987POPC   PO426964  12.191  10.049   9.071
 1987POPC   GL126965  11.756   9.893   8.929
 1987POPC   GL226966  11.689   9.491   8.910
 1987POPC   C1A26967  11.614   9.814   8.510
 1987POPC   D2A26968  11.858   9.675   8.159
 1987POPC   C3A26969  12.244   9.882   8.053
 1987POPC   C4A26970  12.116   9.961   7.667
 1987POPC   C1B26971  12.087   9.547   8.653
 1987POPC   C2B26972  12.288   9.400   8.261
 1987POPC   C3B26973  12.184   9.447   7.792
 1987POPC   C4B26974  12.109   9.558   7.362
 1988POPC   NC326975  11.733   7.928   9.541
 1988POPC   PO426976  11.126   8.152   9.470
 1988POPC   GL126977  11.263   8.241   9.086
 1988POPC   GL226978  11.609   8.262   9.150
 1988POPC   C1A26979  11.172   8.463   8.727
 1988POPC   D2A26980  10.945   8.459   8.332
 1988POPC   C3A26981  11.220   8.410   7.978
 1988POPC   C4A26982  11.257   8.209   7.570
 1988POPC   C1B26983  11.598   8.137   8.705
 1988POPC   C2B26984  11.609   8.287   8.293
 1988POPC   C3B26985  11.553   8.020   7.938
 1988POPC   C4B26986  11.684   7.925   7.526
 1989POPC   NC326987  17.331  35.531   9.501
 1989POPC   PO426988  17.934  35.195   9.398
 1989POPC   GL126989  17.565  35.171   9.100
 1989POPC   GL226990  17.195  35.157   9.137
 1989POPC   C1A26991  17.489  35.069   8.679
 1989POPC   D2A26992  17.558  35.435   8.414
 1989POPC   C3A26993  17.644  35.294   8.031
 1989POPC   C4A26994  17.957  35.445   7.746
 1989POPC   C1B26995  17.162  35.445   8.768
 1989POPC   C2B26996  17.053  35.398   8.318
 1989POPC   C3B26997  17.190  35.596   7.932
 1989POPC   C4B26998  17.463  35.483   7.578
 1990POPC   NC326999  12.566  23.815   9.382
 1990POPC   PO427000  13.259  23.855   9.506
 1990POPC   GL127001  13.028  23.863   9.163
 1990POPC   GL227002  12.967  23.508   9.217
 1990POPC   C1A27003  12.824  23.856   8.772
 1990POPC   D2A27004  12.927  23.931   8.366
 1990POPC   C3A27005  12.594  23.784   8.163
 1990POPC   C4A27006  12.672  23.933   7.802
 1990POPC   C1B27007  13.069  23.411   8.811
 1990POPC   C2B27008  12.875  23.395   8.374
 1990POPC   C3B27009  12.975  23.474   7.906
 1990POPC   C4B27010  13.092  23.419   7.437
 1991POPC   NC327011  38.242   4.577   9.347
 1991POPC   PO427012  38.338   5.164   9.694
 1991POPC   GL127013  38.530   5.029   9.255
 1991POPC   GL227014  38.876   5.088   9.081
 1991POPC   C1A27015  38.394   5.127   8.819
 1991POPC   D2A27016  38.353   5.026   8.383
 1991POPC   C3A27017  38.287   5.311   8.040
 1991POPC   C4A27018  38.368   5.324   7.587
 1991POPC   C1B27019  38.855   5.010   8.597
 1991POPC   C2B27020  38.797   5.006   8.116
 1991POPC   C3B27021  38.600   4.872   7.699
 1991POPC   C4B27022  38.694   5.000   7.263
 1992POPC   NC327023   4.914  25.956   9.705
 1992POPC   PO427024   5.008  26.575   9.508
 1992POPC   GL127025   4.878  26.253   9.184
 1992POPC   GL227026   4.918  25.865   9.172
 1992POPC   C1A27027   5.040  26.203   8.745
 1992POPC   D2A27028   4.913  26.388   8.314
 1992POPC   C3A27029   5.190  26.270   7.959
 1992POPC   C4A27030   5.552  26.214   7.671
 1992POPC   C1B27031   4.812  25.733   8.725
 1992POPC   C2B27032   4.988  25.869   8.319
 1992POPC   C3B27033   4.982  25.779   7.876
 1992POPC   C4B27034   4.934  25.632   7.402
 1993POPC   NC327035  18.821  32.381   9.495
 1993POPC   PO427036  19.493  32.172   9.449
 1993POPC   GL127037  19.213  32.293   9.108
 1993POPC   GL227038  18.946  32.046   9.123
 1993POPC   C1A27039  19.132  32.315   8.647
 1993POPC   D2A27040  19.229  32.175   8.221
 1993POPC   C3A27041  18.959  32.329   7.913
 1993POPC   C4A27042  19.306  32.571   7.789
 1993POPC   C1B27043  19.266  31.837   8.806
 1993POPC   C2B27044  19.371  31.672   8.365
 1993POPC   C3B27045  19.331  31.759   7.941
 1993POPC   C4B27046  19.122  31.990   7.572
 1994POPC   NC327047  15.611  10.724   9.559
 1994POPC   PO427048  16.119  10.182   9.605
 1994POPC   GL127049  15.988  10.521   9.263
 1994POPC   GL227050  16.189  10.856   9.300
 1994POPC   C1A27051  15.798  10.498   8.835
 1994POPC   D2A27052  16.015  10.251   8.507
 1994POPC   C3A27053  16.206  10.403   8.092
 1994POPC   C4A27054  16.034  10.427   7.686
 1994POPC   C1B27055  16.172  10.838   8.856
 1994POPC   C2B27056  16.037  10.786   8.433
 1994POPC   C3B27057  15.840  10.766   8.038
 1994POPC   C4B27058  15.768  10.874   7.644
 1995POPC   NC327059  25.993   5.042   9.638
 1995POPC   PO427060  26.641   5.091   9.542
 1995POPC   GL127061  26.288   5.024   9.197
 1995POPC   GL227062  25.900   5.059   9.147
 1995POPC   C1A27063  26.183   4.809   8.791
 1995POPC   D2A27064  26.006   4.965   8.392
 1995POPC   C3A27065  26.202   5.198   8.068
 1995POPC   C4A27066  26.150   5.086   7.665
 1995POPC   C1B27067  25.658   4.913   8.786
 1995POPC   C2B27068  25.524   4.796   8.360
 1995POPC   C3B27069  25.740   4.841   7.925
 1995POPC   C4B27070  25.766   4.846   7.433
 1996POPC   NC327071  16.023  18.495   9.409
 1996POPC   PO427072  15.588  17.867   9.477
 1996POPC   GL127073  15.837  18.062   9.131
 1996POPC   GL227074  15.739  18.363   9.019
 1996POPC   C1A27075  16.112  18.142   8.750
 1996POPC   D2A27076  15.992  18.083   8.309
 1996POPC   C3A27077  16.101  18.394   8.007
 1996POPC   C4A27078  16.216  18.323   7.578
 1996POPC   C1B27079  15.574  18.187   8.683
 1996POPC   C2B27080  15.583  18.423   8.325
 1996POPC   C3B27081  15.630  18.790   8.121
 1996POPC   C4B27082  15.715  18.592   7.741
 1997POPC   NC327083  20.210   3.424   9.644
 1997POPC   PO427084  19.722   3.023   9.578
 1997POPC   GL127085  19.928   3.271   9.241
 1997POPC   GL227086  20.143   3.627   9.201
 1997POPC   C1A27087  19.785   3.434   8.861
 1997POPC   D2A27088  19.700   3.617   8.464
 1997POPC   C3A27089  19.643   3.448   8.072
 1997POPC   C4A27090  19.454   3.692   7.789
 1997POPC   C1B27091  20.306   3.349   8.920
 1997POPC   C2B27092  20.173   3.370   8.524
 1997POPC   C3B27093  20.163   3.556   8.148
 1997POPC   C4B27094  20.030   3.528   7.723
 1998POPC   NC327095  11.970   6.256   9.638
 1998POPC   PO427096  11.912   5.551   9.626
 1998POPC   GL127097  11.973   5.750   9.210
 1998POPC   GL227098  12.085   6.058   9.184
 1998POPC   C1A27099  11.776   5.874   8.795
 1998POPC   D2A27100  11.971   6.047   8.416
 1998POPC   C3A27101  12.001   5.883   8.016
 1998POPC   C4A27102  11.903   6.216   7.755
 1998POPC   C1B27103  12.289   5.880   8.819
 1998POPC   C2B27104  12.475   6.026   8.441
 1998POPC   C3B27105  12.541   5.842   8.036
 1998POPC   C4B27106  12.679   5.523   7.752
 1999POPC   NC327107  26.742  15.859   9.487
 1999POPC   PO427108  27.194  16.290   9.339
 1999POPC   GL127109  27.033  16.132   8.964
 1999POPC   GL227110  26.739  15.919   8.977
 1999POPC   C1A27111  26.974  15.985   8.523
 1999POPC   D2A27112  26.582  15.807   8.406
 1999POPC   C3A27113  26.450  16.037   8.045
 1999POPC   C4A27114  26.634  15.943   7.647
 1999POPC   C1B27115  27.036  15.604   8.832
 1999POPC   C2B27116  27.020  15.465   8.402
 1999POPC   C3B27117  26.962  15.672   8.004
 1999POPC   C4B27118  27.184  15.605   7.598
 2000POPC   NC327119  13.562  18.514  10.050
 2000POPC   PO427120  13.979  18.324   9.520
 2000POPC   GL127121  13.756  18.201   9.141
 2000POPC   GL227122  13.669  18.467   8.972
 2000POPC   C1A27123  13.803  18.035   8.722
 2000POPC   D2A27124  13.571  17.983   8.354
 2000POPC   C3A27125  13.763  18.009   7.975
 2000POPC   C4A27126  13.693  18.133   7.556
 2000POPC   C1B27127  13.492  18.531   8.632
 2000POPC   C2B27128  13.663  18.473   8.270
 2000POPC   C3B27129  13.473  18.453   7.898
 2000POPC   C4B27130  13.649  18.643   7.566
 2001POPC   NC327131  34.865  23.918   9.460
 2001POPC   PO427132  35.497  23.643   9.539
 2001POPC   GL127133  35.555  23.769   9.101
 2001POPC   GL227134  35.228  23.924   9.083
 2001POPC   C1A27135  35.428  23.712   8.650
 2001POPC   D2A27136  35.279  23.936   8.294
 2001POPC   C3A27137  35.432  23.784   7.896
 2001POPC   C4A27138  35.685  23.527   7.637
 2001POPC   C1B27139  35.074  23.495   8.906
 2001POPC   C2B27140  35.058  23.355   8.452
 2001POPC   C3B27141  35.001  23.508   8.003
 2001POPC   C4B27142  35.149  23.473   7.555
 2002POPC   NC327143  31.083   0.728   9.451
 2002POPC   PO427144  30.434   0.580   9.483
 2002POPC   GL127145  30.591   0.377   9.111
 2002POPC   GL227146  30.973   0.418   9.063
 2002POPC   C1A27147  30.632   0.557   8.676
 2002POPC   D2A27148  30.609   0.730   8.246
 2002POPC   C3A27149  30.422   0.431   7.979
 2002POPC   C4A27150  30.316   0.246   7.573
 2002POPC   C1B27151  31.096   0.334   8.621
 2002POPC   C2B27152  30.923   0.330   8.180
 2002POPC   C3B27153  30.873   0.415   7.744
 2002POPC   C4B27154  31.130   0.258   7.425
 2003POPC   NC327155  30.123  20.954   9.553
 2003POPC   PO427156  29.499  20.701   9.435
 2003POPC   GL127157  29.830  20.503   9.167
 2003POPC   GL227158  30.191  20.563   9.187
 2003POPC   C1A27159  29.880  20.443   8.734
 2003POPC   D2A27160  29.880  20.644   8.341
 2003POPC   C3A27161  29.730  20.613   7.922
 2003POPC   C4A27162  29.793  21.017   7.765
 2003POPC   C1B27163  30.425  20.704   8.802
 2003POPC   C2B27164  30.308  20.887   8.415
 2003POPC   C3B27165  30.229  20.845   7.993
 2003POPC   C4B27166  30.221  20.452   7.793
 2004POPC   NC327167   6.873  30.384   9.523
 2004POPC   PO427168   6.402  30.884   9.446
 2004POPC   GL127169   6.508  30.758   9.084
 2004POPC   GL227170   6.680  30.444   9.068
 2004POPC   C1A27171   6.612  30.789   8.683
 2004POPC   D2A27172   6.665  31.014   8.329
 2004POPC   C3A27173   6.469  30.866   7.969
 2004POPC   C4A27174   6.408  30.851   7.541
 2004POPC   C1B27175   6.881  30.332   8.681
 2004POPC   C2B27176   6.817  30.503   8.282
 2004POPC   C3B27177   7.067  30.464   7.916
 2004POPC   C4B27178   6.818  30.544   7.587
 2005POPC   NC327179  10.907  40.514   9.423
 2005POPC   PO427180  10.331  41.004   9.420
 2005POPC   GL127181  10.481  40.681   9.124
 2005POPC   GL227182  10.732  40.467   8.946
 2005POPC   C1A27183  10.378  40.782   8.702
 2005POPC   D2A27184  10.624  40.693   8.337
 2005POPC   C3A27185  10.419  40.612   7.956
 2005POPC   C4A27186  10.358  40.859   7.627
 2005POPC   C1B27187  10.896  40.874   8.756
 2005POPC   C2B27188  11.053  41.045   8.327
 2005POPC   C3B27189  10.817  41.018   7.938
 2005POPC   C4B27190  10.849  40.628   7.689
 2006POPC   NC327191   5.316   2.488   9.361
 2006POPC   PO427192   4.963   2.992   9.463
 2006POPC   GL127193   4.887   2.683   9.128
 2006POPC   GL227194   5.125   2.831   8.997
 2006POPC   C1A27195   4.974   2.363   8.784
 2006POPC   D2A27196   4.887   2.457   8.345
 2006POPC   C3A27197   4.990   2.402   7.919
 2006POPC   C4A27198   4.836   2.640   7.573
 2006POPC   C1B27199   5.262   2.722   8.609
 2006POPC   C2B27200   5.162   2.916   8.263
 2006POPC   C3B27201   5.199   2.864   7.884
 2006POPC   C4B27202   5.495   2.738   7.677
 2007POPC   NC327203   3.708  10.337   9.667
 2007POPC   PO427204   3.306  10.741   9.373
 2007POPC   GL127205   3.510  10.424   9.165
 2007POPC   GL227206   3.782  10.622   9.199
 2007POPC   C1A27207   3.541  10.236   8.744
 2007POPC   D2A27208   3.706  10.370   8.356
 2007POPC   C3A27209   3.486  10.337   7.946
 2007POPC   C4A27210   3.706  10.359   7.549
 2007POPC   C1B27211   3.919  10.632   8.779
 2007POPC   C2B27212   4.065  10.768   8.386
 2007POPC   C3B27213   3.910  10.650   7.989
 2007POPC   C4B27214   3.552  10.829   7.798
 2008POPC   NC327215  25.288  24.861   9.248
 2008POPC   PO427216  25.232  24.337   9.652
 2008POPC   GL127217  25.414  24.362   9.256
 2008POPC   GL227218  25.088  24.342   9.151
 2008POPC   C1A27219  25.519  24.462   8.814
 2008POPC   D2A27220  25.607  24.278   8.445
 2008POPC   C3A27221  25.556  24.526   8.105
 2008POPC   C4A27222  25.705  24.464   7.735
 2008POPC   C1B27223  24.976  24.543   8.776
 2008POPC   C2B27224  25.103  24.434   8.383
 2008POPC   C3B27225  25.076  24.432   7.962
 2008POPC   C4B27226  25.276  24.707   7.676
 2009POPC   NC327227   8.833   0.667   9.456
 2009POPC   PO427228   9.301   0.307   9.716
 2009POPC   GL127229   9.333   0.393   9.242
 2009POPC   GL227230   9.139   0.605   9.081
 2009POPC   C1A27231   9.201   0.208   8.788
 2009POPC   D2A27232   8.848   0.104   8.526
 2009POPC   C3A27233   8.938   0.187   8.104
 2009POPC   C4A27234   9.147   0.059   7.745
 2009POPC   C1B27235   8.815   0.581   8.780
 2009POPC   C2B27236   8.966   0.620   8.389
 2009POPC   C3B27237   8.872   0.688   7.987
 2009POPC   C4B27238   9.024   0.542   7.643
 2010POPC   NC327239   6.999  39.148   9.598
 2010POPC   PO427240   7.593  39.175   9.759
 2010POPC   GL127241   7.588  39.281   9.294
 2010POPC   GL227242   7.278  39.163   9.154
 2010POPC   C1A27243   7.630  39.412   8.833
 2010POPC   D2A27244   7.421  39.536   8.419
 2010POPC   C3A27245   7.551  39.358   8.015
 2010POPC   C4A27246   7.727  39.267   7.582
 2010POPC   C1B27247   7.160  39.226   8.733
 2010POPC   C2B27248   7.300  39.028   8.336
 2010POPC   C3B27249   7.222  38.975   7.893
 2010POPC   C4B27250   6.917  38.822   7.633
 2011POPC   NC327251   5.716  40.430   9.455
 2011POPC   PO427252   6.075  41.000   9.449
 2011POPC   GL127253   5.797  40.911   9.115
 2011POPC   GL227254   5.854  40.590   9.007
 2011POPC   C1A27255   5.893  40.956   8.665
 2011POPC   D2A27256   6.021  40.727   8.329
 2011POPC   C3A27257   6.167  40.928   7.965
 2011POPC   C4A27258   5.966  40.993   7.575
 2011POPC   C1B27259   5.751  40.309   8.694
 2011POPC   C2B27260   5.946  40.213   8.304
 2011POPC   C3B27261   6.047  40.425   7.906
 2011POPC   C4B27262   5.867  40.512   7.485
 2012POPC   NC327263   4.356  24.460   9.531
 2012POPC   PO427264   3.983  25.006   9.374
 2012POPC   GL127265   4.158  24.660   9.117
 2012POPC   GL227266   4.536  24.588   9.089
 2012POPC   C1A27267   4.212  24.440   8.730
 2012POPC   D2A27268   4.357  24.640   8.360
 2012POPC   C3A27269   4.231  24.413   8.022
 2012POPC   C4A27270   3.908  24.483   7.756
 2012POPC   C1B27271   4.754  24.647   8.711
 2012POPC   C2B27272   4.831  24.431   8.303
 2012POPC   C3B27273   4.703  24.469   7.846
 2012POPC   C4B27274   4.772  24.554   7.401
 2013POPC   NC327275  38.360   3.035   9.621
 2013POPC   PO427276  38.326   2.438   9.507
 2013POPC   GL127277  38.399   2.726   9.187
 2013POPC   GL227278  38.744   2.890   9.255
 2013POPC   C1A27279  38.306   2.591   8.769
 2013POPC   D2A27280  38.147   2.746   8.390
 2013POPC   C3A27281  38.321   2.633   8.015
 2013POPC   C4A27282  38.148   2.646   7.624
 2013POPC   C1B27283  38.805   2.719   8.842
 2013POPC   C2B27284  38.672   2.740   8.424
 2013POPC   C3B27285  38.822   2.539   8.056
 2013POPC   C4B27286  38.654   2.520   7.622
 2014POPC   NC327287  19.392  30.912   9.526
 2014POPC   PO427288  18.685  31.039   9.664
 2014POPC   GL127289  18.938  30.957   9.283
 2014POPC   GL227290  19.084  30.605   9.249
 2014POPC   C1A27291  19.110  30.918   8.860
 2014POPC   D2A27292  18.930  30.601   8.558
 2014POPC   C3A27293  19.028  30.575   8.117
 2014POPC   C4A27294  19.253  30.821   7.817
 2014POPC   C1B27295  19.243  30.351   8.872
 2014POPC   C2B27296  19.400  30.326   8.449
 2014POPC   C3B27297  19.405  30.182   8.032
 2014POPC   C4B27298  19.254  30.330   7.678
 2015POPC   NC327299  42.464  36.962   9.592
 2015POPC   PO427300  42.080  36.563   9.197
 2015POPC   GL127301  42.453  36.719   9.075
 2015POPC   GL227302  42.422  37.066   9.102
 2015POPC   C1A27303  42.575  36.848   8.664
 2015POPC   D2A27304  42.242  36.726   8.391
 2015POPC   C3A27305  42.349  36.756   7.978
 2015POPC   C4A27306  42.106  36.653   7.644
 2015POPC   C1B27307  42.141  37.117   8.760
 2015POPC   C2B27308  42.318  37.228   8.366
 2015POPC   C3B27309  42.087  37.213   8.029
 2015POPC   C4B27310  42.218  37.172   7.659
 2016POPC   NC327311  15.551  25.302   9.512
 2016POPC   PO427312  16.269  25.363   9.492
 2016POPC   GL127313  16.020  25.333   9.119
 2016POPC   GL227314  15.756  25.571   9.120
 2016POPC   C1A27315  16.173  25.110   8.764
 2016POPC   D2A27316  16.001  24.889   8.405
 2016POPC   C3A27317  15.964  25.157   8.055
 2016POPC   C4A27318  15.906  25.112   7.629
 2016POPC   C1B27319  15.879  25.647   8.689
 2016POPC   C2B27320  15.641  25.573   8.300
 2016POPC   C3B27321  15.620  25.502   7.847
 2016POPC   C4B27322  15.734  25.534   7.397
 2017POPC   NC327323  11.029   2.212   9.393
 2017POPC   PO427324  11.500   1.907   9.617
 2017POPC   GL127325  11.433   1.972   9.163
 2017POPC   GL227326  11.694   2.193   9.085
 2017POPC   C1A27327  11.107   1.978   8.801
 2017POPC   D2A27328  10.829   2.037   8.440
 2017POPC   C3A27329  11.025   2.165   8.052
 2017POPC   C4A27330  11.069   2.032   7.647
 2017POPC   C1B27331  11.605   2.050   8.675
 2017POPC   C2B27332  11.360   1.854   8.367
 2017POPC   C3B27333  11.442   1.819   7.949
 2017POPC   C4B27334  11.684   2.121   7.739
 2018POPC   NC327335   3.846  14.023   9.355
 2018POPC   PO427336   3.333  13.654   9.529
 2018POPC   GL127337   3.495  13.453   9.131
 2018POPC   GL227338   3.726  13.691   9.003
 2018POPC   C1A27339   3.513  13.375   8.685
 2018POPC   D2A27340   3.653  13.665   8.427
 2018POPC   C3A27341   3.560  13.476   8.092
 2018POPC   C4A27342   3.288  13.343   7.793
 2018POPC   C1B27343   3.691  14.061   8.749
 2018POPC   C2B27344   3.777  14.229   8.360
 2018POPC   C3B27345   3.775  13.953   8.002
 2018POPC   C4B27346   3.768  13.655   7.682
 2019POPC   NC327347  39.524  28.406   9.539
 2019POPC   PO427348  38.828  28.352   9.519
 2019POPC   GL127349  39.165  28.360   9.182
 2019POPC   GL227350  39.414  28.697   9.151
 2019POPC   C1A27351  39.127  28.137   8.786
 2019POPC   D2A27352  38.993  28.325   8.404
 2019POPC   C3A27353  38.962  28.136   7.992
 2019POPC   C4A27354  39.245  28.189   7.660
 2019POPC   C1B27355  39.222  28.653   8.763
 2019POPC   C2B27356  39.365  28.683   8.368
 2019POPC   C3B27357  39.139  28.610   8.000
 2019POPC   C4B27358  39.195  28.721   7.614
 2020POPC   NC327359  36.860  41.771   9.512
 2020POPC   PO427360  36.565  41.195   9.478
 2020POPC   GL127361  36.879  41.336   9.189
 2020POPC   GL227362  36.937  41.671   9.040
 2020POPC   C1A27363  37.065  41.264   8.798
 2020POPC   D2A27364  36.985  41.430   8.402
 2020POPC   C3A27365  37.196  41.197   8.088
 2020POPC   C4A27366  36.904  41.232   7.816
 2020POPC   C1B27367  37.227  41.771   8.721
 2020POPC   C2B27368  37.322  41.791   8.292
 2020POPC   C3B27369  37.142  41.669   7.893
 2020POPC   C4B27370  36.722  41.790   7.712
 2021POPC   NC327371  20.282  19.037   9.341
 2021POPC   PO427372  19.734  18.720   9.633
 2021POPC   GL127373  19.735  18.947   9.185
 2021POPC   GL227374  19.866  19.296   9.178
 2021POPC   C1A27375  19.862  19.000   8.741
 2021POPC   D2A27376  19.613  18.924   8.360
 2021POPC   C3A27377  19.816  19.056   7.989
 2021POPC   C4A27378  19.965  18.750   7.726
 2021POPC   C1B27379  19.748  19.501   8.803
 2021POPC   C2B27380  19.792  19.405   8.374
 2021POPC   C3B27381  19.591  19.520   7.953
 2021POPC   C4B27382  19.727  19.613   7.506
 2022POPC   NC327383  18.645  36.550   9.808
 2022POPC   PO427384  18.918  37.055   9.453
 2022POPC   GL127385  19.008  36.946   9.082
 2022POPC   GL227386  19.129  36.628   9.112
 2022POPC   C1A27387  19.164  37.152   8.723
 2022POPC   D2A27388  18.948  37.092   8.370
 2022POPC   C3A27389  19.109  37.253   8.030
 2022POPC   C4A27390  19.052  37.054   7.653
 2022POPC   C1B27391  18.882  36.655   8.714
 2022POPC   C2B27392  19.052  36.568   8.366
 2022POPC   C3B27393  18.933  36.711   8.003
 2022POPC   C4B27394  19.117  36.545   7.652
 2023POPC   NC327395  44.548  30.437   9.518
 2023POPC   PO427396   0.165  30.739   9.366
 2023POPC   GL127397  44.836  30.848   9.102
 2023POPC   GL227398  44.536  30.611   9.051
 2023POPC   C1A27399  44.853  30.804   8.675
 2023POPC   D2A27400  44.691  30.624   8.294
 2023POPC   C3A27401  44.765  30.800   7.883
 2023POPC   C4A27402  44.530  30.563   7.604
 2023POPC   C1B27403  44.355  30.945   8.839
 2023POPC   C2B27404  44.431  31.079   8.423
 2023POPC   C3B27405  44.302  30.903   8.044
 2023POPC   C4B27406  44.089  30.795   7.689
 2024POPC   NC327407  43.924   2.309   9.351
 2024POPC   PO427408  43.599   2.963   9.378
 2024POPC   GL127409  43.736   2.734   9.087
 2024POPC   GL227410  43.515   2.417   9.094
 2024POPC   C1A27411  43.901   2.901   8.697
 2024POPC   D2A27412  44.060   2.753   8.309
 2024POPC   C3A27413  43.875   2.923   7.952
 2024POPC   C4A27414  44.159   3.111   7.680
 2024POPC   C1B27415  43.760   2.386   8.710
 2024POPC   C2B27416  43.712   2.368   8.279
 2024POPC   C3B27417  43.924   2.413   7.896
 2024POPC   C4B27418  43.667   2.476   7.558
 2025POPC   NC327419   5.603  34.499   9.403
 2025POPC   PO427420   6.238  34.592   9.405
 2025POPC   GL127421   5.969  34.635   9.082
 2025POPC   GL227422   5.778  34.933   9.187
 2025POPC   C1A27423   5.775  34.339   8.751
 2025POPC   D2A27424   5.676  34.217   8.305
 2025POPC   C3A27425   5.530  34.391   7.921
 2025POPC   C4A27426   5.817  34.454   7.584
 2025POPC   C1B27427   5.626  34.822   8.776
 2025POPC   C2B27428   5.814  34.722   8.376
 2025POPC   C3B27429   5.734  34.867   7.961
 2025POPC   C4B27430   5.704  34.968   7.516
 2026POPC   NC327431  30.272  12.527   9.705
 2026POPC   PO427432  30.731  13.015   9.681
 2026POPC   GL127433  30.734  13.048   9.168
 2026POPC   GL227434  30.818  12.750   8.942
 2026POPC   C1A27435  30.806  13.214   8.726
 2026POPC   D2A27436  30.771  12.968   8.353
 2026POPC   C3A27437  31.014  13.132   8.017
 2026POPC   C4A27438  31.207  12.948   7.664
 2026POPC   C1B27439  30.830  12.480   8.577
 2026POPC   C2B27440  30.765  12.376   8.145
 2026POPC   C3B27441  30.874  12.603   7.780
 2026POPC   C4B27442  31.020  12.527   7.344
 2027POPC   NC327443  18.324  43.491   9.373
 2027POPC   PO427444  18.069  44.133   9.345
 2027POPC   GL127445  18.063  44.039   8.957
 2027POPC   GL227446  17.911  43.685   9.003
 2027POPC   C1A27447  18.411  44.186   8.666
 2027POPC   D2A27448  18.742  44.185   8.324
 2027POPC   C3A27449  18.537  44.155   7.916
 2027POPC   C4A27450  18.313  43.860   7.699
 2027POPC   C1B27451  18.249  43.675   8.679
 2027POPC   C2B27452  18.331  43.836   8.283
 2027POPC   C3B27453  18.428  43.514   8.054
 2027POPC   C4B27454  18.493  43.358   7.693
 2028POPC   NC327455  22.481  32.345   9.498
 2028POPC   PO427456  21.780  32.584   9.521
 2028POPC   GL127457  21.953  32.242   9.223
 2028POPC   GL227458  22.263  32.226   9.073
 2028POPC   C1A27459  21.906  32.172   8.747
 2028POPC   D2A27460  21.997  32.404   8.402
 2028POPC   C3A27461  22.104  32.186   8.030
 2028POPC   C4A27462  22.153  32.180   7.586
 2028POPC   C1B27463  22.373  32.520   8.748
 2028POPC   C2B27464  22.499  32.392   8.346
 2028POPC   C3B27465  22.486  32.533   7.924
 2028POPC   C4B27466  22.583  32.424   7.465
 2029POPC   NC327467   2.245  26.633   9.434
 2029POPC   PO427468   1.640  26.900   9.350
 2029POPC   GL127469   1.968  26.827   9.058
 2029POPC   GL227470   2.263  27.058   9.065
 2029POPC   C1A27471   2.056  26.784   8.649
 2029POPC   D2A27472   2.072  27.078   8.324
 2029POPC   C3A27473   1.736  26.970   8.003
 2029POPC   C4A27474   1.815  26.575   7.801
 2029POPC   C1B27475   2.536  26.991   8.691
 2029POPC   C2B27476   2.487  26.603   8.454
 2029POPC   C3B27477   2.204  26.625   8.116
 2029POPC   C4B27478   2.198  26.983   7.817
 2030POPC   NC327479   4.868  40.310   9.772
 2030POPC   PO427480   4.447  39.940   9.311
 2030POPC   GL127481   4.107  40.063   9.076
 2030POPC   GL227482   4.042  40.432   9.152
 2030POPC   C1A27483   4.256  39.910   8.679
 2030POPC   D2A27484   4.609  39.944   8.442
 2030POPC   C3A27485   4.461  39.985   8.062
 2030POPC   C4A27486   4.249  39.838   7.740
 2030POPC   C1B27487   4.309  40.442   8.768
 2030POPC   C2B27488   4.238  40.360   8.351
 2030POPC   C3B27489   4.046  40.316   7.954
 2030POPC   C4B27490   4.153  40.361   7.552
 2031POPC   NC327491   5.581   8.587   9.516
 2031POPC   PO427492   5.558   7.873   9.582
 2031POPC   GL127493   5.737   8.155   9.245
 2031POPC   GL227494   6.073   8.241   9.296
 2031POPC   C1A27495   5.630   8.153   8.810
 2031POPC   D2A27496   5.546   8.306   8.400
 2031POPC   C3A27497   5.593   8.117   7.997
 2031POPC   C4A27498   5.781   8.367   7.644
 2031POPC   C1B27499   6.097   8.402   8.877
 2031POPC   C2B27500   6.052   8.217   8.475
 2031POPC   C3B27501   6.062   8.311   8.068
 2031POPC   C4B27502   6.330   8.446   7.756
 2032POPC   NC327503   1.171   4.781   9.285
 2032POPC   PO427504   1.129   4.149   9.639
 2032POPC   GL127505   1.194   4.142   9.170
 2032POPC   GL227506   1.276   4.441   8.944
 2032POPC   C1A27507   1.309   3.991   8.761
 2032POPC   D2A27508   1.244   4.236   8.373
 2032POPC   C3A27509   0.987   4.135   8.003
 2032POPC   C4A27510   1.229   4.144   7.654
 2032POPC   C1B27511   1.370   4.685   8.572
 2032POPC   C2B27512   1.435   4.725   8.112
 2032POPC   C3B27513   1.537   4.575   7.709
 2032POPC   C4B27514   1.670   4.765   7.311
 2033POPC   NC327515   7.533   3.632   9.469
 2033POPC   PO427516   6.891   3.647   9.283
 2033POPC   GL127517   7.236   3.410   9.057
 2033POPC   GL227518   7.600   3.302   9.092
 2033POPC   C1A27519   7.327   3.561   8.684
 2033POPC   D2A27520   7.164   3.816   8.402
 2033POPC   C3A27521   7.076   3.562   8.079
 2033POPC   C4A27522   7.138   3.686   7.677
 2033POPC   C1B27523   7.706   3.217   8.679
 2033POPC   C2B27524   7.510   3.314   8.269
 2033POPC   C3B27525   7.536   3.717   8.032
 2033POPC   C4B27526   7.632   3.552   7.673
 2034POPC   NC327527  21.646  16.166   9.534
 2034POPC   PO427528  21.136  15.707   9.491
 2034POPC   GL127529  21.340  15.818   9.129
 2034POPC   GL227530  21.666  15.730   9.205
 2034POPC   C1A27531  21.203  15.939   8.712
 2034POPC   D2A27532  21.026  15.779   8.325
 2034POPC   C3A27533  21.259  15.934   7.978
 2034POPC   C4A27534  21.662  15.854   7.801
 2034POPC   C1B27535  21.703  16.056   8.856
 2034POPC   C2B27536  21.555  16.230   8.440
 2034POPC   C3B27537  21.783  16.286   8.063
 2034POPC   C4B27538  21.736  16.321   7.624
 2035POPC   NC327539   2.890   5.891   9.843
 2035POPC   PO427540   3.514   5.821   9.602
 2035POPC   GL127541   3.655   5.979   9.172
 2035POPC   GL227542   3.433   5.764   8.995
 2035POPC   C1A27543   3.662   6.119   8.717
 2035POPC   D2A27544   3.587   6.241   8.275
 2035POPC   C3A27545   3.683   6.011   7.867
 2035POPC   C4A27546   3.608   5.863   7.426
 2035POPC   C1B27547   3.107   5.579   8.760
 2035POPC   C2B27548   3.169   5.439   8.329
 2035POPC   C3B27549   3.367   5.589   7.945
 2035POPC   C4B27550   3.162   5.766   7.610
 2036POPC   NC327551  23.987  23.751   9.618
 2036POPC   PO427552  23.489  24.161   9.583
 2036POPC   GL127553  23.593  23.869   9.246
 2036POPC   GL227554  23.931  23.935   9.155
 2036POPC   C1A27555  23.653  23.663   8.846
 2036POPC   D2A27556  23.755  23.797   8.416
 2036POPC   C3A27557  23.522  23.713   8.038
 2036POPC   C4A27558  23.633  23.588   7.641
 2036POPC   C1B27559  24.028  24.072   8.756
 2036POPC   C2B27560  24.227  24.001   8.356
 2036POPC   C3B27561  23.977  24.025   7.997
 2036POPC   C4B27562  24.020  23.917   7.579
 2037POPC   NC327563   9.309  28.938   9.625
 2037POPC   PO427564   8.648  29.114   9.442
 2037POPC   GL127565   8.897  29.040   9.098
 2037POPC   GL227566   9.229  29.199   9.187
 2037POPC   C1A27567   8.801  29.002   8.640
 2037POPC   D2A27568   8.567  29.037   8.257
 2037POPC   C3A27569   8.818  29.223   7.935
 2037POPC   C4A27570   8.959  28.975   7.592
 2037POPC   C1B27571   9.295  29.167   8.753
 2037POPC   C2B27572   9.169  29.231   8.341
 2037POPC   C3B27573   9.302  29.013   7.983
 2037POPC   C4B27574   9.356  29.287   7.689
 2038POPC   NC327575  24.761   7.173   9.489
 2038POPC   PO427576  25.337   7.506   9.501
 2038POPC   GL127577  25.113   7.350   9.179
 2038POPC   GL227578  24.869   7.609   9.198
 2038POPC   C1A27579  25.096   7.178   8.789
 2038POPC   D2A27580  25.325   7.322   8.388
 2038POPC   C3A27581  25.174   7.182   7.961
 2038POPC   C4A27582  25.526   7.152   7.679
 2038POPC   C1B27583  25.107   7.695   8.799
 2038POPC   C2B27584  25.100   7.803   8.361
 2038POPC   C3B27585  25.317   7.698   8.008
 2038POPC   C4B27586  25.161   7.612   7.622
 2039POPC   NC327587   3.394  31.606   9.526
 2039POPC   PO427588   3.097  30.911   9.453
 2039POPC   GL127589   3.341  31.265   9.111
 2039POPC   GL227590   3.592  31.614   9.076
 2039POPC   C1A27591   3.565  31.334   8.674
 2039POPC   D2A27592   3.793  31.135   8.357
 2039POPC   C3A27593   3.525  31.274   8.060
 2039POPC   C4A27594   3.189  31.227   7.775
 2039POPC   C1B27595   3.424  31.813   8.678
 2039POPC   C2B27596   3.581  31.794   8.240
 2039POPC   C3B27597   3.411  31.717   7.815
 2039POPC   C4B27598   3.265  32.036   7.517
 2040POPC   NC327599  20.362  40.718   9.499
 2040POPC   PO427600  20.961  40.938   9.599
 2040POPC   GL127601  20.738  40.961   9.158
 2040POPC   GL227602  20.412  40.832   9.008
 2040POPC   C1A27603  20.724  41.013   8.661
 2040POPC   D2A27604  20.573  40.791   8.277
 2040POPC   C3A27605  20.719  40.897   7.864
 2040POPC   C4A27606  20.529  40.859   7.407
 2040POPC   C1B27607  20.381  40.492   8.680
 2040POPC   C2B27608  20.663  40.284   8.366
 2040POPC   C3B27609  20.834  40.394   7.974
 2040POPC   C4B27610  20.449  40.465   7.725
 2041POPC   NC327611  29.764  21.853   9.301
 2041POPC   PO427612  30.160  21.423   9.638
 2041POPC   GL127613  30.175  21.344   9.190
 2041POPC   GL227614  30.289  21.621   8.978
 2041POPC   C1A27615  30.025  21.123   8.813
 2041POPC   D2A27616  29.856  21.161   8.386
 2041POPC   C3A27617  30.066  21.410   8.080
 2041POPC   C4A27618  30.000  21.454   7.641
 2041POPC   C1B27619  29.934  21.659   8.654
 2041POPC   C2B27620  29.770  21.823   8.245
 2041POPC   C3B27621  29.979  21.916   7.892
 2041POPC   C4B27622  30.343  21.801   7.710
 2042POPC   NC327623  26.884  17.436   9.483
 2042POPC   PO427624  26.228  17.554   9.343
 2042POPC   GL127625  26.586  17.430   9.079
 2042POPC   GL227626  26.842  17.740   9.069
 2042POPC   C1A27627  26.809  17.395   8.685
 2042POPC   D2A27628  26.781  17.648   8.330
 2042POPC   C3A27629  26.613  17.460   7.997
 2042POPC   C4A27630  26.502  17.485   7.551
 2042POPC   C1B27631  27.070  17.912   8.699
 2042POPC   C2B27632  27.270  17.804   8.298
 2042POPC   C3B27633  27.155  17.445   8.036
 2042POPC   C4B27634  26.982  17.574   7.666
 2043POPC   NC327635   1.099  44.907  10.003
 2043POPC   PO427636   1.231  44.484   9.535
 2043POPC   GL127637   1.169  44.603   9.124
 2043POPC   GL227638   0.840  44.682   9.212
 2043POPC   C1A27639   1.321  44.633   8.661
 2043POPC   D2A27640   1.388  44.510   8.221
 2043POPC   C3A27641   1.318  44.815   7.894
 2043POPC   C4A27642   1.194  44.871   7.459
 2043POPC   C1B27643   0.803  44.494   8.785
 2043POPC   C2B27644   0.886  44.534   8.337
 2043POPC   C3B27645   0.911  44.504   7.877
 2043POPC   C4B27646   0.761  44.178   7.616
 2044POPC   NC327647  26.227   4.073   9.558
 2044POPC   PO427648  25.843   4.620   9.495
 2044POPC   GL127649  26.113   4.447   9.157
 2044POPC   GL227650  26.384   4.176   9.096
 2044POPC   C1A27651  25.942   4.266   8.782
 2044POPC   D2A27652  25.906   4.439   8.397
 2044POPC   C3A27653  25.997   4.209   8.040
 2044POPC   C4A27654  25.920   4.438   7.688
 2044POPC   C1B27655  26.444   4.307   8.695
 2044POPC   C2B27656  26.397   4.597   8.381
 2044POPC   C3B27657  26.246   4.677   8.003
 2044POPC   C4B27658  26.410   4.349   7.771
 2045POPC   NC327659  27.905  44.208   9.712
 2045POPC   PO427660  27.524  43.646   9.736
 2045POPC   GL127661  27.434  43.694   9.261
 2045POPC   GL227662  27.676  43.947   9.164
 2045POPC   C1A27663  27.259  43.741   8.825
 2045POPC   D2A27664  27.311  43.556   8.388
 2045POPC   C3A27665  27.381  43.771   7.989
 2045POPC   C4A27666  27.752  43.788   7.719
 2045POPC   C1B27667  27.607  44.139   8.745
 2045POPC   C2B27668  27.714  44.073   8.295
 2045POPC   C3B27669  27.774  44.254   7.880
 2045POPC   C4B27670  27.448  44.449   7.627
 2046POPC   NC327671   4.741  12.356   9.241
 2046POPC   PO427672   4.428  12.012   9.669
 2046POPC   GL127673   4.134  12.029   9.269
 2046POPC   GL227674   4.241  12.386   9.090
 2046POPC   C1A27675   3.949  12.072   8.841
 2046POPC   D2A27676   4.086  12.265   8.487
 2046POPC   C3A27677   4.095  12.012   8.154
 2046POPC   C4A27678   4.244  12.046   7.741
 2046POPC   C1B27679   4.510  12.477   8.688
 2046POPC   C2B27680   4.494  12.583   8.308
 2046POPC   C3B27681   4.568  12.320   8.013
 2046POPC   C4B27682   4.632  12.367   7.607
 2047POPC   NC327683   6.412   7.606   9.533
 2047POPC   PO427684   7.102   7.466   9.506
 2047POPC   GL127685   6.923   7.367   9.125
 2047POPC   GL227686   6.602   7.318   9.158
 2047POPC   C1A27687   6.724   7.642   8.804
 2047POPC   D2A27688   6.522   7.691   8.404
 2047POPC   C3A27689   6.722   7.499   8.061
 2047POPC   C4A27690   6.751   7.639   7.656
 2047POPC   C1B27691   6.332   7.220   8.818
 2047POPC   C2B27692   6.126   7.357   8.450
 2047POPC   C3B27693   6.202   7.315   8.035
 2047POPC   C4B27694   6.261   7.551   7.702
 2048POPC   NC327695  33.233  31.849   9.496
 2048POPC   PO427696  32.876  32.356   9.781
 2048POPC   GL127697  32.886  32.251   9.319
 2048POPC   GL227698  33.224  32.291   9.219
 2048POPC   C1A27699  32.851  32.472   8.895
 2048POPC   D2A27700  32.736  32.300   8.490
 2048POPC   C3A27701  32.945  32.444   8.104
 2048POPC   C4A27702  32.854  32.245   7.709
 2048POPC   C1B27703  33.151  32.052   8.842
 2048POPC   C2B27704  33.182  32.061   8.411
 2048POPC   C3B27705  33.244  31.969   8.001
 2048POPC   C4B27706  33.372  32.285   7.766
 2049POPC   NC327707  37.829   6.293   9.401
 2049POPC   PO427708  37.487   5.752   9.542
 2049POPC   GL127709  37.723   5.789   9.198
 2049POPC   GL227710  37.589   6.065   9.021
 2049POPC   C1A27711  37.728   5.540   8.831
 2049POPC   D2A27712  37.987   5.503   8.477
 2049POPC   C3A27713  37.739   5.554   8.125
 2049POPC   C4A27714  37.944   5.586   7.755
 2049POPC   C1B27715  37.935   6.011   8.724
 2049POPC   C2B27716  37.912   6.040   8.264
 2049POPC   C3B27717  37.641   5.997   7.888
 2049POPC   C4B27718  37.361   5.702   7.744
 2050POPC   NC327719  12.309  10.461   9.249
 2050POPC   PO427720  11.840  10.097   9.524
 2050POPC   GL127721  11.841  10.402   9.067
 2050POPC   GL227722  11.600  10.674   9.012
 2050POPC   C1A27723  12.006  10.481   8.635
 2050POPC   D2A27724  11.908  10.198   8.281
 2050POPC   C3A27725  12.040  10.414   7.912
 2050POPC   C4A27726  12.347  10.704   7.753
 2050POPC   C1B27727  11.821  10.948   8.723
 2050POPC   C2B27728  12.053  10.952   8.333
 2050POPC   C3B27729  11.887  10.932   7.971
 2050POPC   C4B27730  11.836  10.796   7.584
 2051POPC   NC327731  31.967  11.461   9.565
 2051POPC   PO427732  32.505  11.092   9.369
 2051POPC   GL127733  32.405  11.311   9.019
 2051POPC   GL227734  32.046  11.349   9.082
 2051POPC   C1A27735  32.382  11.304   8.570
 2051POPC   D2A27736  32.630  11.428   8.208
 2051POPC   C3A27737  32.552  11.133   7.857
 2051POPC   C4A27738  32.461  11.060   7.395
 2051POPC   C1B27739  32.034  11.702   8.835
 2051POPC   C2B27740  32.066  11.676   8.421
 2051POPC   C3B27741  32.101  11.392   8.096
 2051POPC   C4B27742  32.105  11.345   7.665
 2052POPC   NC327743  17.502  43.611   9.482
 2052POPC   PO427744  17.644  44.231   9.755
 2052POPC   GL127745  17.562  44.067   9.270
 2052POPC   GL227746  17.229  43.908   9.150
 2052POPC   C1A27747  17.577  44.118   8.829
 2052POPC   D2A27748  17.414  44.002   8.425
 2052POPC   C3A27749  17.648  43.786   8.123
 2052POPC   C4A27750  17.472  44.065   7.831
 2052POPC   C1B27751  17.397  43.634   8.790
 2052POPC   C2B27752  17.187  43.530   8.362
 2052POPC   C3B27753  17.188  43.648   7.926
 2052POPC   C4B27754  17.521  43.444   7.674
 2053POPC   NC327755  36.470  15.613   9.527
 2053POPC   PO427756  36.141  15.000   9.400
 2053POPC   GL127757  36.164  15.234   9.059
 2053POPC   GL227758  36.337  15.497   9.067
 2053POPC   C1A27759  36.182  15.091   8.647
 2053POPC   D2A27760  36.016  15.209   8.276
 2053POPC   C3A27761  36.110  14.991   7.922
 2053POPC   C4A27762  36.393  14.911   7.588
 2053POPC   C1B27763  36.200  15.621   8.697
 2053POPC   C2B27764  36.419  15.512   8.378
 2053POPC   C3B27765  36.481  15.337   8.014
 2053POPC   C4B27766  36.459  15.481   7.617
 2054POPC   NC327767   7.889   4.256   9.327
 2054POPC   PO427768   8.465   4.308   9.640
 2054POPC   GL127769   8.396   4.351   9.171
 2054POPC   GL227770   8.273   4.016   9.100
 2054POPC   C1A27771   8.195   4.461   8.733
 2054POPC   D2A27772   8.383   4.476   8.303
 2054POPC   C3A27773   8.194   4.390   7.867
 2054POPC   C4A27774   7.959   3.994   7.634
 2054POPC   C1B27775   8.192   3.962   8.682
 2054POPC   C2B27776   8.027   4.114   8.308
 2054POPC   C3B27777   8.274   3.924   8.025
 2054POPC   C4B27778   8.472   3.898   7.653
 2055POPC   NC327779   7.655  27.279   9.465
 2055POPC   PO427780   7.227  27.808   9.475
 2055POPC   GL127781   7.257  27.512   9.146
 2055POPC   GL227782   7.576  27.632   9.086
 2055POPC   C1A27783   7.172  27.402   8.717
 2055POPC   D2A27784   7.197  27.181   8.323
 2055POPC   C3A27785   7.105  27.426   8.000
 2055POPC   C4A27786   7.218  27.817   7.831
 2055POPC   C1B27787   7.678  27.410   8.721
 2055POPC   C2B27788   7.562  27.525   8.294
 2055POPC   C3B27789   7.579  27.425   7.860
 2055POPC   C4B27790   7.417  27.260   7.496
 2056POPC   NC327791  14.647  17.240   9.465
 2056POPC   PO427792  14.079  17.632   9.369
 2056POPC   GL127793  14.253  17.383   9.088
 2056POPC   GL227794  14.561  17.532   9.056
 2056POPC   C1A27795  14.337  17.410   8.622
 2056POPC   D2A27796  14.524  17.551   8.240
 2056POPC   C3A27797  14.311  17.515   7.822
 2056POPC   C4A27798  14.437  17.391   7.393
 2056POPC   C1B27799  14.723  17.807   8.742
 2056POPC   C2B27800  14.712  18.042   8.329
 2056POPC   C3B27801  14.501  17.967   7.954
 2056POPC   C4B27802  14.653  17.838   7.560
 2057POPC   NC327803  26.605  30.901   9.695
 2057POPC   PO427804  27.076  30.482   9.523
 2057POPC   GL127805  26.849  30.482   9.155
 2057POPC   GL227806  26.799  30.841   9.194
 2057POPC   C1A27807  26.938  30.538   8.715
 2057POPC   D2A27808  27.080  30.304   8.357
 2057POPC   C3A27809  27.004  30.492   7.990
 2057POPC   C4A27810  26.618  30.479   7.781
 2057POPC   C1B27811  26.566  31.051   8.873
 2057POPC   C2B27812  26.660  31.180   8.460
 2057POPC   C3B27813  26.730  30.918   8.103
 2057POPC   C4B27814  26.582  30.986   7.720
 2058POPC   NC327815  22.669   5.183   9.563
 2058POPC   PO427816  23.220   4.820   9.290
 2058POPC   GL127817  22.989   5.218   9.166
 2058POPC   GL227818  22.672   5.116   9.000
 2058POPC   C1A27819  22.875   5.536   8.833
 2058POPC   D2A27820  22.929   5.610   8.403
 2058POPC   C3A27821  23.081   5.335   8.107
 2058POPC   C4A27822  22.965   5.428   7.690
 2058POPC   C1B27823  23.074   5.080   8.696
 2058POPC   C2B27824  23.267   4.898   8.348
 2058POPC   C3B27825  22.859   4.871   8.161
 2058POPC   C4B27826  22.803   4.950   7.762
 2059POPC   NC327827  40.015  15.143   9.491
 2059POPC   PO427828  40.358  15.601   9.216
 2059POPC   GL127829  40.189  15.215   9.017
 2059POPC   GL227830  39.820  15.050   9.040
 2059POPC   C1A27831  40.081  15.147   8.609
 2059POPC   D2A27832  40.223  14.949   8.269
 2059POPC   C3A27833  40.283  15.314   8.047
 2059POPC   C4A27834  40.282  15.511   7.654
 2059POPC   C1B27835  39.562  15.157   8.675
 2059POPC   C2B27836  39.743  15.295   8.261
 2059POPC   C3B27837  39.844  15.199   7.821
 2059POPC   C4B27838  39.729  14.987   7.426
 2060POPC   NC327839  34.442   9.291   9.440
 2060POPC   PO427840  34.914   8.845   9.360
 2060POPC   GL127841  34.745   9.111   9.061
 2060POPC   GL227842  34.395   8.953   9.063
 2060POPC   C1A27843  34.705   9.018   8.632
 2060POPC   D2A27844  34.659   8.641   8.376
 2060POPC   C3A27845  34.710   8.763   7.994
 2060POPC   C4A27846  34.748   9.054   7.717
 2060POPC   C1B27847  34.195   9.131   8.691
 2060POPC   C2B27848  34.310   9.011   8.276
 2060POPC   C3B27849  34.273   8.956   7.818
 2060POPC   C4B27850  34.180   8.962   7.387
 2061POPC   NC327851  41.125   4.459   9.578
 2061POPC   PO427852  40.536   4.123   9.385
 2061POPC   GL127853  40.956   4.116   9.220
 2061POPC   GL227854  40.979   3.809   9.124
 2061POPC   C1A27855  41.045   4.203   8.791
 2061POPC   D2A27856  40.776   4.213   8.415
 2061POPC   C3A27857  40.849   4.432   8.035
 2061POPC   C4A27858  41.027   4.708   7.754
 2061POPC   C1B27859  40.671   3.831   8.741
 2061POPC   C2B27860  40.395   3.862   8.349
 2061POPC   C3B27861  40.576   4.010   7.975
 2061POPC   C4B27862  40.389   4.056   7.604
 2062POPC   NC327863  42.497   4.953   9.594
 2062POPC   PO427864  42.036   5.308   9.501
 2062POPC   GL127865  42.230   5.073   9.167
 2062POPC   GL227866  42.587   5.161   9.153
 2062POPC   C1A27867  42.321   5.106   8.732
 2062POPC   D2A27868  42.133   4.954   8.404
 2062POPC   C3A27869  42.355   4.917   8.034
 2062POPC   C4A27870  42.227   4.985   7.611
 2062POPC   C1B27871  42.652   5.479   8.863
 2062POPC   C2B27872  42.792   5.469   8.438
 2062POPC   C3B27873  42.655   5.338   8.050
 2062POPC   C4B27874  42.527   5.399   7.638
 2063POPC   NC327875  21.599  29.338   9.495
 2063POPC   PO427876  21.135  28.813   9.464
 2063POPC   GL127877  21.292  29.082   9.133
 2063POPC   GL227878  21.243  29.470   9.148
 2063POPC   C1A27879  21.494  29.003   8.724
 2063POPC   D2A27880  21.618  29.211   8.327
 2063POPC   C3A27881  21.485  28.999   7.950
 2063POPC   C4A27882  21.636  29.271   7.633
 2063POPC   C1B27883  21.057  29.595   8.770
 2063POPC   C2B27884  21.223  29.566   8.376
 2063POPC   C3B27885  21.312  29.495   7.972
 2063POPC   C4B27886  21.167  29.437   7.570
 2064POPC   NC327887  28.291  18.669   9.387
 2064POPC   PO427888  27.993  18.014   9.513
 2064POPC   GL127889  28.291  18.190   9.132
 2064POPC   GL227890  28.386  18.489   8.954
 2064POPC   C1A27891  28.373  18.077   8.700
 2064POPC   D2A27892  28.295  18.312   8.351
 2064POPC   C3A27893  28.371  18.116   8.007
 2064POPC   C4A27894  28.297  18.280   7.620
 2064POPC   C1B27895  28.682  18.520   8.675
 2064POPC   C2B27896  28.792  18.368   8.295
 2064POPC   C3B27897  28.723  18.462   7.883
 2064POPC   C4B27898  28.836  18.453   7.465
 2065POPC   NC327899  37.402   1.524   9.386
 2065POPC   PO427900  37.898   1.032   9.567
 2065POPC   GL127901  37.752   1.218   9.157
 2065POPC   GL227902  37.979   1.503   9.074
 2065POPC   C1A27903  37.498   1.267   8.740
 2065POPC   D2A27904  37.276   1.167   8.336
 2065POPC   C3A27905  37.327   1.429   7.988
 2065POPC   C4A27906  37.585   1.437   7.625
 2065POPC   C1B27907  37.903   1.542   8.656
 2065POPC   C2B27908  37.745   1.403   8.303
 2065POPC   C3B27909  37.932   1.393   7.976
 2065POPC   C4B27910  38.047   1.700   7.715
 2066POPC   NC327911   7.374  32.448   9.849
 2066POPC   PO427912   7.045  32.054   9.378
 2066POPC   GL127913   7.396  32.086   9.042
 2066POPC   GL227914   7.622  32.402   9.011
 2066POPC   C1A27915   7.256  32.273   8.690
 2066POPC   D2A27916   7.253  32.472   8.350
 2066POPC   C3A27917   7.076  32.197   8.121
 2066POPC   C4A27918   7.283  32.225   7.782
 2066POPC   C1B27919   7.758  32.243   8.622
 2066POPC   C2B27920   7.623  32.111   8.194
 2066POPC   C3B27921   7.762  32.058   7.770
 2066POPC   C4B27922   8.006  32.332   7.485
 2067POPC   NC327923  38.978   7.481   9.520
 2067POPC   PO427924  39.429   7.071   9.715
 2067POPC   GL127925  39.297   7.211   9.237
 2067POPC   GL227926  39.197   7.563   9.076
 2067POPC   C1A27927  39.320   7.172   8.785
 2067POPC   D2A27928  39.407   7.480   8.486
 2067POPC   C3A27929  39.255   7.295   8.145
 2067POPC   C4A27930  39.176   7.151   7.735
 2067POPC   C1B27931  39.007   7.891   8.820
 2067POPC   C2B27932  39.161   8.052   8.408
 2067POPC   C3B27933  39.023   7.935   8.026
 2067POPC   C4B27934  39.163   7.644   7.787
 2068POPC   NC327935  30.924  28.167   9.226
 2068POPC   PO427936  30.792  28.620   9.677
 2068POPC   GL127937  30.697  28.616   9.151
 2068POPC   GL227938  30.526  28.331   8.933
 2068POPC   C1A27939  30.855  28.622   8.707
 2068POPC   D2A27940  30.675  28.403   8.333
 2068POPC   C3A27941  30.680  28.607   7.941
 2068POPC   C4A27942  30.321  28.774   7.798
 2068POPC   C1B27943  30.759  28.001   8.644
 2068POPC   C2B27944  30.737  27.870   8.242
 2068POPC   C3B27945  30.722  28.098   7.884
 2068POPC   C4B27946  30.414  28.279   7.619
 2069POPC   NC327947  44.995  26.748   9.495
 2069POPC   PO427948   0.657  26.759   9.476
 2069POPC   GL127949   0.337  26.786   9.124
 2069POPC   GL227950   0.262  27.115   8.994
 2069POPC   C1A27951   0.034  26.727   8.761
 2069POPC   D2A27952   0.038  27.009   8.428
 2069POPC   C3A27953   0.185  26.882   8.061
 2069POPC   C4A27954   0.134  26.696   7.673
 2069POPC   C1B27955   0.729  27.063   8.918
 2069POPC   C2B27956   0.922  27.119   8.540
 2069POPC   C3B27957   0.749  26.981   8.149
 2069POPC   C4B27958   0.586  26.913   7.735
 2070POPC   NC327959  32.776  20.441   9.562
 2070POPC   PO427960  33.269  20.896   9.525
 2070POPC   GL127961  32.920  20.733   9.183
 2070POPC   GL227962  33.101  20.661   8.887
 2070POPC   C1A27963  32.646  20.568   8.783
 2070POPC   D2A27964  32.835  20.380   8.418
 2070POPC   C3A27965  32.647  20.541   8.056
 2070POPC   C4A27966  32.769  20.610   7.668
 2070POPC   C1B27967  33.157  20.838   8.514
 2070POPC   C2B27968  33.274  20.604   8.187
 2070POPC   C3B27969  33.260  20.667   7.759
 2070POPC   C4B27970  33.326  20.825   7.382
 2071POPC   NC327971  39.858  44.556   9.653
 2071POPC   PO427972  40.415  44.971   9.566
 2071POPC   GL127973  40.211  44.664   9.276
 2071POPC   GL227974  39.878  44.731   9.180
 2071POPC   C1A27975  40.231  44.474   8.854
 2071POPC   D2A27976  40.105  44.626   8.441
 2071POPC   C3A27977  40.312  44.501   8.060
 2071POPC   C4A27978  40.155  44.718   7.749
 2071POPC   C1B27979  39.700  44.477   8.858
 2071POPC   C2B27980  39.661  44.326   8.448
 2071POPC   C3B27981  39.791  44.403   8.024
 2071POPC   C4B27982  39.541  44.637   7.719
 2072POPC   NC327983  17.990  23.853   9.488
 2072POPC   PO427984  18.456  23.367   9.360
 2072POPC   GL127985  18.126  23.477   9.031
 2072POPC   GL227986  17.985  23.819   8.982
 2072POPC   C1A27987  18.097  23.550   8.568
 2072POPC   D2A27988  18.374  23.681   8.190
 2072POPC   C3A27989  18.516  23.702   7.750
 2072POPC   C4A27990  18.413  23.438   7.405
 2072POPC   C1B27991  17.907  24.084   8.632
 2072POPC   C2B27992  18.003  24.119   8.201
 2072POPC   C3B27993  18.046  23.907   7.831
 2072POPC   C4B27994  18.163  23.904   7.387
 2073POPC   NC327995  10.352  43.552   9.671
 2073POPC   PO427996   9.854  44.040   9.572
 2073POPC   GL127997   9.778  43.945   9.135
 2073POPC   GL227998   9.475  43.771   9.035
 2073POPC   C1A27999   9.864  44.015   8.695
 2073POPC   D2A28000  10.182  43.985   8.408
 2073POPC   C3A28001  10.116  44.035   8.002
 2073POPC   C4A28002   9.743  43.945   7.858
 2073POPC   C1B28003   9.371  44.091   8.747
 2073POPC   C2B28004   9.496  44.029   8.306
 2073POPC   C3B28005   9.354  43.670   8.098
 2073POPC   C4B28006   9.350  43.445   7.721
 2074POPC   NC328007   7.032  19.336   9.505
 2074POPC   PO428008   6.649  18.793   9.465
 2074POPC   GL128009   6.581  18.952   9.107
 2074POPC   GL228010   6.653  19.280   9.131
 2074POPC   C1A28011   6.826  18.940   8.765
 2074POPC   D2A28012   6.672  18.838   8.421
 2074POPC   C3A28013   6.854  18.893   8.081
 2074POPC   C4A28014   6.593  19.064   7.800
 2074POPC   C1B28015   6.447  19.270   8.718
 2074POPC   C2B28016   6.620  19.353   8.334
 2074POPC   C3B28017   6.869  19.414   8.000
 2074POPC   C4B28018   7.076  19.368   7.585
 2075POPC   NC328019   1.254  43.338   9.530
 2075POPC   PO428020   0.878  42.886   9.311
 2075POPC   GL128021   0.961  43.242   9.123
 2075POPC   GL228022   1.262  43.060   9.023
 2075POPC   C1A28023   0.945  43.391   8.740
 2075POPC   D2A28024   1.194  43.290   8.396
 2075POPC   C3A28025   0.953  43.278   8.083
 2075POPC   C4A28026   0.934  43.370   7.699
 2075POPC   C1B28027   0.925  42.880   8.698
 2075POPC   C2B28028   0.837  42.804   8.307
 2075POPC   C3B28029   1.183  42.825   8.080
 2075POPC   C4B28030   1.306  43.046   7.768
 2076POPC   NC328031   8.646  24.295   9.265
 2076POPC   PO428032   9.222  24.652   9.478
 2076POPC   GL128033   9.156  24.466   9.122
 2076POPC   GL228034   8.900  24.638   8.998
 2076POPC   C1A28035   9.259  24.328   8.733
 2076POPC   D2A28036   8.988  24.490   8.425
 2076POPC   C3A28037   8.880  24.221   8.095
 2076POPC   C4A28038   9.042  24.280   7.699
 2076POPC   C1B28039   8.558  24.572   8.692
 2076POPC   C2B28040   8.579  24.860   8.386
 2076POPC   C3B28041   8.720  24.706   8.050
 2076POPC   C4B28042   8.592  24.520   7.725
 2077POPC   NC328043  14.390  17.984   9.365
 2077POPC   PO428044  14.790  18.486   9.490
 2077POPC   GL128045  14.532  18.498   9.117
 2077POPC   GL228046  14.179  18.503   9.091
 2077POPC   C1A28047  14.540  18.316   8.738
 2077POPC   D2A28048  14.529  18.572   8.408
 2077POPC   C3A28049  14.566  18.461   8.007
 2077POPC   C4A28050  14.472  18.335   7.617
 2077POPC   C1B28051  14.060  18.489   8.640
 2077POPC   C2B28052  14.137  18.273   8.246
 2077POPC   C3B28053  14.025  18.428   7.835
 2077POPC   C4B28054  14.054  18.432   7.345
 2078POPC   NC328055  31.143  28.288   9.666
 2078POPC   PO428056  31.750  28.395   9.499
 2078POPC   GL128057  31.649  28.470   9.056
 2078POPC   GL228058  31.415  28.179   9.104
 2078POPC   C1A28059  31.388  28.533   8.646
 2078POPC   D2A28060  31.100  28.695   8.272
 2078POPC   C3A28061  31.167  28.398   7.961
 2078POPC   C4A28062  31.613  28.445   7.971
 2078POPC   C1B28063  31.601  28.016   8.742
 2078POPC   C2B28064  31.791  28.145   8.370
 2078POPC   C3B28065  31.920  28.035   7.986
 2078POPC   C4B28066  31.530  27.972   7.820
 2079POPC   NC328067  11.571  21.576   9.464
 2079POPC   PO428068  11.013  21.273   9.760
 2079POPC   GL128069  11.117  21.269   9.300
 2079POPC   GL228070  11.415  21.077   9.321
 2079POPC   C1A28071  11.056  21.362   8.827
 2079POPC   D2A28072  11.080  21.624   8.405
 2079POPC   C3A28073  10.949  21.539   7.956
 2079POPC   C4A28074  11.054  21.196   7.683
 2079POPC   C1B28075  11.584  21.173   8.897
 2079POPC   C2B28076  11.492  21.040   8.490
 2079POPC   C3B28077  11.330  21.227   8.122
 2079POPC   C4B28078  11.476  21.569   7.861
 2080POPC   NC328079   0.700   5.155   9.494
 2080POPC   PO428080   0.244   5.573   9.546
 2080POPC   GL128081   0.359   5.315   9.149
 2080POPC   GL228082   0.301   4.928   9.208
 2080POPC   C1A28083   0.507   5.235   8.719
 2080POPC   D2A28084   0.772   5.138   8.367
 2080POPC   C3A28085   0.561   5.301   8.028
 2080POPC   C4A28086   0.537   5.224   7.590
 2080POPC   C1B28087   0.357   4.712   8.790
 2080POPC   C2B28088   0.405   4.790   8.332
 2080POPC   C3B28089   0.565   4.800   7.885
 2080POPC   C4B28090   0.332   4.721   7.461
 2081POPC   NC328091   8.031  39.182   9.879
 2081POPC   PO428092   8.098  39.444   9.313
 2081POPC   GL128093   8.280  39.098   9.139
 2081POPC   GL228094   8.610  39.262   9.211
 2081POPC   C1A28095   8.133  39.044   8.704
 2081POPC   D2A28096   7.878  39.274   8.400
 2081POPC   C3A28097   8.071  39.265   8.009
 2081POPC   C4A28098   8.484  39.126   7.925
 2081POPC   C1B28099   8.582  39.504   8.816
 2081POPC   C2B28100   8.409  39.450   8.381
 2081POPC   C3B28101   8.398  39.659   7.970
 2081POPC   C4B28102   8.216  39.480   7.556
 2082POPC   NC328103  33.606  20.481   9.583
 2082POPC   PO428104  33.991  21.013   9.812
 2082POPC   GL128105  33.758  20.866   9.296
 2082POPC   GL228106  33.507  20.685   9.148
 2082POPC   C1A28107  33.891  20.582   8.872
 2082POPC   D2A28108  33.645  20.374   8.540
 2082POPC   C3A28109  33.896  20.355   8.151
 2082POPC   C4A28110  33.981  20.476   7.710
 2082POPC   C1B28111  33.567  20.975   8.804
 2082POPC   C2B28112  33.688  20.878   8.408
 2082POPC   C3B28113  33.683  20.829   7.984
 2082POPC   C4B28114  33.480  21.154   7.756
 2083POPC   NC328115  22.322   9.481   9.500
 2083POPC   PO428116  21.827   9.896   9.733
 2083POPC   GL128117  22.085   9.855   9.260
 2083POPC   GL228118  22.039   9.516   9.081
 2083POPC   C1A28119  22.103   9.883   8.753
 2083POPC   D2A28120  22.011   9.621   8.359
 2083POPC   C3A28121  22.198   9.871   8.007
 2083POPC   C4A28122  22.199   9.988   7.576
 2083POPC   C1B28123  22.293   9.378   8.721
 2083POPC   C2B28124  22.375   9.252   8.286
 2083POPC   C3B28125  22.251   9.382   7.857
 2083POPC   C4B28126  21.927   9.547   7.554
 2084POPC   NC328127   4.655   1.854   9.522
 2084POPC   PO428128   4.196   2.385   9.672
 2084POPC   GL128129   4.362   2.218   9.251
 2084POPC   GL228130   4.284   1.841   9.165
 2084POPC   C1A28131   4.329   2.189   8.787
 2084POPC   D2A28132   4.363   1.931   8.407
 2084POPC   C3A28133   4.191   2.122   8.027
 2084POPC   C4A28134   4.476   2.359   7.769
 2084POPC   C1B28135   4.393   1.552   8.807
 2084POPC   C2B28136   4.253   1.429   8.402
 2084POPC   C3B28137   4.166   1.592   7.966
 2084POPC   C4B28138   4.019   1.491   7.541
 2085POPC   NC328139  38.363  28.105   9.427
 2085POPC   PO428140  38.192  28.775   9.472
 2085POPC   GL128141  38.518  28.615   9.130
 2085POPC   GL228142  38.667  28.253   9.041
 2085POPC   C1A28143  38.692  28.629   8.714
 2085POPC   D2A28144  38.488  28.446   8.359
 2085POPC   C3A28145  38.338  28.700   8.028
 2085POPC   C4A28146  38.652  28.808   7.733
 2085POPC   C1B28147  38.261  28.308   8.819
 2085POPC   C2B28148  38.063  28.026   8.570
 2085POPC   C3B28149  38.156  28.039   8.149
 2085POPC   C4B28150  38.469  28.210   7.896
 2086POPC   NC328151  27.912  11.345   9.536
 2086POPC   PO428152  28.625  11.258   9.459
 2086POPC   GL128153  28.295  11.300   9.130
 2086POPC   GL228154  28.125  11.609   9.146
 2086POPC   C1A28155  28.392  11.191   8.703
 2086POPC   D2A28156  28.524  10.946   8.354
 2086POPC   C3A28157  28.336  10.881   7.959
 2086POPC   C4A28158  28.340  11.023   7.546
 2086POPC   C1B28159  28.047  11.557   8.686
 2086POPC   C2B28160  28.267  11.454   8.266
 2086POPC   C3B28161  28.220  11.469   7.784
 2086POPC   C4B28162  28.218  11.474   7.307
 2087POPC   NC328163  15.543   8.372   9.371
 2087POPC   PO428164  15.002   8.088   9.755
 2087POPC   GL128165  15.027   8.183   9.271
 2087POPC   GL228166  14.788   8.436   9.160
 2087POPC   C1A28167  14.992   8.073   8.784
 2087POPC   D2A28168  15.119   7.863   8.349
 2087POPC   C3A28169  15.096   7.990   7.885
 2087POPC   C4A28170  15.158   7.829   7.443
 2087POPC   C1B28171  15.093   8.572   8.824
 2087POPC   C2B28172  15.146   8.420   8.399
 2087POPC   C3B28173  15.075   8.555   7.980
 2087POPC   C4B28174  15.217   8.413   7.591
 2088POPC   NC328175   1.449   3.842   9.488
 2088POPC   PO428176   0.872   3.587   9.346
 2088POPC   GL128177   1.174   3.605   9.080
 2088POPC   GL228178   1.406   3.406   9.171
 2088POPC   C1A28179   1.099   3.542   8.678
 2088POPC   D2A28180   0.947   3.825   8.410
 2088POPC   C3A28181   1.284   3.750   8.126
 2088POPC   C4A28182   1.200   3.632   7.723
 2088POPC   C1B28183   1.492   3.238   8.787
 2088POPC   C2B28184   1.602   3.398   8.379
 2088POPC   C3B28185   1.601   3.363   7.928
 2088POPC   C4B28186   1.576   3.402   7.465
 2089POPC   NC328187  14.825  30.992   9.444
 2089POPC   PO428188  14.125  30.842   9.448
 2089POPC   GL128189  14.432  30.780   9.144
 2089POPC   GL228190  14.290  31.076   8.993
 2089POPC   C1A28191  14.374  30.608   8.725
 2089POPC   D2A28192  14.140  30.825   8.394
 2089POPC   C3A28193  14.297  30.766   7.982
 2089POPC   C4A28194  14.505  30.547   7.664
 2089POPC   C1B28195  14.588  31.088   8.690
 2089POPC   C2B28196  14.555  31.128   8.251
 2089POPC   C3B28197  14.700  31.099   7.806
 2089POPC   C4B28198  14.752  31.017   7.362
 2090POPC   NC328199  18.591   6.287   9.844
 2090POPC   PO428200  18.011   6.655   9.725
 2090POPC   GL128201  18.336   6.701   9.280
 2090POPC   GL228202  18.547   6.411   9.137
 2090POPC   C1A28203  18.387   6.807   8.848
 2090POPC   D2A28204  18.397   6.570   8.464
 2090POPC   C3A28205  18.060   6.692   8.182
 2090POPC   C4A28206  18.248   6.762   7.823
 2090POPC   C1B28207  18.228   6.274   8.830
 2090POPC   C2B28208  18.047   6.204   8.407
 2090POPC   C3B28209  18.302   6.261   8.055
 2090POPC   C4B28210  18.447   6.159   7.677
 2091POPC   NC328211  36.983  25.079   9.445
 2091POPC   PO428212  36.396  25.522   9.430
 2091POPC   GL128213  36.678  25.351   9.125
 2091POPC   GL228214  36.644  24.985   9.070
 2091POPC   C1A28215  36.875  25.426   8.733
 2091POPC   D2A28216  36.804  25.747   8.421
 2091POPC   C3A28217  37.080  25.589   8.121
 2091POPC   C4A28218  37.101  25.618   7.682
 2091POPC   C1B28219  36.914  24.934   8.715
 2091POPC   C2B28220  36.758  24.852   8.307
 2091POPC   C3B28221  36.842  25.075   7.919
 2091POPC   C4B28222  36.738  24.860   7.522
 2092POPC   NC328223   2.478  34.340   9.488
 2092POPC   PO428224   1.809  34.654   9.579
 2092POPC   GL128225   2.021  34.435   9.286
 2092POPC   GL228226   2.138  34.751   9.191
 2092POPC   C1A28227   2.096  34.367   8.863
 2092POPC   D2A28228   1.917  34.615   8.531
 2092POPC   C3A28229   1.992  34.391   8.167
 2092POPC   C4A28230   1.883  34.455   7.762
 2092POPC   C1B28231   2.381  34.808   8.849
 2092POPC   C2B28232   2.399  34.798   8.425
 2092POPC   C3B28233   2.305  34.757   7.997
 2092POPC   C4B28234   1.999  34.975   7.755
 2093POPC   NC328235  20.267  16.451   9.434
 2093POPC   PO428236  20.964  16.546   9.371
 2093POPC   GL128237  20.686  16.715   9.136
 2093POPC   GL228238  20.521  16.969   9.326
 2093POPC   C1A28239  20.711  16.720   8.712
 2093POPC   D2A28240  20.557  16.622   8.328
 2093POPC   C3A28241  20.852  16.759   8.057
 2093POPC   C4A28242  20.978  16.731   7.666
 2093POPC   C1B28243  20.385  17.059   8.905
 2093POPC   C2B28244  20.453  17.135   8.462
 2093POPC   C3B28245  20.344  17.085   8.032
 2093POPC   C4B28246  20.397  16.837   7.618
 2094POPC   NC328247   1.338  41.681   9.505
 2094POPC   PO428248   1.480  41.097   9.256
 2094POPC   GL128249   1.429  41.425   9.019
 2094POPC   GL228250   1.087  41.507   9.055
 2094POPC   C1A28251   1.331  41.271   8.627
 2094POPC   D2A28252   1.276  41.415   8.243
 2094POPC   C3A28253   1.519  41.259   7.976
 2094POPC   C4A28254   1.585  41.610   7.747
 2094POPC   C1B28255   1.163  41.743   8.647
 2094POPC   C2B28256   0.965  41.827   8.224
 2094POPC   C3B28257   0.977  41.831   7.745
 2094POPC   C4B28258   0.770  41.850   7.285
 2095POPC   NC328259   5.991  24.717   9.441
 2095POPC   PO428260   5.600  24.181   9.582
 2095POPC   GL128261   5.652  24.434   9.174
 2095POPC   GL228262   6.043  24.411   9.046
 2095POPC   C1A28263   5.739  24.738   8.809
 2095POPC   D2A28264   6.017  24.638   8.451
 2095POPC   C3A28265   5.823  24.732   8.053
 2095POPC   C4A28266   5.593  24.683   7.699
 2095POPC   C1B28267   6.262  24.161   8.724
 2095POPC   C2B28268   6.414  24.237   8.305
 2095POPC   C3B28269   6.216  24.436   7.963
 2095POPC   C4B28270   6.032  24.481   7.544
 2096POPC   NC328271  30.353  40.911   9.631
 2096POPC   PO428272  29.763  40.607   9.610
 2096POPC   GL128273  29.855  40.868   9.234
 2096POPC   GL228274  30.202  40.977   9.150
 2096POPC   C1A28275  29.796  41.107   8.840
 2096POPC   D2A28276  29.651  41.227   8.414
 2096POPC   C3A28277  29.978  41.279   8.096
 2096POPC   C4A28278  29.879  41.193   7.658
 2096POPC   C1B28279  30.214  40.734   8.751
 2096POPC   C2B28280  30.199  40.846   8.301
 2096POPC   C3B28281  30.137  40.791   7.858
 2096POPC   C4B28282  29.814  40.703   7.550
 2097POPC   NC328283  39.381  40.198   9.596
 2097POPC   PO428284  39.301  39.528   9.544
 2097POPC   GL128285  39.307  39.880   9.193
 2097POPC   GL228286  39.182  40.239   9.137
 2097POPC   C1A28287  39.247  39.914   8.740
 2097POPC   D2A28288  39.103  40.083   8.338
 2097POPC   C3A28289  39.390  39.973   8.022
 2097POPC   C4A28290  39.481  39.805   7.641
 2097POPC   C1B28291  38.905  40.309   8.794
 2097POPC   C2B28292  38.833  40.506   8.411
 2097POPC   C3B28293  38.846  40.433   7.978
 2097POPC   C4B28294  39.027  40.125   7.697
 2098POPC   NC328295  23.500   8.550   9.633
 2098POPC   PO428296  23.659   9.172   9.450
 2098POPC   GL128297  23.490   8.889   9.186
 2098POPC   GL228298  23.794   8.939   9.005
 2098POPC   C1A28299  23.374   8.818   8.747
 2098POPC   D2A28300  23.735   8.870   8.469
 2098POPC   C3A28301  23.738   8.772   8.047
 2098POPC   C4A28302  23.603   9.033   7.711
 2098POPC   C1B28303  24.007   9.238   8.710
 2098POPC   C2B28304  24.033   9.463   8.349
 2098POPC   C3B28305  24.016   9.252   7.963
 2098POPC   C4B28306  24.176   9.049   7.627
 2099POPC   NC328307   4.414  38.746   9.844
 2099POPC   PO428308   4.104  38.187   9.745
 2099POPC   GL128309   4.315  38.467   9.388
 2099POPC   GL228310   4.257  38.243   9.142
 2099POPC   C1A28311   4.444  38.636   8.914
 2099POPC   D2A28312   4.311  38.623   8.457
 2099POPC   C3A28313   4.553  38.573   8.048
 2099POPC   C4A28314   4.571  38.606   7.588
 2099POPC   C1B28315   4.262  38.040   8.774
 2099POPC   C2B28316   4.126  38.108   8.385
 2099POPC   C3B28317   4.101  38.337   8.029
 2099POPC   C4B28318   4.301  38.201   7.701
 2100POPC   NC328319  11.818  23.157   9.468
 2100POPC   PO428320  12.306  22.754   9.701
 2100POPC   GL128321  12.253  22.955   9.266
 2100POPC   GL228322  12.491  22.821   9.044
 2100POPC   C1A28323  12.019  22.938   8.847
 2100POPC   D2A28324  12.005  22.780   8.404
 2100POPC   C3A28325  11.929  23.087   8.075
 2100POPC   C4A28326  12.109  23.190   7.682
 2100POPC   C1B28327  12.456  23.219   8.799
 2100POPC   C2B28328  12.335  23.341   8.375
 2100POPC   C3B28329  12.521  23.274   7.970
 2100POPC   C4B28330  12.606  23.280   7.508
 2101POPC   NC328331  23.236   6.983   9.160
 2101POPC   PO428332  23.471   7.579   9.370
 2101POPC   GL128333  23.602   7.366   9.038
 2101POPC   GL228334  23.831   7.131   9.197
 2101POPC   C1A28335  23.702   7.539   8.638
 2101POPC   D2A28336  23.884   7.754   8.299
 2101POPC   C3A28337  23.699   7.629   7.955
 2101POPC   C4A28338  23.906   7.779   7.644
 2101POPC   C1B28339  24.046   7.198   8.803
 2101POPC   C2B28340  23.959   7.223   8.334
 2101POPC   C3B28341  24.077   7.308   7.899
 2101POPC   C4B28342  23.903   7.290   7.464
 2102POPC   NC328343  25.284  42.504   9.449
 2102POPC   PO428344  25.689  42.051   9.318
 2102POPC   GL128345  25.505  42.356   9.019
 2102POPC   GL228346  25.292  42.698   8.989
 2102POPC   C1A28347  25.359  42.333   8.620
 2102POPC   D2A28348  25.113  42.372   8.277
 2102POPC   C3A28349  25.275  42.130   7.928
 2102POPC   C4A28350  25.123  42.155   7.503
 2102POPC   C1B28351  25.675  42.739   8.725
 2102POPC   C2B28352  25.698  42.582   8.309
 2102POPC   C3B28353  25.446  42.612   7.943
 2102POPC   C4B28354  25.559  42.453   7.525
 2103POPC   NC328355  33.608  11.988   9.429
 2103POPC   PO428356  34.100  12.303   9.691
 2103POPC   GL128357  34.070  12.117   9.233
 2103POPC   GL228358  34.307  11.978   8.973
 2103POPC   C1A28359  33.822  12.015   8.816
 2103POPC   D2A28360  33.644  12.034   8.398
 2103POPC   C3A28361  33.799  11.867   8.023
 2103POPC   C4A28362  33.550  11.842   7.641
 2103POPC   C1B28363  34.170  12.411   8.835
 2103POPC   C2B28364  33.903  12.506   8.491
 2103POPC   C3B28365  34.018  12.338   8.097
 2103POPC   C4B28366  33.896  12.230   7.695
 2104POPC   NC328367  29.373  40.870   9.559
 2104POPC   PO428368  28.945  40.468   9.536
 2104POPC   GL128369  29.017  40.796   9.201
 2104POPC   GL228370  29.361  40.882   9.061
 2104POPC   C1A28371  28.914  40.834   8.783
 2104POPC   D2A28372  29.008  40.649   8.412
 2104POPC   C3A28373  28.946  40.824   8.023
 2104POPC   C4A28374  28.886  40.609   7.642
 2104POPC   C1B28375  29.427  40.821   8.647
 2104POPC   C2B28376  29.707  40.711   8.382
 2104POPC   C3B28377  29.652  40.878   8.007
 2104POPC   C4B28378  29.345  40.914   7.704
 2105POPC   NC328379  23.143  26.622   9.614
 2105POPC   PO428380  22.738  27.108   9.415
 2105POPC   GL128381  22.960  26.784   9.118
 2105POPC   GL228382  23.298  26.667   9.115
 2105POPC   C1A28383  22.920  26.722   8.667
 2105POPC   D2A28384  22.895  27.033   8.347
 2105POPC   C3A28385  22.886  26.849   7.929
 2105POPC   C4A28386  22.865  27.033   7.549
 2105POPC   C1B28387  23.411  26.639   8.675
 2105POPC   C2B28388  23.232  26.660   8.251
 2105POPC   C3B28389  23.389  26.738   7.855
 2105POPC   C4B28390  23.280  26.764   7.409
 2106POPC   NC328391   7.284   8.866   9.522
 2106POPC   PO428392   7.641   9.415   9.497
 2106POPC   GL128393   7.467   9.143   9.144
 2106POPC   GL228394   7.615   8.782   9.155
 2106POPC   C1A28395   7.210   8.961   8.799
 2106POPC   D2A28396   7.183   8.915   8.340
 2106POPC   C3A28397   7.531   8.938   8.008
 2106POPC   C4A28398   7.439   8.918   7.553
 2106POPC   C1B28399   7.723   8.909   8.758
 2106POPC   C2B28400   7.661   8.651   8.430
 2106POPC   C3B28401   7.936   8.391   8.226
 2106POPC   C4B28402   7.835   8.504   7.818
 2107POPC   NC328403  25.688   1.731   9.488
 2107POPC   PO428404  25.026   2.168   9.614
 2107POPC   GL128405  25.283   2.058   9.244
 2107POPC   GL228406  25.289   1.731   9.099
 2107POPC   C1A28407  25.138   2.115   8.793
 2107POPC   D2A28408  25.170   1.887   8.391
 2107POPC   C3A28409  25.324   2.098   7.984
 2107POPC   C4A28410  25.048   2.044   7.605
 2107POPC   C1B28411  25.519   1.567   8.726
 2107POPC   C2B28412  25.540   1.369   8.297
 2107POPC   C3B28413  25.339   1.602   7.950
 2107POPC   C4B28414  25.479   1.825   7.553
 2108POPC   NC328415  17.118  27.125  10.023
 2108POPC   PO428416  16.482  27.142   9.762
 2108POPC   GL128417  16.582  26.938   9.335
 2108POPC   GL228418  16.836  26.674   9.288
 2108POPC   C1A28419  16.613  26.849   8.873
 2108POPC   D2A28420  16.704  26.698   8.472
 2108POPC   C3A28421  16.543  26.946   8.146
 2108POPC   C4A28422  16.629  26.873   7.724
 2108POPC   C1B28423  16.957  26.469   8.878
 2108POPC   C2B28424  17.188  26.546   8.444
 2108POPC   C3B28425  17.040  26.709   8.020
 2108POPC   C4B28426  16.965  26.559   7.553
 2109POPC   NC328427   1.900  42.059   9.600
 2109POPC   PO428428   1.814  41.398   9.604
 2109POPC   GL128429   1.919  41.436   9.196
 2109POPC   GL228430   2.085  41.747   9.201
 2109POPC   C1A28431   1.917  41.299   8.767
 2109POPC   D2A28432   1.776  41.497   8.381
 2109POPC   C3A28433   2.014  41.431   8.006
 2109POPC   C4A28434   2.002  41.396   7.558
 2109POPC   C1B28435   1.935  41.830   8.781
 2109POPC   C2B28436   1.913  42.022   8.358
 2109POPC   C3B28437   1.943  41.928   7.929
 2109POPC   C4B28438   2.240  41.897   7.583
 2110POPC   NC328439  42.700  15.191   9.460
 2110POPC   PO428440  43.224  14.889   9.237
 2110POPC   GL128441  43.154  15.279   9.019
 2110POPC   GL228442  42.861  15.502   9.072
 2110POPC   C1A28443  43.334  15.356   8.601
 2110POPC   D2A28444  43.449  15.115   8.217
 2110POPC   C3A28445  43.146  15.169   7.869
 2110POPC   C4A28446  43.122  15.383   7.471
 2110POPC   C1B28447  42.767  15.411   8.656
 2110POPC   C2B28448  42.861  15.392   8.238
 2110POPC   C3B28449  42.656  15.337   7.825
 2110POPC   C4B28450  42.674  15.618   7.494
 2111POPC   NC328451   3.915   9.784   9.452
 2111POPC   PO428452   3.257   9.606   9.486
 2111POPC   GL128453   3.467   9.515   9.048
 2111POPC   GL228454   3.843   9.424   9.064
 2111POPC   C1A28455   3.407   9.653   8.606
 2111POPC   D2A28456   3.373   9.962   8.287
 2111POPC   C3A28457   3.461   9.769   7.903
 2111POPC   C4A28458   3.379   9.699   7.465
 2111POPC   C1B28459   3.851   9.799   8.787
 2111POPC   C2B28460   3.909   9.891   8.359
 2111POPC   C3B28461   3.931  10.092   7.959
 2111POPC   C4B28462   3.867   9.825   7.602
 2112POPC   NC328463  29.782  22.165   9.720
 2112POPC   PO428464  30.296  22.001   9.331
 2112POPC   GL128465  30.082  22.089   8.945
 2112POPC   GL228466  29.764  22.240   8.983
 2112POPC   C1A28467  30.090  22.186   8.507
 2112POPC   D2A28468  29.878  22.503   8.268
 2112POPC   C3A28469  30.002  22.537   7.829
 2112POPC   C4A28470  30.161  22.257   7.536
 2112POPC   C1B28471  29.583  22.112   8.611
 2112POPC   C2B28472  29.429  22.255   8.249
 2112POPC   C3B28473  29.585  22.242   7.857
 2112POPC   C4B28474  29.612  21.935   7.547
 2113POPC   NC328475   2.131  40.248   9.397
 2113POPC   PO428476   1.860  39.647   9.458
 2113POPC   GL128477   2.182  39.773   9.161
 2113POPC   GL228478   1.860  39.815   8.976
 2113POPC   C1A28479   2.263  39.783   8.710
 2113POPC   D2A28480   1.954  39.773   8.412
 2113POPC   C3A28481   1.841  40.053   8.121
 2113POPC   C4A28482   1.793  39.862   7.721
 2113POPC   C1B28483   1.929  40.205   8.709
 2113POPC   C2B28484   2.063  40.517   8.384
 2113POPC   C3B28485   2.086  40.463   7.942
 2113POPC   C4B28486   1.679  40.375   7.720
 2114POPC   NC328487   8.043  23.521   9.527
 2114POPC   PO428488   8.367  24.062   9.546
 2114POPC   GL128489   8.255  23.920   9.124
 2114POPC   GL228490   7.889  23.868   9.096
 2114POPC   C1A28491   8.208  24.065   8.672
 2114POPC   D2A28492   7.916  24.000   8.292
 2114POPC   C3A28493   8.153  23.810   7.963
 2114POPC   C4A28494   8.532  24.003   7.783
 2114POPC   C1B28495   7.925  23.648   8.676
 2114POPC   C2B28496   8.149  23.420   8.359
 2114POPC   C3B28497   8.087  23.261   7.934
 2114POPC   C4B28498   8.074  23.504   7.534
 2115POPC   NC328499  38.579  25.510   9.449
 2115POPC   PO428500  38.180  25.019   9.496
 2115POPC   GL128501  38.536  25.106   9.141
 2115POPC   GL228502  38.771  25.438   9.003
 2115POPC   C1A28503  38.584  25.063   8.697
 2115POPC   D2A28504  38.235  25.154   8.443
 2115POPC   C3A28505  38.309  24.994   8.046
 2115POPC   C4A28506  38.350  25.151   7.660
 2115POPC   C1B28507  38.514  25.578   8.687
 2115POPC   C2B28508  38.611  25.442   8.290
 2115POPC   C3B28509  38.392  25.516   7.999
 2115POPC   C4B28510  38.471  25.850   7.743
 2116POPC   NC328511   3.679  19.590   9.558
 2116POPC   PO428512   3.068  19.668   9.509
 2116POPC   GL128513   3.358  19.501   9.137
 2116POPC   GL228514   3.759  19.428   9.088
 2116POPC   C1A28515   3.427  19.550   8.695
 2116POPC   D2A28516   3.253  19.501   8.288
 2116POPC   C3A28517   3.335  19.749   7.936
 2116POPC   C4A28518   3.450  19.583   7.557
 2116POPC   C1B28519   3.904  19.717   8.753
 2116POPC   C2B28520   3.764  19.710   8.312
 2116POPC   C3B28521   3.865  19.869   7.916
 2116POPC   C4B28522   3.743  20.010   7.529
 2117POPC   NC328523  40.421  31.510   9.518
 2117POPC   PO428524  40.988  31.527   9.402
 2117POPC   GL128525  40.670  31.580   9.084
 2117POPC   GL228526  40.953  31.677   8.888
 2117POPC   C1A28527  40.502  31.615   8.661
 2117POPC   D2A28528  40.869  31.605   8.382
 2117POPC   C3A28529  40.785  31.709   7.950
 2117POPC   C4A28530  40.494  31.449   7.681
 2117POPC   C1B28531  40.866  31.218   8.773
 2117POPC   C2B28532  41.064  31.040   8.419
 2117POPC   C3B28533  41.130  31.309   8.066
 2117POPC   C4B28534  40.998  31.257   7.673
 2118POPC   NC328535   8.101   0.663   9.429
 2118POPC   PO428536   8.541   0.286   9.474
 2118POPC   GL128537   8.412   0.342   9.054
 2118POPC   GL228538   8.349   0.695   8.989
 2118POPC   C1A28539   8.374   0.262   8.592
 2118POPC   D2A28540   8.477   0.490   8.246
 2118POPC   C3A28541   8.535   0.340   7.834
 2118POPC   C4A28542   8.283   0.185   7.529
 2118POPC   C1B28543   7.977   0.466   8.807
 2118POPC   C2B28544   7.935   0.547   8.373
 2118POPC   C3B28545   8.056   0.468   7.947
 2118POPC   C4B28546   8.051   0.629   7.512
 2119POPC   NC328547  15.065   1.069  10.027
 2119POPC   PO428548  15.321   1.373   9.529
 2119POPC   GL128549  15.162   1.144   9.226
 2119POPC   GL228550  15.342   0.836   9.226
 2119POPC   C1A28551  15.058   1.295   8.832
 2119POPC   D2A28552  14.929   1.128   8.458
 2119POPC   C3A28553  15.084   1.430   8.135
 2119POPC   C4A28554  15.056   1.404   7.732
 2119POPC   C1B28555  15.138   0.791   8.826
 2119POPC   C2B28556  15.271   0.762   8.415
 2119POPC   C3B28557  15.130   0.905   7.998
 2119POPC   C4B28558  15.281   0.797   7.584
 2120POPC   NC328559  13.972  28.830   9.347
 2120POPC   PO428560  14.589  28.948   9.496
 2120POPC   GL128561  14.466  29.099   9.092
 2120POPC   GL228562  14.634  29.425   9.032
 2120POPC   C1A28563  14.314  29.188   8.675
 2120POPC   D2A28564  14.243  29.426   8.298
 2120POPC   C3A28565  14.271  29.118   8.022
 2120POPC   C4A28566  14.457  29.008   7.676
 2120POPC   C1B28567  14.837  29.173   8.737
 2120POPC   C2B28568  14.771  29.199   8.328
 2120POPC   C3B28569  14.743  29.315   7.951
 2120POPC   C4B28570  14.414  29.537   7.758
 2121POPC   NC328571  14.435  13.180   9.459
 2121POPC   PO428572  14.169  13.801   9.348
 2121POPC   GL128573  14.513  13.646   9.117
 2121POPC   GL228574  14.354  13.340   8.989
 2121POPC   C1A28575  14.499  13.722   8.679
 2121POPC   D2A28576  14.246  13.567   8.356
 2121POPC   C3A28577  14.455  13.636   7.993
 2121POPC   C4A28578  14.324  13.917   7.735
 2121POPC   C1B28579  14.174  13.074   8.689
 2121POPC   C2B28580  14.167  13.049   8.260
 2121POPC   C3B28581  14.159  13.227   7.867
 2121POPC   C4B28582  14.456  13.371   7.550
 2122POPC   NC328583  12.099   8.858   9.576
 2122POPC   PO428584  12.482   9.301   9.345
 2122POPC   GL128585  12.143   9.043   9.113
 2122POPC   GL228586  11.823   8.760   9.176
 2122POPC   C1A28587  11.954   9.068   8.750
 2122POPC   D2A28588  11.715   9.267   8.429
 2122POPC   C3A28589  11.865   9.158   8.051
 2122POPC   C4A28590  11.841   9.003   7.630
 2122POPC   C1B28591  11.775   8.597   8.791
 2122POPC   C2B28592  11.780   8.759   8.392
 2122POPC   C3B28593  11.920   8.634   8.029
 2122POPC   C4B28594  11.694   8.449   7.708
 2123POPC   NC328595  31.798  14.391   9.449
 2123POPC   PO428596  32.532  14.323   9.435
 2123POPC   GL128597  32.251  14.385   9.147
 2123POPC   GL228598  32.087  14.069   9.150
 2123POPC   C1A28599  32.433  14.413   8.759
 2123POPC   D2A28600  32.442  14.719   8.452
 2123POPC   C3A28601  32.529  14.496   8.112
 2123POPC   C4A28602  32.328  14.551   7.754
 2123POPC   C1B28603  31.921  14.248   8.768
 2123POPC   C2B28604  32.113  14.274   8.379
 2123POPC   C3B28605  32.144  14.124   7.974
 2123POPC   C4B28606  32.381  13.751   7.799
 2124POPC   NC328607  37.372  22.281   9.560
 2124POPC   PO428608  36.657  22.334   9.601
 2124POPC   GL128609  36.935  22.145   9.319
 2124POPC   GL228610  36.694  22.013   9.147
 2124POPC   C1A28611  37.059  22.264   8.876
 2124POPC   D2A28612  36.983  22.573   8.508
 2124POPC   C3A28613  36.985  22.391   8.063
 2124POPC   C4A28614  37.174  22.088   7.736
 2124POPC   C1B28615  36.506  22.248   8.843
 2124POPC   C2B28616  36.645  22.174   8.447
 2124POPC   C3B28617  36.517  22.186   8.035
 2124POPC   C4B28618  36.674  22.232   7.655
 2125POPC   NC328619  12.510  16.883   9.479
 2125POPC   PO428620  11.860  16.756   9.581
 2125POPC   GL128621  11.868  16.586   9.184
 2125POPC   GL228622  12.221  16.587   9.157
 2125POPC   C1A28623  11.874  16.613   8.744
 2125POPC   D2A28624  11.799  16.816   8.358
 2125POPC   C3A28625  11.930  16.592   7.972
 2125POPC   C4A28626  12.171  16.539   7.628
 2125POPC   C1B28627  12.386  16.840   8.811
 2125POPC   C2B28628  12.318  17.004   8.402
 2125POPC   C3B28629  12.428  16.857   8.007
 2125POPC   C4B28630  12.396  16.994   7.591
 2126POPC   NC328631  42.980   9.921   9.460
 2126POPC   PO428632  42.822   9.251   9.524
 2126POPC   GL128633  43.010   9.521   9.145
 2126POPC   GL228634  42.859   9.829   8.979
 2126POPC   C1A28635  43.285   9.692   8.778
 2126POPC   D2A28636  43.061   9.848   8.411
 2126POPC   C3A28637  43.258   9.774   8.043
 2126POPC   C4A28638  43.107   9.559   7.718
 2126POPC   C1B28639  42.681  10.153   8.692
 2126POPC   C2B28640  42.857  10.315   8.309
 2126POPC   C3B28641  42.854  10.072   7.934
 2126POPC   C4B28642  43.106  10.028   7.573
 2127POPC   NC328643  40.849  37.282   9.366
 2127POPC   PO428644  40.560  37.830   9.486
 2127POPC   GL128645  40.705  37.705   9.114
 2127POPC   GL228646  40.457  37.470   9.048
 2127POPC   C1A28647  40.729  37.742   8.685
 2127POPC   D2A28648  40.498  37.727   8.335
 2127POPC   C3A28649  40.604  37.926   7.958
 2127POPC   C4A28650  40.711  37.776   7.534
 2127POPC   C1B28651  40.299  37.325   8.639
 2127POPC   C2B28652  40.296  37.297   8.155
 2127POPC   C3B28653  40.326  37.541   7.769
 2127POPC   C4B28654  40.427  37.435   7.297
 2128POPC   NC328655  13.133  40.733   9.227
 2128POPC   PO428656  13.676  41.001   9.617
 2128POPC   GL128657  13.612  40.923   9.189
 2128POPC   GL228658  13.670  40.546   9.102
 2128POPC   C1A28659  13.682  40.919   8.746
 2128POPC   D2A28660  13.747  40.686   8.386
 2128POPC   C3A28661  13.669  40.948   8.044
 2128POPC   C4A28662  13.771  40.983   7.645
 2128POPC   C1B28663  13.400  40.468   8.727
 2128POPC   C2B28664  13.241  40.662   8.346
 2128POPC   C3B28665  13.432  40.485   8.030
 2128POPC   C4B28666  13.442  40.517   7.624
 2129POPC   NC328667   2.187  16.298   9.912
 2129POPC   PO428668   1.894  16.045   9.364
 2129POPC   GL128669   1.958  15.888   9.001
 2129POPC   GL228670   2.013  15.532   9.045
 2129POPC   C1A28671   2.214  16.061   8.692
 2129POPC   D2A28672   2.425  16.299   8.392
 2129POPC   C3A28673   2.082  16.373   8.137
 2129POPC   C4A28674   2.002  16.152   7.782
 2129POPC   C1B28675   2.077  15.593   8.583
 2129POPC   C2B28676   2.120  15.827   8.201
 2129POPC   C3B28677   1.915  15.667   7.822
 2129POPC   C4B28678   1.459  15.776   7.807
 2130POPC   NC328679   5.184  11.037   9.490
 2130POPC   PO428680   5.443  11.763   9.536
 2130POPC   GL128681   5.244  11.515   9.171
 2130POPC   GL228682   4.882  11.372   9.107
 2130POPC   C1A28683   5.208  11.419   8.716
 2130POPC   D2A28684   4.826  11.454   8.422
 2130POPC   C3A28685   5.017  11.511   8.037
 2130POPC   C4A28686   5.463  11.474   7.882
 2130POPC   C1B28687   4.867  11.033   8.738
 2130POPC   C2B28688   5.083  10.995   8.308
 2130POPC   C3B28689   5.058  11.037   7.839
 2130POPC   C4B28690   4.787  11.204   7.485
 2131POPC   NC328691  13.610  31.259   9.847
 2131POPC   PO428692  13.930  31.716   9.486
 2131POPC   GL128693  13.651  31.575   9.151
 2131POPC   GL228694  13.544  31.207   9.146
 2131POPC   C1A28695  13.724  31.552   8.719
 2131POPC   D2A28696  13.482  31.618   8.329
 2131POPC   C3A28697  13.746  31.604   7.962
 2131POPC   C4A28698  13.946  31.465   7.563
 2131POPC   C1B28699  13.347  31.194   8.745
 2131POPC   C2B28700  13.227  31.045   8.333
 2131POPC   C3B28701  13.401  31.226   7.982
 2131POPC   C4B28702  13.441  31.414   7.581
 2132POPC   NC328703   2.563  31.077   9.481
 2132POPC   PO428704   2.919  31.680   9.476
 2132POPC   GL128705   2.733  31.630   9.068
 2132POPC   GL228706   2.525  31.311   9.049
 2132POPC   C1A28707   3.001  31.449   8.743
 2132POPC   D2A28708   3.171  31.493   8.342
 2132POPC   C3A28709   2.952  31.730   8.056
 2132POPC   C4A28710   2.886  31.667   7.621
 2132POPC   C1B28711   2.502  31.386   8.651
 2132POPC   C2B28712   2.731  31.217   8.334
 2132POPC   C3B28713   2.732  31.284   7.933
 2132POPC   C4B28714   2.496  31.326   7.613
 2133POPC   NC328715  44.739  37.359   9.537
 2133POPC   PO428716  44.173  37.791   9.464
 2133POPC   GL128717  44.483  37.634   9.169
 2133POPC   GL228718  44.841  37.715   9.170
 2133POPC   C1A28719  44.481  37.709   8.735
 2133POPC   D2A28720  44.616  37.700   8.333
 2133POPC   C3A28721  44.430  37.723   7.929
 2133POPC   C4A28722  44.630  38.075   7.782
 2133POPC   C1B28723  44.868  37.384   8.850
 2133POPC   C2B28724  44.974  37.330   8.398
 2133POPC   C3B28725  44.905  37.504   7.967
 2133POPC   C4B28726   0.167  37.593   7.562
 2134POPC   NC328727  32.539  13.843   9.420
 2134POPC   PO428728  32.264  13.245   9.567
 2134POPC   GL128729  32.490  13.350   9.208
 2134POPC   GL228730  32.197  13.564   9.145
 2134POPC   C1A28731  32.572  13.511   8.786
 2134POPC   D2A28732  32.391  13.354   8.374
 2134POPC   C3A28733  32.507  13.148   7.958
 2134POPC   C4A28734  32.621  13.358   7.545
 2134POPC   C1B28735  32.118  13.737   8.722
 2134POPC   C2B28736  32.053  13.728   8.271
 2134POPC   C3B28737  31.868  13.693   7.836
 2134POPC   C4B28738  32.016  13.702   7.398
 2135POPC   NC328739   0.809  34.938   9.414
 2135POPC   PO428740   1.383  35.194   9.557
 2135POPC   GL128741   1.412  35.288   9.149
 2135POPC   GL228742   1.165  35.055   9.070
 2135POPC   C1A28743   1.208  35.411   8.744
 2135POPC   D2A28744   1.090  35.145   8.410
 2135POPC   C3A28745   1.181  35.433   8.110
 2135POPC   C4A28746   1.304  35.363   7.718
 2135POPC   C1B28747   1.519  35.009   8.729
 2135POPC   C2B28748   1.626  35.022   8.290
 2135POPC   C3B28749   1.338  34.922   7.948
 2135POPC   C4B28750   0.890  35.064   7.883
 2136POPC   NC328751   3.370  22.948   9.935
 2136POPC   PO428752   3.744  22.672   9.507
 2136POPC   GL128753   3.516  23.011   9.259
 2136POPC   GL228754   3.781  22.966   9.028
 2136POPC   C1A28755   3.398  23.238   8.838
 2136POPC   D2A28756   3.585  23.304   8.421
 2136POPC   C3A28757   3.407  23.221   8.004
 2136POPC   C4A28758   3.622  23.254   7.599
 2136POPC   C1B28759   3.680  22.823   8.616
 2136POPC   C2B28760   3.781  22.892   8.192
 2136POPC   C3B28761   3.656  22.790   7.788
 2136POPC   C4B28762   3.863  22.813   7.387
 2137POPC   NC328763   5.069   0.177   9.594
 2137POPC   PO428764   5.285   0.840   9.577
 2137POPC   GL128765   5.096   0.581   9.182
 2137POPC   GL228766   4.984   0.196   9.099
 2137POPC   C1A28767   4.888   0.557   8.763
 2137POPC   D2A28768   4.898   0.532   8.325
 2137POPC   C3A28769   5.335   0.394   8.170
 2137POPC   C4A28770   5.446   0.497   7.753
 2137POPC   C1B28771   5.108   0.101   8.642
 2137POPC   C2B28772   4.991   0.031   8.210
 2137POPC   C3B28773   4.925   0.307   7.852
 2137POPC   C4B28774   4.693   0.214   7.461
 2138POPC   NC328775  10.598  39.594   9.664
 2138POPC   PO428776  10.457  40.230   9.453
 2138POPC   GL128777  10.405  40.077   9.091
 2138POPC   GL228778  10.138  40.288   9.050
 2138POPC   C1A28779  10.570  39.798   8.763
 2138POPC   D2A28780  10.726  39.895   8.345
 2138POPC   C3A28781  10.540  39.672   7.947
 2138POPC   C4A28782  10.584  39.644   7.467
 2138POPC   C1B28783  10.353  40.263   8.627
 2138POPC   C2B28784  10.315  40.163   8.204
 2138POPC   C3B28785  10.030  40.277   7.918
 2138POPC   C4B28786  10.122  40.425   7.533
 2139POPC   NC328787  36.006  21.013   9.629
 2139POPC   PO428788  36.449  21.501   9.576
 2139POPC   GL128789  36.187  21.287   9.230
 2139POPC   GL228790  36.351  21.089   8.977
 2139POPC   C1A28791  36.050  21.448   8.801
 2139POPC   D2A28792  36.217  21.301   8.424
 2139POPC   C3A28793  35.960  21.437   8.115
 2139POPC   C4A28794  36.062  21.435   7.700
 2139POPC   C1B28795  35.967  20.956   8.697
 2139POPC   C2B28796  35.881  20.919   8.263
 2139POPC   C3B28797  36.212  21.012   7.952
 2139POPC   C4B28798  36.190  20.962   7.501
 2140POPC   NC328799   7.860  42.638   9.503
 2140POPC   PO428800   7.991  41.964   9.427
 2140POPC   GL128801   8.135  42.171   9.103
 2140POPC   GL228802   8.027  42.484   9.067
 2140POPC   C1A28803   8.382  42.195   8.756
 2140POPC   D2A28804   8.149  42.195   8.396
 2140POPC   C3A28805   8.357  42.213   8.022
 2140POPC   C4A28806   8.286  42.334   7.613
 2140POPC   C1B28807   8.108  42.618   8.690
 2140POPC   C2B28808   8.010  42.803   8.313
 2140POPC   C3B28809   8.132  42.787   7.916
 2140POPC   C4B28810   7.904  42.661   7.584
 2141POPC   NC328811  15.076  31.736   9.434
 2141POPC   PO428812  15.332  31.077   9.466
 2141POPC   GL128813  15.192  31.320   9.156
 2141POPC   GL228814  15.485  31.546   9.128
 2141POPC   C1A28815  14.961  31.522   8.820
 2141POPC   D2A28816  14.948  31.393   8.433
 2141POPC   C3A28817  14.711  31.619   8.149
 2141POPC   C4A28818  14.895  31.575   7.781
 2141POPC   C1B28819  15.443  31.382   8.698
 2141POPC   C2B28820  15.519  31.532   8.280
 2141POPC   C3B28821  15.415  31.504   7.829
 2141POPC   C4B28822  15.444  31.520   7.330
 2142POPC   NC328823  20.424   1.829   9.496
 2142POPC   PO428824  20.358   2.433   9.189
 2142POPC   GL128825  20.500   2.037   8.998
 2142POPC   GL228826  20.625   1.700   9.060
 2142POPC   C1A28827  20.511   1.838   8.575
 2142POPC   D2A28828  20.534   1.711   8.144
 2142POPC   C3A28829  20.446   2.052   7.853
 2142POPC   C4A28830  20.121   2.360   7.839
 2142POPC   C1B28831  20.984   1.707   8.771
 2142POPC   C2B28832  20.981   1.556   8.350
 2142POPC   C3B28833  20.995   1.801   7.949
 2142POPC   C4B28834  20.928   2.254   7.833
 2143POPC   NC328835  28.084  29.383   9.521
 2143POPC   PO428836  28.646  29.015   9.491
 2143POPC   GL128837  28.503  29.195   9.145
 2143POPC   GL228838  28.209  28.996   9.181
 2143POPC   C1A28839  28.598  29.145   8.710
 2143POPC   D2A28840  28.602  29.032   8.275
 2143POPC   C3A28841  28.535  29.351   7.971
 2143POPC   C4A28842  28.553  29.541   7.573
 2143POPC   C1B28843  28.095  29.022   8.747
 2143POPC   C2B28844  28.043  28.964   8.309
 2143POPC   C3B28845  28.168  28.982   7.920
 2143POPC   C4B28846  28.103  29.337   7.639
 2144POPC   NC328847  41.223  34.833   9.246
 2144POPC   PO428848  40.734  34.478   9.624
 2144POPC   GL128849  40.720  34.590   9.184
 2144POPC   GL228850  40.955  34.391   9.034
 2144POPC   C1A28851  40.667  34.702   8.724
 2144POPC   D2A28852  40.454  34.865   8.332
 2144POPC   C3A28853  40.624  34.718   7.943
 2144POPC   C4A28854  41.012  34.809   7.764
 2144POPC   C1B28855  41.205  34.494   8.672
 2144POPC   C2B28856  41.097  34.529   8.256
 2144POPC   C3B28857  40.997  34.309   7.910
 2144POPC   C4B28858  40.810  34.352   7.525
 2145POPC   NC328859  13.984  32.803   9.386
 2145POPC   PO428860  14.614  33.118   9.441
 2145POPC   GL128861  14.433  32.922   9.092
 2145POPC   GL228862  14.163  33.163   9.053
 2145POPC   C1A28863  14.502  32.984   8.661
 2145POPC   D2A28864  14.191  33.042   8.301
 2145POPC   C3A28865  14.303  32.927   7.886
 2145POPC   C4A28866  14.605  33.077   7.567
 2145POPC   C1B28867  13.917  33.298   8.700
 2145POPC   C2B28868  13.884  33.541   8.341
 2145POPC   C3B28869  13.892  33.333   7.969
 2145POPC   C4B28870  14.173  33.382   7.653
 2146POPC   NC328871  30.963  12.678   9.450
 2146POPC   PO428872  31.695  12.832   9.489
 2146POPC   GL128873  31.513  12.977   9.128
 2146POPC   GL228874  31.316  12.685   9.065
 2146POPC   C1A28875  31.728  12.900   8.768
 2146POPC   D2A28876  31.669  12.722   8.376
 2146POPC   C3A28877  31.534  13.037   8.069
 2146POPC   C4A28878  31.634  13.233   7.663
 2146POPC   C1B28879  31.217  12.855   8.638
 2146POPC   C2B28880  31.180  12.676   8.221
 2146POPC   C3B28881  31.455  12.541   7.899
 2146POPC   C4B28882  31.507  12.562   7.459
 2147POPC   NC328883  23.117  24.297   9.813
 2147POPC   PO428884  22.641  24.658   9.411
 2147POPC   GL128885  22.936  24.622   8.991
 2147POPC   GL228886  22.715  24.629   8.721
 2147POPC   C1A28887  23.180  24.509   8.605
 2147POPC   D2A28888  22.903  24.388   8.238
 2147POPC   C3A28889  22.920  24.642   7.905
 2147POPC   C4A28890  23.313  24.689   7.857
 2147POPC   C1B28891  22.820  24.142   8.671
 2147POPC   C2B28892  22.911  23.866   8.287
 2147POPC   C3B28893  22.756  23.986   7.888
 2147POPC   C4B28894  22.677  24.303   7.573
 2148POPC   NC328895  23.136  32.738   9.599
 2148POPC   PO428896  22.479  32.808   9.617
 2148POPC   GL128897  22.801  32.907   9.235
 2148POPC   GL228898  23.149  32.746   9.103
 2148POPC   C1A28899  22.843  32.994   8.776
 2148POPC   D2A28900  22.752  32.832   8.383
 2148POPC   C3A28901  22.648  33.041   8.011
 2148POPC   C4A28902  22.677  32.894   7.615
 2148POPC   C1B28903  23.364  32.906   8.736
 2148POPC   C2B28904  23.267  32.788   8.318
 2148POPC   C3B28905  23.159  32.873   7.867
 2148POPC   C4B28906  23.322  33.040   7.445
 2149POPC   NC328907  34.339  18.399   9.472
 2149POPC   PO428908  34.363  17.756   9.386
 2149POPC   GL128909  34.651  18.017   9.119
 2149POPC   GL228910  34.655  18.407   9.092
 2149POPC   C1A28911  34.846  18.160   8.715
 2149POPC   D2A28912  34.634  18.283   8.396
 2149POPC   C3A28913  34.838  18.220   8.031
 2149POPC   C4A28914  34.774  18.400   7.660
 2149POPC   C1B28915  34.309  18.480   8.784
 2149POPC   C2B28916  34.136  18.379   8.374
 2149POPC   C3B28917  34.328  18.376   7.981
 2149POPC   C4B28918  34.333  18.675   7.676
 2150POPC   NC328919  35.274  24.835   9.438
 2150POPC   PO428920  35.413  25.572   9.605
 2150POPC   GL128921  35.489  25.649   9.196
 2150POPC   GL228922  35.213  25.390   9.134
 2150POPC   C1A28923  35.480  25.614   8.753
 2150POPC   D2A28924  35.528  25.344   8.416
 2150POPC   C3A28925  35.412  25.445   7.987
 2150POPC   C4A28926  35.436  25.269   7.561
 2150POPC   C1B28927  35.145  25.175   8.732
 2150POPC   C2B28928  35.025  25.256   8.281
 2150POPC   C3B28929  35.053  25.090   7.866
 2150POPC   C4B28930  35.010  25.014   7.417
 2151POPC   NC328931  25.753  26.194   9.454
 2151POPC   PO428932  26.356  25.788   9.460
 2151POPC   GL128933  26.022  25.788   9.189
 2151POPC   GL228934  26.138  26.120   9.048
 2151POPC   C1A28935  25.770  25.857   8.829
 2151POPC   D2A28936  25.936  26.038   8.453
 2151POPC   C3A28937  25.926  25.843   8.063
 2151POPC   C4A28938  26.279  25.831   7.781
 2151POPC   C1B28939  26.118  26.441   8.706
 2151POPC   C2B28940  26.011  26.540   8.261
 2151POPC   C3B28941  26.096  26.338   7.844
 2151POPC   C4B28942  25.882  26.387   7.447
 2152POPC   NC328943  10.921  28.342   9.757
 2152POPC   PO428944  10.425  28.429   9.304
 2152POPC   GL128945  10.396  28.172   9.005
 2152POPC   GL228946  10.405  28.521   8.811
 2152POPC   C1A28947  10.566  28.065   8.668
 2152POPC   D2A28948  10.556  28.307   8.334
 2152POPC   C3A28949  10.491  28.140   7.967
 2152POPC   C4A28950  10.532  28.511   7.820
 2152POPC   C1B28951  10.838  28.500   8.712
 2152POPC   C2B28952  11.020  28.703   8.368
 2152POPC   C3B28953  10.931  28.766   7.944
 2152POPC   C4B28954  10.883  28.626   7.483
 2153POPC   NC328955  28.662  35.342   9.546
 2153POPC   PO428956  28.041  35.420   9.691
 2153POPC   GL128957  28.207  35.533   9.268
 2153POPC   GL228958  28.551  35.577   9.112
 2153POPC   C1A28959  28.155  35.508   8.819
 2153POPC   D2A28960  28.267  35.307   8.428
 2153POPC   C3A28961  28.277  35.503   7.989
 2153POPC   C4A28962  28.162  35.375   7.556
 2153POPC   C1B28963  28.668  35.573   8.663
 2153POPC   C2B28964  28.743  35.459   8.231
 2153POPC   C3B28965  28.961  35.624   7.914
 2153POPC   C4B28966  28.664  35.525   7.637
 2154POPC   NC328967  24.893  34.921   9.333
 2154POPC   PO428968  25.591  35.082   9.436
 2154POPC   GL128969  25.361  34.989   9.085
 2154POPC   GL228970  25.161  35.301   9.141
 2154POPC   C1A28971  25.523  35.148   8.692
 2154POPC   D2A28972  25.673  35.442   8.357
 2154POPC   C3A28973  25.493  35.395   7.937
 2154POPC   C4A28974  25.276  35.059   7.672
 2154POPC   C1B28975  25.011  35.226   8.745
 2154POPC   C2B28976  25.181  35.241   8.338
 2154POPC   C3B28977  24.992  35.317   7.986
 2154POPC   C4B28978  24.831  35.316   7.579
 2155POPC   NC328979  26.386   9.687   9.883
 2155POPC   PO428980  26.013   9.855   9.337
 2155POPC   GL128981  25.887   9.878   8.975
 2155POPC   GL228982  25.742  10.188   8.973
 2155POPC   C1A28983  25.906   9.590   8.619
 2155POPC   D2A28984  25.768   9.643   8.204
 2155POPC   C3A28985  25.890   9.358   7.861
 2155POPC   C4A28986  26.296   9.223   7.679
 2155POPC   C1B28987  25.746  10.083   8.538
 2155POPC   C2B28988  25.654  10.138   8.143
 2155POPC   C3B28989  25.796   9.954   7.787
 2155POPC   C4B28990  26.209  10.035   7.691
 2156POPC   NC328991  24.856  43.021   9.611
 2156POPC   PO428992  24.188  43.178   9.767
 2156POPC   GL128993  24.276  43.092   9.308
 2156POPC   GL228994  24.587  43.250   9.200
 2156POPC   C1A28995  24.348  42.913   8.872
 2156POPC   D2A28996  24.590  42.926   8.471
 2156POPC   C3A28997  24.444  42.883   8.042
 2156POPC   C4A28998  24.623  42.811   7.657
 2156POPC   C1B28999  24.555  43.386   8.733
 2156POPC   C2B29000  24.431  43.384   8.274
 2156POPC   C3B29001  24.501  43.336   7.814
 2156POPC   C4B29002  24.472  43.219   7.388
 2157POPC   NC329003  28.064  19.563   9.411
 2157POPC   PO429004  28.591  20.000   9.496
 2157POPC   GL129005  28.488  19.812   9.137
 2157POPC   GL229006  28.204  20.034   9.085
 2157POPC   C1A29007  28.653  19.899   8.743
 2157POPC   D2A29008  28.604  20.062   8.355
 2157POPC   C3A29009  28.626  19.735   8.087
 2157POPC   C4A29010  28.507  19.699   7.699
 2157POPC   C1B29011  28.084  19.732   8.759
 2157POPC   C2B29012  28.216  19.590   8.345
 2157POPC   C3B29013  28.069  19.548   7.901
 2157POPC   C4B29014  28.076  19.905   7.562
 2158POPC   NC329015   9.399  26.698   9.269
 2158POPC   PO429016   9.022  27.134   9.647
 2158POPC   GL129017   8.997  27.027   9.225
 2158POPC   GL229018   8.848  26.738   9.289
 2158POPC   C1A29019   9.171  27.042   8.776
 2158POPC   D2A29020   9.165  26.748   8.438
 2158POPC   C3A29021   9.329  26.837   8.048
 2158POPC   C4A29022   9.222  26.974   7.649
 2158POPC   C1B29023   8.737  26.764   8.832
 2158POPC   C2B29024   8.630  26.697   8.400
 2158POPC   C3B29025   8.820  26.729   7.997
 2158POPC   C4B29026   8.684  26.685   7.582
 2159POPC   NC329027  25.373   4.592   9.538
 2159POPC   PO429028  25.562   5.233   9.591
 2159POPC   GL129029  25.365   5.006   9.235
 2159POPC   GL229030  25.410   5.288   9.067
 2159POPC   C1A29031  25.146   4.919   8.801
 2159POPC   D2A29032  25.091   5.097   8.386
 2159POPC   C3A29033  25.161   4.857   8.005
 2159POPC   C4A29034  25.326   5.001   7.644
 2159POPC   C1B29035  25.583   5.572   8.793
 2159POPC   C2B29036  25.439   5.545   8.375
 2159POPC   C3B29037  25.567   5.286   8.077
 2159POPC   C4B29038  25.700   5.327   7.670
 2160POPC   NC329039  17.368  29.314   9.788
 2160POPC   PO429040  17.707  28.959   9.374
 2160POPC   GL129041  17.426  29.116   9.062
 2160POPC   GL229042  17.077  28.979   8.976
 2160POPC   C1A29043  17.421  29.245   8.686
 2160POPC   D2A29044  17.702  29.330   8.395
 2160POPC   C3A29045  17.502  29.398   8.022
 2160POPC   C4A29046  17.595  29.416   7.606
 2160POPC   C1B29047  17.239  28.773   8.668
 2160POPC   C2B29048  17.345  28.938   8.269
 2160POPC   C3B29049  17.195  28.986   7.853
 2160POPC   C4B29050  17.390  28.977   7.428
 2161POPC   NC329051  43.387  30.182   9.394
 2161POPC   PO429052  43.004  29.625   9.460
 2161POPC   GL129053  43.115  29.801   9.109
 2161POPC   GL229054  42.825  30.035   9.179
 2161POPC   C1A29055  43.211  29.701   8.669
 2161POPC   D2A29056  43.350  29.936   8.295
 2161POPC   C3A29057  43.085  29.909   7.925
 2161POPC   C4A29058  43.262  29.818   7.525
 2161POPC   C1B29059  42.722  29.866   8.775
 2161POPC   C2B29060  42.832  30.055   8.369
 2161POPC   C3B29061  42.807  30.379   8.039
 2161POPC   C4B29062  42.875  30.543   7.655
 2162POPC   NC329063  16.832  36.582   9.488
 2162POPC   PO429064  16.573  37.165   9.495
 2162POPC   GL129065  16.563  36.906   9.151
 2162POPC   GL229066  16.889  36.863   9.074
 2162POPC   C1A29067  16.450  36.750   8.741
 2162POPC   D2A29068  16.669  36.656   8.331
 2162POPC   C3A29069  16.440  36.780   7.968
 2162POPC   C4A29070  16.443  37.172   7.795
 2162POPC   C1B29071  16.830  37.109   8.730
 2162POPC   C2B29072  17.084  37.002   8.416
 2162POPC   C3B29073  16.919  37.082   8.051
 2162POPC   C4B29074  16.910  36.977   7.653
 2163POPC   NC329075   0.212  12.900   9.783
 2163POPC   PO429076   0.723  13.185   9.627
 2163POPC   GL129077   0.756  12.989   9.216
 2163POPC   GL229078   0.434  12.797   9.191
 2163POPC   C1A29079   0.600  13.054   8.778
 2163POPC   D2A29080   0.382  12.920   8.394
 2163POPC   C3A29081   0.572  13.056   8.007
 2163POPC   C4A29082   0.589  12.964   7.571
 2163POPC   C1B29083   0.444  12.546   8.770
 2163POPC   C2B29084   0.604  12.458   8.325
 2163POPC   C3B29085   0.419  12.575   7.903
 2163POPC   C4B29086   0.416  12.477   7.447
 2164POPC   NC329087  30.567  21.606   9.451
 2164POPC   PO429088  31.187  21.453   9.666
 2164POPC   GL129089  30.986  21.402   9.181
 2164POPC   GL229090  30.679  21.295   9.066
 2164POPC   C1A29091  30.836  21.652   8.763
 2164POPC   D2A29092  30.472  21.771   8.501
 2164POPC   C3A29093  30.648  21.778   8.106
 2164POPC   C4A29094  30.807  21.630   7.730
 2164POPC   C1B29095  30.506  21.267   8.673
 2164POPC   C2B29096  30.577  21.278   8.227
 2164POPC   C3B29097  30.475  21.261   7.791
 2164POPC   C4B29098  30.817  21.193   7.460
 2165POPC   NC329099  43.653  34.953   9.521
 2165POPC   PO429100  44.102  34.411   9.520
 2165POPC   GL129101  43.938  34.495   9.133
 2165POPC   GL229102  43.872  34.834   9.078
 2165POPC   C1A29103  44.007  34.472   8.714
 2165POPC   D2A29104  43.768  34.614   8.389
 2165POPC   C3A29105  44.012  34.433   8.097
 2165POPC   C4A29106  43.975  34.387   7.679
 2165POPC   C1B29107  44.000  35.016   8.703
 2165POPC   C2B29108  43.966  35.093   8.283
 2165POPC   C3B29109  43.969  34.876   7.881
 2165POPC   C4B29110  44.228  34.813   7.504
 2166POPC   NC329111  31.801  38.512   9.495
 2166POPC   PO429112  31.177  38.351   9.612
 2166POPC   GL129113  31.335  38.504   9.189
 2166POPC   GL229114  31.594  38.303   9.083
 2166POPC   C1A29115  31.460  38.611   8.725
 2166POPC   D2A29116  31.331  38.817   8.358
 2166POPC   C3A29117  31.289  38.533   8.025
 2166POPC   C4A29118  31.632  38.624   7.767
 2166POPC   C1B29119  31.603  38.096   8.730
 2166POPC   C2B29120  31.599  38.286   8.338
 2166POPC   C3B29121  31.585  38.122   7.923
 2166POPC   C4B29122  31.694  38.186   7.513
 2167POPC   NC329123  28.288  37.985   9.479
 2167POPC   PO429124  28.072  37.429   9.765
 2167POPC   GL129125  28.092  37.393   9.293
 2167POPC   GL229126  28.385  37.588   9.180
 2167POPC   C1A29127  28.157  37.330   8.822
 2167POPC   D2A29128  28.483  37.440   8.525
 2167POPC   C3A29129  28.343  37.512   8.118
 2167POPC   C4A29130  28.341  37.495   7.702
 2167POPC   C1B29131  28.290  37.853   8.808
 2167POPC   C2B29132  28.303  37.958   8.373
 2167POPC   C3B29133  28.231  37.988   7.915
 2167POPC   C4B29134  28.433  38.030   7.542
 2168POPC   NC329135   8.535  24.424   9.773
 2168POPC   PO429136   7.892  24.604   9.526
 2168POPC   GL129137   8.120  24.422   9.240
 2168POPC   GL229138   8.347  24.709   9.212
 2168POPC   C1A29139   8.043  24.521   8.833
 2168POPC   D2A29140   8.060  24.476   8.415
 2168POPC   C3A29141   8.353  24.295   8.169
 2168POPC   C4A29142   8.100  24.301   7.787
 2168POPC   C1B29143   8.299  24.972   8.838
 2168POPC   C2B29144   8.080  24.966   8.438
 2168POPC   C3B29145   8.210  24.784   8.037
 2168POPC   C4B29146   8.420  25.031   7.766
 2169POPC   NC329147  38.931  31.197   9.645
 2169POPC   PO429148  39.002  31.758   9.338
 2169POPC   GL129149  39.176  31.372   9.137
 2169POPC   GL229150  38.880  31.127   9.154
 2169POPC   C1A29151  39.438  31.390   8.725
 2169POPC   D2A29152  39.630  31.439   8.289
 2169POPC   C3A29153  39.343  31.404   7.938
 2169POPC   C4A29154  38.942  31.596   7.759
 2169POPC   C1B29155  38.845  31.310   8.751
 2169POPC   C2B29156  39.062  31.290   8.377
 2169POPC   C3B29157  38.887  31.128   8.021
 2169POPC   C4B29158  39.050  31.061   7.624
 2170POPC   NC329159  29.564  31.426   9.685
 2170POPC   PO429160  30.225  31.201   9.413
 2170POPC   GL129161  29.990  31.364   9.111
 2170POPC   GL229162  29.651  31.382   9.192
 2170POPC   C1A29163  30.061  31.309   8.693
 2170POPC   D2A29164  29.870  31.079   8.391
 2170POPC   C3A29165  29.891  31.277   7.955
 2170POPC   C4A29166  29.934  31.291   7.480
 2170POPC   C1B29167  29.552  31.348   8.778
 2170POPC   C2B29168  29.669  31.545   8.393
 2170POPC   C3B29169  29.477  31.630   8.016
 2170POPC   C4B29170  29.628  31.660   7.597
 2171POPC   NC329171  31.506   2.247   9.522
 2171POPC   PO429172  31.198   2.837   9.446
 2171POPC   GL129173  31.429   2.759   9.077
 2171POPC   GL229174  31.671   2.551   9.110
 2171POPC   C1A29175  31.365   2.796   8.662
 2171POPC   D2A29176  31.153   2.781   8.263
 2171POPC   C3A29177  31.324   2.762   7.831
 2171POPC   C4A29178  31.231   2.738   7.376
 2171POPC   C1B29179  31.863   2.749   8.725
 2171POPC   C2B29180  31.820   2.842   8.268
 2171POPC   C3B29181  31.726   3.106   7.912
 2171POPC   C4B29182  31.630   3.077   7.463
 2172POPC   NC329183  36.207  29.006   9.482
 2172POPC   PO429184  36.289  29.599   9.281
 2172POPC   GL129185  35.940  29.351   9.122
 2172POPC   GL229186  35.836  28.960   9.151
 2172POPC   C1A29187  35.989  29.226   8.729
 2172POPC   D2A29188  36.246  29.193   8.408
 2172POPC   C3A29189  36.062  29.276   8.048
 2172POPC   C4A29190  36.301  29.020   7.795
 2172POPC   C1B29191  35.642  28.864   8.781
 2172POPC   C2B29192  35.765  28.934   8.349
 2172POPC   C3B29193  35.594  28.906   7.948
 2172POPC   C4B29194  35.812  29.117   7.626
 2173POPC   NC329195   0.953   8.309   9.400
 2173POPC   PO429196   1.632   8.488   9.526
 2173POPC   GL129197   1.396   8.465   9.160
 2173POPC   GL229198   1.410   8.093   9.089
 2173POPC   C1A29199   1.332   8.456   8.721
 2173POPC   D2A29200   1.475   8.077   8.489
 2173POPC   C3A29201   1.293   8.063   8.101
 2173POPC   C4A29202   1.397   8.270   7.720
 2173POPC   C1B29203   1.033   8.033   8.790
 2173POPC   C2B29204   0.821   8.047   8.353
 2173POPC   C3B29205   0.862   7.753   7.999
 2173POPC   C4B29206   1.179   7.829   7.661
 2174POPC   NC329207  18.673   7.968   9.479
 2174POPC   PO429208  19.248   7.661   9.529
 2174POPC   GL129209  19.067   7.868   9.181
 2174POPC   GL229210  19.048   8.260   9.233
 2174POPC   C1A29211  19.054   7.996   8.781
 2174POPC   D2A29212  18.960   7.941   8.403
 2174POPC   C3A29213  19.234   8.024   8.083
 2174POPC   C4A29214  19.013   8.076   7.701
 2174POPC   C1B29215  18.723   8.376   8.915
 2174POPC   C2B29216  18.627   8.311   8.486
 2174POPC   C3B29217  18.809   8.379   8.068
 2174POPC   C4B29218  18.594   8.356   7.660
 2175POPC   NC329219  25.849  11.037   9.629
 2175POPC   PO429220  26.112  11.598   9.809
 2175POPC   GL129221  25.950  11.449   9.318
 2175POPC   GL229222  25.810  11.165   9.153
 2175POPC   C1A29223  26.097  11.431   8.830
 2175POPC   D2A29224  25.989  11.351   8.411
 2175POPC   C3A29225  26.208  11.365   8.011
 2175POPC   C4A29226  26.226  11.607   7.583
 2175POPC   C1B29227  25.592  11.296   8.804
 2175POPC   C2B29228  25.556  11.080   8.431
 2175POPC   C3B29229  25.600  11.330   8.059
 2175POPC   C4B29230  25.828  11.289   7.677
 2176POPC   NC329231  41.700   9.008   9.754
 2176POPC   PO429232  41.367   8.515   9.479
 2176POPC   GL129233  41.635   8.820   9.208
 2176POPC   GL229234  41.644   9.212   9.260
 2176POPC   C1A29235  41.489   8.823   8.760
 2176POPC   D2A29236  41.343   8.767   8.331
 2176POPC   C3A29237  41.540   8.880   7.941
 2176POPC   C4A29238  41.621   8.795   7.492
 2176POPC   C1B29239  41.637   9.325   8.810
 2176POPC   C2B29240  41.691   9.143   8.388
 2176POPC   C3B29241  41.764   9.341   7.999
 2176POPC   C4B29242  41.631   9.288   7.596
 2177POPC   NC329243  39.041  44.363   9.870
 2177POPC   PO429244  39.220  43.707   9.586
 2177POPC   GL129245  39.347  43.847   9.189
 2177POPC   GL229246  39.033  43.687   9.074
 2177POPC   C1A29247  39.261  44.049   8.787
 2177POPC   D2A29248  39.375  43.894   8.414
 2177POPC   C3A29249  39.292  44.179   8.093
 2177POPC   C4A29250  39.170  43.881   7.786
 2177POPC   C1B29251  38.874  43.582   8.669
 2177POPC   C2B29252  38.986  43.552   8.231
 2177POPC   C3B29253  38.744  43.612   7.866
 2177POPC   C4B29254  38.868  43.630   7.429
 2178POPC   NC329255   1.749  37.270   9.412
 2178POPC   PO429256   2.152  36.699   9.652
 2178POPC   GL129257   2.075  36.851   9.219
 2178POPC   GL229258   2.204  37.194   9.181
 2178POPC   C1A29259   1.859  36.797   8.785
 2178POPC   D2A29260   1.992  36.858   8.317
 2178POPC   C3A29261   1.969  36.746   7.862
 2178POPC   C4A29262   1.632  36.543   7.636
 2178POPC   C1B29263   2.151  37.212   8.759
 2178POPC   C2B29264   2.223  37.315   8.339
 2178POPC   C3B29265   1.999  37.236   7.947
 2178POPC   C4B29266   1.628  37.173   7.723
 2179POPC   NC329267  41.385  26.669   9.594
 2179POPC   PO429268  42.069  26.751   9.565
 2179POPC   GL129269  41.716  26.922   9.307
 2179POPC   GL229270  41.713  26.586   9.209
 2179POPC   C1A29271  41.523  26.970   8.879
 2179POPC   D2A29272  41.312  26.998   8.454
 2179POPC   C3A29273  41.456  26.908   8.015
 2179POPC   C4A29274  41.277  27.015   7.624
 2179POPC   C1B29275  41.802  26.553   8.781
 2179POPC   C2B29276  41.770  26.742   8.384
 2179POPC   C3B29277  41.943  26.768   7.958
 2179POPC   C4B29278  41.827  26.664   7.539
 2180POPC   NC329279  15.150  41.327   9.534
 2180POPC   PO429280  14.952  42.009   9.485
 2180POPC   GL129281  14.951  41.662   9.189
 2180POPC   GL229282  15.315  41.561   9.102
 2180POPC   C1A29283  14.935  41.435   8.784
 2180POPC   D2A29284  15.227  41.528   8.434
 2180POPC   C3A29285  15.216  41.321   8.057
 2180POPC   C4A29286  15.026  41.505   7.720
 2180POPC   C1B29287  15.485  41.271   8.784
 2180POPC   C2B29288  15.686  41.204   8.360
 2180POPC   C3B29289  15.725  41.368   7.927
 2180POPC   C4B29290  15.503  41.736   7.778
 2181POPC   NC329291  33.444  41.112   9.297
 2181POPC   PO429292  33.850  40.691   9.440
 2181POPC   GL129293  33.729  40.659   9.050
 2181POPC   GL229294  34.024  40.711   8.870
 2181POPC   C1A29295  33.627  40.968   8.712
 2181POPC   D2A29296  33.702  41.172   8.361
 2181POPC   C3A29297  33.859  40.992   8.008
 2181POPC   C4A29298  33.675  40.954   7.618
 2181POPC   C1B29299  33.998  40.715   8.447
 2181POPC   C2B29300  34.287  40.761   8.127
 2181POPC   C3B29301  34.058  40.566   7.778
 2181POPC   C4B29302  34.008  40.648   7.354
 2182POPC   NC329303   0.724   6.668   9.534
 2182POPC   PO429304   1.177   7.096   9.306
 2182POPC   GL129305   1.360   6.780   9.120
 2182POPC   GL229306   1.086   6.548   9.170
 2182POPC   C1A29307   1.282   6.671   8.707
 2182POPC   D2A29308   1.283   6.452   8.329
 2182POPC   C3A29309   1.550   6.578   7.988
 2182POPC   C4A29310   1.545   6.444   7.574
 2182POPC   C1B29311   0.820   6.490   8.807
 2182POPC   C2B29312   0.717   6.699   8.413
 2182POPC   C3B29313   0.946   6.704   8.040
 2182POPC   C4B29314   1.110   6.390   7.808
 2183POPC   NC329315   6.458   5.908   9.545
 2183POPC   PO429316   6.483   5.254   9.594
 2183POPC   GL129317   6.483   5.644   9.143
 2183POPC   GL229318   6.795   5.940   9.158
 2183POPC   C1A29319   6.460   5.994   8.803
 2183POPC   D2A29320   6.496   5.927   8.354
 2183POPC   C3A29321   6.395   6.020   7.925
 2183POPC   C4A29322   6.667   5.854   7.578
 2183POPC   C1B29323   6.966   5.975   8.735
 2183POPC   C2B29324   6.983   5.715   8.380
 2183POPC   C3B29325   6.916   5.920   8.020
 2183POPC   C4B29326   7.184   5.982   7.692
 2184POPC   NC329327  34.112  23.755   9.385
 2184POPC   PO429328  34.715  23.430   9.457
 2184POPC   GL129329  34.521  23.555   9.089
 2184POPC   GL229330  34.493  23.909   9.096
 2184POPC   C1A29331  34.654  23.654   8.670
 2184POPC   D2A29332  34.734  23.872   8.300
 2184POPC   C3A29333  34.503  23.655   7.985
 2184POPC   C4A29334  34.592  23.343   7.683
 2184POPC   C1B29335  34.427  24.146   8.720
 2184POPC   C2B29336  34.235  24.067   8.324
 2184POPC   C3B29337  34.472  24.162   7.954
 2184POPC   C4B29338  34.327  23.915   7.566
 2185POPC   NC329339  27.863  14.852   9.599
 2185POPC   PO429340  28.367  14.423   9.553
 2185POPC   GL129341  28.433  14.287   9.167
 2185POPC   GL229342  28.146  14.454   9.051
 2185POPC   C1A29343  28.599  14.452   8.767
 2185POPC   D2A29344  28.393  14.592   8.369
 2185POPC   C3A29345  28.551  14.392   8.001
 2185POPC   C4A29346  28.718  14.392   7.620
 2185POPC   C1B29347  28.154  14.211   8.670
 2185POPC   C2B29348  27.899  13.976   8.404
 2185POPC   C3B29349  28.128  14.120   8.082
 2185POPC   C4B29350  28.091  14.560   7.927
 2186POPC   NC329351   5.711  30.248   9.406
 2186POPC   PO429352   5.620  30.919   9.385
 2186POPC   GL129353   5.970  30.697   9.190
 2186POPC   GL229354   6.190  30.396   9.286
 2186POPC   C1A29355   6.086  30.850   8.813
 2186POPC   D2A29356   5.817  30.920   8.507
 2186POPC   C3A29357   5.919  30.866   8.101
 2186POPC   C4A29358   5.922  30.692   7.711
 2186POPC   C1B29359   6.200  30.373   8.826
 2186POPC   C2B29360   6.246  30.594   8.385
 2186POPC   C3B29361   6.297  30.394   7.946
 2186POPC   C4B29362   6.296  30.369   7.467
 2187POPC   NC329363  25.979   6.040   9.600
 2187POPC   PO429364  26.287   5.480   9.745
 2187POPC   GL129365  26.109   5.604   9.277
 2187POPC   GL229366  25.897   5.884   9.133
 2187POPC   C1A29367  26.138   5.607   8.792
 2187POPC   D2A29368  25.943   5.508   8.386
 2187POPC   C3A29369  25.908   5.705   7.959
 2187POPC   C4A29370  26.173   5.974   7.710
 2187POPC   C1B29371  25.800   6.043   8.741
 2187POPC   C2B29372  25.712   6.014   8.320
 2187POPC   C3B29373  25.812   6.245   7.965
 2187POPC   C4B29374  25.709   6.136   7.564
 2188POPC   NC329375  17.630  18.449   9.560
 2188POPC   PO429376  17.292  17.977   9.316
 2188POPC   GL129377  17.508  18.262   9.093
 2188POPC   GL229378  17.847  18.163   9.190
 2188POPC   C1A29379  17.562  18.179   8.685
 2188POPC   D2A29380  17.514  17.862   8.409
 2188POPC   C3A29381  17.493  18.079   8.040
 2188POPC   C4A29382  17.383  18.127   7.629
 2188POPC   C1B29383  18.018  18.347   8.825
 2188POPC   C2B29384  17.972  18.472   8.394
 2188POPC   C3B29385  18.011  18.603   7.979
 2188POPC   C4B29386  17.796  18.387   7.727
 2189POPC   NC329387  17.171  26.398   9.550
 2189POPC   PO429388  17.688  25.903   9.617
 2189POPC   GL129389  17.506  26.098   9.236
 2189POPC   GL229390  17.217  25.898   9.169
 2189POPC   C1A29391  17.372  26.216   8.803
 2189POPC   D2A29392  17.300  26.017   8.415
 2189POPC   C3A29393  17.490  26.084   8.061
 2189POPC   C4A29394  17.199  26.234   7.829
 2189POPC   C1B29395  17.460  25.730   8.796
 2189POPC   C2B29396  17.458  25.520   8.354
 2189POPC   C3B29397  17.662  25.608   7.950
 2189POPC   C4B29398  17.436  25.845   7.591
 2190POPC   NC329399  15.721  23.690   9.687
 2190POPC   PO429400  15.113  23.816   9.425
 2190POPC   GL129401  15.176  23.720   9.060
 2190POPC   GL229402  15.451  23.520   9.161
 2190POPC   C1A29403  14.953  23.726   8.681
 2190POPC   D2A29404  14.706  23.826   8.322
 2190POPC   C3A29405  14.977  23.736   7.985
 2190POPC   C4A29406  15.012  23.542   7.592
 2190POPC   C1B29407  15.535  23.707   8.724
 2190POPC   C2B29408  15.380  23.640   8.320
 2190POPC   C3B29409  15.498  23.768   7.920
 2190POPC   C4B29410  15.418  23.872   7.490
 2191POPC   NC329411   9.546  18.711   9.835
 2191POPC   PO429412   9.751  18.148   9.507
 2191POPC   GL129413   9.695  18.182   9.092
 2191POPC   GL229414  10.016  18.381   9.050
 2191POPC   C1A29415   9.712  18.170   8.643
 2191POPC   D2A29416  10.016  18.119   8.313
 2191POPC   C3A29417   9.776  17.970   7.909
 2191POPC   C4A29418   9.957  17.956   7.454
 2191POPC   C1B29419   9.693  18.648   8.854
 2191POPC   C2B29420   9.471  18.596   8.451
 2191POPC   C3B29421   9.702  18.490   8.118
 2191POPC   C4B29422   9.632  18.427   7.718
 2192POPC   NC329423  10.274  13.588   9.377
 2192POPC   PO429424  10.839  13.743   9.719
 2192POPC   GL129425  10.745  13.847   9.276
 2192POPC   GL229426  10.444  14.072   9.271
 2192POPC   C1A29427  10.620  13.720   8.848
 2192POPC   D2A29428  10.546  13.505   8.463
 2192POPC   C3A29429  10.672  13.709   8.087
 2192POPC   C4A29430  10.566  13.497   7.734
 2192POPC   C1B29431  10.236  14.064   8.863
 2192POPC   C2B29432  10.250  13.969   8.427
 2192POPC   C3B29433  10.130  14.075   8.002
 2192POPC   C4B29434  10.455  13.995   7.707
 2193POPC   NC329435  14.285  23.047   9.646
 2193POPC   PO429436  14.247  22.458   9.681
 2193POPC   GL129437  14.403  22.769   9.246
 2193POPC   GL229438  14.634  23.048   9.227
 2193POPC   C1A29439  14.610  22.760   8.801
 2193POPC   D2A29440  14.624  22.866   8.363
 2193POPC   C3A29441  14.239  23.002   8.182
 2193POPC   C4A29442  14.237  22.952   7.781
 2193POPC   C1B29443  14.704  23.265   8.811
 2193POPC   C2B29444  14.522  23.365   8.401
 2193POPC   C3B29445  14.658  23.299   7.982
 2193POPC   C4B29446  14.511  23.332   7.565
 2194POPC   NC329447  30.778  38.667   9.524
 2194POPC   PO429448  30.850  37.977   9.417
 2194POPC   GL129449  30.880  38.263   9.117
 2194POPC   GL229450  30.543  38.402   9.130
 2194POPC   C1A29451  31.072  38.270   8.691
 2194POPC   D2A29452  30.863  38.317   8.270
 2194POPC   C3A29453  30.804  38.693   7.982
 2194POPC   C4A29454  30.788  38.707   7.534
 2194POPC   C1B29455  30.631  38.540   8.725
 2194POPC   C2B29456  30.451  38.658   8.364
 2194POPC   C3B29457  30.282  38.579   7.989
 2194POPC   C4B29458  30.488  38.346   7.690
 2195POPC   NC329459  16.024  12.970   9.466
 2195POPC   PO429460  15.391  12.936   9.778
 2195POPC   GL129461  15.521  12.913   9.307
 2195POPC   GL229462  15.681  12.598   9.168
 2195POPC   C1A29463  15.628  13.028   8.854
 2195POPC   D2A29464  15.830  12.842   8.455
 2195POPC   C3A29465  15.999  13.137   8.124
 2195POPC   C4A29466  16.096  13.335   7.698
 2195POPC   C1B29467  15.493  12.547   8.734
 2195POPC   C2B29468  15.589  12.384   8.329
 2195POPC   C3B29469  15.620  12.623   7.980
 2195POPC   C4B29470  15.878  12.862   7.714
 2196POPC   NC329471  19.686  40.834   9.525
 2196POPC   PO429472  20.285  41.167   9.415
 2196POPC   GL129473  19.957  41.044   9.114
 2196POPC   GL229474  19.915  40.688   9.094
 2196POPC   C1A29475  20.005  40.880   8.660
 2196POPC   D2A29476  19.948  40.531   8.389
 2196POPC   C3A29477  19.859  40.744   8.006
 2196POPC   C4A29478  20.211  40.927   7.807
 2196POPC   C1B29479  19.618  40.498   8.788
 2196POPC   C2B29480  19.445  40.510   8.341
 2196POPC   C3B29481  19.544  40.353   7.912
 2196POPC   C4B29482  19.447  40.438   7.484
 2197POPC   NC329483  40.910   0.058   9.591
 2197POPC   PO429484  41.035   0.681   9.478
 2197POPC   GL129485  40.855   0.387   9.185
 2197POPC   GL229486  41.134   0.141   9.142
 2197POPC   C1A29487  40.619   0.443   8.817
 2197POPC   D2A29488  40.661   0.672   8.431
 2197POPC   C3A29489  40.635   0.468   8.019
 2197POPC   C4A29490  40.470   0.436   7.594
 2197POPC   C1B29491  41.017  44.974   8.746
 2197POPC   C2B29492  40.889   0.115   8.345
 2197POPC   C3B29493  41.093   0.071   7.947
 2197POPC   C4B29494  41.096   0.228   7.535
 2198POPC   NC329495  23.897  29.305   9.374
 2198POPC   PO429496  23.699  28.702   9.597
 2198POPC   GL129497  23.366  28.843   9.253
 2198POPC   GL229498  23.434  29.197   9.133
 2198POPC   C1A29499  23.328  28.872   8.766
 2198POPC   D2A29500  23.365  29.145   8.379
 2198POPC   C3A29501  23.480  28.890   8.027
 2198POPC   C4A29502  23.880  28.765   7.839
 2198POPC   C1B29503  23.721  29.222   8.755
 2198POPC   C2B29504  23.896  29.138   8.349
 2198POPC   C3B29505  23.837  29.261   7.951
 2198POPC   C4B29506  23.388  29.382   7.890
 2199POPC   NC329507  23.943   1.951   9.434
 2199POPC   PO429508  23.402   2.310   9.488
 2199POPC   GL129509  23.574   2.066   9.102
 2199POPC   GL229510  23.590   1.709   9.062
 2199POPC   C1A29511  23.809   2.121   8.706
 2199POPC   D2A29512  23.849   2.370   8.255
 2199POPC   C3A29513  23.872   2.088   7.937
 2199POPC   C4A29514  24.143   1.817   7.740
 2199POPC   C1B29515  23.400   1.778   8.684
 2199POPC   C2B29516  23.555   1.869   8.302
 2199POPC   C3B29517  23.482   1.752   7.888
 2199POPC   C4B29518  23.679   1.841   7.503
 2200POPC   NC329519  40.656  24.160   9.433
 2200POPC   PO429520  41.157  24.581   9.342
 2200POPC   GL129521  40.912  24.517   9.032
 2200POPC   GL229522  40.648  24.672   9.199
 2200POPC   C1A29523  40.815  24.296   8.599
 2200POPC   D2A29524  40.813  24.103   8.211
 2200POPC   C3A29525  40.675  24.397   7.959
 2200POPC   C4A29526  40.832  24.788   7.895
 2200POPC   C1B29527  40.519  24.683   8.763
 2200POPC   C2B29528  40.631  24.736   8.366
 2200POPC   C3B29529  40.366  24.861   8.041
 2200POPC   C4B29530  40.471  25.062   7.699
 2201POPC   NC329531  35.920  27.438   9.567
 2201POPC   PO429532  35.551  27.949   9.694
 2201POPC   GL129533  35.421  27.945   9.241
 2201POPC   GL229534  35.087  27.725   9.206
 2201POPC   C1A29535  35.583  27.766   8.874
 2201POPC   D2A29536  35.479  27.497   8.540
 2201POPC   C3A29537  35.406  27.739   8.167
 2201POPC   C4A29538  35.478  27.579   7.785
 2201POPC   C1B29539  35.011  27.493   8.811
 2201POPC   C2B29540  34.989  27.517   8.353
 2201POPC   C3B29541  35.039  27.288   7.971
 2201POPC   C4B29542  34.878  27.362   7.554
 2202POPC   NC329543  31.769   4.852   9.598
 2202POPC   PO429544  31.478   5.496   9.527
 2202POPC   GL129545  31.434   5.119   9.223
 2202POPC   GL229546  31.354   5.375   9.033
 2202POPC   C1A29547  31.272   4.998   8.735
 2202POPC   D2A29548  31.134   4.974   8.310
 2202POPC   C3A29549  31.462   4.991   8.027
 2202POPC   C4A29550  31.714   4.735   7.786
 2202POPC   C1B29551  31.740   5.168   8.804
 2202POPC   C2B29552  31.841   4.957   8.441
 2202POPC   C3B29553  31.982   5.121   8.070
 2202POPC   C4B29554  31.768   5.334   7.787
 2203POPC   NC329555  43.431  29.365   9.343
 2203POPC   PO429556  44.118  29.194   9.456
 2203POPC   GL129557  43.899  29.377   9.120
 2203POPC   GL229558  43.863  29.055   8.995
 2203POPC   C1A29559  43.668  29.463   8.720
 2203POPC   D2A29560  43.610  29.485   8.265
 2203POPC   C3A29561  44.001  29.362   8.098
 2203POPC   C4A29562  44.163  29.383   7.712
 2203POPC   C1B29563  43.713  28.768   8.688
 2203POPC   C2B29564  43.630  28.789   8.261
 2203POPC   C3B29565  43.806  28.632   7.893
 2203POPC   C4B29566  43.928  28.715   7.460
 2204POPC   NC329567  23.931  26.560   9.389
 2204POPC   PO429568  23.602  26.923   9.746
 2204POPC   GL129569  23.681  26.980   9.214
 2204POPC   GL229570  23.815  26.724   8.963
 2204POPC   C1A29571  23.735  27.130   8.733
 2204POPC   D2A29572  23.579  27.000   8.351
 2204POPC   C3A29573  23.750  27.112   7.996
 2204POPC   C4A29574  23.813  26.934   7.615
 2204POPC   C1B29575  23.893  26.502   8.629
 2204POPC   C2B29576  23.697  26.469   8.266
 2204POPC   C3B29577  23.904  26.526   7.929
 2204POPC   C4B29578  24.093  26.532   7.550
 2205POPC   NC329579  12.281  37.864   9.285
 2205POPC   PO429580  11.842  37.392   9.281
 2205POPC   GL129581  11.860  37.682   8.971
 2205POPC   GL229582  11.787  38.040   9.029
 2205POPC   C1A29583  11.924  37.507   8.574
 2205POPC   D2A29584  11.868  37.362   8.154
 2205POPC   C3A29585  12.292  37.424   7.962
 2205POPC   C4A29586  12.537  37.657   7.643
 2205POPC   C1B29587  12.076  38.011   8.635
 2205POPC   C2B29588  12.145  37.870   8.216
 2205POPC   C3B29589  11.923  37.783   7.866
 2205POPC   C4B29590  11.657  37.855   7.520
 2206POPC   NC329591  24.110  25.891   9.435
 2206POPC   PO429592  23.529  26.329   9.456
 2206POPC   GL129593  23.605  26.260   9.045
 2206POPC   GL229594  23.922  26.163   9.040
 2206POPC   C1A29595  23.589  26.097   8.633
 2206POPC   D2A29596  23.390  25.843   8.360
 2206POPC   C3A29597  23.414  26.098   7.977
 2206POPC   C4A29598  23.545  25.909   7.595
 2206POPC   C1B29599  24.109  26.045   8.652
 2206POPC   C2B29600  24.058  26.113   8.202
 2206POPC   C3B29601  24.024  26.023   7.743
 2206POPC   C4B29602  23.922  26.091   7.291
 2207POPC   NC329603  39.832  42.788   9.726
 2207POPC   PO429604  40.154  43.354   9.534
 2207POPC   GL129605  39.969  43.034   9.266
 2207POPC   GL229606  40.270  43.026   9.102
 2207POPC   C1A29607  39.839  42.992   8.805
 2207POPC   D2A29608  39.862  42.984   8.332
 2207POPC   C3A29609  40.067  43.044   7.924
 2207POPC   C4A29610  39.860  43.427   7.827
 2207POPC   C1B29611  40.235  43.366   8.781
 2207POPC   C2B29612  40.239  43.341   8.310
 2207POPC   C3B29613  40.354  43.514   7.873
 2207POPC   C4B29614  40.435  43.442   7.401
 2208POPC   NC329615  21.575  28.658   9.487
 2208POPC   PO429616  21.671  27.973   9.556
 2208POPC   GL129617  21.557  28.210   9.220
 2208POPC   GL229618  21.218  28.338   9.277
 2208POPC   C1A29619  21.362  28.139   8.836
 2208POPC   D2A29620  21.341  28.070   8.428
 2208POPC   C3A29621  21.543  28.402   8.175
 2208POPC   C4A29622  21.775  28.469   7.781
 2208POPC   C1B29623  21.128  28.587   8.869
 2208POPC   C2B29624  20.987  28.602   8.451
 2208POPC   C3B29625  21.011  28.372   8.097
 2208POPC   C4B29626  21.247  28.481   7.755
 2209POPC   NC329627  33.804  12.658   9.631
 2209POPC   PO429628  33.824  13.267   9.534
 2209POPC   GL129629  33.668  12.929   9.215
 2209POPC   GL229630  33.757  12.538   9.135
 2209POPC   C1A29631  33.645  12.869   8.768
 2209POPC   D2A29632  33.723  13.025   8.364
 2209POPC   C3A29633  33.705  12.764   8.023
 2209POPC   C4A29634  34.095  12.746   7.799
 2209POPC   C1B29635  33.421  12.374   8.815
 2209POPC   C2B29636  33.220  12.310   8.389
 2209POPC   C3B29637  33.453  12.292   7.972
 2209POPC   C4B29638  33.463  12.432   7.518
 2210POPC   NC329639  13.393  41.529   9.496
 2210POPC   PO429640  14.008  41.764   9.358
 2210POPC   GL129641  13.705  41.495   9.077
 2210POPC   GL229642  13.506  41.791   8.996
 2210POPC   C1A29643  13.610  41.425   8.606
 2210POPC   D2A29644  13.406  41.725   8.322
 2210POPC   C3A29645  13.501  41.787   7.875
 2210POPC   C4A29646  13.415  41.363   7.760
 2210POPC   C1B29647  13.932  41.810   8.730
 2210POPC   C2B29648  13.928  41.861   8.309
 2210POPC   C3B29649  13.826  41.477   8.104
 2210POPC   C4B29650  13.890  41.479   7.660
 2211POPC   NC329651   8.755  13.931   9.484
 2211POPC   PO429652   9.164  13.389   9.436
 2211POPC   GL129653   8.963  13.615   9.090
 2211POPC   GL229654   9.043  13.974   9.064
 2211POPC   C1A29655   8.762  13.589   8.664
 2211POPC   D2A29656   8.636  13.239   8.390
 2211POPC   C3A29657   8.535  13.349   7.999
 2211POPC   C4A29658   8.527  13.758   7.844
 2211POPC   C1B29659   9.233  13.776   8.661
 2211POPC   C2B29660   9.077  13.583   8.251
 2211POPC   C3B29661   9.129  13.571   7.799
 2211POPC   C4B29662   8.864  13.747   7.475
 2212POPC   NC329663  23.099  42.662  10.026
 2212POPC   PO429664  22.758  42.427   9.587
 2212POPC   GL129665  22.635  42.411   9.167
 2212POPC   GL229666  22.665  42.743   9.169
 2212POPC   C1A29667  22.690  42.191   8.762
 2212POPC   D2A29668  23.024  42.011   8.480
 2212POPC   C3A29669  22.905  42.017   8.039
 2212POPC   C4A29670  22.609  42.110   7.706
 2212POPC   C1B29671  22.910  42.644   8.774
 2212POPC   C2B29672  23.073  42.499   8.362
 2212POPC   C3B29673  22.851  42.527   7.979
 2212POPC   C4B29674  22.917  42.498   7.577
 2213POPC   NC329675  27.144   3.956   9.432
 2213POPC   PO429676  27.065   3.263   9.718
 2213POPC   GL129677  26.835   3.424   9.276
 2213POPC   GL229678  26.684   3.109   9.158
 2213POPC   C1A29679  26.816   3.680   8.831
 2213POPC   D2A29680  27.058   3.706   8.382
 2213POPC   C3A29681  26.902   3.624   7.928
 2213POPC   C4A29682  26.996   3.299   7.551
 2213POPC   C1B29683  26.897   3.178   8.772
 2213POPC   C2B29684  26.712   3.304   8.388
 2213POPC   C3B29685  26.697   3.149   7.977
 2213POPC   C4B29686  26.502   3.415   7.669
 2214POPC   NC329687   6.898  27.445   9.511
 2214POPC   PO429688   6.456  27.955   9.566
 2214POPC   GL129689   6.640  27.795   9.186
 2214POPC   GL229690   6.516  27.467   9.175
 2214POPC   C1A29691   6.768  27.724   8.764
 2214POPC   D2A29692   6.959  27.794   8.354
 2214POPC   C3A29693   6.679  27.704   7.988
 2214POPC   C4A29694   6.799  27.593   7.601
 2214POPC   C1B29695   6.233  27.296   8.891
 2214POPC   C2B29696   6.159  27.373   8.489
 2214POPC   C3B29697   6.228  27.401   8.081
 2214POPC   C4B29698   6.349  27.372   7.684
 2215POPC   NC329699  15.496  42.319   9.406
 2215POPC   PO429700  16.138  42.075   9.528
 2215POPC   GL129701  16.093  42.217   9.134
 2215POPC   GL229702  15.987  42.562   9.239
 2215POPC   C1A29703  15.881  42.133   8.730
 2215POPC   D2A29704  16.031  42.161   8.307
 2215POPC   C3A29705  15.683  42.151   8.014
 2215POPC   C4A29706  15.758  42.167   7.570
 2215POPC   C1B29707  16.053  42.617   8.803
 2215POPC   C2B29708  15.916  42.661   8.379
 2215POPC   C3B29709  16.012  42.540   7.934
 2215POPC   C4B29710  15.937  42.662   7.500
 2216POPC   NC329711  18.386  38.883   9.440
 2216POPC   PO429712  18.263  39.582   9.428
 2216POPC   GL129713  18.215  39.355   9.052
 2216POPC   GL229714  18.009  39.045   9.111
 2216POPC   C1A29715  18.136  39.430   8.603
 2216POPC   D2A29716  18.286  39.587   8.192
 2216POPC   C3A29717  18.219  39.313   7.859
 2216POPC   C4A29718  18.172  39.362   7.389
 2216POPC   C1B29719  18.309  38.958   8.761
 2216POPC   C2B29720  18.358  39.029   8.328
 2216POPC   C3B29721  18.090  38.830   8.025
 2216POPC   C4B29722  18.226  38.747   7.610
 2217POPC   NC329723   3.810  26.968   9.759
 2217POPC   PO429724   3.321  26.830   9.406
 2217POPC   GL129725   3.724  26.852   9.215
 2217POPC   GL229726   3.799  27.141   9.031
 2217POPC   C1A29727   3.792  26.703   8.784
 2217POPC   D2A29728   3.443  26.680   8.506
 2217POPC   C3A29729   3.513  26.835   8.135
 2217POPC   C4A29730   3.780  26.688   7.812
 2217POPC   C1B29731   3.440  27.118   8.776
 2217POPC   C2B29732   3.381  27.290   8.369
 2217POPC   C3B29733   3.470  27.331   7.941
 2217POPC   C4B29734   3.343  26.976   7.689
 2218POPC   NC329735  32.452  38.177   9.439
 2218POPC   PO429736  32.150  38.730   9.676
 2218POPC   GL129737  32.430  38.686   9.321
 2218POPC   GL229738  32.182  38.496   9.124
 2218POPC   C1A29739  32.439  38.807   8.860
 2218POPC   D2A29740  32.330  38.683   8.457
 2218POPC   C3A29741  32.527  38.773   8.092
 2218POPC   C4A29742  32.509  38.579   7.699
 2218POPC   C1B29743  32.044  38.356   8.710
 2218POPC   C2B29744  32.104  38.210   8.269
 2218POPC   C3B29745  32.065  38.360   7.848
 2218POPC   C4B29746  32.135  38.396   7.380
 2219POPC   NC329747  30.224  14.037   9.269
 2219POPC   PO429748  29.631  14.210   9.496
 2219POPC   GL129749  29.711  14.167   9.070
 2219POPC   GL229750  29.435  13.929   9.010
 2219POPC   C1A29751  29.983  14.277   8.694
 2219POPC   D2A29752  30.316  14.135   8.386
 2219POPC   C3A29753  30.143  14.253   7.994
 2219POPC   C4A29754  30.012  14.663   7.886
 2219POPC   C1B29755  29.496  14.079   8.593
 2219POPC   C2B29756  29.411  14.483   8.384
 2219POPC   C3B29757  29.493  14.599   7.960
 2219POPC   C4B29758  29.648  14.189   7.818
 2220POPC   NC329759   1.784  28.320   9.444
 2220POPC   PO429760   2.382  28.626   9.293
 2220POPC   GL129761   2.101  28.446   9.037
 2220POPC   GL229762   2.220  28.083   9.093
 2220POPC   C1A29763   1.715  28.502   8.771
 2220POPC   D2A29764   1.558  28.307   8.382
 2220POPC   C3A29765   1.760  28.361   7.994
 2220POPC   C4A29766   1.838  28.742   7.790
 2220POPC   C1B29767   2.018  28.083   8.695
 2220POPC   C2B29768   2.083  28.414   8.418
 2220POPC   C3B29769   2.228  28.550   8.045
 2220POPC   C4B29770   2.188  28.340   7.698
 2221POPC   NC329771  16.416   2.305   9.403
 2221POPC   PO429772  16.860   1.756   9.492
 2221POPC   GL129773  16.692   1.949   9.126
 2221POPC   GL229774  16.436   1.716   9.013
 2221POPC   C1A29775  16.545   2.110   8.713
 2221POPC   D2A29776  16.768   2.016   8.288
 2221POPC   C3A29777  16.585   2.091   7.867
 2221POPC   C4A29778  16.653   1.958   7.432
 2221POPC   C1B29779  16.776   1.668   8.679
 2221POPC   C2B29780  16.813   1.465   8.267
 2221POPC   C3B29781  16.771   1.580   7.809
 2221POPC   C4B29782  16.989   1.588   7.366
 2222POPC   NC329783  36.114  11.824   9.625
 2222POPC   PO429784  36.507  12.347   9.593
 2222POPC   GL129785  36.378  11.984   9.239
 2222POPC   GL229786  36.001  12.027   9.169
 2222POPC   C1A29787  36.288  11.893   8.791
 2222POPC   D2A29788  36.377  12.082   8.399
 2222POPC   C3A29789  36.250  11.916   8.016
 2222POPC   C4A29790  36.417  12.154   7.687
 2222POPC   C1B29791  35.836  12.240   8.811
 2222POPC   C2B29792  35.832  12.137   8.379
 2222POPC   C3B29793  35.706  12.261   7.969
 2222POPC   C4B29794  35.929  12.114   7.627
 2223POPC   NC329795  30.995  24.289   9.291
 2223POPC   PO429796  30.425  24.645   9.439
 2223POPC   GL129797  30.419  24.595   8.989
 2223POPC   GL229798  30.524  24.285   9.049
 2223POPC   C1A29799  30.243  24.382   8.606
 2223POPC   D2A29800  30.478  24.204   8.251
 2223POPC   C3A29801  30.696  24.465   8.012
 2223POPC   C4A29802  30.787  24.760   7.701
 2223POPC   C1B29803  30.757  24.292   8.664
 2223POPC   C2B29804  31.006  24.140   8.306
 2223POPC   C3B29805  31.016  24.040   7.882
 2223POPC   C4B29806  30.954  24.317   7.563
 2224POPC   NC329807  12.773  35.040   9.555
 2224POPC   PO429808  13.199  35.528   9.747
 2224POPC   GL129809  12.699  35.501   9.397
 2224POPC   GL229810  12.690  35.185   9.078
 2224POPC   C1A29811  12.626  35.669   8.950
 2224POPC   D2A29812  12.975  35.547   8.651
 2224POPC   C3A29813  12.977  35.492   8.188
 2224POPC   C4A29814  12.745  35.597   7.818
 2224POPC   C1B29815  12.661  35.109   8.605
 2224POPC   C2B29816  12.726  35.063   8.162
 2224POPC   C3B29817  12.546  35.103   7.765
 2224POPC   C4B29818  12.673  34.954   7.343
 2225POPC   NC329819   9.533  42.826   9.471
 2225POPC   PO429820  10.195  43.100   9.580
 2225POPC   GL129821   9.918  43.059   9.229
 2225POPC   GL229822   9.788  43.380   9.236
 2225POPC   C1A29823   9.634  43.026   8.847
 2225POPC   D2A29824   9.605  42.779   8.472
 2225POPC   C3A29825   9.671  42.938   8.065
 2225POPC   C4A29826   9.737  43.081   7.639
 2225POPC   C1B29827   9.854  43.504   8.818
 2225POPC   C2B29828   9.754  43.332   8.410
 2225POPC   C3B29829   9.808  43.450   7.980
 2225POPC   C4B29830   9.820  43.578   7.532
 2226POPC   NC329831  24.171  21.347   9.755
 2226POPC   PO429832  24.732  21.256   9.293
 2226POPC   GL129833  24.472  21.431   9.015
 2226POPC   GL229834  24.418  21.105   8.837
 2226POPC   C1A29835  24.500  21.558   8.593
 2226POPC   D2A29836  24.467  21.220   8.285
 2226POPC   C3A29837  24.287  21.440   7.967
 2226POPC   C4A29838  24.601  21.618   7.698
 2226POPC   C1B29839  24.856  21.093   8.658
 2226POPC   C2B29840  25.095  20.971   8.293
 2226POPC   C3B29841  24.914  21.107   7.918
 2226POPC   C4B29842  24.517  21.052   7.744
 2227POPC   NC329843   1.585   7.175   9.502
 2227POPC   PO429844   2.129   7.621   9.575
 2227POPC   GL129845   2.071   7.447   9.194
 2227POPC   GL229846   1.742   7.425   9.106
 2227POPC   C1A29847   2.240   7.303   8.813
 2227POPC   D2A29848   2.138   7.125   8.432
 2227POPC   C3A29849   2.357   7.275   8.079
 2227POPC   C4A29850   2.331   7.513   7.684
 2227POPC   C1B29851   1.580   7.160   8.788
 2227POPC   C2B29852   1.647   7.336   8.400
 2227POPC   C3B29853   1.859   7.369   8.016
 2227POPC   C4B29854   1.878   7.166   7.663
 2228POPC   NC329855   1.793  17.893   9.558
 2228POPC   PO429856   1.903  17.219   9.381
 2228POPC   GL129857   2.110  17.414   9.085
 2228POPC   GL229858   2.171  17.685   9.266
 2228POPC   C1A29859   2.115  17.357   8.678
 2228POPC   D2A29860   1.816  17.394   8.372
 2228POPC   C3A29861   2.091  17.435   8.058
 2228POPC   C4A29862   2.002  17.248   7.688
 2228POPC   C1B29863   2.148  17.865   8.861
 2228POPC   C2B29864   2.109  17.827   8.443
 2228POPC   C3B29865   1.953  17.951   8.071
 2228POPC   C4B29866   1.985  17.754   7.683
 2229POPC   NC329867  28.964  21.819   9.261
 2229POPC   PO429868  28.447  22.131   9.512
 2229POPC   GL129869  28.608  22.176   9.119
 2229POPC   GL229870  28.295  22.238   8.959
 2229POPC   C1A29871  28.642  21.955   8.702
 2229POPC   D2A29872  28.656  22.118   8.293
 2229POPC   C3A29873  28.324  22.039   8.047
 2229POPC   C4A29874  28.086  22.236   7.767
 2229POPC   C1B29875  28.179  22.228   8.525
 2229POPC   C2B29876  28.224  22.547   8.194
 2229POPC   C3B29877  28.572  22.498   7.935
 2229POPC   C4B29878  28.703  22.461   7.523
 2230POPC   NC329879   5.246   3.377   9.483
 2230POPC   PO429880   4.857   3.985   9.414
 2230POPC   GL129881   5.046   3.701   9.137
 2230POPC   GL229882   4.939   3.345   9.080
 2230POPC   C1A29883   5.217   3.648   8.751
 2230POPC   D2A29884   5.343   3.495   8.340
 2230POPC   C3A29885   5.178   3.773   8.053
 2230POPC   C4A29886   5.050   3.793   7.663
 2230POPC   C1B29887   5.038   3.198   8.668
 2230POPC   C2B29888   4.824   3.311   8.300
 2230POPC   C3B29889   4.963   3.308   7.895
 2230POPC   C4B29890   5.363   3.363   7.772
 2231POPC   NC329891  18.032  28.639   9.466
 2231POPC   PO429892  18.595  28.259   9.495
 2231POPC   GL129893  18.301  28.323   9.147
 2231POPC   GL229894  17.993  28.133   9.243
 2231POPC   C1A29895  18.313  28.596   8.770
 2231POPC   D2A29896  18.366  28.723   8.328
 2231POPC   C3A29897  18.459  28.403   8.023
 2231POPC   C4A29898  18.534  28.436   7.555
 2231POPC   C1B29899  17.862  28.323   8.851
 2231POPC   C2B29900  18.028  28.284   8.449
 2231POPC   C3B29901  17.925  28.409   8.065
 2231POPC   C4B29902  18.052  28.252   7.707
 2232POPC   NC329903  10.251  42.719   9.839
 2232POPC   PO429904  10.786  42.589   9.422
 2232POPC   GL129905  10.722  42.300   9.125
 2232POPC   GL229906  10.370  42.248   9.172
 2232POPC   C1A29907  10.651  42.351   8.695
 2232POPC   D2A29908  10.456  42.521   8.307
 2232POPC   C3A29909  10.582  42.383   7.889
 2232POPC   C4A29910  10.922  42.397   7.587
 2232POPC   C1B29911  10.129  42.358   8.798
 2232POPC   C2B29912   9.959  42.426   8.403
 2232POPC   C3B29913  10.040  42.555   7.983
 2232POPC   C4B29914  10.167  42.366   7.587
 2233POPC   NC329915   5.646  32.079   9.578
 2233POPC   PO429916   6.092  32.493   9.448
 2233POPC   GL129917   5.925  32.182   9.124
 2233POPC   GL229918   5.596  31.994   9.098
 2233POPC   C1A29919   5.746  32.253   8.700
 2233POPC   D2A29920   5.582  32.411   8.303
 2233POPC   C3A29921   5.776  32.375   7.905
 2233POPC   C4A29922   5.756  32.686   7.578
 2233POPC   C1B29923   5.413  31.812   8.758
 2233POPC   C2B29924   5.625  31.888   8.351
 2233POPC   C3B29925   5.492  31.877   7.933
 2233POPC   C4B29926   5.602  32.023   7.552
 2234POPC   NC329927  30.138  11.666   9.717
 2234POPC   PO429928  30.682  11.336   9.461
 2234POPC   GL129929  30.760  11.221   9.069
 2234POPC   GL229930  30.408  11.192   9.046
 2234POPC   C1A29931  30.747  11.326   8.643
 2234POPC   D2A29932  30.927  11.193   8.261
 2234POPC   C3A29933  30.645  11.352   7.973
 2234POPC   C4A29934  30.540  11.321   7.537
 2234POPC   C1B29935  30.532  10.866   8.753
 2234POPC   C2B29936  30.457  10.987   8.343
 2234POPC   C3B29937  30.527  10.836   7.930
 2234POPC   C4B29938  30.374  10.860   7.486
 2235POPC   NC329939  20.409  32.229   9.584
 2235POPC   PO429940  20.813  32.663   9.760
 2235POPC   GL129941  20.711  32.538   9.240
 2235POPC   GL229942  20.584  32.183   9.129
 2235POPC   C1A29943  20.772  32.390   8.734
 2235POPC   D2A29944  20.718  32.127   8.389
 2235POPC   C3A29945  20.660  32.413   8.107
 2235POPC   C4A29946  20.717  32.534   7.724
 2235POPC   C1B29947  20.274  32.279   8.785
 2235POPC   C2B29948  20.119  32.315   8.358
 2235POPC   C3B29949  20.222  32.218   7.940
 2235POPC   C4B29950  20.048  32.202   7.563
 2236POPC   NC329951  20.430   9.763   9.525
 2236POPC   PO429952  20.984   9.749   9.557
 2236POPC   GL129953  20.823   9.945   9.195
 2236POPC   GL229954  20.679   9.651   9.071
 2236POPC   C1A29955  20.706  10.087   8.783
 2236POPC   D2A29956  20.626   9.813   8.450
 2236POPC   C3A29957  20.560   9.999   8.073
 2236POPC   C4A29958  20.514   9.840   7.685
 2236POPC   C1B29959  20.677   9.366   8.717
 2236POPC   C2B29960  20.935   9.382   8.379
 2236POPC   C3B29961  20.777   9.515   7.996
 2236POPC   C4B29962  20.884   9.310   7.620
 2237POPC   NC329963  19.962  18.265   9.705
 2237POPC   PO429964  20.147  18.623   9.202
 2237POPC   GL129965  19.835  18.518   8.926
 2237POPC   GL229966  19.593  18.251   8.998
 2237POPC   C1A29967  19.983  18.395   8.533
 2237POPC   D2A29968  19.996  18.072   8.248
 2237POPC   C3A29969  19.943  18.247   7.861
 2237POPC   C4A29970  20.043  17.970   7.546
 2237POPC   C1B29971  19.477  18.466   8.575
 2237POPC   C2B29972  19.500  18.222   8.202
 2237POPC   C3B29973  19.576  17.913   7.847
 2237POPC   C4B29974  19.554  17.982   7.393
 2238POPC   NC329975   5.763  17.718   9.423
 2238POPC   PO429976   6.257  17.364   9.637
 2238POPC   GL129977   6.117  17.438   9.209
 2238POPC   GL229978   5.814  17.267   9.081
 2238POPC   C1A29979   6.224  17.322   8.805
 2238POPC   D2A29980   5.986  17.146   8.508
 2238POPC   C3A29981   6.013  17.404   8.176
 2238POPC   C4A29982   5.887  17.337   7.787
 2238POPC   C1B29983   5.771  17.597   8.782
 2238POPC   C2B29984   5.577  17.615   8.404
 2238POPC   C3B29985   5.623  17.710   7.987
 2238POPC   C4B29986   6.036  17.854   7.874
 2239POPC   NC329987  15.804  32.983   9.596
 2239POPC   PO429988  16.388  33.235   9.673
 2239POPC   GL129989  16.134  33.209   9.289
 2239POPC   GL229990  15.797  33.417   9.272
 2239POPC   C1A29991  15.961  32.920   8.943
 2239POPC   D2A29992  16.124  32.835   8.533
 2239POPC   C3A29993  15.928  32.916   8.139
 2239POPC   C4A29994  16.136  32.847   7.750
 2239POPC   C1B29995  15.965  33.416   8.851
 2239POPC   C2B29996  15.857  33.296   8.475
 2239POPC   C3B29997  15.936  33.431   8.082
 2239POPC   C4B29998  15.996  33.335   7.675
 2240POPC   NC329999  22.717  16.838   9.518
 2240POPC   PO430000  23.314  16.668   9.711
 2240POPC   GL130001  23.141  16.737   9.255
 2240POPC   GL230002  23.144  17.100   9.305
 2240POPC   C1A30003  22.810  16.767   8.880
 2240POPC   D2A30004  22.615  16.651   8.472
 2240POPC   C3A30005  22.770  16.811   8.054
 2240POPC   C4A30006  22.789  16.708   7.615
 2240POPC   C1B30007  23.168  17.131   8.857
 2240POPC   C2B30008  23.087  16.900   8.471
 2240POPC   C3B30009  23.267  16.876   8.046
 2240POPC   C4B30010  23.185  17.076   7.660
 2241POPC   NC330011  41.373  33.213   9.450
 2241POPC   PO430012  42.057  32.904   9.481
 2241POPC   GL130013  41.772  33.026   9.154
 2241POPC   GL230014  41.476  32.796   9.123
 2241POPC   C1A30015  41.629  33.209   8.762
 2241POPC   D2A30016  41.419  33.334   8.380
 2241POPC   C3A30017  41.643  33.217   7.999
 2241POPC   C4A30018  41.745  32.827   7.818
 2241POPC   C1B30019  41.270  32.821   8.693
 2241POPC   C2B30020  41.316  32.853   8.216
 2241POPC   C3B30021  41.236  32.718   7.771
 2241POPC   C4B30022  41.069  32.541   7.349
 2242POPC   NC330023  27.304  27.992   9.560
 2242POPC   PO430024  27.787  27.574   9.680
 2242POPC   GL130025  27.603  27.531   9.259
 2242POPC   GL230026  27.574  27.847   9.140
 2242POPC   C1A30027  27.406  27.453   8.849
 2242POPC   D2A30028  27.352  27.504   8.406
 2242POPC   C3A30029  27.688  27.596   8.140
 2242POPC   C4A30030  27.562  27.519   7.740
 2242POPC   C1B30031  27.419  27.959   8.729
 2242POPC   C2B30032  27.607  28.066   8.333
 2242POPC   C3B30033  27.339  27.942   7.985
 2242POPC   C4B30034  27.291  27.934   7.550
 2243POPC   NC330035   5.909  11.507   9.553
 2243POPC   PO430036   5.612  10.878   9.369
 2243POPC   GL130037   5.664  11.236   9.194
 2243POPC   GL230038   5.987  11.114   9.052
 2243POPC   C1A30039   5.731  11.531   8.872
 2243POPC   D2A30040   6.111  11.392   8.622
 2243POPC   C3A30041   6.077  11.397   8.170
 2243POPC   C4A30042   5.978  11.510   7.756
 2243POPC   C1B30043   5.667  11.060   8.714
 2243POPC   C2B30044   5.601  11.240   8.333
 2243POPC   C3B30045   5.747  11.063   7.949
 2243POPC   C4B30046   5.714  11.030   7.521
 2244POPC   NC330047  25.656   0.251   9.207
 2244POPC   PO430048  26.207   0.455   9.521
 2244POPC   GL130049  26.172   0.380   9.089
 2244POPC   GL230050  25.974   0.691   9.039
 2244POPC   C1A30051  25.985   0.334   8.665
 2244POPC   D2A30052  25.823   0.470   8.300
 2244POPC   C3A30053  25.964   0.310   7.956
 2244POPC   C4A30054  26.222   0.252   7.654
 2244POPC   C1B30055  25.648   0.717   8.720
 2244POPC   C2B30056  25.495   0.857   8.305
 2244POPC   C3B30057  25.676   0.763   7.876
 2244POPC   C4B30058  25.735   0.924   7.405
 2245POPC   NC330059  40.552  26.952   9.472
 2245POPC   PO430060  41.183  27.145   9.530
 2245POPC   GL130061  41.002  26.947   9.187
 2245POPC   GL230062  41.215  26.667   9.117
 2245POPC   C1A30063  40.713  27.062   8.840
 2245POPC   D2A30064  40.808  27.068   8.393
 2245POPC   C3A30065  40.542  26.776   8.173
 2245POPC   C4A30066  40.500  26.743   7.750
 2245POPC   C1B30067  41.024  26.662   8.746
 2245POPC   C2B30068  40.979  26.544   8.346
 2245POPC   C3B30069  41.023  26.673   7.932
 2245POPC   C4B30070  41.345  26.509   7.644
 2246POPC   NC330071   5.545  44.512   9.468
 2246POPC   PO430072   4.848  44.751   9.594
 2246POPC   GL130073   5.106  44.706   9.249
 2246POPC   GL230074   4.861  44.481   9.107
 2246POPC   C1A30075   5.287  44.642   8.832
 2246POPC   D2A30076   5.073  44.572   8.452
 2246POPC   C3A30077   5.266  44.406   8.073
 2246POPC   C4A30078   5.213  44.363   7.651
 2246POPC   C1B30079   4.738  44.794   8.820
 2246POPC   C2B30080   4.590  44.777   8.401
 2246POPC   C3B30081   4.766  44.597   8.028
 2246POPC   C4B30082   4.993  44.806   7.741
 2247POPC   NC330083  11.916  44.424   9.437
 2247POPC   PO430084  12.540  44.717   9.552
 2247POPC   GL130085  12.396  44.556   9.173
 2247POPC   GL230086  12.116  44.762   9.095
 2247POPC   C1A30087  12.335  44.487   8.728
 2247POPC   D2A30088  12.446  44.427   8.319
 2247POPC   C3A30089  12.201  44.602   7.994
 2247POPC   C4A30090  12.123  44.259   7.758
 2247POPC   C1B30091  11.829  44.556   8.790
 2247POPC   C2B30092  11.799  44.506   8.346
 2247POPC   C3B30093  11.725  44.826   8.043
 2247POPC   C4B30094  11.848   0.046   7.712
 2248POPC   NC330095  13.818  37.299   9.346
 2248POPC   PO430096  13.454  37.964   9.402
 2248POPC   GL130097  13.610  37.829   9.018
 2248POPC   GL230098  13.456  37.539   9.083
 2248POPC   C1A30099  13.477  37.788   8.578
 2248POPC   D2A30100  13.322  37.884   8.156
 2248POPC   C3A30101  13.718  37.882   7.958
 2248POPC   C4A30102  14.113  37.668   8.109
 2248POPC   C1B30103  13.163  37.448   8.792
 2248POPC   C2B30104  13.202  37.389   8.369
 2248POPC   C3B30105  13.509  37.414   8.057
 2248POPC   C4B30106  13.867  37.346   7.795
 2249POPC   NC330107  10.255  11.593   9.564
 2249POPC   PO430108  10.718  11.150   9.549
 2249POPC   GL130109  10.709  11.366   9.178
 2249POPC   GL230110  10.384  11.224   9.150
 2249POPC   C1A30111  10.804  11.530   8.759
 2249POPC   D2A30112  10.645  11.402   8.355
 2249POPC   C3A30113  10.805  11.576   7.990
 2249POPC   C4A30114  10.603  11.381   7.695
 2249POPC   C1B30115  10.331  11.614   8.908
 2249POPC   C2B30116  10.240  11.672   8.483
 2249POPC   C3B30117  10.355  11.785   8.078
 2249POPC   C4B30118  10.205  11.679   7.677
 2250POPC   NC330119   8.896   9.636   9.519
 2250POPC   PO430120   9.030  10.298   9.579
 2250POPC   GL130121   9.054  10.017   9.218
 2250POPC   GL230122   8.702   9.919   9.132
 2250POPC   C1A30123   9.253   9.838   8.844
 2250POPC   D2A30124   9.158   9.595   8.484
 2250POPC   C3A30125   8.986   9.884   8.183
 2250POPC   C4A30126   9.282   9.978   7.872
 2250POPC   C1B30127   8.715   9.591   8.805
 2250POPC   C2B30128   8.691   9.426   8.383
 2250POPC   C3B30129   8.846   9.432   7.958
 2250POPC   C4B30130   8.708   9.787   7.730
 2251POPC   NC330131  13.770  14.078   9.374
 2251POPC   PO430132  13.766  14.712   9.492
 2251POPC   GL130133  13.581  14.511   9.113
 2251POPC   GL230134  13.298  14.261   9.172
 2251POPC   C1A30135  13.798  14.375   8.728
 2251POPC   D2A30136  13.877  14.548   8.338
 2251POPC   C3A30137  13.595  14.471   8.031
 2251POPC   C4A30138  13.849  14.196   7.871
 2251POPC   C1B30139  13.352  14.124   8.736
 2251POPC   C2B30140  13.558  14.041   8.335
 2251POPC   C3B30141  13.397  13.943   7.921
 2251POPC   C4B30142  13.303  14.267   7.634
 2252POPC   NC330143  39.715   1.458   9.318
 2252POPC   PO430144  39.082   1.930   9.430
 2252POPC   GL130145  39.322   2.030   9.076
 2252POPC   GL230146  38.962   2.069   8.954
 2252POPC   C1A30147  39.332   1.913   8.646
 2252POPC   D2A30148  38.949   2.014   8.392
 2252POPC   C3A30149  39.083   2.098   7.958
 2252POPC   C4A30150  39.462   2.053   7.726
 2252POPC   C1B30151  38.907   1.662   8.787
 2252POPC   C2B30152  39.073   1.504   8.411
 2252POPC   C3B30153  38.941   1.609   8.014
 2252POPC   C4B30154  39.089   1.710   7.589
 2253POPC   NC330155   4.351  20.274   9.273
 2253POPC   PO430156   3.994  20.788   9.346
 2253POPC   GL130157   4.310  20.765   9.043
 2253POPC   GL230158   4.645  20.780   9.177
 2253POPC   C1A30159   4.315  20.684   8.594
 2253POPC   D2A30160   4.609  20.775   8.256
 2253POPC   C3A30161   4.419  20.734   7.829
 2253POPC   C4A30162   4.107  20.971   7.551
 2253POPC   C1B30163   4.768  20.586   8.781
 2253POPC   C2B30164   4.655  20.302   8.428
 2253POPC   C3B30165   4.771  20.341   7.966
 2253POPC   C4B30166   4.551  20.316   7.561
 2254POPC   NC330167  40.330  25.499   9.481
 2254POPC   PO430168  39.716  25.169   9.480
 2254POPC   GL130169  40.035  25.208   9.162
 2254POPC   GL230170  40.025  25.522   8.942
 2254POPC   C1A30171  40.196  25.087   8.760
 2254POPC   D2A30172  40.008  25.315   8.427
 2254POPC   C3A30173  40.249  25.367   8.076
 2254POPC   C4A30174  40.020  25.278   7.709
 2254POPC   C1B30175  39.645  25.692   8.717
 2254POPC   C2B30176  39.448  25.616   8.334
 2254POPC   C3B30177  39.671  25.511   7.997
 2254POPC   C4B30178  40.025  25.766   7.841
 2255POPC   NC330179  39.557  18.646   9.851
 2255POPC   PO430180  39.231  19.233   9.579
 2255POPC   GL130181  39.218  18.957   9.161
 2255POPC   GL230182  39.119  18.596   8.994
 2255POPC   C1A30183  39.230  19.009   8.703
 2255POPC   D2A30184  39.412  18.928   8.311
 2255POPC   C3A30185  39.431  19.256   7.998
 2255POPC   C4A30186  39.006  19.448   8.041
 2255POPC   C1B30187  39.065  18.549   8.488
 2255POPC   C2B30188  38.936  18.838   8.111
 2255POPC   C3B30189  39.177  18.917   7.718
 2255POPC   C4B30190  39.204  18.741   7.297
 2256POPC   NC330191  31.210  35.314   9.439
 2256POPC   PO430192  31.875  35.612   9.559
 2256POPC   GL130193  31.728  35.337   9.213
 2256POPC   GL230194  31.438  35.527   9.062
 2256POPC   C1A30195  31.623  35.168   8.790
 2256POPC   D2A30196  31.684  35.468   8.462
 2256POPC   C3A30197  31.585  35.290   8.091
 2256POPC   C4A30198  31.258  35.310   7.817
 2256POPC   C1B30199  31.081  35.499   8.773
 2256POPC   C2B30200  31.176  35.516   8.332
 2256POPC   C3B30201  31.029  35.725   7.980
 2256POPC   C4B30202  30.986  35.632   7.529
 2257POPC   NC330203   9.058  17.195   9.526
 2257POPC   PO430204   8.763  17.900   9.497
 2257POPC   GL130205   9.038  17.694   9.148
 2257POPC   GL230206   9.128  17.350   9.054
 2257POPC   C1A30207   9.003  17.689   8.695
 2257POPC   D2A30208   9.211  17.666   8.309
 2257POPC   C3A30209   9.029  17.624   7.926
 2257POPC   C4A30210   9.154  17.576   7.528
 2257POPC   C1B30211   9.197  17.168   8.642
 2257POPC   C2B30212   9.261  17.187   8.192
 2257POPC   C3B30213   9.328  17.152   7.745
 2257POPC   C4B30214   9.470  17.150   7.310
 2258POPC   NC330215   8.600  38.789   9.437
 2258POPC   PO430216   9.047  39.292   9.589
 2258POPC   GL130217   9.078  39.060   9.230
 2258POPC   GL230218   9.375  38.872   9.240
 2258POPC   C1A30219   9.077  39.293   8.816
 2258POPC   D2A30220   9.189  39.456   8.385
 2258POPC   C3A30221   8.864  39.408   8.089
 2258POPC   C4A30222   8.745  39.492   7.660
 2258POPC   C1B30223   9.216  38.812   8.820
 2258POPC   C2B30224   9.033  38.909   8.431
 2258POPC   C3B30225   9.211  39.036   8.053
 2258POPC   C4B30226   9.126  39.058   7.646
 2259POPC   NC330227  18.847   0.922   9.610
 2259POPC   PO430228  19.311   1.468   9.528
 2259POPC   GL130229  19.050   1.391   9.167
 2259POPC   GL230230  18.995   1.023   9.116
 2259POPC   C1A30231  19.163   1.389   8.747
 2259POPC   D2A30232  19.055   1.198   8.407
 2259POPC   C3A30233  19.120   1.422   8.069
 2259POPC   C4A30234  19.237   1.263   7.667
 2259POPC   C1B30235  19.340   0.907   8.844
 2259POPC   C2B30236  19.497   0.945   8.425
 2259POPC   C3B30237  19.264   0.907   8.043
 2259POPC   C4B30238  19.300   0.692   7.685
 2260POPC   NC330239  10.071  21.935   9.340
 2260POPC   PO430240   9.375  21.812   9.404
 2260POPC   GL130241   9.605  21.977   9.089
 2260POPC   GL230242   9.664  22.345   9.153
 2260POPC   C1A30243   9.746  22.051   8.694
 2260POPC   D2A30244   9.677  22.381   8.421
 2260POPC   C3A30245   9.708  22.230   8.028
 2260POPC   C4A30246   9.513  22.181   7.662
 2260POPC   C1B30247  10.009  22.461   8.860
 2260POPC   C2B30248  10.163  22.555   8.435
 2260POPC   C3B30249   9.957  22.687   8.071
 2260POPC   C4B30250   9.926  22.545   7.678
 2261POPC   NC330251   8.807  16.475   9.390
 2261POPC   PO430252   9.349  16.811   9.602
 2261POPC   GL130253   9.159  16.822   9.157
 2261POPC   GL230254   8.820  16.942   9.023
 2261POPC   C1A30255   9.069  16.624   8.735
 2261POPC   D2A30256   8.904  16.842   8.356
 2261POPC   C3A30257   9.090  16.709   7.946
 2261POPC   C4A30258   8.802  16.499   7.625
 2261POPC   C1B30259   8.699  17.251   8.712
 2261POPC   C2B30260   8.783  17.379   8.310
 2261POPC   C3B30261   8.833  17.151   7.928
 2261POPC   C4B30262   8.877  17.141   7.496
 2262POPC   NC330263  39.668   8.199   9.420
 2262POPC   PO430264  39.052   8.587   9.521
 2262POPC   GL130265  39.029   8.299   9.159
 2262POPC   GL230266  39.361   8.200   9.030
 2262POPC   C1A30267  39.015   8.414   8.740
 2262POPC   D2A30268  39.242   8.571   8.396
 2262POPC   C3A30269  38.950   8.470   8.102
 2262POPC   C4A30270  38.885   8.339   7.684
 2262POPC   C1B30271  39.521   7.903   8.735
 2262POPC   C2B30272  39.812   7.885   8.411
 2262POPC   C3B30273  39.548   7.882   8.102
 2262POPC   C4B30274  39.375   8.268   7.906
 2263POPC   NC330275  23.007   6.265   9.461
 2263POPC   PO430276  23.266   5.706   9.475
 2263POPC   GL130277  23.078   5.893   9.120
 2263POPC   GL230278  22.736   6.084   9.067
 2263POPC   C1A30279  23.168   5.957   8.709
 2263POPC   D2A30280  23.048   6.146   8.333
 2263POPC   C3A30281  23.058   5.896   7.991
 2263POPC   C4A30282  23.041   5.913   7.587
 2263POPC   C1B30283  22.644   5.963   8.634
 2263POPC   C2B30284  22.587   5.944   8.172
 2263POPC   C3B30285  22.666   6.198   7.791
 2263POPC   C4B30286  22.630   6.089   7.319
 2264POPC   NC330287   0.848  32.434   9.425
 2264POPC   PO430288   0.517  31.953   9.711
 2264POPC   GL130289   0.545  32.039   9.172
 2264POPC   GL230290   0.757  32.284   8.975
 2264POPC   C1A30291   0.618  31.945   8.662
 2264POPC   D2A30292   0.827  32.247   8.332
 2264POPC   C3A30293   0.600  32.339   7.955
 2264POPC   C4A30294   0.262  32.072   7.932
 2264POPC   C1B30295   0.467  32.437   8.689
 2264POPC   C2B30296   0.230  32.345   8.359
 2264POPC   C3B30297   0.134  32.578   8.020
 2264POPC   C4B30298   0.274  32.639   7.640
 2265POPC   NC330299   7.246   7.949   9.480
 2265POPC   PO430300   6.532   8.082   9.496
 2265POPC   GL130301   6.620   8.182   9.112
 2265POPC   GL230302   6.970   8.141   9.097
 2265POPC   C1A30303   6.510   8.106   8.708
 2265POPC   D2A30304   6.561   8.236   8.295
 2265POPC   C3A30305   6.446   7.962   7.968
 2265POPC   C4A30306   6.428   8.004   7.546
 2265POPC   C1B30307   7.079   8.007   8.710
 2265POPC   C2B30308   7.069   7.850   8.305
 2265POPC   C3B30309   6.947   8.101   7.971
 2265POPC   C4B30310   6.915   8.139   7.548
 2266POPC   NC330311  32.763  13.064   9.569
 2266POPC   PO430312  33.353  12.594   9.473
 2266POPC   GL130313  33.143  12.901   9.232
 2266POPC   GL230314  32.813  12.784   9.155
 2266POPC   C1A30315  33.156  13.035   8.799
 2266POPC   D2A30316  33.209  12.858   8.398
 2266POPC   C3A30317  33.051  13.062   8.025
 2266POPC   C4A30318  33.244  12.830   7.734
 2266POPC   C1B30319  32.647  12.998   8.795
 2266POPC   C2B30320  32.682  12.885   8.364
 2266POPC   C3B30321  32.732  12.661   7.961
 2266POPC   C4B30322  32.775  12.879   7.558
 2267POPC   NC330323  38.591  41.685   9.504
 2267POPC   PO430324  38.138  41.086   9.564
 2267POPC   GL130325  38.426  41.239   9.264
 2267POPC   GL230326  38.214  41.525   9.208
 2267POPC   C1A30327  38.611  41.410   8.876
 2267POPC   D2A30328  38.660  41.328   8.426
 2267POPC   C3A30329  38.311  41.312   8.102
 2267POPC   C4A30330  38.394  41.411   7.683
 2267POPC   C1B30331  38.207  41.765   8.825
 2267POPC   C2B30332  38.353  41.735   8.402
 2267POPC   C3B30333  38.457  41.852   7.974
 2267POPC   C4B30334  38.249  41.923   7.576
 2268POPC   NC330335  40.701   4.554   9.243
 2268POPC   PO430336  41.067   4.911   9.697
 2268POPC   GL130337  40.834   5.035   9.237
 2268POPC   GL230338  40.447   5.075   9.125
 2268POPC   C1A30339  40.845   5.185   8.775
 2268POPC   D2A30340  40.997   5.098   8.314
 2268POPC   C3A30341  40.914   5.343   7.918
 2268POPC   C4A30342  41.055   5.300   7.478
 2268POPC   C1B30343  40.341   4.788   8.761
 2268POPC   C2B30344  40.637   4.727   8.428
 2268POPC   C3B30345  40.630   4.897   8.019
 2268POPC   C4B30346  40.619   5.027   7.607
 2269POPC   NC330347  29.012  36.561   9.495
 2269POPC   PO430348  29.552  36.157   9.546
 2269POPC   GL130349  29.338  36.253   9.099
 2269POPC   GL230350  29.062  36.056   8.956
 2269POPC   C1A30351  29.482  36.012   8.711
 2269POPC   D2A30352  29.162  35.822   8.462
 2269POPC   C3A30353  29.235  36.040   8.084
 2269POPC   C4A30354  29.274  35.944   7.631
 2269POPC   C1B30355  29.095  36.319   8.589
 2269POPC   C2B30356  28.820  36.390   8.248
 2269POPC   C3B30357  28.807  36.163   7.837
 2269POPC   C4B30358  29.010  36.342   7.467
 2270POPC   NC330359  13.336  43.742   9.492
 2270POPC   PO430360  13.933  44.000   9.575
 2270POPC   GL130361  13.743  43.937   9.191
 2270POPC   GL230362  14.000  43.711   9.086
 2270POPC   C1A30363  13.751  44.075   8.752
 2270POPC   D2A30364  13.721  44.351   8.398
 2270POPC   C3A30365  13.514  44.229   8.069
 2270POPC   C4A30366  13.439  43.920   7.817
 2270POPC   C1B30367  13.857  43.569   8.708
 2270POPC   C2B30368  13.709  43.727   8.333
 2270POPC   C3B30369  13.878  43.697   7.929
 2270POPC   C4B30370  13.776  43.506   7.535
 2271POPC   NC330371  17.919  40.044   9.540
 2271POPC   PO430372  18.564  40.016   9.538
 2271POPC   GL130373  18.392  39.989   9.151
 2271POPC   GL230374  18.589  39.709   9.056
 2271POPC   C1A30375  18.116  40.105   8.812
 2271POPC   D2A30376  18.294  40.172   8.392
 2271POPC   C3A30377  18.167  40.109   7.978
 2271POPC   C4A30378  18.262  39.818   7.661
 2271POPC   C1B30379  18.489  39.796   8.668
 2271POPC   C2B30380  18.707  39.848   8.319
 2271POPC   C3B30381  18.707  39.797   7.896
 2271POPC   C4B30382  18.636  39.435   7.645
 2272POPC   NC330383  24.982   8.835   9.408
 2272POPC   PO430384  25.479   9.129   9.177
 2272POPC   GL130385  25.085   8.964   8.928
 2272POPC   GL230386  25.010   8.596   8.972
 2272POPC   C1A30387  24.951   8.966   8.476
 2272POPC   D2A30388  24.988   9.213   8.095
 2272POPC   C3A30389  25.218   9.028   7.792
 2272POPC   C4A30390  25.152   8.898   7.389
 2272POPC   C1B30391  25.297   8.603   8.635
 2272POPC   C2B30392  25.330   8.735   8.197
 2272POPC   C3B30393  25.322   8.538   7.787
 2272POPC   C4B30394  25.539   8.568   7.381
 2273POPC   NC330395  26.040  17.973   9.469
 2273POPC   PO430396  25.851  17.513   9.945
 2273POPC   GL130397  25.756  17.405   9.369
 2273POPC   GL230398  25.688  17.724   9.172
 2273POPC   C1A30399  25.966  17.287   8.838
 2273POPC   D2A30400  26.286  17.336   8.432
 2273POPC   C3A30401  26.141  17.319   7.952
 2273POPC   C4A30402  26.028  17.362   7.500
 2273POPC   C1B30403  25.673  17.748   8.698
 2273POPC   C2B30404  25.831  17.603   8.276
 2273POPC   C3B30405  25.664  17.426   7.874
 2273POPC   C4B30406  25.686  17.723   7.528
 2274POPC   NC330407  42.058  35.318   9.506
 2274POPC   PO430408  42.523  35.804   9.513
 2274POPC   GL130409  42.320  35.603   9.153
 2274POPC   GL230410  42.313  35.254   9.067
 2274POPC   C1A30411  42.351  35.669   8.699
 2274POPC   D2A30412  42.640  35.413   8.425
 2274POPC   C3A30413  42.540  35.395   7.989
 2274POPC   C4A30414  42.186  35.436   7.736
 2274POPC   C1B30415  42.669  35.047   8.881
 2274POPC   C2B30416  42.689  34.878   8.474
 2274POPC   C3B30417  42.793  34.931   8.064
 2274POPC   C4B30418  42.555  34.985   7.672
 2275POPC   NC330419   2.383   1.252   9.780
 2275POPC   PO430420   1.883   0.916   9.454
 2275POPC   GL130421   1.923   0.983   9.001
 2275POPC   GL230422   1.949   1.344   8.978
 2275POPC   C1A30423   2.253   1.106   8.675
 2275POPC   D2A30424   2.231   1.375   8.350
 2275POPC   C3A30425   2.042   1.096   8.077
 2275POPC   C4A30426   2.370   0.927   7.852
 2275POPC   C1B30427   1.772   1.282   8.595
 2275POPC   C2B30428   1.719   1.538   8.262
 2275POPC   C3B30429   1.916   1.557   7.884
 2275POPC   C4B30430   1.821   1.510   7.430
 2276POPC   NC330431  22.062  22.546   9.654
 2276POPC   PO430432  22.473  22.036   9.520
 2276POPC   GL130433  22.274  22.310   9.179
 2276POPC   GL230434  22.096  22.011   9.069
 2276POPC   C1A30435  21.957  22.384   8.773
 2276POPC   D2A30436  21.964  22.119   8.370
 2276POPC   C3A30437  21.965  22.348   7.945
 2276POPC   C4A30438  21.900  22.547   7.492
 2276POPC   C1B30439  22.364  22.085   8.708
 2276POPC   C2B30440  22.499  21.970   8.301
 2276POPC   C3B30441  22.413  22.091   7.893
 2276POPC   C4B30442  22.358  22.418   7.592
 2277POPC   NC330443  41.154  21.133   9.491
 2277POPC   PO430444  40.595  21.603   9.496
 2277POPC   GL130445  40.797  21.510   9.104
 2277POPC   GL230446  40.839  21.165   9.071
 2277POPC   C1A30447  40.755  21.481   8.631
 2277POPC   D2A30448  40.523  21.402   8.252
 2277POPC   C3A30449  40.731  21.185   7.917
 2277POPC   C4A30450  40.772  21.320   7.501
 2277POPC   C1B30451  41.061  21.063   8.736
 2277POPC   C2B30452  41.112  21.118   8.293
 2277POPC   C3B30453  41.072  20.790   8.015
 2277POPC   C4B30454  41.063  20.885   7.611
 2278POPC   NC330455  34.102  11.875   9.875
 2278POPC   PO430456  34.727  11.957   9.601
 2278POPC   GL130457  34.759  12.018   9.199
 2278POPC   GL230458  34.901  11.694   9.146
 2278POPC   C1A30459  34.708  12.281   8.811
 2278POPC   D2A30460  34.475  12.385   8.408
 2278POPC   C3A30461  34.626  12.270   7.964
 2278POPC   C4A30462  34.384  11.946   7.734
 2278POPC   C1B30463  34.886  11.787   8.749
 2278POPC   C2B30464  34.877  12.031   8.392
 2278POPC   C3B30465  34.834  11.800   8.040
 2278POPC   C4B30466  34.862  11.787   7.632
 2279POPC   NC330467  27.318  18.897   9.390
 2279POPC   PO430468  27.790  19.285   9.664
 2279POPC   GL130469  27.656  19.262   9.198
 2279POPC   GL230470  27.298  19.335   9.145
 2279POPC   C1A30471  27.829  19.154   8.751
 2279POPC   D2A30472  28.008  19.134   8.309
 2279POPC   C3A30473  27.670  19.184   7.990
 2279POPC   C4A30474  27.417  18.828   7.835
 2279POPC   C1B30475  27.289  19.162   8.757
 2279POPC   C2B30476  27.261  19.234   8.337
 2279POPC   C3B30477  27.033  19.201   7.978
 2279POPC   C4B30478  27.264  19.286   7.638
 2280POPC   NC330479  16.500  14.655   9.421
 2280POPC   PO430480  15.919  14.306   9.634
 2280POPC   GL130481  15.918  14.535   9.257
 2280POPC   GL230482  15.649  14.756   9.242
 2280POPC   C1A30483  16.042  14.541   8.826
 2280POPC   D2A30484  15.804  14.394   8.441
 2280POPC   C3A30485  15.971  14.508   8.043
 2280POPC   C4A30486  16.046  14.303   7.648
 2280POPC   C1B30487  15.567  14.714   8.770
 2280POPC   C2B30488  15.723  14.917   8.357
 2280POPC   C3B30489  15.835  14.974   7.887
 2280POPC   C4B30490  16.139  14.813   7.563
 2281POPC   NC330491  42.731   3.034   9.370
 2281POPC   PO430492  42.141   2.763   9.632
 2281POPC   GL130493  42.241   2.699   9.215
 2281POPC   GL230494  41.936   2.807   9.098
 2281POPC   C1A30495  42.449   2.690   8.831
 2281POPC   D2A30496  42.496   2.856   8.447
 2281POPC   C3A30497  42.549   2.595   8.101
 2281POPC   C4A30498  42.380   2.588   7.716
 2281POPC   C1B30499  42.054   3.003   8.689
 2281POPC   C2B30500  42.031   2.946   8.214
 2281POPC   C3B30501  42.090   3.021   7.773
 2281POPC   C4B30502  42.205   3.188   7.355
 2282POPC   NC330503  36.980  14.760   9.637
 2282POPC   PO430504  36.899  15.419   9.602
 2282POPC   GL130505  36.705  15.172   9.260
 2282POPC   GL230506  36.870  14.845   9.139
 2282POPC   C1A30507  36.650  15.175   8.810
 2282POPC   D2A30508  36.886  15.288   8.448
 2282POPC   C3A30509  36.928  15.048   8.098
 2282POPC   C4A30510  36.835  15.142   7.690
 2282POPC   C1B30511  37.070  14.865   8.723
 2282POPC   C2B30512  37.365  15.098   8.451
 2282POPC   C3B30513  37.423  14.966   8.030
 2282POPC   C4B30514  37.230  14.838   7.693
 2283POPC   NC330515  26.689   0.522   9.461
 2283POPC   PO430516  27.380   0.402   9.438
 2283POPC   GL130517  27.095   0.314   9.093
 2283POPC   GL230518  26.731   0.232   9.049
 2283POPC   C1A30519  27.067   0.161   8.676
 2283POPC   D2A30520  27.121   0.404   8.341
 2283POPC   C3A30521  26.897   0.421   7.970
 2283POPC   C4A30522  27.141   0.393   7.591
 2283POPC   C1B30523  26.499   0.319   8.668
 2283POPC   C2B30524  26.347   0.547   8.295
 2283POPC   C3B30525  26.411   0.708   7.864
 2283POPC   C4B30526  26.643   0.496   7.524
 2284POPC   NC330527   6.057  28.181   9.452
 2284POPC   PO430528   5.403  28.515   9.432
 2284POPC   GL130529   5.734  28.451   9.166
 2284POPC   GL230530   5.953  28.740   9.293
 2284POPC   C1A30531   5.865  28.178   8.807
 2284POPC   D2A30532   6.085  28.231   8.406
 2284POPC   C3A30533   5.781  28.189   8.070
 2284POPC   C4A30534   5.802  28.018   7.644
 2284POPC   C1B30535   5.855  28.859   8.871
 2284POPC   C2B30536   5.793  28.660   8.474
 2284POPC   C3B30537   6.006  28.648   8.098
 2284POPC   C4B30538   5.815  28.715   7.743
 2285POPC   NC330539  30.267  35.638   9.518
 2285POPC   PO430540  30.609  35.075   9.563
 2285POPC   GL130541  30.778  35.070   9.167
 2285POPC   GL230542  30.389  35.081   9.089
 2285POPC   C1A30543  30.950  35.008   8.755
 2285POPC   D2A30544  30.760  35.221   8.416
 2285POPC   C3A30545  30.804  35.166   7.999
 2285POPC   C4A30546  30.469  35.149   7.707
 2285POPC   C1B30547  30.524  35.420   8.831
 2285POPC   C2B30548  30.444  35.621   8.427
 2285POPC   C3B30549  30.466  35.576   7.992
 2285POPC   C4B30550  30.493  35.623   7.553
 2286POPC   NC330551  34.243  34.576   9.563
 2286POPC   PO430552  34.802  34.235   9.393
 2286POPC   GL130553  34.601  34.534   9.119
 2286POPC   GL230554  34.536  34.869   9.173
 2286POPC   C1A30555  34.471  34.452   8.674
 2286POPC   D2A30556  34.655  34.251   8.270
 2286POPC   C3A30557  34.676  34.332   7.795
 2286POPC   C4A30558  35.003  34.348   7.375
 2286POPC   C1B30559  34.696  34.924   8.748
 2286POPC   C2B30560  34.762  35.089   8.323
 2286POPC   C3B30561  34.856  34.788   7.969
 2286POPC   C4B30562  34.714  34.753   7.536
 2287POPC   NC330563   7.758   4.681   9.724
 2287POPC   PO430564   7.492   4.110   9.500
 2287POPC   GL130565   7.437   4.373   9.126
 2287POPC   GL230566   7.618   4.708   9.179
 2287POPC   C1A30567   7.389   4.206   8.704
 2287POPC   D2A30568   7.109   4.346   8.377
 2287POPC   C3A30569   7.223   4.480   7.979
 2287POPC   C4A30570   7.516   4.183   7.819
 2287POPC   C1B30571   7.479   4.735   8.733
 2287POPC   C2B30572   7.617   4.511   8.336
 2287POPC   C3B30573   7.709   4.642   7.908
 2287POPC   C4B30574   7.860   4.474   7.492
 2288POPC   NC330575  34.439  36.559   9.709
 2288POPC   PO430576  34.372  35.944   9.392
 2288POPC   GL130577  34.503  36.143   9.041
 2288POPC   GL230578  34.839  36.265   9.112
 2288POPC   C1A30579  34.417  36.032   8.641
 2288POPC   D2A30580  34.223  35.687   8.437
 2288POPC   C3A30581  34.280  35.893   8.071
 2288POPC   C4A30582  34.533  36.183   7.829
 2288POPC   C1B30583  34.942  36.040   8.707
 2288POPC   C2B30584  34.826  36.145   8.281
 2288POPC   C3B30585  34.972  36.401   7.913
 2288POPC   C4B30586  35.143  36.638   7.556
 2289POPC   NC330587  21.119  33.734   9.534
 2289POPC   PO430588  21.709  33.384   9.653
 2289POPC   GL130589  21.507  33.535   9.253
 2289POPC   GL230590  21.480  33.914   9.203
 2289POPC   C1A30591  21.270  33.558   8.858
 2289POPC   D2A30592  21.404  33.579   8.437
 2289POPC   C3A30593  21.180  33.846   8.191
 2289POPC   C4A30594  21.207  33.746   7.789
 2289POPC   C1B30595  21.576  33.953   8.777
 2289POPC   C2B30596  21.613  34.098   8.343
 2289POPC   C3B30597  21.648  33.955   7.925
 2289POPC   C4B30598  21.716  33.554   7.750
 2290POPC   NC330599  11.687  10.543   9.509
 2290POPC   PO430600  10.912  10.470   9.555
 2290POPC   GL130601  11.095  10.434   9.144
 2290POPC   GL230602  11.366  10.222   9.101
 2290POPC   C1A30603  11.153  10.638   8.770
 2290POPC   D2A30604  11.145  10.549   8.359
 2290POPC   C3A30605  10.873  10.519   8.050
 2290POPC   C4A30606  11.074  10.612   7.663
 2290POPC   C1B30607  11.535  10.310   8.666
 2290POPC   C2B30608  11.633  10.622   8.307
 2290POPC   C3B30609  11.527  10.470   7.875
 2290POPC   C4B30610  11.544  10.386   7.407
 2291POPC   NC330611  34.150  26.230   9.607
 2291POPC   PO430612  33.456  26.366   9.469
 2291POPC   GL130613  33.584  26.140   9.110
 2291POPC   GL230614  33.799  25.897   9.223
 2291POPC   C1A30615  33.427  26.136   8.689
 2291POPC   D2A30616  33.193  26.098   8.295
 2291POPC   C3A30617  33.465  26.302   7.968
 2291POPC   C4A30618  33.523  26.233   7.526
 2291POPC   C1B30619  33.904  25.947   8.741
 2291POPC   C2B30620  33.742  25.978   8.288
 2291POPC   C3B30621  33.815  25.765   7.885
 2291POPC   C4B30622  34.154  25.456   7.857
 2292POPC   NC330623  30.588  10.861   9.401
 2292POPC   PO430624  30.947  10.411   9.737
 2292POPC   GL130625  30.781  10.238   9.237
 2292POPC   GL230626  30.498  10.419   9.183
 2292POPC   C1A30627  30.806  10.390   8.752
 2292POPC   D2A30628  30.894  10.664   8.371
 2292POPC   C3A30629  30.897  10.455   7.954
 2292POPC   C4A30630  30.871  10.719   7.559
 2292POPC   C1B30631  30.297  10.389   8.803
 2292POPC   C2B30632  30.406  10.483   8.404
 2292POPC   C3B30633  30.388  10.305   8.029
 2292POPC   C4B30634  30.470  10.393   7.653
 2293POPC   NC330635   6.238   6.618   9.549
 2293POPC   PO430636   5.705   6.971   9.332
 2293POPC   GL130637   5.963   6.627   9.135
 2293POPC   GL230638   6.272   6.357   9.128
 2293POPC   C1A30639   6.102   6.744   8.781
 2293POPC   D2A30640   5.833   6.630   8.485
 2293POPC   C3A30641   5.972   6.891   8.202
 2293POPC   C4A30642   5.863   6.910   7.813
 2293POPC   C1B30643   6.024   6.242   8.780
 2293POPC   C2B30644   6.035   6.165   8.365
 2293POPC   C3B30645   5.962   6.415   8.027
 2293POPC   C4B30646   6.179   6.499   7.670
 2294POPC   NC330647  10.771  21.601   9.513
 2294POPC   PO430648  10.688  20.957   9.300
 2294POPC   GL130649  10.532  21.297   9.046
 2294POPC   GL230650  10.512  21.657   9.094
 2294POPC   C1A30651  10.417  21.322   8.616
 2294POPC   D2A30652  10.245  21.331   8.177
 2294POPC   C3A30653  10.557  21.190   7.859
 2294POPC   C4A30654  10.499  20.957   7.425
 2294POPC   C1B30655  10.706  21.750   8.734
 2294POPC   C2B30656  10.570  21.700   8.300
 2294POPC   C3B30657  10.479  21.739   7.882
 2294POPC   C4B30658  10.760  21.927   7.600
 2295POPC   NC330659  15.796  15.315   9.660
 2295POPC   PO430660  16.395  15.165   9.444
 2295POPC   GL130661  16.048  15.080   9.129
 2295POPC   GL230662  15.702  15.261   9.167
 2295POPC   C1A30663  16.129  15.094   8.671
 2295POPC   D2A30664  16.419  15.354   8.406
 2295POPC   C3A30665  16.286  15.196   8.015
 2295POPC   C4A30666  16.134  15.324   7.632
 2295POPC   C1B30667  15.842  15.468   8.832
 2295POPC   C2B30668  15.974  15.604   8.446
 2295POPC   C3B30669  15.859  15.484   8.053
 2295POPC   C4B30670  15.641  15.417   7.693
 2296POPC   NC330671  37.262  24.225   9.532
 2296POPC   PO430672  37.960  24.213   9.534
 2296POPC   GL130673  37.712  24.423   9.250
 2296POPC   GL230674  37.550  24.158   9.129
 2296POPC   C1A30675  37.819  24.545   8.836
 2296POPC   D2A30676  37.918  24.773   8.475
 2296POPC   C3A30677  37.658  24.797   8.125
 2296POPC   C4A30678  37.696  24.556   7.737
 2296POPC   C1B30679  37.374  24.314   8.787
 2296POPC   C2B30680  37.577  24.325   8.384
 2296POPC   C3B30681  37.387  24.231   7.974
 2296POPC   C4B30682  37.515  24.027   7.584
 2297POPC   NC330683  25.716  44.265   9.367
 2297POPC   PO430684  25.527  44.925   9.501
 2297POPC   GL130685  25.324  44.838   9.133
 2297POPC   GL230686  25.607  44.646   9.041
 2297POPC   C1A30687  25.202  44.597   8.753
 2297POPC   D2A30688  25.476  44.481   8.396
 2297POPC   C3A30689  25.293  44.580   8.010
 2297POPC   C4A30690  24.915  44.606   7.796
 2297POPC   C1B30691  25.658  44.888   8.667
 2297POPC   C2B30692  25.684  44.961   8.244
 2297POPC   C3B30693  25.578  44.988   7.824
 2297POPC   C4B30694  25.393  44.713   7.527
 2298POPC   NC330695  35.140  26.829   9.647
 2298POPC   PO430696  35.805  26.999   9.710
 2298POPC   GL130697  35.536  26.874   9.290
 2298POPC   GL230698  35.209  26.680   9.167
 2298POPC   C1A30699  35.420  27.057   8.870
 2298POPC   D2A30700  35.211  27.056   8.461
 2298POPC   C3A30701  35.505  27.149   8.131
 2298POPC   C4A30702  35.537  27.080   7.711
 2298POPC   C1B30703  35.271  26.578   8.747
 2298POPC   C2B30704  35.313  26.553   8.306
 2298POPC   C3B30705  35.276  26.632   7.869
 2298POPC   C4B30706  35.591  26.604   7.566
 2299POPC   NC330707  24.910  12.217   9.293
 2299POPC   PO430708  24.344  12.392   9.415
 2299POPC   GL130709  24.430  12.198   9.050
 2299POPC   GL230710  24.667  12.428   8.879
 2299POPC   C1A30711  24.385  12.017   8.648
 2299POPC   D2A30712  24.551  12.234   8.294
 2299POPC   C3A30713  24.432  12.003   7.938
 2299POPC   C4A30714  24.076  12.109   7.752
 2299POPC   C1B30715  24.914  12.078   8.675
 2299POPC   C2B30716  24.843  11.823   8.347
 2299POPC   C3B30717  24.927  11.928   7.935
 2299POPC   C4B30718  24.793  11.705   7.594
 2300POPC   NC330719  36.505  32.954   9.447
 2300POPC   PO430720  35.971  33.379   9.563
 2300POPC   GL130721  36.108  33.181   9.155
 2300POPC   GL230722  36.148  32.826   9.114
 2300POPC   C1A30723  36.128  33.173   8.679
 2300POPC   D2A30724  36.243  33.332   8.243
 2300POPC   C3A30725  35.925  33.236   7.951
 2300POPC   C4A30726  36.005  33.157   7.524
 2300POPC   C1B30727  36.480  32.814   8.786
 2300POPC   C2B30728  36.319  32.796   8.365
 2300POPC   C3B30729  36.282  32.857   7.933
 2300POPC   C4B30730  36.181  32.659   7.550
 2301POPC   NC330731   6.297  22.826   9.719
 2301POPC   PO430732   6.853  23.183   9.615
 2301POPC   GL130733   6.836  23.068   9.137
 2301POPC   GL230734   6.503  22.958   9.042
 2301POPC   C1A30735   6.812  22.912   8.648
 2301POPC   D2A30736   6.490  22.969   8.309
 2301POPC   C3A30737   6.667  23.042   7.910
 2301POPC   C4A30738   6.917  23.392   7.763
 2301POPC   C1B30739   6.333  22.723   8.735
 2301POPC   C2B30740   6.406  22.457   8.368
 2301POPC   C3B30741   6.383  22.590   7.961
 2301POPC   C4B30742   6.182  22.940   7.766
 2302POPC   NC330743  21.106   0.434   9.498
 2302POPC   PO430744  21.719   0.101   9.400
 2302POPC   GL130745  21.430   0.347   9.087
 2302POPC   GL230746  21.180   0.642   9.065
 2302POPC   C1A30747  21.246   0.326   8.665
 2302POPC   D2A30748  21.566   0.466   8.409
 2302POPC   C3A30749  21.552   0.380   8.043
 2302POPC   C4A30750  21.768   0.528   7.717
 2302POPC   C1B30751  21.398   0.791   8.769
 2302POPC   C2B30752  21.254   0.855   8.425
 2302POPC   C3B30753  21.124   0.666   8.093
 2302POPC   C4B30754  21.289   0.658   7.710
 2303POPC   NC330755  43.362   5.422   9.420
 2303POPC   PO430756  42.948   4.953   9.707
 2303POPC   GL130757  43.029   4.946   9.294
 2303POPC   GL230758  43.372   4.950   9.210
 2303POPC   C1A30759  42.924   4.858   8.877
 2303POPC   D2A30760  43.096   4.980   8.484
 2303POPC   C3A30761  42.912   4.873   8.096
 2303POPC   C4A30762  42.971   5.089   7.707
 2303POPC   C1B30763  43.457   5.159   8.812
 2303POPC   C2B30764  43.644   5.067   8.420
 2303POPC   C3B30765  43.412   5.046   8.069
 2303POPC   C4B30766  43.534   4.990   7.690
 2304POPC   NC330767  33.566  19.840   9.681
 2304POPC   PO430768  34.038  20.256   9.518
 2304POPC   GL130769  33.743  20.169   9.176
 2304POPC   GL230770  33.553  19.843   9.178
 2304POPC   C1A30771  33.919  19.983   8.796
 2304POPC   D2A30772  34.249  19.787   8.543
 2304POPC   C3A30773  34.057  19.719   8.164
 2304POPC   C4A30774  33.977  19.956   7.814
 2304POPC   C1B30775  33.494  19.689   8.773
 2304POPC   C2B30776  33.612  19.866   8.373
 2304POPC   C3B30777  33.525  19.742   7.957
 2304POPC   C4B30778  33.274  19.419   7.804
 2305POPC   NC330779  22.770   0.980   9.507
 2305POPC   PO430780  23.232   1.392   9.310
 2305POPC   GL130781  23.000   1.131   9.079
 2305POPC   GL230782  22.644   1.282   9.104
 2305POPC   C1A30783  22.859   1.017   8.698
 2305POPC   D2A30784  23.048   0.968   8.320
 2305POPC   C3A30785  22.868   1.133   7.989
 2305POPC   C4A30786  22.885   1.203   7.582
 2305POPC   C1B30787  22.839   1.514   8.754
 2305POPC   C2B30788  23.019   1.498   8.337
 2305POPC   C3B30789  22.975   1.621   7.900
 2305POPC   C4B30790  23.205   1.575   7.485
 2306POPC   NC330791   8.604   3.039   9.265
 2306POPC   PO430792   8.130   2.677   9.617
 2306POPC   GL130793   8.004   2.745   9.179
 2306POPC   GL230794   8.088   3.056   9.110
 2306POPC   C1A30795   8.178   2.666   8.731
 2306POPC   D2A30796   8.374   2.727   8.284
 2306POPC   C3A30797   8.027   2.637   7.992
 2306POPC   C4A30798   7.753   2.346   7.747
 2306POPC   C1B30799   8.240   3.171   8.704
 2306POPC   C2B30800   8.053   3.111   8.313
 2306POPC   C3B30801   8.259   3.096   7.914
 2306POPC   C4B30802   8.447   2.801   7.673
 2307POPC   NC330803  28.350   2.974   9.725
 2307POPC   PO430804  28.278   2.404   9.539
 2307POPC   GL130805  28.386   2.727   9.174
 2307POPC   GL230806  28.370   3.109   9.208
 2307POPC   C1A30807  28.469   2.596   8.730
 2307POPC   D2A30808  28.278   2.633   8.351
 2307POPC   C3A30809  28.569   2.580   8.002
 2307POPC   C4A30810  28.478   2.699   7.570
 2307POPC   C1B30811  28.535   3.076   8.789
 2307POPC   C2B30812  28.346   3.185   8.391
 2307POPC   C3B30813  28.262   2.987   7.981
 2307POPC   C4B30814  28.698   3.070   7.849
 2308POPC   NC330815  44.720   6.901   9.389
 2308POPC   PO430816  44.581   6.247   9.482
 2308POPC   GL130817  44.838   6.459   9.137
 2308POPC   GL230818  44.512   6.568   9.049
 2308POPC   C1A30819  44.845   6.715   8.701
 2308POPC   D2A30820  44.907   6.715   8.243
 2308POPC   C3A30821  44.645   7.001   7.978
 2308POPC   C4A30822  44.479   7.264   7.656
 2308POPC   C1B30823  44.512   6.298   8.705
 2308POPC   C2B30824  44.808   6.216   8.390
 2308POPC   C3B30825  44.605   6.357   8.023
 2308POPC   C4B30826  44.409   6.615   7.704
 2309POPC   NC330827  42.057  43.921   9.471
 2309POPC   PO430828  42.747  44.032   9.534
 2309POPC   GL130829  42.492  44.135   9.196
 2309POPC   GL230830  42.443  43.768   9.159
 2309POPC   C1A30831  42.213  44.087   8.824
 2309POPC   D2A30832  41.997  43.876   8.456
 2309POPC   C3A30833  42.210  43.929   8.070
 2309POPC   C4A30834  42.105  44.009   7.663
 2309POPC   C1B30835  42.280  43.583   8.780
 2309POPC   C2B30836  42.381  43.516   8.356
 2309POPC   C3B30837  42.366  43.450   7.926
 2309POPC   C4B30838  42.528  43.609   7.544
 2310POPC   NC330839   9.268  40.477   9.409
 2310POPC   PO430840   8.837  40.969   9.652
 2310POPC   GL130841   8.936  40.836   9.224
 2310POPC   GL230842   8.905  41.154   9.096
 2310POPC   C1A30843   9.074  40.774   8.789
 2310POPC   D2A30844   9.376  40.613   8.490
 2310POPC   C3A30845   9.212  40.764   8.093
 2310POPC   C4A30846   9.022  40.763   7.699
 2310POPC   C1B30847   8.775  41.237   8.712
 2310POPC   C2B30848   8.879  41.095   8.311
 2310POPC   C3B30849   8.810  41.215   7.888
 2310POPC   C4B30850   8.854  41.167   7.415
 2311POPC   NC330851  24.509  23.188   9.868
 2311POPC   PO430852  24.443  23.864   9.571
 2311POPC   GL130853  24.734  23.846   9.230
 2311POPC   GL230854  24.412  23.832   9.029
 2311POPC   C1A30855  24.834  23.741   8.799
 2311POPC   D2A30856  24.603  23.657   8.467
 2311POPC   C3A30857  24.767  23.850   8.105
 2311POPC   C4A30858  24.435  23.861   7.851
 2311POPC   C1B30859  24.156  23.574   8.733
 2311POPC   C2B30860  24.054  23.398   8.331
 2311POPC   C3B30861  24.045  23.522   7.941
 2311POPC   C4B30862  24.214  23.294   7.633
 2312POPC   NC330863  32.909  17.907   9.285
 2312POPC   PO430864  32.947  18.574   9.468
 2312POPC   GL130865  33.061  18.373   9.112
 2312POPC   GL230866  33.370  18.534   9.049
 2312POPC   C1A30867  32.841  18.333   8.737
 2312POPC   D2A30868  32.631  18.084   8.440
 2312POPC   C3A30869  32.667  18.248   8.030
 2312POPC   C4A30870  33.030  18.115   7.794
 2312POPC   C1B30871  33.321  18.185   8.717
 2312POPC   C2B30872  33.135  18.296   8.299
 2312POPC   C3B30873  33.301  18.514   7.928
 2312POPC   C4B30874  33.517  18.526   7.499
 2313POPC   NC330875  13.571  29.743   9.424
 2313POPC   PO430876  13.213  30.331   9.240
 2313POPC   GL130877  13.541  30.105   9.016
 2313POPC   GL230878  13.896  30.123   9.083
 2313POPC   C1A30879  13.588  29.729   8.755
 2313POPC   D2A30880  13.366  29.649   8.388
 2313POPC   C3A30881  13.308  30.010   8.152
 2313POPC   C4A30882  13.479  30.195   7.794
 2313POPC   C1B30883  13.924  30.304   8.648
 2313POPC   C2B30884  13.808  30.212   8.214
 2313POPC   C3B30885  13.964  29.868   7.951
 2313POPC   C4B30886  13.912  29.436   7.828
 2314POPC   NC330887  17.494  38.589   9.545
 2314POPC   PO430888  17.425  37.923   9.728
 2314POPC   GL130889  17.380  38.210   9.246
 2314POPC   GL230890  17.270  38.619   9.073
 2314POPC   C1A30891  17.634  38.393   8.849
 2314POPC   D2A30892  17.637  38.626   8.441
 2314POPC   C3A30893  17.497  38.363   8.093
 2314POPC   C4A30894  17.567  38.115   7.698
 2314POPC   C1B30895  17.217  38.976   8.723
 2314POPC   C2B30896  17.310  39.120   8.280
 2314POPC   C3B30897  17.515  38.865   7.965
 2314POPC   C4B30898  17.745  38.585   7.693
 2315POPC   NC330899  11.147  42.156   9.467
 2315POPC   PO430900  11.479  42.687   9.324
 2315POPC   GL130901  11.187  42.548   9.041
 2315POPC   GL230902  11.236  42.211   8.992
 2315POPC   C1A30903  11.125  42.502   8.592
 2315POPC   D2A30904  10.980  42.538   8.180
 2315POPC   C3A30905  11.226  42.272   7.949
 2315POPC   C4A30906  11.410  42.264   7.538
 2315POPC   C1B30907  11.021  41.982   8.697
 2315POPC   C2B30908  10.833  42.055   8.273
 2315POPC   C3B30909  10.840  41.935   7.825
 2315POPC   C4B30910  11.013  41.907   7.374
 2316POPC   NC330911   5.757  21.257   9.672
 2316POPC   PO430912   5.908  21.891   9.373
 2316POPC   GL130913   5.981  21.456   9.209
 2316POPC   GL230914   5.720  21.189   9.168
 2316POPC   C1A30915   6.000  21.341   8.779
 2316POPC   D2A30916   5.727  21.262   8.449
 2316POPC   C3A30917   5.974  21.268   8.116
 2316POPC   C4A30918   5.807  21.300   7.727
 2316POPC   C1B30919   5.630  20.931   8.817
 2316POPC   C2B30920   5.830  20.759   8.426
 2316POPC   C3B30921   5.669  20.870   8.005
 2316POPC   C4B30922   5.707  20.842   7.556
 2317POPC   NC330923  33.842  37.350   9.669
 2317POPC   PO430924  33.994  36.689   9.599
 2317POPC   GL130925  33.656  36.904   9.306
 2317POPC   GL230926  33.394  36.675   9.129
 2317POPC   C1A30927  33.696  37.154   8.908
 2317POPC   D2A30928  33.859  37.032   8.465
 2317POPC   C3A30929  33.769  37.220   8.039
 2317POPC   C4A30930  33.383  37.222   7.807
 2317POPC   C1B30931  33.737  36.656   8.818
 2317POPC   C2B30932  33.778  36.515   8.398
 2317POPC   C3B30933  33.728  36.703   8.008
 2317POPC   C4B30934  33.533  36.732   7.624
 2318POPC   NC330935  11.093  18.712   9.484
 2318POPC   PO430936  11.379  19.374   9.296
 2318POPC   GL130937  11.310  19.014   9.104
 2318POPC   GL230938  11.014  19.032   9.094
 2318POPC   C1A30939  11.179  18.815   8.688
 2318POPC   D2A30940  11.123  18.665   8.287
 2318POPC   C3A30941  11.391  18.866   7.966
 2318POPC   C4A30942  11.191  18.842   7.545
 2318POPC   C1B30943  10.956  19.290   8.719
 2318POPC   C2B30944  11.024  19.190   8.287
 2318POPC   C3B30945  11.054  19.220   7.860
 2318POPC   C4B30946  11.409  19.503   7.722
 2319POPC   NC330947  37.273   0.670   9.387
 2319POPC   PO430948  36.609   0.439   9.511
 2319POPC   GL130949  36.850   0.459   9.172
 2319POPC   GL230950  37.014   0.223   9.094
 2319POPC   C1A30951  36.763   0.493   8.743
 2319POPC   D2A30952  36.796   0.244   8.387
 2319POPC   C3A30953  36.751   0.372   7.980
 2319POPC   C4A30954  36.493   0.711   7.815
 2319POPC   C1B30955  37.314   0.388   8.822
 2319POPC   C2B30956  37.268   0.421   8.424
 2319POPC   C3B30957  37.206   0.064   8.151
 2319POPC   C4B30958  37.288   0.151   7.736
 2320POPC   NC330959  13.975  27.017   9.573
 2320POPC   PO430960  13.465  26.530   9.611
 2320POPC   GL130961  13.733  26.684   9.278
 2320POPC   GL230962  13.855  26.423   9.100
 2320POPC   C1A30963  13.753  27.046   8.951
 2320POPC   D2A30964  13.641  27.091   8.502
 2320POPC   C3A30965  13.956  27.138   8.160
 2320POPC   C4A30966  13.820  26.992   7.754
 2320POPC   C1B30967  13.567  26.617   8.787
 2320POPC   C2B30968  13.536  26.593   8.347
 2320POPC   C3B30969  13.383  26.835   8.010
 2320POPC   C4B30970  13.300  26.854   7.571
 2321POPC   NC330971  30.874  14.480   9.506
 2321POPC   PO430972  30.356  14.500   9.224
 2321POPC   GL130973  30.678  14.511   8.944
 2321POPC   GL230974  30.882  14.289   9.029
 2321POPC   C1A30975  30.650  14.628   8.537
 2321POPC   D2A30976  30.385  14.680   8.228
 2321POPC   C3A30977  30.574  14.495   7.943
 2321POPC   C4A30978  30.897  14.412   7.731
 2321POPC   C1B30979  31.056  14.135   8.668
 2321POPC   C2B30980  30.866  14.203   8.287
 2321POPC   C3B30981  31.104  14.035   8.005
 2321POPC   C4B30982  31.073  13.931   7.604
 2322POPC   NC330983   6.197  44.900   9.540
 2322POPC   PO430984   5.517   0.023   9.436
 2322POPC   GL130985   5.782  44.790   9.128
 2322POPC   GL230986   6.121  44.734   9.084
 2322POPC   C1A30987   5.796  44.532   8.772
 2322POPC   D2A30988   5.597  44.373   8.452
 2322POPC   C3A30989   5.831  44.492   8.105
 2322POPC   C4A30990   5.703  44.549   7.720
 2322POPC   C1B30991   6.174  44.999   8.775
 2322POPC   C2B30992   6.013  44.893   8.402
 2322POPC   C3B30993   5.946   0.046   8.029
 2322POPC   C4B30994   6.127  44.828   7.711
 2323POPC   NC330995  39.718  43.686   9.583
 2323POPC   PO430996  40.181  44.204   9.660
 2323POPC   GL130997  40.109  44.134   9.236
 2323POPC   GL230998  39.754  44.190   9.270
 2323POPC   C1A30999  40.262  43.950   8.820
 2323POPC   D2A31000  40.353  44.154   8.416
 2323POPC   C3A31001  40.171  43.985   8.009
 2323POPC   C4A31002  40.023  43.847   7.561
 2323POPC   C1B31003  39.756  43.962   8.861
 2323POPC   C2B31004  39.893  43.862   8.420
 2323POPC   C3B31005  39.680  43.876   7.984
 2323POPC   C4B31006  39.580  44.142   7.624
 2324POPC   NC331007  38.849  15.338   9.474
 2324POPC   PO431008  38.358  14.829   9.382
 2324POPC   GL131009  38.429  15.188   9.119
 2324POPC   GL231010  38.751  15.035   9.068
 2324POPC   C1A31011  38.166  15.460   8.822
 2324POPC   D2A31012  38.060  15.662   8.385
 2324POPC   C3A31013  38.201  15.454   7.955
 2324POPC   C4A31014  38.275  15.276   7.526
 2324POPC   C1B31015  38.603  15.023   8.646
 2324POPC   C2B31016  38.324  14.870   8.330
 2324POPC   C3B31017  38.310  14.918   7.882
 2324POPC   C4B31018  38.596  14.881   7.497
 2325POPC   NC331019  28.245  37.027   9.634
 2325POPC   PO431020  28.574  36.454   9.616
 2325POPC   GL131021  28.550  36.794   9.295
 2325POPC   GL231022  28.189  36.878   9.142
 2325POPC   C1A31023  28.595  37.049   8.912
 2325POPC   D2A31024  28.362  36.936   8.525
 2325POPC   C3A31025  28.584  37.034   8.139
 2325POPC   C4A31026  28.427  36.962   7.719
 2325POPC   C1B31027  28.396  36.542   8.876
 2325POPC   C2B31028  28.297  36.394   8.438
 2325POPC   C3B31029  28.378  36.545   8.023
 2325POPC   C4B31030  28.447  36.420   7.587
 2326POPC   NC331031  43.401  32.777   9.646
 2326POPC   PO431032  42.954  33.267   9.734
 2326POPC   GL131033  43.060  33.118   9.271
 2326POPC   GL231034  43.167  32.764   9.197
 2326POPC   C1A31035  42.959  33.063   8.810
 2326POPC   D2A31036  42.989  32.833   8.433
 2326POPC   C3A31037  42.940  33.053   8.034
 2326POPC   C4A31038  43.278  33.328   7.948
 2326POPC   C1B31039  43.390  32.777   8.827
 2326POPC   C2B31040  43.501  32.628   8.447
 2326POPC   C3B31041  43.381  32.766   8.076
 2326POPC   C4B31042  43.362  32.914   7.684
 2327POPC   NC331043  27.413  22.655   9.577
 2327POPC   PO431044  26.776  22.754   9.523
 2327POPC   GL131045  26.615  22.982   9.162
 2327POPC   GL231046  26.891  22.986   9.019
 2327POPC   C1A31047  26.469  22.813   8.748
 2327POPC   D2A31048  26.619  22.867   8.288
 2327POPC   C3A31049  26.408  22.689   7.898
 2327POPC   C4A31050  26.440  22.763   7.449
 2327POPC   C1B31051  26.755  23.246   8.714
 2327POPC   C2B31052  27.046  23.059   8.469
 2327POPC   C3B31053  27.132  23.116   8.077
 2327POPC   C4B31054  26.813  22.961   7.788
 2328POPC   NC331055  35.245  20.731   9.672
 2328POPC   PO431056  35.794  20.806   9.279
 2328POPC   GL131057  35.417  20.628   9.196
 2328POPC   GL231058  35.158  20.889   9.176
 2328POPC   C1A31059  35.245  20.435   8.827
 2328POPC   D2A31060  35.017  20.421   8.431
 2328POPC   C3A31061  35.119  20.434   7.996
 2328POPC   C4A31062  34.911  20.433   7.586
 2328POPC   C1B31063  35.401  20.921   8.773
 2328POPC   C2B31064  35.247  20.919   8.372
 2328POPC   C3B31065  35.407  20.851   7.987
 2328POPC   C4B31066  35.784  20.792   7.768
 2329POPC   NC331067  36.896   0.100   9.596
 2329POPC   PO431068  37.064  44.497   9.438
 2329POPC   GL131069  37.095  44.740   9.129
 2329POPC   GL231070  36.891  44.569   8.931
 2329POPC   C1A31071  37.126  44.939   8.681
 2329POPC   D2A31072  36.860  44.734   8.404
 2329POPC   C3A31073  36.945  44.459   8.091
 2329POPC   C4A31074  37.241  44.632   7.831
 2329POPC   C1B31075  36.686  44.318   8.641
 2329POPC   C2B31076  36.452  44.419   8.276
 2329POPC   C3B31077  36.490  44.358   7.852
 2329POPC   C4B31078  36.814  44.493   7.577
 2330POPC   NC331079  37.724  21.160   9.646
 2330POPC   PO431080  37.324  21.782   9.551
 2330POPC   GL131081  37.490  21.555   9.154
 2330POPC   GL231082  37.556  21.195   9.126
 2330POPC   C1A31083  37.806  21.489   8.779
 2330POPC   D2A31084  37.699  21.508   8.359
 2330POPC   C3A31085  37.979  21.534   8.051
 2330POPC   C4A31086  38.039  21.733   7.689
 2330POPC   C1B31087  37.319  21.331   8.716
 2330POPC   C2B31088  37.204  21.484   8.282
 2330POPC   C3B31089  37.330  21.525   7.859
 2330POPC   C4B31090  37.504  21.115   7.745
 2331POPC   NC331091  12.288  25.427   9.625
 2331POPC   PO431092  11.915  24.980   9.284
 2331POPC   GL131093  12.007  25.198   8.918
 2331POPC   GL231094  12.271  25.410   9.105
 2331POPC   C1A31095  11.715  25.393   8.641
 2331POPC   D2A31096  11.609  25.291   8.247
 2331POPC   C3A31097  12.028  25.289   8.118
 2331POPC   C4A31098  12.319  25.580   7.924
 2331POPC   C1B31099  12.485  25.137   8.807
 2331POPC   C2B31100  12.398  24.940   8.437
 2331POPC   C3B31101  12.400  24.832   8.038
 2331POPC   C4B31102  12.215  25.075   7.711
 2332POPC   NC331103  19.711  15.046   9.806
 2332POPC   PO431104  19.455  15.494   9.553
 2332POPC   GL131105  19.722  15.227   9.301
 2332POPC   GL231106  19.719  15.494   9.072
 2332POPC   C1A31107  19.947  15.095   8.896
 2332POPC   D2A31108  19.829  15.294   8.480
 2332POPC   C3A31109  19.897  15.070   8.077
 2332POPC   C4A31110  19.871  14.914   7.632
 2332POPC   C1B31111  19.537  15.687   8.719
 2332POPC   C2B31112  19.447  15.602   8.268
 2332POPC   C3B31113  19.629  15.575   7.836
 2332POPC   C4B31114  19.576  15.301   7.471
 2333POPC   NC331115  32.160  22.016   9.570
 2333POPC   PO431116  32.400  22.576   9.391
 2333POPC   GL131117  32.420  22.233   9.174
 2333POPC   GL231118  32.069  22.269   9.116
 2333POPC   C1A31119  32.412  21.977   8.808
 2333POPC   D2A31120  32.444  21.803   8.395
 2333POPC   C3A31121  32.191  21.979   8.078
 2333POPC   C4A31122  32.257  22.199   7.727
 2333POPC   C1B31123  32.254  22.460   8.741
 2333POPC   C2B31124  32.479  22.363   8.326
 2333POPC   C3B31125  32.452  22.615   7.935
 2333POPC   C4B31126  32.300  22.635   7.487
 2334POPC   NC331127  35.692  35.583   9.168
 2334POPC   PO431128  36.104  35.081   9.365
 2334POPC   GL131129  36.077  35.260   8.979
 2334POPC   GL231130  36.249  35.535   9.117
 2334POPC   C1A31131  36.092  35.224   8.528
 2334POPC   D2A31132  36.306  35.083   8.175
 2334POPC   C3A31133  35.993  35.010   7.883
 2334POPC   C4A31134  35.754  35.303   7.627
 2334POPC   C1B31135  36.285  35.679   8.697
 2334POPC   C2B31136  36.378  35.593   8.273
 2334POPC   C3B31137  36.137  35.523   7.897
 2334POPC   C4B31138  35.958  35.822   7.575
 2335POPC   NC331139  14.719  14.138   9.418
 2335POPC   PO431140  14.475  14.750   9.266
 2335POPC   GL131141  14.561  14.500   8.993
 2335POPC   GL231142  14.406  14.160   9.016
 2335POPC   C1A31143  14.326  14.469   8.616
 2335POPC   D2A31144  14.202  14.122   8.378
 2335POPC   C3A31145  14.322  14.325   8.024
 2335POPC   C4A31146  14.595  14.632   7.873
 2335POPC   C1B31147  14.759  14.157   8.703
 2335POPC   C2B31148  14.734  14.000   8.274
 2335POPC   C3B31149  14.793  14.154   7.869
 2335POPC   C4B31150  14.683  14.273   7.437
 2336POPC   NC331151  35.076   1.233   9.405
 2336POPC   PO431152  34.415   1.251   9.397
 2336POPC   GL131153  34.478   1.268   9.031
 2336POPC   GL231154  34.816   1.326   8.999
 2336POPC   C1A31155  34.301   1.251   8.697
 2336POPC   D2A31156  34.128   1.140   8.326
 2336POPC   C3A31157  34.389   1.108   7.952
 2336POPC   C4A31158  34.345   1.453   7.593
 2336POPC   C1B31159  34.808   1.059   8.668
 2336POPC   C2B31160  34.656   1.295   8.345
 2336POPC   C3B31161  34.757   1.447   7.975
 2336POPC   C4B31162  34.776   1.204   7.595
 2337POPC   NC331163   0.921  25.605   9.312
 2337POPC   PO431164   1.434  25.311   9.555
 2337POPC   GL131165   1.244  25.247   9.142
 2337POPC   GL231166   1.520  25.177   8.920
 2337POPC   C1A31167   1.035  25.343   8.721
 2337POPC   D2A31168   1.245  25.225   8.389
 2337POPC   C3A31169   1.040  25.048   8.082
 2337POPC   C4A31170   1.171  25.014   7.668
 2337POPC   C1B31171   1.487  25.573   8.666
 2337POPC   C2B31172   1.371  25.669   8.211
 2337POPC   C3B31173   1.264  25.534   7.770
 2337POPC   C4B31174   1.281  25.752   7.349
 2338POPC   NC331175  13.067  36.652   9.471
 2338POPC   PO431176  12.707  37.227   9.352
 2338POPC   GL131177  12.970  37.004   9.083
 2338POPC   GL231178  12.995  36.633   8.993
 2338POPC   C1A31179  13.012  36.992   8.656
 2338POPC   D2A31180  13.179  36.856   8.315
 2338POPC   C3A31181  12.959  37.066   8.035
 2338POPC   C4A31182  12.769  37.205   7.700
 2338POPC   C1B31183  12.887  36.480   8.622
 2338POPC   C2B31184  12.806  36.408   8.242
 2338POPC   C3B31185  13.038  36.535   7.944
 2338POPC   C4B31186  12.959  36.729   7.612
 2339POPC   NC331187  11.167  44.488   9.577
 2339POPC   PO431188  11.735  44.896   9.426
 2339POPC   GL131189  11.470  44.619   9.186
 2339POPC   GL231190  11.113  44.795   9.170
 2339POPC   C1A31191  11.307  44.526   8.778
 2339POPC   D2A31192  11.344  44.767   8.414
 2339POPC   C3A31193  11.285  44.577   8.017
 2339POPC   C4A31194  11.617  44.313   7.884
 2339POPC   C1B31195  10.868  44.826   8.774
 2339POPC   C2B31196  10.844  44.710   8.342
 2339POPC   C3B31197  10.657  44.816   7.964
 2339POPC   C4B31198  10.835  44.423   7.846
 2340POPC   NC331199   9.287  27.522   9.571
 2340POPC   PO431200   8.833  28.059   9.464
 2340POPC   GL131201   8.879  27.793   9.121
 2340POPC   GL231202   9.069  27.517   9.113
 2340POPC   C1A31203   8.896  27.773   8.679
 2340POPC   D2A31204   9.080  27.672   8.301
 2340POPC   C3A31205   8.891  27.679   7.893
 2340POPC   C4A31206   9.168  27.488   7.618
 2340POPC   C1B31207   8.752  27.306   8.884
 2340POPC   C2B31208   8.749  27.214   8.457
 2340POPC   C3B31209   8.959  27.209   8.067
 2340POPC   C4B31210   8.766  27.185   7.667
 2341POPC   NC331211  21.720   8.782   9.512
 2341POPC   PO431212  21.254   9.271   9.554
 2341POPC   GL131213  21.397   9.022   9.194
 2341POPC   GL231214  21.615   9.234   9.153
 2341POPC   C1A31215  21.460   8.789   8.789
 2341POPC   D2A31216  21.318   8.933   8.368
 2341POPC   C3A31217  21.491   8.796   7.963
 2341POPC   C4A31218  21.507   8.694   7.476
 2341POPC   C1B31219  21.330   9.280   8.766
 2341POPC   C2B31220  21.464   9.428   8.357
 2341POPC   C3B31221  21.276   9.427   7.970
 2341POPC   C4B31222  21.359   9.165   7.653
 2342POPC   NC331223  21.378  40.950   9.765
 2342POPC   PO431224  21.406  41.548   9.575
 2342POPC   GL131225  21.283  41.508   9.152
 2342POPC   GL231226  21.375  41.160   9.204
 2342POPC   C1A31227  21.336  41.693   8.731
 2342POPC   D2A31228  21.182  41.811   8.306
 2342POPC   C3A31229  21.434  41.647   7.948
 2342POPC   C4A31230  21.487  41.843   7.538
 2342POPC   C1B31231  21.207  41.155   8.780
 2342POPC   C2B31232  21.255  41.280   8.344
 2342POPC   C3B31233  21.168  41.188   7.916
 2342POPC   C4B31234  21.352  41.317   7.522
 2343POPC   NC331235  39.454  14.649   9.481
 2343POPC   PO431236  38.993  14.142   9.735
 2343POPC   GL131237  39.107  14.220   9.272
 2343POPC   GL231238  39.486  14.255   9.172
 2343POPC   C1A31239  39.171  14.258   8.788
 2343POPC   D2A31240  39.403  14.388   8.433
 2343POPC   C3A31241  39.190  14.419   8.098
 2343POPC   C4A31242  39.184  14.397   7.701
 2343POPC   C1B31243  39.610  14.623   8.842
 2343POPC   C2B31244  39.727  14.782   8.384
 2343POPC   C3B31245  39.592  14.760   7.945
 2343POPC   C4B31246  39.667  14.521   7.611
 2344POPC   NC331247  13.909  13.430   9.241
 2344POPC   PO431248  13.354  13.804   9.420
 2344POPC   GL131249  13.498  13.701   9.032
 2344POPC   GL231250  13.390  13.360   9.085
 2344POPC   C1A31251  13.723  13.607   8.629
 2344POPC   D2A31252  13.776  13.387   8.216
 2344POPC   C3A31253  13.892  13.680   7.887
 2344POPC   C4A31254  13.821  13.922   7.469
 2344POPC   C1B31255  13.250  13.374   8.694
 2344POPC   C2B31256  13.313  13.582   8.320
 2344POPC   C3B31257  13.313  13.403   7.918
 2344POPC   C4B31258  13.507  13.541   7.582
 2345POPC   NC331259  14.818   0.776   9.438
 2345POPC   PO431260  14.361   0.273   9.513
 2345POPC   GL131261  14.296   0.435   9.155
 2345POPC   GL231262  14.353   0.748   9.194
 2345POPC   C1A31263  14.456   0.439   8.743
 2345POPC   D2A31264  14.836   0.504   8.503
 2345POPC   C3A31265  14.812   0.451   8.053
 2345POPC   C4A31266  14.754   0.645   7.667
 2345POPC   C1B31267  14.603   0.909   8.821
 2345POPC   C2B31268  14.468   0.839   8.390
 2345POPC   C3B31269  14.308   0.542   8.088
 2345POPC   C4B31270  14.196   0.633   7.683
 2346POPC   NC331271  25.650  37.494   9.277
 2346POPC   PO431272  26.280  37.236   9.513
 2346POPC   GL131273  26.205  37.512   9.163
 2346POPC   GL231274  26.223  37.889   9.191
 2346POPC   C1A31275  26.202  37.431   8.718
 2346POPC   D2A31276  26.354  37.260   8.300
 2346POPC   C3A31277  26.199  37.488   7.939
 2346POPC   C4A31278  25.776  37.598   7.796
 2346POPC   C1B31279  26.138  37.997   8.734
 2346POPC   C2B31280  26.088  37.871   8.288
 2346POPC   C3B31281  26.116  38.018   7.862
 2346POPC   C4B31282  26.053  38.419   7.668
 2347POPC   NC331283   1.808  25.000   9.472
 2347POPC   PO431284   2.379  25.432   9.387
 2347POPC   GL131285   2.124  25.186   9.127
 2347POPC   GL231286   1.874  25.455   9.151
 2347POPC   C1A31287   2.238  24.963   8.760
 2347POPC   D2A31288   2.466  25.218   8.477
 2347POPC   C3A31289   2.240  25.160   8.138
 2347POPC   C4A31290   2.150  25.284   7.753
 2347POPC   C1B31291   1.960  25.377   8.683
 2347POPC   C2B31292   1.777  25.345   8.279
 2347POPC   C3B31293   1.758  25.592   7.906
 2347POPC   C4B31294   1.769  25.598   7.474
 2348POPC   NC331295   2.881  23.614  10.018
 2348POPC   PO431296   2.904  24.008   9.467
 2348POPC   GL131297   2.721  23.766   9.168
 2348POPC   GL231298   3.015  23.641   9.003
 2348POPC   C1A31299   2.580  23.685   8.757
 2348POPC   D2A31300   2.551  23.545   8.347
 2348POPC   C3A31301   2.919  23.439   8.135
 2348POPC   C4A31302   2.825  23.693   7.800
 2348POPC   C1B31303   2.965  24.000   8.738
 2348POPC   C2B31304   2.913  23.973   8.254
 2348POPC   C3B31305   3.048  24.131   7.845
 2348POPC   C4B31306   3.101  23.987   7.396
 2349POPC   NC331307  40.452  30.510   9.520
 2349POPC   PO431308  39.817  30.600   9.357
 2349POPC   GL131309  40.033  30.634   9.008
 2349POPC   GL231310  40.335  30.785   9.081
 2349POPC   C1A31311  40.144  30.662   8.596
 2349POPC   D2A31312  40.361  30.415   8.332
 2349POPC   C3A31313  40.124  30.549   7.998
 2349POPC   C4A31314  40.051  30.254   7.691
 2349POPC   C1B31315  40.323  31.116   8.742
 2349POPC   C2B31316  40.088  31.131   8.322
 2349POPC   C3B31317  40.206  31.059   7.879
 2349POPC   C4B31318  40.591  30.949   7.662
 2350POPC   NC331319   3.248  24.288   9.364
 2350POPC   PO431320   3.866  24.261   9.577
 2350POPC   GL131321   3.724  24.348   9.137
 2350POPC   GL231322   3.596  24.663   9.148
 2350POPC   C1A31323   3.443  24.388   8.749
 2350POPC   D2A31324   3.341  24.156   8.423
 2350POPC   C3A31325   3.517  24.266   8.037
 2350POPC   C4A31326   3.421  24.374   7.602
 2350POPC   C1B31327   3.803  24.756   8.776
 2350POPC   C2B31328   3.820  24.578   8.374
 2350POPC   C3B31329   3.605  24.779   8.061
 2350POPC   C4B31330   3.589  24.854   7.644
 2351POPC   NC331331   0.280  23.416  10.001
 2351POPC   PO431332   0.209  23.971   9.643
 2351POPC   GL131333   0.298  24.029   9.171
 2351POPC   GL231334   0.302  23.704   9.036
 2351POPC   C1A31335   0.666  24.030   8.834
 2351POPC   D2A31336   0.890  23.969   8.407
 2351POPC   C3A31337   0.680  23.918   7.973
 2351POPC   C4A31338   0.616  23.886   7.509
 2351POPC   C1B31339   0.471  23.627   8.598
 2351POPC   C2B31340   0.478  23.479   8.167
 2351POPC   C3B31341   0.412  23.472   7.713
 2351POPC   C4B31342   0.571  23.440   7.263
 2352POPC   NC331343  10.652  31.054   9.635
 2352POPC   PO431344  10.623  30.401   9.531
 2352POPC   GL131345  10.531  30.718   9.213
 2352POPC   GL231346  10.508  31.093   9.153
 2352POPC   C1A31347  10.649  30.708   8.798
 2352POPC   D2A31348  10.869  30.646   8.441
 2352POPC   C3A31349  10.678  30.468   8.126
 2352POPC   C4A31350  10.614  30.617   7.735
 2352POPC   C1B31351  10.344  31.103   8.734
 2352POPC   C2B31352  10.351  30.821   8.391
 2352POPC   C3B31353  10.408  30.986   8.029
 2352POPC   C4B31354  10.227  30.922   7.658
 2353POPC   NC331355  22.683  35.770   9.355
 2353POPC   PO431356  22.544  36.485   9.395
 2353POPC   GL131357  22.797  36.209   9.083
 2353POPC   GL231358  23.107  36.021   9.176
 2353POPC   C1A31359  22.899  36.038   8.707
 2353POPC   D2A31360  22.669  35.924   8.353
 2353POPC   C3A31361  22.608  36.147   7.964
 2353POPC   C4A31362  22.848  36.158   7.601
 2353POPC   C1B31363  23.359  35.835   8.823
 2353POPC   C2B31364  23.227  35.802   8.381
 2353POPC   C3B31365  23.063  35.891   7.998
 2353POPC   C4B31366  23.191  35.754   7.582
 2354POPC   NC331367  40.609   3.611   9.459
 2354POPC   PO431368  41.272   3.246   9.532
 2354POPC   GL131369  40.993   3.297   9.143
 2354POPC   GL231370  40.661   3.410   8.996
 2354POPC   C1A31371  41.110   3.517   8.739
 2354POPC   D2A31372  41.278   3.477   8.334
 2354POPC   C3A31373  41.013   3.449   7.983
 2354POPC   C4A31374  40.916   3.710   7.629
 2354POPC   C1B31375  40.686   3.262   8.601
 2354POPC   C2B31376  40.539   3.379   8.221
 2354POPC   C3B31377  40.487   3.545   7.820
 2354POPC   C4B31378  40.462   3.538   7.391
 2355POPC   NC331379  30.375  26.579   9.559
 2355POPC   PO431380  30.993  27.016   9.582
 2355POPC   GL131381  30.764  26.796   9.269
 2355POPC   GL231382  30.907  26.433   9.264
 2355POPC   C1A31383  30.495  26.936   8.922
 2355POPC   D2A31384  30.610  26.971   8.506
 2355POPC   C3A31385  30.384  26.938   8.145
 2355POPC   C4A31386  30.509  26.993   7.770
 2355POPC   C1B31387  30.831  26.564   8.798
 2355POPC   C2B31388  30.614  26.480   8.398
 2355POPC   C3B31389  30.677  26.539   7.959
 2355POPC   C4B31390  30.667  26.581   7.492
 2356POPC   NC331391  22.868  12.629   9.537
 2356POPC   PO431392  22.595  13.263   9.350
 2356POPC   GL131393  22.864  12.972   9.073
 2356POPC   GL231394  22.856  12.564   9.028
 2356POPC   C1A31395  23.150  13.076   8.701
 2356POPC   D2A31396  23.270  13.287   8.298
 2356POPC   C3A31397  23.074  13.139   7.925
 2356POPC   C4A31398  23.122  12.735   7.703
 2356POPC   C1B31399  22.770  12.742   8.621
 2356POPC   C2B31400  22.946  12.712   8.216
 2356POPC   C3B31401  22.790  12.448   7.912
 2356POPC   C4B31402  22.663  12.533   7.461
 2357POPC   NC331403  43.256   3.639   9.562
 2357POPC   PO431404  43.035   3.041   9.718
 2357POPC   GL131405  43.131   3.300   9.217
 2357POPC   GL231406  43.048   3.776   9.130
 2357POPC   C1A31407  43.006   3.435   8.769
 2357POPC   D2A31408  43.089   3.245   8.372
 2357POPC   C3A31409  42.917   3.445   8.011
 2357POPC   C4A31410  43.021   3.312   7.621
 2357POPC   C1B31411  43.231   3.916   8.771
 2357POPC   C2B31412  43.250   3.737   8.363
 2357POPC   C3B31413  43.157   3.888   7.945
 2357POPC   C4B31414  43.363   3.680   7.600
 2358POPC   NC331415  27.590  35.559   9.592
 2358POPC   PO431416  27.492  34.998   9.237
 2358POPC   GL131417  27.695  35.372   9.043
 2358POPC   GL231418  27.532  35.699   9.097
 2358POPC   C1A31419  27.716  35.398   8.581
 2358POPC   D2A31420  27.597  35.050   8.302
 2358POPC   C3A31421  27.503  35.178   7.893
 2358POPC   C4A31422  27.662  35.434   7.576
 2358POPC   C1B31423  27.304  35.663   8.712
 2358POPC   C2B31424  27.296  35.489   8.279
 2358POPC   C3B31425  27.288  35.630   7.859
 2358POPC   C4B31426  27.223  35.546   7.359
 2359POPC   NC331427  31.041  37.961   9.838
 2359POPC   PO431428  30.523  37.595   9.608
 2359POPC   GL131429  30.697  37.584   9.146
 2359POPC   GL231430  30.941  37.279   9.119
 2359POPC   C1A31431  30.701  37.872   8.770
 2359POPC   D2A31432  30.509  37.764   8.390
 2359POPC   C3A31433  30.591  37.962   8.017
 2359POPC   C4A31434  30.608  37.858   7.582
 2359POPC   C1B31435  30.858  37.388   8.675
 2359POPC   C2B31436  30.628  37.278   8.319
 2359POPC   C3B31437  30.620  37.459   7.934
 2359POPC   C4B31438  30.981  37.516   7.686
 2360POPC   NC331439   2.134   4.570   9.454
 2360POPC   PO431440   1.489   4.493   9.443
 2360POPC   GL131441   1.727   4.263   9.151
 2360POPC   GL231442   1.973   4.007   9.237
 2360POPC   C1A31443   1.805   4.410   8.751
 2360POPC   D2A31444   1.739   4.379   8.315
 2360POPC   C3A31445   1.945   4.619   8.019
 2360POPC   C4A31446   1.938   4.282   7.768
 2360POPC   C1B31447   2.215   4.065   8.830
 2360POPC   C2B31448   2.422   4.022   8.412
 2360POPC   C3B31449   2.290   3.971   7.989
 2360POPC   C4B31450   2.209   3.935   7.535
 2361POPC   NC331451  37.016   9.519   9.435
 2361POPC   PO431452  36.612  10.133   9.587
 2361POPC   GL131453  36.803   9.926   9.210
 2361POPC   GL231454  36.575   9.859   9.059
 2361POPC   C1A31455  37.028   9.713   8.838
 2361POPC   D2A31456  36.923   9.574   8.431
 2361POPC   C3A31457  37.030   9.819   8.087
 2361POPC   C4A31458  37.169   9.686   7.722
 2361POPC   C1B31459  36.499   9.770   8.680
 2361POPC   C2B31460  36.606   9.997   8.345
 2361POPC   C3B31461  36.500   9.924   7.955
 2361POPC   C4B31462  36.745  10.059   7.652
 2362POPC   NC331463  19.668  10.284   9.554
 2362POPC   PO431464  19.936  10.827   9.567
 2362POPC   GL131465  19.891  10.616   9.209
 2362POPC   GL231466  20.095  10.379   9.268
 2362POPC   C1A31467  19.886  10.709   8.777
 2362POPC   D2A31468  19.990  10.560   8.386
 2362POPC   C3A31469  19.729  10.752   8.040
 2362POPC   C4A31470  19.752  11.133   7.745
 2362POPC   C1B31471  19.912  10.212   8.859
 2362POPC   C2B31472  20.158  10.040   8.532
 2362POPC   C3B31473  20.053  10.148   8.118
 2362POPC   C4B31474  19.708  10.298   7.817
 2363POPC   NC331475  15.366  13.373   9.494
 2363POPC   PO431476  15.176  14.053   9.420
 2363POPC   GL131477  15.054  13.784   9.060
 2363POPC   GL231478  15.180  13.415   9.030
 2363POPC   C1A31479  15.041  13.750   8.606
 2363POPC   D2A31480  15.274  13.626   8.256
 2363POPC   C3A31481  15.221  13.837   7.860
 2363POPC   C4A31482  15.281  13.665   7.452
 2363POPC   C1B31483  14.818  13.328   8.788
 2363POPC   C2B31484  14.751  13.401   8.344
 2363POPC   C3B31485  14.933  13.418   7.928
 2363POPC   C4B31486  14.954  13.254   7.525
 2364POPC   NC331487  25.375  13.202   9.590
 2364POPC   PO431488  25.091  12.578   9.544
 2364POPC   GL131489  25.235  12.619   9.133
 2364POPC   GL231490  25.314  12.965   9.127
 2364POPC   C1A31491  25.047  12.751   8.731
 2364POPC   D2A31492  25.192  12.989   8.361
 2364POPC   C3A31493  25.081  12.840   7.944
 2364POPC   C4A31494  25.188  13.103   7.590
 2364POPC   C1B31495  25.529  12.887   8.741
 2364POPC   C2B31496  25.546  12.650   8.313
 2364POPC   C3B31497  25.562  12.956   7.963
 2364POPC   C4B31498  25.560  12.730   7.593
 2365POPC   NC331499  29.489  34.120   9.433
 2365POPC   PO431500  29.975  33.635   9.665
 2365POPC   GL131501  29.962  33.621   9.201
 2365POPC   GL231502  29.879  33.963   9.142
 2365POPC   C1A31503  29.657  33.626   8.825
 2365POPC   D2A31504  29.596  33.829   8.444
 2365POPC   C3A31505  29.527  33.544   8.111
 2365POPC   C4A31506  29.734  33.603   7.745
 2365POPC   C1B31507  30.045  33.960   8.720
 2365POPC   C2B31508  30.056  34.241   8.348
 2365POPC   C3B31509  30.143  34.198   7.894
 2365POPC   C4B31510  30.329  34.278   7.512
 2366POPC   NC331511  30.342  31.665   9.379
 2366POPC   PO431512  30.959  31.347   9.358
 2366POPC   GL131513  30.796  31.174   8.996
 2366POPC   GL231514  30.506  31.369   8.995
 2366POPC   C1A31515  30.885  31.296   8.579
 2366POPC   D2A31516  31.080  31.608   8.352
 2366POPC   C3A31517  30.850  31.623   7.989
 2366POPC   C4A31518  30.815  31.859   7.655
 2366POPC   C1B31519  30.478  31.599   8.612
 2366POPC   C2B31520  30.452  31.361   8.235
 2366POPC   C3B31521  30.383  31.400   7.788
 2366POPC   C4B31522  30.108  31.762   7.696
 2367POPC   NC331523   7.078   2.746   9.560
 2367POPC   PO431524   6.409   2.784   9.434
 2367POPC   GL131525   6.720   2.676   9.174
 2367POPC   GL231526   6.929   2.354   9.257
 2367POPC   C1A31527   6.656   2.822   8.748
 2367POPC   D2A31528   6.603   2.879   8.316
 2367POPC   C3A31529   6.448   2.665   7.994
 2367POPC   C4A31530   6.549   2.948   7.687
 2367POPC   C1B31531   6.989   2.440   8.824
 2367POPC   C2B31532   6.767   2.409   8.431
 2367POPC   C3B31533   6.946   2.503   8.055
 2367POPC   C4B31534   6.970   2.671   7.655
 2368POPC   NC331535  34.681  12.562   9.630
 2368POPC   PO431536  34.522  13.202   9.585
 2368POPC   GL131537  34.585  12.901   9.255
 2368POPC   GL231538  34.290  12.634   9.281
 2368POPC   C1A31539  34.564  12.768   8.835
 2368POPC   D2A31540  34.805  12.773   8.479
 2368POPC   C3A31541  34.580  12.774   8.091
 2368POPC   C4A31542  34.647  12.726   7.672
 2368POPC   C1B31543  34.127  12.977   9.005
 2368POPC   C2B31544  34.106  13.257   8.642
 2368POPC   C3B31545  34.207  13.141   8.214
 2368POPC   C4B31546  34.390  13.158   7.800
 2369POPC   NC331547  20.784  38.099   9.359
 2369POPC   PO431548  20.285  37.739   9.552
 2369POPC   GL131549  20.401  37.505   9.142
 2369POPC   GL231550  20.609  37.755   9.040
 2369POPC   C1A31551  20.338  37.562   8.673
 2369POPC   D2A31552  20.703  37.420   8.413
 2369POPC   C3A31553  20.672  37.409   7.993
 2369POPC   C4A31554  20.304  37.615   7.764
 2369POPC   C1B31555  20.747  37.862   8.630
 2369POPC   C2B31556  20.661  37.877   8.176
 2369POPC   C3B31557  20.955  37.786   7.820
 2369POPC   C4B31558  21.239  37.840   7.461
 2370POPC   NC331559   8.668   2.198   9.511
 2370POPC   PO431560   9.113   1.732   9.386
 2370POPC   GL131561   9.228   2.060   9.134
 2370POPC   GL231562   8.872   2.107   9.059
 2370POPC   C1A31563   9.374   2.018   8.722
 2370POPC   D2A31564   9.163   1.835   8.398
 2370POPC   C3A31565   9.054   2.055   8.031
 2370POPC   C4A31566   9.163   2.033   7.608
 2370POPC   C1B31567   8.772   1.802   8.742
 2370POPC   C2B31568   8.634   1.904   8.324
 2370POPC   C3B31569   8.605   1.807   7.900
 2370POPC   C4B31570   8.690   1.932   7.450
 2371POPC   NC331571  21.741  22.968   9.517
 2371POPC   PO431572  22.451  22.747   9.513
 2371POPC   GL131573  22.332  22.856   9.129
 2371POPC   GL231574  22.015  22.752   9.153
 2371POPC   C1A31575  22.364  22.661   8.716
 2371POPC   D2A31576  22.350  22.456   8.318
 2371POPC   C3A31577  22.283  22.756   7.974
 2371POPC   C4A31578  22.345  22.946   7.594
 2371POPC   C1B31579  21.892  22.911   8.756
 2371POPC   C2B31580  21.938  22.762   8.345
 2371POPC   C3B31581  21.754  22.806   7.925
 2371POPC   C4B31582  21.809  23.040   7.547
 2372POPC   NC331583  31.972  29.822   9.465
 2372POPC   PO431584  32.633  29.625   9.476
 2372POPC   GL131585  32.376  29.798   9.127
 2372POPC   GL231586  32.052  29.665   8.999
 2372POPC   C1A31587  32.399  29.989   8.712
 2372POPC   D2A31588  32.736  30.103   8.408
 2372POPC   C3A31589  32.595  29.945   8.035
 2372POPC   C4A31590  32.272  29.892   7.749
 2372POPC   C1B31591  32.032  29.624   8.566
 2372POPC   C2B31592  32.100  29.968   8.267
 2372POPC   C3B31593  31.827  29.969   7.924
 2372POPC   C4B31594  31.808  29.602   7.667
 2373POPC   NC331595  29.026  12.653   9.615
 2373POPC   PO431596  29.522  12.558   9.217
 2373POPC   GL131597  29.161  12.728   9.028
 2373POPC   GL231598  28.969  12.993   9.172
 2373POPC   C1A31599  29.261  12.811   8.606
 2373POPC   D2A31600  29.553  12.952   8.320
 2373POPC   C3A31601  29.430  12.858   7.918
 2373POPC   C4A31602  29.286  13.029   7.538
 2373POPC   C1B31603  28.973  13.186   8.782
 2373POPC   C2B31604  28.827  13.141   8.375
 2373POPC   C3B31605  28.985  13.097   7.968
 2373POPC   C4B31606  28.980  12.672   7.746
 2374POPC   NC331607  38.549   6.378   9.398
 2374POPC   PO431608  38.868   7.028   9.448
 2374POPC   GL131609  38.708   6.785   9.156
 2374POPC   GL231610  38.450   6.891   9.073
 2374POPC   C1A31611  38.743   6.495   8.793
 2374POPC   D2A31612  38.490   6.310   8.484
 2374POPC   C3A31613  38.636   6.414   8.101
 2374POPC   C4A31614  38.499   6.405   7.695
 2374POPC   C1B31615  38.248   6.716   8.750
 2374POPC   C2B31616  38.392   6.799   8.356
 2374POPC   C3B31617  38.344   6.820   7.931
 2374POPC   C4B31618  38.012   6.599   7.714
 2375POPC   NC331619   0.921  11.190   9.482
 2375POPC   PO431620   1.306  11.652   9.667
 2375POPC   GL131621   1.211  11.492   9.197
 2375POPC   GL231622   1.232  11.795   9.045
 2375POPC   C1A31623   1.028  11.183   8.836
 2375POPC   D2A31624   1.327  11.026   8.536
 2375POPC   C3A31625   1.257  11.117   8.129
 2375POPC   C4A31626   1.234  11.062   7.706
 2375POPC   C1B31627   1.332  11.551   8.701
 2375POPC   C2B31628   1.097  11.557   8.337
 2375POPC   C3B31629   1.180  11.687   7.927
 2375POPC   C4B31630   1.572  11.761   7.730
 2376POPC   NC331631  44.210  31.378   9.519
 2376POPC   PO431632  43.415  31.292   9.516
 2376POPC   GL131633  43.571  31.189   9.124
 2376POPC   GL231634  43.706  31.516   9.127
 2376POPC   C1A31635  43.804  31.252   8.716
 2376POPC   D2A31636  43.925  31.147   8.314
 2376POPC   C3A31637  44.114  31.402   8.017
 2376POPC   C4A31638  44.004  31.529   7.593
 2376POPC   C1B31639  43.671  31.778   8.793
 2376POPC   C2B31640  43.680  31.653   8.376
 2376POPC   C3B31641  43.842  31.826   8.037
 2376POPC   C4B31642  43.783  31.983   7.667
 2377POPC   NC331643  26.661  18.564   9.705
 2377POPC   PO431644  27.193  18.463   9.338
 2377POPC   GL131645  26.955  18.278   9.085
 2377POPC   GL231646  26.656  18.438   9.208
 2377POPC   C1A31647  26.775  18.352   8.712
 2377POPC   D2A31648  26.604  18.116   8.437
 2377POPC   C3A31649  26.869  18.113   8.083
 2377POPC   C4A31650  26.637  17.949   7.768
 2377POPC   C1B31651  26.429  18.697   8.921
 2377POPC   C2B31652  26.386  18.591   8.477
 2377POPC   C3B31653  26.433  18.439   8.072
 2377POPC   C4B31654  26.473  18.678   7.735
 2378POPC   NC331655  17.755  30.228   9.659
 2378POPC   PO431656  17.338  29.753   9.856
 2378POPC   GL131657  17.372  29.687   9.356
 2378POPC   GL231658  17.377  30.068   9.255
 2378POPC   C1A31659  17.403  29.727   8.871
 2378POPC   D2A31660  17.260  29.650   8.427
 2378POPC   C3A31661  17.207  29.969   8.160
 2378POPC   C4A31662  17.549  29.893   7.866
 2378POPC   C1B31663  17.644  30.198   8.886
 2378POPC   C2B31664  17.965  30.200   8.537
 2378POPC   C3B31665  17.803  30.296   8.110
 2378POPC   C4B31666  17.392  30.379   7.897
 2379POPC   NC331667  43.617  18.966   9.597
 2379POPC   PO431668  44.027  19.477   9.456
 2379POPC   GL131669  43.850  19.186   9.111
 2379POPC   GL231670  43.880  18.833   9.131
 2379POPC   C1A31671  43.937  19.010   8.673
 2379POPC   D2A31672  44.016  19.239   8.354
 2379POPC   C3A31673  43.860  19.346   7.971
 2379POPC   C4A31674  44.101  19.200   7.629
 2379POPC   C1B31675  43.657  18.594   8.811
 2379POPC   C2B31676  43.551  18.693   8.377
 2379POPC   C3B31677  43.847  18.849   8.074
 2379POPC   C4B31678  44.008  18.691   7.712
 2380POPC   NC331679  11.128  33.350   9.671
 2380POPC   PO431680  11.483  32.763   9.612
 2380POPC   GL131681  11.351  32.865   9.193
 2380POPC   GL231682  11.111  33.124   9.208
 2380POPC   C1A31683  11.462  33.027   8.783
 2380POPC   D2A31684  11.592  32.872   8.401
 2380POPC   C3A31685  11.365  33.018   8.012
 2380POPC   C4A31686  11.184  32.760   7.675
 2380POPC   C1B31687  10.997  33.246   8.799
 2380POPC   C2B31688  11.157  33.333   8.378
 2380POPC   C3B31689  10.916  33.271   7.972
 2380POPC   C4B31690  11.093  33.237   7.550
 2381POPC   NC331691  20.063   6.161   9.264
 2381POPC   PO431692  19.694   5.643   9.391
 2381POPC   GL131693  19.873   5.746   9.028
 2381POPC   GL231694  20.181   5.613   9.030
 2381POPC   C1A31695  19.957   5.945   8.628
 2381POPC   D2A31696  19.727   5.670   8.333
 2381POPC   C3A31697  19.818   5.833   7.960
 2381POPC   C4A31698  19.750   6.218   7.713
 2381POPC   C1B31699  20.106   5.461   8.637
 2381POPC   C2B31700  20.257   5.709   8.283
 2381POPC   C3B31701  20.365   5.571   7.894
 2381POPC   C4B31702  20.090   5.590   7.558
 2382POPC   NC331703   1.541  38.985   9.433
 2382POPC   PO431704   0.996  39.200   9.696
 2382POPC   GL131705   1.126  39.266   9.248
 2382POPC   GL231706   0.923  39.438   9.017
 2382POPC   C1A31707   1.422  39.369   8.869
 2382POPC   D2A31708   1.460  39.187   8.430
 2382POPC   C3A31709   1.689  39.307   8.030
 2382POPC   C4A31710   1.383  39.528   7.736
 2382POPC   C1B31711   1.050  39.015   8.790
 2382POPC   C2B31712   0.987  38.910   8.342
 2382POPC   C3B31713   1.119  39.176   7.994
 2382POPC   C4B31714   1.043  39.193   7.542
 2383POPC   NC331715  44.776  43.505   9.346
 2383POPC   PO431716  44.863  42.901   9.332
 2383POPC   GL131717  44.435  43.021   9.154
 2383POPC   GL231718  44.274  43.351   9.181
 2383POPC   C1A31719  44.289  42.866   8.739
 2383POPC   D2A31720  44.524  42.992   8.366
 2383POPC   C3A31721  44.535  42.800   7.971
 2383POPC   C4A31722  44.845  42.878   7.700
 2383POPC   C1B31723  44.489  43.347   8.761
 2383POPC   C2B31724  44.481  43.529   8.354
 2383POPC   C3B31725  44.640  43.658   7.979
 2383POPC   C4B31726  44.576  43.350   7.715
 2384POPC   NC331727   4.514  14.292   9.494
 2384POPC   PO431728   3.931  14.208   9.762
 2384POPC   GL131729   4.009  14.497   9.325
 2384POPC   GL231730   4.313  14.707   9.261
 2384POPC   C1A31731   4.053  14.420   8.847
 2384POPC   D2A31732   4.334  14.373   8.483
 2384POPC   C3A31733   4.226  14.188   8.084
 2384POPC   C4A31734   4.480  14.147   7.739
 2384POPC   C1B31735   4.423  14.804   8.836
 2384POPC   C2B31736   4.277  14.872   8.429
 2384POPC   C3B31737   4.370  14.687   8.014
 2384POPC   C4B31738   4.113  14.552   7.681
 2385POPC   NC331739   7.095  29.025   9.425
 2385POPC   PO431740   7.530  29.482   9.547
 2385POPC   GL131741   7.541  29.494   9.129
 2385POPC   GL231742   7.175  29.477   9.171
 2385POPC   C1A31743   7.749  29.271   8.764
 2385POPC   D2A31744   7.564  28.909   8.489
 2385POPC   C3A31745   7.564  29.064   8.068
 2385POPC   C4A31746   7.749  29.418   7.827
 2385POPC   C1B31747   7.250  29.204   8.809
 2385POPC   C2B31748   7.313  29.385   8.416
 2385POPC   C3B31749   7.272  29.548   8.005
 2385POPC   C4B31750   7.127  29.167   7.843
 2386POPC   NC331751  34.800  35.784   9.291
 2386POPC   PO431752  34.496  35.266   9.564
 2386POPC   GL131753  34.442  35.399   9.144
 2386POPC   GL231754  34.754  35.332   9.044
 2386POPC   C1A31755  34.316  35.247   8.731
 2386POPC   D2A31756  34.125  35.177   8.307
 2386POPC   C3A31757  34.403  35.249   7.995
 2386POPC   C4A31758  34.505  35.606   7.731
 2386POPC   C1B31759  34.682  35.589   8.659
 2386POPC   C2B31760  34.733  35.622   8.200
 2386POPC   C3B31761  34.951  35.881   7.870
 2386POPC   C4B31762  35.044  36.129   7.483
 2387POPC   NC331763  11.950  20.735   9.575
 2387POPC   PO431764  12.034  20.128   9.426
 2387POPC   GL131765  12.170  20.464   9.151
 2387POPC   GL231766  12.129  20.818   9.116
 2387POPC   C1A31767  12.358  20.532   8.757
 2387POPC   D2A31768  12.376  20.278   8.390
 2387POPC   C3A31769  12.095  20.469   8.118
 2387POPC   C4A31770  12.141  20.741   7.776
 2387POPC   C1B31771  11.910  20.799   8.731
 2387POPC   C2B31772  11.973  20.936   8.338
 2387POPC   C3B31773  11.798  21.056   7.990
 2387POPC   C4B31774  11.654  20.886   7.647
 2388POPC   NC331775  14.581   8.250   9.612
 2388POPC   PO431776  14.051   7.851   9.556
 2388POPC   GL131777  14.292   8.116   9.192
 2388POPC   GL231778  14.263   8.476   9.138
 2388POPC   C1A31779  14.497   8.218   8.764
 2388POPC   D2A31780  14.707   8.181   8.352
 2388POPC   C3A31781  14.648   8.228   7.894
 2388POPC   C4A31782  14.650   7.880   7.592
 2388POPC   C1B31783  14.036   8.420   8.743
 2388POPC   C2B31784  14.205   8.376   8.342
 2388POPC   C3B31785  14.194   8.451   7.919
 2388POPC   C4B31786  14.181   8.095   7.681
 2389POPC   NC331787  12.332  12.963   9.694
 2389POPC   PO431788  13.012  12.910   9.526
 2389POPC   GL131789  13.169  12.835   9.110
 2389POPC   GL231790  12.842  12.653   9.046
 2389POPC   C1A31791  13.076  12.869   8.649
 2389POPC   D2A31792  12.797  12.649   8.312
 2389POPC   C3A31793  12.928  12.671   7.872
 2389POPC   C4A31794  13.022  12.993   7.555
 2389POPC   C1B31795  12.575  12.872   8.728
 2389POPC   C2B31796  12.458  13.085   8.355
 2389POPC   C3B31797  12.390  12.869   8.000
 2389POPC   C4B31798  12.514  12.899   7.577
 2390POPC   NC331799  39.746   7.279   9.456
 2390POPC   PO431800  40.126   7.770   9.553
 2390POPC   GL131801  40.040   7.521   9.127
 2390POPC   GL231802  39.698   7.457   8.974
 2390POPC   C1A31803  40.083   7.550   8.675
 2390POPC   D2A31804  39.873   7.359   8.310
 2390POPC   C3A31805  40.118   7.368   7.956
 2390POPC   C4A31806  40.105   7.772   7.830
 2390POPC   C1B31807  39.824   7.069   8.734
 2390POPC   C2B31808  39.760   6.841   8.311
 2390POPC   C3B31809  39.706   7.036   7.938
 2390POPC   C4B31810  39.632   7.426   7.826
 2391POPC   NC331811  35.674  18.688   9.283
 2391POPC   PO431812  35.524  19.183   9.692
 2391POPC   GL131813  35.433  19.216   9.205
 2391POPC   GL231814  35.133  19.302   9.097
 2391POPC   C1A31815  35.411  19.007   8.760
 2391POPC   D2A31816  35.516  18.832   8.328
 2391POPC   C3A31817  35.393  19.025   7.935
 2391POPC   C4A31818  35.545  18.893   7.535
 2391POPC   C1B31819  34.938  19.245   8.727
 2391POPC   C2B31820  34.949  19.069   8.335
 2391POPC   C3B31821  34.937  19.239   7.942
 2391POPC   C4B31822  35.245  19.520   7.850
 2392POPC   NC331823   2.556  37.721   9.538
 2392POPC   PO431824   3.197  38.036   9.518
 2392POPC   GL131825   2.924  37.845   9.175
 2392POPC   GL231826   2.557  37.938   9.095
 2392POPC   C1A31827   2.995  37.557   8.815
 2392POPC   D2A31828   3.083  37.404   8.400
 2392POPC   C3A31829   3.085  37.726   8.106
 2392POPC   C4A31830   2.849  37.827   7.741
 2392POPC   C1B31831   2.469  37.608   8.853
 2392POPC   C2B31832   2.617  37.674   8.446
 2392POPC   C3B31833   2.617  37.505   8.063
 2392POPC   C4B31834   2.350  37.496   7.727
 2393POPC   NC331835   9.522   1.505   9.392
 2393POPC   PO431836   9.904   2.112   9.396
 2393POPC   GL131837   9.745   1.955   9.090
 2393POPC   GL231838   9.943   1.669   9.068
 2393POPC   C1A31839   9.932   2.049   8.702
 2393POPC   D2A31840   9.941   1.822   8.331
 2393POPC   C3A31841   9.579   1.976   8.110
 2393POPC   C4A31842   9.675   2.041   7.699
 2393POPC   C1B31843   9.672   1.597   8.728
 2393POPC   C2B31844   9.558   1.477   8.321
 2393POPC   C3B31845   9.710   1.532   7.897
 2393POPC   C4B31846   9.444   1.609   7.564
 2394POPC   NC331847  24.311  17.224   9.264
 2394POPC   PO431848  24.435  16.731   9.698
 2394POPC   GL131849  24.373  16.606   9.238
 2394POPC   GL231850  24.318  16.836   8.961
 2394POPC   C1A31851  24.438  16.393   8.808
 2394POPC   D2A31852  24.532  16.546   8.384
 2394POPC   C3A31853  24.260  16.625   8.039
 2394POPC   C4A31854  24.428  16.473   7.663
 2394POPC   C1B31855  24.522  17.036   8.577
 2394POPC   C2B31856  24.671  17.379   8.313
 2394POPC   C3B31857  24.506  17.320   7.950
 2394POPC   C4B31858  24.482  16.971   7.718
 2395POPC   NC331859   2.144  13.263   9.439
 2395POPC   PO431860   2.189  12.530   9.525
 2395POPC   GL131861   2.066  12.562   9.062
 2395POPC   GL231862   1.729  12.630   8.949
 2395POPC   C1A31863   2.157  12.801   8.730
 2395POPC   D2A31864   2.168  12.657   8.351
 2395POPC   C3A31865   1.988  12.903   8.031
 2395POPC   C4A31866   2.225  13.023   7.677
 2395POPC   C1B31867   1.744  13.094   8.768
 2395POPC   C2B31868   1.815  13.246   8.394
 2395POPC   C3B31869   1.578  13.239   8.046
 2395POPC   C4B31870   1.740  13.201   7.673
 2396POPC   NC331871  23.908  13.994   9.322
 2396POPC   PO431872  23.344  13.805   9.303
 2396POPC   GL131873  23.609  13.472   9.151
 2396POPC   GL231874  23.978  13.521   9.077
 2396POPC   C1A31875  23.505  13.447   8.748
 2396POPC   D2A31876  23.447  13.744   8.452
 2396POPC   C3A31877  23.592  13.670   8.108
 2396POPC   C4A31878  23.475  13.462   7.778
 2396POPC   C1B31879  23.903  13.784   8.708
 2396POPC   C2B31880  24.084  13.802   8.320
 2396POPC   C3B31881  23.986  13.924   7.936
 2396POPC   C4B31882  23.648  13.973   7.690
 2397POPC   NC331883  33.401  13.338   9.387
 2397POPC   PO431884  33.801  13.894   9.540
 2397POPC   GL131885  33.928  13.743   9.130
 2397POPC   GL231886  33.846  13.419   9.058
 2397POPC   C1A31887  33.858  13.803   8.686
 2397POPC   D2A31888  33.843  13.569   8.305
 2397POPC   C3A31889  33.783  13.820   7.950
 2397POPC   C4A31890  33.920  13.794   7.517
 2397POPC   C1B31891  33.558  13.385   8.723
 2397POPC   C2B31892  33.363  13.364   8.320
 2397POPC   C3B31893  33.511  13.296   7.921
 2397POPC   C4B31894  33.922  13.346   7.830
 2398POPC   NC331895  32.197  21.254   9.502
 2398POPC   PO431896  32.615  21.776   9.587
 2398POPC   GL131897  32.370  21.681   9.229
 2398POPC   GL231898  32.562  21.387   9.154
 2398POPC   C1A31899  32.173  21.517   8.848
 2398POPC   D2A31900  32.317  21.297   8.499
 2398POPC   C3A31901  32.181  21.454   8.106
 2398POPC   C4A31902  31.819  21.640   7.919
 2398POPC   C1B31903  32.704  21.554   8.756
 2398POPC   C2B31904  32.791  21.411   8.322
 2398POPC   C3B31905  32.646  21.434   7.890
 2398POPC   C4B31906  32.520  21.780   7.644
 2399POPC   NC331907   2.532  44.986   9.309
 2399POPC   PO431908   3.086   0.235   9.641
 2399POPC   GL131909   2.916   0.412   9.257
 2399POPC   GL231910   2.586   0.426   9.046
 2399POPC   C1A31911   3.033   0.458   8.835
 2399POPC   D2A31912   2.787   0.460   8.466
 2399POPC   C3A31913   3.006   0.331   8.105
 2399POPC   C4A31914   2.940   0.217   7.681
 2399POPC   C1B31915   2.291   0.609   8.745
 2399POPC   C2B31916   2.380   0.744   8.331
 2399POPC   C3B31917   2.532   0.474   7.997
 2399POPC   C4B31918   2.469   0.405   7.594
 2400POPC   NC331919  27.884  28.705   9.499
 2400POPC   PO431920  27.180  28.504   9.596
 2400POPC   GL131921  27.548  28.351   9.318
 2400POPC   GL231922  27.264  28.257   9.123
 2400POPC   C1A31923  27.798  28.263   8.908
 2400POPC   D2A31924  27.846  28.583   8.590
 2400POPC   C3A31925  27.778  28.533   8.127
 2400POPC   C4A31926  27.861  28.542   7.677
 2400POPC   C1B31927  27.429  28.622   8.913
 2400POPC   C2B31928  27.326  28.455   8.550
 2400POPC   C3B31929  27.269  28.416   8.152
 2400POPC   C4B31930  27.399  28.403   7.738
 2401POPC   NC331931  36.238  16.305   9.513
 2401POPC   PO431932  35.953  15.682   9.414
 2401POPC   GL131933  36.104  15.982   9.117
 2401POPC   GL231934  36.453  15.978   9.150
 2401POPC   C1A31935  35.926  16.049   8.714
 2401POPC   D2A31936  35.791  15.776   8.393
 2401POPC   C3A31937  36.014  15.677   8.091
 2401POPC   C4A31938  36.006  16.032   7.876
 2401POPC   C1B31939  36.453  16.099   8.716
 2401POPC   C2B31940  36.301  16.022   8.330
 2401POPC   C3B31941  36.472  15.871   7.961
 2401POPC   C4B31942  36.593  15.986   7.550
 2402POPC   NC331943  36.981  18.249   9.735
 2402POPC   PO431944  36.878  18.512   9.145
 2402POPC   GL131945  36.937  18.660   8.795
 2402POPC   GL231946  37.266  18.791   8.853
 2402POPC   C1A31947  36.884  18.364   8.467
 2402POPC   D2A31948  36.866  18.033   8.190
 2402POPC   C3A31949  36.846  18.250   7.810
 2402POPC   C4A31950  36.480  18.096   7.685
 2402POPC   C1B31951  37.217  18.852   8.413
 2402POPC   C2B31952  37.118  18.609   8.075
 2402POPC   C3B31953  37.268  18.552   7.686
 2402POPC   C4B31954  37.154  18.455   7.263
 2403POPC   NC331955  29.937  23.135   9.531
 2403POPC   PO431956  29.651  22.590   9.818
 2403POPC   GL131957  29.818  22.617   9.329
 2403POPC   GL231958  29.770  22.927   9.089
 2403POPC   C1A31959  30.075  22.612   8.867
 2403POPC   D2A31960  29.997  22.968   8.561
 2403POPC   C3A31961  30.025  22.976   8.091
 2403POPC   C4A31962  30.211  23.061   7.661
 2403POPC   C1B31963  29.522  23.124   8.739
 2403POPC   C2B31964  29.586  23.226   8.322
 2403POPC   C3B31965  29.440  23.290   7.917
 2403POPC   C4B31966  29.718  23.073   7.621
 2404POPC   NC331967   7.292   0.297   9.551
 2404POPC   PO431968   7.686   0.878   9.483
 2404POPC   GL131969   7.448   0.669   9.177
 2404POPC   GL231970   7.613   0.344   9.150
 2404POPC   C1A31971   7.503   0.711   8.739
 2404POPC   D2A31972   7.520   0.852   8.327
 2404POPC   C3A31973   7.503   0.446   8.112
 2404POPC   C4A31974   7.619   0.638   7.772
 2404POPC   C1B31975   7.552   0.201   8.716
 2404POPC   C2B31976   7.850   0.053   8.414
 2404POPC   C3B31977   8.001  44.973   7.987
 2404POPC   C4B31978   7.790   0.157   7.608
 2405POPC   NC331979  29.577  35.701   9.731
 2405POPC   PO431980  30.046  35.317   9.771
 2405POPC   GL131981  29.907  35.211   9.272
 2405POPC   GL231982  29.540  35.112   9.229
 2405POPC   C1A31983  29.997  35.322   8.808
 2405POPC   D2A31984  30.146  35.194   8.385
 2405POPC   C3A31985  29.959  35.433   8.045
 2405POPC   C4A31986  30.003  35.582   7.628
 2405POPC   C1B31987  29.610  34.946   8.803
 2405POPC   C2B31988  29.603  35.125   8.390
 2405POPC   C3B31989  29.658  35.007   7.972
 2405POPC   C4B31990  29.939  35.077   7.629
 2406POPC   NC331991  22.457  12.077   9.701
 2406POPC   PO431992  22.051  11.630   9.399
 2406POPC   GL131993  22.206  11.733   8.992
 2406POPC   GL231994  22.432  12.000   8.995
 2406POPC   C1A31995  22.382  11.792   8.551
 2406POPC   D2A31996  22.295  12.049   8.201
 2406POPC   C3A31997  22.336  11.832   7.795
 2406POPC   C4A31998  22.477  11.691   7.344
 2406POPC   C1B31999  22.505  12.291   8.649
 2406POPC   C2B32000  22.436  12.555   8.265
 2406POPC   C3B32001  22.306  12.411   7.840
 2406POPC   C4B32002  21.941  12.170   7.749
 2407POPC   NC332003  30.085   3.135   9.771
 2407POPC   PO432004  29.937   3.660   9.279
 2407POPC   GL132005  29.667   3.515   8.993
 2407POPC   GL232006  29.724   3.165   8.949
 2407POPC   C1A32007  29.563   3.578   8.588
 2407POPC   D2A32008  29.645   3.855   8.283
 2407POPC   C3A32009  29.677   3.675   7.858
 2407POPC   C4A32010  29.805   3.879   7.450
 2407POPC   C1B32011  30.054   3.370   8.670
 2407POPC   C2B32012  30.085   3.562   8.313
 2407POPC   C3B32013  30.009   3.305   8.000
 2407POPC   C4B32014  30.143   3.550   7.692
 2408POPC   NC332015  34.039  15.032   9.382
 2408POPC   PO432016  33.543  15.420   9.697
 2408POPC   GL132017  33.646  15.424   9.218
 2408POPC   GL232018  33.645  15.102   9.064
 2408POPC   C1A32019  33.915  15.421   8.794
 2408POPC   D2A32020  33.941  15.233   8.357
 2408POPC   C3A32021  33.978  15.155   7.907
 2408POPC   C4A32022  33.919  15.086   7.446
 2408POPC   C1B32023  33.807  14.883   8.714
 2408POPC   C2B32024  33.611  14.709   8.359
 2408POPC   C3B32025  33.605  14.811   7.944
 2408POPC   C4B32026  33.433  14.698   7.570
 2409POPC   NC332027  23.250  29.314   9.594
 2409POPC   PO432028  22.907  28.775   9.533
 2409POPC   GL132029  22.893  29.104   9.240
 2409POPC   GL232030  22.880  28.891   8.996
 2409POPC   C1A32031  23.006  29.375   8.867
 2409POPC   D2A32032  22.883  29.312   8.435
 2409POPC   C3A32033  22.908  29.437   8.044
 2409POPC   C4A32034  22.968  29.148   7.712
 2409POPC   C1B32035  22.559  29.069   8.710
 2409POPC   C2B32036  22.396  28.871   8.324
 2409POPC   C3B32037  22.498  28.964   7.879
 2409POPC   C4B32038  22.478  29.086   7.436
 2410POPC   NC332039   2.186  18.732   9.560
 2410POPC   PO432040   2.372  18.095   9.490
 2410POPC   GL132041   1.996  18.202   9.210
 2410POPC   GL232042   2.162  18.373   8.934
 2410POPC   C1A32043   1.716  18.182   8.815
 2410POPC   D2A32044   1.923  18.342   8.427
 2410POPC   C3A32045   1.737  18.417   8.012
 2410POPC   C4A32046   1.635  18.135   7.659
 2410POPC   C1B32047   2.391  18.621   8.624
 2410POPC   C2B32048   2.545  18.713   8.231
 2410POPC   C3B32049   2.321  18.556   7.888
 2410POPC   C4B32050   2.128  18.255   7.709
 2411POPC   NC332051  44.806   3.754   9.574
 2411POPC   PO432052  44.572   3.193   9.368
 2411POPC   GL132053  44.641   3.535   9.090
 2411POPC   GL232054  44.852   3.839   9.069
 2411POPC   C1A32055  44.467   3.539   8.691
 2411POPC   D2A32056  44.282   3.226   8.428
 2411POPC   C3A32057  44.456   3.377   8.038
 2411POPC   C4A32058  44.545   3.430   7.636
 2411POPC   C1B32059   0.015   3.566   8.724
 2411POPC   C2B32060  44.897   3.556   8.278
 2411POPC   C3B32061  44.892   3.705   7.846
 2411POPC   C4B32062  44.880   3.781   7.401
 2412POPC   NC332063   2.463  35.280   9.504
 2412POPC   PO432064   3.034  35.648   9.375
 2412POPC   GL132065   2.724  35.542   9.094
 2412POPC   GL232066   2.707  35.172   9.068
 2412POPC   C1A32067   2.892  35.625   8.690
 2412POPC   D2A32068   3.044  35.357   8.371
 2412POPC   C3A32069   2.967  35.540   7.970
 2412POPC   C4A32070   2.880  35.364   7.552
 2412POPC   C1B32071   2.515  35.276   8.675
 2412POPC   C2B32072   2.539  35.472   8.280
 2412POPC   C3B32073   2.584  35.200   7.951
 2412POPC   C4B32074   2.494  35.016   7.596
 2413POPC   NC332075  30.995   6.602   9.430
 2413POPC   PO432076  30.327   6.884   9.469
 2413POPC   GL132077  30.544   6.661   9.160
 2413POPC   GL232078  30.812   6.842   9.013
 2413POPC   C1A32079  30.502   6.426   8.790
 2413POPC   D2A32080  30.619   6.561   8.400
 2413POPC   C3A32081  30.373   6.520   8.037
 2413POPC   C4A32082  30.598   6.415   7.721
 2413POPC   C1B32083  30.680   7.032   8.619
 2413POPC   C2B32084  30.459   7.007   8.222
 2413POPC   C3B32085  30.654   6.909   7.834
 2413POPC   C4B32086  30.884   6.816   7.439
 2414POPC   NC332087  20.963  19.584   9.492
 2414POPC   PO432088  20.648  20.200   9.483
 2414POPC   GL132089  20.667  19.879   9.171
 2414POPC   GL232090  21.012  19.966   9.149
 2414POPC   C1A32091  20.562  19.805   8.733
 2414POPC   D2A32092  20.669  20.055   8.385
 2414POPC   C3A32093  20.466  19.973   8.035
 2414POPC   C4A32094  20.569  19.617   7.828
 2414POPC   C1B32095  21.029  19.648   8.814
 2414POPC   C2B32096  20.876  19.561   8.366
 2414POPC   C3B32097  20.995  19.855   8.028
 2414POPC   C4B32098  20.879  20.023   7.649
 2415POPC   NC332099   4.937  23.251   9.156
 2415POPC   PO432100   5.323  22.701   9.401
 2415POPC   GL132101   5.125  22.777   9.026
 2415POPC   GL232102   4.788  22.745   9.017
 2415POPC   C1A32103   5.198  22.801   8.590
 2415POPC   D2A32104   5.503  22.603   8.309
 2415POPC   C3A32105   5.358  22.698   7.898
 2415POPC   C4A32106   5.260  23.115   7.810
 2415POPC   C1B32107   4.678  22.927   8.635
 2415POPC   C2B32108   4.782  22.847   8.206
 2415POPC   C3B32109   4.691  22.728   7.788
 2415POPC   C4B32110   4.758  22.616   7.373
 2416POPC   NC332111  22.937   7.814   9.447
 2416POPC   PO432112  22.891   7.095   9.446
 2416POPC   GL132113  22.765   7.162   9.058
 2416POPC   GL232114  23.013   7.449   9.085
 2416POPC   C1A32115  22.721   7.024   8.641
 2416POPC   D2A32116  22.874   7.074   8.201
 2416POPC   C3A32117  22.677   7.335   7.882
 2416POPC   C4A32118  22.749   7.710   7.635
 2416POPC   C1B32119  23.203   7.615   8.725
 2416POPC   C2B32120  23.368   7.845   8.357
 2416POPC   C3B32121  23.203   7.679   7.951
 2416POPC   C4B32122  23.228   7.292   7.816
 2417POPC   NC332123  22.658  44.378   9.504
 2417POPC   PO432124  23.146  43.905   9.656
 2417POPC   GL132125  23.196  44.017   9.231
 2417POPC   GL232126  22.874  44.027   9.199
 2417POPC   C1A32127  23.147  44.168   8.789
 2417POPC   D2A32128  22.977  44.008   8.420
 2417POPC   C3A32129  23.076  44.133   7.996
 2417POPC   C4A32130  22.926  43.985   7.607
 2417POPC   C1B32131  22.651  44.013   8.842
 2417POPC   C2B32132  22.463  44.170   8.462
 2417POPC   C3B32133  22.506  44.308   8.082
 2417POPC   C4B32134  22.484  44.235   7.686
 2418POPC   NC332135  32.150  37.484   9.538
 2418POPC   PO432136  31.962  38.106   9.345
 2418POPC   GL132137  32.138  37.829   9.071
 2418POPC   GL232138  32.212  37.458   9.033
 2418POPC   C1A32139  32.078  37.858   8.651
 2418POPC   D2A32140  32.075  37.581   8.311
 2418POPC   C3A32141  31.952  37.762   7.938
 2418POPC   C4A32142  32.130  37.927   7.580
 2418POPC   C1B32143  32.458  37.524   8.670
 2418POPC   C2B32144  32.493  37.873   8.365
 2418POPC   C3B32145  32.488  37.839   7.949
 2418POPC   C4B32146  32.352  37.429   7.875
 2419POPC   NC332147  37.323  29.489   9.579
 2419POPC   PO432148  37.107  30.154   9.435
 2419POPC   GL132149  37.011  29.959   9.057
 2419POPC   GL232150  37.174  29.685   9.144
 2419POPC   C1A32151  36.788  29.878   8.675
 2419POPC   D2A32152  36.760  29.953   8.236
 2419POPC   C3A32153  36.666  30.241   7.935
 2419POPC   C4A32154  36.742  29.885   7.599
 2419POPC   C1B32155  37.112  29.489   8.760
 2419POPC   C2B32156  37.160  29.676   8.355
 2419POPC   C3B32157  37.033  29.569   7.954
 2419POPC   C4B32158  37.234  29.648   7.579
 2420POPC   NC332159  13.544  28.158   9.535
 2420POPC   PO432160  13.552  28.802   9.516
 2420POPC   GL132161  13.570  28.525   9.168
 2420POPC   GL232162  13.855  28.340   9.037
 2420POPC   C1A32163  13.594  28.628   8.744
 2420POPC   D2A32164  13.433  28.799   8.439
 2420POPC   C3A32165  13.645  28.518   8.175
 2420POPC   C4A32166  13.682  28.540   7.767
 2420POPC   C1B32167  13.452  28.139   8.841
 2420POPC   C2B32168  13.352  27.949   8.447
 2420POPC   C3B32169  13.557  27.989   8.047
 2420POPC   C4B32170  13.399  28.127   7.680
 2421POPC   NC332171   8.464   7.627   9.381
 2421POPC   PO432172   8.005   7.036   9.480
 2421POPC   GL132173   8.183   7.273   9.153
 2421POPC   GL232174   8.532   7.180   9.064
 2421POPC   C1A32175   8.134   7.164   8.744
 2421POPC   D2A32176   8.154   7.395   8.404
 2421POPC   C3A32177   7.962   7.280   8.108
 2421POPC   C4A32178   8.150   7.358   7.715
 2421POPC   C1B32179   8.566   7.452   8.739
 2421POPC   C2B32180   8.641   7.344   8.336
 2421POPC   C3B32181   8.468   7.607   8.050
 2421POPC   C4B32182   8.602   7.579   7.669
 2422POPC   NC332183   2.267  38.615   9.582
 2422POPC   PO432184   1.619  38.551   9.299
 2422POPC   GL132185   1.964  38.481   9.083
 2422POPC   GL232186   2.143  38.225   9.198
 2422POPC   C1A32187   1.886  38.368   8.665
 2422POPC   D2A32188   1.884  38.421   8.243
 2422POPC   C3A32189   1.815  38.230   7.860
 2422POPC   C4A32190   1.854  38.633   7.591
 2422POPC   C1B32191   2.371  38.307   8.788
 2422POPC   C2B32192   2.357  38.271   8.350
 2422POPC   C3B32193   2.280  38.445   7.937
 2422POPC   C4B32194   2.210  38.288   7.532
 2423POPC   NC332195  33.693  24.656   9.269
 2423POPC   PO432196  33.492  24.099   9.268
 2423POPC   GL132197  33.548  24.333   8.896
 2423POPC   GL232198  33.445  24.687   8.831
 2423POPC   C1A32199  33.869  24.389   8.595
 2423POPC   D2A32200  33.911  24.506   8.171
 2423POPC   C3A32201  33.991  24.157   7.866
 2423POPC   C4A32202  33.863  24.099   7.413
 2423POPC   C1B32203  33.743  24.928   8.618
 2423POPC   C2B32204  33.518  24.917   8.241
 2423POPC   C3B32205  33.502  24.701   7.869
 2423POPC   C4B32206  33.871  24.577   7.652
 2424POPC   NC332207   8.745  33.133   9.447
 2424POPC   PO432208   9.035  32.525   9.420
 2424POPC   GL132209   9.053  32.868   9.132
 2424POPC   GL232210   9.275  33.154   9.195
 2424POPC   C1A32211   8.989  33.028   8.730
 2424POPC   D2A32212   9.173  32.939   8.325
 2424POPC   C3A32213   8.835  32.820   8.038
 2424POPC   C4A32214   8.589  32.804   7.656
 2424POPC   C1B32215   9.226  33.456   8.842
 2424POPC   C2B32216   8.948  33.501   8.471
 2424POPC   C3B32217   9.089  33.386   8.050
 2424POPC   C4B32218   8.886  33.232   7.693
 2425POPC   NC332219  39.967  36.060   9.440
 2425POPC   PO432220  39.556  36.530   9.074
 2425POPC   GL132221  39.911  36.276   8.980
 2425POPC   GL232222  39.899  35.887   8.977
 2425POPC   C1A32223  39.961  36.170   8.577
 2425POPC   D2A32224  39.696  36.174   8.252
 2425POPC   C3A32225  40.057  36.258   8.064
 2425POPC   C4A32226  40.006  36.378   7.719
 2425POPC   C1B32227  40.356  35.923   8.791
 2425POPC   C2B32228  40.469  35.912   8.324
 2425POPC   C3B32229  40.247  35.794   7.925
 2425POPC   C4B32230  39.794  35.895   7.811
 2426POPC   NC332231  21.868  36.187   9.424
 2426POPC   PO432232  22.260  35.623   9.448
 2426POPC   GL132233  22.085  35.854   9.136
 2426POPC   GL232234  22.291  36.130   9.116
 2426POPC   C1A32235  21.977  36.066   8.722
 2426POPC   D2A32236  22.197  36.104   8.314
 2426POPC   C3A32237  22.007  36.108   7.934
 2426POPC   C4A32238  21.780  36.435   7.774
 2426POPC   C1B32239  22.447  36.317   8.726
 2426POPC   C2B32240  22.524  36.496   8.316
 2426POPC   C3B32241  22.257  36.557   7.963
 2426POPC   C4B32242  22.315  36.346   7.563
 2427POPC   NC332243   3.688   4.597   9.470
 2427POPC   PO432244   3.342   3.906   9.526
 2427POPC   GL132245   3.233   3.995   9.090
 2427POPC   GL232246   3.259   4.379   9.036
 2427POPC   C1A32247   3.322   4.034   8.648
 2427POPC   D2A32248   3.511   4.350   8.420
 2427POPC   C3A32249   3.427   4.169   8.047
 2427POPC   C4A32250   3.367   4.333   7.651
 2427POPC   C1B32251   3.698   4.240   8.923
 2427POPC   C2B32252   3.991   4.345   8.601
 2427POPC   C3B32253   3.952   4.388   8.146
 2427POPC   C4B32254   4.116   4.740   7.943
 2428POPC   NC332255  40.077  13.585   9.887
 2428POPC   PO432256  40.236  13.501   9.289
 2428POPC   GL132257  39.965  13.435   9.086
 2428POPC   GL232258  39.842  13.739   9.005
 2428POPC   C1A32259  40.061  13.404   8.666
 2428POPC   D2A32260  40.055  13.631   8.321
 2428POPC   C3A32261  40.103  13.369   8.025
 2428POPC   C4A32262  39.709  13.292   7.809
 2428POPC   C1B32263  40.176  13.912   8.740
 2428POPC   C2B32264  40.399  14.025   8.389
 2428POPC   C3B32265  40.212  14.041   8.011
 2428POPC   C4B32266  39.900  13.787   7.848
 2429POPC   NC332267  27.479  10.816   9.297
 2429POPC   PO432268  27.408  11.386   9.623
 2429POPC   GL132269  27.427  11.341   9.189
 2429POPC   GL232270  27.742  11.274   9.068
 2429POPC   C1A32271  27.346  11.216   8.750
 2429POPC   D2A32272  27.487  11.082   8.328
 2429POPC   C3A32273  27.460  11.414   8.034
 2429POPC   C4A32274  27.411  11.830   7.860
 2429POPC   C1B32275  27.873  11.071   8.713
 2429POPC   C2B32276  28.019  11.018   8.341
 2429POPC   C3B32277  27.882  11.135   7.949
 2429POPC   C4B32278  27.506  10.944   7.784
 2430POPC   NC332279  28.737   0.175   9.369
 2430POPC   PO432280  28.463   0.712   9.551
 2430POPC   GL132281  28.505   0.608   9.154
 2430POPC   GL232282  28.323   0.311   9.100
 2430POPC   C1A32283  28.637   0.526   8.757
 2430POPC   D2A32284  28.460   0.458   8.369
 2430POPC   C3A32285  28.634   0.303   7.973
 2430POPC   C4A32286  28.596   0.412   7.519
 2430POPC   C1B32287  28.102   0.521   8.799
 2430POPC   C2B32288  27.956   0.342   8.439
 2430POPC   C3B32289  28.117   0.414   8.009
 2430POPC   C4B32290  28.236   0.090   7.737
 2431POPC   NC332291  35.811   6.962   9.732
 2431POPC   PO432292  36.368   6.643   9.499
 2431POPC   GL132293  36.122   6.542   9.115
 2431POPC   GL232294  35.793   6.341   9.207
 2431POPC   C1A32295  36.077   6.737   8.716
 2431POPC   D2A32296  36.093   6.984   8.336
 2431POPC   C3A32297  35.940   6.935   7.906
 2431POPC   C4A32298  36.033   6.873   7.426
 2431POPC   C1B32299  35.890   6.244   8.765
 2431POPC   C2B32300  36.235   6.298   8.473
 2431POPC   C3B32301  36.190   6.517   8.082
 2431POPC   C4B32302  36.103   6.319   7.673
 2432POPC   NC332303  43.295   0.697   9.456
 2432POPC   PO432304  43.211   1.250   9.766
 2432POPC   GL132305  43.109   1.129   9.252
 2432POPC   GL232306  43.026   1.393   8.971
 2432POPC   C1A32307  43.048   0.919   8.842
 2432POPC   D2A32308  42.934   1.179   8.486
 2432POPC   C3A32309  42.996   1.056   8.076
 2432POPC   C4A32310  43.227   1.217   7.708
 2432POPC   C1B32311  43.334   1.476   8.623
 2432POPC   C2B32312  43.369   1.444   8.137
 2432POPC   C3B32313  43.609   1.541   7.717
 2432POPC   C4B32314  43.460   1.525   7.253
 2433POPC   NC332315  34.990  32.274   9.386
 2433POPC   PO432316  35.493  31.936   9.748
 2433POPC   GL132317  35.487  32.168   9.302
 2433POPC   GL232318  35.260  32.029   9.023
 2433POPC   C1A32319  35.546  32.415   8.883
 2433POPC   D2A32320  35.281  32.397   8.510
 2433POPC   C3A32321  35.439  32.268   8.106
 2433POPC   C4A32322  35.393  32.370   7.686
 2433POPC   C1B32323  34.965  32.011   8.731
 2433POPC   C2B32324  34.854  32.137   8.359
 2433POPC   C3B32325  34.993  31.928   8.016
 2433POPC   C4B32326  34.990  32.074   7.642
 2434POPC   NC332327  27.023  23.160   9.482
 2434POPC   PO432328  27.806  22.899   9.518
 2434POPC   GL132329  27.633  22.823   9.144
 2434POPC   GL232330  27.385  23.093   9.087
 2434POPC   C1A32331  27.730  22.926   8.756
 2434POPC   D2A32332  27.537  22.985   8.389
 2434POPC   C3A32333  27.726  22.845   8.044
 2434POPC   C4A32334  27.775  22.983   7.651
 2434POPC   C1B32335  27.271  22.700   8.782
 2434POPC   C2B32336  27.250  22.563   8.313
 2434POPC   C3B32337  27.239  22.676   7.851
 2434POPC   C4B32338  27.280  23.098   7.592
 2435POPC   NC332339  33.014  33.469   9.458
 2435POPC   PO432340  32.856  34.132   9.486
 2435POPC   GL132341  33.060  33.911   9.172
 2435POPC   GL232342  32.819  33.756   9.099
 2435POPC   C1A32343  33.219  33.648   8.825
 2435POPC   D2A32344  33.301  33.531   8.420
 2435POPC   C3A32345  33.292  33.918   8.214
 2435POPC   C4A32346  33.041  34.084   7.883
 2435POPC   C1B32347  32.773  33.974   8.715
 2435POPC   C2B32348  32.785  33.822   8.294
 2435POPC   C3B32349  32.988  33.563   7.988
 2435POPC   C4B32350  32.846  33.644   7.559
 2436POPC   NC332351  24.320  22.486   9.512
 2436POPC   PO432352  24.215  21.779   9.575
 2436POPC   GL132353  24.281  21.969   9.139
 2436POPC   GL232354  24.658  21.915   9.030
 2436POPC   C1A32355  24.313  22.158   8.705
 2436POPC   D2A32356  24.592  22.147   8.317
 2436POPC   C3A32357  24.332  22.364   7.954
 2436POPC   C4A32358  24.262  22.143   7.527
 2436POPC   C1B32359  24.798  22.295   8.798
 2436POPC   C2B32360  25.028  22.440   8.427
 2436POPC   C3B32361  24.843  22.491   8.014
 2436POPC   C4B32362  24.709  22.091   7.806
 2437POPC   NC332363  13.009  26.097   9.447
 2437POPC   PO432364  12.375  25.845   9.484
 2437POPC   GL132365  12.505  25.895   9.073
 2437POPC   GL232366  12.865  25.970   8.985
 2437POPC   C1A32367  12.496  26.099   8.680
 2437POPC   D2A32368  12.809  26.068   8.404
 2437POPC   C3A32369  12.697  25.927   8.001
 2437POPC   C4A32370  12.880  26.040   7.604
 2437POPC   C1B32371  13.148  25.831   8.695
 2437POPC   C2B32372  13.142  25.647   8.296
 2437POPC   C3B32373  13.116  25.680   7.857
 2437POPC   C4B32374  12.714  25.544   7.572
 2438POPC   NC332375  24.160  36.952   9.570
 2438POPC   PO432376  24.739  36.722   9.476
 2438POPC   GL132377  24.462  36.874   9.152
 2438POPC   GL232378  24.167  37.096   9.088
 2438POPC   C1A32379  24.293  36.639   8.824
 2438POPC   D2A32380  24.377  36.698   8.409
 2438POPC   C3A32381  24.382  36.425   8.107
 2438POPC   C4A32382  24.375  36.769   7.808
 2438POPC   C1B32383  24.361  37.135   8.686
 2438POPC   C2B32384  24.488  37.191   8.251
 2438POPC   C3B32385  24.276  37.285   7.841
 2438POPC   C4B32386  24.264  37.124   7.429
 2439POPC   NC332387  18.937  21.077   9.699
 2439POPC   PO432388  19.047  20.362   9.584
 2439POPC   GL132389  18.879  20.612   9.256
 2439POPC   GL232390  19.171  20.628   9.033
 2439POPC   C1A32391  18.737  20.468   8.842
 2439POPC   D2A32392  19.025  20.421   8.485
 2439POPC   C3A32393  18.896  20.586   8.099
 2439POPC   C4A32394  18.879  20.424   7.673
 2439POPC   C1B32395  19.431  20.348   8.787
 2439POPC   C2B32396  19.541  20.353   8.348
 2439POPC   C3B32397  19.367  20.478   7.931
 2439POPC   C4B32398  19.355  20.385   7.498
 2440POPC   NC332399  23.607  28.251   9.691
 2440POPC   PO432400  23.425  28.223   9.084
 2440POPC   GL132401  23.818  28.445   9.040
 2440POPC   GL232402  23.852  28.828   9.103
 2440POPC   C1A32403  24.043  28.273   8.685
 2440POPC   D2A32404  23.982  27.958   8.353
 2440POPC   C3A32405  23.935  28.009   7.933
 2440POPC   C4A32406  23.567  27.984   7.704
 2440POPC   C1B32407  24.041  28.799   8.707
 2440POPC   C2B32408  23.833  28.611   8.341
 2440POPC   C3B32409  23.593  28.387   8.020
 2440POPC   C4B32410  23.450  28.531   7.591
 2441POPC   NC332411   8.093  16.953   9.430
 2441POPC   PO432412   8.367  16.325   9.366
 2441POPC   GL132413   8.341  16.656   9.089
 2441POPC   GL232414   7.991  16.668   8.985
 2441POPC   C1A32415   8.374  16.841   8.686
 2441POPC   D2A32416   8.417  17.039   8.288
 2441POPC   C3A32417   8.462  16.793   7.898
 2441POPC   C4A32418   8.299  16.692   7.485
 2441POPC   C1B32419   7.711  16.920   8.727
 2441POPC   C2B32420   7.910  17.107   8.391
 2441POPC   C3B32421   8.008  17.006   7.989
 2441POPC   C4B32422   7.824  16.842   7.663
 2442POPC   NC332423   6.781  24.936   9.396
 2442POPC   PO432424   6.208  25.382   9.499
 2442POPC   GL132425   6.501  25.320   9.167
 2442POPC   GL232426   6.400  24.981   9.043
 2442POPC   C1A32427   6.689  25.522   8.802
 2442POPC   D2A32428   6.510  25.609   8.393
 2442POPC   C3A32429   6.733  25.517   7.990
 2442POPC   C4A32430   6.827  25.395   7.564
 2442POPC   C1B32431   6.769  25.034   8.760
 2442POPC   C2B32432   6.818  25.159   8.348
 2442POPC   C3B32433   6.793  24.987   7.944
 2442POPC   C4B32434   6.997  24.925   7.564
 2443POPC   NC332435  12.428  17.631   9.485
 2443POPC   PO432436  11.777  17.439   9.554
 2443POPC   GL132437  12.009  17.416   9.186
 2443POPC   GL232438  12.075  17.072   9.201
 2443POPC   C1A32439  11.920  17.643   8.792
 2443POPC   D2A32440  11.790  17.992   8.532
 2443POPC   C3A32441  11.723  17.857   8.101
 2443POPC   C4A32442  12.010  17.607   7.867
 2443POPC   C1B32443  11.941  17.127   8.760
 2443POPC   C2B32444  11.868  17.321   8.348
 2443POPC   C3B32445  11.982  17.113   7.966
 2443POPC   C4B32446  11.864  16.947   7.597
 2444POPC   NC332447  39.277  12.160   9.408
 2444POPC   PO432448  38.858  11.662   9.147
 2444POPC   GL132449  39.127  11.952   8.972
 2444POPC   GL232450  39.090  12.328   8.964
 2444POPC   C1A32451  39.384  12.017   8.656
 2444POPC   D2A32452  39.502  12.269   8.355
 2444POPC   C3A32453  39.526  12.081   7.962
 2444POPC   C4A32454  39.432  12.295   7.618
 2444POPC   C1B32455  39.060  12.391   8.529
 2444POPC   C2B32456  39.056  12.049   8.228
 2444POPC   C3B32457  39.031  12.071   7.796
 2444POPC   C4B32458  38.861  12.159   7.390
 2445POPC   NC332459  33.110  39.697   9.560
 2445POPC   PO432460  33.064  39.079   9.885
 2445POPC   GL132461  32.821  39.032   9.392
 2445POPC   GL232462  33.126  39.225   9.253
 2445POPC   C1A32463  32.801  39.154   8.882
 2445POPC   D2A32464  32.650  39.340   8.498
 2445POPC   C3A32465  32.736  39.383   8.063
 2445POPC   C4A32466  32.907  39.422   7.651
 2445POPC   C1B32467  33.303  39.260   8.817
 2445POPC   C2B32468  33.197  39.419   8.389
 2445POPC   C3B32469  33.274  39.318   7.957
 2445POPC   C4B32470  33.357  39.199   7.497
 2446POPC   NC332471   3.720   7.034   9.473
 2446POPC   PO432472   3.349   6.428   9.467
 2446POPC   GL132473   3.421   6.457   9.056
 2446POPC   GL232474   3.453   6.827   9.085
 2446POPC   C1A32475   3.520   6.610   8.641
 2446POPC   D2A32476   3.812   6.704   8.292
 2446POPC   C3A32477   3.609   6.575   7.884
 2446POPC   C4A32478   3.717   6.349   7.463
 2446POPC   C1B32479   3.824   7.004   8.826
 2446POPC   C2B32480   4.046   7.157   8.454
 2446POPC   C3B32481   3.837   7.171   8.062
 2446POPC   C4B32482   3.772   7.020   7.651
 2447POPC   NC332483  36.449  12.792   9.479
 2447POPC   PO432484  35.785  12.703   9.404
 2447POPC   GL132485  36.075  12.754   9.115
 2447POPC   GL232486  36.247  12.467   9.165
 2447POPC   C1A32487  36.190  12.953   8.765
 2447POPC   D2A32488  35.999  13.129   8.429
 2447POPC   C3A32489  36.083  12.942   8.067
 2447POPC   C4A32490  36.044  13.093   7.678
 2447POPC   C1B32491  36.336  12.428   8.777
 2447POPC   C2B32492  36.103  12.560   8.442
 2447POPC   C3B32493  36.176  12.438   8.036
 2447POPC   C4B32494  36.333  12.658   7.693
 2448POPC   NC332495  26.642  44.315   9.341
 2448POPC   PO432496  26.750  44.973   9.498
 2448POPC   GL132497  26.561  44.762   9.115
 2448POPC   GL232498  26.891  44.704   8.976
 2448POPC   C1A32499  26.474  44.442   8.756
 2448POPC   D2A32500  26.747  44.344   8.391
 2448POPC   C3A32501  26.585  44.460   7.992
 2448POPC   C4A32502  26.550  44.378   7.531
 2448POPC   C1B32503  26.685  44.852   8.589
 2448POPC   C2B32504  26.698   0.000   8.182
 2448POPC   C3B32505  26.778  44.879   7.762
 2448POPC   C4B32506  26.832   0.061   7.368
 2449POPC   NC332507   8.377  27.987   9.513
 2449POPC   PO432508   8.119  27.357   9.517
 2449POPC   GL132509   8.207  27.624   9.156
 2449POPC   GL232510   7.995  27.930   9.179
 2449POPC   C1A32511   8.414  27.646   8.759
 2449POPC   D2A32512   8.544  27.717   8.299
 2449POPC   C3A32513   8.447  27.402   8.017
 2449POPC   C4A32514   8.296  27.337   7.565
 2449POPC   C1B32515   7.941  27.861   8.744
 2449POPC   C2B32516   8.057  27.578   8.417
 2449POPC   C3B32517   8.006  27.661   8.029
 2449POPC   C4B32518   7.933  27.690   7.630
 2450POPC   NC332519  15.788  31.200   9.433
 2450POPC   PO432520  16.020  31.801   9.522
 2450POPC   GL132521  16.032  31.577   9.162
 2450POPC   GL232522  16.375  31.579   9.102
 2450POPC   C1A32523  15.952  31.338   8.783
 2450POPC   D2A32524  15.848  31.096   8.416
 2450POPC   C3A32525  15.916  31.325   8.032
 2450POPC   C4A32526  15.861  31.363   7.606
 2450POPC   C1B32527  16.215  31.782   8.729
 2450POPC   C2B32528  16.044  31.681   8.375
 2450POPC   C3B32529  16.272  31.738   8.020
 2450POPC   C4B32530  16.167  31.764   7.634
 2451POPC   NC332531  27.939  14.214   9.481
 2451POPC   PO432532  27.417  14.729   9.623
 2451POPC   GL132533  27.634  14.571   9.229
 2451POPC   GL232534  27.547  14.802   8.972
 2451POPC   C1A32535  27.692  14.334   8.819
 2451POPC   D2A32536  27.861  14.547   8.429
 2451POPC   C3A32537  27.608  14.542   8.074
 2451POPC   C4A32538  27.733  14.200   7.783
 2451POPC   C1B32539  27.371  14.630   8.568
 2451POPC   C2B32540  27.418  14.197   8.377
 2451POPC   C3B32541  27.271  14.178   7.952
 2451POPC   C4B32542  27.384  14.549   7.605
 2452POPC   NC332543  26.438  31.486   9.411
 2452POPC   PO432544  26.959  31.184   9.575
 2452POPC   GL132545  26.947  31.357   9.132
 2452POPC   GL232546  26.877  31.712   9.070
 2452POPC   C1A32547  27.074  31.477   8.687
 2452POPC   D2A32548  26.852  31.691   8.348
 2452POPC   C3A32549  26.853  31.409   8.021
 2452POPC   C4A32550  27.085  31.117   7.773
 2452POPC   C1B32551  26.571  31.587   8.778
 2452POPC   C2B32552  26.319  31.587   8.401
 2452POPC   C3B32553  26.392  31.650   7.970
 2452POPC   C4B32554  26.591  31.479   7.593
 2453POPC   NC332555  12.379  24.688   9.335
 2453POPC   PO432556  11.832  24.384   9.625
 2453POPC   GL132557  11.899  24.331   9.148
 2453POPC   GL232558  12.245  24.289   8.992
 2453POPC   C1A32559  11.873  24.199   8.670
 2453POPC   D2A32560  12.076  24.410   8.266
 2453POPC   C3A32561  12.170  24.123   7.844
 2453POPC   C4A32562  12.395  24.147   7.436
 2453POPC   C1B32563  12.098  24.654   8.744
 2453POPC   C2B32564  11.881  24.917   8.468
 2453POPC   C3B32565  11.788  24.840   8.047
 2453POPC   C4B32566  12.037  24.598   7.790
 2454POPC   NC332567  24.696   4.226   9.333
 2454POPC   PO432568  25.216   4.223   9.781
 2454POPC   GL132569  25.232   4.190   9.266
 2454POPC   GL232570  25.053   3.928   9.071
 2454POPC   C1A32571  25.433   4.434   8.868
 2454POPC   D2A32572  25.431   4.224   8.437
 2454POPC   C3A32573  25.514   4.389   8.044
 2454POPC   C4A32574  25.406   4.513   7.652
 2454POPC   C1B32575  24.998   4.226   8.733
 2454POPC   C2B32576  25.025   4.553   8.416
 2454POPC   C3B32577  24.978   4.384   8.011
 2454POPC   C4B32578  25.190   4.025   7.874
 2455POPC   NC332579  20.318   8.554   9.342
 2455POPC   PO432580  20.760   8.131   9.391
 2455POPC   GL132581  20.671   7.992   9.028
 2455POPC   GL232582  20.329   8.017   9.076
 2455POPC   C1A32583  20.830   8.005   8.616
 2455POPC   D2A32584  20.587   8.119   8.255
 2455POPC   C3A32585  20.714   8.000   7.861
 2455POPC   C4A32586  21.086   8.050   7.613
 2455POPC   C1B32587  20.406   8.324   8.714
 2455POPC   C2B32588  20.423   8.591   8.330
 2455POPC   C3B32589  20.406   8.503   7.894
 2455POPC   C4B32590  20.193   8.515   7.479
 2456POPC   NC332591  32.536  41.461   9.427
 2456POPC   PO432592  33.250  41.489   9.489
 2456POPC   GL132593  33.108  41.612   9.123
 2456POPC   GL232594  32.810  41.839   9.197
 2456POPC   C1A32595  33.171  41.846   8.773
 2456POPC   D2A32596  32.931  41.897   8.417
 2456POPC   C3A32597  32.955  41.671   8.077
 2456POPC   C4A32598  33.093  41.718   7.695
 2456POPC   C1B32599  32.685  41.669   8.800
 2456POPC   C2B32600  32.760  41.370   8.482
 2456POPC   C3B32601  32.827  41.183   8.079
 2456POPC   C4B32602  33.036  41.213   7.706
 2457POPC   NC332603  25.499  41.624   9.395
 2457POPC   PO432604  24.858  41.832   9.482
 2457POPC   GL132605  25.057  41.604   9.145
 2457POPC   GL232606  25.237  41.903   9.034
 2457POPC   C1A32607  25.244  41.471   8.733
 2457POPC   D2A32608  25.388  41.691   8.320
 2457POPC   C3A32609  25.474  41.376   8.017
 2457POPC   C4A32610  25.097  41.201   7.889
 2457POPC   C1B32611  25.017  41.932   8.627
 2457POPC   C2B32612  24.738  41.972   8.277
 2457POPC   C3B32613  24.835  41.860   7.869
 2457POPC   C4B32614  25.220  41.674   7.678
 2458POPC   NC332615  40.322  34.396   9.833
 2458POPC   PO432616  39.960  34.819   9.469
 2458POPC   GL132617  40.216  34.696   9.111
 2458POPC   GL232618  40.189  34.359   9.125
 2458POPC   C1A32619  40.148  34.608   8.667
 2458POPC   D2A32620  39.825  34.542   8.379
 2458POPC   C3A32621  40.064  34.649   8.054
 2458POPC   C4A32622  40.191  34.736   7.666
 2458POPC   C1B32623  40.437  34.204   8.758
 2458POPC   C2B32624  40.539  34.361   8.331
 2458POPC   C3B32625  40.407  34.241   7.903
 2458POPC   C4B32626  40.272  34.273   7.459
 2459POPC   NC332627   0.058   6.013   9.456
 2459POPC   PO432628  44.434   5.740   9.641
 2459POPC   GL132629  44.623   5.679   9.211
 2459POPC   GL232630  44.671   5.975   9.067
 2459POPC   C1A32631  44.967   5.593   8.873
 2459POPC   D2A32632  44.957   5.692   8.415
 2459POPC   C3A32633  44.998   5.514   7.995
 2459POPC   C4A32634  44.991   5.861   7.720
 2459POPC   C1B32635  44.528   5.775   8.694
 2459POPC   C2B32636  44.439   5.870   8.279
 2459POPC   C3B32637  44.502   5.858   7.853
 2459POPC   C4B32638  44.178   5.647   7.669
 2460POPC   NC332639  33.558   6.229   9.549
 2460POPC   PO432640  34.091   6.638   9.486
 2460POPC   GL132641  33.799   6.497   9.193
 2460POPC   GL232642  33.591   6.739   9.068
 2460POPC   C1A32643  33.789   6.289   8.816
 2460POPC   D2A32644  33.665   6.386   8.412
 2460POPC   C3A32645  33.840   6.272   8.046
 2460POPC   C4A32646  33.645   6.357   7.675
 2460POPC   C1B32647  33.932   6.752   8.729
 2460POPC   C2B32648  34.114   6.656   8.334
 2460POPC   C3B32649  33.992   6.730   7.905
 2460POPC   C4B32650  34.211   6.853   7.525
 2461POPC   NC332651  10.210  18.061   9.466
 2461POPC   PO432652  10.662  18.549   9.413
 2461POPC   GL132653  10.538  18.252   9.104
 2461POPC   GL232654  10.640  17.908   9.225
 2461POPC   C1A32655  10.397  18.320   8.689
 2461POPC   D2A32656  10.610  18.512   8.359
 2461POPC   C3A32657  10.543  18.303   8.001
 2461POPC   C4A32658  10.135  18.297   7.838
 2461POPC   C1B32659  10.488  17.819   8.816
 2461POPC   C2B32660  10.542  17.918   8.375
 2461POPC   C3B32661  10.656  17.796   7.950
 2461POPC   C4B32662  10.472  17.977   7.572
 2462POPC   NC332663  13.271  29.154   9.429
 2462POPC   PO432664  13.909  29.297   9.323
 2462POPC   GL132665  13.626  29.056   9.048
 2462POPC   GL232666  13.270  28.907   8.997
 2462POPC   C1A32667  13.793  29.093   8.659
 2462POPC   D2A32668  13.689  29.272   8.294
 2462POPC   C3A32669  13.760  28.988   8.023
 2462POPC   C4A32670  13.946  28.954   7.639
 2462POPC   C1B32671  13.285  29.253   8.709
 2462POPC   C2B32672  13.133  29.196   8.284
 2462POPC   C3B32673  13.241  28.878   7.984
 2462POPC   C4B32674  13.435  29.044   7.651
 2463POPC   NC332675  14.901  10.020   9.537
 2463POPC   PO432676  15.358   9.586   9.715
 2463POPC   GL132677  15.364   9.675   9.238
 2463POPC   GL232678  15.130   9.904   9.098
 2463POPC   C1A32679  15.401   9.564   8.778
 2463POPC   D2A32680  15.330   9.417   8.343
 2463POPC   C3A32681  15.445   9.701   8.024
 2463POPC   C4A32682  15.214   9.954   7.755
 2463POPC   C1B32683  14.921   9.789   8.724
 2463POPC   C2B32684  15.023   9.869   8.315
 2463POPC   C3B32685  14.926   9.578   8.011
 2463POPC   C4B32686  14.800   9.678   7.586
 2464POPC   NC332687  32.493  39.885   9.452
 2464POPC   PO432688  32.124  40.398   9.499
 2464POPC   GL132689  32.063  40.071   9.183
 2464POPC   GL232690  32.129  39.693   9.181
 2464POPC   C1A32691  32.159  40.108   8.765
 2464POPC   D2A32692  31.927  40.214   8.424
 2464POPC   C3A32693  32.056  40.041   8.072
 2464POPC   C4A32694  32.078  39.917   7.677
 2464POPC   C1B32695  32.436  39.687   8.826
 2464POPC   C2B32696  32.341  39.755   8.395
 2464POPC   C3B32697  32.531  39.851   7.980
 2464POPC   C4B32698  32.476  39.650   7.578
 2465POPC   NC332699  34.922  22.247   9.595
 2465POPC   PO432700  34.336  22.073   9.363
 2465POPC   GL132701  34.561  22.304   9.077
 2465POPC   GL232702  34.382  22.627   9.101
 2465POPC   C1A32703  34.531  22.072   8.701
 2465POPC   D2A32704  34.698  21.801   8.399
 2465POPC   C3A32705  34.573  21.920   8.010
 2465POPC   C4A32706  34.801  21.902   7.657
 2465POPC   C1B32707  34.140  22.417   8.767
 2465POPC   C2B32708  34.179  22.271   8.333
 2465POPC   C3B32709  34.349  22.390   7.927
 2465POPC   C4B32710  34.478  22.250   7.504
 2466POPC   NC332711   3.163  34.614   9.539
 2466POPC   PO432712   2.546  34.826   9.480
 2466POPC   GL132713   2.814  34.667   9.126
 2466POPC   GL232714   2.925  34.343   9.004
 2466POPC   C1A32715   2.883  34.835   8.687
 2466POPC   D2A32716   2.856  34.884   8.225
 2466POPC   C3A32717   2.777  34.596   7.849
 2466POPC   C4A32718   3.145  34.384   7.631
 2466POPC   C1B32719   2.619  34.384   8.679
 2466POPC   C2B32720   2.559  34.350   8.230
 2466POPC   C3B32721   2.371  34.279   7.823
 2466POPC   C4B32722   2.347  34.560   7.486
 2467POPC   NC332723  41.857   8.220   9.359
 2467POPC   PO432724  41.460   7.769   9.231
 2467POPC   GL132725  41.556   8.037   8.915
 2467POPC   GL232726  41.530   8.366   9.017
 2467POPC   C1A32727  41.277   8.291   8.605
 2467POPC   D2A32728  41.249   8.290   8.190
 2467POPC   C3A32729  41.411   7.962   7.999
 2467POPC   C4A32730  41.352   7.929   7.561
 2467POPC   C1B32731  41.783   8.411   8.643
 2467POPC   C2B32732  41.844   8.641   8.300
 2467POPC   C3B32733  41.809   8.461   7.910
 2467POPC   C4B32734  41.839   8.069   7.765
 2468POPC   NC332735   4.447   5.351   9.381
 2468POPC   PO432736   3.841   5.048   9.445
 2468POPC   GL132737   4.049   4.894   9.065
 2468POPC   GL232738   4.387   4.750   9.062
 2468POPC   C1A32739   4.165   4.817   8.623
 2468POPC   D2A32740   4.343   5.038   8.287
 2468POPC   C3A32741   4.026   5.245   8.015
 2468POPC   C4A32742   3.872   5.060   7.639
 2468POPC   C1B32743   4.525   5.150   8.759
 2468POPC   C2B32744   4.455   5.521   8.423
 2468POPC   C3B32745   4.500   5.412   7.970
 2468POPC   C4B32746   4.605   4.973   7.839
 2469POPC   NC332747  17.129  40.377   9.463
 2469POPC   PO432748  17.513  39.781   9.550
 2469POPC   GL132749  17.549  39.894   9.135
 2469POPC   GL232750  17.228  39.981   9.128
 2469POPC   C1A32751  17.642  39.911   8.724
 2469POPC   D2A32752  17.911  39.864   8.392
 2469POPC   C3A32753  17.734  39.829   8.003
 2469POPC   C4A32754  17.808  39.604   7.665
 2469POPC   C1B32755  17.161  40.053   8.694
 2469POPC   C2B32756  17.327  40.039   8.271
 2469POPC   C3B32757  17.313  40.058   7.806
 2469POPC   C4B32758  17.308  40.319   7.440
 2470POPC   NC332759  16.254  30.165   9.766
 2470POPC   PO432760  15.636  30.157   9.506
 2470POPC   GL132761  15.753  30.012   9.079
 2470POPC   GL232762  16.110  29.926   9.083
 2470POPC   C1A32763  15.793  29.735   8.699
 2470POPC   D2A32764  15.606  29.725   8.296
 2470POPC   C3A32765  15.800  29.945   7.954
 2470POPC   C4A32766  16.204  29.855   7.809
 2470POPC   C1B32767  16.154  30.090   8.665
 2470POPC   C2B32768  16.186  30.132   8.250
 2470POPC   C3B32769  16.369  30.354   7.949
 2470POPC   C4B32770  16.236  30.308   7.539
 2471POPC   NC332771  13.141   2.547   9.581
 2471POPC   PO432772  13.645   2.831   9.495
 2471POPC   GL132773  13.390   2.741   9.153
 2471POPC   GL232774  13.278   2.346   9.142
 2471POPC   C1A32775  13.630   2.892   8.763
 2471POPC   D2A32776  13.866   2.862   8.409
 2471POPC   C3A32777  13.544   2.888   8.120
 2471POPC   C4A32778  13.747   2.885   7.763
 2471POPC   C1B32779  13.636   2.401   8.894
 2471POPC   C2B32780  13.543   2.467   8.478
 2471POPC   C3B32781  13.668   2.412   8.055
 2471POPC   C4B32782  13.452   2.497   7.675
 2472POPC   NC332783  36.744  36.415   9.740
 2472POPC   PO432784  36.807  35.799   9.590
 2472POPC   GL132785  36.905  35.830   9.140
 2472POPC   GL232786  36.734  35.615   8.970
 2472POPC   C1A32787  37.215  35.918   8.773
 2472POPC   D2A32788  37.342  36.114   8.369
 2472POPC   C3A32789  37.067  36.093   7.990
 2472POPC   C4A32790  36.871  36.304   7.650
 2472POPC   C1B32791  36.708  35.970   8.693
 2472POPC   C2B32792  36.618  36.070   8.280
 2472POPC   C3B32793  36.564  35.895   7.896
 2472POPC   C4B32794  36.376  36.130   7.567
 2473POPC   NC332795   2.345   3.710   9.499
 2473POPC   PO432796   1.774   3.395   9.512
 2473POPC   GL132797   1.907   3.302   9.122
 2473POPC   GL232798   2.161   3.545   9.061
 2473POPC   C1A32799   2.008   3.244   8.702
 2473POPC   D2A32800   2.108   3.589   8.445
 2473POPC   C3A32801   2.127   3.405   8.060
 2473POPC   C4A32802   2.039   3.478   7.652
 2473POPC   C1B32803   1.766   3.707   8.859
 2473POPC   C2B32804   1.708   3.904   8.478
 2473POPC   C3B32805   1.807   3.829   8.072
 2473POPC   C4B32806   1.661   3.855   7.684
 2474POPC   NC332807  16.623   6.895   9.972
 2474POPC   PO432808  16.675   7.515   9.612
 2474POPC   GL132809  16.699   7.613   9.155
 2474POPC   GL232810  16.956   7.780   8.969
 2474POPC   C1A32811  16.686   7.443   8.707
 2474POPC   D2A32812  16.633   7.656   8.288
 2474POPC   C3A32813  16.663   7.363   7.948
 2474POPC   C4A32814  16.887   7.013   7.784
 2474POPC   C1B32815  17.087   7.690   8.517
 2474POPC   C2B32816  17.093   7.703   8.044
 2474POPC   C3B32817  16.903   7.666   7.626
 2474POPC   C4B32818  17.001   7.744   7.168
 2475POPC   NC332819   3.690  40.180   9.414
 2475POPC   PO432820   3.106  40.523   9.421
 2475POPC   GL132821   3.221  40.168   9.080
 2475POPC   GL232822   3.560  40.075   8.954
 2475POPC   C1A32823   3.187  39.780   8.823
 2475POPC   D2A32824   3.519  39.756   8.537
 2475POPC   C3A32825   3.444  39.994   8.191
 2475POPC   C4A32826   3.276  39.937   7.751
 2475POPC   C1B32827   3.836  40.173   8.640
 2475POPC   C2B32828   3.950  39.918   8.256
 2475POPC   C3B32829   3.762  39.789   7.841
 2475POPC   C4B32830   3.860  39.939   7.404
 2476POPC   NC332831  33.002   2.171   9.548
 2476POPC   PO432832  33.126   1.530   9.776
 2476POPC   GL132833  33.137   1.701   9.311
 2476POPC   GL232834  32.816   1.752   9.133
 2476POPC   C1A32835  33.215   1.806   8.833
 2476POPC   D2A32836  33.296   1.788   8.373
 2476POPC   C3A32837  33.077   2.024   8.047
 2476POPC   C4A32838  33.129   2.268   7.672
 2476POPC   C1B32839  32.810   2.147   8.892
 2476POPC   C2B32840  32.800   1.994   8.494
 2476POPC   C3B32841  32.556   2.006   8.122
 2476POPC   C4B32842  32.705   1.807   7.752
 2477POPC   NC332843  12.992  38.094   9.461
 2477POPC   PO432844  12.890  38.761   9.618
 2477POPC   GL132845  12.817  38.545   9.196
 2477POPC   GL232846  12.652  38.216   9.088
 2477POPC   C1A32847  13.000  38.603   8.778
 2477POPC   D2A32848  13.041  38.854   8.400
 2477POPC   C3A32849  13.035  38.691   7.980
 2477POPC   C4A32850  13.046  38.878   7.580
 2477POPC   C1B32851  12.549  38.364   8.661
 2477POPC   C2B32852  12.621  38.515   8.239
 2477POPC   C3B32853  12.605  38.510   7.771
 2477POPC   C4B32854  12.556  38.180   7.435
 2478POPC   NC332855   3.474  28.783   9.631
 2478POPC   PO432856   3.828  29.359   9.442
 2478POPC   GL132857   3.774  29.229   9.023
 2478POPC   GL232858   3.490  29.021   9.143
 2478POPC   C1A32859   3.774  29.207   8.570
 2478POPC   D2A32860   3.458  29.214   8.248
 2478POPC   C3A32861   3.652  29.269   7.871
 2478POPC   C4A32862   3.593  29.141   7.453
 2478POPC   C1B32863   3.326  28.971   8.736
 2478POPC   C2B32864   3.531  28.740   8.405
 2478POPC   C3B32865   3.624  28.757   8.003
 2478POPC   C4B32866   3.499  28.668   7.625
 2479POPC   NC332867   0.207  31.193   9.492
 2479POPC   PO432868  44.655  31.580   9.545
 2479POPC   GL132869  44.866  31.446   9.199
 2479POPC   GL232870  44.868  31.747   9.043
 2479POPC   C1A32871  44.731  31.312   8.792
 2479POPC   D2A32872  44.644  31.550   8.401
 2479POPC   C3A32873  44.610  31.328   7.990
 2479POPC   C4A32874  44.413  31.188   7.630
 2479POPC   C1B32875  44.433  31.757   8.858
 2479POPC   C2B32876  44.225  31.880   8.450
 2479POPC   C3B32877  44.376  31.860   8.018
 2479POPC   C4B32878  44.495  31.693   7.628
 2480POPC   NC332879  20.149  38.869   9.428
 2480POPC   PO432880  20.670  38.433   9.666
 2480POPC   GL132881  20.339  38.305   9.283
 2480POPC   GL232882  20.366  38.565   9.085
 2480POPC   C1A32883  20.382  38.172   8.782
 2480POPC   D2A32884  20.313  38.230   8.304
 2480POPC   C3A32885  20.569  38.287   7.892
 2480POPC   C4A32886  20.459  38.345   7.442
 2480POPC   C1B32887  20.508  38.659   8.681
 2480POPC   C2B32888  20.406  38.753   8.269
 2480POPC   C3B32889  20.658  38.793   7.909
 2480POPC   C4B32890  20.814  38.708   7.499
 2481POPC   NC332891  39.679  39.238   9.524
 2481POPC   PO432892  40.286  39.471   9.382
 2481POPC   GL132893  40.062  39.113   9.096
 2481POPC   GL232894  39.739  38.932   9.113
 2481POPC   C1A32895  40.074  39.085   8.642
 2481POPC   D2A32896  40.121  39.421   8.337
 2481POPC   C3A32897  40.171  39.294   7.913
 2481POPC   C4A32898  40.371  39.286   7.521
 2481POPC   C1B32899  39.618  38.846   8.698
 2481POPC   C2B32900  39.688  39.030   8.273
 2481POPC   C3B32901  39.835  38.910   7.862
 2481POPC   C4B32902  39.913  39.074   7.422
 2482POPC   NC332903  32.457  25.319   9.349
 2482POPC   PO432904  33.120  25.483   9.487
 2482POPC   GL132905  33.094  25.446   9.067
 2482POPC   GL232906  32.799  25.324   8.954
 2482POPC   C1A32907  33.272  25.194   8.737
 2482POPC   D2A32908  33.050  25.025   8.398
 2482POPC   C3A32909  32.924  25.285   8.108
 2482POPC   C4A32910  33.031  25.346   7.722
 2482POPC   C1B32911  32.595  25.217   8.570
 2482POPC   C2B32912  32.550  24.966   8.228
 2482POPC   C3B32913  32.583  25.049   7.784
 2482POPC   C4B32914  32.516  25.446   7.586
 2483POPC   NC332915  36.397  21.955   9.550
 2483POPC   PO432916  35.781  22.227   9.413
 2483POPC   GL132917  36.103  22.098   9.136
 2483POPC   GL232918  36.248  21.774   9.117
 2483POPC   C1A32919  36.032  22.022   8.717
 2483POPC   D2A32920  36.132  22.274   8.394
 2483POPC   C3A32921  36.032  22.145   7.977
 2483POPC   C4A32922  36.168  22.380   7.619
 2483POPC   C1B32923  36.486  21.739   8.745
 2483POPC   C2B32924  36.314  21.797   8.346
 2483POPC   C3B32925  36.407  21.678   7.968
 2483POPC   C4B32926  36.311  21.880   7.592
 2484POPC   NC332927   7.134   1.821   9.243
 2484POPC   PO432928   7.381   2.387   9.592
 2484POPC   GL132929   7.463   2.324   9.175
 2484POPC   GL232930   7.639   2.009   9.122
 2484POPC   C1A32931   7.451   2.258   8.740
 2484POPC   D2A32932   7.182   2.112   8.451
 2484POPC   C3A32933   7.392   2.223   8.104
 2484POPC   C4A32934   7.254   2.235   7.721
 2484POPC   C1B32935   7.508   1.764   8.745
 2484POPC   C2B32936   7.560   1.789   8.317
 2484POPC   C3B32937   7.438   1.733   7.884
 2484POPC   C4B32938   7.675   1.875   7.531
 2485POPC   NC332939  16.453  28.300   9.440
 2485POPC   PO432940  16.818  28.849   9.681
 2485POPC   GL132941  16.684  28.739   9.223
 2485POPC   GL232942  16.926  28.463   9.084
 2485POPC   C1A32943  16.582  28.644   8.755
 2485POPC   D2A32944  16.891  28.481   8.433
 2485POPC   C3A32945  16.846  28.418   7.991
 2485POPC   C4A32946  16.932  28.616   7.598
 2485POPC   C1B32947  16.675  28.147   8.776
 2485POPC   C2B32948  16.576  28.051   8.339
 2485POPC   C3B32949  16.724  27.931   7.907
 2485POPC   C4B32950  16.741  28.147   7.497
 2486POPC   NC332951  24.584  34.783   9.785
 2486POPC   PO432952  24.417  34.211   9.484
 2486POPC   GL132953  24.502  34.544   9.165
 2486POPC   GL232954  24.251  34.735   8.922
 2486POPC   C1A32955  24.628  34.441   8.736
 2486POPC   D2A32956  24.393  34.615   8.378
 2486POPC   C3A32957  24.617  34.473   8.033
 2486POPC   C4A32958  24.386  34.313   7.706
 2486POPC   C1B32959  24.609  34.937   8.699
 2486POPC   C2B32960  24.795  34.920   8.308
 2486POPC   C3B32961  24.556  35.040   7.966
 2486POPC   C4B32962  24.627  34.808   7.636
 2487POPC   NC332963  14.765  40.509   9.544
 2487POPC   PO432964  15.268  40.919   9.715
 2487POPC   GL132965  15.257  40.884   9.272
 2487POPC   GL232966  15.560  40.857   9.085
 2487POPC   C1A32967  15.061  40.805   8.880
 2487POPC   D2A32968  15.096  41.016   8.483
 2487POPC   C3A32969  15.028  40.827   8.089
 2487POPC   C4A32970  14.923  41.018   7.706
 2487POPC   C1B32971  15.536  40.788   8.636
 2487POPC   C2B32972  15.509  40.743   8.200
 2487POPC   C3B32973  15.467  40.945   7.780
 2487POPC   C4B32974  15.740  41.089   7.436
 2488POPC   NC332975  34.944  13.343   9.485
 2488POPC   PO432976  35.589  13.565   9.604
 2488POPC   GL132977  35.491  13.609   9.185
 2488POPC   GL232978  35.182  13.476   9.066
 2488POPC   C1A32979  35.533  13.757   8.766
 2488POPC   D2A32980  35.385  14.025   8.441
 2488POPC   C3A32981  35.462  13.875   8.039
 2488POPC   C4A32982  35.208  13.851   7.677
 2488POPC   C1B32983  34.983  13.654   8.713
 2488POPC   C2B32984  35.087  13.603   8.286
 2488POPC   C3B32985  35.290  13.402   7.943
 2488POPC   C4B32986  35.175  13.367   7.516
 2489POPC   NC332987  28.853  33.684   9.610
 2489POPC   PO432988  29.491  33.659   9.431
 2489POPC   GL132989  29.220  33.792   9.137
 2489POPC   GL232990  28.930  33.618   9.099
 2489POPC   C1A32991  29.275  34.038   8.789
 2489POPC   D2A32992  29.083  34.169   8.418
 2489POPC   C3A32993  29.303  34.023   8.063
 2489POPC   C4A32994  29.232  33.782   7.710
 2489POPC   C1B32995  28.849  33.740   8.650
 2489POPC   C2B32996  28.892  33.711   8.169
 2489POPC   C3B32997  28.713  33.686   7.729
 2489POPC   C4B32998  28.875  33.529   7.305
 2490POPC   NC332999  30.949   3.236   9.471
 2490POPC   PO433000  30.332   3.565   9.616
 2490POPC   GL133001  30.569   3.516   9.222
 2490POPC   GL233002  30.900   3.634   9.145
 2490POPC   C1A33003  30.618   3.390   8.778
 2490POPC   D2A33004  30.631   3.630   8.390
 2490POPC   C3A33005  30.510   3.431   8.024
 2490POPC   C4A33006  30.614   3.401   7.604
 2490POPC   C1B33007  31.015   3.778   8.737
 2490POPC   C2B33008  31.176   3.672   8.326
 2490POPC   C3B33009  30.971   3.625   7.926
 2490POPC   C4B33010  31.000   3.722   7.512
 2491POPC   NC333011  11.848  19.339   9.294
 2491POPC   PO433012  12.369  18.865   9.434
 2491POPC   GL133013  12.137  18.811   9.081
 2491POPC   GL233014  11.794  18.828   9.221
 2491POPC   C1A33015  12.136  19.023   8.667
 2491POPC   D2A33016  12.289  19.338   8.355
 2491POPC   C3A33017  12.408  19.237   7.908
 2491POPC   C4A33018  12.230  19.152   7.500
 2491POPC   C1B33019  11.674  18.851   8.811
 2491POPC   C2B33020  11.708  18.790   8.377
 2491POPC   C3B33021  11.944  19.014   8.059
 2491POPC   C4B33022  11.750  19.106   7.660
 2492POPC   NC333023  27.309  12.661   9.370
 2492POPC   PO433024  27.860  13.060   9.493
 2492POPC   GL133025  27.650  13.009   9.135
 2492POPC   GL233026  27.393  13.214   9.287
 2492POPC   C1A33027  27.557  12.857   8.709
 2492POPC   D2A33028  27.274  12.658   8.396
 2492POPC   C3A33029  27.385  12.836   8.025
 2492POPC   C4A33030  27.609  12.729   7.635
 2492POPC   C1B33031  27.364  13.334   8.848
 2492POPC   C2B33032  27.260  13.224   8.419
 2492POPC   C3B33033  27.166  13.325   8.007
 2492POPC   C4B33034  27.349  13.166   7.646
 2493POPC   NC333035  33.355  25.114   9.647
 2493POPC   PO433036  33.986  24.996   9.372
 2493POPC   GL133037  33.887  25.320   9.083
 2493POPC   GL233038  33.579  25.388   9.243
 2493POPC   C1A33039  33.951  25.434   8.654
 2493POPC   D2A33040  33.779  25.366   8.241
 2493POPC   C3A33041  33.934  25.007   7.967
 2493POPC   C4A33042  34.144  25.008   7.580
 2493POPC   C1B33043  33.514  25.647   8.884
 2493POPC   C2B33044  33.381  25.648   8.480
 2493POPC   C3B33045  33.344  25.615   8.047
 2493POPC   C4B33046  33.539  25.299   7.786
 2494POPC   NC333047  26.194  32.102   9.509
 2494POPC   PO433048  26.131  32.770   9.610
 2494POPC   GL133049  26.031  32.527   9.208
 2494POPC   GL233050  25.842  32.184   9.126
 2494POPC   C1A33051  26.252  32.473   8.814
 2494POPC   D2A33052  26.389  32.621   8.400
 2494POPC   C3A33053  26.100  32.629   8.067
 2494POPC   C4A33054  25.943  32.307   7.800
 2494POPC   C1B33055  25.985  32.000   8.699
 2494POPC   C2B33056  25.998  31.957   8.216
 2494POPC   C3B33057  25.938  31.803   7.769
 2494POPC   C4B33058  25.808  31.928   7.354
 2495POPC   NC333059  33.727  33.235   9.425
 2495POPC   PO433060  34.180  32.691   9.358
 2495POPC   GL133061  34.053  33.006   9.081
 2495POPC   GL233062  33.690  32.969   9.008
 2495POPC   C1A33063  34.063  33.037   8.650
 2495POPC   D2A33064  33.971  32.757   8.326
 2495POPC   C3A33065  33.881  32.927   7.929
 2495POPC   C4A33066  33.681  32.652   7.673
 2495POPC   C1B33067  33.701  33.379   8.755
 2495POPC   C2B33068  33.724  33.257   8.300
 2495POPC   C3B33069  33.700  33.409   7.870
 2495POPC   C4B33070  33.573  33.302   7.427
 2496POPC   NC333071  37.173   3.841   9.553
 2496POPC   PO433072  37.180   3.211   9.636
 2496POPC   GL133073  37.130   3.427   9.239
 2496POPC   GL233074  36.792   3.414   9.022
 2496POPC   C1A33075  37.247   3.442   8.820
 2496POPC   D2A33076  36.975   3.484   8.441
 2496POPC   C3A33077  37.168   3.454   8.028
 2496POPC   C4A33078  37.019   3.512   7.624
 2496POPC   C1B33079  36.661   3.789   8.735
 2496POPC   C2B33080  36.471   3.829   8.340
 2496POPC   C3B33081  36.692   3.674   8.010
 2496POPC   C4B33082  36.665   3.901   7.667
 2497POPC   NC333083  24.971  33.857   9.822
 2497POPC   PO433084  25.588  34.156   9.595
 2497POPC   GL133085  25.614  34.034   9.181
 2497POPC   GL233086  25.292  33.898   9.159
 2497POPC   C1A33087  25.591  33.890   8.752
 2497POPC   D2A33088  25.325  33.975   8.400
 2497POPC   C3A33089  25.589  33.931   8.027
 2497POPC   C4A33090  25.509  34.039   7.623
 2497POPC   C1B33091  25.234  33.556   8.844
 2497POPC   C2B33092  25.065  33.488   8.427
 2497POPC   C3B33093  25.220  33.590   8.032
 2497POPC   C4B33094  25.151  33.694   7.640
 2498POPC   NC333095  41.044   2.793   9.428
 2498POPC   PO433096  40.505   3.159   9.386
 2498POPC   GL133097  40.704   2.896   9.024
 2498POPC   GL233098  40.819   2.547   9.059
 2498POPC   C1A33099  40.664   2.748   8.593
 2498POPC   D2A33100  40.445   2.626   8.204
 2498POPC   C3A33101  40.699   2.745   7.840
 2498POPC   C4A33102  40.763   3.159   7.637
 2498POPC   C1B33103  41.101   2.483   8.726
 2498POPC   C2B33104  40.979   2.431   8.307
 2498POPC   C3B33105  41.180   2.405   7.915
 2498POPC   C4B33106  41.055   2.547   7.518
 2499POPC   NC333107   2.575  28.917   9.581
 2499POPC   PO433108   3.187  29.168   9.542
 2499POPC   GL133109   2.960  29.175   9.161
 2499POPC   GL233110   2.581  29.165   9.136
 2499POPC   C1A33111   2.919  29.325   8.756
 2499POPC   D2A33112   2.942  29.159   8.372
 2499POPC   C3A33113   2.852  29.286   7.973
 2499POPC   C4A33114   3.195  29.048   7.792
 2499POPC   C1B33115   2.515  29.017   8.715
 2499POPC   C2B33116   2.521  28.874   8.300
 2499POPC   C3B33117   2.613  28.821   7.855
 2499POPC   C4B33118   2.352  28.762   7.469
 2500POPC   NC333119  40.394   5.036   9.704
 2500POPC   PO433120  39.748   5.330   9.525
 2500POPC   GL133121  39.839   5.195   9.080
 2500POPC   GL233122  39.942   4.873   9.100
 2500POPC   C1A33123  40.100   5.238   8.711
 2500POPC   D2A33124  40.232   5.061   8.311
 2500POPC   C3A33125  40.354   5.331   7.935
 2500POPC   C4A33126  40.171   5.299   7.507
 2500POPC   C1B33127  39.733   4.884   8.692
 2500POPC   C2B33128  39.685   5.197   8.370
 2500POPC   C3B33129  39.852   5.223   7.987
 2500POPC   C4B33130  39.642   5.276   7.657
 2501POPC   NC333131   5.797  10.515   9.606
 2501POPC   PO433132   5.950   9.814   9.722
 2501POPC   GL133133   5.889  10.110   9.299
 2501POPC   GL233134   5.973  10.463   9.135
 2501POPC   C1A33135   5.875  10.093   8.812
 2501POPC   D2A33136   5.915  10.350   8.435
 2501POPC   C3A33137   5.777  10.252   8.030
 2501POPC   C4A33138   5.853  10.377   7.614
 2501POPC   C1B33139   6.140  10.680   8.781
 2501POPC   C2B33140   6.052  10.902   8.406
 2501POPC   C3B33141   6.213  10.884   8.009
 2501POPC   C4B33142   6.145  10.801   7.590
 2502POPC   NC333143  40.345  38.242   9.547
 2502POPC   PO433144  40.014  38.828   9.531
 2502POPC   GL133145  40.025  38.517   9.243
 2502POPC   GL233146  39.772  38.340   9.142
 2502POPC   C1A33147  40.056  38.600   8.806
 2502POPC   D2A33148  39.927  38.586   8.376
 2502POPC   C3A33149  40.246  38.656   8.055
 2502POPC   C4A33150  40.272  38.776   7.612
 2502POPC   C1B33151  39.843  38.139   8.790
 2502POPC   C2B33152  39.671  38.128   8.392
 2502POPC   C3B33153  39.777  38.273   7.995
 2502POPC   C4B33154  40.095  38.286   7.720
 2503POPC   NC333155   0.556  26.327   9.338
 2503POPC   PO433156   0.858  25.830   9.698
 2503POPC   GL133157   0.493  25.831   9.281
 2503POPC   GL233158   0.114  25.811   9.337
 2503POPC   C1A33159   0.588  25.923   8.798
 2503POPC   D2A33160   0.334  26.146   8.455
 2503POPC   C3A33161   0.384  26.393   8.038
 2503POPC   C4A33162   0.499  26.332   7.577
 2503POPC   C1B33163   0.127  25.764   8.887
 2503POPC   C2B33164   0.044  25.702   8.415
 2503POPC   C3B33165   0.125  25.937   8.022
 2503POPC   C4B33166   0.250  25.880   7.561
 2504POPC   NC333167  17.513  25.468   9.686
 2504POPC   PO433168  17.802  24.946   9.883
 2504POPC   GL133169  17.683  25.090   9.342
 2504POPC   GL233170  17.494  25.409   9.184
 2504POPC   C1A33171  17.476  25.007   8.892
 2504POPC   D2A33172  17.604  25.042   8.472
 2504POPC   C3A33173  17.466  24.990   8.064
 2504POPC   C4A33174  17.621  24.897   7.636
 2504POPC   C1B33175  17.819  25.387   8.806
 2504POPC   C2B33176  17.968  25.385   8.354
 2504POPC   C3B33177  17.949  25.141   7.978
 2504POPC   C4B33178  18.051  25.204   7.548
 2505POPC   NC333179  24.070  32.844   9.468
 2505POPC   PO433180  24.000  32.168   9.500
 2505POPC   GL133181  23.718  32.137   9.147
 2505POPC   GL233182  23.352  32.241   9.212
 2505POPC   C1A33183  23.832  32.102   8.730
 2505POPC   D2A33184  24.089  32.015   8.401
 2505POPC   C3A33185  23.919  32.146   8.032
 2505POPC   C4A33186  23.626  32.069   7.735
 2505POPC   C1B33187  23.429  32.405   8.799
 2505POPC   C2B33188  23.428  32.227   8.380
 2505POPC   C3B33189  23.470  32.454   8.003
 2505POPC   C4B33190  23.561  32.622   7.614
 2506POPC   NC333191   8.504   3.859   9.543
 2506POPC   PO433192   9.024   4.323   9.434
 2506POPC   GL133193   9.104   4.153   9.065
 2506POPC   GL233194   8.780   4.014   9.120
 2506POPC   C1A33195   9.135   4.260   8.639
 2506POPC   D2A33196   8.909   4.530   8.346
 2506POPC   C3A33197   9.130   4.509   7.944
 2506POPC   C4A33198   9.254   4.477   7.522
 2506POPC   C1B33199   8.648   4.202   8.763
 2506POPC   C2B33200   8.628   4.029   8.382
 2506POPC   C3B33201   8.731   4.174   7.991
 2506POPC   C4B33202   8.779   4.317   7.573
 2507POPC   NC333203  30.301  18.117   9.597
 2507POPC   PO433204  29.638  18.309   9.549
 2507POPC   GL133205  29.722  18.306   9.182
 2507POPC   GL233206  30.061  18.346   9.201
 2507POPC   C1A33207  29.587  18.159   8.819
 2507POPC   D2A33208  29.759  18.100   8.429
 2507POPC   C3A33209  29.562  18.166   8.042
 2507POPC   C4A33210  29.704  18.201   7.631
 2507POPC   C1B33211  30.153  18.265   8.789
 2507POPC   C2B33212  30.281  18.107   8.394
 2507POPC   C3B33213  30.090  18.276   8.010
 2507POPC   C4B33214  30.246  18.170   7.603
 2508POPC   NC333215   8.012   5.271   9.334
 2508POPC   PO433216   8.083   4.661   9.407
 2508POPC   GL133217   8.156   4.846   9.065
 2508POPC   GL233218   8.444   5.014   9.139
 2508POPC   C1A33219   8.167   5.019   8.676
 2508POPC   D2A33220   8.096   5.298   8.359
 2508POPC   C3A33221   8.115   4.974   8.090
 2508POPC   C4A33222   8.068   4.921   7.711
 2508POPC   C1B33223   8.610   5.255   8.781
 2508POPC   C2B33224   8.533   5.564   8.497
 2508POPC   C3B33225   8.525   5.441   8.114
 2508POPC   C4B33226   8.544   5.153   7.816
 2509POPC   NC333227  14.270  35.153   9.368
 2509POPC   PO433228  14.150  35.801   9.548
 2509POPC   GL133229  14.389  35.634   9.191
 2509POPC   GL233230  14.679  35.364   9.127
 2509POPC   C1A33231  14.522  35.690   8.782
 2509POPC   D2A33232  14.358  35.780   8.413
 2509POPC   C3A33233  14.442  35.586   8.043
 2509POPC   C4A33234  14.284  35.278   7.809
 2509POPC   C1B33235  14.442  35.201   8.718
 2509POPC   C2B33236  14.339  35.131   8.301
 2509POPC   C3B33237  13.975  34.982   8.080
 2509POPC   C4B33238  14.038  34.799   7.669
 2510POPC   NC333239   8.536  15.543   9.491
 2510POPC   PO433240   9.134  16.021   9.466
 2510POPC   GL133241   9.009  15.953   9.080
 2510POPC   GL233242   8.667  15.941   9.190
 2510POPC   C1A33243   9.151  15.919   8.650
 2510POPC   D2A33244   9.076  16.176   8.300
 2510POPC   C3A33245   9.232  15.939   7.995
 2510POPC   C4A33246   9.146  15.766   7.604
 2510POPC   C1B33247   8.640  15.782   8.787
 2510POPC   C2B33248   8.756  15.687   8.368
 2510POPC   C3B33249   8.701  15.840   7.947
 2510POPC   C4B33250   8.656  15.920   7.501
 2511POPC   NC333251  38.623  40.849   9.557
 2511POPC   PO433252  38.075  40.359   9.599
 2511POPC   GL133253  38.246  40.622   9.220
 2511POPC   GL233254  38.615  40.618   9.108
 2511POPC   C1A33255  38.258  40.592   8.734
 2511POPC   D2A33256  38.305  40.367   8.310
 2511POPC   C3A33257  38.367  40.590   7.903
 2511POPC   C4A33258  38.339  40.465   7.463
 2511POPC   C1B33259  38.677  40.877   8.736
 2511POPC   C2B33260  38.499  40.866   8.319
 2511POPC   C3B33261  38.694  40.990   7.928
 2511POPC   C4B33262  38.494  40.933   7.534
 2512POPC   NC333263  32.243  39.177   9.686
 2512POPC   PO433264  32.723  39.504   9.407
 2512POPC   GL133265  32.380  39.237   9.173
 2512POPC   GL233266  32.067  39.007   9.223
 2512POPC   C1A33267  32.209  39.248   8.750
 2512POPC   D2A33268  32.195  39.155   8.320
 2512POPC   C3A33269  32.196  39.449   7.996
 2512POPC   C4A33270  32.058  39.367   7.596
 2512POPC   C1B33271  31.913  38.840   8.790
 2512POPC   C2B33272  31.854  38.744   8.295
 2512POPC   C3B33273  32.071  38.905   7.879
 2512POPC   C4B33274  32.488  39.105   7.686
 2513POPC   NC333275  32.724  30.124   9.434
 2513POPC   PO433276  33.044  30.730   9.577
 2513POPC   GL133277  32.979  30.530   9.211
 2513POPC   GL233278  32.978  30.854   9.076
 2513POPC   C1A33279  32.923  30.418   8.791
 2513POPC   D2A33280  33.088  30.578   8.414
 2513POPC   C3A33281  32.927  30.463   8.026
 2513POPC   C4A33282  33.081  30.554   7.622
 2513POPC   C1B33283  33.076  31.066   8.693
 2513POPC   C2B33284  32.912  31.052   8.300
 2513POPC   C3B33285  33.185  30.932   7.982
 2513POPC   C4B33286  33.391  30.993   7.611
 2514POPC   NC333287  35.720  15.246   9.393
 2514POPC   PO433288  35.179  14.801   9.213
 2514POPC   GL133289  35.427  15.068   9.006
 2514POPC   GL233290  35.765  14.933   8.958
 2514POPC   C1A33291  35.231  15.240   8.666
 2514POPC   D2A33292  34.970  15.358   8.325
 2514POPC   C3A33293  35.130  15.373   7.923
 2514POPC   C4A33294  35.210  14.957   7.769
 2514POPC   C1B33295  35.739  15.339   8.704
 2514POPC   C2B33296  35.530  15.349   8.286
 2514POPC   C3B33297  35.644  15.207   7.917
 2514POPC   C4B33298  35.933  15.422   7.674
 2515POPC   NC333299  25.319   2.614   9.561
 2515POPC   PO433300  25.738   2.312   9.205
 2515POPC   GL133301  25.347   2.547   9.054
 2515POPC   GL233302  24.979   2.473   9.148
 2515POPC   C1A33303  25.354   2.880   8.757
 2515POPC   D2A33304  25.615   2.860   8.380
 2515POPC   C3A33305  25.474   3.070   8.033
 2515POPC   C4A33306  25.266   3.095   7.654
 2515POPC   C1B33307  24.904   2.620   8.694
 2515POPC   C2B33308  25.133   2.645   8.308
 2515POPC   C3B33309  25.244   2.612   7.856
 2515POPC   C4B33310  25.094   2.685   7.412
 2516POPC   NC333311   5.302  28.062   9.390
 2516POPC   PO433312   4.828  28.365   9.802
 2516POPC   GL133313   4.865  28.353   9.329
 2516POPC   GL233314   4.878  28.023   9.102
 2516POPC   C1A33315   4.990  28.495   8.899
 2516POPC   D2A33316   4.929  28.515   8.443
 2516POPC   C3A33317   5.240  28.503   8.092
 2516POPC   C4A33318   5.351  28.175   7.793
 2516POPC   C1B33319   4.711  28.062   8.696
 2516POPC   C2B33320   4.795  28.031   8.256
 2516POPC   C3B33321   4.835  28.092   7.788
 2516POPC   C4B33322   4.967  27.924   7.378
 2517POPC   NC333323  29.446  17.863   9.482
 2517POPC   PO433324  28.887  17.682   9.489
 2517POPC   GL133325  29.151  17.566   9.134
 2517POPC   GL233326  29.140  17.198   9.099
 2517POPC   C1A33327  29.112  17.588   8.678
 2517POPC   D2A33328  29.249  17.863   8.338
 2517POPC   C3A33329  29.228  17.609   7.984
 2517POPC   C4A33330  28.864  17.334   7.966
 2517POPC   C1B33331  29.314  17.104   8.728
 2517POPC   C2B33332  29.123  17.071   8.342
 2517POPC   C3B33333  29.309  17.107   7.972
 2517POPC   C4B33334  29.358  17.228   7.609
 2518POPC   NC333335  43.280   4.634   9.662
 2518POPC   PO433336  43.007   4.033   9.594
 2518POPC   GL133337  42.924   4.285   9.222
 2518POPC   GL233338  43.185   4.481   9.156
 2518POPC   C1A33339  42.917   4.333   8.760
 2518POPC   D2A33340  43.145   4.261   8.391
 2518POPC   C3A33341  42.887   4.345   8.063
 2518POPC   C4A33342  42.937   4.253   7.649
 2518POPC   C1B33343  43.393   4.631   8.772
 2518POPC   C2B33344  43.570   4.562   8.349
 2518POPC   C3B33345  43.352   4.532   7.969
 2518POPC   C4B33346  43.325   4.553   7.540
 2519POPC   NC333347  18.791   0.228   9.920
 2519POPC   PO433348  18.890  44.618   9.576
 2519POPC   GL133349  19.074  44.725   9.181
 2519POPC   GL233350  19.397  44.883   9.127
 2519POPC   C1A33351  18.913  44.799   8.786
 2519POPC   D2A33352  19.022  44.633   8.386
 2519POPC   C3A33353  18.806  44.606   8.011
 2519POPC   C4A33354  19.040  44.673   7.660
 2519POPC   C1B33355  19.415  44.714   8.698
 2519POPC   C2B33356  19.462  44.866   8.254
 2519POPC   C3B33357  19.524  44.730   7.798
 2519POPC   C4B33358  19.401  44.699   7.308
 2520POPC   NC333359  35.239   6.107   9.511
 2520POPC   PO433360  34.733   5.581   9.680
 2520POPC   GL133361  34.848   5.881   9.291
 2520POPC   GL233362  35.178   5.717   9.165
 2520POPC   C1A33363  34.871   5.989   8.846
 2520POPC   D2A33364  35.060   5.805   8.458
 2520POPC   C3A33365  35.105   6.052   8.070
 2520POPC   C4A33366  35.142   5.837   7.669
 2520POPC   C1B33367  35.415   5.995   8.862
 2520POPC   C2B33368  35.540   6.045   8.441
 2520POPC   C3B33369  35.571   5.806   8.079
 2520POPC   C4B33370  35.696   5.993   7.706
 2521POPC   NC333371  12.354  34.497   9.810
 2521POPC   PO433372  12.938  34.595   9.529
 2521POPC   GL133373  12.824  34.678   9.188
 2521POPC   GL233374  12.474  34.715   9.280
 2521POPC   C1A33375  12.995  34.800   8.817
 2521POPC   D2A33376  12.891  34.651   8.430
 2521POPC   C3A33377  13.134  34.719   8.065
 2521POPC   C4A33378  12.917  34.684   7.706
 2521POPC   C1B33379  12.462  34.688   8.847
 2521POPC   C2B33380  12.383  34.540   8.458
 2521POPC   C3B33381  12.538  34.599   8.043
 2521POPC   C4B33382  12.374  34.649   7.633
 2522POPC   NC333383  31.991   6.518   9.395
 2522POPC   PO433384  32.180   5.793   9.543
 2522POPC   GL133385  32.371   6.023   9.210
 2522POPC   GL233386  32.048   5.989   9.056
 2522POPC   C1A33387  32.447   6.083   8.746
 2522POPC   D2A33388  32.480   5.819   8.355
 2522POPC   C3A33389  32.582   5.952   7.945
 2522POPC   C4A33390  32.281   6.029   7.606
 2522POPC   C1B33391  32.085   5.713   8.689
 2522POPC   C2B33392  31.927   5.640   8.256
 2522POPC   C3B33393  31.793   5.861   7.849
 2522POPC   C4B33394  31.918   5.747   7.395
 2523POPC   NC333395  28.474   5.324   9.550
 2523POPC   PO433396  28.978   4.831   9.476
 2523POPC   GL133397  28.621   4.972   9.177
 2523POPC   GL233398  28.233   5.138   9.133
 2523POPC   C1A33399  28.514   5.019   8.739
 2523POPC   D2A33400  28.272   4.895   8.370
 2523POPC   C3A33401  28.447   5.086   7.984
 2523POPC   C4A33402  28.341   5.479   7.770
 2523POPC   C1B33403  28.055   5.255   8.695
 2523POPC   C2B33404  28.079   5.365   8.223
 2523POPC   C3B33405  27.969   5.104   7.845
 2523POPC   C4B33406  28.119   4.686   7.776
 2524POPC   NC333407  42.752  32.080   9.615
 2524POPC   PO433408  42.103  32.019   9.585
 2524POPC   GL133409  42.366  32.208   9.265
 2524POPC   GL233410  42.221  32.515   9.138
 2524POPC   C1A33411  42.511  32.207   8.835
 2524POPC   D2A33412  42.269  32.346   8.463
 2524POPC   C3A33413  42.444  32.196   8.061
 2524POPC   C4A33414  42.650  32.263   7.671
 2524POPC   C1B33415  41.995  32.690   8.800
 2524POPC   C2B33416  41.821  32.647   8.380
 2524POPC   C3B33417  42.009  32.438   8.014
 2524POPC   C4B33418  42.048  32.492   7.566
 2525POPC   NC333419  12.389  43.088   9.690
 2525POPC   PO433420  12.964  42.960   9.578
 2525POPC   GL133421  12.842  43.054   9.149
 2525POPC   GL233422  13.016  42.772   8.982
 2525POPC   C1A33423  12.970  43.213   8.733
 2525POPC   D2A33424  12.807  43.043   8.352
 2525POPC   C3A33425  12.994  43.165   7.985
 2525POPC   C4A33426  12.842  43.252   7.548
 2525POPC   C1B33427  12.620  42.693   8.751
 2525POPC   C2B33428  12.336  42.826   8.411
 2525POPC   C3B33429  12.411  42.902   8.034
 2525POPC   C4B33430  12.740  42.789   7.760
 2526POPC   NC333431   5.128  30.924   9.389
 2526POPC   PO433432   5.043  30.186   9.563
 2526POPC   GL133433   5.044  30.472   9.179
 2526POPC   GL233434   5.396  30.512   9.067
 2526POPC   C1A33435   4.867  30.453   8.729
 2526POPC   D2A33436   4.908  30.758   8.364
 2526POPC   C3A33437   4.899  30.589   7.915
 2526POPC   C4A33438   5.010  30.653   7.450
 2526POPC   C1B33439   5.320  30.834   8.724
 2526POPC   C2B33440   5.367  31.034   8.291
 2526POPC   C3B33441   5.444  30.874   7.874
 2526POPC   C4B33442   5.377  30.453   7.752
 2527POPC   NC333443  32.346  23.647   9.493
 2527POPC   PO433444  31.811  23.211   9.411
 2527POPC   GL133445  32.068  23.511   9.082
 2527POPC   GL233446  32.073  23.880   9.122
 2527POPC   C1A33447  32.337  23.655   8.702
 2527POPC   D2A33448  32.334  23.838   8.264
 2527POPC   C3A33449  32.362  23.626   7.856
 2527POPC   C4A33450  32.424  23.632   7.371
 2527POPC   C1B33451  31.844  23.806   8.728
 2527POPC   C2B33452  31.803  23.754   8.293
 2527POPC   C3B33453  31.898  23.882   7.862
 2527POPC   C4B33454  31.949  23.619   7.515
 2528POPC   NC333455  27.003  34.968   9.335
 2528POPC   PO433456  27.144  34.315   9.589
 2528POPC   GL133457  26.934  34.246   9.209
 2528POPC   GL233458  26.768  34.551   9.086
 2528POPC   C1A33459  27.051  34.258   8.780
 2528POPC   D2A33460  26.801  34.264   8.411
 2528POPC   C3A33461  26.936  34.355   7.997
 2528POPC   C4A33462  26.639  34.294   7.695
 2528POPC   C1B33463  26.798  34.732   8.670
 2528POPC   C2B33464  26.578  34.855   8.303
 2528POPC   C3B33465  26.631  34.903   7.861
 2528POPC   C4B33466  26.937  34.727   7.567
 2529POPC   NC333467  13.384  20.282   9.533
 2529POPC   PO433468  12.684  20.545   9.468
 2529POPC   GL133469  12.801  20.638   9.076
 2529POPC   GL233470  13.003  20.302   9.123
 2529POPC   C1A33471  12.745  20.861   8.669
 2529POPC   D2A33472  12.460  20.804   8.312
 2529POPC   C3A33473  12.652  20.720   7.929
 2529POPC   C4A33474  12.881  21.081   7.848
 2529POPC   C1B33475  12.803  20.297   8.722
 2529POPC   C2B33476  12.842  20.459   8.344
 2529POPC   C3B33477  12.862  20.236   7.998
 2529POPC   C4B33478  12.937  20.351   7.621
 2530POPC   NC333479   4.402   3.914   9.467
 2530POPC   PO433480   4.064   3.372   9.579
 2530POPC   GL133481   4.124   3.420   9.164
 2530POPC   GL233482   4.449   3.566   9.104
 2530POPC   C1A33483   4.099   3.398   8.743
 2530POPC   D2A33484   4.343   3.533   8.410
 2530POPC   C3A33485   4.215   3.341   8.042
 2530POPC   C4A33486   4.240   3.546   7.678
 2530POPC   C1B33487   4.691   3.707   8.774
 2530POPC   C2B33488   4.814   3.810   8.389
 2530POPC   C3B33489   4.648   3.690   7.974
 2530POPC   C4B33490   4.573   3.931   7.562
 2531POPC   NC333491  20.550  27.340   9.553
 2531POPC   PO433492  20.442  27.935   9.260
 2531POPC   GL133493  20.677  27.639   9.094
 2531POPC   GL233494  20.391  27.402   9.060
 2531POPC   C1A33495  20.599  27.669   8.640
 2531POPC   D2A33496  20.268  27.545   8.360
 2531POPC   C3A33497  20.423  27.654   7.987
 2531POPC   C4A33498  20.817  27.598   7.813
 2531POPC   C1B33499  20.561  27.171   8.675
 2531POPC   C2B33500  20.702  27.267   8.242
 2531POPC   C3B33501  20.509  27.175   7.843
 2531POPC   C4B33502  20.343  27.350   7.469
 2532POPC   NC333503   0.290  38.694   9.216
 2532POPC   PO433504   0.716  38.262   9.492
 2532POPC   GL133505   0.560  38.265   9.078
 2532POPC   GL233506   0.226  38.075   9.030
 2532POPC   C1A33507   0.649  38.023   8.701
 2532POPC   D2A33508   0.574  38.015   8.268
 2532POPC   C3A33509   0.412  38.364   8.119
 2532POPC   C4A33510   0.531  38.562   7.749
 2532POPC   C1B33511   0.215  38.316   8.666
 2532POPC   C2B33512   0.016  38.624   8.407
 2532POPC   C3B33513   0.083  38.742   7.992
 2532POPC   C4B33514   0.050  38.376   7.728
 2533POPC   NC333515   3.792  23.813   9.658
 2533POPC   PO433516   3.306  23.371   9.746
 2533POPC   GL133517   3.454  23.592   9.320
 2533POPC   GL233518   3.759  23.474   9.211
 2533POPC   C1A33519   3.472  23.764   8.866
 2533POPC   D2A33520   3.218  23.630   8.508
 2533POPC   C3A33521   3.357  23.734   8.095
 2533POPC   C4A33522   3.490  23.857   7.711
 2533POPC   C1B33523   3.896  23.449   8.802
 2533POPC   C2B33524   4.065  23.496   8.411
 2533POPC   C3B33525   3.859  23.492   8.024
 2533POPC   C4B33526   3.955  23.627   7.634
 2534POPC   NC333527  13.282  24.317   9.550
 2534POPC   PO433528  12.614  24.267   9.336
 2534POPC   GL133529  12.981  24.391   9.121
 2534POPC   GL233530  12.948  24.741   9.227
 2534POPC   C1A33531  12.881  24.364   8.702
 2534POPC   D2A33532  12.499  24.210   8.517
 2534POPC   C3A33533  12.565  24.323   8.115
 2534POPC   C4A33534  12.630  24.489   7.730
 2534POPC   C1B33535  12.919  24.876   8.781
 2534POPC   C2B33536  12.856  24.730   8.341
 2534POPC   C3B33537  12.983  24.789   7.939
 2534POPC   C4B33538  13.115  24.696   7.508
 2535POPC   NC333539  11.405  40.553   9.832
 2535POPC   PO433540  11.090  41.004   9.452
 2535POPC   GL133541  11.257  40.717   9.113
 2535POPC   GL233542  11.519  40.464   9.171
 2535POPC   C1A33543  11.227  40.456   8.742
 2535POPC   D2A33544  11.453  40.444   8.351
 2535POPC   C3A33545  11.263  40.684   8.022
 2535POPC   C4A33546  11.381  41.093   7.900
 2535POPC   C1B33547  11.688  40.702   8.759
 2535POPC   C2B33548  11.689  40.892   8.290
 2535POPC   C3B33549  11.746  40.715   7.835
 2535POPC   C4B33550  11.840  40.620   7.365
 2536POPC   NC333551  36.261  19.389   9.329
 2536POPC   PO433552  35.866  19.905   9.419
 2536POPC   GL133553  35.996  19.769   9.044
 2536POPC   GL233554  36.343  19.806   9.069
 2536POPC   C1A33555  36.072  19.975   8.657
 2536POPC   D2A33556  35.801  20.006   8.334
 2536POPC   C3A33557  36.098  20.046   8.014
 2536POPC   C4A33558  36.127  19.862   7.615
 2536POPC   C1B33559  36.318  19.530   8.690
 2536POPC   C2B33560  36.435  19.699   8.280
 2536POPC   C3B33561  36.465  19.564   7.843
 2536POPC   C4B33562  36.442  19.606   7.340
 2537POPC   NC333563  40.688  36.630   9.382
 2537POPC   PO433564  41.188  36.986   9.359
 2537POPC   GL133565  40.967  36.874   9.022
 2537POPC   GL233566  40.611  36.984   8.979
 2537POPC   C1A33567  40.824  36.709   8.643
 2537POPC   D2A33568  40.616  36.940   8.345
 2537POPC   C3A33569  40.866  36.881   8.002
 2537POPC   C4A33570  40.833  36.649   7.640
 2537POPC   C1B33571  40.822  37.251   8.695
 2537POPC   C2B33572  40.929  37.428   8.301
 2537POPC   C3B33573  40.797  37.374   7.876
 2537POPC   C4B33574  40.504  37.076   7.660
 2538POPC   NC333575  41.460  16.108   9.446
 2538POPC   PO433576  41.367  16.752   9.480
 2538POPC   GL133577  41.636  16.694   9.145
 2538POPC   GL233578  41.843  16.372   9.196
 2538POPC   C1A33579  41.597  16.893   8.750
 2538POPC   D2A33580  41.538  16.659   8.398
 2538POPC   C3A33581  41.596  16.908   8.097
 2538POPC   C4A33582  41.605  16.859   7.673
 2538POPC   C1B33583  41.679  16.331   8.774
 2538POPC   C2B33584  41.775  16.200   8.353
 2538POPC   C3B33585  41.771  16.440   7.946
 2538POPC   C4B33586  41.783  16.440   7.477
 2539POPC   NC333587  42.041  24.547   9.584
 2539POPC   PO433588  42.586  24.250   9.823
 2539POPC   GL133589  42.447  24.422   9.299
 2539POPC   GL233590  42.114  24.291   9.141
 2539POPC   C1A33591  42.398  24.623   8.801
 2539POPC   D2A33592  42.325  24.867   8.351
 2539POPC   C3A33593  42.539  24.792   7.910
 2539POPC   C4A33594  42.654  24.373   7.704
 2539POPC   C1B33595  42.131  24.206   8.695
 2539POPC   C2B33596  42.069  24.396   8.310
 2539POPC   C3B33597  42.155  24.475   7.878
 2539POPC   C4B33598  41.972  24.253   7.525
 2540POPC   NC333599   2.147   2.210   9.476
 2540POPC   PO433600   2.164   1.450   9.425
 2540POPC   GL133601   2.119   1.818   9.121
 2540POPC   GL233602   2.334   2.155   9.021
 2540POPC   C1A33603   1.846   1.800   8.733
 2540POPC   D2A33604   1.530   1.978   8.448
 2540POPC   C3A33605   1.712   2.047   8.058
 2540POPC   C4A33606   1.862   1.988   7.650
 2540POPC   C1B33607   1.991   2.313   8.760
 2540POPC   C2B33608   1.979   2.424   8.318
 2540POPC   C3B33609   2.141   2.323   7.895
 2540POPC   C4B33610   2.205   2.297   7.423
 2541POPC   NC333611  16.210  19.477   9.413
 2541POPC   PO433612  15.623  19.323   9.712
 2541POPC   GL133613  15.798  19.032   9.306
 2541POPC   GL233614  15.850  19.234   9.069
 2541POPC   C1A33615  15.911  18.806   8.823
 2541POPC   D2A33616  16.168  18.717   8.416
 2541POPC   C3A33617  16.113  18.976   8.020
 2541POPC   C4A33618  15.799  19.087   7.719
 2541POPC   C1B33619  15.549  19.146   8.705
 2541POPC   C2B33620  15.423  19.459   8.389
 2541POPC   C3B33621  15.621  19.487   7.973
 2541POPC   C4B33622  15.682  19.541   7.528
 2542POPC   NC333623  38.059  33.550   9.542
 2542POPC   PO433624  37.498  33.971   9.490
 2542POPC   GL133625  37.656  33.891   9.128
 2542POPC   GL233626  37.987  33.897   9.175
 2542POPC   C1A33627  37.704  33.571   8.836
 2542POPC   D2A33628  37.781  33.415   8.453
 2542POPC   C3A33629  37.705  33.608   8.088
 2542POPC   C4A33630  37.698  33.783   7.680
 2542POPC   C1B33631  38.130  34.023   8.811
 2542POPC   C2B33632  38.072  33.871   8.407
 2542POPC   C3B33633  37.970  34.046   8.015
 2542POPC   C4B33634  38.181  33.968   7.654
 2543POPC   NC333635  10.053  15.052   9.510
 2543POPC   PO433636  10.680  15.373   9.589
 2543POPC   GL133637  10.517  15.167   9.269
 2543POPC   GL233638  10.250  15.410   9.198
 2543POPC   C1A33639  10.685  14.926   8.928
 2543POPC   D2A33640  10.517  14.743   8.564
 2543POPC   C3A33641  10.582  14.826   8.137
 2543POPC   C4A33642  10.529  14.966   7.701
 2543POPC   C1B33643  10.314  15.245   8.803
 2543POPC   C2B33644  10.543  15.241   8.436
 2543POPC   C3B33645  10.346  15.280   8.044
 2543POPC   C4B33646  10.420  15.496   7.646
 2544POPC   NC333647  16.263  16.943   9.460
 2544POPC   PO433648  16.979  16.665   9.583
 2544POPC   GL133649  16.675  16.710   9.280
 2544POPC   GL233650  16.741  17.066   9.226
 2544POPC   C1A33651  16.515  16.660   8.870
 2544POPC   D2A33652  16.751  16.673   8.488
 2544POPC   C3A33653  16.572  16.686   8.070
 2544POPC   C4A33654  16.685  16.760   7.644
 2544POPC   C1B33655  16.639  17.148   8.795
 2544POPC   C2B33656  16.881  17.156   8.416
 2544POPC   C3B33657  16.890  17.072   8.005
 2544POPC   C4B33658  17.011  17.314   7.679
 2545POPC   NC333659  38.088  23.769   9.558
 2545POPC   PO433660  37.349  23.757   9.525
 2545POPC   GL133661  37.497  23.661   9.125
 2545POPC   GL233662  37.832  23.709   9.127
 2545POPC   C1A33663  37.469  23.827   8.705
 2545POPC   D2A33664  37.342  23.596   8.361
 2545POPC   C3A33665  37.317  23.721   7.967
 2545POPC   C4A33666  37.356  23.514   7.584
 2545POPC   C1B33667  37.861  23.515   8.738
 2545POPC   C2B33668  37.854  23.673   8.312
 2545POPC   C3B33669  37.758  23.478   7.898
 2545POPC   C4B33670  37.852  23.216   7.539
 2546POPC   NC333671  32.356  17.936   9.746
 2546POPC   PO433672  31.965  18.411   9.574
 2546POPC   GL133673  32.264  18.407   9.259
 2546POPC   GL233674  32.388  18.061   9.229
 2546POPC   C1A33675  32.394  18.543   8.845
 2546POPC   D2A33676  32.524  18.618   8.416
 2546POPC   C3A33677  32.180  18.559   8.140
 2546POPC   C4A33678  32.203  18.324   7.775
 2546POPC   C1B33679  32.045  18.104   8.925
 2546POPC   C2B33680  32.150  18.226   8.528
 2546POPC   C3B33681  32.205  17.990   8.160
 2546POPC   C4B33682  32.072  17.844   7.771
 2547POPC   NC333683  22.542  30.588   9.438
 2547POPC   PO433684  21.904  30.822   9.416
 2547POPC   GL133685  22.197  30.753   9.075
 2547POPC   GL233686  22.350  30.434   8.946
 2547POPC   C1A33687  21.963  30.673   8.696
 2547POPC   D2A33688  21.693  30.707   8.348
 2547POPC   C3A33689  21.971  30.681   8.021
 2547POPC   C4A33690  21.969  30.920   7.690
 2547POPC   C1B33691  22.473  30.762   8.617
 2547POPC   C2B33692  22.366  30.977   8.221
 2547POPC   C3B33693  22.477  30.765   7.831
 2547POPC   C4B33694  22.372  30.324   7.769
 2548POPC   NC333695  23.551  33.450   9.323
 2548POPC   PO433696  23.743  34.067   9.588
 2548POPC   GL133697  23.636  33.959   9.183
 2548POPC   GL233698  23.946  33.770   9.118
 2548POPC   C1A33699  23.508  33.800   8.757
 2548POPC   D2A33700  23.572  33.533   8.393
 2548POPC   C3A33701  23.636  33.804   8.022
 2548POPC   C4A33702  23.460  34.011   7.638
 2548POPC   C1B33703  24.172  33.569   8.775
 2548POPC   C2B33704  24.048  33.720   8.407
 2548POPC   C3B33705  23.997  33.422   8.096
 2548POPC   C4B33706  23.925  33.552   7.700
 2549POPC   NC333707  23.297  11.805   9.669
 2549POPC   PO433708  23.862  12.183   9.654
 2549POPC   GL133709  23.908  12.170   9.201
 2549POPC   GL233710  23.695  11.901   9.190
 2549POPC   C1A33711  23.850  12.107   8.734
 2549POPC   D2A33712  23.982  12.111   8.292
 2549POPC   C3A33713  23.651  11.974   7.991
 2549POPC   C4A33714  23.624  12.151   7.531
 2549POPC   C1B33715  23.943  11.639   8.892
 2549POPC   C2B33716  23.843  11.636   8.457
 2549POPC   C3B33717  24.033  11.652   8.045
 2549POPC   C4B33718  23.777  11.640   7.660
 2550POPC   NC333719  21.402  21.194   9.463
 2550POPC   PO433720  21.608  20.478   9.455
 2550POPC   GL133721  21.407  20.752   9.155
 2550POPC   GL233722  21.645  21.024   9.054
 2550POPC   C1A33723  21.184  20.656   8.773
 2550POPC   D2A33724  21.291  20.719   8.350
 2550POPC   C3A33725  21.217  20.568   7.940
 2550POPC   C4A33726  21.288  20.744   7.505
 2550POPC   C1B33727  21.710  20.814   8.669
 2550POPC   C2B33728  21.785  20.752   8.217
 2550POPC   C3B33729  21.735  20.629   7.768
 2550POPC   C4B33730  21.755  20.626   7.294
 2551POPC   NC333731  37.104  18.858   9.349
 2551POPC   PO433732  36.427  18.721   9.585
 2551POPC   GL133733  36.588  18.969   9.174
 2551POPC   GL233734  36.904  19.150   8.980
 2551POPC   C1A33735  36.499  19.010   8.729
 2551POPC   D2A33736  36.579  18.772   8.389
 2551POPC   C3A33737  36.802  19.018   8.110
 2551POPC   C4A33738  36.758  18.785   7.759
 2551POPC   C1B33739  36.818  19.460   8.630
 2551POPC   C2B33740  36.938  19.527   8.212
 2551POPC   C3B33741  37.272  19.262   8.094
 2551POPC   C4B33742  37.188  19.041   7.749
 2552POPC   NC333743   1.180  13.035   9.574
 2552POPC   PO433744   1.853  12.903   9.359
 2552POPC   GL133745   1.432  12.988   9.133
 2552POPC   GL233746   1.210  12.725   9.146
 2552POPC   C1A33747   1.359  12.815   8.655
 2552POPC   D2A33748   1.225  12.487   8.360
 2552POPC   C3A33749   1.423  12.643   7.980
 2552POPC   C4A33750   1.311  12.912   7.656
 2552POPC   C1B33751   0.925  12.662   8.810
 2552POPC   C2B33752   0.902  12.871   8.386
 2552POPC   C3B33753   0.920  12.671   7.950
 2552POPC   C4B33754   0.911  12.588   7.496
 2553POPC   NC333755  37.152   7.965   9.442
 2553POPC   PO433756  36.829   7.368   9.503
 2553POPC   GL133757  36.922   7.363   9.129
 2553POPC   GL233758  36.924   7.704   9.080
 2553POPC   C1A33759  36.801   7.319   8.749
 2553POPC   D2A33760  37.039   7.250   8.455
 2553POPC   C3A33761  36.851   7.231   8.141
 2553POPC   C4A33762  36.821   7.216   7.766
 2553POPC   C1B33763  36.982   7.827   8.679
 2553POPC   C2B33764  36.824   7.723   8.291
 2553POPC   C3B33765  36.987   7.713   7.891
 2553POPC   C4B33766  37.403   7.811   7.824
 2554POPC   NC333767   2.320   0.963   9.314
 2554POPC   PO433768   2.798   1.323   9.615
 2554POPC   GL133769   2.735   1.245   9.184
 2554POPC   GL233770   2.870   0.910   9.206
 2554POPC   C1A33771   2.663   1.389   8.750
 2554POPC   D2A33772   2.734   1.605   8.345
 2554POPC   C3A33773   2.628   1.376   7.986
 2554POPC   C4A33774   2.806   1.171   7.631
 2554POPC   C1B33775   2.729   0.876   8.786
 2554POPC   C2B33776   2.782   1.064   8.400
 2554POPC   C3B33777   2.836   0.881   8.060
 2554POPC   C4B33778   2.933   0.701   7.703
 2555POPC   NC333779   3.911  22.230   9.493
 2555POPC   PO433780   3.687  21.643   9.349
 2555POPC   GL133781   3.744  22.056   9.010
 2555POPC   GL233782   3.598  22.428   9.052
 2555POPC   C1A33783   3.591  22.165   8.538
 2555POPC   D2A33784   3.205  22.067   8.200
 2555POPC   C3A33785   3.349  21.817   7.828
 2555POPC   C4A33786   3.740  21.837   7.581
 2555POPC   C1B33787   3.281  22.525   8.696
 2555POPC   C2B33788   3.390  22.551   8.225
 2555POPC   C3B33789   3.419  22.343   7.802
 2555POPC   C4B33790   3.407  22.549   7.390
 2556POPC   NC333791  21.526  17.900   9.424
 2556POPC   PO433792  21.279  18.512   9.446
 2556POPC   GL133793  21.172  18.272   9.117
 2556POPC   GL233794  21.096  17.897   9.120
 2556POPC   C1A33795  21.298  18.497   8.752
 2556POPC   D2A33796  21.580  18.417   8.419
 2556POPC   C3A33797  21.397  18.426   8.027
 2556POPC   C4A33798  21.583  18.540   7.657
 2556POPC   C1B33799  21.265  17.994   8.698
 2556POPC   C2B33800  21.056  18.225   8.379
 2556POPC   C3B33801  20.967  18.121   7.970
 2556POPC   C4B33802  21.055  18.146   7.531
 2557POPC   NC333803   7.885  33.234   9.501
 2557POPC   PO433804   8.370  32.794   9.471
 2557POPC   GL133805   8.161  33.001   9.134
 2557POPC   GL233806   7.783  32.902   9.119
 2557POPC   C1A33807   8.374  33.111   8.758
 2557POPC   D2A33808   8.609  33.088   8.387
 2557POPC   C3A33809   8.370  33.112   7.986
 2557POPC   C4A33810   8.379  33.358   7.582
 2557POPC   C1B33811   7.847  33.182   8.770
 2557POPC   C2B33812   8.019  33.122   8.377
 2557POPC   C3B33813   7.839  33.078   7.984
 2557POPC   C4B33814   7.866  33.292   7.595
 2558POPC   NC333815  21.058   3.798   9.481
 2558POPC   PO433816  21.438   3.272   9.539
 2558POPC   GL133817  21.415   3.470   9.139
 2558POPC   GL233818  21.226   3.198   8.990
 2558POPC   C1A33819  21.573   3.409   8.681
 2558POPC   D2A33820  21.412   3.327   8.259
 2558POPC   C3A33821  21.523   3.687   8.002
 2558POPC   C4A33822  21.577   3.806   7.585
 2558POPC   C1B33823  21.088   3.646   8.805
 2558POPC   C2B33824  20.977   3.789   8.378
 2558POPC   C3B33825  20.986   3.548   7.988
 2558POPC   C4B33826  21.264   3.376   7.679
 2559POPC   NC333827   6.354   4.935   9.282
 2559POPC   PO433828   6.891   5.486   9.360
 2559POPC   GL133829   6.719   5.196   9.035
 2559POPC   GL233830   6.345   5.230   8.887
 2559POPC   C1A33831   6.725   5.013   8.612
 2559POPC   D2A33832   6.382   4.891   8.346
 2559POPC   C3A33833   6.305   5.059   7.930
 2559POPC   C4A33834   6.716   5.025   7.830
 2559POPC   C1B33835   6.602   5.513   8.666
 2559POPC   C2B33836   6.487   5.412   8.286
 2559POPC   C3B33837   6.615   5.506   7.918
 2559POPC   C4B33838   6.513   5.356   7.499
 2560POPC   NC333839  18.794  33.260   9.477
 2560POPC   PO433840  19.454  33.013   9.457
 2560POPC   GL133841  19.145  33.065   9.089
 2560POPC   GL233842  18.832  32.877   9.127
 2560POPC   C1A33843  19.035  32.855   8.663
 2560POPC   D2A33844  19.086  32.705   8.245
 2560POPC   C3A33845  19.058  33.022   7.918
 2560POPC   C4A33846  19.253  33.281   7.604
 2560POPC   C1B33847  18.731  33.225   8.822
 2560POPC   C2B33848  18.838  33.383   8.405
 2560POPC   C3B33849  18.736  33.426   7.961
 2560POPC   C4B33850  18.761  33.216   7.535
 2561POPC   NC333851   7.818  36.789   9.621
 2561POPC   PO433852   7.243  37.085   9.521
 2561POPC   GL133853   7.551  37.048   9.218
 2561POPC   GL233854   7.256  36.994   9.009
 2561POPC   C1A33855   7.722  37.054   8.807
 2561POPC   D2A33856   7.615  36.918   8.412
 2561POPC   C3A33857   7.715  37.161   8.039
 2561POPC   C4A33858   7.528  37.031   7.660
 2561POPC   C1B33859   7.402  36.628   8.809
 2561POPC   C2B33860   7.303  36.463   8.386
 2561POPC   C3B33861   7.305  36.729   8.030
 2561POPC   C4B33862   7.147  36.638   7.619
 2562POPC   NC333863  16.301  32.070   9.270
 2562POPC   PO433864  16.026  32.572   9.550
 2562POPC   GL133865  15.889  32.382   9.151
 2562POPC   GL233866  15.770  32.031   9.138
 2562POPC   C1A33867  15.800  32.426   8.702
 2562POPC   D2A33868  15.588  32.572   8.314
 2562POPC   C3A33869  15.863  32.439   7.967
 2562POPC   C4A33870  16.197  32.228   7.807
 2562POPC   C1B33871  15.702  31.844   8.752
 2562POPC   C2B33872  15.622  32.042   8.367
 2562POPC   C3B33873  15.783  31.910   7.988
 2562POPC   C4B33874  15.659  31.877   7.607
 2563POPC   NC333875  41.297   8.044   9.552
 2563POPC   PO433876  40.595   8.187   9.435
 2563POPC   GL133877  40.711   8.110   9.066
 2563POPC   GL233878  41.068   8.133   9.065
 2563POPC   C1A33879  40.716   8.375   8.700
 2563POPC   D2A33880  40.748   8.257   8.282
 2563POPC   C3A33881  40.865   8.515   7.921
 2563POPC   C4A33882  40.861   8.376   7.478
 2563POPC   C1B33883  40.935   7.919   8.658
 2563POPC   C2B33884  40.983   7.801   8.242
 2563POPC   C3B33885  40.923   8.018   7.848
 2563POPC   C4B33886  40.844   7.855   7.408
 2564POPC   NC333887  33.420  41.232   9.835
 2564POPC   PO433888  33.877  41.687   9.525
 2564POPC   GL133889  33.681  41.540   9.170
 2564POPC   GL233890  33.916  41.240   9.083
 2564POPC   C1A33891  33.535  41.479   8.755
 2564POPC   D2A33892  33.260  41.441   8.413
 2564POPC   C3A33893  33.421  41.399   7.991
 2564POPC   C4A33894  33.581  41.743   7.775
 2564POPC   C1B33895  34.033  41.606   8.806
 2564POPC   C2B33896  33.882  41.646   8.387
 2564POPC   C3B33897  33.948  41.490   8.000
 2564POPC   C4B33898  34.217  41.669   7.726
 2565POPC   NC333899   9.585  19.840   9.856
 2565POPC   PO433900  10.165  19.890   9.642
 2565POPC   GL133901   9.836  20.103   9.402
 2565POPC   GL233902   9.645  19.907   9.233
 2565POPC   C1A33903   9.916  20.125   8.896
 2565POPC   D2A33904  10.070  19.811   8.624
 2565POPC   C3A33905  10.030  19.827   8.191
 2565POPC   C4A33906   9.935  19.549   7.839
 2565POPC   C1B33907   9.580  19.714   8.845
 2565POPC   C2B33908   9.671  19.542   8.469
 2565POPC   C3B33909   9.539  19.727   8.114
 2565POPC   C4B33910   9.366  19.588   7.764
 2566POPC   NC333911   7.190  26.457   9.793
 2566POPC   PO433912   7.192  27.068   9.467
 2566POPC   GL133913   7.420  27.004   9.091
 2566POPC   GL233914   7.363  26.630   9.013
 2566POPC   C1A33915   7.663  26.893   8.708
 2566POPC   D2A33916   7.430  26.725   8.379
 2566POPC   C3A33917   7.587  26.794   7.984
 2566POPC   C4A33918   7.771  26.502   7.677
 2566POPC   C1B33919   7.098  26.881   8.725
 2566POPC   C2B33920   6.855  26.821   8.388
 2566POPC   C3B33921   7.066  26.773   8.001
 2566POPC   C4B33922   7.282  26.667   7.584
 2567POPC   NC333923  17.857  34.031   9.399
 2567POPC   PO433924  18.427  33.595   9.448
 2567POPC   GL133925  18.168  33.716   9.134
 2567POPC   GL233926  18.277  34.051   9.102
 2567POPC   C1A33927  18.105  33.666   8.707
 2567POPC   D2A33928  18.326  33.530   8.344
 2567POPC   C3A33929  18.155  33.569   7.932
 2567POPC   C4A33930  18.425  33.597   7.606
 2567POPC   C1B33931  18.106  34.177   8.738
 2567POPC   C2B33932  18.309  34.062   8.393
 2567POPC   C3B33933  18.491  33.916   8.045
 2567POPC   C4B33934  18.209  34.037   7.695
 2568POPC   NC333935  41.532   3.646   9.613
 2568POPC   PO433936  42.090   3.352   9.623
 2568POPC   GL133937  41.782   3.388   9.196
 2568POPC   GL233938  41.444   3.544   9.137
 2568POPC   C1A33939  41.616   3.288   8.738
 2568POPC   D2A33940  41.539   3.055   8.354
 2568POPC   C3A33941  41.610   3.235   7.965
 2568POPC   C4A33942  41.917   3.497   7.802
 2568POPC   C1B33943  41.542   3.817   8.804
 2568POPC   C2B33944  41.319   3.977   8.441
 2568POPC   C3B33945  41.108   3.968   8.065
 2568POPC   C4B33946  41.412   3.879   7.753
 2569POPC   NC333947  11.876  27.158   9.582
 2569POPC   PO433948  12.512  26.734   9.642
 2569POPC   GL133949  12.317  26.659   9.108
 2569POPC   GL233950  12.087  26.972   8.993
 2569POPC   C1A33951  12.349  26.654   8.634
 2569POPC   D2A33952  12.313  26.817   8.180
 2569POPC   C3A33953  12.023  26.609   7.863
 2569POPC   C4A33954  11.788  26.748   7.485
 2569POPC   C1B33955  12.280  27.286   8.706
 2569POPC   C2B33956  12.393  27.482   8.310
 2569POPC   C3B33957  12.475  27.252   7.917
 2569POPC   C4B33958  12.464  26.841   7.678
 2570POPC   NC333959  12.277  39.511   9.508
 2570POPC   PO433960  11.907  38.968   9.601
 2570POPC   GL133961  12.006  39.120   9.192
 2570POPC   GL233962  12.299  39.202   9.123
 2570POPC   C1A33963  11.914  39.330   8.779
 2570POPC   D2A33964  11.901  39.136   8.351
 2570POPC   C3A33965  11.979  39.368   7.992
 2570POPC   C4A33966  12.062  39.169   7.600
 2570POPC   C1B33967  12.425  39.373   8.754
 2570POPC   C2B33968  12.309  39.526   8.367
 2570POPC   C3B33969  12.489  39.472   7.965
 2570POPC   C4B33970  12.448  39.491   7.518
 2571POPC   NC333971  10.254   1.717   9.467
 2571POPC   PO433972  10.599   2.332   9.534
 2571POPC   GL133973  10.455   2.113   9.134
 2571POPC   GL233974  10.588   1.776   9.069
 2571POPC   C1A33975  10.421   2.245   8.683
 2571POPC   D2A33976  10.312   2.183   8.224
 2571POPC   C3A33977  10.559   2.026   7.855
 2571POPC   C4A33978  10.645   2.221   7.431
 2571POPC   C1B33979  10.327   1.695   8.720
 2571POPC   C2B33980  10.446   1.662   8.290
 2571POPC   C3B33981  10.235   1.596   7.901
 2571POPC   C4B33982  10.306   1.454   7.482
 2572POPC   NC333983  30.535   9.241   9.560
 2572POPC   PO433984  30.972   8.776   9.570
 2572POPC   GL133985  30.774   8.929   9.210
 2572POPC   GL233986  31.055   9.054   9.105
 2572POPC   C1A33987  30.676   9.028   8.756
 2572POPC   D2A33988  30.482   8.812   8.413
 2572POPC   C3A33989  30.599   8.904   8.000
 2572POPC   C4A33990  30.801   8.670   7.653
 2572POPC   C1B33991  31.193   8.973   8.721
 2572POPC   C2B33992  30.994   8.908   8.351
 2572POPC   C3B33993  31.113   8.954   7.947
 2572POPC   C4B33994  31.252   9.330   7.803
 2573POPC   NC333995   5.913  27.275   9.475
 2573POPC   PO433996   5.684  27.902   9.573
 2573POPC   GL133997   5.738  27.709   9.202
 2573POPC   GL233998   6.080  27.714   9.218
 2573POPC   C1A33999   5.778  27.517   8.805
 2573POPC   D2A34000   5.844  27.780   8.438
 2573POPC   C3A34001   5.706  27.664   8.046
 2573POPC   C4A34002   5.876  27.529   7.662
 2573POPC   C1B34003   6.249  27.814   8.819
 2573POPC   C2B34004   6.399  27.821   8.399
 2573POPC   C3B34005   6.196  27.901   8.000
 2573POPC   C4B34006   6.287  27.871   7.577
 2574POPC   NC334007  22.553  21.583   9.486
 2574POPC   PO434008  21.891  21.292   9.440
 2574POPC   GL134009  22.013  21.435   9.067
 2574POPC   GL234010  22.338  21.559   9.033
 2574POPC   C1A34011  21.844  21.327   8.705
 2574POPC   D2A34012  21.973  21.293   8.296
 2574POPC   C3A34013  21.995  21.688   8.057
 2574POPC   C4A34014  21.941  21.346   7.778
 2574POPC   C1B34015  22.277  21.586   8.577
 2574POPC   C2B34016  22.449  21.469   8.156
 2574POPC   C3B34017  22.382  21.604   7.728
 2574POPC   C4B34018  22.425  21.921   7.401
 2575POPC   NC334019  13.904  42.205   9.301
 2575POPC   PO434020  13.398  42.620   9.288
 2575POPC   GL134021  13.612  42.527   8.994
 2575POPC   GL234022  13.888  42.709   9.101
 2575POPC   C1A34023  13.650  42.226   8.693
 2575POPC   D2A34024  13.513  42.207   8.302
 2575POPC   C3A34025  13.753  42.227   7.960
 2575POPC   C4A34026  13.648  42.544   7.718
 2575POPC   C1B34027  14.002  42.628   8.701
 2575POPC   C2B34028  13.982  42.427   8.360
 2575POPC   C3B34029  14.040  42.695   8.023
 2575POPC   C4B34030  14.149  42.464   7.689
 2576POPC   NC334031  15.229  15.519   9.469
 2576POPC   PO434032  15.074  16.248   9.539
 2576POPC   GL134033  15.216  15.952   9.230
 2576POPC   GL234034  14.921  15.753   9.125
 2576POPC   C1A34035  15.411  15.718   8.866
 2576POPC   D2A34036  15.469  15.493   8.448
 2576POPC   C3A34037  15.399  15.708   8.073
 2576POPC   C4A34038  15.319  16.081   7.834
 2576POPC   C1B34039  15.041  16.044   8.766
 2576POPC   C2B34040  15.062  16.044   8.321
 2576POPC   C3B34041  14.878  16.287   7.962
 2576POPC   C4B34042  14.801  16.049   7.576
 2577POPC   NC334043  17.453  14.945   9.512
 2577POPC   PO434044  17.248  15.568   9.394
 2577POPC   GL134045  17.379  15.297   9.054
 2577POPC   GL234046  17.669  15.096   9.064
 2577POPC   C1A34047  17.423  15.143   8.601
 2577POPC   D2A34048  17.393  15.000   8.164
 2577POPC   C3A34049  17.558  15.264   7.859
 2577POPC   C4A34050  17.602  15.159   7.451
 2577POPC   C1B34051  17.893  15.301   8.740
 2577POPC   C2B34052  17.888  15.185   8.288
 2577POPC   C3B34053  17.899  14.909   7.909
 2577POPC   C4B34054  17.506  14.704   7.711
 2578POPC   NC334055  38.399  40.017   9.631
 2578POPC   PO434056  38.907  40.447   9.553
 2578POPC   GL134057  38.655  40.125   9.198
 2578POPC   GL234058  38.364  39.858   9.169
 2578POPC   C1A34059  38.446  40.093   8.735
 2578POPC   D2A34060  38.598  39.920   8.316
 2578POPC   C3A34061  38.463  40.058   7.882
 2578POPC   C4A34062  38.595  40.047   7.433
 2578POPC   C1B34063  38.037  39.768   8.862
 2578POPC   C2B34064  38.103  39.819   8.410
 2578POPC   C3B34065  38.003  39.788   7.975
 2578POPC   C4B34066  38.073  39.868   7.536
 2579POPC   NC334067   4.938  35.594   9.545
 2579POPC   PO434068   5.343  35.038   9.425
 2579POPC   GL134069   4.957  35.184   9.197
 2579POPC   GL234070   5.178  35.338   8.992
 2579POPC   C1A34071   4.751  35.322   8.759
 2579POPC   D2A34072   4.947  35.273   8.328
 2579POPC   C3A34073   4.717  35.466   8.011
 2579POPC   C4A34074   4.831  35.774   7.710
 2579POPC   C1B34075   5.163  34.990   8.700
 2579POPC   C2B34076   5.491  35.136   8.397
 2579POPC   C3B34077   5.474  35.338   8.008
 2579POPC   C4B34078   5.131  35.330   7.743
 2580POPC   NC334079   5.344  19.280   9.436
 2580POPC   PO434080   5.295  18.624   9.488
 2580POPC   GL134081   4.990  18.839   9.227
 2580POPC   GL234082   4.994  19.205   9.053
 2580POPC   C1A34083   5.028  18.781   8.810
 2580POPC   D2A34084   5.133  19.025   8.499
 2580POPC   C3A34085   4.939  18.976   8.137
 2580POPC   C4A34086   5.017  18.821   7.761
 2580POPC   C1B34087   4.953  19.472   8.649
 2580POPC   C2B34088   5.129  19.458   8.215
 2580POPC   C3B34089   5.104  19.324   7.759
 2580POPC   C4B34090   5.286  19.242   7.288
 2581POPC   NC334091   8.151  12.692   9.622
 2581POPC   PO434092   7.852  13.263   9.524
 2581POPC   GL134093   8.234  13.139   9.215
 2581POPC   GL234094   8.176  12.792   9.147
 2581POPC   C1A34095   8.403  12.978   8.762
 2581POPC   D2A34096   8.100  13.067   8.395
 2581POPC   C3A34097   8.201  12.926   8.003
 2581POPC   C4A34098   8.491  12.861   7.680
 2581POPC   C1B34099   7.950  12.729   8.786
 2581POPC   C2B34100   7.723  12.682   8.413
 2581POPC   C3B34101   7.834  12.562   7.981
 2581POPC   C4B34102   8.084  12.599   7.577
 2582POPC   NC334103  12.766  18.589   9.449
 2582POPC   PO434104  13.333  18.213   9.542
 2582POPC   GL134105  13.069  18.203   9.125
 2582POPC   GL234106  12.769  18.358   9.021
 2582POPC   C1A34107  12.829  17.942   8.763
 2582POPC   D2A34108  13.066  17.987   8.335
 2582POPC   C3A34109  12.910  18.121   7.928
 2582POPC   C4A34110  12.814  17.925   7.528
 2582POPC   C1B34111  12.996  18.410   8.658
 2582POPC   C2B34112  12.815  18.485   8.288
 2582POPC   C3B34113  12.468  18.429   7.996
 2582POPC   C4B34114  12.516  18.369   7.574
 2583POPC   NC334115   9.514  29.720   9.671
 2583POPC   PO434116  10.160  29.846   9.583
 2583POPC   GL134117   9.964  29.667   9.181
 2583POPC   GL234118   9.597  29.591   9.186
 2583POPC   C1A34119   9.801  29.951   8.869
 2583POPC   D2A34120   9.688  30.233   8.558
 2583POPC   C3A34121   9.789  30.073   8.158
 2583POPC   C4A34122   9.814  30.184   7.747
 2583POPC   C1B34123   9.395  29.658   8.799
 2583POPC   C2B34124   9.545  29.601   8.410
 2583POPC   C3B34125   9.461  29.693   8.007
 2583POPC   C4B34126   9.723  29.675   7.667
 2584POPC   NC334127   8.502  37.233   9.380
 2584POPC   PO434128   8.052  37.661   9.633
 2584POPC   GL134129   7.997  37.699   9.218
 2584POPC   GL234130   8.367  37.789   9.191
 2584POPC   C1A34131   7.848  37.560   8.813
 2584POPC   D2A34132   8.017  37.336   8.421
 2584POPC   C3A34133   8.032  37.602   8.029
 2584POPC   C4A34134   8.018  37.914   7.683
 2584POPC   C1B34135   8.558  37.879   8.773
 2584POPC   C2B34136   8.575  37.653   8.380
 2584POPC   C3B34137   8.540  37.745   7.953
 2584POPC   C4B34138   8.381  37.547   7.599
 2585POPC   NC334139  29.289  15.337   9.612
 2585POPC   PO434140  28.936  14.849   9.393
 2585POPC   GL134141  29.048  15.213   9.149
 2585POPC   GL234142  29.419  15.288   9.120
 2585POPC   C1A34143  29.064  15.266   8.715
 2585POPC   D2A34144  28.984  15.095   8.315
 2585POPC   C3A34145  29.206  15.144   7.939
 2585POPC   C4A34146  29.008  15.217   7.525
 2585POPC   C1B34147  29.470  15.583   8.776
 2585POPC   C2B34148  29.276  15.560   8.360
 2585POPC   C3B34149  29.413  15.624   7.977
 2585POPC   C4B34150  29.456  15.440   7.604
 2586POPC   NC334151  43.804  36.286   9.808
 2586POPC   PO434152  43.999  36.427   9.151
 2586POPC   GL134153  43.785  36.069   9.023
 2586POPC   GL234154  44.051  35.830   9.091
 2586POPC   C1A34155  43.581  35.922   8.668
 2586POPC   D2A34156  43.721  36.217   8.366
 2586POPC   C3A34157  43.585  36.349   7.972
 2586POPC   C4A34158  43.785  36.331   7.584
 2586POPC   C1B34159  44.122  36.048   8.671
 2586POPC   C2B34160  44.268  36.007   8.314
 2586POPC   C3B34161  44.035  36.085   7.979
 2586POPC   C4B34162  44.227  36.089   7.608
 2587POPC   NC334163  10.932  14.196   9.821
 2587POPC   PO434164  10.412  14.666   9.619
 2587POPC   GL134165  10.399  14.583   9.194
 2587POPC   GL234166  10.191  14.806   9.069
 2587POPC   C1A34167  10.669  14.379   8.884
 2587POPC   D2A34168  10.879  14.325   8.468
 2587POPC   C3A34169  10.623  14.261   8.118
 2587POPC   C4A34170  10.379  14.485   7.814
 2587POPC   C1B34171  10.094  14.529   8.742
 2587POPC   C2B34172  10.150  14.485   8.321
 2587POPC   C3B34173  10.066  14.819   8.060
 2587POPC   C4B34174   9.984  14.777   7.642
 2588POPC   NC334175  27.223  16.734   9.446
 2588POPC   PO434176  26.638  17.049   9.538
 2588POPC   GL134177  26.814  16.931   9.178
 2588POPC   GL234178  26.792  16.575   9.181
 2588POPC   C1A34179  27.037  16.938   8.796
 2588POPC   D2A34180  27.224  16.907   8.388
 2588POPC   C3A34181  26.942  16.816   8.028
 2588POPC   C4A34182  26.854  17.099   7.741
 2588POPC   C1B34183  26.751  16.516   8.747
 2588POPC   C2B34184  26.984  16.456   8.373
 2588POPC   C3B34185  26.923  16.281   7.962
 2588POPC   C4B34186  26.608  16.524   7.723
 2589POPC   NC334187  15.652   9.914   9.577
 2589POPC   PO434188  16.066   9.377   9.468
 2589POPC   GL134189  15.906   9.666   9.177
 2589POPC   GL234190  16.061  10.003   9.127
 2589POPC   C1A34191  15.958   9.623   8.729
 2589POPC   D2A34192  16.150   9.329   8.426
 2589POPC   C3A34193  15.861   9.304   8.088
 2589POPC   C4A34194  15.921   9.655   7.841
 2589POPC   C1B34195  15.652  10.009   8.897
 2589POPC   C2B34196  15.589   9.949   8.449
 2589POPC   C3B34197  15.779  10.105   8.043
 2589POPC   C4B34198  15.755  10.041   7.566
 2590POPC   NC334199  41.916  44.955   9.353
 2590POPC   PO434200  41.393  44.641   9.334
 2590POPC   GL134201  41.560  44.609   9.007
 2590POPC   GL234202  41.571  44.954   8.962
 2590POPC   C1A34203  41.326  44.531   8.647
 2590POPC   D2A34204  41.250  44.727   8.321
 2590POPC   C3A34205  41.290  44.572   7.926
 2590POPC   C4A34206  41.461  44.860   7.620
 2590POPC   C1B34207  41.719  44.857   8.591
 2590POPC   C2B34208  41.754  44.540   8.327
 2590POPC   C3B34209  41.713  44.816   8.057
 2590POPC   C4B34210  41.971  44.926   7.811
 2591POPC   NC334211  12.243  37.186   9.388
 2591POPC   PO434212  11.974  36.571   9.532
 2591POPC   GL134213  12.207  36.681   9.187
 2591POPC   GL234214  12.561  36.713   9.279
 2591POPC   C1A34215  12.038  36.901   8.818
 2591POPC   D2A34216  11.872  36.787   8.433
 2591POPC   C3A34217  12.067  36.885   8.072
 2591POPC   C4A34218  11.827  36.897   7.709
 2591POPC   C1B34219  12.541  36.801   8.815
 2591POPC   C2B34220  12.604  36.863   8.361
 2591POPC   C3B34221  12.544  36.777   7.920
 2591POPC   C4B34222  12.307  37.043   7.637
 2592POPC   NC334223  24.249  20.368   9.562
 2592POPC   PO434224  24.590  20.924   9.687
 2592POPC   GL134225  24.585  20.674   9.232
 2592POPC   GL234226  24.275  20.619   9.050
 2592POPC   C1A34227  24.804  20.620   8.867
 2592POPC   D2A34228  24.884  20.503   8.449
 2592POPC   C3A34229  24.670  20.685   8.105
 2592POPC   C4A34230  24.605  20.529   7.681
 2592POPC   C1B34231  24.413  20.337   8.695
 2592POPC   C2B34232  24.482  20.190   8.302
 2592POPC   C3B34233  24.223  20.444   8.059
 2592POPC   C4B34234  24.108  20.717   7.763
 2593POPC   NC334235  15.031  29.102   9.476
 2593POPC   PO434236  15.697  29.139   9.410
 2593POPC   GL134237  15.394  29.001   9.125
 2593POPC   GL234238  15.204  29.315   9.050
 2593POPC   C1A34239  15.369  28.805   8.741
 2593POPC   D2A34240  15.090  28.787   8.410
 2593POPC   C3A34241  15.171  28.993   8.034
 2593POPC   C4A34242  14.976  28.967   7.656
 2593POPC   C1B34243  15.289  29.417   8.607
 2593POPC   C2B34244  15.182  29.482   8.156
 2593POPC   C3B34245  15.326  29.381   7.725
 2593POPC   C4B34246  15.365  29.507   7.283
 2594POPC   NC334247  13.488   3.941   9.487
 2594POPC   PO434248  13.088   4.351   9.356
 2594POPC   GL134249  13.363   4.103   9.020
 2594POPC   GL234250  13.749   4.070   9.056
 2594POPC   C1A34251  13.467   4.175   8.567
 2594POPC   D2A34252  13.371   4.458   8.201
 2594POPC   C3A34253  13.649   4.547   7.855
 2594POPC   C4A34254  13.964   4.594   7.492
 2594POPC   C1B34255  13.807   3.821   8.685
 2594POPC   C2B34256  13.617   3.787   8.244
 2594POPC   C3B34257  13.738   4.059   7.891
 2594POPC   C4B34258  14.036   4.089   7.513
 2595POPC   NC334259  19.729   9.356   9.435
 2595POPC   PO434260  20.006   9.956   9.563
 2595POPC   GL134261  19.965   9.833   9.188
 2595POPC   GL234262  20.290   9.962   9.062
 2595POPC   C1A34263  19.693   9.744   8.826
 2595POPC   D2A34264  19.673   9.906   8.427
 2595POPC   C3A34265  19.650   9.648   8.087
 2595POPC   C4A34266  19.488   9.837   7.750
 2595POPC   C1B34267  20.208   9.571   8.832
 2595POPC   C2B34268  20.033   9.530   8.440
 2595POPC   C3B34269  20.180   9.653   8.047
 2595POPC   C4B34270  20.018   9.910   7.693
 2596POPC   NC334271  25.613  41.056   9.679
 2596POPC   PO434272  25.633  40.438   9.396
 2596POPC   GL134273  25.778  40.733   9.107
 2596POPC   GL234274  26.106  40.833   9.224
 2596POPC   C1A34275  25.911  40.641   8.679
 2596POPC   D2A34276  26.297  40.561   8.452
 2596POPC   C3A34277  26.195  40.700   8.034
 2596POPC   C4A34278  25.824  40.802   7.782
 2596POPC   C1B34279  26.325  40.909   8.836
 2596POPC   C2B34280  26.164  41.062   8.417
 2596POPC   C3B34281  26.212  41.208   7.980
 2596POPC   C4B34282  25.873  41.299   7.700
 2597POPC   NC334283   8.046  21.164   9.342
 2597POPC   PO434284   8.471  21.700   9.460
 2597POPC   GL134285   8.297  21.631   9.077
 2597POPC   GL234286   7.992  21.734   9.055
 2597POPC   C1A34287   8.262  21.371   8.698
 2597POPC   D2A34288   8.530  21.286   8.344
 2597POPC   C3A34289   8.296  21.418   7.991
 2597POPC   C4A34290   8.043  21.130   7.826
 2597POPC   C1B34291   7.787  21.584   8.709
 2597POPC   C2B34292   7.880  21.438   8.322
 2597POPC   C3B34293   7.673  21.444   7.956
 2597POPC   C4B34294   7.855  21.492   7.525
 2598POPC   NC334295  44.795   2.800   9.481
 2598POPC   PO434296  44.191   2.662   9.362
 2598POPC   GL134297  44.481   2.793   9.038
 2598POPC   GL234298  44.860   2.784   8.990
 2598POPC   C1A34299  44.508   2.675   8.617
 2598POPC   D2A34300  44.667   2.384   8.344
 2598POPC   C3A34301  44.502   2.595   7.982
 2598POPC   C4A34302  44.680   2.839   7.647
 2598POPC   C1B34303  44.762   3.108   8.704
 2598POPC   C2B34304  44.734   3.028   8.278
 2598POPC   C3B34305  44.934   3.181   7.917
 2598POPC   C4B34306   0.209   2.951   7.664
 2599POPC   NC334307  25.265  23.886   9.615
 2599POPC   PO434308  24.963  23.401   9.424
 2599POPC   GL134309  25.193  23.577   9.109
 2599POPC   GL234310  25.339  23.877   9.108
 2599POPC   C1A34311  25.272  23.521   8.673
 2599POPC   D2A34312  25.041  23.434   8.323
 2599POPC   C3A34313  25.236  23.541   7.963
 2599POPC   C4A34314  25.150  23.728   7.573
 2599POPC   C1B34315  25.215  24.060   8.736
 2599POPC   C2B34316  25.227  23.936   8.315
 2599POPC   C3B34317  25.392  24.046   7.900
 2599POPC   C4B34318  25.321  24.221   7.480
 2600POPC   NC334319  14.122  12.465   9.396
 2600POPC   PO434320  14.691  12.589   9.875
 2600POPC   GL134321  14.619  12.675   9.360
 2600POPC   GL234322  14.645  12.383   9.114
 2600POPC   C1A34323  14.604  12.871   8.904
 2600POPC   D2A34324  14.708  12.890   8.442
 2600POPC   C3A34325  14.626  13.015   7.989
 2600POPC   C4A34326  14.767  12.793   7.592
 2600POPC   C1B34327  14.423  12.463   8.686
 2600POPC   C2B34328  14.350  12.579   8.229
 2600POPC   C3B34329  14.325  12.648   7.781
 2600POPC   C4B34330  14.411  12.546   7.321
 2601POPC   NC334331  31.926   5.452   9.336
 2601POPC   PO434332  32.267   4.900   9.583
 2601POPC   GL134333  32.341   5.147   9.190
 2601POPC   GL234334  32.455   5.503   9.212
 2601POPC   C1A34335  32.274   4.964   8.775
 2601POPC   D2A34336  32.560   4.872   8.434
 2601POPC   C3A34337  32.420   4.870   8.044
 2601POPC   C4A34338  32.222   4.808   7.641
 2601POPC   C1B34339  32.549   5.546   8.802
 2601POPC   C2B34340  32.329   5.334   8.441
 2601POPC   C3B34341  32.443   5.388   8.046
 2601POPC   C4B34342  32.198   5.592   7.835
 2602POPC   NC334343  31.879  43.945   9.548
 2602POPC   PO434344  32.306  44.343   9.708
 2602POPC   GL134345  32.322  44.073   9.307
 2602POPC   GL234346  32.266  43.705   9.295
 2602POPC   C1A34347  32.094  44.072   8.901
 2602POPC   D2A34348  32.319  44.075   8.525
 2602POPC   C3A34349  32.125  44.000   8.169
 2602POPC   C4A34350  32.050  44.005   7.759
 2602POPC   C1B34351  32.270  43.585   8.838
 2602POPC   C2B34352  32.194  43.533   8.382
 2602POPC   C3B34353  32.294  43.580   7.938
 2602POPC   C4B34354  32.387  43.612   7.518
 2603POPC   NC334355  17.059  30.821   9.788
 2603POPC   PO434356  16.660  30.290   9.561
 2603POPC   GL134357  16.947  30.371   9.228
 2603POPC   GL234358  17.023  30.756   9.211
 2603POPC   C1A34359  17.026  30.258   8.789
 2603POPC   D2A34360  17.098  30.453   8.363
 2603POPC   C3A34361  16.883  30.385   7.949
 2603POPC   C4A34362  16.689  30.544   7.566
 2603POPC   C1B34363  16.851  30.766   8.751
 2603POPC   C2B34364  16.654  30.729   8.306
 2603POPC   C3B34365  16.715  30.940   7.900
 2603POPC   C4B34366  16.638  31.028   7.436
 2604POPC   NC334367  17.107  33.995   9.383
 2604POPC   PO434368  17.630  33.604   9.411
 2604POPC   GL134369  17.524  33.857   9.039
 2604POPC   GL234370  17.192  33.891   8.905
 2604POPC   C1A34371  17.624  34.043   8.629
 2604POPC   D2A34372  17.804  33.768   8.293
 2604POPC   C3A34373  17.738  33.846   7.849
 2604POPC   C4A34374  17.921  33.683   7.447
 2604POPC   C1B34375  17.314  33.644   8.575
 2604POPC   C2B34376  17.295  33.627   8.143
 2604POPC   C3B34377  17.215  33.922   7.851
 2604POPC   C4B34378  17.131  34.138   7.476
 2605POPC   NC334379   6.612  11.881   9.458
 2605POPC   PO434380   6.680  11.296   9.407
 2605POPC   GL134381   6.874  11.257   9.039
 2605POPC   GL234382   7.010  11.620   9.055
 2605POPC   C1A34383   6.587  11.086   8.732
 2605POPC   D2A34384   6.587  10.940   8.361
 2605POPC   C3A34385   6.836  11.144   8.064
 2605POPC   C4A34386   6.519  11.197   7.720
 2605POPC   C1B34387   6.602  11.593   8.787
 2605POPC   C2B34388   6.546  11.468   8.347
 2605POPC   C3B34389   6.718  11.632   7.943
 2605POPC   C4B34390   7.023  11.664   7.581
 2606POPC   NC334391  37.346  43.105   9.791
 2606POPC   PO434392  37.826  43.343   9.233
 2606POPC   GL134393  37.909  43.085   9.001
 2606POPC   GL234394  37.841  42.806   9.183
 2606POPC   C1A34395  37.883  43.174   8.596
 2606POPC   D2A34396  37.973  43.496   8.349
 2606POPC   C3A34397  37.793  43.312   8.004
 2606POPC   C4A34398  37.734  43.252   7.556
 2606POPC   C1B34399  37.618  42.746   8.759
 2606POPC   C2B34400  37.569  42.846   8.307
 2606POPC   C3B34401  37.681  42.829   7.870
 2606POPC   C4B34402  37.468  42.837   7.458
 2607POPC   NC334403  24.754  41.363   9.497
 2607POPC   PO434404  24.183  41.741   9.460
 2607POPC   GL134405  24.509  41.675   9.144
 2607POPC   GL234406  24.697  41.975   9.009
 2607POPC   C1A34407  24.705  41.434   8.827
 2607POPC   D2A34408  24.516  41.291   8.472
 2607POPC   C3A34409  24.710  41.441   8.138
 2607POPC   C4A34410  24.680  41.406   7.700
 2607POPC   C1B34411  24.423  41.856   8.681
 2607POPC   C2B34412  24.267  41.732   8.313
 2607POPC   C3B34413  24.279  41.609   7.913
 2607POPC   C4B34414  24.324  41.726   7.484
 2608POPC   NC334415  21.893  33.787   9.467
 2608POPC   PO434416  22.503  33.959   9.454
 2608POPC   GL134417  22.253  34.097   9.129
 2608POPC   GL234418  22.289  33.786   9.008
 2608POPC   C1A34419  22.053  34.064   8.691
 2608POPC   D2A34420  21.966  33.717   8.417
 2608POPC   C3A34421  22.143  33.824   8.031
 2608POPC   C4A34422  22.095  34.113   7.703
 2608POPC   C1B34423  22.489  33.599   8.662
 2608POPC   C2B34424  22.461  33.467   8.234
 2608POPC   C3B34425  22.591  33.625   7.819
 2608POPC   C4B34426  22.597  33.555   7.346
 2609POPC   NC334427  27.105  41.519   9.390
 2609POPC   PO434428  26.561  41.872   9.460
 2609POPC   GL134429  26.708  41.614   9.097
 2609POPC   GL234430  26.606  41.278   9.062
 2609POPC   C1A34431  26.871  41.574   8.671
 2609POPC   D2A34432  26.813  41.847   8.306
 2609POPC   C3A34433  26.987  41.890   7.877
 2609POPC   C4A34434  26.858  41.732   7.438
 2609POPC   C1B34435  26.393  41.415   8.700
 2609POPC   C2B34436  26.570  41.377   8.302
 2609POPC   C3B34437  26.720  41.451   7.885
 2609POPC   C4B34438  26.610  41.278   7.492
 2610POPC   NC334439  29.927  42.141   9.430
 2610POPC   PO434440  29.594  42.810   9.410
 2610POPC   GL134441  29.910  42.535   9.104
 2610POPC   GL234442  29.803  42.142   8.949
 2610POPC   C1A34443  30.072  42.438   8.675
 2610POPC   D2A34444  30.266  42.204   8.370
 2610POPC   C3A34445  30.156  42.388   7.972
 2610POPC   C4A34446  29.761  42.484   7.781
 2610POPC   C1B34447  29.537  42.115   8.564
 2610POPC   C2B34448  29.636  42.116   8.115
 2610POPC   C3B34449  29.497  42.053   7.700
 2610POPC   C4B34450  29.587  42.039   7.230
 2611POPC   NC334451  25.162  28.100   9.486
 2611POPC   PO434452  25.608  28.553   9.280
 2611POPC   GL134453  25.393  28.287   9.042
 2611POPC   GL234454  25.056  28.120   8.989
 2611POPC   C1A34455  25.296  28.445   8.668
 2611POPC   D2A34456  25.447  28.771   8.424
 2611POPC   C3A34457  25.563  28.581   8.063
 2611POPC   C4A34458  25.522  28.607   7.661
 2611POPC   C1B34459  24.933  28.083   8.576
 2611POPC   C2B34460  25.158  28.238   8.223
 2611POPC   C3B34461  25.106  28.356   7.829
 2611POPC   C4B34462  24.893  28.060   7.607
 2612POPC   NC334463   2.205  10.580   9.537
 2612POPC   PO434464   1.700  10.093   9.484
 2612POPC   GL134465   1.928  10.197   9.142
 2612POPC   GL234466   1.987  10.573   9.083
 2612POPC   C1A34467   1.761  10.302   8.725
 2612POPC   D2A34468   1.915  10.596   8.431
 2612POPC   C3A34469   1.819  10.448   8.040
 2612POPC   C4A34470   1.969  10.351   7.667
 2612POPC   C1B34471   2.148  10.919   8.819
 2612POPC   C2B34472   2.302  10.957   8.402
 2612POPC   C3B34473   2.327  10.667   8.043
 2612POPC   C4B34474   2.330  10.709   7.615
 2613POPC   NC334475  19.603  42.559   9.479
 2613POPC   PO434476  20.038  42.117   9.607
 2613POPC   GL134477  20.012  42.275   9.211
 2613POPC   GL234478  19.937  42.616   9.104
 2613POPC   C1A34479  20.008  42.226   8.780
 2613POPC   D2A34480  19.783  42.237   8.389
 2613POPC   C3A34481  20.023  42.213   8.046
 2613POPC   C4A34482  19.922  42.217   7.626
 2613POPC   C1B34483  19.602  42.567   8.778
 2613POPC   C2B34484  19.352  42.499   8.374
 2613POPC   C3B34485  19.599  42.545   7.982
 2613POPC   C4B34486  19.803  42.723   7.649
 2614POPC   NC334487  14.972  23.376   9.415
 2614POPC   PO434488  15.213  22.762   9.459
 2614POPC   GL134489  15.126  22.891   9.076
 2614POPC   GL234490  15.464  23.008   9.074
 2614POPC   C1A34491  15.256  22.789   8.651
 2614POPC   D2A34492  15.116  22.810   8.232
 2614POPC   C3A34493  15.404  22.819   7.920
 2614POPC   C4A34494  15.359  22.654   7.519
 2614POPC   C1B34495  15.227  23.288   8.770
 2614POPC   C2B34496  15.021  23.299   8.388
 2614POPC   C3B34497  15.161  23.258   7.986
 2614POPC   C4B34498  14.932  22.957   7.699
 2615POPC   NC334499  41.495  43.420   9.519
 2615POPC   PO434500  41.856  42.827   9.575
 2615POPC   GL134501  41.691  43.049   9.191
 2615POPC   GL234502  41.343  43.141   9.108
 2615POPC   C1A34503  41.733  43.221   8.773
 2615POPC   D2A34504  41.610  43.377   8.346
 2615POPC   C3A34505  41.598  43.149   7.947
 2615POPC   C4A34506  41.812  43.068   7.555
 2615POPC   C1B34507  41.224  43.182   8.672
 2615POPC   C2B34508  41.214  43.005   8.256
 2615POPC   C3B34509  41.076  42.990   7.825
 2615POPC   C4B34510  41.183  42.934   7.384
 2616POPC   NC334511  17.260   0.552   9.361
 2616POPC   PO434512  16.602   0.267   9.393
 2616POPC   GL134513  16.814   0.481   9.082
 2616POPC   GL234514  17.082   0.312   8.934
 2616POPC   C1A34515  16.750   0.778   8.766
 2616POPC   D2A34516  16.877   0.818   8.370
 2616POPC   C3A34517  16.775   0.457   8.150
 2616POPC   C4A34518  16.495   0.503   7.824
 2616POPC   C1B34519  17.261   0.603   8.651
 2616POPC   C2B34520  17.298   0.479   8.229
 2616POPC   C3B34521  17.171   0.451   7.788
 2616POPC   C4B34522  17.181   0.295   7.343
 2617POPC   NC334523  17.810  37.804   9.495
 2617POPC   PO434524  18.445  37.834   9.665
 2617POPC   GL134525  18.430  37.696   9.196
 2617POPC   GL234526  18.240  37.397   9.113
 2617POPC   C1A34527  18.394  37.746   8.747
 2617POPC   D2A34528  18.333  37.971   8.354
 2617POPC   C3A34529  18.276  37.688   7.995
 2617POPC   C4A34530  18.393  37.599   7.581
 2617POPC   C1B34531  18.149  37.188   8.675
 2617POPC   C2B34532  18.121  37.182   8.196
 2617POPC   C3B34533  18.088  37.229   7.756
 2617POPC   C4B34534  18.223  37.211   7.315
 2618POPC   NC334535   7.985  44.704   9.690
 2618POPC   PO434536   8.574  44.621   9.726
 2618POPC   GL134537   8.322  44.750   9.305
 2618POPC   GL234538   7.976  44.576   9.206
 2618POPC   C1A34539   8.172  44.882   8.865
 2618POPC   D2A34540   8.193  44.692   8.437
 2618POPC   C3A34541   8.467  44.948   8.179
 2618POPC   C4A34542   8.520  44.829   7.774
 2618POPC   C1B34543   8.062  44.363   8.801
 2618POPC   C2B34544   7.927  44.213   8.383
 2618POPC   C3B34545   8.045  44.388   7.980
 2618POPC   C4B34546   7.849  44.222   7.599
 2619POPC   NC334547   5.473  28.989   9.527
 2619POPC   PO434548   6.184  29.102   9.586
 2619POPC   GL134549   6.040  29.296   9.188
 2619POPC   GL234550   5.668  29.367   9.134
 2619POPC   C1A34551   5.962  29.339   8.742
 2619POPC   D2A34552   5.660  29.177   8.457
 2619POPC   C3A34553   5.870  29.154   8.055
 2619POPC   C4A34554   6.138  29.085   7.665
 2619POPC   C1B34555   5.543  29.642   8.725
 2619POPC   C2B34556   5.341  29.611   8.305
 2619POPC   C3B34557   5.382  29.538   7.845
 2619POPC   C4B34558   5.649  29.269   7.626
 2620POPC   NC334559  41.311  19.230   9.672
 2620POPC   PO434560  41.703  18.691   9.676
 2620POPC   GL134561  41.663  19.032   9.331
 2620POPC   GL234562  41.325  19.020   9.201
 2620POPC   C1A34563  41.666  19.228   8.872
 2620POPC   D2A34564  41.660  19.050   8.443
 2620POPC   C3A34565  41.897  19.119   8.050
 2620POPC   C4A34566  41.704  19.099   7.640
 2620POPC   C1B34567  41.211  18.927   8.763
 2620POPC   C2B34568  41.138  19.144   8.342
 2620POPC   C3B34569  41.367  18.970   7.991
 2620POPC   C4B34570  41.289  18.566   7.713
 2621POPC   NC334571  44.173   6.005   9.359
 2621POPC   PO434572  43.621   6.258   9.202
 2621POPC   GL134573  43.794   5.846   9.068
 2621POPC   GL234574  44.136   5.661   9.013
 2621POPC   C1A34575  43.637   5.669   8.750
 2621POPC   D2A34576  43.507   5.918   8.440
 2621POPC   C3A34577  43.564   5.807   8.033
 2621POPC   C4A34578  43.739   5.979   7.682
 2621POPC   C1B34579  44.065   5.969   8.676
 2621POPC   C2B34580  43.964   6.102   8.307
 2621POPC   C3B34581  44.134   6.183   7.949
 2621POPC   C4B34582  44.205   6.174   7.513
 2622POPC   NC334583   9.706  23.225   9.559
 2622POPC   PO434584   9.819  23.852   9.424
 2622POPC   GL134585   9.903  23.476   9.165
 2622POPC   GL234586   9.551  23.409   9.079
 2622POPC   C1A34587  10.058  23.447   8.758
 2622POPC   D2A34588  10.070  23.771   8.443
 2622POPC   C3A34589   9.755  23.919   8.171
 2622POPC   C4A34590   9.760  23.656   7.848
 2622POPC   C1B34591   9.560  23.626   8.674
 2622POPC   C2B34592   9.460  23.507   8.250
 2622POPC   C3B34593   9.306  23.395   7.843
 2622POPC   C4B34594   9.420  23.674   7.487
 2623POPC   NC334595  43.079  10.759  10.265
 2623POPC   PO434596  43.004  10.586   9.627
 2623POPC   GL134597  43.085  10.362   9.204
 2623POPC   GL234598  43.461  10.346   9.150
 2623POPC   C1A34599  43.178  10.191   8.766
 2623POPC   D2A34600  43.448  10.254   8.401
 2623POPC   C3A34601  43.304  10.288   7.980
 2623POPC   C4A34602  43.523  10.282   7.578
 2623POPC   C1B34603  43.360  10.653   8.784
 2623POPC   C2B34604  43.249  10.731   8.319
 2623POPC   C3B34605  43.309  11.002   7.929
 2623POPC   C4B34606  43.053  11.032   7.516
 2624POPC   NC334607  27.648  16.281   9.453
 2624POPC   PO434608  27.621  15.701   9.668
 2624POPC   GL134609  27.480  15.840   9.228
 2624POPC   GL234610  27.801  15.804   9.150
 2624POPC   C1A34611  27.446  15.949   8.754
 2624POPC   D2A34612  27.404  15.773   8.305
 2624POPC   C3A34613  27.413  16.044   7.933
 2624POPC   C4A34614  27.653  16.321   7.621
 2624POPC   C1B34615  27.946  15.868   8.755
 2624POPC   C2B34616  27.869  15.969   8.325
 2624POPC   C3B34617  27.882  15.804   7.912
 2624POPC   C4B34618  27.987  15.927   7.505
 2625POPC   NC334619  23.762  41.919   9.504
 2625POPC   PO434620  23.190  41.634   9.399
 2625POPC   GL134621  23.660  41.680   9.065
 2625POPC   GL234622  23.982  41.942   9.038
 2625POPC   C1A34623  24.002  41.515   8.707
 2625POPC   D2A34624  24.053  41.273   8.263
 2625POPC   C3A34625  23.798  41.430   7.904
 2625POPC   C4A34626  23.436  41.730   7.832
 2625POPC   C1B34627  23.784  41.976   8.636
 2625POPC   C2B34628  23.796  41.941   8.170
 2625POPC   C3B34629  23.906  41.903   7.745
 2625POPC   C4B34630  23.857  41.568   7.383
 2626POPC   NC334631  11.293  39.532   9.445
 2626POPC   PO434632  11.243  40.205   9.584
 2626POPC   GL134633  11.152  40.101   9.174
 2626POPC   GL234634  11.477  39.937   9.146
 2626POPC   C1A34635  11.069  39.965   8.755
 2626POPC   D2A34636  11.305  39.959   8.380
 2626POPC   C3A34637  11.207  40.168   7.989
 2626POPC   C4A34638  11.082  40.190   7.554
 2626POPC   C1B34639  11.517  39.689   8.790
 2626POPC   C2B34640  11.641  39.564   8.394
 2626POPC   C3B34641  11.604  39.734   8.010
 2626POPC   C4B34642  11.362  39.789   7.689
 2627POPC   NC334643   2.588  24.375   9.439
 2627POPC   PO434644   3.072  24.715   9.307
 2627POPC   GL134645   2.860  24.469   9.002
 2627POPC   GL234646   2.509  24.608   8.994
 2627POPC   C1A34647   2.896  24.455   8.544
 2627POPC   D2A34648   3.120  24.546   8.170
 2627POPC   C3A34649   2.804  24.586   7.875
 2627POPC   C4A34650   2.853  24.439   7.456
 2627POPC   C1B34651   2.441  24.188   8.822
 2627POPC   C2B34652   2.447  24.036   8.406
 2627POPC   C3B34653   2.512  24.152   7.969
 2627POPC   C4B34654   2.352  24.430   7.631
 2628POPC   NC334655  27.600   3.102   9.578
 2628POPC   PO434656  27.354   2.551   9.374
 2628POPC   GL134657  27.548   2.834   9.103
 2628POPC   GL234658  27.896   2.892   9.215
 2628POPC   C1A34659  27.744   2.678   8.758
 2628POPC   D2A34660  27.733   2.463   8.398
 2628POPC   C3A34661  27.461   2.636   8.139
 2628POPC   C4A34662  27.637   2.639   7.738
 2628POPC   C1B34663  28.025   3.101   8.818
 2628POPC   C2B34664  27.886   2.980   8.384
 2628POPC   C3B34665  27.700   3.068   8.031
 2628POPC   C4B34666  27.874   3.287   7.752
 2629POPC   NC334667   9.296  28.199   9.511
 2629POPC   PO434668   8.957  28.655   9.748
 2629POPC   GL134669   9.134  28.614   9.277
 2629POPC   GL234670   8.919  28.374   9.107
 2629POPC   C1A34671   9.160  28.688   8.828
 2629POPC   D2A34672   9.269  28.719   8.405
 2629POPC   C3A34673   8.991  28.611   8.053
 2629POPC   C4A34674   9.169  28.491   7.649
 2629POPC   C1B34675   9.187  28.162   8.850
 2629POPC   C2B34676   9.087  28.200   8.431
 2629POPC   C3B34677   9.163  28.114   8.004
 2629POPC   C4B34678   8.745  28.177   7.840
 2630POPC   NC334679  20.688  15.548   9.522
 2630POPC   PO434680  20.114  15.179   9.626
 2630POPC   GL134681  20.222  15.416   9.191
 2630POPC   GL234682  20.541  15.321   9.078
 2630POPC   C1A34683  20.301  15.414   8.662
 2630POPC   D2A34684  20.667  15.410   8.346
 2630POPC   C3A34685  20.596  15.292   7.912
 2630POPC   C4A34686  20.392  14.899   7.765
 2630POPC   C1B34687  20.735  15.068   8.723
 2630POPC   C2B34688  20.687  14.884   8.269
 2630POPC   C3B34689  20.904  14.853   7.849
 2630POPC   C4B34690  20.855  15.140   7.477
 2631POPC   NC334691  14.093   2.916   9.408
 2631POPC   PO434692  14.422   2.330   9.359
 2631POPC   GL134693  14.420   2.662   9.098
 2631POPC   GL234694  14.718   2.682   8.902
 2631POPC   C1A34695  14.259   2.880   8.748
 2631POPC   D2A34696  14.445   3.011   8.373
 2631POPC   C3A34697  14.184   2.950   8.014
 2631POPC   C4A34698  14.105   2.529   7.809
 2631POPC   C1B34699  14.429   2.394   8.675
 2631POPC   C2B34700  14.300   2.512   8.294
 2631POPC   C3B34701  14.568   2.626   7.986
 2631POPC   C4B34702  14.704   3.039   7.910
 2632POPC   NC334703   6.619  35.766   9.520
 2632POPC   PO434704   6.859  35.206   9.463
 2632POPC   GL134705   6.654  35.389   9.106
 2632POPC   GL234706   6.451  35.675   9.069
 2632POPC   C1A34707   6.809  35.446   8.699
 2632POPC   D2A34708   6.837  35.201   8.339
 2632POPC   C3A34709   6.719  35.370   8.022
 2632POPC   C4A34710   6.834  35.691   7.803
 2632POPC   C1B34711   6.294  35.530   8.709
 2632POPC   C2B34712   6.119  35.703   8.360
 2632POPC   C3B34713   6.286  35.658   7.963
 2632POPC   C4B34714   6.410  35.430   7.623
 2633POPC   NC334715  13.372  14.982   9.526
 2633POPC   PO434716  13.885  15.352   9.705
 2633POPC   GL134717  13.724  15.310   9.272
 2633POPC   GL234718  13.381  15.413   9.136
 2633POPC   C1A34719  13.806  15.371   8.826
 2633POPC   D2A34720  13.553  15.374   8.434
 2633POPC   C3A34721  13.803  15.401   8.025
 2633POPC   C4A34722  13.642  15.438   7.584
 2633POPC   C1B34723  13.479  15.007   8.903
 2633POPC   C2B34724  13.476  14.817   8.498
 2633POPC   C3B34725  13.530  14.976   8.076
 2633POPC   C4B34726  13.554  14.921   7.626
 2634POPC   NC334727   2.981  26.498   9.454
 2634POPC   PO434728   2.612  27.114   9.445
 2634POPC   GL134729   2.745  26.832   9.143
 2634POPC   GL234730   2.540  26.583   9.002
 2634POPC   C1A34731   3.012  26.798   8.799
 2634POPC   D2A34732   3.001  26.939   8.405
 2634POPC   C3A34733   2.621  26.969   8.146
 2634POPC   C4A34734   2.686  26.869   7.714
 2634POPC   C1B34735   2.814  26.332   8.735
 2634POPC   C2B34736   2.918  26.383   8.308
 2634POPC   C3B34737   3.043  26.646   8.010
 2634POPC   C4B34738   3.156  26.502   7.681
 2635POPC   NC334739  38.171  35.838   9.612
 2635POPC   PO434740  38.701  36.211   9.352
 2635POPC   GL134741  38.494  35.872   9.175
 2635POPC   GL234742  38.750  35.714   9.100
 2635POPC   C1A34743  38.321  35.890   8.761
 2635POPC   D2A34744  38.291  36.226   8.482
 2635POPC   C3A34745  38.230  36.227   8.027
 2635POPC   C4A34746  38.309  36.058   7.607
 2635POPC   C1B34747  38.817  35.920   8.675
 2635POPC   C2B34748  38.597  35.880   8.241
 2635POPC   C3B34749  38.770  36.024   7.814
 2635POPC   C4B34750  38.834  35.821   7.368
 2636POPC   NC334751  38.161  32.727   9.346
 2636POPC   PO434752  38.684  33.149   9.589
 2636POPC   GL134753  38.649  32.920   9.210
 2636POPC   GL234754  38.621  32.556   9.188
 2636POPC   C1A34755  38.480  33.053   8.816
 2636POPC   D2A34756  38.373  32.847   8.440
 2636POPC   C3A34757  38.479  33.064   8.083
 2636POPC   C4A34758  38.313  33.121   7.720
 2636POPC   C1B34759  38.758  32.619   8.718
 2636POPC   C2B34760  38.933  32.638   8.265
 2636POPC   C3B34761  38.848  32.628   7.793
 2636POPC   C4B34762  38.483  32.686   7.498
 2637POPC   NC334763  20.629  33.076   9.562
 2637POPC   PO434764  20.004  33.349   9.250
 2637POPC   GL134765  20.360  33.120   9.125
 2637POPC   GL234766  20.660  33.270   9.087
 2637POPC   C1A34767  20.562  32.842   8.822
 2637POPC   D2A34768  20.414  32.745   8.390
 2637POPC   C3A34769  20.634  32.943   8.042
 2637POPC   C4A34770  20.959  32.962   7.738
 2637POPC   C1B34771  20.877  33.242   8.722
 2637POPC   C2B34772  20.862  33.476   8.391
 2637POPC   C3B34773  20.946  33.377   8.017
 2637POPC   C4B34774  20.815  33.469   7.622
 2638POPC   NC334775  13.418  31.920   9.490
 2638POPC   PO434776  13.545  32.602   9.367
 2638POPC   GL134777  13.734  32.229   9.190
 2638POPC   GL234778  14.028  32.395   9.051
 2638POPC   C1A34779  13.507  31.983   8.868
 2638POPC   D2A34780  13.314  32.072   8.503
 2638POPC   C3A34781  13.615  32.134   8.187
 2638POPC   C4A34782  13.433  32.085   7.788
 2638POPC   C1B34783  13.688  32.432   8.715
 2638POPC   C2B34784  13.362  32.566   8.454
 2638POPC   C3B34785  13.280  32.508   8.054
 2638POPC   C4B34786  13.468  32.576   7.627
 2639POPC   NC334787  44.282   0.220   9.440
 2639POPC   PO434788  43.488   0.262   9.431
 2639POPC   GL134789  43.698   0.513   9.096
 2639POPC   GL234790  44.090   0.479   9.039
 2639POPC   C1A34791  43.761   0.587   8.657
 2639POPC   D2A34792  43.887   0.384   8.277
 2639POPC   C3A34793  43.983   0.613   7.893
 2639POPC   C4A34794  43.939   0.599   7.418
 2639POPC   C1B34795  44.087   0.146   8.721
 2639POPC   C2B34796  44.100  44.926   8.327
 2639POPC   C3B34797  44.086   0.101   7.900
 2639POPC   C4B34798  43.820   0.143   7.534
 2640POPC   NC334799  20.770   4.754   9.431
 2640POPC   PO434800  20.438   5.234   9.755
 2640POPC   GL134801  20.497   5.249   9.247
 2640POPC   GL234802  20.847   5.324   9.128
 2640POPC   C1A34803  20.563   4.992   8.821
 2640POPC   D2A34804  20.651   4.783   8.421
 2640POPC   C3A34805  20.465   4.903   8.044
 2640POPC   C4A34806  20.618   4.845   7.640
 2640POPC   C1B34807  20.601   5.489   8.760
 2640POPC   C2B34808  20.587   5.320   8.333
 2640POPC   C3B34809  20.780   5.271   7.907
 2640POPC   C4B34810  20.556   5.336   7.478
 2641POPC   NC334811  15.371  35.627   9.444
 2641POPC   PO434812  15.436  34.959   9.463
 2641POPC   GL134813  15.206  35.153   9.098
 2641POPC   GL234814  15.190  35.510   8.996
 2641POPC   C1A34815  14.943  35.157   8.723
 2641POPC   D2A34816  14.826  35.358   8.337
 2641POPC   C3A34817  15.203  35.269   8.097
 2641POPC   C4A34818  15.282  35.263   7.660
 2641POPC   C1B34819  15.243  35.573   8.567
 2641POPC   C2B34820  15.568  35.606   8.261
 2641POPC   C3B34821  15.350  35.759   7.911
 2641POPC   C4B34822  14.926  35.633   7.835
 2642POPC   NC334823   7.684   2.688   9.758
 2642POPC   PO434824   7.260   3.151   9.496
 2642POPC   GL134825   7.486   2.837   9.259
 2642POPC   GL234826   7.185   2.869   9.046
 2642POPC   C1A34827   7.604   2.732   8.815
 2642POPC   D2A34828   7.298   2.641   8.430
 2642POPC   C3A34829   7.459   2.734   7.998
 2642POPC   C4A34830   7.745   3.070   7.852
 2642POPC   C1B34831   7.108   3.086   8.626
 2642POPC   C2B34832   7.068   3.042   8.148
 2642POPC   C3B34833   7.224   3.139   7.711
 2642POPC   C4B34834   7.075   3.013   7.266
 2643POPC   NC334835  31.140   1.582   9.500
 2643POPC   PO434836  31.752   1.707   9.570
 2643POPC   GL134837  31.450   1.889   9.185
 2643POPC   GL234838  31.305   2.203   9.062
 2643POPC   C1A34839  31.386   1.824   8.734
 2643POPC   D2A34840  31.645   1.959   8.365
 2643POPC   C3A34841  31.573   1.873   7.934
 2643POPC   C4A34842  31.267   1.730   7.703
 2643POPC   C1B34843  31.205   2.297   8.630
 2643POPC   C2B34844  31.524   2.439   8.342
 2643POPC   C3B34845  31.674   2.379   7.941
 2643POPC   C4B34846  31.327   2.281   7.648
 2644POPC   NC334847   3.170   6.002   9.352
 2644POPC   PO434848   2.542   6.052   9.576
 2644POPC   GL134849   2.704   5.926   9.160
 2644POPC   GL234850   2.916   6.129   8.927
 2644POPC   C1A34851   2.607   5.711   8.786
 2644POPC   D2A34852   2.767   5.755   8.381
 2644POPC   C3A34853   2.633   6.124   8.152
 2644POPC   C4A34854   2.733   6.014   7.729
 2644POPC   C1B34855   3.170   6.043   8.548
 2644POPC   C2B34856   3.143   6.060   8.073
 2644POPC   C3B34857   3.252   6.255   7.659
 2644POPC   C4B34858   3.295   6.218   7.198
 2645POPC   NC334859  38.687   2.173   9.413
 2645POPC   PO434860  37.983   1.911   9.383
 2645POPC   GL134861  38.319   1.948   9.131
 2645POPC   GL234862  38.577   1.711   9.218
 2645POPC   C1A34863  38.512   2.064   8.742
 2645POPC   D2A34864  38.446   2.275   8.372
 2645POPC   C3A34865  38.578   2.044   8.040
 2645POPC   C4A34866  38.506   2.042   7.635
 2645POPC   C1B34867  38.408   1.556   8.810
 2645POPC   C2B34868  38.554   1.640   8.410
 2645POPC   C3B34869  38.415   1.554   8.031
 2645POPC   C4B34870  38.599   1.560   7.643
 2646POPC   NC334871  31.010  36.288   9.548
 2646POPC   PO434872  30.356  36.082   9.623
 2646POPC   GL134873  30.638  35.994   9.267
 2646POPC   GL234874  30.839  36.257   9.099
 2646POPC   C1A34875  30.609  35.931   8.817
 2646POPC   D2A34876  30.868  35.900   8.480
 2646POPC   C3A34877  30.646  36.029   8.138
 2646POPC   C4A34878  30.718  36.026   7.724
 2646POPC   C1B34879  31.075  36.307   8.716
 2646POPC   C2B34880  30.932  36.412   8.315
 2646POPC   C3B34881  31.090  36.284   7.919
 2646POPC   C4B34882  31.075  36.235   7.439
 2647POPC   NC334883  37.720  18.069   9.353
 2647POPC   PO434884  37.401  18.532   9.709
 2647POPC   GL134885  37.400  18.453   9.229
 2647POPC   GL234886  37.210  18.139   9.229
 2647POPC   C1A34887  37.586  18.381   8.776
 2647POPC   D2A34888  37.538  18.467   8.317
 2647POPC   C3A34889  37.768  18.394   7.915
 2647POPC   C4A34890  37.830  18.017   7.727
 2647POPC   C1B34891  37.168  18.085   8.791
 2647POPC   C2B34892  37.317  18.003   8.409
 2647POPC   C3B34893  37.338  18.122   7.979
 2647POPC   C4B34894  37.300  18.076   7.551
 2648POPC   NC334895  31.304  37.980   9.343
 2648POPC   PO434896  31.547  37.423   9.652
 2648POPC   GL134897  31.716  37.509   9.208
 2648POPC   GL234898  31.391  37.573   9.095
 2648POPC   C1A34899  31.714  37.528   8.714
 2648POPC   D2A34900  31.598  37.778   8.336
 2648POPC   C3A34901  31.430  37.625   7.959
 2648POPC   C4A34902  31.651  37.483   7.618
 2648POPC   C1B34903  31.213  37.760   8.713
 2648POPC   C2B34904  31.026  37.788   8.285
 2648POPC   C3B34905  31.078  37.992   7.866
 2648POPC   C4B34906  31.310  37.855   7.472
 2649POPC   NC334907  24.125  28.546   9.441
 2649POPC   PO434908  24.707  28.127   9.358
 2649POPC   GL134909  24.518  28.196   8.948
 2649POPC   GL234910  24.377  28.531   8.996
 2649POPC   C1A34911  24.500  28.400   8.516
 2649POPC   D2A34912  24.255  28.345   8.170
 2649POPC   C3A34913  24.466  28.144   7.877
 2649POPC   C4A34914  24.403  28.184   7.445
 2649POPC   C1B34915  24.836  28.589   8.846
 2649POPC   C2B34916  24.923  28.667   8.383
 2649POPC   C3B34917  24.684  28.637   7.966
 2649POPC   C4B34918  24.749  28.540   7.513
 2650POPC   NC334919  38.884  23.479   9.769
 2650POPC   PO434920  39.382  23.739   9.418
 2650POPC   GL134921  39.171  23.719   9.068
 2650POPC   GL234922  39.009  23.400   9.080
 2650POPC   C1A34923  39.260  23.885   8.681
 2650POPC   D2A34924  39.324  24.116   8.344
 2650POPC   C3A34925  39.432  23.889   8.034
 2650POPC   C4A34926  39.051  23.980   7.873
 2650POPC   C1B34927  39.217  23.372   8.700
 2650POPC   C2B34928  39.113  23.560   8.289
 2650POPC   C3B34929  39.175  23.477   7.834
 2650POPC   C4B34930  39.422  23.738   7.542
 2651POPC   NC334931   8.558  27.046   9.631
 2651POPC   PO434932   8.481  26.400   9.512
 2651POPC   GL134933   8.350  26.662   9.156
 2651POPC   GL234934   8.419  27.029   9.155
 2651POPC   C1A34935   8.177  26.615   8.729
 2651POPC   D2A34936   7.895  26.492   8.382
 2651POPC   C3A34937   8.089  26.658   8.044
 2651POPC   C4A34938   8.365  26.930   7.880
 2651POPC   C1B34939   8.213  27.170   8.805
 2651POPC   C2B34940   8.241  27.070   8.391
 2651POPC   C3B34941   7.947  27.158   8.102
 2651POPC   C4B34942   7.895  27.056   7.683
 2652POPC   NC334943  16.442   1.467   9.459
 2652POPC   PO434944  16.916   0.930   9.396
 2652POPC   GL134945  16.818   1.318   9.145
 2652POPC   GL234946  17.090   1.564   9.053
 2652POPC   C1A34947  16.525   1.252   8.809
 2652POPC   D2A34948  16.368   1.030   8.450
 2652POPC   C3A34949  16.573   1.064   8.037
 2652POPC   C4A34950  16.397   0.977   7.659
 2652POPC   C1B34951  17.060   1.231   8.700
 2652POPC   C2B34952  17.267   1.136   8.297
 2652POPC   C3B34953  17.081   0.972   7.910
 2652POPC   C4B34954  16.856   1.149   7.558
 2653POPC   NC334955   3.479   0.001   9.526
 2653POPC   PO434956   3.521  44.339   9.464
 2653POPC   GL134957   3.608  44.577   9.067
 2653POPC   GL234958   3.577  44.926   9.034
 2653POPC   C1A34959   3.716  44.604   8.617
 2653POPC   D2A34960   3.856  44.479   8.204
 2653POPC   C3A34961   3.581  44.263   7.918
 2653POPC   C4A34962   3.180  44.354   7.742
 2653POPC   C1B34963   3.305  44.891   8.700
 2653POPC   C2B34964   3.279  44.675   8.300
 2653POPC   C3B34965   3.155  44.826   7.910
 2653POPC   C4B34966   3.321  44.945   7.490
 2654POPC   NC334967   1.516   2.987   9.476
 2654POPC   PO434968   0.984   2.637   9.637
 2654POPC   GL134969   1.138   2.747   9.238
 2654POPC   GL234970   1.018   3.084   9.250
 2654POPC   C1A34971   1.233   2.698   8.813
 2654POPC   D2A34972   0.994   2.539   8.476
 2654POPC   C3A34973   1.032   2.718   8.059
 2654POPC   C4A34974   1.354   2.655   7.746
 2654POPC   C1B34975   0.900   3.092   8.823
 2654POPC   C2B34976   1.132   3.066   8.444
 2654POPC   C3B34977   1.087   3.240   8.045
 2654POPC   C4B34978   1.204   3.122   7.656
 2655POPC   NC334979  10.832  10.034   9.406
 2655POPC   PO434980  10.503   9.432   9.548
 2655POPC   GL134981  10.473   9.595   9.130
 2655POPC   GL234982  10.750   9.474   9.050
 2655POPC   C1A34983  10.435   9.872   8.764
 2655POPC   D2A34984  10.188   9.905   8.401
 2655POPC   C3A34985  10.374   9.766   8.038
 2655POPC   C4A34986  10.322   9.947   7.632
 2655POPC   C1B34987  10.786   9.529   8.655
 2655POPC   C2B34988  10.861   9.679   8.296
 2655POPC   C3B34989  10.800   9.439   7.973
 2655POPC   C4B34990  10.521   9.498   7.624
 2656POPC   NC334991  25.508  31.526   9.776
 2656POPC   PO434992  24.923  31.781   9.503
 2656POPC   GL134993  25.143  31.675   9.138
 2656POPC   GL234994  25.270  31.352   9.121
 2656POPC   C1A34995  25.170  31.805   8.713
 2656POPC   D2A34996  25.507  31.811   8.372
 2656POPC   C3A34997  25.317  31.693   8.010
 2656POPC   C4A34998  24.998  31.809   7.729
 2656POPC   C1B34999  24.890  31.383   8.822
 2656POPC   C2B35000  24.843  31.191   8.433
 2656POPC   C3B35001  24.963  31.059   8.038
 2656POPC   C4B35002  25.126  31.294   7.731
 2657POPC   NC335003   0.294  34.428   9.440
 2657POPC   PO435004   0.899  34.583   9.701
 2657POPC   GL135005   0.783  34.485   9.193
 2657POPC   GL235006   0.656  34.139   9.208
 2657POPC   C1A35007   0.696  34.725   8.741
 2657POPC   D2A35008   0.353  34.948   8.516
 2657POPC   C3A35009   0.424  34.915   8.075
 2657POPC   C4A35010   0.366  34.825   7.628
 2657POPC   C1B35011   0.505  34.257   8.790
 2657POPC   C2B35012   0.559  34.422   8.355
 2657POPC   C3B35013   0.488  34.412   7.906
 2657POPC   C4B35014   0.564  34.355   7.452
 2658POPC   NC335015  42.609  16.959   9.378
 2658POPC   PO435016  42.698  16.338   9.384
 2658POPC   GL135017  42.418  16.536   9.128
 2658POPC   GL235018  42.148  16.795   9.224
 2658POPC   C1A35019  42.562  16.752   8.777
 2658POPC   D2A35020  42.485  16.917   8.424
 2658POPC   C3A35021  42.510  16.665   8.083
 2658POPC   C4A35022  42.594  16.976   7.814
 2658POPC   C1B35023  42.055  16.689   8.802
 2658POPC   C2B35024  42.042  16.660   8.370
 2658POPC   C3B35025  42.094  16.948   8.043
 2658POPC   C4B35026  42.136  16.787   7.667
 2659POPC   NC335027  25.813  20.258   9.299
 2659POPC   PO435028  26.318  19.844   9.632
 2659POPC   GL135029  26.079  19.823   9.230
 2659POPC   GL235030  26.263  20.006   9.011
 2659POPC   C1A35031  25.853  19.824   8.792
 2659POPC   D2A35032  26.097  19.885   8.430
 2659POPC   C3A35033  26.190  19.533   8.185
 2659POPC   C4A35034  26.178  19.459   7.754
 2659POPC   C1B35035  26.416  20.235   8.672
 2659POPC   C2B35036  26.366  20.323   8.229
 2659POPC   C3B35037  26.284  19.985   7.945
 2659POPC   C4B35038  25.850  19.874   7.845
 2660POPC   NC335039  11.762  23.931   9.548
 2660POPC   PO435040  12.239  23.486   9.411
 2660POPC   GL135041  12.118  23.801   9.121
 2660POPC   GL235042  11.786  23.844   9.050
 2660POPC   C1A35043  12.233  23.785   8.693
 2660POPC   D2A35044  12.092  23.903   8.297
 2660POPC   C3A35045  12.143  23.618   7.965
 2660POPC   C4A35046  12.267  23.660   7.546
 2660POPC   C1B35047  11.778  23.479   8.838
 2660POPC   C2B35048  11.824  23.483   8.404
 2660POPC   C3B35049  11.650  23.666   8.026
 2660POPC   C4B35050  11.671  23.445   7.707
 2661POPC   NC335051  24.487   8.427   9.530
 2661POPC   PO435052  23.985   8.060   9.482
 2661POPC   GL135053  24.216   8.128   9.122
 2661POPC   GL235054  24.572   8.255   9.061
 2661POPC   C1A35055  24.201   8.214   8.702
 2661POPC   D2A35056  24.325   8.066   8.306
 2661POPC   C3A35057  24.500   8.227   7.925
 2661POPC   C4A35058  24.261   8.136   7.523
 2661POPC   C1B35059  24.605   8.535   8.695
 2661POPC   C2B35060  24.629   8.618   8.290
 2661POPC   C3B35061  24.844   8.651   7.923
 2661POPC   C4B35062  24.907   8.425   7.520
 2662POPC   NC335063   0.077  10.993   9.346
 2662POPC   PO435064   0.079  10.288   9.507
 2662POPC   GL135065   0.338  10.501   9.161
 2662POPC   GL235066   0.548  10.795   9.262
 2662POPC   C1A35067   0.515  10.308   8.726
 2662POPC   D2A35068   0.512  10.435   8.278
 2662POPC   C3A35069   0.615  10.349   7.848
 2662POPC   C4A35070   0.483  10.690   7.569
 2662POPC   C1B35071   0.648  10.790   8.815
 2662POPC   C2B35072   0.837  10.874   8.380
 2662POPC   C3B35073   0.864  10.780   7.927
 2662POPC   C4B35074   1.010  10.658   7.496
 2663POPC   NC335075   0.551   3.270   9.439
 2663POPC   PO435076   0.199   3.968   9.446
 2663POPC   GL135077   0.290   3.596   9.161
 2663POPC   GL235078   0.075   3.272   9.198
 2663POPC   C1A35079   0.557   3.498   8.784
 2663POPC   D2A35080   0.720   3.376   8.385
 2663POPC   C3A35081   0.745   3.622   7.962
 2663POPC   C4A35082   0.789   3.413   7.522
 2663POPC   C1B35083   0.257   3.088   8.830
 2663POPC   C2B35084   0.222   3.184   8.402
 2663POPC   C3B35085   0.435   3.217   8.016
 2663POPC   C4B35086   0.316   3.472   7.679
 2664POPC   NC335087   7.152  42.915   9.458
 2664POPC   PO435088   7.568  43.372   9.424
 2664POPC   GL135089   7.440  43.111   9.088
 2664POPC   GL235090   7.531  42.764   9.111
 2664POPC   C1A35091   7.252  43.186   8.704
 2664POPC   D2A35092   7.135  43.456   8.377
 2664POPC   C3A35093   7.332  43.287   8.022
 2664POPC   C4A35094   7.141  43.037   7.748
 2664POPC   C1B35095   7.672  42.867   8.707
 2664POPC   C2B35096   7.493  42.904   8.313
 2664POPC   C3B35097   7.518  42.709   7.921
 2664POPC   C4B35098   7.408  42.738   7.449
 2665POPC   NC335099  19.704  21.474   9.555
 2665POPC   PO435100  19.284  20.962   9.405
 2665POPC   GL135101  19.656  21.206   9.138
 2665POPC   GL235102  19.827  21.545   9.063
 2665POPC   C1A35103  19.943  21.139   8.781
 2665POPC   D2A35104  19.746  21.202   8.393
 2665POPC   C3A35105  19.972  21.115   7.993
 2665POPC   C4A35106  19.729  21.365   7.749
 2665POPC   C1B35107  19.705  21.687   8.640
 2665POPC   C2B35108  19.680  21.648   8.185
 2665POPC   C3B35109  19.925  21.828   7.860
 2665POPC   C4B35110  19.901  21.973   7.462
 2666POPC   NC335111  23.740  21.841   9.445
 2666POPC   PO435112  23.921  22.436   9.289
 2666POPC   GL135113  23.789  22.210   8.927
 2666POPC   GL235114  23.538  21.948   8.994
 2666POPC   C1A35115  23.860  21.938   8.569
 2666POPC   D2A35116  24.163  21.906   8.243
 2666POPC   C3A35117  23.940  22.040   7.903
 2666POPC   C4A35118  23.740  22.226   7.550
 2666POPC   C1B35119  23.359  22.105   8.624
 2666POPC   C2B35120  23.523  22.127   8.209
 2666POPC   C3B35121  23.445  21.907   7.840
 2666POPC   C4B35122  23.249  22.047   7.485
 2667POPC   NC335123  24.067  26.910   9.759
 2667POPC   PO435124  24.644  26.551   9.759
 2667POPC   GL135125  24.611  26.747   9.320
 2667POPC   GL235126  24.290  26.903   9.243
 2667POPC   C1A35127  24.697  26.797   8.865
 2667POPC   D2A35128  24.599  26.975   8.449
 2667POPC   C3A35129  24.647  26.721   8.090
 2667POPC   C4A35130  24.580  26.725   7.618
 2667POPC   C1B35131  24.221  26.999   8.800
 2667POPC   C2B35132  24.089  26.881   8.360
 2667POPC   C3B35133  24.219  26.924   7.932
 2667POPC   C4B35134  24.244  27.247   7.642
 2668POPC   NC335135  31.103  43.559   9.221
 2668POPC   PO435136  31.445  44.099   9.594
 2668POPC   GL135137  31.488  43.938   9.160
 2668POPC   GL235138  31.783  43.727   9.092
 2668POPC   C1A35139  31.401  44.078   8.711
 2668POPC   D2A35140  31.201  44.281   8.323
 2668POPC   C3A35141  31.261  44.105   7.926
 2668POPC   C4A35142  31.555  43.928   7.665
 2668POPC   C1B35143  31.760  43.707   8.651
 2668POPC   C2B35144  31.637  43.861   8.243
 2668POPC   C3B35145  31.781  43.559   7.931
 2668POPC   C4B35146  31.616  43.405   7.542
 2669POPC   NC335147  33.382   4.827   9.538
 2669POPC   PO435148  33.991   4.935   9.502
 2669POPC   GL135149  33.723   5.172   9.252
 2669POPC   GL235150  33.624   4.873   9.083
 2669POPC   C1A35151  33.657   5.422   8.861
 2669POPC   D2A35152  33.741   5.291   8.425
 2669POPC   C3A35153  33.658   5.468   8.024
 2669POPC   C4A35154  33.371   5.269   7.753
 2669POPC   C1B35155  33.809   4.864   8.687
 2669POPC   C2B35156  33.696   4.817   8.257
 2669POPC   C3B35157  33.753   4.886   7.812
 2669POPC   C4B35158  34.158   4.885   7.561
 2670POPC   NC335159  11.745  28.960   9.619
 2670POPC   PO435160  12.210  29.271   9.712
 2670POPC   GL135161  12.081  29.146   9.254
 2670POPC   GL235162  12.028  28.777   9.186
 2670POPC   C1A35163  11.935  29.217   8.806
 2670POPC   D2A35164  12.047  29.294   8.343
 2670POPC   C3A35165  11.836  28.988   8.108
 2670POPC   C4A35166  11.683  28.912   7.719
 2670POPC   C1B35167  12.318  28.860   8.805
 2670POPC   C2B35168  12.330  28.843   8.328
 2670POPC   C3B35169  12.262  28.869   7.845
 2670POPC   C4B35170  12.361  29.081   7.436
 2671POPC   NC335171  20.457  14.879   9.500
 2671POPC   PO435172  20.668  14.348   9.686
 2671POPC   GL135173  20.705  14.483   9.194
 2671POPC   GL235174  20.549  14.201   9.011
 2671POPC   C1A35175  20.766  14.543   8.694
 2671POPC   D2A35176  20.981  14.462   8.261
 2671POPC   C3A35177  20.712  14.389   7.872
 2671POPC   C4A35178  20.511  14.406   7.436
 2671POPC   C1B35179  20.858  14.042   8.698
 2671POPC   C2B35180  20.915  13.943   8.266
 2671POPC   C3B35181  20.592  13.898   7.922
 2671POPC   C4B35182  20.223  14.189   7.808
 2672POPC   NC335183  43.412  10.768   9.485
 2672POPC   PO435184  43.990  10.428   9.673
 2672POPC   GL135185  43.980  10.305   9.230
 2672POPC   GL235186  44.307  10.215   9.197
 2672POPC   C1A35187  43.862  10.475   8.814
 2672POPC   D2A35188  43.749  10.744   8.462
 2672POPC   C3A35189  43.697  10.587   8.053
 2672POPC   C4A35190  43.942  10.508   7.708
 2672POPC   C1B35191  44.195  10.094   8.757
 2672POPC   C2B35192  43.975  10.207   8.356
 2672POPC   C3B35193  44.221  10.132   7.921
 2672POPC   C4B35194  44.247  10.237   7.431
 2673POPC   NC335195  17.429  37.812  10.172
 2673POPC   PO435196  17.529  37.439   9.598
 2673POPC   GL135197  17.496  37.528   9.182
 2673POPC   GL235198  17.741  37.256   9.148
 2673POPC   C1A35199  17.496  37.891   8.877
 2673POPC   D2A35200  17.276  38.083   8.542
 2673POPC   C3A35201  17.348  37.884   8.139
 2673POPC   C4A35202  17.072  37.995   7.780
 2673POPC   C1B35203  17.862  37.559   8.830
 2673POPC   C2B35204  17.953  37.617   8.408
 2673POPC   C3B35205  17.770  37.603   7.993
 2673POPC   C4B35206  17.904  37.715   7.596
 2674POPC   NC335207  14.376  18.745   9.518
 2674POPC   PO435208  14.855  19.283   9.531
 2674POPC   GL135209  14.593  19.080   9.190
 2674POPC   GL235210  14.296  19.247   9.173
 2674POPC   C1A35211  14.323  18.900   8.824
 2674POPC   D2A35212  14.154  19.065   8.451
 2674POPC   C3A35213  14.274  18.885   8.086
 2674POPC   C4A35214  14.270  18.840   7.662
 2674POPC   C1B35215  14.478  19.384   8.779
 2674POPC   C2B35216  14.380  19.518   8.363
 2674POPC   C3B35217  14.545  19.342   7.990
 2674POPC   C4B35218  14.733  19.475   7.592
 2675POPC   NC335219  18.025   4.523   9.463
 2675POPC   PO435220  17.449   4.134   9.456
 2675POPC   GL135221  17.659   4.278   9.125
 2675POPC   GL235222  17.934   4.109   9.095
 2675POPC   C1A35223  17.481   4.245   8.721
 2675POPC   D2A35224  17.323   4.373   8.315
 2675POPC   C3A35225  17.136   4.098   8.017
 2675POPC   C4A35226  17.209   4.138   7.601
 2675POPC   C1B35227  17.889   3.952   8.685
 2675POPC   C2B35228  17.825   4.204   8.330
 2675POPC   C3B35229  17.649   4.215   7.928
 2675POPC   C4B35230  17.773   3.958   7.636
 2676POPC   NC335231  12.940   9.229   9.470
 2676POPC   PO435232  12.586   8.683   9.628
 2676POPC   GL135233  12.723   8.834   9.148
 2676POPC   GL235234  12.826   9.187   8.991
 2676POPC   C1A35235  12.912   8.832   8.669
 2676POPC   D2A35236  13.014   9.092   8.297
 2676POPC   C3A35237  12.999   8.907   7.868
 2676POPC   C4A35238  12.665   8.771   7.584
 2676POPC   C1B35239  12.471   9.109   8.700
 2676POPC   C2B35240  12.267   8.882   8.358
 2676POPC   C3B35241  12.357   8.989   7.942
 2676POPC   C4B35242  12.684   9.326   7.922
 2677POPC   NC335243  40.927  16.901   9.478
 2677POPC   PO435244  40.367  16.491   9.380
 2677POPC   GL135245  40.718  16.571   9.125
 2677POPC   GL235246  41.059  16.425   9.214
 2677POPC   C1A35247  40.665  16.706   8.713
 2677POPC   D2A35248  40.551  16.588   8.289
 2677POPC   C3A35249  40.729  16.871   7.951
 2677POPC   C4A35250  40.577  16.883   7.503
 2677POPC   C1B35251  41.192  16.594   8.807
 2677POPC   C2B35252  41.042  16.692   8.377
 2677POPC   C3B35253  41.185  16.619   7.970
 2677POPC   C4B35254  41.089  16.818   7.580
 2678POPC   NC335255  22.710  20.044   9.626
 2678POPC   PO435256  23.290  19.608   9.510
 2678POPC   GL135257  23.133  19.857   9.142
 2678POPC   GL235258  22.783  19.918   9.153
 2678POPC   C1A35259  23.117  19.722   8.706
 2678POPC   D2A35260  23.160  19.420   8.353
 2678POPC   C3A35261  23.220  19.632   7.964
 2678POPC   C4A35262  22.985  19.970   7.814
 2678POPC   C1B35263  22.647  19.598   8.905
 2678POPC   C2B35264  22.629  19.644   8.463
 2678POPC   C3B35265  22.699  19.564   8.010
 2678POPC   C4B35266  22.714  19.645   7.548
 2679POPC   NC335267  33.425  11.215   9.546
 2679POPC   PO435268  33.957  11.684   9.485
 2679POPC   GL135269  33.732  11.585   9.103
 2679POPC   GL235270  33.724  11.215   9.129
 2679POPC   C1A35271  33.877  11.440   8.672
 2679POPC   D2A35272  34.124  11.089   8.451
 2679POPC   C3A35273  33.975  11.012   8.044
 2679POPC   C4A35274  33.992  11.264   7.667
 2679POPC   C1B35275  33.743  10.933   8.766
 2679POPC   C2B35276  33.582  11.047   8.370
 2679POPC   C3B35277  33.480  10.923   7.951
 2679POPC   C4B35278  33.752  10.822   7.554
 2680POPC   NC335279  21.854  20.035   9.539
 2680POPC   PO435280  22.419  19.680   9.692
 2680POPC   GL135281  22.283  19.832   9.298
 2680POPC   GL235282  21.962  19.635   9.252
 2680POPC   C1A35283  22.313  20.054   8.887
 2680POPC   D2A35284  22.038  19.987   8.514
 2680POPC   C3A35285  22.265  19.842   8.152
 2680POPC   C4A35286  22.484  20.028   7.837
 2680POPC   C1B35287  22.137  19.570   8.873
 2680POPC   C2B35288  22.105  19.472   8.498
 2680POPC   C3B35289  21.813  19.608   8.187
 2680POPC   C4B35290  21.947  19.614   7.792
 2681POPC   NC335291  38.904  33.579   9.543
 2681POPC   PO435292  38.322  34.000   9.551
 2681POPC   GL135293  38.518  33.815   9.206
 2681POPC   GL235294  38.570  33.455   9.169
 2681POPC   C1A35295  38.610  33.889   8.785
 2681POPC   D2A35296  38.516  34.146   8.430
 2681POPC   C3A35297  38.495  33.977   8.056
 2681POPC   C4A35298  38.687  34.055   7.680
 2681POPC   C1B35299  38.237  33.514   8.858
 2681POPC   C2B35300  38.272  33.378   8.435
 2681POPC   C3B35301  38.217  33.541   8.011
 2681POPC   C4B35302  38.548  33.568   7.709
 2682POPC   NC335303   9.547  33.729   9.450
 2682POPC   PO435304  10.160  34.079   9.489
 2682POPC   GL135305   9.927  33.980   9.159
 2682POPC   GL235306  10.011  33.650   9.050
 2682POPC   C1A35307   9.671  33.915   8.799
 2682POPC   D2A35308   9.841  33.761   8.418
 2682POPC   C3A35309   9.688  33.956   8.012
 2682POPC   C4A35310  10.075  34.079   7.760
 2682POPC   C1B35311   9.731  33.412   8.811
 2682POPC   C2B35312   9.763  33.207   8.442
 2682POPC   C3B35313   9.640  33.405   8.066
 2682POPC   C4B35314   9.890  33.585   7.755
 2683POPC   NC335315  23.260   9.430   9.489
 2683POPC   PO435316  22.810   8.923   9.706
 2683POPC   GL135317  22.972   8.978   9.227
 2683POPC   GL235318  23.123   9.203   9.005
 2683POPC   C1A35319  22.839   8.838   8.768
 2683POPC   D2A35320  22.999   8.908   8.357
 2683POPC   C3A35321  22.759   9.043   7.994
 2683POPC   C4A35322  23.095   8.914   7.660
 2683POPC   C1B35323  22.826   9.324   8.644
 2683POPC   C2B35324  23.081   9.432   8.332
 2683POPC   C3B35325  23.148   9.325   7.940
 2683POPC   C4B35326  22.833   9.339   7.582
 2684POPC   NC335327  11.200  30.488   9.430
 2684POPC   PO435328  11.384  29.764   9.440
 2684POPC   GL135329  11.273  29.949   9.078
 2684POPC   GL235330  11.510  30.194   9.095
 2684POPC   C1A35331  11.110  29.834   8.679
 2684POPC   D2A35332  11.301  29.745   8.280
 2684POPC   C3A35333  11.108  29.547   7.918
 2684POPC   C4A35334  11.036  29.858   7.613
 2684POPC   C1B35335  11.692  30.166   8.712
 2684POPC   C2B35336  11.639  30.367   8.315
 2684POPC   C3B35337  11.723  30.037   8.066
 2684POPC   C4B35338  11.539  29.904   7.709
 2685POPC   NC335339  36.904  21.558   9.594
 2685POPC   PO435340  37.275  21.013   9.515
 2685POPC   GL135341  37.013  21.235   9.154
 2685POPC   GL235342  36.699  21.477   9.139
 2685POPC   C1A35343  36.791  21.232   8.723
 2685POPC   D2A35344  36.701  21.463   8.361
 2685POPC   C3A35345  36.802  21.320   7.947
 2685POPC   C4A35346  37.034  21.268   7.515
 2685POPC   C1B35347  37.022  21.715   8.902
 2685POPC   C2B35348  37.080  21.916   8.498
 2685POPC   C3B35349  36.895  21.853   8.090
 2685POPC   C4B35350  36.809  21.736   7.668
 2686POPC   NC335351   6.058  31.183   9.481
 2686POPC   PO435352   5.603  31.631   9.656
 2686POPC   GL135353   5.866  31.596   9.227
 2686POPC   GL235354   5.940  31.294   9.017
 2686POPC   C1A35355   5.915  31.740   8.758
 2686POPC   D2A35356   6.205  31.759   8.391
 2686POPC   C3A35357   6.005  31.700   7.966
 2686POPC   C4A35358   5.904  31.591   7.519
 2686POPC   C1B35359   6.220  31.300   8.634
 2686POPC   C2B35360   6.259  31.288   8.177
 2686POPC   C3B35361   6.096  31.200   7.768
 2686POPC   C4B35362   5.742  31.126   7.486
 2687POPC   NC335363  30.393   7.354   9.506
 2687POPC   PO435364  31.059   7.105   9.481
 2687POPC   GL135365  30.839   7.354   9.145
 2687POPC   GL235366  30.499   7.259   9.026
 2687POPC   C1A35367  30.783   7.585   8.733
 2687POPC   D2A35368  30.664   7.469   8.305
 2687POPC   C3A35369  30.779   7.673   7.929
 2687POPC   C4A35370  30.647   7.682   7.508
 2687POPC   C1B35371  30.269   7.352   8.628
 2687POPC   C2B35372  30.145   7.414   8.183
 2687POPC   C3B35373  30.366   7.341   7.806
 2687POPC   C4B35374  30.479   7.143   7.423
 2688POPC   NC335375  23.600  27.510   9.554
 2688POPC   PO435376  24.037  28.076   9.600
 2688POPC   GL135377  23.818  27.868   9.180
 2688POPC   GL235378  23.750  27.490   9.091
 2688POPC   C1A35379  23.671  27.768   8.708
 2688POPC   D2A35380  23.786  27.488   8.388
 2688POPC   C3A35381  23.576  27.602   8.046
 2688POPC   C4A35382  23.800  27.537   7.700
 2688POPC   C1B35383  23.338  27.368   8.900
 2688POPC   C2B35384  23.264  27.393   8.433
 2688POPC   C3B35385  23.225  27.226   8.005
 2688POPC   C4B35386  23.407  27.214   7.608
 2689POPC   NC335387  10.473  24.781   9.368
 2689POPC   PO435388  10.693  24.262   9.442
 2689POPC   GL135389  10.619  24.429   9.013
 2689POPC   GL235390  10.247  24.498   8.979
 2689POPC   C1A35391  10.507  24.514   8.554
 2689POPC   D2A35392  10.197  24.747   8.353
 2689POPC   C3A35393  10.341  24.868   7.968
 2689POPC   C4A35394  10.742  24.713   7.828
 2689POPC   C1B35395  10.300  24.097   8.772
 2689POPC   C2B35396  10.500  24.016   8.393
 2689POPC   C3B35397  10.283  24.062   8.020
 2689POPC   C4B35398  10.332  24.404   7.753
 2690POPC   NC335399   2.075  43.493   9.374
 2690POPC   PO435400   1.645  42.979   9.496
 2690POPC   GL135401   1.789  43.142   9.144
 2690POPC   GL235402   1.593  43.448   9.135
 2690POPC   C1A35403   2.091  43.221   8.792
 2690POPC   D2A35404   2.284  43.004   8.475
 2690POPC   C3A35405   2.130  42.996   8.097
 2690POPC   C4A35406   2.207  43.187   7.697
 2690POPC   C1B35407   1.588  43.266   8.709
 2690POPC   C2B35408   1.686  43.103   8.344
 2690POPC   C3B35409   1.722  43.233   7.940
 2690POPC   C4B35410   1.802  42.850   7.745
 2691POPC   NC335411  28.750  31.888   9.331
 2691POPC   PO435412  29.106  31.389   9.627
 2691POPC   GL135413  29.134  31.523   9.209
 2691POPC   GL235414  28.807  31.371   9.179
 2691POPC   C1A35415  29.076  31.564   8.750
 2691POPC   D2A35416  29.182  31.274   8.413
 2691POPC   C3A35417  28.990  31.219   8.008
 2691POPC   C4A35418  29.290  31.304   7.655
 2691POPC   C1B35419  28.603  31.326   8.784
 2691POPC   C2B35420  28.656  31.598   8.432
 2691POPC   C3B35421  28.963  31.737   8.135
 2691POPC   C4B35422  28.896  31.634   7.699
 2692POPC   NC335423  42.015  15.430   9.412
 2692POPC   PO435424  41.515  14.948   9.579
 2692POPC   GL135425  41.511  15.174   9.185
 2692POPC   GL235426  41.157  15.237   9.214
 2692POPC   C1A35427  41.589  15.326   8.761
 2692POPC   D2A35428  41.834  15.193   8.395
 2692POPC   C3A35429  41.633  15.229   8.045
 2692POPC   C4A35430  41.610  15.471   7.725
 2692POPC   C1B35431  41.138  15.055   8.798
 2692POPC   C2B35432  41.210  15.232   8.375
 2692POPC   C3B35433  41.198  14.987   7.993
 2692POPC   C4B35434  41.350  14.977   7.594
 2693POPC   NC335435  26.457   1.493   9.410
 2693POPC   PO435436  26.012   2.017   9.676
 2693POPC   GL135437  26.102   1.916   9.220
 2693POPC   GL235438  25.821   1.849   9.018
 2693POPC   C1A35439  26.233   2.030   8.754
 2693POPC   D2A35440  26.176   1.889   8.324
 2693POPC   C3A35441  26.198   2.133   7.953
 2693POPC   C4A35442  26.056   1.973   7.518
 2693POPC   C1B35443  25.723   2.045   8.629
 2693POPC   C2B35444  25.669   1.846   8.292
 2693POPC   C3B35445  25.795   1.842   7.930
 2693POPC   C4B35446  25.730   2.280   7.743
 2694POPC   NC335447  14.623  21.013   9.428
 2694POPC   PO435448  14.196  21.455   9.671
 2694POPC   GL135449  14.143  21.497   9.242
 2694POPC   GL235450  14.257  21.181   9.114
 2694POPC   C1A35451  14.147  21.533   8.808
 2694POPC   D2A35452  14.248  21.324   8.433
 2694POPC   C3A35453  14.086  21.428   8.053
 2694POPC   C4A35454  14.133  21.134   7.773
 2694POPC   C1B35455  14.538  21.067   8.772
 2694POPC   C2B35456  14.692  20.994   8.338
 2694POPC   C3B35457  14.639  21.201   7.926
 2694POPC   C4B35458  14.468  21.587   7.725
 2695POPC   NC335459  31.035  17.279   9.553
 2695POPC   PO435460  30.474  17.707   9.468
 2695POPC   GL135461  30.789  17.557   9.179
 2695POPC   GL235462  31.090  17.727   9.053
 2695POPC   C1A35463  30.675  17.355   8.815
 2695POPC   D2A35464  30.487  17.564   8.459
 2695POPC   C3A35465  30.531  17.465   8.058
 2695POPC   C4A35466  30.790  17.350   7.761
 2695POPC   C1B35467  31.021  17.655   8.623
 2695POPC   C2B35468  30.967  17.387   8.296
 2695POPC   C3B35469  31.156  17.642   7.987
 2695POPC   C4B35470  31.175  17.883   7.611
 2696POPC   NC335471   8.944   5.508   9.345
 2696POPC   PO435472   9.241   6.083   9.184
 2696POPC   GL135473   8.836   6.087   8.975
 2696POPC   GL235474   8.697   5.735   8.953
 2696POPC   C1A35475   8.794   6.035   8.530
 2696POPC   D2A35476   8.928   5.755   8.233
 2696POPC   C3A35477   9.022   5.951   7.914
 2696POPC   C4A35478   8.798   6.269   7.736
 2696POPC   C1B35479   9.100   5.631   8.713
 2696POPC   C2B35480   9.413   5.679   8.376
 2696POPC   C3B35481   9.340   5.445   8.030
 2696POPC   C4B35482   8.981   5.453   7.807
 2697POPC   NC335483  28.142  21.299   9.484
 2697POPC   PO435484  28.815  21.430   9.453
 2697POPC   GL135485  28.529  21.408   9.143
 2697POPC   GL235486  28.320  21.723   9.118
 2697POPC   C1A35487  28.591  21.426   8.731
 2697POPC   D2A35488  28.757  21.509   8.384
 2697POPC   C3A35489  28.427  21.558   8.161
 2697POPC   C4A35490  28.308  21.571   7.749
 2697POPC   C1B35491  28.091  21.409   8.834
 2697POPC   C2B35492  28.163  21.219   8.451
 2697POPC   C3B35493  28.069  21.218   8.042
 2697POPC   C4B35494  28.235  21.056   7.655
 2698POPC   NC335495   6.203  18.737   9.425
 2698POPC   PO435496   5.793  19.213   9.508
 2698POPC   GL135497   5.804  18.996   9.158
 2698POPC   GL235498   6.127  19.172   9.115
 2698POPC   C1A35499   5.548  18.827   8.809
 2698POPC   D2A35500   5.613  18.962   8.388
 2698POPC   C3A35501   5.506  18.742   8.032
 2698POPC   C4A35502   5.484  18.979   7.695
 2698POPC   C1B35503   5.947  19.194   8.713
 2698POPC   C2B35504   6.126  19.047   8.339
 2698POPC   C3B35505   5.954  19.185   7.959
 2698POPC   C4B35506   6.157  19.158   7.569
 2699POPC   NC335507  39.656  19.264   9.365
 2699POPC   PO435508  39.990  18.710   9.691
 2699POPC   GL135509  40.052  18.998   9.295
 2699POPC   GL235510  39.720  18.810   9.149
 2699POPC   C1A35511  40.252  19.088   8.872
 2699POPC   D2A35512  40.250  19.312   8.478
 2699POPC   C3A35513  40.180  19.090   8.083
 2699POPC   C4A35514  39.978  19.220   7.732
 2699POPC   C1B35515  39.753  19.038   8.754
 2699POPC   C2B35516  39.902  18.834   8.409
 2699POPC   C3B35517  39.766  18.811   7.979
 2699POPC   C4B35518  40.009  18.721   7.647
 2700POPC   NC335519  41.013  17.783   9.426
 2700POPC   PO435520  40.577  17.237   9.479
 2700POPC   GL135521  40.766  17.401   9.137
 2700POPC   GL235522  40.633  17.739   9.122
 2700POPC   C1A35523  40.797  17.215   8.732
 2700POPC   D2A35524  40.625  17.205   8.338
 2700POPC   C3A35525  40.816  17.460   8.043
 2700POPC   C4A35526  40.833  17.306   7.649
 2700POPC   C1B35527  40.832  17.740   8.732
 2700POPC   C2B35528  40.539  17.724   8.411
 2700POPC   C3B35529  40.520  17.911   8.008
 2700POPC   C4B35530  40.789  17.824   7.659
 2701POPC   NC335531  31.029  25.837   9.704
 2701POPC   PO435532  30.472  26.191   9.803
 2701POPC   GL135533  30.693  25.930   9.337
 2701POPC   GL235534  31.061  25.868   9.198
 2701POPC   C1A35535  30.754  25.968   8.818
 2701POPC   D2A35536  30.702  25.960   8.392
 2701POPC   C3A35537  30.396  26.115   8.108
 2701POPC   C4A35538  30.530  26.117   7.706
 2701POPC   C1B35539  31.195  26.193   8.867
 2701POPC   C2B35540  31.091  26.280   8.421
 2701POPC   C3B35541  31.002  26.127   8.002
 2701POPC   C4B35542  31.008  26.235   7.577
 2702POPC   NC335543   8.651  18.373   9.546
 2702POPC   PO435544   8.116  18.746   9.524
 2702POPC   GL135545   8.127  18.395   9.232
 2702POPC   GL235546   8.307  18.059   9.284
 2702POPC   C1A35547   8.297  18.290   8.836
 2702POPC   D2A35548   8.474  18.287   8.464
 2702POPC   C3A35549   8.333  18.524   8.155
 2702POPC   C4A35550   8.160  18.520   7.765
 2702POPC   C1B35551   8.051  17.843   8.953
 2702POPC   C2B35552   7.971  17.918   8.513
 2702POPC   C3B35553   8.089  18.062   8.097
 2702POPC   C4B35554   8.012  17.883   7.685
 2703POPC   NC335555  33.755   9.421   9.524
 2703POPC   PO435556  33.554  10.041   9.429
 2703POPC   GL135557  33.781   9.820   9.114
 2703POPC   GL235558  33.547   9.540   9.093
 2703POPC   C1A35559  34.047   9.890   8.718
 2703POPC   D2A35560  34.006  10.087   8.276
 2703POPC   C3A35561  34.149   9.821   7.917
 2703POPC   C4A35562  34.067   9.413   7.644
 2703POPC   C1B35563  33.519   9.698   8.682
 2703POPC   C2B35564  33.729   9.486   8.346
 2703POPC   C3B35565  33.690   9.563   7.925
 2703POPC   C4B35566  33.668  10.002   7.852
 2704POPC   NC335567  32.871  21.152   9.493
 2704POPC   PO435568  33.310  21.615   9.396
 2704POPC   GL135569  33.086  21.449   9.087
 2704POPC   GL235570  33.201  21.141   9.093
 2704POPC   C1A35571  33.186  21.348   8.647
 2704POPC   D2A35572  33.367  21.276   8.260
 2704POPC   C3A35573  33.143  21.487   7.934
 2704POPC   C4A35574  33.150  21.515   7.470
 2704POPC   C1B35575  32.792  21.064   8.823
 2704POPC   C2B35576  32.649  20.918   8.411
 2704POPC   C3B35577  32.925  20.981   8.060
 2704POPC   C4B35578  32.962  21.081   7.653
 2705POPC   NC335579  41.939  37.805   9.473
 2705POPC   PO435580  42.433  37.434   9.537
 2705POPC   GL135581  42.310  37.558   9.173
 2705POPC   GL235582  41.996  37.372   9.177
 2705POPC   C1A35583  42.470  37.503   8.764
 2705POPC   D2A35584  42.579  37.693   8.355
 2705POPC   C3A35585  42.539  37.507   7.960
 2705POPC   C4A35586  42.572  37.736   7.589
 2705POPC   C1B35587  41.990  37.657   8.793
 2705POPC   C2B35588  42.014  37.638   8.326
 2705POPC   C3B35589  42.079  37.697   7.870
 2705POPC   C4B35590  41.938  38.029   7.622
 2706POPC   NC335591  12.159   7.215   9.266
 2706POPC   PO435592  11.796   6.688   9.627
 2706POPC   GL135593  11.854   6.569   9.196
 2706POPC   GL235594  12.196   6.556   9.230
 2706POPC   C1A35595  11.848   6.792   8.765
 2706POPC   D2A35596  11.958   7.008   8.361
 2706POPC   C3A35597  12.081   6.752   7.992
 2706POPC   C4A35598  11.956   6.684   7.542
 2706POPC   C1B35599  12.141   6.381   8.804
 2706POPC   C2B35600  12.230   6.498   8.416
 2706POPC   C3B35601  12.307   6.298   8.042
 2706POPC   C4B35602  12.400   6.488   7.697
 2707POPC   NC335603  36.627  44.333   9.306
 2707POPC   PO435604  36.090  44.722   9.458
 2707POPC   GL135605  36.333  44.731   9.123
 2707POPC   GL235606  36.607  44.912   9.230
 2707POPC   C1A35607  36.227  44.613   8.718
 2707POPC   D2A35608  35.922  44.771   8.405
 2707POPC   C3A35609  36.073  44.749   7.993
 2707POPC   C4A35610  35.882  44.653   7.591
 2707POPC   C1B35611  36.612  44.989   8.790
 2707POPC   C2B35612  36.405  44.939   8.374
 2707POPC   C3B35613  36.586  44.850   7.974
 2707POPC   C4B35614  36.392  44.774   7.559
 2708POPC   NC335615  29.445   4.678   9.528
 2708POPC   PO435616  29.048   4.067   9.426
 2708POPC   GL135617  29.145   4.360   9.088
 2708POPC   GL235618  29.459   4.512   9.036
 2708POPC   C1A35619  28.965   4.312   8.690
 2708POPC   D2A35620  28.842   4.236   8.261
 2708POPC   C3A35621  29.030   4.458   7.935
 2708POPC   C4A35622  28.949   4.106   7.722
 2708POPC   C1B35623  29.339   4.641   8.617
 2708POPC   C2B35624  29.378   4.319   8.310
 2708POPC   C3B35625  29.407   4.105   7.912
 2708POPC   C4B35626  29.376   4.160   7.432
 2709POPC   NC335627  32.384   3.751   9.469
 2709POPC   PO435628  32.054   3.235   9.439
 2709POPC   GL135629  32.179   3.490   9.080
 2709POPC   GL235630  31.973   3.804   9.106
 2709POPC   C1A35631  32.455   3.471   8.711
 2709POPC   D2A35632  32.700   3.358   8.361
 2709POPC   C3A35633  32.511   3.465   7.972
 2709POPC   C4A35634  32.081   3.455   7.809
 2709POPC   C1B35635  32.273   3.947   8.784
 2709POPC   C2B35636  32.241   4.033   8.348
 2709POPC   C3B35637  32.305   3.925   7.911
 2709POPC   C4B35638  32.654   3.901   7.618
 2710POPC   NC335639   3.864  32.557   9.241
 2710POPC   PO435640   3.707  32.194   9.774
 2710POPC   GL135641   3.804  32.023   9.339
 2710POPC   GL235642   3.472  32.107   9.249
 2710POPC   C1A35643   3.860  32.037   8.862
 2710POPC   D2A35644   3.778  32.421   8.569
 2710POPC   C3A35645   3.738  32.310   8.129
 2710POPC   C4A35646   3.825  32.016   7.806
 2710POPC   C1B35647   3.360  32.280   8.848
 2710POPC   C2B35648   3.268  32.340   8.421
 2710POPC   C3B35649   3.352  32.653   8.109
 2710POPC   C4B35650   3.284  32.536   7.704
 2711POPC   NC335651  20.949   3.033   9.554
 2711POPC   PO435652  20.608   3.672   9.567
 2711POPC   GL135653  20.665   3.679   9.148
 2711POPC   GL235654  20.785   3.363   9.180
 2711POPC   C1A35655  20.575   3.745   8.712
 2711POPC   D2A35656  20.481   4.029   8.363
 2711POPC   C3A35657  20.708   3.987   7.973
 2711POPC   C4A35658  20.553   3.707   7.671
 2711POPC   C1B35659  20.777   3.253   8.746
 2711POPC   C2B35660  20.638   3.380   8.330
 2711POPC   C3B35661  20.508   3.254   7.913
 2711POPC   C4B35662  20.765   3.258   7.589
 2712POPC   NC335663  21.182   7.949   9.378
 2712POPC   PO435664  21.301   8.603   9.453
 2712POPC   GL135665  21.574   8.404   9.130
 2712POPC   GL235666  21.687   8.045   9.157
 2712POPC   C1A35667  21.338   8.269   8.756
 2712POPC   D2A35668  21.021   8.462   8.476
 2712POPC   C3A35669  21.095   8.296   8.074
 2712POPC   C4A35670  21.465   8.315   7.801
 2712POPC   C1B35671  21.763   7.988   8.684
 2712POPC   C2B35672  21.577   8.085   8.252
 2712POPC   C3B35673  21.573   7.830   7.841
 2712POPC   C4B35674  21.411   7.602   7.473
 2713POPC   NC335675  14.936  10.939   9.927
 2713POPC   PO435676  15.232  10.447   9.521
 2713POPC   GL135677  15.370  10.391   9.119
 2713POPC   GL235678  15.393  10.755   9.107
 2713POPC   C1A35679  15.219  10.224   8.692
 2713POPC   D2A35680  14.930  10.456   8.387
 2713POPC   C3A35681  15.072  10.421   7.967
 2713POPC   C4A35682  15.490  10.428   7.768
 2713POPC   C1B35683  15.231  10.718   8.732
 2713POPC   C2B35684  15.450  10.675   8.355
 2713POPC   C3B35685  15.326  10.868   7.971
 2713POPC   C4B35686  14.886  10.910   7.880
 2714POPC   NC335687  12.929  39.806   9.540
 2714POPC   PO435688  13.354  40.383   9.470
 2714POPC   GL135689  12.959  40.252   9.201
 2714POPC   GL235690  12.924  39.900   9.067
 2714POPC   C1A35691  12.910  40.269   8.737
 2714POPC   D2A35692  13.141  40.163   8.368
 2714POPC   C3A35693  12.968  40.283   7.973
 2714POPC   C4A35694  13.076  40.156   7.554
 2714POPC   C1B35695  12.593  39.849   8.813
 2714POPC   C2B35696  12.760  39.810   8.426
 2714POPC   C3B35697  12.934  39.755   8.041
 2714POPC   C4B35698  12.655  39.916   7.741
 2715POPC   NC335699  25.132  40.628   9.360
 2715POPC   PO435700  25.230  41.256   9.521
 2715POPC   GL135701  25.410  41.119   9.167
 2715POPC   GL235702  25.076  41.041   9.023
 2715POPC   C1A35703  25.493  40.962   8.752
 2715POPC   D2A35704  25.263  41.043   8.371
 2715POPC   C3A35705  25.361  40.784   7.987
 2715POPC   C4A35706  25.386  40.961   7.549
 2715POPC   C1B35707  25.101  40.650   8.715
 2715POPC   C2B35708  24.954  40.627   8.293
 2715POPC   C3B35709  24.993  40.430   7.930
 2715POPC   C4B35710  25.100  40.542   7.559
 2716POPC   NC335711  42.882  42.176   9.570
 2716POPC   PO435712  43.455  42.427   9.529
 2716POPC   GL135713  43.285  42.556   9.106
 2716POPC   GL235714  42.929  42.556   9.201
 2716POPC   C1A35715  43.346  42.522   8.648
 2716POPC   D2A35716  43.187  42.230   8.344
 2716POPC   C3A35717  43.323  42.248   7.925
 2716POPC   C4A35718  43.452  42.100   7.503
 2716POPC   C1B35719  42.894  42.291   8.834
 2716POPC   C2B35720  42.699  42.342   8.440
 2716POPC   C3B35721  42.779  42.322   8.025
 2716POPC   C4B35722  42.940  42.228   7.610
 2717POPC   NC335723  16.467  11.451   9.492
 2717POPC   PO435724  16.718  10.847   9.473
 2717POPC   GL135725  16.826  11.131   9.172
 2717POPC   GL235726  16.487  11.204   9.036
 2717POPC   C1A35727  16.928  11.141   8.744
 2717POPC   D2A35728  16.710  11.129   8.354
 2717POPC   C3A35729  16.927  11.153   7.998
 2717POPC   C4A35730  16.642  11.182   7.714
 2717POPC   C1B35731  16.547  11.491   8.696
 2717POPC   C2B35732  16.714  11.636   8.315
 2717POPC   C3B35733  16.528  11.619   7.919
 2717POPC   C4B35734  16.565  11.609   7.457
 2718POPC   NC335735  18.752  21.209   9.241
 2718POPC   PO435736  19.219  21.548   9.612
 2718POPC   GL135737  19.166  21.496   9.130
 2718POPC   GL235738  19.188  21.164   8.964
 2718POPC   C1A35739  18.955  21.465   8.656
 2718POPC   D2A35740  19.265  21.341   8.357
 2718POPC   C3A35741  19.262  21.491   7.929
 2718POPC   C4A35742  18.919  21.405   7.638
 2718POPC   C1B35743  18.961  20.918   8.687
 2718POPC   C2B35744  18.779  21.041   8.357
 2718POPC   C3B35745  18.976  21.086   8.023
 2718POPC   C4B35746  19.093  20.876   7.701
 2719POPC   NC335747  10.099  28.091   9.437
 2719POPC   PO435748   9.654  28.630   9.479
 2719POPC   GL135749   9.616  28.359   9.143
 2719POPC   GL235750   9.950  28.407   9.052
 2719POPC   C1A35751   9.592  28.451   8.707
 2719POPC   D2A35752   9.575  28.241   8.352
 2719POPC   C3A35753   9.557  28.493   8.002
 2719POPC   C4A35754   9.629  28.209   7.669
 2719POPC   C1B35755  10.052  28.232   8.610
 2719POPC   C2B35756  10.035  28.240   8.158
 2719POPC   C3B35757  10.041  28.453   7.800
 2719POPC   C4B35758   9.868  28.640   7.450
 2720POPC   NC335759  24.480  42.091   9.449
 2720POPC   PO435760  24.844  42.608   9.421
 2720POPC   GL135761  24.617  42.499   9.102
 2720POPC   GL235762  24.243  42.527   9.219
 2720POPC   C1A35763  24.756  42.389   8.678
 2720POPC   D2A35764  24.585  42.460   8.273
 2720POPC   C3A35765  24.781  42.373   7.884
 2720POPC   C4A35766  24.598  42.168   7.540
 2720POPC   C1B35767  24.259  42.319   8.812
 2720POPC   C2B35768  24.151  42.231   8.398
 2720POPC   C3B35769  24.298  42.131   7.992
 2720POPC   C4B35770  24.266  42.474   7.774
 2721POPC   NC335771  13.197  38.952   9.933
 2721POPC   PO435772  12.716  39.299   9.557
 2721POPC   GL135773  12.765  39.412   9.163
 2721POPC   GL235774  12.778  39.048   9.044
 2721POPC   C1A35775  12.955  39.446   8.764
 2721POPC   D2A35776  12.803  39.309   8.382
 2721POPC   C3A35777  13.060  39.242   8.050
 2721POPC   C4A35778  12.915  39.361   7.686
 2721POPC   C1B35779  12.604  38.902   8.673
 2721POPC   C2B35780  12.398  39.009   8.333
 2721POPC   C3B35781  12.614  38.981   8.006
 2721POPC   C4B35782  12.537  39.004   7.633
 2722POPC   NC335783  15.277  39.072   9.583
 2722POPC   PO435784  15.109  39.691   9.332
 2722POPC   GL135785  15.361  39.373   9.169
 2722POPC   GL235786  15.103  39.100   9.111
 2722POPC   C1A35787  15.377  39.335   8.742
 2722POPC   D2A35788  15.124  39.385   8.394
 2722POPC   C3A35789  15.252  39.127   8.074
 2722POPC   C4A35790  15.290  39.293   7.679
 2722POPC   C1B35791  15.007  38.951   8.703
 2722POPC   C2B35792  14.765  39.026   8.305
 2722POPC   C3B35793  14.811  39.302   7.931
 2722POPC   C4B35794  14.795  39.221   7.455
 2723POPC   NC335795  33.118   3.945   9.349
 2723POPC   PO435796  32.725   3.374   9.514
 2723POPC   GL135797  32.979   3.454   9.156
 2723POPC   GL235798  32.903   3.738   8.936
 2723POPC   C1A35799  33.003   3.234   8.772
 2723POPC   D2A35800  33.184   3.499   8.495
 2723POPC   C3A35801  33.110   3.538   8.086
 2723POPC   C4A35802  33.269   3.268   7.839
 2723POPC   C1B35803  33.281   3.944   8.714
 2723POPC   C2B35804  33.480   3.891   8.317
 2723POPC   C3B35805  33.361   3.996   7.935
 2723POPC   C4B35806  33.184   3.823   7.626
 2724POPC   NC335807  32.086   9.163   9.393
 2724POPC   PO435808  32.565   8.629   9.436
 2724POPC   GL135809  32.333   8.824   9.110
 2724POPC   GL235810  32.466   9.171   9.064
 2724POPC   C1A35811  32.128   8.869   8.710
 2724POPC   D2A35812  32.092   9.072   8.298
 2724POPC   C3A35813  32.150   8.720   8.047
 2724POPC   C4A35814  32.013   8.552   7.659
 2724POPC   C1B35815  32.364   9.318   8.692
 2724POPC   C2B35816  32.613   9.230   8.335
 2724POPC   C3B35817  32.457   9.210   7.927
 2724POPC   C4B35818  32.093   9.074   7.691
 2725POPC   NC335819  44.312  34.003   9.549
 2725POPC   PO435820  44.873  34.244   9.547
 2725POPC   GL135821  44.767  33.928   9.174
 2725POPC   GL235822  44.510  33.660   9.208
 2725POPC   C1A35823  44.808  33.607   8.793
 2725POPC   D2A35824  44.738  33.401   8.354
 2725POPC   C3A35825  44.938  33.585   7.974
 2725POPC   C4A35826  44.904  33.495   7.529
 2725POPC   C1B35827  44.351  34.039   8.899
 2725POPC   C2B35828  44.330  34.129   8.446
 2725POPC   C3B35829  44.453  33.802   8.152
 2725POPC   C4B35830  44.542  33.828   7.744
 2726POPC   NC335831   7.219  35.989   9.596
 2726POPC   PO435832   7.798  36.263   9.647
 2726POPC   GL135833   7.628  36.187   9.206
 2726POPC   GL235834   7.587  35.878   9.139
 2726POPC   C1A35835   7.470  36.121   8.732
 2726POPC   D2A35836   7.602  35.894   8.348
 2726POPC   C3A35837   7.529  36.138   7.994
 2726POPC   C4A35838   7.629  36.460   7.759
 2726POPC   C1B35839   7.156  35.777   8.950
 2726POPC   C2B35840   7.122  35.798   8.505
 2726POPC   C3B35841   7.066  36.012   8.135
 2726POPC   C4B35842   7.046  36.148   7.721
 2727POPC   NC335843   5.840  43.782   9.629
 2727POPC   PO435844   6.027  44.436   9.484
 2727POPC   GL135845   5.802  44.093   9.220
 2727POPC   GL235846   5.858  43.686   9.138
 2727POPC   C1A35847   5.685  44.012   8.805
 2727POPC   D2A35848   5.926  43.942   8.441
 2727POPC   C3A35849   5.702  43.987   8.095
 2727POPC   C4A35850   5.909  44.031   7.744
 2727POPC   C1B35851   6.012  43.504   8.733
 2727POPC   C2B35852   6.115  43.391   8.283
 2727POPC   C3B35853   6.084  43.527   7.843
 2727POPC   C4B35854   5.759  43.594   7.524
 2728POPC   NC335855  24.188   5.756   9.436
 2728POPC   PO435856  24.705   5.468   9.530
 2728POPC   GL135857  24.623   5.809   9.165
 2728POPC   GL235858  24.847   6.133   9.143
 2728POPC   C1A35859  24.314   5.928   8.799
 2728POPC   D2A35860  24.354   5.740   8.369
 2728POPC   C3A35861  24.412   5.975   7.979
 2728POPC   C4A35862  24.541   6.040   7.504
 2728POPC   C1B35863  24.810   5.960   8.704
 2728POPC   C2B35864  24.768   6.184   8.324
 2728POPC   C3B35865  24.864   6.150   7.912
 2728POPC   C4B35866  24.843   5.753   7.790
 2729POPC   NC335867   8.083   9.274   9.598
 2729POPC   PO435868   8.113   8.591   9.669
 2729POPC   GL135869   8.165   8.706   9.225
 2729POPC   GL235870   8.062   9.044   9.144
 2729POPC   C1A35871   8.209   8.704   8.777
 2729POPC   D2A35872   8.125   8.913   8.393
 2729POPC   C3A35873   8.238   8.742   8.010
 2729POPC   C4A35874   8.370   8.758   7.603
 2729POPC   C1B35875   8.268   9.265   8.806
 2729POPC   C2B35876   8.183   9.422   8.400
 2729POPC   C3B35877   8.005   9.307   8.024
 2729POPC   C4B35878   8.388   9.209   7.824
 2730POPC   NC335879  40.114   3.115   9.610
 2730POPC   PO435880  39.814   2.610   9.471
 2730POPC   GL135881  39.859   2.798   9.092
 2730POPC   GL235882  40.206   2.807   9.142
 2730POPC   C1A35883  39.700   2.751   8.690
 2730POPC   D2A35884  39.824   2.596   8.316
 2730POPC   C3A35885  39.768   2.872   8.000
 2730POPC   C4A35886  39.981   2.756   7.673
 2730POPC   C1B35887  40.227   3.034   8.750
 2730POPC   C2B35888  40.120   3.066   8.320
 2730POPC   C3B35889  40.291   3.077   7.892
 2730POPC   C4B35890  40.291   3.052   7.420
 2731POPC   NC335891   9.493  10.946   9.595
 2731POPC   PO435892   9.812  11.567   9.469
 2731POPC   GL135893   9.588  11.268   9.203
 2731POPC   GL235894   9.823  10.989   9.192
 2731POPC   C1A35895   9.488  11.164   8.760
 2731POPC   D2A35896   9.729  11.312   8.395
 2731POPC   C3A35897   9.494  11.357   8.022
 2731POPC   C4A35898   9.664  11.323   7.607
 2731POPC   C1B35899   9.983  11.240   8.852
 2731POPC   C2B35900  10.221  11.156   8.492
 2731POPC   C3B35901  10.203  11.302   8.081
 2731POPC   C4B35902  10.135  11.170   7.683
 2732POPC   NC335903   9.487  39.189   9.687
 2732POPC   PO435904  10.136  39.474   9.611
 2732POPC   GL135905   9.842  39.238   9.295
 2732POPC   GL235906   9.496  39.373   9.217
 2732POPC   C1A35907   9.708  39.011   8.891
 2732POPC   D2A35908   9.519  39.079   8.479
 2732POPC   C3A35909   9.705  38.937   8.075
 2732POPC   C4A35910   9.659  39.073   7.680
 2732POPC   C1B35911   9.540  39.518   8.807
 2732POPC   C2B35912   9.683  39.623   8.437
 2732POPC   C3B35913   9.621  39.442   8.061
 2732POPC   C4B35914   9.711  39.604   7.667
 2733POPC   NC335915  23.876   7.624   9.605
 2733POPC   PO435916  24.299   7.040   9.522
 2733POPC   GL135917  24.369   7.347   9.171
 2733POPC   GL235918  24.084   7.598   9.137
 2733POPC   C1A35919  24.627   7.454   8.788
 2733POPC   D2A35920  24.833   7.364   8.395
 2733POPC   C3A35921  24.809   7.557   8.004
 2733POPC   C4A35922  24.720   7.325   7.636
 2733POPC   C1B35923  24.191   7.694   8.708
 2733POPC   C2B35924  24.361   7.558   8.294
 2733POPC   C3B35925  24.354   7.730   7.872
 2733POPC   C4B35926  24.330   7.559   7.435
 2734POPC   NC335927  16.812  44.112   9.466
 2734POPC   PO435928  16.370  43.661   9.326
 2734POPC   GL135929  16.751  43.712   9.158
 2734POPC   GL235930  16.674  44.043   8.988
 2734POPC   C1A35931  16.886  43.643   8.757
 2734POPC   D2A35932  16.662  43.829   8.417
 2734POPC   C3A35933  16.795  43.986   8.025
 2734POPC   C4A35934  16.817  43.817   7.599
 2734POPC   C1B35935  17.009  44.151   8.700
 2734POPC   C2B35936  17.014  44.432   8.339
 2734POPC   C3B35937  17.001  44.464   7.897
 2734POPC   C4B35938  17.102  44.226   7.529
 2735POPC   NC335939  22.058  32.883   9.783
 2735POPC   PO435940  22.102  33.390   9.260
 2735POPC   GL135941  22.314  33.051   9.129
 2735POPC   GL235942  22.171  32.726   9.183
 2735POPC   C1A35943  22.352  33.037   8.687
 2735POPC   D2A35944  22.242  32.846   8.310
 2735POPC   C3A35945  22.091  33.140   8.018
 2735POPC   C4A35946  22.278  33.188   7.627
 2735POPC   C1B35947  21.911  32.772   8.766
 2735POPC   C2B35948  21.724  32.838   8.318
 2735POPC   C3B35949  21.907  32.649   7.956
 2735POPC   C4B35950  22.158  32.690   7.574
 2736POPC   NC335951  39.670  29.232   9.530
 2736POPC   PO435952  40.391  29.305   9.501
 2736POPC   GL135953  40.189  29.167   9.107
 2736POPC   GL235954  39.855  29.027   9.079
 2736POPC   C1A35955  40.096  29.219   8.665
 2736POPC   D2A35956  39.813  29.090   8.350
 2736POPC   C3A35957  39.926  29.262   7.938
 2736POPC   C4A35958  40.364  29.180   7.866
 2736POPC   C1B35959  39.765  28.733   8.729
 2736POPC   C2B35960  39.904  28.573   8.322
 2736POPC   C3B35961  40.034  28.751   7.940
 2736POPC   C4B35962  39.812  28.897   7.595
 2737POPC   NC335963  11.013  23.939   9.407
 2737POPC   PO435964  11.504  23.503   9.558
 2737POPC   GL135965  11.338  23.608   9.143
 2737POPC   GL235966  10.995  23.586   9.051
 2737POPC   C1A35967  11.369  23.817   8.734
 2737POPC   D2A35968  11.510  23.993   8.368
 2737POPC   C3A35969  11.249  24.009   7.992
 2737POPC   C4A35970  11.293  23.785   7.610
 2737POPC   C1B35971  11.133  23.374   8.720
 2737POPC   C2B35972  11.322  23.437   8.354
 2737POPC   C3B35973  11.142  23.475   7.981
 2737POPC   C4B35974  11.184  23.273   7.591
 2738POPC   NC335975  18.984  40.135   9.656
 2738POPC   PO435976  19.227  39.590   9.573
 2738POPC   GL135977  19.051  39.855   9.217
 2738POPC   GL235978  18.885  40.180   9.123
 2738POPC   C1A35979  18.995  39.825   8.762
 2738POPC   D2A35980  19.155  40.072   8.421
 2738POPC   C3A35981  19.191  39.865   8.036
 2738POPC   C4A35982  19.095  40.134   7.716
 2738POPC   C1B35983  18.729  40.293   8.665
 2738POPC   C2B35984  18.715  40.317   8.166
 2738POPC   C3B35985  18.591  40.294   7.736
 2738POPC   C4B35986  18.750  40.159   7.322
 2739POPC   NC335987   6.385  21.066   9.353
 2739POPC   PO435988   6.885  20.628   9.653
 2739POPC   GL135989   6.791  20.622   9.200
 2739POPC   GL235990   6.469  20.471   9.190
 2739POPC   C1A35991   6.791  20.723   8.722
 2739POPC   D2A35992   7.107  20.824   8.361
 2739POPC   C3A35993   6.924  20.835   7.924
 2739POPC   C4A35994   6.551  20.589   7.759
 2739POPC   C1B35995   6.712  20.220   8.883
 2739POPC   C2B35996   6.935  20.221   8.516
 2739POPC   C3B35997   6.793  20.401   8.165
 2739POPC   C4B35998   6.930  20.260   7.742
 2740POPC   NC335999  12.449   9.766   9.334
 2740POPC   PO436000  12.963   9.612   9.736
 2740POPC   GL136001  13.012   9.637   9.213
 2740POPC   GL236002  13.305   9.471   9.151
 2740POPC   C1A36003  12.830   9.660   8.777
 2740POPC   D2A36004  12.923   9.609   8.322
 2740POPC   C3A36005  12.764   9.837   7.967
 2740POPC   C4A36006  12.561   9.721   7.573
 2740POPC   C1B36007  13.247   9.338   8.714
 2740POPC   C2B36008  13.396   9.455   8.313
 2740POPC   C3B36009  13.214   9.385   7.910
 2740POPC   C4B36010  13.081   9.654   7.580
 2741POPC   NC336011  12.254   2.626   9.878
 2741POPC   PO436012  11.992   2.844   9.284
 2741POPC   GL136013  12.035   2.565   8.981
 2741POPC   GL236014  12.400   2.550   8.842
 2741POPC   C1A36015  11.808   2.518   8.605
 2741POPC   D2A36016  11.764   2.308   8.225
 2741POPC   C3A36017  11.998   2.625   7.956
 2741POPC   C4A36018  11.929   3.051   7.746
 2741POPC   C1B36019  12.163   2.919   8.655
 2741POPC   C2B36020  11.979   3.042   8.294
 2741POPC   C3B36021  12.304   3.167   8.043
 2741POPC   C4B36022  12.499   3.036   7.689
 2742POPC   NC336023  19.309  41.760   9.434
 2742POPC   PO436024  18.667  41.505   9.532
 2742POPC   GL136025  18.943  41.543   9.163
 2742POPC   GL236026  19.063  41.229   9.052
 2742POPC   C1A36027  19.251  41.611   8.783
 2742POPC   D2A36028  19.295  41.803   8.364
 2742POPC   C3A36029  19.339  41.538   7.990
 2742POPC   C4A36030  19.146  41.429   7.581
 2742POPC   C1B36031  18.813  41.373   8.716
 2742POPC   C2B36032  18.837  41.551   8.294
 2742POPC   C3B36033  18.708  41.342   7.925
 2742POPC   C4B36034  18.628  41.394   7.523
 2743POPC   NC336035  28.491  34.266   9.501
 2743POPC   PO436036  28.688  34.888   9.454
 2743POPC   GL136037  28.372  34.734   9.194
 2743POPC   GL236038  28.296  35.063   9.098
 2743POPC   C1A36039  28.239  34.487   8.802
 2743POPC   D2A36040  28.106  34.239   8.423
 2743POPC   C3A36041  28.285  34.432   8.047
 2743POPC   C4A36042  28.224  34.647   7.682
 2743POPC   C1B36043  28.613  35.093   8.834
 2743POPC   C2B36044  28.727  35.001   8.437
 2743POPC   C3B36045  28.484  35.037   8.059
 2743POPC   C4B36046  28.534  35.032   7.617
 2744POPC   NC336047  14.747  27.525   9.585
 2744POPC   PO436048  15.395  27.448   9.501
 2744POPC   GL136049  15.118  27.636   9.160
 2744POPC   GL236050  15.345  27.914   8.983
 2744POPC   C1A36051  14.956  27.702   8.733
 2744POPC   D2A36052  15.195  27.703   8.347
 2744POPC   C3A36053  14.962  27.588   7.962
 2744POPC   C4A36054  15.142  27.399   7.615
 2744POPC   C1B36055  15.453  27.501   8.791
 2744POPC   C2B36056  15.386  27.185   8.444
 2744POPC   C3B36057  15.436  27.277   8.019
 2744POPC   C4B36058  15.482  27.707   7.862
 2745POPC   NC336059  35.667  13.100   9.597
 2745POPC   PO436060  35.078  12.778   9.502
 2745POPC   GL136061  35.335  12.932   9.158
 2745POPC   GL236062  35.069  12.743   8.982
 2745POPC   C1A36063  35.567  12.764   8.760
 2745POPC   D2A36064  35.607  12.637   8.314
 2745POPC   C3A36065  35.587  12.951   7.979
 2745POPC   C4A36066  35.543  13.039   7.552
 2745POPC   C1B36067  35.147  13.100   8.707
 2745POPC   C2B36068  35.199  13.033   8.286
 2745POPC   C3B36069  35.033  12.978   7.869
 2745POPC   C4B36070  35.035  12.901   7.409
 2746POPC   NC336071  28.810   1.783   9.405
 2746POPC   PO436072  29.213   2.340   9.422
 2746POPC   GL136073  28.949   2.159   9.053
 2746POPC   GL236074  29.023   1.810   8.939
 2746POPC   C1A36075  28.754   2.092   8.635
 2746POPC   D2A36076  29.055   1.902   8.333
 2746POPC   C3A36077  29.120   2.212   8.006
 2746POPC   C4A36078  28.816   2.268   7.676
 2746POPC   C1B36079  29.363   1.630   8.702
 2746POPC   C2B36080  29.472   1.530   8.280
 2746POPC   C3B36081  29.309   1.734   7.892
 2746POPC   C4B36082  28.908   1.727   7.673
 2747POPC   NC336083  14.227  12.353   9.982
 2747POPC   PO436084  14.128  11.939   9.444
 2747POPC   GL136085  14.319  11.847   9.056
 2747POPC   GL236086  14.652  11.719   9.042
 2747POPC   C1A36087  14.249  11.980   8.650
 2747POPC   D2A36088  14.026  12.245   8.412
 2747POPC   C3A36089  13.939  12.180   7.986
 2747POPC   C4A36090  14.156  12.183   7.609
 2747POPC   C1B36091  14.735  12.025   8.727
 2747POPC   C2B36092  14.638  12.157   8.336
 2747POPC   C3B36093  14.353  11.915   8.104
 2747POPC   C4B36094  14.416  11.750   7.704
 2748POPC   NC336095  34.178  32.273   9.558
 2748POPC   PO436096  33.704  31.838   9.568
 2748POPC   GL136097  33.700  32.087   9.184
 2748POPC   GL236098  34.042  32.235   9.063
 2748POPC   C1A36099  33.643  32.198   8.752
 2748POPC   D2A36100  33.947  32.201   8.435
 2748POPC   C3A36101  33.761  32.029   8.104
 2748POPC   C4A36102  33.882  32.155   7.746
 2748POPC   C1B36103  34.213  32.538   8.730
 2748POPC   C2B36104  34.403  32.452   8.330
 2748POPC   C3B36105  34.185  32.513   7.911
 2748POPC   C4B36106  34.109  32.490   7.447
 2749POPC   NC336107  12.619  32.492   9.655
 2749POPC   PO436108  12.971  31.962   9.627
 2749POPC   GL136109  12.814  32.013   9.208
 2749POPC   GL236110  12.442  31.909   9.265
 2749POPC   C1A36111  12.944  32.333   8.856
 2749POPC   D2A36112  12.853  32.637   8.474
 2749POPC   C3A36113  12.754  32.549   8.025
 2749POPC   C4A36114  12.989  32.339   7.687
 2749POPC   C1B36115  12.469  32.004   8.831
 2749POPC   C2B36116  12.799  31.996   8.521
 2749POPC   C3B36117  12.942  32.081   8.139
 2749POPC   C4B36118  12.723  31.937   7.798
 2750POPC   NC336119  11.022  31.470   9.370
 2750POPC   PO436120  10.324  31.407   9.539
 2750POPC   GL136121  10.536  31.608   9.175
 2750POPC   GL236122  10.310  31.865   9.072
 2750POPC   C1A36123  10.749  31.418   8.791
 2750POPC   D2A36124  10.743  31.168   8.427
 2750POPC   C3A36125  10.746  31.412   8.069
 2750POPC   C4A36126  10.459  31.417   7.735
 2750POPC   C1B36127  10.273  31.618   8.690
 2750POPC   C2B36128  10.290  31.455   8.282
 2750POPC   C3B36129  10.148  31.737   7.948
 2750POPC   C4B36130  10.120  31.813   7.489
 2751POPC   NC336131  33.564   1.523   9.595
 2751POPC   PO436132  33.900   2.102   9.506
 2751POPC   GL136133  33.805   2.064   9.106
 2751POPC   GL236134  33.661   1.725   9.104
 2751POPC   C1A36135  33.653   2.085   8.690
 2751POPC   D2A36136  33.788   1.952   8.298
 2751POPC   C3A36137  33.601   2.064   7.928
 2751POPC   C4A36138  34.034   2.161   7.828
 2751POPC   C1B36139  34.075   1.695   8.874
 2751POPC   C2B36140  34.186   1.658   8.432
 2751POPC   C3B36141  34.206   1.716   7.999
 2751POPC   C4B36142  33.885   1.732   7.627
 2752POPC   NC336143  33.922   8.437   9.470
 2752POPC   PO436144  34.046   9.055   9.494
 2752POPC   GL136145  33.708   9.047   9.195
 2752POPC   GL236146  33.576   8.707   9.194
 2752POPC   C1A36147  33.670   9.171   8.762
 2752POPC   D2A36148  33.552   8.996   8.372
 2752POPC   C3A36149  33.831   9.055   8.053
 2752POPC   C4A36150  33.657   9.087   7.657
 2752POPC   C1B36151  33.950   8.743   8.897
 2752POPC   C2B36152  33.954   8.717   8.482
 2752POPC   C3B36153  34.108   8.566   8.115
 2752POPC   C4B36154  33.922   8.622   7.714
 2753POPC   NC336155  40.973  38.062   9.492
 2753POPC   PO436156  41.525  37.613   9.487
 2753POPC   GL136157  41.513  37.494   9.076
 2753POPC   GL236158  41.202  37.363   9.003
 2753POPC   C1A36159  41.600  37.380   8.637
 2753POPC   D2A36160  41.421  37.590   8.281
 2753POPC   C3A36161  41.580  37.619   7.879
 2753POPC   C4A36162  41.765  37.364   7.609
 2753POPC   C1B36163  41.219  37.739   8.730
 2753POPC   C2B36164  41.037  37.953   8.332
 2753POPC   C3B36165  41.094  37.788   7.923
 2753POPC   C4B36166  41.196  37.655   7.529
 2754POPC   NC336167   0.731   4.020   9.436
 2754POPC   PO436168   0.771   4.712   9.512
 2754POPC   GL136169   0.782   4.451   9.157
 2754POPC   GL236170   0.433   4.325   9.117
 2754POPC   C1A36171   0.837   4.197   8.785
 2754POPC   D2A36172   0.547   4.306   8.497
 2754POPC   C3A36173   0.537   4.342   8.098
 2754POPC   C4A36174   0.197   4.424   7.839
 2754POPC   C1B36175   0.343   3.975   8.819
 2754POPC   C2B36176   0.391   3.791   8.408
 2754POPC   C3B36177   0.311   3.903   8.018
 2754POPC   C4B36178   0.313   3.983   7.598
 2755POPC   NC336179  42.707  28.260   9.865
 2755POPC   PO436180  43.054  28.772   9.717
 2755POPC   GL136181  42.797  28.577   9.353
 2755POPC   GL236182  43.003  28.758   9.153
 2755POPC   C1A36183  42.773  28.377   8.877
 2755POPC   D2A36184  43.030  28.236   8.468
 2755POPC   C3A36185  42.912  28.312   8.038
 2755POPC   C4A36186  43.051  28.149   7.647
 2755POPC   C1B36187  43.227  28.607   8.763
 2755POPC   C2B36188  43.136  28.710   8.329
 2755POPC   C3B36189  43.214  28.758   7.911
 2755POPC   C4B36190  42.973  28.650   7.537
 2756POPC   NC336191  19.805  43.534   9.380
 2756POPC   PO436192  19.437  42.986   9.557
 2756POPC   GL136193  19.677  43.074   9.177
 2756POPC   GL236194  20.040  43.121   9.155
 2756POPC   C1A36195  19.644  43.128   8.740
 2756POPC   D2A36196  19.691  42.882   8.373
 2756POPC   C3A36197  19.775  43.101   8.021
 2756POPC   C4A36198  19.682  43.224   7.610
 2756POPC   C1B36199  20.118  43.349   8.771
 2756POPC   C2B36200  20.151  43.169   8.387
 2756POPC   C3B36201  20.226  43.328   7.993
 2756POPC   C4B36202  20.171  43.048   7.694
 2757POPC   NC336203  11.661  28.397   9.340
 2757POPC   PO436204  12.263  28.307   9.453
 2757POPC   GL136205  12.185  28.124   9.083
 2757POPC   GL236206  11.874  28.185   8.949
 2757POPC   C1A36207  12.312  28.334   8.708
 2757POPC   D2A36208  12.618  28.330   8.402
 2757POPC   C3A36209  12.372  28.406   8.042
 2757POPC   C4A36210  12.408  28.386   7.601
 2757POPC   C1B36211  11.867  28.575   8.733
 2757POPC   C2B36212  11.940  28.516   8.302
 2757POPC   C3B36213  11.893  28.465   7.857
 2757POPC   C4B36214  11.673  28.250   7.511
 2758POPC   NC336215   4.861   5.981   9.600
 2758POPC   PO436216   5.323   5.511   9.603
 2758POPC   GL136217   5.231   5.789   9.223
 2758POPC   GL236218   4.880   5.738   9.148
 2758POPC   C1A36219   5.153   5.964   8.784
 2758POPC   D2A36220   5.046   5.868   8.333
 2758POPC   C3A36221   5.166   6.058   7.914
 2758POPC   C4A36222   5.023   6.274   7.533
 2758POPC   C1B36223   4.884   5.522   8.730
 2758POPC   C2B36224   4.941   5.369   8.282
 2758POPC   C3B36225   4.949   5.579   7.854
 2758POPC   C4B36226   4.845   5.334   7.504
 2759POPC   NC336227  16.683  24.895   9.409
 2759POPC   PO436228  17.238  25.130   9.580
 2759POPC   GL136229  17.055  25.112   9.156
 2759POPC   GL236230  16.940  25.462   9.117
 2759POPC   C1A36231  16.705  25.123   8.794
 2759POPC   D2A36232  16.519  24.986   8.394
 2759POPC   C3A36233  16.547  25.197   8.017
 2759POPC   C4A36234  16.338  25.363   7.672
 2759POPC   C1B36235  17.146  25.352   8.727
 2759POPC   C2B36236  17.059  25.098   8.395
 2759POPC   C3B36237  17.039  25.322   8.039
 2759POPC   C4B36238  17.289  25.347   7.725
 2760POPC   NC336239  42.254  27.149   9.427
 2760POPC   PO436240  42.588  26.461   9.440
 2760POPC   GL136241  42.479  26.784   9.135
 2760POPC   GL236242  42.137  26.828   9.056
 2760POPC   C1A36243  42.486  26.949   8.731
 2760POPC   D2A36244  42.274  26.820   8.364
 2760POPC   C3A36245  42.463  26.830   7.994
 2760POPC   C4A36246  42.546  26.477   7.744
 2760POPC   C1B36247  42.008  27.095   8.729
 2760POPC   C2B36248  42.226  27.313   8.390
 2760POPC   C3B36249  42.148  27.261   7.940
 2760POPC   C4B36250  42.222  27.008   7.560
 2761POPC   NC336251  12.432   7.968   9.624
 2761POPC   PO436252  11.831   8.386   9.631
 2761POPC   GL136253  12.103   8.304   9.308
 2761POPC   GL236254  12.283   8.557   9.194
 2761POPC   C1A36255  12.077   8.205   8.863
 2761POPC   D2A36256  12.111   8.382   8.452
 2761POPC   C3A36257  12.063   8.112   8.116
 2761POPC   C4A36258  12.159   8.082   7.704
 2761POPC   C1B36259  12.459   8.579   8.787
 2761POPC   C2B36260  12.634   8.514   8.370
 2761POPC   C3B36261  12.407   8.483   7.996
 2761POPC   C4B36262  12.188   8.596   7.604
 2762POPC   NC336263  31.139  10.037   9.534
 2762POPC   PO436264  31.651   9.529   9.529
 2762POPC   GL136265  31.547   9.910   9.250
 2762POPC   GL236266  31.836  10.038   9.124
 2762POPC   C1A36267  31.252   9.905   8.867
 2762POPC   D2A36268  31.373   9.625   8.508
 2762POPC   C3A36269  31.393   9.728   8.075
 2762POPC   C4A36270  31.174   9.846   7.684
 2762POPC   C1B36271  31.682  10.116   8.715
 2762POPC   C2B36272  31.787  10.028   8.309
 2762POPC   C3B36273  31.865   9.947   7.895
 2762POPC   C4B36274  31.696   9.814   7.536
 2763POPC   NC336275  14.008  31.275   9.372
 2763POPC   PO436276  14.668  31.509   9.412
 2763POPC   GL136277  14.496  31.565   9.025
 2763POPC   GL236278  14.158  31.603   9.027
 2763POPC   C1A36279  14.448  31.567   8.589
 2763POPC   D2A36280  14.144  31.490   8.293
 2763POPC   C3A36281  14.307  31.393   7.897
 2763POPC   C4A36282  14.471  31.455   7.490
 2763POPC   C1B36283  14.172  31.967   8.806
 2763POPC   C2B36284  14.222  32.027   8.384
 2763POPC   C3B36285  14.286  31.897   7.980
 2763POPC   C4B36286  13.936  32.029   7.779
 2764POPC   NC336287  41.533  11.054   9.523
 2764POPC   PO436288  41.122  11.485   9.469
 2764POPC   GL136289  41.323  11.392   9.099
 2764POPC   GL236290  41.308  11.066   9.060
 2764POPC   C1A36291  41.361  11.391   8.634
 2764POPC   D2A36292  41.429  11.154   8.228
 2764POPC   C3A36293  41.520  11.207   7.759
 2764POPC   C4A36294  41.637  11.544   7.425
 2764POPC   C1B36295  41.706  11.047   8.802
 2764POPC   C2B36296  41.852  11.326   8.446
 2764POPC   C3B36297  41.956  11.235   8.032
 2764POPC   C4B36298  42.024  11.280   7.596
 2765POPC   NC336299  39.310  41.182   9.434
 2765POPC   PO436300  39.493  40.596   9.404
 2765POPC   GL136301  39.139  40.747   9.192
 2765POPC   GL236302  38.924  41.020   9.145
 2765POPC   C1A36303  39.196  40.716   8.772
 2765POPC   D2A36304  39.490  40.681   8.450
 2765POPC   C3A36305  39.340  40.485   8.091
 2765POPC   C4A36306  39.291  40.580   7.657
 2765POPC   C1B36307  39.076  41.208   8.788
 2765POPC   C2B36308  39.056  40.999   8.368
 2765POPC   C3B36309  39.213  40.979   7.961
 2765POPC   C4B36310  39.057  41.039   7.515
 2766POPC   NC336311  25.962  27.037   9.436
 2766POPC   PO436312  26.155  26.417   9.469
 2766POPC   GL136313  25.919  26.597   9.152
 2766POPC   GL236314  26.230  26.768   9.088
 2766POPC   C1A36315  25.817  26.858   8.792
 2766POPC   D2A36316  25.925  27.174   8.487
 2766POPC   C3A36317  26.024  27.062   8.063
 2766POPC   C4A36318  25.942  26.820   7.700
 2766POPC   C1B36319  26.333  26.905   8.683
 2766POPC   C2B36320  26.501  26.956   8.289
 2766POPC   C3B36321  26.437  26.795   7.868
 2766POPC   C4B36322  26.386  27.031   7.463
 2767POPC   NC336323  42.822  18.228   9.577
 2767POPC   PO436324  43.206  18.737   9.504
 2767POPC   GL136325  43.033  18.499   9.161
 2767POPC   GL236326  43.178  18.170   9.015
 2767POPC   C1A36327  43.142  18.591   8.756
 2767POPC   D2A36328  43.123  18.347   8.384
 2767POPC   C3A36329  43.127  18.572   7.987
 2767POPC   C4A36330  43.522  18.547   7.793
 2767POPC   C1B36331  42.924  17.929   8.689
 2767POPC   C2B36332  42.763  17.986   8.272
 2767POPC   C3B36333  43.024  18.055   7.906
 2767POPC   C4B36334  42.965  18.053   7.469
 2768POPC   NC336335   6.469  23.315   9.390
 2768POPC   PO436336   6.977  23.750   9.442
 2768POPC   GL136337   6.837  23.600   9.099
 2768POPC   GL236338   6.597  23.879   9.058
 2768POPC   C1A36339   6.993  23.380   8.752
 2768POPC   D2A36340   6.997  23.468   8.322
 2768POPC   C3A36341   6.591  23.495   8.148
 2768POPC   C4A36342   6.420  23.540   7.731
 2768POPC   C1B36343   6.568  23.719   8.644
 2768POPC   C2B36344   6.219  23.761   8.359
 2768POPC   C3B36345   6.211  23.925   7.973
 2768POPC   C4B36346   6.380  24.107   7.593
 2769POPC   NC336347  24.523   2.298   9.517
 2769POPC   PO436348  24.937   2.875   9.477
 2769POPC   GL136349  24.563   2.769   9.255
 2769POPC   GL236350  24.723   2.951   9.013
 2769POPC   C1A36351  24.300   2.723   8.873
 2769POPC   D2A36352  24.302   2.530   8.482
 2769POPC   C3A36353  24.585   2.646   8.175
 2769POPC   C4A36354  24.332   2.670   7.812
 2769POPC   C1B36355  24.924   3.261   8.787
 2769POPC   C2B36356  25.121   3.194   8.407
 2769POPC   C3B36357  24.945   3.047   8.066
 2769POPC   C4B36358  24.771   2.925   7.733
 2770POPC   NC336359   7.938   8.221   9.890
 2770POPC   PO436360   7.417   8.414   9.456
 2770POPC   GL136361   7.518   8.137   9.086
 2770POPC   GL236362   7.769   8.367   8.877
 2770POPC   C1A36363   7.615   7.915   8.718
 2770POPC   D2A36364   7.508   8.153   8.389
 2770POPC   C3A36365   7.577   8.072   7.988
 2770POPC   C4A36366   7.316   7.874   7.706
 2770POPC   C1B36367   7.316   8.463   8.768
 2770POPC   C2B36368   7.067   8.412   8.392
 2770POPC   C3B36369   7.278   8.498   8.048
 2770POPC   C4B36370   7.349   8.403   7.669
 2771POPC   NC336371  17.642  17.642   9.411
 2771POPC   PO436372  17.150  17.748   9.795
 2771POPC   GL136373  17.165  17.519   9.247
 2771POPC   GL236374  17.460  17.682   8.949
 2771POPC   C1A36375  17.073  17.417   8.809
 2771POPC   D2A36376  17.402  17.223   8.516
 2771POPC   C3A36377  17.540  17.423   8.120
 2771POPC   C4A36378  17.417  17.632   7.732
 2771POPC   C1B36379  17.887  17.807   8.827
 2771POPC   C2B36380  18.031  17.976   8.486
 2771POPC   C3B36381  18.013  18.023   8.086
 2771POPC   C4B36382  17.876  17.869   7.707
 2772POPC   NC336383  17.692  41.011   9.425
 2772POPC   PO436384  17.595  40.324   9.388
 2772POPC   GL136385  17.341  40.500   9.028
 2772POPC   GL236386  17.382  40.866   9.046
 2772POPC   C1A36387  17.431  40.455   8.614
 2772POPC   D2A36388  17.819  40.366   8.446
 2772POPC   C3A36389  17.702  40.348   8.039
 2772POPC   C4A36390  17.461  40.628   7.814
 2772POPC   C1B36391  17.744  40.826   8.740
 2772POPC   C2B36392  17.604  40.834   8.307
 2772POPC   C3B36393  17.480  41.110   7.989
 2772POPC   C4B36394  17.743  41.041   7.634
 2773POPC   NC336395  15.827  35.206   9.613
 2773POPC   PO436396  16.068  35.726   9.349
 2773POPC   GL136397  16.048  35.370   9.075
 2773POPC   GL236398  15.712  35.262   9.132
 2773POPC   C1A36399  16.142  35.344   8.604
 2773POPC   D2A36400  16.184  35.108   8.197
 2773POPC   C3A36401  16.314  35.333   7.832
 2773POPC   C4A36402  16.179  35.721   7.680
 2773POPC   C1B36403  15.648  35.330   8.734
 2773POPC   C2B36404  15.712  35.100   8.366
 2773POPC   C3B36405  15.701  35.143   7.957
 2773POPC   C4B36406  15.738  35.498   7.725
 2774POPC   NC336407  23.827  24.385   9.372
 2774POPC   PO436408  23.186  24.620   9.495
 2774POPC   GL136409  23.431  24.657   9.143
 2774POPC   GL236410  23.370  24.321   9.095
 2774POPC   C1A36411  23.672  24.616   8.765
 2774POPC   D2A36412  23.635  24.738   8.348
 2774POPC   C3A36413  23.674  24.424   8.056
 2774POPC   C4A36414  23.978  24.468   7.747
 2774POPC   C1B36415  23.496  24.126   8.739
 2774POPC   C2B36416  23.351  24.114   8.328
 2774POPC   C3B36417  23.239  24.163   7.908
 2774POPC   C4B36418  23.566  24.148   7.635
 2775POPC   NC336419  39.920  16.223   9.530
 2775POPC   PO436420  40.130  15.570   9.690
 2775POPC   GL136421  39.848  15.593   9.277
 2775POPC   GL236422  39.724  15.929   9.142
 2775POPC   C1A36423  39.846  15.576   8.800
 2775POPC   D2A36424  39.721  15.896   8.532
 2775POPC   C3A36425  39.640  15.777   8.115
 2775POPC   C4A36426  39.844  15.728   7.772
 2775POPC   C1B36427  39.984  16.162   8.882
 2775POPC   C2B36428  40.142  16.246   8.493
 2775POPC   C3B36429  39.968  16.181   8.130
 2775POPC   C4B36430  40.073  16.177   7.751
 2776POPC   NC336431   2.567  41.657   9.376
 2776POPC   PO436432   3.057  41.309   9.657
 2776POPC   GL136433   3.101  41.598   9.277
 2776POPC   GL236434   2.906  41.914   9.131
 2776POPC   C1A36435   3.123  41.595   8.819
 2776POPC   D2A36436   2.855  41.706   8.475
 2776POPC   C3A36437   2.777  41.411   8.189
 2776POPC   C4A36438   2.924  41.663   7.881
 2776POPC   C1B36439   2.580  41.949   8.811
 2776POPC   C2B36440   2.340  41.755   8.476
 2776POPC   C3B36441   2.432  41.789   8.050
 2776POPC   C4B36442   2.465  41.456   7.760
 2777POPC   NC336443   6.065   3.950   9.455
 2777POPC   PO436444   6.102   4.588   9.451
 2777POPC   GL136445   5.875   4.377   9.079
 2777POPC   GL236446   5.741   4.010   9.066
 2777POPC   C1A36447   5.689   4.292   8.653
 2777POPC   D2A36448   5.767   4.006   8.308
 2777POPC   C3A36449   5.723   4.296   7.973
 2777POPC   C4A36450   5.605   4.385   7.511
 2777POPC   C1B36451   6.091   3.992   8.783
 2777POPC   C2B36452   6.206   4.273   8.484
 2777POPC   C3B36453   6.215   4.204   8.079
 2777POPC   C4B36454   6.069   4.205   7.633
 2778POPC   NC336455  18.805  42.624   9.246
 2778POPC   PO436456  19.354  42.203   9.320
 2778POPC   GL136457  19.103  42.038   9.016
 2778POPC   GL236458  19.128  42.347   8.857
 2778POPC   C1A36459  18.848  41.960   8.623
 2778POPC   D2A36460  18.837  42.105   8.171
 2778POPC   C3A36461  18.931  41.818   7.811
 2778POPC   C4A36462  18.780  41.826   7.340
 2778POPC   C1B36463  18.835  42.513   8.586
 2778POPC   C2B36464  18.928  42.759   8.236
 2778POPC   C3B36465  19.083  42.493   7.907
 2778POPC   C4B36466  19.348  42.106   7.954
 2779POPC   NC336467  30.298  39.187   9.423
 2779POPC   PO436468  29.733  39.204   9.778
 2779POPC   GL136469  29.782  39.192   9.323
 2779POPC   GL236470  29.956  39.493   9.196
 2779POPC   C1A36471  29.792  39.120   8.863
 2779POPC   D2A36472  29.908  39.168   8.423
 2779POPC   C3A36473  29.876  38.945   8.003
 2779POPC   C4A36474  29.781  38.981   7.548
 2779POPC   C1B36475  30.250  39.570   8.835
 2779POPC   C2B36476  30.169  39.626   8.399
 2779POPC   C3B36477  30.088  39.450   8.010
 2779POPC   C4B36478  29.862  39.477   7.661
 2780POPC   NC336479  23.429  25.024   9.506
 2780POPC   PO436480  23.973  25.435   9.405
 2780POPC   GL136481  23.754  25.173   9.143
 2780POPC   GL236482  23.435  25.363   9.091
 2780POPC   C1A36483  23.722  25.128   8.728
 2780POPC   D2A36484  23.494  25.329   8.444
 2780POPC   C3A36485  23.766  25.201   8.162
 2780POPC   C4A36486  23.756  24.916   7.829
 2780POPC   C1B36487  23.723  25.642   8.839
 2780POPC   C2B36488  23.885  25.658   8.425
 2780POPC   C3B36489  23.756  25.703   8.033
 2780POPC   C4B36490  23.749  25.432   7.722
 2781POPC   NC336491  44.991   0.574   9.535
 2781POPC   PO436492  44.369   0.734   9.423
 2781POPC   GL136493  44.628   0.464   9.149
 2781POPC   GL236494  44.986   0.355   9.067
 2781POPC   C1A36495  44.585   0.293   8.761
 2781POPC   D2A36496  44.349   0.508   8.465
 2781POPC   C3A36497  44.513   0.483   8.079
 2781POPC   C4A36498  44.708   0.160   7.859
 2781POPC   C1B36499  44.919   0.770   8.860
 2781POPC   C2B36500  44.920   1.031   8.483
 2781POPC   C3B36501  44.919   0.985   8.036
 2781POPC   C4B36502  44.822   0.682   7.704
 2782POPC   NC336503  15.710  22.713   9.475
 2782POPC   PO436504  16.013  23.359   9.504
 2782POPC   GL136505  15.992  23.001   9.166
 2782POPC   GL236506  16.306  22.795   9.083
 2782POPC   C1A36507  15.827  22.720   8.803
 2782POPC   D2A36508  15.701  22.643   8.356
 2782POPC   C3A36509  15.907  22.807   7.969
 2782POPC   C4A36510  15.799  22.874   7.529
 2782POPC   C1B36511  16.238  23.020   8.732
 2782POPC   C2B36512  16.044  23.044   8.390
 2782POPC   C3B36513  16.201  23.228   8.074
 2782POPC   C4B36514  16.183  23.157   7.688
 2783POPC   NC336515   3.309   7.699   9.370
 2783POPC   PO436516   3.954   7.459   9.577
 2783POPC   GL136517   3.806   7.490   9.135
 2783POPC   GL236518   3.479   7.367   9.006
 2783POPC   C1A36519   3.801   7.548   8.676
 2783POPC   D2A36520   3.492   7.412   8.350
 2783POPC   C3A36521   3.515   7.523   7.899
 2783POPC   C4A36522   3.484   7.680   7.472
 2783POPC   C1B36523   3.279   7.088   8.689
 2783POPC   C2B36524   3.369   6.933   8.285
 2783POPC   C3B36525   3.321   7.028   7.885
 2783POPC   C4B36526   3.253   7.247   7.521
 2784POPC   NC336527  22.731  43.528   9.690
 2784POPC   PO436528  23.210  42.978   9.710
 2784POPC   GL136529  22.940  43.163   9.337
 2784POPC   GL236530  23.011  43.516   9.258
 2784POPC   C1A36531  22.981  43.160   8.858
 2784POPC   D2A36532  23.045  42.992   8.428
 2784POPC   C3A36533  23.128  43.127   8.035
 2784POPC   C4A36534  22.927  42.986   7.698
 2784POPC   C1B36535  23.055  43.670   8.846
 2784POPC   C2B36536  23.071  43.499   8.446
 2784POPC   C3B36537  23.131  43.627   8.051
 2784POPC   C4B36538  22.899  43.492   7.708
 2785POPC   NC336539  12.705  22.846   9.513
 2785POPC   PO436540  13.272  23.046   9.475
 2785POPC   GL136541  13.015  22.990   9.129
 2785POPC   GL236542  12.979  22.643   9.116
 2785POPC   C1A36543  12.893  22.957   8.705
 2785POPC   D2A36544  13.012  22.706   8.364
 2785POPC   C3A36545  12.951  22.954   8.006
 2785POPC   C4A36546  13.003  22.926   7.563
 2785POPC   C1B36547  12.737  22.490   8.765
 2785POPC   C2B36548  12.507  22.737   8.478
 2785POPC   C3B36549  12.550  22.628   8.081
 2785POPC   C4B36550  12.528  22.825   7.721
 2786POPC   NC336551  13.914  15.809   9.675
 2786POPC   PO436552  13.510  16.321   9.575
 2786POPC   GL136553  13.526  15.942   9.258
 2786POPC   GL236554  13.885  15.928   9.196
 2786POPC   C1A36555  13.613  15.838   8.779
 2786POPC   D2A36556  13.641  16.038   8.357
 2786POPC   C3A36557  13.554  15.849   7.957
 2786POPC   C4A36558  13.231  15.572   7.864
 2786POPC   C1B36559  14.111  16.211   8.942
 2786POPC   C2B36560  14.101  16.163   8.523
 2786POPC   C3B36561  13.950  16.394   8.165
 2786POPC   C4B36562  13.841  16.235   7.784
 2787POPC   NC336563  32.772   1.357   9.486
 2787POPC   PO436564  33.427   1.261   9.243
 2787POPC   GL136565  33.095   1.306   8.969
 2787POPC   GL236566  32.747   1.258   8.997
 2787POPC   C1A36567  32.978   1.375   8.556
 2787POPC   D2A36568  32.759   1.557   8.247
 2787POPC   C3A36569  32.838   1.344   7.899
 2787POPC   C4A36570  33.190   1.285   7.692
 2787POPC   C1B36571  32.543   0.999   8.711
 2787POPC   C2B36572  32.590   1.056   8.271
 2787POPC   C3B36573  32.497   0.972   7.856
 2787POPC   C4B36574  32.772   1.011   7.505
 2788POPC   NC336575   7.538  40.577   9.397
 2788POPC   PO436576   6.934  40.841   9.380
 2788POPC   GL136577   7.302  40.992   9.137
 2788POPC   GL236578   7.681  41.013   9.118
 2788POPC   C1A36579   7.424  40.814   8.725
 2788POPC   D2A36580   7.367  40.985   8.320
 2788POPC   C3A36581   7.448  40.771   7.956
 2788POPC   C4A36582   7.698  40.730   7.590
 2788POPC   C1B36583   7.728  41.230   8.702
 2788POPC   C2B36584   7.858  41.125   8.265
 2788POPC   C3B36585   7.656  41.215   7.852
 2788POPC   C4B36586   7.351  41.075   7.494
 2789POPC   NC336587   4.736  23.535   9.642
 2789POPC   PO436588   4.139  23.521   9.543
 2789POPC   GL136589   4.327  23.808   9.226
 2789POPC   GL236590   4.193  24.137   9.176
 2789POPC   C1A36591   4.429  23.925   8.789
 2789POPC   D2A36592   4.257  24.026   8.383
 2789POPC   C3A36593   4.346  23.722   8.044
 2789POPC   C4A36594   4.700  23.785   7.799
 2789POPC   C1B36595   3.925  23.988   8.815
 2789POPC   C2B36596   3.766  23.902   8.377
 2789POPC   C3B36597   3.930  24.008   7.947
 2789POPC   C4B36598   3.862  24.085   7.459
 2790POPC   NC336599  35.692  31.497   9.616
 2790POPC   PO436600  35.120  31.733   9.410
 2790POPC   GL136601  35.341  31.505   9.141
 2790POPC   GL236602  35.608  31.703   9.161
 2790POPC   C1A36603  35.235  31.514   8.706
 2790POPC   D2A36604  35.359  31.695   8.303
 2790POPC   C3A36605  35.192  31.456   7.946
 2790POPC   C4A36606  35.098  31.605   7.496
 2790POPC   C1B36607  35.717  31.636   8.704
 2790POPC   C2B36608  35.641  31.264   8.465
 2790POPC   C3B36609  35.726  31.382   8.071
 2790POPC   C4B36610  35.615  31.412   7.669
 2791POPC   NC336611  41.317  42.777   9.480
 2791POPC   PO436612  41.518  42.120   9.550
 2791POPC   GL136613  41.682  42.232   9.160
 2791POPC   GL236614  41.645  42.549   9.171
 2791POPC   C1A36615  41.639  42.248   8.717
 2791POPC   D2A36616  41.677  42.109   8.281
 2791POPC   C3A36617  41.459  42.185   7.897
 2791POPC   C4A36618  41.787  42.264   7.632
 2791POPC   C1B36619  41.396  42.700   8.821
 2791POPC   C2B36620  41.379  42.543   8.392
 2791POPC   C3B36621  41.675  42.623   8.078
 2791POPC   C4B36622  41.499  42.694   7.699
 2792POPC   NC336623   8.973  19.598   9.679
 2792POPC   PO436624   9.310  20.096   9.548
 2792POPC   GL136625   9.191  20.013   9.103
 2792POPC   GL236626   9.194  19.648   9.181
 2792POPC   C1A36627   9.011  19.930   8.696
 2792POPC   D2A36628   8.983  20.144   8.320
 2792POPC   C3A36629   9.083  19.916   7.998
 2792POPC   C4A36630   9.099  19.964   7.550
 2792POPC   C1B36631   9.154  19.408   8.816
 2792POPC   C2B36632   9.170  19.532   8.405
 2792POPC   C3B36633   8.997  19.374   8.062
 2792POPC   C4B36634   8.809  19.546   7.730
 2793POPC   NC336635  13.134  37.365   9.437
 2793POPC   PO436636  12.662  37.792   9.525
 2793POPC   GL136637  12.832  37.697   9.130
 2793POPC   GL236638  13.095  37.900   9.018
 2793POPC   C1A36639  12.656  37.532   8.751
 2793POPC   D2A36640  12.670  37.380   8.329
 2793POPC   C3A36641  12.902  37.606   8.014
 2793POPC   C4A36642  13.177  37.502   7.679
 2793POPC   C1B36643  12.980  37.923   8.613
 2793POPC   C2B36644  12.622  37.912   8.386
 2793POPC   C3B36645  12.618  38.031   7.988
 2793POPC   C4B36646  12.990  38.161   7.817
 2794POPC   NC336647  26.374  27.643   9.472
 2794POPC   PO436648  27.105  27.592   9.429
 2794POPC   GL136649  27.038  27.760   9.075
 2794POPC   GL236650  26.684  27.643   9.074
 2794POPC   C1A36651  26.942  27.700   8.632
 2794POPC   D2A36652  26.821  27.468   8.256
 2794POPC   C3A36653  27.063  27.521   7.859
 2794POPC   C4A36654  27.155  27.477   7.386
 2794POPC   C1B36655  26.400  27.884   8.826
 2794POPC   C2B36656  26.522  27.914   8.432
 2794POPC   C3B36657  26.398  27.908   8.027
 2794POPC   C4B36658  26.673  27.805   7.727
 2795POPC   NC336659  33.039  21.977   9.560
 2795POPC   PO436660  33.397  22.571   9.469
 2795POPC   GL136661  32.978  22.339   9.208
 2795POPC   GL236662  32.831  21.934   9.119
 2795POPC   C1A36663  32.809  22.313   8.787
 2795POPC   D2A36664  33.049  22.296   8.416
 2795POPC   C3A36665  32.920  22.400   8.005
 2795POPC   C4A36666  33.180  22.514   7.693
 2795POPC   C1B36667  33.102  21.870   8.789
 2795POPC   C2B36668  33.146  21.788   8.378
 2795POPC   C3B36669  32.847  21.891   8.085
 2795POPC   C4B36670  33.006  21.952   7.710
 2796POPC   NC336671   2.519   7.326   9.455
 2796POPC   PO436672   3.263   7.186   9.425
 2796POPC   GL136673   2.997   7.214   9.088
 2796POPC   GL236674   2.703   7.037   9.070
 2796POPC   C1A36675   2.930   7.494   8.739
 2796POPC   D2A36676   2.578   7.566   8.470
 2796POPC   C3A36677   2.679   7.679   8.043
 2796POPC   C4A36678   3.047   7.659   7.775
 2796POPC   C1B36679   2.703   7.043   8.632
 2796POPC   C2B36680   2.937   7.237   8.290
 2796POPC   C3B36681   2.833   7.200   7.885
 2796POPC   C4B36682   2.896   6.902   7.567
 2797POPC   NC336683  21.133  32.764   9.467
 2797POPC   PO436684  21.071  32.154   9.352
 2797POPC   GL136685  21.176  32.317   9.011
 2797POPC   GL236686  21.496  32.278   9.006
 2797POPC   C1A36687  21.196  32.079   8.615
 2797POPC   D2A36688  21.168  31.951   8.184
 2797POPC   C3A36689  21.123  32.290   7.902
 2797POPC   C4A36690  21.103  32.324   7.449
 2797POPC   C1B36691  21.508  32.491   8.627
 2797POPC   C2B36692  21.533  32.314   8.226
 2797POPC   C3B36693  21.623  32.166   7.829
 2797POPC   C4B36694  21.687  32.466   7.539
 2798POPC   NC336695  27.509  42.606   9.573
 2798POPC   PO436696  27.974  42.155   9.458
 2798POPC   GL136697  27.823  42.481   9.199
 2798POPC   GL236698  27.465  42.439   9.085
 2798POPC   C1A36699  27.834  42.649   8.802
 2798POPC   D2A36700  27.572  42.577   8.434
 2798POPC   C3A36701  27.736  42.463   8.027
 2798POPC   C4A36702  27.421  42.447   7.701
 2798POPC   C1B36703  27.644  42.166   8.766
 2798POPC   C2B36704  27.658  42.054   8.321
 2798POPC   C3B36705  27.493  41.976   7.885
 2798POPC   C4B36706  27.585  41.949   7.420
 2799POPC   NC336707  43.149  16.057   9.679
 2799POPC   PO436708  43.112  15.439   9.523
 2799POPC   GL136709  43.199  15.826   9.232
 2799POPC   GL236710  43.408  15.717   8.983
 2799POPC   C1A36711  42.916  15.999   8.879
 2799POPC   D2A36712  42.751  15.881   8.437
 2799POPC   C3A36713  42.731  16.150   8.076
 2799POPC   C4A36714  42.979  16.241   7.761
 2799POPC   C1B36715  43.273  15.867   8.562
 2799POPC   C2B36716  43.329  16.198   8.266
 2799POPC   C3B36717  43.386  15.986   7.888
 2799POPC   C4B36718  43.032  15.706   7.866
 2800POPC   NC336719   7.380  34.422   9.405
 2800POPC   PO436720   7.787  35.046   9.463
 2800POPC   GL136721   7.636  34.951   9.067
 2800POPC   GL236722   7.347  34.762   9.051
 2800POPC   C1A36723   7.701  34.734   8.669
 2800POPC   D2A36724   7.892  34.463   8.376
 2800POPC   C3A36725   7.575  34.500   8.067
 2800POPC   C4A36726   7.534  34.728   7.691
 2800POPC   C1B36727   7.130  34.453   8.760
 2800POPC   C2B36728   7.126  34.309   8.315
 2800POPC   C3B36729   7.086  34.416   7.864
 2800POPC   C4B36730   7.220  34.412   7.433
 2801POPC   NC336731   9.528  21.341   9.415
 2801POPC   PO436732  10.125  21.467   9.343
 2801POPC   GL136733   9.945  21.232   9.006
 2801POPC   GL236734   9.589  21.143   8.934
 2801POPC   C1A36735   9.911  21.358   8.590
 2801POPC   D2A36736   9.633  21.386   8.268
 2801POPC   C3A36737   9.820  21.228   7.907
 2801POPC   C4A36738  10.145  20.917   7.851
 2801POPC   C1B36739   9.472  21.592   8.737
 2801POPC   C2B36740   9.407  21.861   8.347
 2801POPC   C3B36741   9.565  21.760   7.941
 2801POPC   C4B36742   9.979  21.754   7.790
 2802POPC   NC336743  32.706  44.528   9.559
 2802POPC   PO436744  33.229  44.911   9.780
 2802POPC   GL136745  33.094  44.940   9.328
 2802POPC   GL236746  33.183  44.584   9.274
 2802POPC   C1A36747  33.206  44.937   8.873
 2802POPC   D2A36748  32.980  44.678   8.572
 2802POPC   C3A36749  32.905  44.769   8.137
 2802POPC   C4A36750  32.692  44.733   7.762
 2802POPC   C1B36751  33.253  44.394   8.873
 2802POPC   C2B36752  33.292  44.297   8.419
 2802POPC   C3B36753  33.010  44.267   8.062
 2802POPC   C4B36754  33.007  44.331   7.619
 2803POPC   NC336755  34.421   6.922   9.343
 2803POPC   PO436756  34.810   6.342   9.544
 2803POPC   GL136757  34.644   6.492   9.162
 2803POPC   GL236758  34.298   6.548   9.020
 2803POPC   C1A36759  34.744   6.473   8.743
 2803POPC   D2A36760  34.632   6.628   8.368
 2803POPC   C3A36761  34.887   6.565   8.059
 2803POPC   C4A36762  34.877   6.368   7.720
 2803POPC   C1B36763  34.427   6.902   8.736
 2803POPC   C2B36764  34.424   7.097   8.394
 2803POPC   C3B36765  34.446   6.937   7.998
 2803POPC   C4B36766  34.704   6.849   7.687
 2804POPC   NC336767  39.615  38.481   9.596
 2804POPC   PO436768  39.074  38.040   9.479
 2804POPC   GL136769  39.271  38.296   9.177
 2804POPC   GL236770  39.338  38.634   9.187
 2804POPC   C1A36771  39.382  38.366   8.758
 2804POPC   D2A36772  39.153  38.127   8.461
 2804POPC   C3A36773  39.248  38.279   8.094
 2804POPC   C4A36774  39.433  38.589   7.821
 2804POPC   C1B36775  39.128  38.821   8.836
 2804POPC   C2B36776  39.217  38.713   8.407
 2804POPC   C3B36777  39.007  38.727   8.029
 2804POPC   C4B36778  39.054  38.803   7.567
 2805POPC   NC336779  38.237  29.892   9.522
 2805POPC   PO436780  38.916  30.080   9.552
 2805POPC   GL136781  38.607  29.935   9.184
 2805POPC   GL236782  38.332  30.129   9.086
 2805POPC   C1A36783  38.506  29.769   8.780
 2805POPC   D2A36784  38.613  29.952   8.398
 2805POPC   C3A36785  38.435  29.780   8.066
 2805POPC   C4A36786  38.393  29.856   7.644
 2805POPC   C1B36787  38.325  30.321   8.687
 2805POPC   C2B36788  38.239  30.310   8.230
 2805POPC   C3B36789  38.280  30.337   7.780
 2805POPC   C4B36790  38.010  30.139   7.404
 2806POPC   NC336791  43.203  44.131   9.504
 2806POPC   PO436792  43.061  44.695   9.556
 2806POPC   GL136793  42.964  44.452   9.191
 2806POPC   GL236794  43.298  44.518   9.094
 2806POPC   C1A36795  42.949  44.548   8.734
 2806POPC   D2A36796  43.100  44.971   8.567
 2806POPC   C3A36797  43.140   0.023   8.115
 2806POPC   C4A36798  43.108  44.714   7.799
 2806POPC   C1B36799  43.469  44.525   8.673
 2806POPC   C2B36800  43.337  44.509   8.233
 2806POPC   C3B36801  43.484  44.378   7.816
 2806POPC   C4B36802  43.209  44.354   7.417
 2807POPC   NC336803   4.670  39.520   9.265
 2807POPC   PO436804   4.256  39.173   9.711
 2807POPC   GL136805   4.160  39.362   9.270
 2807POPC   GL236806   4.243  39.078   9.088
 2807POPC   C1A36807   3.999  39.465   8.815
 2807POPC   D2A36808   3.839  39.408   8.354
 2807POPC   C3A36809   4.124  39.374   7.975
 2807POPC   C4A36810   4.310  38.997   7.767
 2807POPC   C1B36811   4.451  39.095   8.670
 2807POPC   C2B36812   4.566  39.065   8.231
 2807POPC   C3B36813   4.777  39.206   7.849
 2807POPC   C4B36814   4.780  39.036   7.436
 2808POPC   NC336815   9.012  37.010   9.932
 2808POPC   PO436816   8.589  36.679   9.460
 2808POPC   GL136817   8.861  36.874   9.144
 2808POPC   GL236818   9.202  36.978   9.263
 2808POPC   C1A36819   8.913  36.814   8.685
 2808POPC   D2A36820   8.850  36.584   8.295
 2808POPC   C3A36821   8.842  36.906   7.977
 2808POPC   C4A36822   8.774  37.274   7.777
 2808POPC   C1B36823   9.321  36.637   8.949
 2808POPC   C2B36824   9.377  36.670   8.461
 2808POPC   C3B36825   9.256  36.607   7.985
 2808POPC   C4B36826   8.884  36.465   7.710
 2809POPC   NC336827   9.269  20.681   9.417
 2809POPC   PO436828   8.770  20.240   9.574
 2809POPC   GL136829   8.873  20.426   9.150
 2809POPC   GL236830   8.947  20.823   9.052
 2809POPC   C1A36831   8.887  20.460   8.704
 2809POPC   D2A36832   8.794  20.835   8.462
 2809POPC   C3A36833   8.881  20.757   8.039
 2809POPC   C4A36834   8.841  20.340   7.849
 2809POPC   C1B36835   9.315  20.729   8.763
 2809POPC   C2B36836   9.318  20.551   8.366
 2809POPC   C3B36837   9.334  20.393   7.985
 2809POPC   C4B36838   9.199  20.636   7.666
 2810POPC   NC336839   6.208   3.260   9.516
 2810POPC   PO436840   5.648   3.697   9.460
 2810POPC   GL136841   5.559   3.521   9.096
 2810POPC   GL236842   5.709   3.228   9.177
 2810POPC   C1A36843   5.724   3.625   8.704
 2810POPC   D2A36844   5.875   3.458   8.353
 2810POPC   C3A36845   5.772   3.583   7.982
 2810POPC   C4A36846   5.570   3.886   7.772
 2810POPC   C1B36847   6.032   3.101   8.860
 2810POPC   C2B36848   6.097   3.002   8.410
 2810POPC   C3B36849   6.211   3.207   8.030
 2810POPC   C4B36850   6.259   3.336   7.585
 2811POPC   NC336851  12.148  16.273   9.549
 2811POPC   PO436852  11.546  15.896   9.641
 2811POPC   GL136853  11.831  16.080   9.224
 2811POPC   GL236854  12.188  16.062   9.094
 2811POPC   C1A36855  11.853  16.102   8.752
 2811POPC   D2A36856  12.134  15.987   8.430
 2811POPC   C3A36857  12.024  16.088   8.023
 2811POPC   C4A36858  12.071  15.813   7.705
 2811POPC   C1B36859  12.336  16.330   8.759
 2811POPC   C2B36860  12.218  16.485   8.371
 2811POPC   C3B36861  12.450  16.357   8.019
 2811POPC   C4B36862  12.484  16.140   7.658
 2812POPC   NC336863  10.822  36.598   9.431
 2812POPC   PO436864  10.136  36.578   9.516
 2812POPC   GL136865  10.394  36.767   9.164
 2812POPC   GL236866  10.222  37.033   9.005
 2812POPC   C1A36867  10.732  36.936   8.854
 2812POPC   D2A36868  10.668  37.103   8.440
 2812POPC   C3A36869  10.775  36.982   8.004
 2812POPC   C4A36870  10.547  36.988   7.578
 2812POPC   C1B36871  10.298  36.781   8.642
 2812POPC   C2B36872  10.308  36.790   8.196
 2812POPC   C3B36873  10.186  36.687   7.793
 2812POPC   C4B36874  10.294  36.586   7.359
 2813POPC   NC336875  13.272  25.138   9.341
 2813POPC   PO436876  12.570  25.101   9.453
 2813POPC   GL136877  12.777  25.453   9.160
 2813POPC   GL236878  13.134  25.567   9.126
 2813POPC   C1A36879  12.715  25.573   8.706
 2813POPC   D2A36880  12.821  25.251   8.398
 2813POPC   C3A36881  12.706  25.236   7.979
 2813POPC   C4A36882  12.686  24.978   7.601
 2813POPC   C1B36883  13.208  25.316   8.733
 2813POPC   C2B36884  13.295  25.025   8.413
 2813POPC   C3B36885  13.227  25.207   8.049
 2813POPC   C4B36886  13.118  25.237   7.646
 2814POPC   NC336887  14.853  32.711   9.456
 2814POPC   PO436888  15.400  33.179   9.514
 2814POPC   GL136889  15.279  32.892   9.182
 2814POPC   GL236890  14.953  32.978   9.028
 2814POPC   C1A36891  15.370  32.802   8.752
 2814POPC   D2A36892  15.374  33.078   8.420
 2814POPC   C3A36893  15.269  32.958   8.021
 2814POPC   C4A36894  15.603  33.021   7.759
 2814POPC   C1B36895  14.924  33.310   8.706
 2814POPC   C2B36896  14.965  33.379   8.254
 2814POPC   C3B36897  14.978  33.357   7.787
 2814POPC   C4B36898  15.075  33.269   7.345
 2815POPC   NC336899  16.141  15.987   9.588
 2815POPC   PO436900  15.590  15.723   9.646
 2815POPC   GL136901  15.802  15.767   9.251
 2815POPC   GL236902  16.125  15.578   9.272
 2815POPC   C1A36903  15.861  15.980   8.826
 2815POPC   D2A36904  15.621  15.990   8.419
 2815POPC   C3A36905  15.814  16.052   7.994
 2815POPC   C4A36906  16.066  16.344   7.685
 2815POPC   C1B36907  16.338  15.636   8.860
 2815POPC   C2B36908  16.421  15.865   8.458
 2815POPC   C3B36909  16.318  15.729   8.035
 2815POPC   C4B36910  16.113  15.832   7.652
 2816POPC   NC336911  17.536   6.775   9.716
 2816POPC   PO436912  17.812   6.313   9.326
 2816POPC   GL136913  17.864   6.688   9.115
 2816POPC   GL236914  17.596   6.900   9.201
 2816POPC   C1A36915  17.916   6.665   8.670
 2816POPC   D2A36916  17.599   6.437   8.415
 2816POPC   C3A36917  17.698   6.352   7.992
 2816POPC   C4A36918  17.961   6.350   7.654
 2816POPC   C1B36919  17.446   6.803   8.778
 2816POPC   C2B36920  17.498   6.920   8.312
 2816POPC   C3B36921  17.300   6.757   7.923
 2816POPC   C4B36922  17.318   6.935   7.473
 2817POPC   NC336923  12.016   7.247   9.765
 2817POPC   PO436924  12.045   7.878   9.872
 2817POPC   GL136925  12.113   7.809   9.252
 2817POPC   GL236926  11.822   7.809   9.068
 2817POPC   C1A36927  12.177   7.708   8.752
 2817POPC   D2A36928  12.258   7.651   8.279
 2817POPC   C3A36929  12.276   7.242   8.035
 2817POPC   C4A36930  12.340   7.007   7.631
 2817POPC   C1B36931  11.678   7.631   8.695
 2817POPC   C2B36932  11.741   7.763   8.323
 2817POPC   C3B36933  11.882   7.636   7.924
 2817POPC   C4B36934  12.107   7.478   7.627
 2818POPC   NC336935  29.692  37.280   9.349
 2818POPC   PO436936  29.065  37.024   9.442
 2818POPC   GL136937  29.126  36.834   9.043
 2818POPC   GL236938  28.891  36.554   8.993
 2818POPC   C1A36939  29.304  37.092   8.679
 2818POPC   D2A36940  29.399  37.277   8.256
 2818POPC   C3A36941  29.126  37.099   7.957
 2818POPC   C4A36942  29.246  36.949   7.574
 2818POPC   C1B36943  28.883  36.785   8.589
 2818POPC   C2B36944  29.223  36.737   8.312
 2818POPC   C3B36945  29.205  36.544   7.950
 2818POPC   C4B36946  28.836  36.683   7.814
 2819POPC   NC336947   9.641  26.516   9.833
 2819POPC   PO436948   9.743  27.032   9.394
 2819POPC   GL136949   9.730  27.008   9.011
 2819POPC   GL236950   9.877  26.684   9.019
 2819POPC   C1A36951   9.674  26.981   8.607
 2819POPC   D2A36952   9.998  26.771   8.421
 2819POPC   C3A36953   9.880  26.869   8.027
 2819POPC   C4A36954   9.677  26.661   7.727
 2819POPC   C1B36955   9.647  26.480   8.682
 2819POPC   C2B36956   9.623  26.459   8.239
 2819POPC   C3B36957   9.379  26.301   7.912
 2819POPC   C4B36958   9.135  26.472   7.666
 2820POPC   NC336959  22.519  36.942   9.494
 2820POPC   PO436960  21.968  37.362   9.595
 2820POPC   GL136961  21.995  36.923   9.288
 2820POPC   GL236962  22.291  36.782   9.076
 2820POPC   C1A36963  21.856  36.642   8.890
 2820POPC   D2A36964  22.035  36.561   8.487
 2820POPC   C3A36965  21.815  36.776   8.155
 2820POPC   C4A36966  21.908  36.936   7.743
 2820POPC   C1B36967  22.459  36.836   8.682
 2820POPC   C2B36968  22.314  36.977   8.275
 2820POPC   C3B36969  22.396  37.052   7.862
 2820POPC   C4B36970  22.337  36.920   7.478
 2821POPC   NC336971  14.206  27.701   9.387
 2821POPC   PO436972  14.821  27.975   9.507
 2821POPC   GL136973  14.636  27.812   9.130
 2821POPC   GL236974  14.619  27.472   9.104
 2821POPC   C1A36975  14.446  27.791   8.716
 2821POPC   D2A36976  14.651  27.855   8.301
 2821POPC   C3A36977  14.479  27.801   7.875
 2821POPC   C4A36978  14.694  27.600   7.491
 2821POPC   C1B36979  14.524  27.279   8.758
 2821POPC   C2B36980  14.346  27.411   8.391
 2821POPC   C3B36981  14.478  27.338   8.014
 2821POPC   C4B36982  14.270  27.334   7.644
 2822POPC   NC336983   3.034  23.311   9.373
 2822POPC   PO436984   2.538  23.154   9.750
 2822POPC   GL136985   2.612  23.000   9.279
 2822POPC   GL236986   2.641  23.270   9.055
 2822POPC   C1A36987   2.882  22.828   8.855
 2822POPC   D2A36988   3.174  22.967   8.447
 2822POPC   C3A36989   2.986  22.920   8.023
 2822POPC   C4A36990   2.621  22.663   7.895
 2822POPC   C1B36991   2.848  23.280   8.661
 2822POPC   C2B36992   2.617  23.035   8.360
 2822POPC   C3B36993   2.515  23.186   7.963
 2822POPC   C4B36994   2.762  23.216   7.613
 2823POPC   NC336995  22.167  16.679   9.727
 2823POPC   PO436996  22.683  16.381   9.401
 2823POPC   GL136997  22.305  16.574   9.233
 2823POPC   GL236998  21.935  16.485   9.173
 2823POPC   C1A36999  22.242  16.736   8.830
 2823POPC   D2A37000  22.213  16.975   8.451
 2823POPC   C3A37001  22.275  16.756   8.091
 2823POPC   C4A37002  22.327  16.905   7.691
 2823POPC   C1B37003  21.749  16.593   8.752
 2823POPC   C2B37004  21.773  16.754   8.312
 2823POPC   C3B37005  21.840  16.756   7.862
 2823POPC   C4B37006  21.944  16.743   7.411
 2824POPC   NC337007  22.439  28.729   9.584
 2824POPC   PO437008  22.034  29.244   9.396
 2824POPC   GL137009  22.186  29.214   9.018
 2824POPC   GL237010  22.361  28.889   9.122
 2824POPC   C1A37011  22.098  29.228   8.546
 2824POPC   D2A37012  22.381  29.384   8.211
 2824POPC   C3A37013  22.179  29.380   7.801
 2824POPC   C4A37014  22.041  29.411   7.359
 2824POPC   C1B37015  22.112  28.779   8.776
 2824POPC   C2B37016  21.878  28.760   8.391
 2824POPC   C3B37017  21.987  28.944   8.009
 2824POPC   C4B37018  22.011  28.941   7.572
 2825POPC   NC337019  13.768  17.202   9.391
 2825POPC   PO437020  14.341  16.866   9.543
 2825POPC   GL137021  14.410  16.698   9.167
 2825POPC   GL237022  14.594  16.987   9.014
 2825POPC   C1A37023  14.491  16.532   8.791
 2825POPC   D2A37024  14.327  16.632   8.425
 2825POPC   C3A37025  14.441  16.567   8.021
 2825POPC   C4A37026  14.121  16.652   7.749
 2825POPC   C1B37027  14.172  16.964   8.820
 2825POPC   C2B37028  14.013  17.045   8.438
 2825POPC   C3B37029  14.307  17.078   8.129
 2825POPC   C4B37030  14.447  17.038   7.744
 2826POPC   NC337031  43.910  16.890   9.457
 2826POPC   PO437032  43.495  16.361   9.562
 2826POPC   GL137033  43.778  16.456   9.195
 2826POPC   GL237034  43.566  16.727   9.108
 2826POPC   C1A37035  43.993  16.450   8.764
 2826POPC   D2A37036  43.810  16.350   8.319
 2826POPC   C3A37037  43.960  16.357   7.932
 2826POPC   C4A37038  43.927  16.509   7.503
 2826POPC   C1B37039  43.891  16.936   8.813
 2826POPC   C2B37040  43.902  16.879   8.374
 2826POPC   C3B37041  43.872  16.855   7.915
 2826POPC   C4B37042  44.111  16.982   7.543
 2827POPC   NC337043  39.663  23.341   9.446
 2827POPC   PO437044  40.198  23.133   9.809
 2827POPC   GL137045  40.117  22.998   9.359
 2827POPC   GL237046  40.182  22.649   9.270
 2827POPC   C1A37047  40.150  23.047   8.910
 2827POPC   D2A37048  40.277  22.926   8.490
 2827POPC   C3A37049  40.103  23.006   8.072
 2827POPC   C4A37050  40.032  23.233   7.687
 2827POPC   C1B37051  40.108  22.556   8.831
 2827POPC   C2B37052  40.203  22.391   8.436
 2827POPC   C3B37053  40.031  22.497   8.046
 2827POPC   C4B37054  39.876  22.751   7.711
 2828POPC   NC337055   5.047  43.677   9.582
 2828POPC   PO437056   4.905  43.043   9.491
 2828POPC   GL137057   5.056  43.313   9.197
 2828POPC   GL237058   4.762  43.516   9.170
 2828POPC   C1A37059   5.224  43.173   8.781
 2828POPC   D2A37060   5.225  43.350   8.371
 2828POPC   C3A37061   5.204  43.121   8.007
 2828POPC   C4A37062   5.334  43.383   7.713
 2828POPC   C1B37063   4.709  43.147   8.873
 2828POPC   C2B37064   4.756  43.127   8.435
 2828POPC   C3B37065   4.679  43.046   7.990
 2828POPC   C4B37066   4.824  43.198   7.608
 2829POPC   NC337067  26.539  36.847   9.518
 2829POPC   PO437068  27.084  37.302   9.498
 2829POPC   GL137069  26.916  37.023   9.223
 2829POPC   GL237070  26.620  37.196   9.105
 2829POPC   C1A37071  27.000  36.960   8.811
 2829POPC   D2A37072  26.899  37.232   8.508
 2829POPC   C3A37073  27.026  37.160   8.079
 2829POPC   C4A37074  27.144  36.771   7.846
 2829POPC   C1B37075  26.496  36.984   8.709
 2829POPC   C2B37076  26.694  36.827   8.292
 2829POPC   C3B37077  26.564  37.027   7.887
 2829POPC   C4B37078  26.425  36.905   7.471
 2830POPC   NC337079  11.201  26.784   9.462
 2830POPC   PO437080  11.919  26.733   9.419
 2830POPC   GL137081  11.591  26.926   9.165
 2830POPC   GL237082  11.445  26.569   9.067
 2830POPC   C1A37083  11.313  26.981   8.803
 2830POPC   D2A37084  11.385  26.665   8.465
 2830POPC   C3A37085  11.550  26.777   8.044
 2830POPC   C4A37086  11.324  26.907   7.688
 2830POPC   C1B37087  11.010  26.565   8.854
 2830POPC   C2B37088  10.914  26.477   8.417
 2830POPC   C3B37089  11.081  26.533   7.983
 2830POPC   C4B37090  10.984  26.435   7.551
 2831POPC   NC337091  39.640  18.264   9.381
 2831POPC   PO437092  40.137  18.535   9.213
 2831POPC   GL137093  40.020  18.127   9.081
 2831POPC   GL237094  39.746  17.847   9.129
 2831POPC   C1A37095  39.950  18.260   8.658
 2831POPC   D2A37096  40.277  18.487   8.462
 2831POPC   C3A37097  40.131  18.460   8.069
 2831POPC   C4A37098  40.292  18.312   7.690
 2831POPC   C1B37099  39.958  17.767   8.736
 2831POPC   C2B37100  40.056  17.915   8.294
 2831POPC   C3B37101  39.763  18.084   7.980
 2831POPC   C4B37102  39.823  18.130   7.543
 2832POPC   NC337103  33.662  28.997   9.528
 2832POPC   PO437104  33.022  29.037   9.580
 2832POPC   GL137105  32.946  28.840   9.182
 2832POPC   GL237106  33.307  28.759   9.207
 2832POPC   C1A37107  32.738  28.960   8.790
 2832POPC   D2A37108  32.872  29.054   8.374
 2832POPC   C3A37109  32.798  29.268   7.985
 2832POPC   C4A37110  32.784  28.937   7.694
 2832POPC   C1B37111  33.272  29.002   8.811
 2832POPC   C2B37112  33.387  29.099   8.375
 2832POPC   C3B37113  33.340  29.124   7.926
 2832POPC   C4B37114  33.261  28.798   7.585
 2833POPC   NC337115  31.405  31.406   9.446
 2833POPC   PO437116  31.767  31.929   9.448
 2833POPC   GL137117  31.644  31.647   9.070
 2833POPC   GL237118  31.678  31.231   9.064
 2833POPC   C1A37119  31.510  31.750   8.643
 2833POPC   D2A37120  31.789  31.752   8.294
 2833POPC   C3A37121  31.670  31.575   7.912
 2833POPC   C4A37122  31.729  31.679   7.481
 2833POPC   C1B37123  31.414  31.258   8.699
 2833POPC   C2B37124  31.447  31.254   8.267
 2833POPC   C3B37125  31.234  31.296   7.876
 2833POPC   C4B37126  31.249  31.626   7.609
 2834POPC   NC337127  26.556  42.352   9.456
 2834POPC   PO437128  27.068  42.751   9.701
 2834POPC   GL137129  27.009  42.554   9.288
 2834POPC   GL237130  27.015  42.152   9.218
 2834POPC   C1A37131  26.976  42.515   8.838
 2834POPC   D2A37132  27.161  42.191   8.553
 2834POPC   C3A37133  27.184  42.305   8.137
 2834POPC   C4A37134  26.908  42.411   7.788
 2834POPC   C1B37135  26.748  42.053   8.841
 2834POPC   C2B37136  26.618  42.289   8.493
 2834POPC   C3B37137  26.548  42.233   8.094
 2834POPC   C4B37138  26.546  42.045   7.696
 2835POPC   NC337139  37.531  44.726   9.474
 2835POPC   PO437140  38.018   0.312   9.598
 2835POPC   GL137141  37.903  44.974   9.225
 2835POPC   GL237142  37.536  44.969   9.041
 2835POPC   C1A37143  37.948  44.759   8.813
 2835POPC   D2A37144  38.031  44.495   8.456
 2835POPC   C3A37145  37.812  44.517   8.095
 2835POPC   C4A37146  37.660  44.877   7.967
 2835POPC   C1B37147  37.465  44.593   8.812
 2835POPC   C2B37148  37.373  44.553   8.381
 2835POPC   C3B37149  37.392  44.199   8.100
 2835POPC   C4B37150  37.511  44.238   7.658
 2836POPC   NC337151  22.074  31.277   9.459
 2836POPC   PO437152  22.394  31.881   9.423
 2836POPC   GL137153  22.334  31.673   9.044
 2836POPC   GL237154  21.965  31.732   9.035
 2836POPC   C1A37155  22.220  31.279   8.797
 2836POPC   D2A37156  21.905  31.164   8.461
 2836POPC   C3A37157  21.970  31.281   8.040
 2836POPC   C4A37158  22.340  31.261   7.771
 2836POPC   C1B37159  22.019  31.697   8.568
 2836POPC   C2B37160  22.214  31.712   8.161
 2836POPC   C3B37161  22.061  31.715   7.745
 2836POPC   C4B37162  21.958  31.808   7.272
 2837POPC   NC337163  31.705  22.928   9.763
 2837POPC   PO437164  31.121  22.584   9.437
 2837POPC   GL137165  31.423  22.769   9.139
 2837POPC   GL237166  31.443  23.081   9.104
 2837POPC   C1A37167  31.326  22.889   8.672
 2837POPC   D2A37168  31.539  23.066   8.309
 2837POPC   C3A37169  31.372  22.897   7.935
 2837POPC   C4A37170  31.432  22.474   7.819
 2837POPC   C1B37171  31.648  23.325   8.761
 2837POPC   C2B37172  31.989  23.307   8.453
 2837POPC   C3B37173  31.894  23.362   7.993
 2837POPC   C4B37174  31.662  23.223   7.645
 2838POPC   NC337175  22.631  23.243   9.521
 2838POPC   PO437176  23.193  22.880   9.443
 2838POPC   GL137177  22.849  22.913   9.149
 2838POPC   GL237178  22.760  22.578   8.994
 2838POPC   C1A37179  22.819  23.047   8.712
 2838POPC   D2A37180  22.611  22.903   8.340
 2838POPC   C3A37181  22.752  23.039   7.948
 2838POPC   C4A37182  22.846  23.158   7.529
 2838POPC   C1B37183  23.164  22.663   8.802
 2838POPC   C2B37184  23.271  22.942   8.456
 2838POPC   C3B37185  23.337  22.781   8.044
 2838POPC   C4B37186  23.077  22.737   7.679
 2839POPC   NC337187  31.054  20.592   9.598
 2839POPC   PO437188  30.551  20.955   9.407
 2839POPC   GL137189  30.944  20.879   9.172
 2839POPC   GL237190  30.915  20.555   9.094
 2839POPC   C1A37191  30.924  20.951   8.718
 2839POPC   D2A37192  30.788  20.727   8.337
 2839POPC   C3A37193  30.760  20.853   7.886
 2839POPC   C4A37194  30.461  20.822   7.500
 2839POPC   C1B37195  30.825  20.347   8.720
 2839POPC   C2B37196  30.858  20.224   8.305
 2839POPC   C3B37197  30.973  20.106   7.899
 2839POPC   C4B37198  30.730  20.389   7.663
 2840POPC   NC337199  29.460  13.055   9.315
 2840POPC   PO437200  29.821  12.674   9.679
 2840POPC   GL137201  29.931  12.909   9.207
 2840POPC   GL237202  30.202  13.114   9.079
 2840POPC   C1A37203  29.893  12.767   8.737
 2840POPC   D2A37204  29.813  12.501   8.391
 2840POPC   C3A37205  29.907  12.711   8.007
 2840POPC   C4A37206  29.768  12.713   7.577
 2840POPC   C1B37207  30.379  12.925   8.699
 2840POPC   C2B37208  30.340  12.652   8.315
 2840POPC   C3B37209  30.362  12.595   7.840
 2840POPC   C4B37210  30.163  12.459   7.418
 2841POPC   NC337211  26.772  25.595   9.488
 2841POPC   PO437212  26.524  25.051   9.566
 2841POPC   GL137213  26.681  25.206   9.188
 2841POPC   GL237214  26.443  25.446   9.074
 2841POPC   C1A37215  26.850  25.294   8.806
 2841POPC   D2A37216  26.624  25.330   8.446
 2841POPC   C3A37217  26.818  25.092   8.139
 2841POPC   C4A37218  26.829  25.025   7.712
 2841POPC   C1B37219  26.300  25.732   8.720
 2841POPC   C2B37220  26.421  25.868   8.304
 2841POPC   C3B37221  26.682  25.627   8.020
 2841POPC   C4B37222  26.577  25.445   7.630
 2842POPC   NC337223  18.036  30.995   9.669
 2842POPC   PO437224  18.235  30.323   9.637
 2842POPC   GL137225  18.266  30.429   9.177
 2842POPC   GL237226  18.326  30.800   9.130
 2842POPC   C1A37227  18.414  30.530   8.729
 2842POPC   D2A37228  18.517  30.346   8.353
 2842POPC   C3A37229  18.523  30.514   7.955
 2842POPC   C4A37230  18.117  30.560   7.801
 2842POPC   C1B37231  18.144  31.046   8.729
 2842POPC   C2B37232  18.143  31.198   8.289
 2842POPC   C3B37233  18.277  31.046   7.890
 2842POPC   C4B37234  18.085  31.040   7.495
 2843POPC   NC337235  12.907  10.569   9.735
 2843POPC   PO437236  12.829  10.053   9.388
 2843POPC   GL137237  12.816  10.408   9.143
 2843POPC   GL237238  13.066  10.616   9.233
 2843POPC   C1A37239  12.732  10.372   8.706
 2843POPC   D2A37240  12.961  10.131   8.388
 2843POPC   C3A37241  13.008  10.347   8.001
 2843POPC   C4A37242  12.874  10.607   7.670
 2843POPC   C1B37243  13.148  10.651   8.797
 2843POPC   C2B37244  12.931  10.706   8.356
 2843POPC   C3B37245  13.077  10.934   7.985
 2843POPC   C4B37246  13.186  10.973   7.502
 2844POPC   NC337247  22.454   2.936   9.420
 2844POPC   PO437248  23.057   3.107   9.372
 2844POPC   GL137249  22.948   2.711   9.136
 2844POPC   GL237250  22.680   2.488   9.336
 2844POPC   C1A37251  22.909   2.669   8.652
 2844POPC   D2A37252  23.041   2.534   8.225
 2844POPC   C3A37253  23.047   2.735   7.806
 2844POPC   C4A37254  22.674   3.027   7.727
 2844POPC   C1B37255  22.649   2.334   8.931
 2844POPC   C2B37256  22.620   2.306   8.441
 2844POPC   C3B37257  22.574   2.625   8.093
 2844POPC   C4B37258  22.610   2.479   7.704
 2845POPC   NC337259  25.787  31.145   9.306
 2845POPC   PO437260  25.782  31.835   9.548
 2845POPC   GL137261  25.700  31.665   9.211
 2845POPC   GL237262  26.058  31.694   9.110
 2845POPC   C1A37263  25.636  31.588   8.808
 2845POPC   D2A37264  25.705  31.281   8.496
 2845POPC   C3A37265  25.828  31.452   8.123
 2845POPC   C4A37266  25.622  31.409   7.712
 2845POPC   C1B37267  26.119  31.349   8.811
 2845POPC   C2B37268  26.164  31.045   8.498
 2845POPC   C3B37269  26.264  31.152   8.094
 2845POPC   C4B37270  26.109  31.274   7.717
 2846POPC   NC337271  37.702  40.569   9.380
 2846POPC   PO437272  37.707  40.060   9.894
 2846POPC   GL137273  37.706  40.048   9.392
 2846POPC   GL237274  37.964  40.193   9.133
 2846POPC   C1A37275  37.554  39.951   8.941
 2846POPC   D2A37276  37.585  39.837   8.496
 2846POPC   C3A37277  37.340  40.034   8.144
 2846POPC   C4A37278  37.567  39.984   7.748
 2846POPC   C1B37279  37.921  40.222   8.666
 2846POPC   C2B37280  37.812  40.218   8.221
 2846POPC   C3B37281  37.982  40.286   7.809
 2846POPC   C4B37282  37.880  40.321   7.353
 2847POPC   NC337283  35.094  19.052   9.544
 2847POPC   PO437284  34.492  18.818   9.422
 2847POPC   GL137285  34.785  18.913   9.132
 2847POPC   GL237286  34.628  19.243   9.146
 2847POPC   C1A37287  34.773  18.744   8.718
 2847POPC   D2A37288  34.491  18.782   8.357
 2847POPC   C3A37289  34.719  18.760   7.997
 2847POPC   C4A37290  34.760  18.903   7.571
 2847POPC   C1B37291  34.404  19.300   8.753
 2847POPC   C2B37292  34.321  19.294   8.308
 2847POPC   C3B37293  34.432  19.180   7.897
 2847POPC   C4B37294  34.289  19.154   7.497
 2848POPC   NC337295   5.262  20.101   9.264
 2848POPC   PO437296   4.872  19.529   9.437
 2848POPC   GL137297   4.974  19.749   9.070
 2848POPC   GL237298   5.286  19.633   9.050
 2848POPC   C1A37299   5.069  19.966   8.655
 2848POPC   D2A37300   4.892  19.901   8.234
 2848POPC   C3A37301   5.164  19.944   7.864
 2848POPC   C4A37302   5.192  19.712   7.459
 2848POPC   C1B37303   5.457  19.353   8.746
 2848POPC   C2B37304   5.657  19.459   8.350
 2848POPC   C3B37305   5.544  19.530   7.924
 2848POPC   C4B37306   5.676  19.414   7.544
 2849POPC   NC337307  39.735  24.071   9.375
 2849POPC   PO437308  40.081  23.511   9.364
 2849POPC   GL137309  40.174  23.828   9.118
 2849POPC   GL237310  40.513  23.676   9.109
 2849POPC   C1A37311  39.925  23.891   8.732
 2849POPC   D2A37312  39.948  23.981   8.292
 2849POPC   C3A37313  39.914  23.711   7.930
 2849POPC   C4A37314  39.785  24.064   7.696
 2849POPC   C1B37315  40.291  23.491   8.735
 2849POPC   C2B37316  40.101  23.427   8.353
 2849POPC   C3B37317  40.362  23.446   7.992
 2849POPC   C4B37318  40.362  23.612   7.582
 2850POPC   NC337319   7.148  11.320   9.462
 2850POPC   PO437320   7.760  11.149   9.591
 2850POPC   GL137321   7.574  11.265   9.197
 2850POPC   GL237322   7.587  11.590   9.153
 2850POPC   C1A37323   7.336  11.197   8.813
 2850POPC   D2A37324   7.259  10.983   8.410
 2850POPC   C3A37325   7.568  11.112   8.102
 2850POPC   C4A37326   7.409  11.120   7.700
 2850POPC   C1B37327   7.650  11.758   8.763
 2850POPC   C2B37328   7.478  11.506   8.426
 2850POPC   C3B37329   7.255  11.517   8.032
 2850POPC   C4B37330   7.491  11.771   7.744
 2851POPC   NC337331  19.107  15.800   9.524
 2851POPC   PO437332  18.847  16.454   9.385
 2851POPC   GL137333  18.959  16.080   9.129
 2851POPC   GL237334  19.306  16.155   8.991
 2851POPC   C1A37335  19.014  15.824   8.704
 2851POPC   D2A37336  19.096  16.029   8.269
 2851POPC   C3A37337  19.197  15.882   7.845
 2851POPC   C4A37338  19.380  15.777   7.400
 2851POPC   C1B37339  18.981  16.320   8.700
 2851POPC   C2B37340  18.771  16.439   8.338
 2851POPC   C3B37341  18.925  16.390   7.922
 2851POPC   C4B37342  18.714  16.333   7.537
 2852POPC   NC337343   3.541  18.571   9.399
 2852POPC   PO437344   3.519  19.166   9.490
 2852POPC   GL137345   3.480  18.986   9.067
 2852POPC   GL237346   3.742  18.707   8.965
 2852POPC   C1A37347   3.684  19.111   8.672
 2852POPC   D2A37348   3.524  19.073   8.274
 2852POPC   C3A37349   3.653  19.326   7.970
 2852POPC   C4A37350   3.653  19.095   7.620
 2852POPC   C1B37351   3.411  18.662   8.663
 2852POPC   C2B37352   3.291  18.622   8.231
 2852POPC   C3B37353   3.266  18.807   7.821
 2852POPC   C4B37354   3.107  18.743   7.389
 2853POPC   NC337355  13.127  35.724   9.330
 2853POPC   PO437356  13.479  36.053   9.789
 2853POPC   GL137357  13.644  35.974   9.318
 2853POPC   GL237358  13.767  36.295   9.132
 2853POPC   C1A37359  13.588  35.752   8.881
 2853POPC   D2A37360  13.453  35.627   8.440
 2853POPC   C3A37361  13.511  35.944   8.134
 2853POPC   C4A37362  13.508  36.043   7.707
 2853POPC   C1B37363  14.002  36.447   8.741
 2853POPC   C2B37364  13.862  36.434   8.300
 2853POPC   C3B37365  14.033  36.371   7.849
 2853POPC   C4B37366  13.882  36.211   7.428
 2854POPC   NC337367  32.427   2.989   9.535
 2854POPC   PO437368  31.935   2.480   9.558
 2854POPC   GL137369  32.119   2.740   9.225
 2854POPC   GL237370  32.440   2.579   9.218
 2854POPC   C1A37371  32.274   3.011   8.873
 2854POPC   D2A37372  32.347   2.894   8.453
 2854POPC   C3A37373  32.258   3.017   8.049
 2854POPC   C4A37374  32.051   2.775   7.748
 2854POPC   C1B37375  32.307   2.485   8.813
 2854POPC   C2B37376  32.566   2.430   8.447
 2854POPC   C3B37377  32.783   2.473   8.042
 2854POPC   C4B37378  32.600   2.293   7.679
 2855POPC   NC337379  28.748  40.128   9.297
 2855POPC   PO437380  28.262  39.760   9.662
 2855POPC   GL137381  28.348  39.845   9.187
 2855POPC   GL237382  28.362  40.191   8.966
 2855POPC   C1A37383  28.583  39.786   8.773
 2855POPC   D2A37384  28.548  39.871   8.359
 2855POPC   C3A37385  28.192  40.015   8.130
 2855POPC   C4A37386  28.264  39.846   7.753
 2855POPC   C1B37387  28.765  40.274   8.687
 2855POPC   C2B37388  28.943  40.167   8.272
 2855POPC   C3B37389  28.664  40.158   7.910
 2855POPC   C4B37390  28.503  40.243   7.502
 2856POPC   NC337391   4.242  15.706   9.415
 2856POPC   PO437392   4.052  15.200   9.730
 2856POPC   GL137393   4.205  15.215   9.249
 2856POPC   GL237394   4.575  15.179   9.171
 2856POPC   C1A37395   4.238  15.283   8.779
 2856POPC   D2A37396   4.057  15.372   8.386
 2856POPC   C3A37397   4.118  15.147   8.031
 2856POPC   C4A37398   3.974  15.268   7.661
 2856POPC   C1B37399   4.753  15.293   8.766
 2856POPC   C2B37400   4.595  15.258   8.344
 2856POPC   C3B37401   4.573  15.374   7.921
 2856POPC   C4B37402   4.432  15.033   7.623
 2857POPC   NC337403  39.372  20.875   9.587
 2857POPC   PO437404  39.120  21.429   9.437
 2857POPC   GL137405  39.100  21.408   9.035
 2857POPC   GL237406  38.860  21.663   9.076
 2857POPC   C1A37407  39.345  21.475   8.657
 2857POPC   D2A37408  39.484  21.488   8.219
 2857POPC   C3A37409  39.321  21.316   7.866
 2857POPC   C4A37410  39.266  21.404   7.423
 2857POPC   C1B37411  38.831  21.593   8.644
 2857POPC   C2B37412  38.972  21.435   8.264
 2857POPC   C3B37413  38.974  21.696   7.933
 2857POPC   C4B37414  38.879  21.702   7.511
 2858POPC   NC337415  13.050   8.622   9.537
 2858POPC   PO437416  13.056   7.944   9.533
 2858POPC   GL137417  12.981   8.221   9.225
 2858POPC   GL237418  12.691   8.299   9.308
 2858POPC   C1A37419  12.943   8.341   8.792
 2858POPC   D2A37420  13.015   8.087   8.421
 2858POPC   C3A37421  13.091   8.168   7.972
 2858POPC   C4A37422  13.031   7.759   7.731
 2858POPC   C1B37423  12.544   8.079   8.960
 2858POPC   C2B37424  12.489   8.052   8.512
 2858POPC   C3B37425  12.591   7.991   8.068
 2858POPC   C4B37426  12.685   8.204   7.687
 2859POPC   NC337427   0.731   9.283   9.340
 2859POPC   PO437428   0.645   8.637   9.584
 2859POPC   GL137429   0.439   8.635   9.155
 2859POPC   GL237430   0.386   8.985   9.088
 2859POPC   C1A37431   0.211   8.663   8.736
 2859POPC   D2A37432   0.141   8.965   8.376
 2859POPC   C3A37433   0.272   8.796   7.967
 2859POPC   C4A37434   0.706   8.895   7.788
 2859POPC   C1B37435   0.520   9.191   8.702
 2859POPC   C2B37436   0.914   9.267   8.470
 2859POPC   C3B37437   0.803   9.350   8.046
 2859POPC   C4B37438   0.384   9.300   7.861
 2860POPC   NC337439  31.949   0.171   9.441
 2860POPC   PO437440  31.538   0.728   9.486
 2860POPC   GL137441  31.474   0.650   9.058
 2860POPC   GL237442  31.482   0.290   9.006
 2860POPC   C1A37443  31.541   0.612   8.607
 2860POPC   D2A37444  31.458   0.342   8.255
 2860POPC   C3A37445  31.357   0.526   7.879
 2860POPC   C4A37446  31.541   0.907   7.764
 2860POPC   C1B37447  31.610   0.009   8.635
 2860POPC   C2B37448  31.676  44.887   8.172
 2860POPC   C3B37449  31.865  44.958   7.821
 2860POPC   C4B37450  31.576   0.136   7.611
 2861POPC   NC337451  21.685   3.047   9.220
 2861POPC   PO437452  21.217   2.636   9.476
 2861POPC   GL137453  21.354   2.682   9.067
 2861POPC   GL237454  21.631   2.454   9.168
 2861POPC   C1A37455  21.357   2.824   8.612
 2861POPC   D2A37456  21.206   2.523   8.289
 2861POPC   C3A37457  21.281   2.628   7.881
 2861POPC   C4A37458  21.530   3.005   7.872
 2861POPC   C1B37459  21.741   2.528   8.769
 2861POPC   C2B37460  21.691   2.316   8.411
 2861POPC   C3B37461  21.711   2.567   8.100
 2861POPC   C4B37462  21.758   2.602   7.676
 2862POPC   NC337463  36.200  24.457   9.444
 2862POPC   PO437464  36.406  24.003   9.751
 2862POPC   GL137465  36.543  24.198   9.190
 2862POPC   GL237466  36.250  24.425   8.965
 2862POPC   C1A37467  36.433  24.037   8.743
 2862POPC   D2A37468  36.131  24.260   8.441
 2862POPC   C3A37469  36.253  24.265   7.999
 2862POPC   C4A37470  36.343  24.583   7.686
 2862POPC   C1B37471  35.890  24.604   8.780
 2862POPC   C2B37472  35.859  24.821   8.426
 2862POPC   C3B37473  35.934  24.693   8.038
 2862POPC   C4B37474  35.766  24.874   7.678
 2863POPC   NC337475  16.354  30.387   9.227
 2863POPC   PO437476  15.984  30.802   9.526
 2863POPC   GL137477  15.994  30.796   9.120
 2863POPC   GL237478  16.229  31.080   9.132
 2863POPC   C1A37479  15.851  30.487   8.799
 2863POPC   D2A37480  15.699  30.249   8.398
 2863POPC   C3A37481  15.847  30.461   7.984
 2863POPC   C4A37482  15.695  30.889   7.817
 2863POPC   C1B37483  16.314  30.878   8.729
 2863POPC   C2B37484  16.148  30.631   8.403
 2863POPC   C3B37485  16.168  30.857   8.053
 2863POPC   C4B37486  16.259  30.787   7.680
 2864POPC   NC337487  31.718  18.008   9.504
 2864POPC   PO437488  31.145  18.448   9.445
 2864POPC   GL137489  31.354  18.195   9.161
 2864POPC   GL237490  31.671  18.385   9.135
 2864POPC   C1A37491  31.207  18.141   8.745
 2864POPC   D2A37492  31.342  17.946   8.381
 2864POPC   C3A37493  31.220  18.167   8.037
 2864POPC   C4A37494  31.086  18.372   7.684
 2864POPC   C1B37495  31.698  18.444   8.691
 2864POPC   C2B37496  31.720  18.266   8.258
 2864POPC   C3B37497  31.689  18.194   7.826
 2864POPC   C4B37498  31.779  18.524   7.533
 2865POPC   NC337499  31.627  18.724   9.519
 2865POPC   PO437500  31.174  19.147   9.789
 2865POPC   GL137501  31.204  19.178   9.296
 2865POPC   GL237502  31.396  18.917   9.115
 2865POPC   C1A37503  31.098  19.243   8.817
 2865POPC   D2A37504  31.311  19.341   8.398
 2865POPC   C3A37505  31.334  19.105   7.987
 2865POPC   C4A37506  31.469  18.650   7.926
 2865POPC   C1B37507  31.637  19.190   8.823
 2865POPC   C2B37508  31.837  19.286   8.411
 2865POPC   C3B37509  31.845  18.989   8.064
 2865POPC   C4B37510  31.715  19.012   7.617
 2866POPC   NC337511  12.290  40.973   9.533
 2866POPC   PO437512  11.797  40.548   9.614
 2866POPC   GL137513  11.967  40.709   9.217
 2866POPC   GL237514  12.290  40.560   9.222
 2866POPC   C1A37515  12.106  41.010   8.880
 2866POPC   D2A37516  12.341  41.013   8.490
 2866POPC   C3A37517  12.169  40.941   8.072
 2866POPC   C4A37518  12.215  40.784   7.655
 2866POPC   C1B37519  12.233  40.522   8.772
 2866POPC   C2B37520  12.022  40.519   8.389
 2866POPC   C3B37521  12.220  40.423   8.021
 2866POPC   C4B37522  12.116  40.272   7.632
 2867POPC   NC337523  31.891  30.788   9.713
 2867POPC   PO437524  32.219  30.257   9.339
 2867POPC   GL137525  32.309  30.730   9.166
 2867POPC   GL237526  32.493  31.037   9.139
 2867POPC   C1A37527  32.106  30.899   8.774
 2867POPC   D2A37528  32.089  30.499   8.508
 2867POPC   C3A37529  32.387  30.426   8.183
 2867POPC   C4A37530  32.485  30.403   7.769
 2867POPC   C1B37531  32.611  30.836   8.735
 2867POPC   C2B37532  32.412  30.917   8.355
 2867POPC   C3B37533  32.255  30.962   7.970
 2867POPC   C4B37534  32.216  30.818   7.572
 2868POPC   NC337535  25.311  13.981   9.340
 2868POPC   PO437536  25.040  14.569   9.469
 2868POPC   GL137537  25.250  14.446   9.150
 2868POPC   GL237538  25.576  14.541   9.235
 2868POPC   C1A37539  25.107  14.349   8.761
 2868POPC   D2A37540  25.199  14.624   8.465
 2868POPC   C3A37541  25.162  14.446   8.109
 2868POPC   C4A37542  25.246  14.603   7.744
 2868POPC   C1B37543  25.616  14.318   8.813
 2868POPC   C2B37544  25.542  14.215   8.378
 2868POPC   C3B37545  25.642  14.343   7.953
 2868POPC   C4B37546  25.722  14.499   7.543
 2869POPC   NC337547  38.035   7.810   9.508
 2869POPC   PO437548  37.894   7.187   9.609
 2869POPC   GL137549  37.725   7.414   9.265
 2869POPC   GL237550  37.392   7.522   9.269
 2869POPC   C1A37551  37.854   7.610   8.885
 2869POPC   D2A37552  37.925   7.472   8.465
 2869POPC   C3A37553  37.820   7.664   8.086
 2869POPC   C4A37554  37.743   7.448   7.727
 2869POPC   C1B37555  37.353   7.499   8.805
 2869POPC   C2B37556  37.373   7.600   8.342
 2869POPC   C3B37557  37.329   7.320   7.988
 2869POPC   C4B37558  37.267   7.304   7.530
 2870POPC   NC337559  43.136  37.020   9.686
 2870POPC   PO437560  42.681  36.516   9.500
 2870POPC   GL137561  42.913  36.848   9.237
 2870POPC   GL237562  42.848  37.211   9.339
 2870POPC   C1A37563  43.082  36.800   8.784
 2870POPC   D2A37564  43.283  36.661   8.377
 2870POPC   C3A37565  43.066  36.748   8.009
 2870POPC   C4A37566  43.210  37.001   7.698
 2870POPC   C1B37567  42.886  37.260   8.915
 2870POPC   C2B37568  42.845  37.264   8.488
 2870POPC   C3B37569  42.962  37.253   8.069
 2870POPC   C4B37570  42.700  37.058   7.754
 2871POPC   NC337571  19.701  37.978   9.363
 2871POPC   PO437572  19.795  37.265   9.264
 2871POPC   GL137573  19.904  37.576   8.981
 2871POPC   GL237574  20.094  37.891   9.074
 2871POPC   C1A37575  19.851  37.473   8.540
 2871POPC   D2A37576  19.527  37.532   8.232
 2871POPC   C3A37577  19.760  37.669   7.894
 2871POPC   C4A37578  19.868  37.284   7.786
 2871POPC   C1B37579  19.907  37.991   8.676
 2871POPC   C2B37580  19.835  38.031   8.240
 2871POPC   C3B37581  20.066  38.093   7.832
 2871POPC   C4B37582  20.134  37.939   7.382
 2872POPC   NC337583   5.984  42.351   9.554
 2872POPC   PO437584   5.339  42.467   9.437
 2872POPC   GL137585   5.685  42.273   9.171
 2872POPC   GL237586   5.879  42.570   9.089
 2872POPC   C1A37587   5.833  42.146   8.745
 2872POPC   D2A37588   6.135  42.042   8.369
 2872POPC   C3A37589   5.997  42.271   7.984
 2872POPC   C4A37590   5.612  42.162   7.753
 2872POPC   C1B37591   5.514  42.605   8.807
 2872POPC   C2B37592   5.421  42.348   8.473
 2872POPC   C3B37593   5.512  42.544   8.078
 2872POPC   C4B37594   5.766  42.672   7.728
 2873POPC   NC337595  33.273   3.947   9.883
 2873POPC   PO437596  32.822   4.369   9.546
 2873POPC   GL137597  33.031   4.406   9.145
 2873POPC   GL237598  33.116   4.729   9.064
 2873POPC   C1A37599  32.903   4.258   8.739
 2873POPC   D2A37600  32.753   3.895   8.481
 2873POPC   C3A37601  32.850   3.977   8.072
 2873POPC   C4A37602  32.964   4.302   7.792
 2873POPC   C1B37603  33.366   4.500   8.737
 2873POPC   C2B37604  33.222   4.339   8.325
 2873POPC   C3B37605  33.414   4.504   7.956
 2873POPC   C4B37606  33.386   4.436   7.524
 2874POPC   NC337607  11.749  14.691   9.525
 2874POPC   PO437608  12.328  14.214   9.506
 2874POPC   GL137609  12.140  14.522   9.232
 2874POPC   GL237610  12.378  14.713   9.053
 2874POPC   C1A37611  11.920  14.670   8.843
 2874POPC   D2A37612  12.095  14.583   8.441
 2874POPC   C3A37613  11.911  14.313   8.151
 2874POPC   C4A37614  11.886  14.504   7.749
 2874POPC   C1B37615  12.358  14.327   8.809
 2874POPC   C2B37616  12.489  14.223   8.378
 2874POPC   C3B37617  12.380  14.413   7.983
 2874POPC   C4B37618  12.313  14.296   7.561
 2875POPC   NC337619  41.805  30.068   9.511
 2875POPC   PO437620  41.186  29.708   9.469
 2875POPC   GL137621  41.453  29.858   9.153
 2875POPC   GL237622  41.541  30.180   9.100
 2875POPC   C1A37623  41.345  29.980   8.701
 2875POPC   D2A37624  41.533  30.103   8.350
 2875POPC   C3A37625  41.426  30.035   7.931
 2875POPC   C4A37626  41.226  30.075   7.540
 2875POPC   C1B37627  41.843  30.045   8.793
 2875POPC   C2B37628  42.008  29.921   8.394
 2875POPC   C3B37629  41.932  30.091   8.030
 2875POPC   C4B37630  41.883  29.983   7.647
 2876POPC   NC337631  33.564   0.034   9.473
 2876POPC   PO437632  33.960   0.558   9.536
 2876POPC   GL137633  34.079   0.477   9.124
 2876POPC   GL237634  33.741   0.517   9.041
 2876POPC   C1A37635  34.070   0.328   8.691
 2876POPC   D2A37636  33.764   0.193   8.392
 2876POPC   C3A37637  33.936   0.175   7.986
 2876POPC   C4A37638  33.824   0.180   7.560
 2876POPC   C1B37639  33.420   0.414   8.731
 2876POPC   C2B37640  33.344   0.560   8.317
 2876POPC   C3B37641  33.493   0.452   7.926
 2876POPC   C4B37642  33.770   0.662   7.703
 2877POPC   NC337643   8.641  44.178   9.630
 2877POPC   PO437644   7.999  43.891   9.545
 2877POPC   GL137645   8.000  44.053   9.188
 2877POPC   GL237646   8.337  44.219   9.229
 2877POPC   C1A37647   7.932  43.860   8.802
 2877POPC   D2A37648   8.147  43.694   8.457
 2877POPC   C3A37649   7.900  43.744   8.090
 2877POPC   C4A37650   8.052  43.755   7.697
 2877POPC   C1B37651   8.427  43.990   8.874
 2877POPC   C2B37652   8.423  44.153   8.469
 2877POPC   C3B37653   8.355  43.984   8.070
 2877POPC   C4B37654   8.539  43.889   7.699
 2878POPC   NC337655  16.264  21.081   9.750
 2878POPC   PO437656  15.931  21.585   9.525
 2878POPC   GL137657  15.777  21.497   9.133
 2878POPC   GL237658  15.585  21.189   9.180
 2878POPC   C1A37659  15.911  21.561   8.694
 2878POPC   D2A37660  16.257  21.447   8.428
 2878POPC   C3A37661  16.234  21.584   8.024
 2878POPC   C4A37662  16.261  21.391   7.667
 2878POPC   C1B37663  15.835  21.064   8.841
 2878POPC   C2B37664  15.802  20.937   8.439
 2878POPC   C3B37665  15.986  21.127   8.102
 2878POPC   C4B37666  15.763  21.333   7.804
 2879POPC   NC337667   6.548   0.346   9.910
 2879POPC   PO437668   6.643  44.725   9.611
 2879POPC   GL137669   6.614  44.678   9.190
 2879POPC   GL237670   6.541   0.024   9.149
 2879POPC   C1A37671   6.525  44.597   8.760
 2879POPC   D2A37672   6.531  44.808   8.353
 2879POPC   C3A37673   6.365  44.499   8.047
 2879POPC   C4A37674   6.600  44.305   7.713
 2879POPC   C1B37675   6.819   0.017   8.790
 2879POPC   C2B37676   7.130   0.063   8.467
 2879POPC   C3B37677   6.994   0.091   8.044
 2879POPC   C4B37678   6.729  44.793   7.848
 2880POPC   NC337679  34.203   1.673   9.518
 2880POPC   PO437680  34.696   2.207   9.485
 2880POPC   GL137681  34.346   2.079   9.219
 2880POPC   GL237682  34.516   1.771   9.136
 2880POPC   C1A37683  34.272   2.155   8.783
 2880POPC   D2A37684  34.574   2.353   8.503
 2880POPC   C3A37685  34.497   2.294   8.072
 2880POPC   C4A37686  34.746   2.354   7.697
 2880POPC   C1B37687  34.611   1.688   8.718
 2880POPC   C2B37688  34.653   1.849   8.314
 2880POPC   C3B37689  34.863   1.934   7.941
 2880POPC   C4B37690  34.904   1.702   7.566
 2881POPC   NC337691  24.981  27.047   9.722
 2881POPC   PO437692  25.509  26.875   9.378
 2881POPC   GL137693  25.139  26.848   9.125
 2881POPC   GL237694  24.930  27.168   9.151
 2881POPC   C1A37695  25.202  26.645   8.691
 2881POPC   D2A37696  25.548  26.768   8.373
 2881POPC   C3A37697  25.430  26.728   7.945
 2881POPC   C4A37698  25.039  26.526   7.835
 2881POPC   C1B37699  25.057  27.123   8.697
 2881POPC   C2B37700  25.076  26.970   8.260
 2881POPC   C3B37701  24.935  27.096   7.829
 2881POPC   C4B37702  25.085  27.305   7.437
 2882POPC   NC337703  21.856  17.280   9.553
 2882POPC   PO437704  21.183  17.517   9.475
 2882POPC   GL137705  21.289  17.400   9.083
 2882POPC   GL237706  21.625  17.433   9.130
 2882POPC   C1A37707  21.250  17.489   8.639
 2882POPC   D2A37708  21.242  17.712   8.221
 2882POPC   C3A37709  21.413  17.461   7.853
 2882POPC   C4A37710  21.715  17.187   7.630
 2882POPC   C1B37711  21.686  17.713   8.810
 2882POPC   C2B37712  21.733  17.905   8.419
 2882POPC   C3B37713  21.775  17.789   8.012
 2882POPC   C4B37714  21.445  17.967   7.792
 2883POPC   NC337715  33.819  14.365   9.564
 2883POPC   PO437716  33.342  14.805   9.353
 2883POPC   GL137717  33.730  14.586   9.118
 2883POPC   GL237718  33.967  14.249   9.114
 2883POPC   C1A37719  33.700  14.354   8.723
 2883POPC   D2A37720  33.678  14.164   8.351
 2883POPC   C3A37721  33.835  14.366   8.019
 2883POPC   C4A37722  33.706  14.236   7.638
 2883POPC   C1B37723  34.196  14.210   8.713
 2883POPC   C2B37724  34.166  14.019   8.305
 2883POPC   C3B37725  34.210  14.077   7.860
 2883POPC   C4B37726  34.267  14.166   7.467
 2884POPC   NC337727  41.911   1.509   9.617
 2884POPC   PO437728  41.157   1.292   9.577
 2884POPC   GL137729  41.460   1.393   9.269
 2884POPC   GL237730  41.294   1.168   9.036
 2884POPC   C1A37731  41.706   1.407   8.873
 2884POPC   D2A37732  41.551   1.292   8.462
 2884POPC   C3A37733  41.614   1.613   8.155
 2884POPC   C4A37734  41.593   1.500   7.748
 2884POPC   C1B37735  41.630   0.906   8.816
 2884POPC   C2B37736  41.641   0.781   8.390
 2884POPC   C3B37737  41.566   0.982   7.998
 2884POPC   C4B37738  41.754   0.775   7.638
 2885POPC   NC337739  29.690   1.552   9.436
 2885POPC   PO437740  30.077   1.108   9.657
 2885POPC   GL137741  30.135   0.998   9.222
 2885POPC   GL237742  29.773   1.045   9.192
 2885POPC   C1A37743  30.178   1.018   8.793
 2885POPC   D2A37744  30.234   1.416   8.512
 2885POPC   C3A37745  30.136   1.376   8.050
 2885POPC   C4A37746  30.039   1.040   7.715
 2885POPC   C1B37747  29.782   1.326   8.836
 2885POPC   C2B37748  29.806   1.136   8.452
 2885POPC   C3B37749  29.689   1.103   8.077
 2885POPC   C4B37750  29.673   1.404   7.791
 2886POPC   NC337751  22.578  20.725   9.562
 2886POPC   PO437752  23.116  20.389   9.593
 2886POPC   GL137753  22.891  20.429   9.223
 2886POPC   GL237754  22.945  20.791   9.214
 2886POPC   C1A37755  22.875  20.241   8.780
 2886POPC   D2A37756  22.915  20.068   8.361
 2886POPC   C3A37757  23.083  20.374   8.101
 2886POPC   C4A37758  22.903  20.449   7.707
 2886POPC   C1B37759  22.701  20.731   8.855
 2886POPC   C2B37760  22.832  20.691   8.439
 2886POPC   C3B37761  22.610  20.639   8.056
 2886POPC   C4B37762  22.587  20.846   7.655
 2887POPC   NC337763  22.202   3.882   9.410
 2887POPC   PO437764  22.065   3.212   9.434
 2887POPC   GL137765  22.181   3.450   9.076
 2887POPC   GL237766  21.980   3.756   8.977
 2887POPC   C1A37767  22.133   3.389   8.633
 2887POPC   D2A37768  21.968   3.464   8.246
 2887POPC   C3A37769  22.264   3.403   7.905
 2887POPC   C4A37770  21.871   3.384   7.699
 2887POPC   C1B37771  22.391   3.810   8.738
 2887POPC   C2B37772  22.259   3.886   8.287
 2887POPC   C3B37773  22.040   3.859   7.881
 2887POPC   C4B37774  22.217   3.764   7.491
 2888POPC   NC337775   9.994   3.308   9.429
 2888POPC   PO437776   9.323   3.471   9.509
 2888POPC   GL137777   9.543   3.490   9.173
 2888POPC   GL237778   9.702   3.186   9.038
 2888POPC   C1A37779   9.639   3.692   8.812
 2888POPC   D2A37780   9.722   3.500   8.429
 2888POPC   C3A37781   9.594   3.756   8.089
 2888POPC   C4A37782   9.420   3.694   7.692
 2888POPC   C1B37783  10.064   3.199   8.764
 2888POPC   C2B37784  10.179   3.243   8.334
 2888POPC   C3B37785   9.926   3.356   7.967
 2888POPC   C4B37786   9.943   3.741   7.707
 2889POPC   NC337787   7.378  17.641   9.559
 2889POPC   PO437788   7.973  17.415   9.492
 2889POPC   GL137789   7.773  17.262   9.111
 2889POPC   GL237790   7.419  17.394   9.119
 2889POPC   C1A37791   7.702  17.473   8.697
 2889POPC   D2A37792   7.480  17.753   8.428
 2889POPC   C3A37793   7.611  17.868   8.020
 2889POPC   C4A37794   7.547  17.652   7.635
 2889POPC   C1B37795   7.131  17.660   8.840
 2889POPC   C2B37796   6.988  17.634   8.402
 2889POPC   C3B37797   7.171  17.579   7.992
 2889POPC   C4B37798   7.098  17.393   7.587
 2890POPC   NC337799   3.792  26.127   9.552
 2890POPC   PO437800   3.123  26.071   9.584
 2890POPC   GL137801   3.410  26.004   9.230
 2890POPC   GL237802   3.767  25.900   9.096
 2890POPC   C1A37803   3.495  26.286   8.881
 2890POPC   D2A37804   3.344  26.190   8.480
 2890POPC   C3A37805   3.460  26.330   8.084
 2890POPC   C4A37806   3.610  26.220   7.688
 2890POPC   C1B37807   3.718  25.858   8.687
 2890POPC   C2B37808   3.775  25.685   8.310
 2890POPC   C3B37809   3.572  25.768   7.923
 2890POPC   C4B37810   3.410  25.770   7.480
 2891POPC   NC337811   4.479  33.249   9.578
 2891POPC   PO437812   3.813  32.943   9.505
 2891POPC   GL137813   4.203  32.943   9.268
 2891POPC   GL237814   4.205  33.256   9.129
 2891POPC   C1A37815   4.367  32.821   8.860
 2891POPC   D2A37816   4.546  32.777   8.471
 2891POPC   C3A37817   4.391  33.029   8.175
 2891POPC   C4A37818   4.215  32.947   7.803
 2891POPC   C1B37819   4.589  33.283   8.902
 2891POPC   C2B37820   4.792  33.218   8.520
 2891POPC   C3B37821   4.750  33.384   8.114
 2891POPC   C4B37822   4.466  33.388   7.754
 2892POPC   NC337823  27.913  35.077   9.415
 2892POPC   PO437824  28.037  34.406   9.452
 2892POPC   GL137825  27.741  34.490   9.115
 2892POPC   GL237826  27.878  34.754   9.032
 2892POPC   C1A37827  27.501  34.605   8.706
 2892POPC   D2A37828  27.194  34.636   8.362
 2892POPC   C3A37829  27.343  34.704   7.930
 2892POPC   C4A37830  27.467  34.555   7.526
 2892POPC   C1B37831  27.974  34.969   8.704
 2892POPC   C2B37832  28.083  34.832   8.316
 2892POPC   C3B37833  27.995  35.053   7.942
 2892POPC   C4B37834  27.828  34.934   7.564
 2893POPC   NC337835   8.387  31.324   9.593
 2893POPC   PO437836   7.730  31.327   9.328
 2893POPC   GL137837   8.013  31.289   9.000
 2893POPC   GL237838   8.247  31.522   9.102
 2893POPC   C1A37839   8.018  31.174   8.579
 2893POPC   D2A37840   8.029  31.202   8.144
 2893POPC   C3A37841   7.982  31.625   8.028
 2893POPC   C4A37842   7.844  31.550   7.628
 2893POPC   C1B37843   8.265  31.635   8.649
 2893POPC   C2B37844   8.444  31.468   8.256
 2893POPC   C3B37845   8.433  31.469   7.792
 2893POPC   C4B37846   8.316  31.555   7.342
 2894POPC   NC337847  40.934   9.554   9.412
 2894POPC   PO437848  40.594  10.152   9.486
 2894POPC   GL137849  40.739   9.990   9.128
 2894POPC   GL237850  41.078   9.939   9.109
 2894POPC   C1A37851  40.567  10.030   8.745
 2894POPC   D2A37852  40.428   9.820   8.400
 2894POPC   C3A37853  40.346  10.091   8.086
 2894POPC   C4A37854  40.407   9.940   7.716
 2894POPC   C1B37855  40.963   9.687   8.758
 2894POPC   C2B37856  40.938   9.713   8.335
 2894POPC   C3B37857  40.790   9.527   7.973
 2894POPC   C4B37858  41.002   9.606   7.613
 2895POPC   NC337859  18.661   4.385   9.664
 2895POPC   PO437860  18.153   4.090   9.536
 2895POPC   GL137861  18.427   4.256   9.211
 2895POPC   GL237862  18.367   4.593   9.107
 2895POPC   C1A37863  18.635   4.267   8.812
 2895POPC   D2A37864  18.851   4.235   8.422
 2895POPC   C3A37865  18.668   4.428   8.107
 2895POPC   C4A37866  18.525   4.126   7.849
 2895POPC   C1B37867  18.149   4.396   8.757
 2895POPC   C2B37868  18.237   4.516   8.353
 2895POPC   C3B37869  18.130   4.424   7.952
 2895POPC   C4B37870  17.941   4.627   7.634
 2896POPC   NC337871  44.764   5.422   9.622
 2896POPC   PO437872  44.631   4.792   9.431
 2896POPC   GL137873  44.541   5.106   9.144
 2896POPC   GL237874  44.856   5.210   9.174
 2896POPC   C1A37875  44.520   5.259   8.736
 2896POPC   D2A37876  44.302   5.198   8.367
 2896POPC   C3A37877  44.442   5.365   8.033
 2896POPC   C4A37878  44.618   5.021   7.853
 2896POPC   C1B37879   0.007   5.083   8.784
 2896POPC   C2B37880  44.935   5.115   8.342
 2896POPC   C3B37881   0.110   4.994   7.938
 2896POPC   C4B37882   0.029   5.116   7.523
 2897POPC   NC337883  41.082  41.952   9.495
 2897POPC   PO437884  40.906  42.541   9.447
 2897POPC   GL137885  40.945  42.502   9.038
 2897POPC   GL237886  40.603  42.562   9.009
 2897POPC   C1A37887  40.916  42.657   8.610
 2897POPC   D2A37888  40.818  42.409   8.280
 2897POPC   C3A37889  41.056  42.491   7.944
 2897POPC   C4A37890  40.933  42.175   7.670
 2897POPC   C1B37891  40.535  42.259   8.686
 2897POPC   C2B37892  40.302  42.272   8.309
 2897POPC   C3B37893  40.420  42.142   7.871
 2897POPC   C4B37894  40.472  42.222   7.400
 2898POPC   NC337895   5.498  35.492   9.343
 2898POPC   PO437896   6.179  35.584   9.514
 2898POPC   GL137897   6.044  35.376   9.163
 2898POPC   GL237898   5.907  35.692   9.084
 2898POPC   C1A37899   6.063  35.084   8.800
 2898POPC   D2A37900   6.014  35.194   8.383
 2898POPC   C3A37901   6.212  35.110   8.015
 2898POPC   C4A37902   5.946  35.315   7.793
 2898POPC   C1B37903   5.740  35.526   8.704
 2898POPC   C2B37904   5.604  35.738   8.331
 2898POPC   C3B37905   5.834  35.904   7.967
 2898POPC   C4B37906   5.977  35.770   7.562
 2899POPC   NC337907   1.626   5.430   9.502
 2899POPC   PO437908   2.290   5.088   9.495
 2899POPC   GL137909   1.942   5.073   9.261
 2899POPC   GL237910   2.005   5.411   9.153
 2899POPC   C1A37911   1.742   4.947   8.882
 2899POPC   D2A37912   1.827   4.868   8.456
 2899POPC   C3A37913   1.877   5.190   8.158
 2899POPC   C4A37914   1.734   5.053   7.772
 2899POPC   C1B37915   2.280   5.184   8.853
 2899POPC   C2B37916   2.309   4.998   8.455
 2899POPC   C3B37917   2.320   4.964   8.016
 2899POPC   C4B37918   2.223   5.313   7.733
 2900POPC   NC337919  25.526  28.944   9.490
 2900POPC   PO437920  25.161  29.419   9.506
 2900POPC   GL137921  25.194  29.278   9.106
 2900POPC   GL237922  25.448  29.499   9.008
 2900POPC   C1A37923  25.043  29.074   8.719
 2900POPC   D2A37924  25.145  29.187   8.283
 2900POPC   C3A37925  25.156  28.867   7.974
 2900POPC   C4A37926  25.105  28.899   7.547
 2900POPC   C1B37927  25.534  29.223   8.681
 2900POPC   C2B37928  25.729  29.198   8.293
 2900POPC   C3B37929  25.607  29.090   7.889
 2900POPC   C4B37930  25.287  29.371   7.740
 2901POPC   NC337931  44.903  16.778   9.474
 2901POPC   PO437932  44.260  16.599   9.502
 2901POPC   GL137933  44.505  16.654   9.141
 2901POPC   GL237934  44.576  17.009   9.104
 2901POPC   C1A37935  44.519  16.491   8.732
 2901POPC   D2A37936  44.288  16.521   8.343
 2901POPC   C3A37937  44.464  16.454   7.950
 2901POPC   C4A37938  44.443  16.600   7.483
 2901POPC   C1B37939  44.464  16.996   8.650
 2901POPC   C2B37940  44.718  16.828   8.285
 2901POPC   C3B37941  44.738  16.857   7.813
 2901POPC   C4B37942  44.711  17.012   7.377
 2902POPC   NC337943  44.076   3.112   9.340
 2902POPC   PO437944  43.739   3.725   9.523
 2902POPC   GL137945  43.719   3.452   9.203
 2902POPC   GL237946  43.498   3.579   9.048
 2902POPC   C1A37947  43.937   3.450   8.792
 2902POPC   D2A37948  44.015   3.680   8.426
 2902POPC   C3A37949  43.959   3.433   8.069
 2902POPC   C4A37950  44.041   3.635   7.713
 2902POPC   C1B37951  43.470   3.231   8.788
 2902POPC   C2B37952  43.593   3.338   8.402
 2902POPC   C3B37953  43.434   3.313   7.994
 2902POPC   C4B37954  43.680   3.292   7.658
 2903POPC   NC337955  36.544  27.346   9.386
 2903POPC   PO437956  36.225  27.889   9.531
 2903POPC   GL137957  36.195  27.661   9.135
 2903POPC   GL237958  36.520  27.770   9.083
 2903POPC   C1A37959  36.005  27.479   8.701
 2903POPC   D2A37960  35.914  27.612   8.257
 2903POPC   C3A37961  35.946  27.366   7.866
 2903POPC   C4A37962  35.842  27.404   7.412
 2903POPC   C1B37963  36.488  27.627   8.675
 2903POPC   C2B37964  36.622  27.709   8.266
 2903POPC   C3B37965  36.321  27.712   7.946
 2903POPC   C4B37966  36.261  27.673   7.499
 2904POPC   NC337967   4.977  15.178   9.490
 2904POPC   PO437968   5.628  14.925   9.540
 2904POPC   GL137969   5.389  15.027   9.157
 2904POPC   GL237970   5.058  14.911   9.092
 2904POPC   C1A37971   5.250  15.202   8.730
 2904POPC   D2A37972   5.096  15.144   8.354
 2904POPC   C3A37973   5.208  15.391   8.021
 2904POPC   C4A37974   5.255  15.245   7.641
 2904POPC   C1B37975   4.913  14.802   8.716
 2904POPC   C2B37976   4.770  14.740   8.330
 2904POPC   C3B37977   4.846  14.944   7.951
 2904POPC   C4B37978   4.922  14.863   7.541
 2905POPC   NC337979   1.718  29.315   9.516
 2905POPC   PO437980   2.172  28.944   9.774
 2905POPC   GL137981   2.078  29.029   9.279
 2905POPC   GL237982   2.086  29.366   9.141
 2905POPC   C1A37983   2.002  28.979   8.802
 2905POPC   D2A37984   1.917  28.894   8.341
 2905POPC   C3A37985   2.143  29.093   8.003
 2905POPC   C4A37986   2.045  29.189   7.587
 2905POPC   C1B37987   1.928  29.512   8.723
 2905POPC   C2B37988   1.804  29.433   8.308
 2905POPC   C3B37989   1.872  29.615   7.909
 2905POPC   C4B37990   1.689  29.549   7.502
 2906POPC   NC337991  40.467  18.742   9.449
 2906POPC   PO437992  40.851  19.198   9.549
 2906POPC   GL137993  40.811  19.009   9.149
 2906POPC   GL237994  40.912  18.664   9.189
 2906POPC   C1A37995  40.741  19.127   8.728
 2906POPC   D2A37996  40.597  18.950   8.345
 2906POPC   C3A37997  40.653  19.236   7.978
 2906POPC   C4A37998  40.450  19.232   7.557
 2906POPC   C1B37999  40.744  18.615   8.762
 2906POPC   C2B38000  41.010  18.641   8.364
 2906POPC   C3B38001  40.904  18.797   7.967
 2906POPC   C4B38002  40.480  18.788   7.802
 2907POPC   NC338003  38.773  10.779   9.473
 2907POPC   PO438004  38.613  11.362   9.647
 2907POPC   GL138005  38.538  11.245   9.237
 2907POPC   GL238006  38.868  11.151   9.146
 2907POPC   C1A38007  38.259  11.323   8.867
 2907POPC   D2A38008  38.266  11.385   8.415
 2907POPC   C3A38009  38.242  11.066   8.107
 2907POPC   C4A38010  38.422  11.316   7.832
 2907POPC   C1B38011  38.644  10.990   8.776
 2907POPC   C2B38012  38.711  11.051   8.336
 2907POPC   C3B38013  38.666  10.862   7.928
 2907POPC   C4B38014  38.699  11.032   7.504
 2908POPC   NC338015  29.170  34.823   9.478
 2908POPC   PO438016  28.991  34.113   9.507
 2908POPC   GL138017  29.113  34.384   9.165
 2908POPC   GL238018  28.890  34.667   9.068
 2908POPC   C1A38019  29.280  34.550   8.782
 2908POPC   D2A38020  29.210  34.753   8.411
 2908POPC   C3A38021  29.236  34.528   8.050
 2908POPC   C4A38022  29.388  34.708   7.656
 2908POPC   C1B38023  28.763  34.467   8.712
 2908POPC   C2B38024  28.747  34.531   8.274
 2908POPC   C3B38025  28.838  34.747   7.906
 2908POPC   C4B38026  28.692  34.431   7.706
 2909POPC   NC338027  31.268  33.983   9.585
 2909POPC   PO438028  31.897  33.893   9.638
 2909POPC   GL138029  31.579  33.917   9.171
 2909POPC   GL238030  31.230  34.131   9.118
 2909POPC   C1A38031  31.727  33.809   8.683
 2909POPC   D2A38032  31.760  33.980   8.256
 2909POPC   C3A38033  31.651  33.614   7.971
 2909POPC   C4A38034  31.754  33.583   7.545
 2909POPC   C1B38035  31.223  33.906   8.758
 2909POPC   C2B38036  31.312  33.753   8.358
 2909POPC   C3B38037  31.243  33.941   7.974
 2909POPC   C4B38038  31.100  33.776   7.583
 2910POPC   NC338039  39.395  19.630   9.780
 2910POPC   PO438040  38.862  19.941   9.637
 2910POPC   GL138041  39.073  19.907   9.233
 2910POPC   GL238042  39.410  19.956   9.329
 2910POPC   C1A38043  39.350  19.718   8.871
 2910POPC   D2A38044  39.493  19.545   8.448
 2910POPC   C3A38045  39.402  19.773   8.050
 2910POPC   C4A38046  39.198  19.692   7.632
 2910POPC   C1B38047  39.505  20.195   8.960
 2910POPC   C2B38048  39.445  20.175   8.497
 2910POPC   C3B38049  39.486  20.275   8.066
 2910POPC   C4B38050  39.501  20.134   7.630
 2911POPC   NC338051   4.352  31.039   9.382
 2911POPC   PO438052   3.871  31.528   9.554
 2911POPC   GL138053   4.123  31.548   9.172
 2911POPC   GL238054   4.475  31.531   9.312
 2911POPC   C1A38055   4.082  31.482   8.699
 2911POPC   D2A38056   4.139  31.692   8.288
 2911POPC   C3A38057   3.934  31.519   7.946
 2911POPC   C4A38058   4.017  31.083   7.885
 2911POPC   C1B38059   4.565  31.507   8.869
 2911POPC   C2B38060   4.584  31.282   8.463
 2911POPC   C3B38061   4.488  31.390   8.028
 2911POPC   C4B38062   4.334  31.708   7.738
 2912POPC   NC338063  12.180  13.794   9.609
 2912POPC   PO438064  11.798  13.355   9.346
 2912POPC   GL138065  12.028  13.674   9.115
 2912POPC   GL238066  12.352  13.860   9.137
 2912POPC   C1A38067  12.049  13.666   8.677
 2912POPC   D2A38068  12.027  13.367   8.348
 2912POPC   C3A38069  11.905  13.589   7.995
 2912POPC   C4A38070  11.984  13.970   7.769
 2912POPC   C1B38071  12.524  13.829   8.739
 2912POPC   C2B38072  12.491  13.648   8.322
 2912POPC   C3B38073  12.455  13.888   7.947
 2912POPC   C4B38074  12.441  13.792   7.523
 2913POPC   NC338075  44.390  10.655   9.661
 2913POPC   PO438076  44.640  11.105   9.329
 2913POPC   GL138077  44.631  10.655   9.187
 2913POPC   GL238078  44.800  10.329   9.098
 2913POPC   C1A38079  44.464  10.525   8.789
 2913POPC   D2A38080  44.435  10.385   8.382
 2913POPC   C3A38081  44.616  10.546   8.022
 2913POPC   C4A38082  44.441  10.646   7.659
 2913POPC   C1B38083   0.019  10.473   8.763
 2913POPC   C2B38084  44.999  10.444   8.341
 2913POPC   C3B38085   0.141  10.599   7.954
 2913POPC   C4B38086  44.944  10.754   7.612
 2914POPC   NC338087  12.643  28.574   9.408
 2914POPC   PO438088  13.025  27.997   9.452
 2914POPC   GL138089  13.038  28.323   9.149
 2914POPC   GL238090  12.696  28.205   9.056
 2914POPC   C1A38091  13.075  28.481   8.711
 2914POPC   D2A38092  13.158  28.389   8.254
 2914POPC   C3A38093  12.850  28.473   7.914
 2914POPC   C4A38094  12.738  28.762   7.538
 2914POPC   C1B38095  12.948  27.968   8.774
 2914POPC   C2B38096  12.836  27.860   8.361
 2914POPC   C3B38097  13.000  27.994   7.983
 2914POPC   C4B38098  12.909  28.103   7.533
 2915POPC   NC338099  23.117  13.382   9.352
 2915POPC   PO438100  22.843  13.908   9.730
 2915POPC   GL138101  22.860  13.849   9.205
 2915POPC   GL238102  22.620  13.664   9.032
 2915POPC   C1A38103  23.032  13.715   8.753
 2915POPC   D2A38104  22.864  13.638   8.355
 2915POPC   C3A38105  23.059  13.660   7.979
 2915POPC   C4A38106  22.974  13.482   7.548
 2915POPC   C1B38107  22.677  13.307   8.718
 2915POPC   C2B38108  22.680  13.155   8.299
 2915POPC   C3B38109  22.611  13.412   7.943
 2915POPC   C4B38110  22.357  13.362   7.596
 2916POPC   NC338111   2.251  23.526   9.804
 2916POPC   PO438112   1.759  23.753   9.491
 2916POPC   GL138113   2.128  23.686   9.233
 2916POPC   GL238114   2.143  23.347   9.158
 2916POPC   C1A38115   2.109  23.778   8.788
 2916POPC   D2A38116   1.958  23.886   8.406
 2916POPC   C3A38117   2.174  23.751   8.059
 2916POPC   C4A38118   1.911  23.780   7.750
 2916POPC   C1B38119   2.257  23.280   8.703
 2916POPC   C2B38120   2.111  23.298   8.277
 2916POPC   C3B38121   2.018  23.269   7.832
 2916POPC   C4B38122   2.287  23.036   7.533
 2917POPC   NC338123  24.036  18.059   9.617
 2917POPC   PO438124  24.522  18.546   9.555
 2917POPC   GL138125  24.446  18.690   9.154
 2917POPC   GL238126  24.801  18.662   9.084
 2917POPC   C1A38127  24.198  18.429   8.857
 2917POPC   D2A38128  24.266  18.069   8.582
 2917POPC   C3A38129  24.143  18.180   8.170
 2917POPC   C4A38130  24.269  18.015   7.803
 2917POPC   C1B38131  24.711  18.455   8.705
 2917POPC   C2B38132  24.527  18.500   8.296
 2917POPC   C3B38133  24.637  18.387   7.868
 2917POPC   C4B38134  24.995  18.474   7.573
 2918POPC   NC338135   0.247  37.082   9.383
 2918POPC   PO438136   0.597  36.507   9.322
 2918POPC   GL138137   0.375  36.733   9.032
 2918POPC   GL238138   0.038  36.677   9.087
 2918POPC   C1A38139   0.279  37.019   8.695
 2918POPC   D2A38140   0.509  37.043   8.309
 2918POPC   C3A38141   0.326  37.240   7.939
 2918POPC   C4A38142   0.443  37.159   7.486
 2918POPC   C1B38143   0.092  36.511   8.664
 2918POPC   C2B38144   0.388  36.559   8.344
 2918POPC   C3B38145   0.351  36.730   7.905
 2918POPC   C4B38146   0.265  36.701   7.439
 2919POPC   NC338147  27.453  36.479   9.435
 2919POPC   PO438148  27.893  35.893   9.432
 2919POPC   GL138149  27.757  36.172   9.153
 2919POPC   GL238150  27.983  36.428   9.265
 2919POPC   C1A38151  27.496  36.157   8.772
 2919POPC   D2A38152  27.538  35.943   8.357
 2919POPC   C3A38153  27.432  36.108   7.946
 2919POPC   C4A38154  27.473  35.954   7.499
 2919POPC   C1B38155  27.905  36.514   8.812
 2919POPC   C2B38156  27.768  36.410   8.392
 2919POPC   C3B38157  27.900  36.354   7.959
 2919POPC   C4B38158  28.003  36.686   7.672
 2920POPC   NC338159  17.103  37.656   9.516
 2920POPC   PO438160  16.419  37.744   9.414
 2920POPC   GL138161  16.688  37.711   9.102
 2920POPC   GL238162  16.861  37.390   9.149
 2920POPC   C1A38163  16.626  37.631   8.661
 2920POPC   D2A38164  16.556  37.321   8.343
 2920POPC   C3A38165  16.402  37.602   8.057
 2920POPC   C4A38166  16.548  37.994   7.875
 2920POPC   C1B38167  17.103  37.585   8.839
 2920POPC   C2B38168  17.091  37.527   8.435
 2920POPC   C3B38169  16.896  37.645   8.109
 2920POPC   C4B38170  16.928  37.481   7.725
 2921POPC   NC338171  42.277  36.294   9.520
 2921POPC   PO438172  41.856  35.776   9.422
 2921POPC   GL138173  42.085  36.041   9.077
 2921POPC   GL238174  42.462  36.116   9.077
 2921POPC   C1A38175  42.010  36.209   8.657
 2921POPC   D2A38176  42.276  36.218   8.314
 2921POPC   C3A38177  42.279  35.873   8.039
 2921POPC   C4A38178  42.029  36.004   7.699
 2921POPC   C1B38179  42.694  36.350   8.753
 2921POPC   C2B38180  42.737  36.454   8.312
 2921POPC   C3B38181  42.592  36.305   7.898
 2921POPC   C4B38182  42.768  36.578   7.607
 2922POPC   NC338183   3.035  25.617   9.573
 2922POPC   PO438184   2.536  26.260   9.407
 2922POPC   GL138185   2.842  26.080   9.167
 2922POPC   GL238186   2.759  25.744   9.194
 2922POPC   C1A38187   3.109  25.920   8.833
 2922POPC   D2A38188   3.283  25.698   8.452
 2922POPC   C3A38189   3.126  25.934   8.096
 2922POPC   C4A38190   2.939  26.053   7.733
 2922POPC   C1B38191   2.620  25.787   8.828
 2922POPC   C2B38192   2.766  25.897   8.452
 2922POPC   C3B38193   2.578  26.011   8.089
 2922POPC   C4B38194   2.597  26.400   7.891
 2923POPC   NC338195  27.502  18.120   9.396
 2923POPC   PO438196  27.778  18.802   9.405
 2923POPC   GL138197  27.645  18.489   9.079
 2923POPC   GL238198  27.818  18.131   8.988
 2923POPC   C1A38199  27.433  18.295   8.705
 2923POPC   D2A38200  27.653  18.158   8.326
 2923POPC   C3A38201  27.427  18.182   7.927
 2923POPC   C4A38202  27.132  18.045   7.626
 2923POPC   C1B38203  27.945  18.474   8.672
 2923POPC   C2B38204  27.898  18.622   8.210
 2923POPC   C3B38205  27.831  18.489   7.753
 2923POPC   C4B38206  27.883  18.485   7.280
 2924POPC   NC338207  28.761  10.146   9.629
 2924POPC   PO438208  29.221  10.651   9.549
 2924POPC   GL138209  28.889  10.662   9.235
 2924POPC   GL238210  29.094  10.485   8.988
 2924POPC   C1A38211  28.792  10.851   8.813
 2924POPC   D2A38212  29.030  10.911   8.431
 2924POPC   C3A38213  28.891  10.814   8.017
 2924POPC   C4A38214  29.068  10.467   7.798
 2924POPC   C1B38215  29.433  10.673   8.694
 2924POPC   C2B38216  29.484  10.670   8.217
 2924POPC   C3B38217  29.374  10.888   7.841
 2924POPC   C4B38218  29.423  10.850   7.398
 2925POPC   NC338219  36.363  10.571   9.499
 2925POPC   PO438220  35.715  10.564   9.489
 2925POPC   GL138221  35.992  10.475   9.146
 2925POPC   GL238222  36.232  10.201   9.201
 2925POPC   C1A38223  35.940  10.511   8.729
 2925POPC   D2A38224  35.885  10.790   8.395
 2925POPC   C3A38225  36.203  10.784   8.076
 2925POPC   C4A38226  36.068  10.657   7.670
 2925POPC   C1B38227  36.398  10.284   8.810
 2925POPC   C2B38228  36.309  10.408   8.405
 2925POPC   C3B38229  36.121  10.278   8.031
 2925POPC   C4B38230  36.224  10.189   7.611
 2926POPC   NC338231  38.409  11.730   9.409
 2926POPC   PO438232  38.851  12.253   9.590
 2926POPC   GL138233  38.662  12.132   9.156
 2926POPC   GL238234  38.341  12.038   8.990
 2926POPC   C1A38235  38.702  12.086   8.663
 2926POPC   D2A38236  38.628  12.350   8.269
 2926POPC   C3A38237  38.522  12.113   7.903
 2926POPC   C4A38238  38.681  11.730   7.721
 2926POPC   C1B38239  38.232  12.291   8.632
 2926POPC   C2B38240  38.147  12.022   8.260
 2926POPC   C3B38241  38.128  11.771   7.865
 2926POPC   C4B38242  38.277  11.919   7.467
 2927POPC   NC338243  10.321  15.720   9.626
 2927POPC   PO438244  10.794  16.142   9.511
 2927POPC   GL138245  10.499  16.069   9.207
 2927POPC   GL238246  10.650  15.736   9.200
 2927POPC   C1A38247  10.416  16.261   8.797
 2927POPC   D2A38248  10.571  16.083   8.409
 2927POPC   C3A38249  10.361  16.104   8.025
 2927POPC   C4A38250  10.461  16.371   7.765
 2927POPC   C1B38251  10.380  15.750   8.816
 2927POPC   C2B38252  10.278  15.675   8.378
 2927POPC   C3B38253  10.642  15.687   8.076
 2927POPC   C4B38254  10.775  15.948   7.739
 2928POPC   NC338255  33.168  15.519   9.444
 2928POPC   PO438256  33.311  16.185   9.559
 2928POPC   GL138257  33.036  16.042   9.215
 2928POPC   GL238258  32.815  15.740   9.128
 2928POPC   C1A38259  33.103  15.978   8.785
 2928POPC   D2A38260  33.209  15.891   8.396
 2928POPC   C3A38261  33.020  15.931   7.976
 2928POPC   C4A38262  33.205  15.932   7.578
 2928POPC   C1B38263  32.833  15.563   8.677
 2928POPC   C2B38264  33.009  15.447   8.250
 2928POPC   C3B38265  33.066  15.478   7.792
 2928POPC   C4B38266  32.832  15.598   7.458
 2929POPC   NC338267  44.470   7.657   9.557
 2929POPC   PO438268  44.809   7.181   9.756
 2929POPC   GL138269  44.730   7.376   9.251
 2929POPC   GL238270  44.853   7.667   9.088
 2929POPC   C1A38271  44.415   7.442   8.822
 2929POPC   D2A38272  44.309   7.326   8.324
 2929POPC   C3A38273  44.498   7.623   8.000
 2929POPC   C4A38274  44.877   7.764   7.715
 2929POPC   C1B38275  44.866   7.237   8.801
 2929POPC   C2B38276  44.804   7.219   8.406
 2929POPC   C3B38277  44.982   7.391   8.047
 2929POPC   C4B38278  45.000   7.220   7.631
 2930POPC   NC338279  14.889   1.597   9.503
 2930POPC   PO438280  15.194   2.200   9.464
 2930POPC   GL138281  15.155   1.895   9.090
 2930POPC   GL238282  15.378   1.607   9.079
 2930POPC   C1A38283  15.123   1.817   8.628
 2930POPC   D2A38284  15.195   2.122   8.295
 2930POPC   C3A38285  14.980   2.141   7.913
 2930POPC   C4A38286  15.265   2.284   7.633
 2930POPC   C1B38287  15.595   1.626   8.703
 2930POPC   C2B38288  15.512   1.708   8.259
 2930POPC   C3B38289  15.368   1.785   7.856
 2930POPC   C4B38290  15.284   1.786   7.422
 2931POPC   NC338291  34.000  17.422   9.395
 2931POPC   PO438292  33.360  17.825   9.406
 2931POPC   GL138293  33.430  17.616   9.049
 2931POPC   GL238294  33.681  17.324   8.975
 2931POPC   C1A38295  33.613  17.734   8.682
 2931POPC   D2A38296  33.761  17.421   8.432
 2931POPC   C3A38297  33.634  17.595   8.060
 2931POPC   C4A38298  33.692  17.590   7.647
 2931POPC   C1B38299  34.069  17.121   8.781
 2931POPC   C2B38300  34.290  17.367   8.478
 2931POPC   C3B38301  34.201  17.274   8.077
 2931POPC   C4B38302  34.150  17.564   7.827
 2932POPC   NC338303  27.766  13.529   9.562
 2932POPC   PO438304  27.510  14.097   9.388
 2932POPC   GL138305  27.715  13.837   9.142
 2932POPC   GL238306  28.031  13.947   9.067
 2932POPC   C1A38307  27.531  13.823   8.756
 2932POPC   D2A38308  27.187  13.734   8.514
 2932POPC   C3A38309  27.449  13.727   8.168
 2932POPC   C4A38310  27.524  13.672   7.757
 2932POPC   C1B38311  28.016  13.620   8.765
 2932POPC   C2B38312  27.742  13.394   8.495
 2932POPC   C3B38313  27.660  13.263   8.070
 2932POPC   C4B38314  27.840  13.257   7.683
 2933POPC   NC338315   4.478   6.288   9.209
 2933POPC   PO438316   4.124   6.791   9.546
 2933POPC   GL138317   4.199   6.723   9.142
 2933POPC   GL238318   3.951   6.428   9.173
 2933POPC   C1A38319   4.450   6.728   8.723
 2933POPC   D2A38320   4.324   6.753   8.304
 2933POPC   C3A38321   4.529   6.562   7.985
 2933POPC   C4A38322   4.540   6.425   7.586
 2933POPC   C1B38323   3.996   6.502   8.747
 2933POPC   C2B38324   4.121   6.288   8.426
 2933POPC   C3B38325   4.063   6.332   8.041
 2933POPC   C4B38326   4.077   6.591   7.699
 2934POPC   NC338327  14.802  38.215   9.384
 2934POPC   PO438328  15.324  38.619   9.542
 2934POPC   GL138329  15.195  38.582   9.146
 2934POPC   GL238330  15.326  38.262   9.134
 2934POPC   C1A38331  14.995  38.436   8.790
 2934POPC   D2A38332  14.838  38.537   8.438
 2934POPC   C3A38333  15.082  38.637   8.072
 2934POPC   C4A38334  15.004  38.820   7.678
 2934POPC   C1B38335  15.498  38.382   8.733
 2934POPC   C2B38336  15.416  38.294   8.294
 2934POPC   C3B38337  15.641  38.299   7.879
 2934POPC   C4B38338  15.294  38.361   7.614
 2935POPC   NC338339  31.960  22.734   9.363
 2935POPC   PO438340  32.358  23.207   9.684
 2935POPC   GL138341  32.286  23.071   9.216
 2935POPC   GL238342  31.974  23.027   8.980
 2935POPC   C1A38343  32.390  23.152   8.769
 2935POPC   D2A38344  32.542  23.271   8.377
 2935POPC   C3A38345  32.297  23.079   8.075
 2935POPC   C4A38346  32.221  23.169   7.644
 2935POPC   C1B38347  31.843  22.828   8.661
 2935POPC   C2B38348  32.046  22.674   8.326
 2935POPC   C3B38349  31.923  22.454   8.006
 2935POPC   C4B38350  31.895  22.788   7.764
 2936POPC   NC338351  34.107  19.055   9.379
 2936POPC   PO438352  33.505  19.403   9.521
 2936POPC   GL138353  33.535  19.294   9.104
 2936POPC   GL238354  33.878  19.433   9.066
 2936POPC   C1A38355  33.617  19.017   8.751
 2936POPC   D2A38356  34.007  18.897   8.512
 2936POPC   C3A38357  34.045  18.901   8.052
 2936POPC   C4A38358  33.881  18.874   7.598
 2936POPC   C1B38359  33.905  19.427   8.624
 2936POPC   C2B38360  33.777  19.306   8.237
 2936POPC   C3B38361  33.892  19.367   7.806
 2936POPC   C4B38362  33.738  19.320   7.387
 2937POPC   NC338363  19.005  41.179   9.549
 2937POPC   PO438364  18.980  40.556   9.490
 2937POPC   GL138365  19.095  40.719   9.128
 2937POPC   GL238366  19.420  40.871   9.120
 2937POPC   C1A38367  19.163  40.729   8.709
 2937POPC   D2A38368  18.950  40.711   8.371
 2937POPC   C3A38369  19.096  40.577   7.970
 2937POPC   C4A38370  18.966  40.594   7.569
 2937POPC   C1B38371  19.486  41.126   8.784
 2937POPC   C2B38372  19.208  41.206   8.433
 2937POPC   C3B38373  19.121  41.075   8.017
 2937POPC   C4B38374  19.380  40.932   7.674
 2938POPC   NC338375  38.687   8.266   9.533
 2938POPC   PO438376  38.259   8.718   9.617
 2938POPC   GL138377  38.368   8.389   9.173
 2938POPC   GL238378  38.550   8.025   9.082
 2938POPC   C1A38379  38.316   8.268   8.710
 2938POPC   D2A38380  38.659   8.098   8.456
 2938POPC   C3A38381  38.567   8.133   8.035
 2938POPC   C4A38382  38.216   8.219   7.879
 2938POPC   C1B38383  38.349   7.754   8.725
 2938POPC   C2B38384  38.296   7.762   8.253
 2938POPC   C3B38385  38.305   7.728   7.783
 2938POPC   C4B38386  38.695   7.853   7.600
 2939POPC   NC338387  22.379  15.618   9.626
 2939POPC   PO438388  21.944  15.123   9.574
 2939POPC   GL138389  21.936  15.281   9.116
 2939POPC   GL238390  22.250  15.267   8.896
 2939POPC   C1A38391  21.881  15.526   8.699
 2939POPC   D2A38392  22.085  15.198   8.419
 2939POPC   C3A38393  22.074  15.147   7.977
 2939POPC   C4A38394  22.091  15.573   7.818
 2939POPC   C1B38395  22.516  14.988   8.651
 2939POPC   C2B38396  22.527  14.944   8.236
 2939POPC   C3B38397  22.438  14.678   7.910
 2939POPC   C4B38398  22.245  14.826   7.559
 2940POPC   NC338399  35.632   1.036   9.403
 2940POPC   PO438400  36.165   1.333   9.572
 2940POPC   GL138401  36.323   1.460   9.149
 2940POPC   GL238402  36.288   1.093   9.093
 2940POPC   C1A38403  36.269   1.401   8.680
 2940POPC   D2A38404  36.268   1.077   8.372
 2940POPC   C3A38405  36.215   1.156   7.942
 2940POPC   C4A38406  36.243   1.525   7.707
 2940POPC   C1B38407  35.924   1.046   8.828
 2940POPC   C2B38408  35.797   0.921   8.469
 2940POPC   C3B38409  35.583   0.970   8.127
 2940POPC   C4B38410  35.621   0.871   7.716
 2941POPC   NC338411   0.828  27.181   9.577
 2941POPC   PO438412   0.045  27.248   9.487
 2941POPC   GL138413   0.461  27.482   9.267
 2941POPC   GL238414   0.495  27.840   9.193
 2941POPC   C1A38415   0.654  27.545   8.817
 2941POPC   D2A38416   0.456  27.277   8.511
 2941POPC   C3A38417   0.397  27.348   8.091
 2941POPC   C4A38418   0.703  27.403   7.823
 2941POPC   C1B38419   0.405  27.999   8.782
 2941POPC   C2B38420   0.452  27.809   8.389
 2941POPC   C3B38421   0.407  27.831   7.946
 2941POPC   C4B38422   0.570  27.754   7.509
 2942POPC   NC338423  23.447   2.819   9.447
 2942POPC   PO438424  24.068   2.399   9.400
 2942POPC   GL138425  23.752   2.545   9.101
 2942POPC   GL238426  23.736   2.918   9.060
 2942POPC   C1A38427  23.830   2.629   8.675
 2942POPC   D2A38428  24.011   2.973   8.471
 2942POPC   C3A38429  23.947   2.899   8.050
 2942POPC   C4A38430  23.698   2.615   7.821
 2942POPC   C1B38431  23.388   2.843   8.741
 2942POPC   C2B38432  23.475   2.803   8.291
 2942POPC   C3B38433  23.484   3.060   7.918
 2942POPC   C4B38434  23.732   3.203   7.575
 2943POPC   NC338435  18.667  26.868   9.523
 2943POPC   PO438436  19.310  26.946   9.497
 2943POPC   GL138437  19.032  26.923   9.156
 2943POPC   GL238438  18.876  26.593   9.110
 2943POPC   C1A38439  19.103  26.839   8.719
 2943POPC   D2A38440  19.183  27.076   8.356
 2943POPC   C3A38441  19.024  26.843   7.993
 2943POPC   C4A38442  19.137  26.695   7.571
 2943POPC   C1B38443  18.705  26.487   8.660
 2943POPC   C2B38444  18.656  26.476   8.172
 2943POPC   C3B38445  18.718  26.448   7.691
 2943POPC   C4B38446  18.948  26.342   7.249
 2944POPC   NC338447  29.783   8.594   9.688
 2944POPC   PO438448  30.059   9.185   9.554
 2944POPC   GL138449  29.955   9.106   9.143
 2944POPC   GL238450  30.303   9.112   9.085
 2944POPC   C1A38451  29.660   9.003   8.766
 2944POPC   D2A38452  29.579   9.182   8.333
 2944POPC   C3A38453  29.738   9.071   7.915
 2944POPC   C4A38454  30.103   8.802   7.844
 2944POPC   C1B38455  30.139   9.104   8.663
 2944POPC   C2B38456  30.131   9.150   8.234
 2944POPC   C3B38457  30.187   9.386   7.875
 2944POPC   C4B38458  29.885   9.452   7.554
 2945POPC   NC338459  40.423  14.500   9.678
 2945POPC   PO438460  41.013  14.085   9.524
 2945POPC   GL138461  40.920  14.253   9.123
 2945POPC   GL238462  40.639  14.424   9.228
 2945POPC   C1A38463  40.907  14.601   8.831
 2945POPC   D2A38464  40.962  14.762   8.414
 2945POPC   C3A38465  41.126  14.491   8.119
 2945POPC   C4A38466  40.998  14.451   7.689
 2945POPC   C1B38467  40.470  14.343   8.819
 2945POPC   C2B38468  40.505  14.527   8.404
 2945POPC   C3B38469  40.583  14.552   7.992
 2945POPC   C4B38470  40.420  14.331   7.647
 2946POPC   NC338471  23.351  20.808   9.546
 2946POPC   PO438472  23.972  20.742   9.473
 2946POPC   GL138473  23.670  20.683   9.150
 2946POPC   GL238474  23.413  20.424   9.167
 2946POPC   C1A38475  23.745  20.505   8.762
 2946POPC   D2A38476  23.900  20.679   8.394
 2946POPC   C3A38477  23.678  20.530   8.060
 2946POPC   C4A38478  23.409  20.490   7.718
 2946POPC   C1B38479  23.225  20.617   8.827
 2946POPC   C2B38480  23.362  20.719   8.443
 2946POPC   C3B38481  23.258  20.855   8.072
 2946POPC   C4B38482  23.104  20.921   7.686
 2947POPC   NC338483  24.929  10.406   9.464
 2947POPC   PO438484  25.629  10.656   9.490
 2947POPC   GL138485  25.353  10.397   9.208
 2947POPC   GL238486  25.109  10.619   9.043
 2947POPC   C1A38487  25.275  10.229   8.783
 2947POPC   D2A38488  25.150  10.546   8.529
 2947POPC   C3A38489  24.890  10.543   8.180
 2947POPC   C4A38490  25.031  10.469   7.791
 2947POPC   C1B38491  25.541  10.709   8.844
 2947POPC   C2B38492  25.681  10.572   8.456
 2947POPC   C3B38493  25.434  10.645   8.112
 2947POPC   C4B38494  25.491  10.913   7.783
 2948POPC   NC338495  40.469  16.022   9.345
 2948POPC   PO438496  41.109  15.750   9.498
 2948POPC   GL138497  40.937  15.929   9.118
 2948POPC   GL238498  40.660  15.804   8.890
 2948POPC   C1A38499  40.857  16.224   8.761
 2948POPC   D2A38500  40.625  16.081   8.425
 2948POPC   C3A38501  40.841  16.190   8.074
 2948POPC   C4A38502  40.942  15.951   7.736
 2948POPC   C1B38503  40.387  15.575   8.591
 2948POPC   C2B38504  40.123  15.720   8.300
 2948POPC   C3B38505  40.384  15.863   8.010
 2948POPC   C4B38506  40.719  15.568   7.970
 2949POPC   NC338507  35.534  17.000   9.690
 2949POPC   PO438508  35.264  17.588   9.344
 2949POPC   GL138509  35.181  17.544   8.976
 2949POPC   GL238510  35.554  17.599   8.897
 2949POPC   C1A38511  35.167  17.513   8.569
 2949POPC   D2A38512  35.305  17.607   8.215
 2949POPC   C3A38513  35.032  17.773   7.889
 2949POPC   C4A38514  34.905  17.537   7.526
 2949POPC   C1B38515  35.771  17.235   8.664
 2949POPC   C2B38516  35.684  16.863   8.410
 2949POPC   C3B38517  35.315  17.036   8.174
 2949POPC   C4B38518  35.297  17.318   7.794
 2950POPC   NC338519  27.802  39.866   9.484
 2950POPC   PO438520  27.393  40.454   9.489
 2950POPC   GL138521  27.391  40.216   9.103
 2950POPC   GL238522  27.610  39.929   9.009
 2950POPC   C1A38523  27.474  40.310   8.692
 2950POPC   D2A38524  27.689  40.012   8.444
 2950POPC   C3A38525  27.550  39.998   8.044
 2950POPC   C4A38526  27.391  40.206   7.680
 2950POPC   C1B38527  28.008  39.841   8.815
 2950POPC   C2B38528  28.065  39.633   8.439
 2950POPC   C3B38529  27.879  39.599   8.042
 2950POPC   C4B38530  27.766  39.759   7.647
 2951POPC   NC338531   1.737   0.505   9.623
 2951POPC   PO438532   2.426   0.490   9.519
 2951POPC   GL138533   2.091   0.462   9.225
 2951POPC   GL238534   1.940   0.124   9.216
 2951POPC   C1A38535   1.789   0.493   8.889
 2951POPC   D2A38536   1.745   0.749   8.523
 2951POPC   C3A38537   1.935   0.530   8.190
 2951POPC   C4A38538   2.025   0.564   7.770
 2951POPC   C1B38539   2.177   0.125   8.803
 2951POPC   C2B38540   2.327   0.221   8.385
 2951POPC   C3B38541   2.170   0.109   7.971
 2951POPC   C4B38542   2.067   0.072   7.531
 2952POPC   NC338543  31.784  34.519   9.634
 2952POPC   PO438544  31.273  34.857   9.370
 2952POPC   GL138545  31.396  34.641   9.060
 2952POPC   GL238546  31.641  34.422   9.169
 2952POPC   C1A38547  31.373  34.734   8.654
 2952POPC   D2A38548  31.510  34.832   8.289
 2952POPC   C3A38549  31.302  34.814   7.901
 2952POPC   C4A38550  31.418  34.788   7.454
 2952POPC   C1B38551  31.573  34.279   8.755
 2952POPC   C2B38552  31.360  34.295   8.381
 2952POPC   C3B38553  31.543  34.376   7.999
 2952POPC   C4B38554  31.667  34.053   7.730
 2953POPC   NC338555   2.009  33.447   9.529
 2953POPC   PO438556   1.492  32.896   9.468
 2953POPC   GL138557   1.751  32.988   9.102
 2953POPC   GL238558   2.069  33.177   9.105
 2953POPC   C1A38559   1.899  32.857   8.689
 2953POPC   D2A38560   1.607  32.983   8.343
 2953POPC   C3A38561   1.841  32.944   7.953
 2953POPC   C4A38562   2.258  32.910   7.801
 2953POPC   C1B38563   1.964  33.355   8.708
 2953POPC   C2B38564   2.070  33.199   8.330
 2953POPC   C3B38565   2.208  33.402   7.962
 2953POPC   C4B38566   1.918  33.328   7.620
 2954POPC   NC338567  24.301  21.047   9.346
 2954POPC   PO438568  23.709  21.389   9.608
 2954POPC   GL138569  23.523  21.441   9.204
 2954POPC   GL238570  23.288  21.183   9.210
 2954POPC   C1A38571  23.749  21.503   8.812
 2954POPC   D2A38572  24.024  21.458   8.451
 2954POPC   C3A38573  23.803  21.588   8.094
 2954POPC   C4A38574  23.651  21.447   7.746
 2954POPC   C1B38575  23.484  21.063   8.822
 2954POPC   C2B38576  23.628  21.158   8.407
 2954POPC   C3B38577  23.878  21.080   8.060
 2954POPC   C4B38578  23.622  20.940   7.740
 2955POPC   NC338579   6.723  15.418   9.543
 2955POPC   PO438580   6.267  14.894   9.452
 2955POPC   GL138581   6.550  15.143   9.144
 2955POPC   GL238582   6.911  15.052   9.165
 2955POPC   C1A38583   6.530  15.385   8.716
 2955POPC   D2A38584   6.735  15.468   8.287
 2955POPC   C3A38585   6.494  15.337   7.906
 2955POPC   C4A38586   6.638  15.138   7.499
 2955POPC   C1B38587   6.992  15.198   8.756
 2955POPC   C2B38588   6.844  14.973   8.402
 2955POPC   C3B38589   6.890  15.042   7.974
 2955POPC   C4B38590   7.151  15.146   7.625
 2956POPC   NC338591  40.146  20.244   9.535
 2956POPC   PO438592  39.774  19.673   9.527
 2956POPC   GL138593  39.847  19.806   9.097
 2956POPC   GL238594  40.102  20.061   9.061
 2956POPC   C1A38595  39.839  19.891   8.647
 2956POPC   D2A38596  39.922  20.136   8.274
 2956POPC   C3A38597  39.877  19.903   7.912
 2956POPC   C4A38598  39.689  19.606   7.631
 2956POPC   C1B38599  40.291  19.728   8.826
 2956POPC   C2B38600  40.327  19.827   8.396
 2956POPC   C3B38601  40.249  19.589   8.028
 2956POPC   C4B38602  40.341  19.781   7.665
 2957POPC   NC338603  41.194  24.998   9.524
 2957POPC   PO438604  40.741  25.440   9.687
 2957POPC   GL138605  40.808  25.237   9.251
 2957POPC   GL238606  40.529  25.352   9.035
 2957POPC   C1A38607  40.867  25.053   8.815
 2957POPC   D2A38608  40.602  25.231   8.491
 2957POPC   C3A38609  40.774  25.245   8.100
 2957POPC   C4A38610  40.806  25.428   7.706
 2957POPC   C1B38611  40.875  25.565   8.827
 2957POPC   C2B38612  41.103  25.452   8.466
 2957POPC   C3B38613  41.158  25.591   8.034
 2957POPC   C4B38614  41.260  25.624   7.603
 2958POPC   NC338615  38.624   5.489   9.497
 2958POPC   PO438616  38.228   6.036   9.365
 2958POPC   GL138617  38.618   5.909   9.191
 2958POPC   GL238618  38.449   5.621   9.037
 2958POPC   C1A38619  38.739   5.975   8.780
 2958POPC   D2A38620  38.387   5.814   8.508
 2958POPC   C3A38621  38.312   5.822   8.047
 2958POPC   C4A38622  38.113   6.064   7.697
 2958POPC   C1B38623  38.772   5.479   8.772
 2958POPC   C2B38624  38.668   5.429   8.355
 2958POPC   C3B38625  38.765   5.527   7.944
 2958POPC   C4B38626  38.760   5.961   7.879
 2959POPC   NC338627  33.154   3.159   9.539
 2959POPC   PO438628  33.216   2.574   9.477
 2959POPC   GL138629  33.105   2.844   9.134
 2959POPC   GL238630  32.779   2.982   9.173
 2959POPC   C1A38631  33.223   2.707   8.735
 2959POPC   D2A38632  33.126   2.383   8.461
 2959POPC   C3A38633  33.320   2.493   8.102
 2959POPC   C4A38634  33.199   2.758   7.803
 2959POPC   C1B38635  32.727   2.776   8.794
 2959POPC   C2B38636  32.865   2.855   8.380
 2959POPC   C3B38637  32.813   3.036   7.977
 2959POPC   C4B38638  32.566   2.986   7.615
 2960POPC   NC338639  41.901  42.365   9.607
 2960POPC   PO438640  42.522  42.472   9.526
 2960POPC   GL138641  42.156  42.606   9.216
 2960POPC   GL238642  42.188  42.298   9.059
 2960POPC   C1A38643  41.950  42.651   8.782
 2960POPC   D2A38644  42.109  42.310   8.485
 2960POPC   C3A38645  42.249  42.349   8.038
 2960POPC   C4A38646  42.455  42.087   7.697
 2960POPC   C1B38647  42.453  42.600   8.808
 2960POPC   C2B38648  42.374  42.724   8.374
 2960POPC   C3B38649  42.553  42.790   7.996
 2960POPC   C4B38650  42.561  42.584   7.642
 2961POPC   NC338651  29.204   5.281   9.432
 2961POPC   PO438652  29.756   5.031   9.643
 2961POPC   GL138653  29.508   5.004   9.168
 2961POPC   GL238654  29.176   4.930   9.038
 2961POPC   C1A38655  29.549   5.089   8.733
 2961POPC   D2A38656  29.454   5.122   8.315
 2961POPC   C3A38657  29.130   4.962   8.057
 2961POPC   C4A38658  29.210   5.168   7.657
 2961POPC   C1B38659  29.030   5.140   8.698
 2961POPC   C2B38660  28.788   5.243   8.347
 2961POPC   C3B38661  28.842   5.394   7.928
 2961POPC   C4B38662  28.746   5.337   7.491
 2962POPC   NC338663  31.736  40.135   9.597
 2962POPC   PO438664  31.079  40.073   9.601
 2962POPC   GL138665  31.376  40.013   9.241
 2962POPC   GL238666  31.628  39.766   9.265
 2962POPC   C1A38667  31.611  40.081   8.839
 2962POPC   D2A38668  31.413  40.238   8.449
 2962POPC   C3A38669  31.486  40.056   8.048
 2962POPC   C4A38670  31.126  40.043   7.770
 2962POPC   C1B38671  31.359  39.611   8.920
 2962POPC   C2B38672  31.230  39.467   8.511
 2962POPC   C3B38673  31.120  39.671   8.135
 2962POPC   C4B38674  31.230  39.511   7.753
 2963POPC   NC338675   6.679  33.012   9.724
 2963POPC   PO438676   6.375  33.283   9.219
 2963POPC   GL138677   6.551  32.911   9.088
 2963POPC   GL238678   6.866  32.960   9.222
 2963POPC   C1A38679   6.456  32.811   8.659
 2963POPC   D2A38680   6.525  33.203   8.420
 2963POPC   C3A38681   6.714  33.200   8.033
 2963POPC   C4A38682   6.511  32.858   7.826
 2963POPC   C1B38683   6.901  33.073   8.758
 2963POPC   C2B38684   6.893  32.823   8.365
 2963POPC   C3B38685   6.986  32.686   7.931
 2963POPC   C4B38686   6.939  33.019   7.612
 2964POPC   NC338687  31.250  44.404   9.295
 2964POPC   PO438688  30.674  44.617   9.611
 2964POPC   GL138689  30.836  44.683   9.188
 2964POPC   GL238690  30.824  44.354   9.010
 2964POPC   C1A38691  30.810  44.992   8.866
 2964POPC   D2A38692  30.595   0.071   8.474
 2964POPC   C3A38693  30.724  44.834   8.129
 2964POPC   C4A38694  30.709  44.942   7.718
 2964POPC   C1B38695  30.594  44.576   8.706
 2964POPC   C2B38696  30.369  44.538   8.360
 2964POPC   C3B38697  30.297  44.217   8.092
 2964POPC   C4B38698  30.417  44.537   7.802
 2965POPC   NC338699  30.207   6.372   9.482
 2965POPC   PO438700  29.511   6.347   9.252
 2965POPC   GL138701  29.880   6.241   9.108
 2965POPC   GL238702  30.054   6.550   9.040
 2965POPC   C1A38703  30.087   6.136   8.742
 2965POPC   D2A38704  30.068   6.459   8.428
 2965POPC   C3A38705  29.813   6.437   8.029
 2965POPC   C4A38706  29.741   6.605   7.578
 2965POPC   C1B38707  30.208   6.850   8.750
 2965POPC   C2B38708  29.976   6.970   8.385
 2965POPC   C3B38709  30.011   6.939   7.949
 2965POPC   C4B38710  29.959   7.127   7.541
 2966POPC   NC338711  42.930  29.178   9.537
 2966POPC   PO438712  43.484  28.888   9.293
 2966POPC   GL138713  43.335  29.090   8.928
 2966POPC   GL238714  43.022  29.274   9.009
 2966POPC   C1A38715  43.251  29.184   8.514
 2966POPC   D2A38716  43.019  29.456   8.224
 2966POPC   C3A38717  43.259  29.389   7.861
 2966POPC   C4A38718  43.630  29.107   7.854
 2966POPC   C1B38719  42.838  28.926   8.717
 2966POPC   C2B38720  42.637  28.614   8.405
 2966POPC   C3B38721  42.619  28.725   7.970
 2966POPC   C4B38722  42.847  29.093   7.802
 2967POPC   NC338723  14.824  14.908   9.510
 2967POPC   PO438724  15.403  15.108   9.553
 2967POPC   GL138725  15.219  15.037   9.185
 2967POPC   GL238726  14.957  15.244   9.087
 2967POPC   C1A38727  15.356  15.161   8.800
 2967POPC   D2A38728  15.193  15.011   8.422
 2967POPC   C3A38729  15.384  15.166   8.054
 2967POPC   C4A38730  15.363  14.996   7.644
 2967POPC   C1B38731  14.987  15.505   8.674
 2967POPC   C2B38732  14.968  15.445   8.218
 2967POPC   C3B38733  14.909  15.130   7.883
 2967POPC   C4B38734  14.940  15.180   7.439
 2968POPC   NC338735   0.281  38.148   9.522
 2968POPC   PO438736   0.176  37.502   9.524
 2968POPC   GL138737   0.330  37.552   9.106
 2968POPC   GL238738   0.623  37.762   9.143
 2968POPC   C1A38739   0.234  37.706   8.673
 2968POPC   D2A38740   0.054  37.957   8.343
 2968POPC   C3A38741   0.190  37.925   7.939
 2968POPC   C4A38742   0.482  38.072   7.645
 2968POPC   C1B38743   0.700  37.499   8.754
 2968POPC   C2B38744   0.578  37.526   8.313
 2968POPC   C3B38745   0.643  37.643   7.869
 2968POPC   C4B38746   0.657  37.598   7.405
 2969POPC   NC338747  19.898   6.791   9.531
 2969POPC   PO438748  19.616   6.320   9.248
 2969POPC   GL138749  19.889   6.636   9.052
 2969POPC   GL238750  19.802   7.007   9.092
 2969POPC   C1A38751  20.032   6.569   8.656
 2969POPC   D2A38752  19.815   6.392   8.306
 2969POPC   C3A38753  19.975   6.600   7.940
 2969POPC   C4A38754  20.185   6.495   7.530
 2969POPC   C1B38755  19.715   6.980   8.685
 2969POPC   C2B38756  19.674   6.902   8.276
 2969POPC   C3B38757  19.604   7.022   7.858
 2969POPC   C4B38758  19.859   6.877   7.512
 2970POPC   NC338759   3.868   8.504   9.172
 2970POPC   PO438760   3.281   8.183   9.389
 2970POPC   GL138761   3.469   8.037   9.024
 2970POPC   GL238762   3.844   8.007   9.016
 2970POPC   C1A38763   3.351   7.777   8.684
 2970POPC   D2A38764   3.145   7.777   8.273
 2970POPC   C3A38765   3.342   8.036   7.943
 2970POPC   C4A38766   3.187   8.087   7.500
 2970POPC   C1B38767   3.702   8.139   8.590
 2970POPC   C2B38768   3.719   7.859   8.261
 2970POPC   C3B38769   3.901   7.851   7.874
 2970POPC   C4B38770   3.717   8.101   7.582
 2971POPC   NC338771  24.816  31.322   9.472
 2971POPC   PO438772  24.144  31.541   9.548
 2971POPC   GL138773  24.390  31.478   9.209
 2971POPC   GL238774  24.415  31.102   9.215
 2971POPC   C1A38775  24.351  31.425   8.784
 2971POPC   D2A38776  24.327  31.564   8.396
 2971POPC   C3A38777  24.568  31.428   8.064
 2971POPC   C4A38778  24.217  31.377   7.796
 2971POPC   C1B38779  24.576  30.974   8.811
 2971POPC   C2B38780  24.373  31.023   8.400
 2971POPC   C3B38781  24.456  30.941   7.979
 2971POPC   C4B38782  24.636  31.147   7.630
 2972POPC   NC338783  20.275   0.055   9.485
 2972POPC   PO438784  20.284  44.357   9.503
 2972POPC   GL138785  20.368  44.610   9.135
 2972POPC   GL238786  20.666  44.787   9.147
 2972POPC   C1A38787  20.600  44.550   8.709
 2972POPC   D2A38788  20.765  44.430   8.329
 2972POPC   C3A38789  20.539  44.277   7.980
 2972POPC   C4A38790  20.622  44.565   7.731
 2972POPC   C1B38791  20.953  44.918   8.834
 2972POPC   C2B38792  20.916  44.968   8.429
 2972POPC   C3B38793  21.018  44.778   8.051
 2972POPC   C4B38794  21.048  44.810   7.636
 2973POPC   NC338795   3.777  39.197   9.581
 2973POPC   PO438796   3.454  39.760   9.444
 2973POPC   GL138797   3.591  39.426   9.130
 2973POPC   GL238798   3.728  39.064   9.087
 2973POPC   C1A38799   3.432  39.278   8.725
 2973POPC   D2A38800   3.118  39.441   8.417
 2973POPC   C3A38801   3.324  39.513   8.037
 2973POPC   C4A38802   3.569  39.251   7.763
 2973POPC   C1B38803   3.934  38.961   8.672
 2973POPC   C2B38804   3.999  38.923   8.205
 2973POPC   C3B38805   3.847  38.799   7.795
 2973POPC   C4B38806   3.826  38.977   7.367
 2974POPC   NC338807   2.609  12.515   9.693
 2974POPC   PO438808   2.894  13.085   9.545
 2974POPC   GL138809   2.787  12.962   9.121
 2974POPC   GL238810   2.546  12.709   9.191
 2974POPC   C1A38811   2.571  13.089   8.726
 2974POPC   D2A38812   2.334  13.143   8.345
 2974POPC   C3A38813   2.522  12.859   8.046
 2974POPC   C4A38814   2.759  12.862   7.694
 2974POPC   C1B38815   2.622  12.551   8.777
 2974POPC   C2B38816   2.576  12.349   8.381
 2974POPC   C3B38817   2.351  12.354   7.986
 2974POPC   C4B38818   2.399  12.519   7.588
 2975POPC   NC338819  27.930  41.699   9.556
 2975POPC   PO438820  27.395  41.376   9.698
 2975POPC   GL138821  27.578  41.561   9.237
 2975POPC   GL238822  27.534  41.929   9.226
 2975POPC   C1A38823  27.730  41.471   8.784
 2975POPC   D2A38824  27.924  41.589   8.363
 2975POPC   C3A38825  27.731  41.523   7.950
 2975POPC   C4A38826  27.854  41.528   7.500
 2975POPC   C1B38827  27.307  41.787   8.839
 2975POPC   C2B38828  27.306  41.691   8.393
 2975POPC   C3B38829  27.215  41.456   8.032
 2975POPC   C4B38830  27.320  41.567   7.628
 2976POPC   NC338831  25.174  16.919   9.322
 2976POPC   PO438832  25.139  16.224   9.484
 2976POPC   GL138833  25.234  16.461   9.125
 2976POPC   GL238834  24.881  16.540   9.134
 2976POPC   C1A38835  25.411  16.665   8.723
 2976POPC   D2A38836  25.610  16.587   8.316
 2976POPC   C3A38837  25.374  16.643   7.931
 2976POPC   C4A38838  25.381  16.984   7.677
 2976POPC   C1B38839  24.908  16.586   8.723
 2976POPC   C2B38840  25.064  16.498   8.333
 2976POPC   C3B38841  24.853  16.677   7.976
 2976POPC   C4B38842  24.947  16.715   7.556
 2977POPC   NC338843  16.450  29.105   9.557
 2977POPC   PO438844  17.106  29.263   9.417
 2977POPC   GL138845  16.725  29.279   9.178
 2977POPC   GL238846  16.430  29.448   9.161
 2977POPC   C1A38847  16.583  29.144   8.779
 2977POPC   D2A38848  16.858  29.019   8.452
 2977POPC   C3A38849  16.674  28.892   8.084
 2977POPC   C4A38850  16.695  29.064   7.698
 2977POPC   C1B38851  16.269  29.552   8.767
 2977POPC   C2B38852  16.228  29.625   8.333
 2977POPC   C3B38853  16.425  29.406   7.991
 2977POPC   C4B38854  16.615  29.555   7.633
 2978POPC   NC338855  17.172   3.778   9.371
 2978POPC   PO438856  16.624   3.602   9.650
 2978POPC   GL138857  16.750   3.463   9.198
 2978POPC   GL238858  16.655   3.141   9.056
 2978POPC   C1A38859  16.859   3.481   8.732
 2978POPC   D2A38860  16.758   3.816   8.426
 2978POPC   C3A38861  16.730   3.713   7.986
 2978POPC   C4A38862  16.897   3.341   7.831
 2978POPC   C1B38863  16.531   3.061   8.643
 2978POPC   C2B38864  16.595   3.295   8.286
 2978POPC   C3B38865  16.372   3.324   7.909
 2978POPC   C4B38866  16.491   3.483   7.524
 2979POPC   NC338867   7.752   6.642   9.457
 2979POPC   PO438868   8.384   6.477   9.516
 2979POPC   GL138869   8.113   6.448   9.129
 2979POPC   GL238870   8.146   6.772   9.080
 2979POPC   C1A38871   7.769   6.583   8.804
 2979POPC   D2A38872   7.828   6.858   8.461
 2979POPC   C3A38873   7.980   6.525   8.173
 2979POPC   C4A38874   8.274   6.371   7.855
 2979POPC   C1B38875   8.266   6.643   8.673
 2979POPC   C2B38876   8.322   6.903   8.323
 2979POPC   C3B38877   8.232   6.892   7.904
 2979POPC   C4B38878   8.571   7.076   7.693
 2980POPC   NC338879  30.938  30.892   9.428
 2980POPC   PO438880  30.721  30.326   9.399
 2980POPC   GL138881  30.488  30.643   9.191
 2980POPC   GL238882  30.795  30.656   8.987
 2980POPC   C1A38883  30.378  30.903   8.832
 2980POPC   D2A38884  30.597  30.871   8.490
 2980POPC   C3A38885  30.448  30.869   8.091
 2980POPC   C4A38886  30.664  30.906   7.694
 2980POPC   C1B38887  30.997  30.350   8.697
 2980POPC   C2B38888  31.168  30.439   8.276
 2980POPC   C3B38889  30.980  30.528   7.864
 2980POPC   C4B38890  30.825  30.400   7.441
 2981POPC   NC338891  10.249  19.128   9.628
 2981POPC   PO438892  10.867  19.079   9.650
 2981POPC   GL138893  10.556  19.000   9.247
 2981POPC   GL238894  10.509  19.208   8.972
 2981POPC   C1A38895  10.672  18.784   8.805
 2981POPC   D2A38896  10.565  19.046   8.440
 2981POPC   C3A38897  10.689  18.874   8.019
 2981POPC   C4A38898  10.367  18.737   7.741
 2981POPC   C1B38899  10.125  19.312   8.746
 2981POPC   C2B38900  10.120  19.335   8.312
 2981POPC   C3B38901  10.345  19.245   7.959
 2981POPC   C4B38902  10.210  19.197   7.542
 2982POPC   NC338903  25.618   3.403   9.634
 2982POPC   PO438904  24.971   3.646   9.488
 2982POPC   GL138905  25.254   3.452   9.199
 2982POPC   GL238906  25.527   3.695   9.223
 2982POPC   C1A38907  25.401   3.455   8.756
 2982POPC   D2A38908  25.244   3.723   8.404
 2982POPC   C3A38909  25.209   3.518   7.991
 2982POPC   C4A38910  25.516   3.526   7.659
 2982POPC   C1B38911  25.550   3.930   8.856
 2982POPC   C2B38912  25.763   3.833   8.475
 2982POPC   C3B38913  25.633   3.852   8.056
 2982POPC   C4B38914  25.643   4.019   7.637
 2983POPC   NC338915  44.303  33.193   9.535
 2983POPC   PO438916  43.852  32.654   9.597
 2983POPC   GL138917  43.758  32.853   9.201
 2983POPC   GL238918  43.941  33.211   9.144
 2983POPC   C1A38919  43.897  32.718   8.790
 2983POPC   D2A38920  43.908  32.943   8.410
 2983POPC   C3A38921  43.905  32.816   7.980
 2983POPC   C4A38922  44.274  32.821   7.742
 2983POPC   C1B38923  43.557  33.258   8.875
 2983POPC   C2B38924  43.443  33.186   8.437
 2983POPC   C3B38925  43.754  33.325   8.108
 2983POPC   C4B38926  43.713  33.271   7.682
 2984POPC   NC338927  40.747   1.036   9.459
 2984POPC   PO438928  40.968   1.608   9.107
 2984POPC   GL138929  40.635   1.294   8.997
 2984POPC   GL238930  40.524   0.943   9.029
 2984POPC   C1A38931  40.652   1.202   8.558
 2984POPC   D2A38932  40.964   1.496   8.467
 2984POPC   C3A38933  41.163   1.408   8.102
 2984POPC   C4A38934  41.003   1.325   7.707
 2984POPC   C1B38935  40.922   0.888   8.844
 2984POPC   C2B38936  41.126   0.985   8.461
 2984POPC   C3B38937  40.882   0.980   8.078
 2984POPC   C4B38938  40.742   0.885   7.673
 2985POPC   NC338939  35.653  43.472   9.398
 2985POPC   PO438940  35.157  42.986   9.463
 2985POPC   GL138941  35.255  43.000   9.070
 2985POPC   GL238942  35.202  43.360   9.054
 2985POPC   C1A38943  35.482  43.054   8.713
 2985POPC   D2A38944  35.291  43.269   8.401
 2985POPC   C3A38945  35.474  43.144   8.027
 2985POPC   C4A38946  35.416  42.828   7.733
 2985POPC   C1B38947  34.914  43.490   8.728
 2985POPC   C2B38948  34.877  43.585   8.290
 2985POPC   C3B38949  34.960  43.340   7.921
 2985POPC   C4B38950  35.256  43.369   7.602
 2986POPC   NC338951   7.272  32.458   9.348
 2986POPC   PO438952   7.410  33.139   9.459
 2986POPC   GL138953   7.313  33.135   9.061
 2986POPC   GL238954   7.286  32.800   8.961
 2986POPC   C1A38955   7.347  33.345   8.698
 2986POPC   D2A38956   7.500  33.149   8.365
 2986POPC   C3A38957   7.276  33.079   8.032
 2986POPC   C4A38958   7.435  33.049   7.630
 2986POPC   C1B38959   7.584  32.741   8.641
 2986POPC   C2B38960   7.769  32.621   8.234
 2986POPC   C3B38961   7.650  32.592   7.776
 2986POPC   C4B38962   7.691  32.735   7.309
 2987POPC   NC338963  32.090  12.851   9.719
 2987POPC   PO438964  32.649  12.558   9.611
 2987POPC   GL138965  32.325  12.637   9.264
 2987POPC   GL238966  32.114  12.940   9.193
 2987POPC   C1A38967  32.244  12.678   8.784
 2987POPC   D2A38968  32.173  12.879   8.390
 2987POPC   C3A38969  32.005  12.769   7.996
 2987POPC   C4A38970  32.295  12.730   7.690
 2987POPC   C1B38971  32.160  13.186   8.819
 2987POPC   C2B38972  31.894  13.288   8.478
 2987POPC   C3B38973  31.997  13.264   8.048
 2987POPC   C4B38974  32.136  13.253   7.609
 2988POPC   NC338975  15.477  21.516   9.566
 2988POPC   PO438976  15.080  21.059   9.423
 2988POPC   GL138977  15.104  21.313   9.065
 2988POPC   GL238978  15.245  21.629   9.140
 2988POPC   C1A38979  15.390  21.294   8.703
 2988POPC   D2A38980  15.337  21.136   8.269
 2988POPC   C3A38981  15.093  21.454   8.050
 2988POPC   C4A38982  14.964  21.509   7.629
 2988POPC   C1B38983  15.483  21.804   8.836
 2988POPC   C2B38984  15.345  21.826   8.443
 2988POPC   C3B38985  15.554  21.709   8.102
 2988POPC   C4B38986  15.417  21.707   7.718
 2989POPC   NC338987  39.762  36.794   9.392
 2989POPC   PO438988  40.435  37.076   9.429
 2989POPC   GL138989  40.119  37.068   9.119
 2989POPC   GL238990  40.193  36.694   9.126
 2989POPC   C1A38991  39.985  36.906   8.718
 2989POPC   D2A38992  39.894  36.654   8.370
 2989POPC   C3A38993  39.961  36.898   8.033
 2989POPC   C4A38994  39.961  36.874   7.637
 2989POPC   C1B38995  40.363  36.474   8.755
 2989POPC   C2B38996  40.485  36.436   8.321
 2989POPC   C3B38997  40.397  36.662   7.945
 2989POPC   C4B38998  40.363  36.606   7.486
 2990POPC   NC338999  18.013  33.281   9.443
 2990POPC   PO439000  18.521  32.766   9.513
 2990POPC   GL139001  18.303  32.855   9.164
 2990POPC   GL239002  18.280  33.206   9.027
 2990POPC   C1A39003  18.465  32.773   8.782
 2990POPC   D2A39004  18.420  33.048   8.474
 2990POPC   C3A39005  18.597  32.936   8.103
 2990POPC   C4A39006  18.668  32.726   7.725
 2990POPC   C1B39007  17.977  32.945   8.794
 2990POPC   C2B39008  17.938  32.901   8.381
 2990POPC   C3B39009  18.112  33.099   8.076
 2990POPC   C4B39010  18.292  33.109   7.679
 2991POPC   NC339011  16.205  26.592   9.311
 2991POPC   PO439012  16.735  26.207   9.516
 2991POPC   GL139013  16.536  26.235   9.141
 2991POPC   GL239014  16.703  25.938   9.069
 2991POPC   C1A39015  16.540  26.245   8.689
 2991POPC   D2A39016  16.816  26.203   8.331
 2991POPC   C3A39017  16.652  26.380   7.962
 2991POPC   C4A39018  16.526  26.096   7.672
 2991POPC   C1B39019  16.921  25.824   8.718
 2991POPC   C2B39020  16.755  25.543   8.411
 2991POPC   C3B39021  16.609  25.702   8.022
 2991POPC   C4B39022  16.959  25.768   7.773
 2992POPC   NC339023  26.526  33.023   9.714
 2992POPC   PO439024  25.992  33.336   9.449
 2992POPC   GL139025  26.070  33.060   9.130
 2992POPC   GL239026  26.202  33.310   8.929
 2992POPC   C1A39027  25.914  32.892   8.733
 2992POPC   D2A39028  25.912  33.090   8.316
 2992POPC   C3A39029  25.683  32.924   7.973
 2992POPC   C4A39030  25.864  32.776   7.578
 2992POPC   C1B39031  26.385  33.085   8.636
 2992POPC   C2B39032  26.422  33.136   8.213
 2992POPC   C3B39033  26.364  33.412   7.911
 2992POPC   C4B39034  26.388  33.359   7.452
 2993POPC   NC339035  20.433   4.096   9.456
 2993POPC   PO439036  20.302   4.791   9.390
 2993POPC   GL139037  20.474   4.517   9.070
 2993POPC   GL239038  20.653   4.178   9.004
 2993POPC   C1A39039  20.345   4.426   8.660
 2993POPC   D2A39040  20.149   4.517   8.282
 2993POPC   C3A39041  20.423   4.414   7.973
 2993POPC   C4A39042  20.360   4.193   7.633
 2993POPC   C1B39043  20.874   4.428   8.745
 2993POPC   C2B39044  20.890   4.341   8.325
 2993POPC   C3B39045  20.919   4.577   7.976
 2993POPC   C4B39046  20.851   4.365   7.633
 2994POPC   NC339047  35.902  26.589   9.510
 2994POPC   PO439048  36.134  27.166   9.264
 2994POPC   GL139049  36.336  26.871   9.046
 2994POPC   GL239050  36.218  26.499   9.062
 2994POPC   C1A39051  36.301  26.985   8.624
 2994POPC   D2A39052  36.359  27.245   8.270
 2994POPC   C3A39053  36.211  26.917   7.994
 2994POPC   C4A39054  36.016  26.929   7.585
 2994POPC   C1B39055  35.831  26.680   8.865
 2994POPC   C2B39056  35.728  26.825   8.457
 2994POPC   C3B39057  35.787  26.636   8.029
 2994POPC   C4B39058  36.118  26.456   7.701
 2995POPC   NC339059  21.800  30.324   9.444
 2995POPC   PO439060  21.425  29.768   9.518
 2995POPC   GL139061  21.372  30.035   9.128
 2995POPC   GL239062  21.057  30.275   9.112
 2995POPC   C1A39063  21.499  29.874   8.705
 2995POPC   D2A39064  21.554  29.935   8.258
 2995POPC   C3A39065  21.774  29.675   7.961
 2995POPC   C4A39066  21.592  29.845   7.611
 2995POPC   C1B39067  21.054  30.139   8.703
 2995POPC   C2B39068  21.045  30.025   8.288
 2995POPC   C3B39069  21.149  29.992   7.869
 2995POPC   C4B39070  21.144  30.344   7.596
 2996POPC   NC339071  20.984  22.315   9.499
 2996POPC   PO439072  21.599  22.521   9.546
 2996POPC   GL139073  21.502  22.161   9.206
 2996POPC   GL239074  21.150  21.996   9.120
 2996POPC   C1A39075  21.520  22.122   8.736
 2996POPC   D2A39076  21.550  22.429   8.392
 2996POPC   C3A39077  21.260  22.440   8.033
 2996POPC   C4A39078  21.429  22.458   7.630
 2996POPC   C1B39079  21.008  21.990   8.695
 2996POPC   C2B39080  21.228  21.996   8.315
 2996POPC   C3B39081  21.574  22.041   8.046
 2996POPC   C4B39082  21.321  21.966   7.754
 2997POPC   NC339083  27.114  31.709   9.516
 2997POPC   PO439084  27.672  31.308   9.432
 2997POPC   GL139085  27.460  31.405   9.043
 2997POPC   GL239086  27.395  31.742   9.047
 2997POPC   C1A39087  27.592  31.227   8.617
 2997POPC   D2A39088  27.879  31.358   8.270
 2997POPC   C3A39089  27.815  31.637   7.930
 2997POPC   C4A39090  27.677  31.644   7.509
 2997POPC   C1B39091  27.519  31.732   8.607
 2997POPC   C2B39092  27.382  31.548   8.247
 2997POPC   C3B39093  27.276  31.647   7.853
 2997POPC   C4B39094  27.086  31.550   7.482
 2998POPC   NC339095  32.147  19.497   9.425
 2998POPC   PO439096  32.474  20.097   9.417
 2998POPC   GL139097  32.158  19.904   9.071
 2998POPC   GL239098  32.069  19.527   8.944
 2998POPC   C1A39099  32.091  19.925   8.604
 2998POPC   D2A39100  31.921  20.108   8.212
 2998POPC   C3A39101  32.086  20.024   7.792
 2998POPC   C4A39102  32.118  20.134   7.325
 2998POPC   C1B39103  32.334  19.474   8.627
 2998POPC   C2B39104  32.211  19.594   8.215
 2998POPC   C3B39105  32.106  19.363   7.847
 2998POPC   C4B39106  32.094  19.625   7.488
 2999POPC   NC339107  36.614   1.200   9.500
 2999POPC   PO439108  37.377   1.078   9.548
 2999POPC   GL139109  37.236   1.073   9.109
 2999POPC   GL239110  36.884   0.957   9.135
 2999POPC   C1A39111  37.151   0.856   8.711
 2999POPC   D2A39112  36.883   0.772   8.338
 2999POPC   C3A39113  36.913   1.020   7.986
 2999POPC   C4A39114  37.230   1.033   7.677
 2999POPC   C1B39115  36.652   1.004   8.754
 2999POPC   C2B39116  36.737   1.279   8.438
 2999POPC   C3B39117  36.622   1.439   8.057
 2999POPC   C4B39118  36.867   1.488   7.698
 3000POPC   NC339119   5.444  26.444   9.374
 3000POPC   PO439120   6.024  26.059   9.499
 3000POPC   GL139121   5.912  26.036   9.119
 3000POPC   GL239122   6.242  26.023   9.035
 3000POPC   C1A39123   5.657  26.094   8.769
 3000POPC   D2A39124   5.421  26.143   8.395
 3000POPC   C3A39125   5.479  25.825   8.071
 3000POPC   C4A39126   5.798  25.766   7.729
 3000POPC   C1B39127   6.114  25.831   8.673
 3000POPC   C2B39128   5.925  25.957   8.312
 3000POPC   C3B39129   6.089  26.148   7.961
 3000POPC   C4B39130   6.260  25.953   7.602
 3001POPC   NC339131   9.679  36.397   9.508
 3001POPC   PO439132   9.993  35.737   9.497
 3001POPC   GL139133   9.838  36.058   9.161
 3001POPC   GL239134   9.991  36.401   9.086
 3001POPC   C1A39135   9.629  36.256   8.771
 3001POPC   D2A39136   9.785  36.097   8.383
 3001POPC   C3A39137   9.676  36.338   8.034
 3001POPC   C4A39138   9.528  36.084   7.744
 3001POPC   C1B39139  10.171  36.196   8.770
 3001POPC   C2B39140  10.332  36.298   8.390
 3001POPC   C3B39141  10.161  36.209   8.015
 3001POPC   C4B39142   9.967  36.275   7.611
 3002POPC   NC339143  13.788  26.175   9.584
 3002POPC   PO439144  13.356  25.676   9.578
 3002POPC   GL139145  13.480  25.987   9.210
 3002POPC   GL239146  13.859  25.928   9.149
 3002POPC   C1A39147  13.542  26.127   8.746
 3002POPC   D2A39148  13.313  26.135   8.309
 3002POPC   C3A39149  13.379  26.328   7.870
 3002POPC   C4A39150  13.247  26.323   7.416
 3002POPC   C1B39151  14.004  25.938   8.726
 3002POPC   C2B39152  13.879  26.084   8.311
 3002POPC   C3B39153  13.628  25.882   7.978
 3002POPC   C4B39154  13.480  25.896   7.548
 3003POPC   NC339155   6.451   8.556   9.458
 3003POPC   PO439156   6.900   9.086   9.456
 3003POPC   GL139157   6.777   8.900   9.127
 3003POPC   GL239158   7.021   8.639   9.151
 3003POPC   C1A39159   6.455   8.961   8.810
 3003POPC   D2A39160   6.381   9.220   8.424
 3003POPC   C3A39161   6.496   9.075   7.995
 3003POPC   C4A39162   6.273   9.255   7.651
 3003POPC   C1B39163   6.775   8.544   8.780
 3003POPC   C2B39164   6.649   8.734   8.388
 3003POPC   C3B39165   6.767   8.616   7.983
 3003POPC   C4B39166   7.013   8.910   7.814
 3004POPC   NC339167   6.794  31.119   9.419
 3004POPC   PO439168   6.350  31.595   9.487
 3004POPC   GL139169   6.439  31.344   9.120
 3004POPC   GL239170   6.338  31.649   8.986
 3004POPC   C1A39171   6.763  31.305   8.765
 3004POPC   D2A39172   7.045  31.357   8.383
 3004POPC   C3A39173   6.782  31.425   8.017
 3004POPC   C4A39174   6.573  31.324   7.621
 3004POPC   C1B39175   6.642  31.847   8.824
 3004POPC   C2B39176   6.768  31.770   8.448
 3004POPC   C3B39177   6.635  31.922   8.119
 3004POPC   C4B39178   6.492  31.799   7.735
 3005POPC   NC339179  44.190  32.310   9.566
 3005POPC   PO439180  43.893  31.714   9.542
 3005POPC   GL139181  43.853  32.030   9.214
 3005POPC   GL239182  43.624  32.313   9.295
 3005POPC   C1A39183  44.103  32.213   8.858
 3005POPC   D2A39184  44.244  32.481   8.481
 3005POPC   C3A39185  44.271  32.373   8.050
 3005POPC   C4A39186  44.084  32.373   7.650
 3005POPC   C1B39187  43.572  32.291   8.848
 3005POPC   C2B39188  43.788  32.172   8.466
 3005POPC   C3B39189  43.760  32.331   8.089
 3005POPC   C4B39190  43.601  32.446   7.738
 3006POPC   NC339191   9.869  41.113   9.471
 3006POPC   PO439192   9.565  41.641   9.513
 3006POPC   GL139193   9.714  41.449   9.120
 3006POPC   GL239194  10.052  41.453   9.152
 3006POPC   C1A39195   9.729  41.492   8.677
 3006POPC   D2A39196   9.375  41.706   8.494
 3006POPC   C3A39197   9.284  41.563   8.086
 3006POPC   C4A39198   9.477  41.659   7.701
 3006POPC   C1B39199  10.206  41.285   8.807
 3006POPC   C2B39200  10.205  41.536   8.467
 3006POPC   C3B39201  10.028  41.577   8.114
 3006POPC   C4B39202   9.898  41.422   7.762
 3007POPC   NC339203  26.959  40.384   9.335
 3007POPC   PO439204  26.930  41.098   9.443
 3007POPC   GL139205  26.892  40.847   9.086
 3007POPC   GL239206  27.213  40.688   9.031
 3007POPC   C1A39207  26.807  41.005   8.675
 3007POPC   D2A39208  26.975  41.059   8.286
 3007POPC   C3A39209  26.691  40.946   7.950
 3007POPC   C4A39210  27.065  41.040   7.724
 3007POPC   C1B39211  26.997  40.511   8.675
 3007POPC   C2B39212  26.826  40.542   8.273
 3007POPC   C3B39213  26.786  40.435   7.847
 3007POPC   C4B39214  26.406  40.462   7.651
 3008POPC   NC339215  33.776  44.505  10.053
 3008POPC   PO439216  33.782  44.591   9.356
 3008POPC   GL139217  33.631  44.710   9.036
 3008POPC   GL239218  33.761   0.022   8.980
 3008POPC   C1A39219  33.606  44.659   8.624
 3008POPC   D2A39220  33.406  44.818   8.340
 3008POPC   C3A39221  33.405  44.606   8.012
 3008POPC   C4A39222  33.444  44.957   7.800
 3008POPC   C1B39223  34.074  44.769   8.773
 3008POPC   C2B39224  34.057  44.401   8.515
 3008POPC   C3B39225  33.910  44.680   8.206
 3008POPC   C4B39226  33.881  44.682   7.794
 3009POPC   NC339227  13.844  39.321   9.571
 3009POPC   PO439228  14.543  39.216   9.800
 3009POPC   GL139229  14.625  39.322   9.324
 3009POPC   GL239230  14.299  39.339   9.137
 3009POPC   C1A39231  14.711  39.335   8.855
 3009POPC   D2A39232  14.614  39.503   8.452
 3009POPC   C3A39233  14.340  39.342   8.144
 3009POPC   C4A39234  14.384  39.448   7.696
 3009POPC   C1B39235  14.210  39.213   8.685
 3009POPC   C2B39236  13.923  38.996   8.396
 3009POPC   C3B39237  13.925  39.099   7.953
 3009POPC   C4B39238  13.938  39.270   7.574
 3010POPC   NC339239  40.140  10.139   9.574
 3010POPC   PO439240  39.802   9.501   9.433
 3010POPC   GL139241  40.034   9.785   9.211
 3010POPC   GL239242  40.361   9.687   9.264
 3010POPC   C1A39243  40.103   9.810   8.798
 3010POPC   D2A39244  39.830   9.709   8.483
 3010POPC   C3A39245  40.026   9.701   8.086
 3010POPC   C4A39246  39.905   9.883   7.708
 3010POPC   C1B39247  40.496   9.494   8.846
 3010POPC   C2B39248  40.557   9.312   8.423
 3010POPC   C3B39249  40.342   9.280   8.010
 3010POPC   C4B39250  40.248   9.473   7.641
 3011POPC   NC339251   5.133  24.806   9.601
 3011POPC   PO439252   4.786  24.265   9.438
 3011POPC   GL139253   5.049  24.540   9.174
 3011POPC   GL239254   4.963  24.899   9.127
 3011POPC   C1A39255   5.271  24.497   8.803
 3011POPC   D2A39256   5.508  24.487   8.430
 3011POPC   C3A39257   5.289  24.533   8.078
 3011POPC   C4A39258   5.186  24.384   7.699
 3011POPC   C1B39259   5.262  24.994   8.805
 3011POPC   C2B39260   5.122  24.873   8.428
 3011POPC   C3B39261   4.819  24.923   8.131
 3011POPC   C4B39262   5.039  24.862   7.757
 3012POPC   NC339263  14.875   2.557   9.373
 3012POPC   PO439264  15.496   2.804   9.427
 3012POPC   GL139265  15.381   2.503   9.114
 3012POPC   GL239266  15.217   2.776   8.990
 3012POPC   C1A39267  15.103   2.350   8.751
 3012POPC   D2A39268  14.860   2.547   8.412
 3012POPC   C3A39269  15.068   2.633   8.026
 3012POPC   C4A39270  15.144   2.919   7.695
 3012POPC   C1B39271  15.210   2.908   8.565
 3012POPC   C2B39272  15.277   3.098   8.159
 3012POPC   C3B39273  15.101   3.391   7.852
 3012POPC   C4B39274  14.754   3.396   7.554
 3013POPC   NC339275  24.762  18.926   9.644
 3013POPC   PO439276  24.227  19.262   9.476
 3013POPC   GL139277  24.505  19.216   9.133
 3013POPC   GL239278  24.858  19.150   9.201
 3013POPC   C1A39279  24.421  19.310   8.712
 3013POPC   D2A39280  24.510  19.047   8.348
 3013POPC   C3A39281  24.490  19.208   7.948
 3013POPC   C4A39282  24.319  19.529   7.693
 3013POPC   C1B39283  24.857  19.036   8.757
 3013POPC   C2B39284  24.956  18.820   8.390
 3013POPC   C3B39285  24.936  18.785   7.981
 3013POPC   C4B39286  24.796  18.934   7.588
 3014POPC   NC339287  34.039  43.682   9.560
 3014POPC   PO439288  34.510  44.106   9.284
 3014POPC   GL139289  34.493  43.760   8.996
 3014POPC   GL239290  34.205  43.594   9.065
 3014POPC   C1A39291  34.622  43.893   8.606
 3014POPC   D2A39292  34.633  44.182   8.296
 3014POPC   C3A39293  34.664  43.892   7.945
 3014POPC   C4A39294  35.037  43.834   7.711
 3014POPC   C1B39295  34.126  43.892   8.692
 3014POPC   C2B39296  34.204  43.916   8.223
 3014POPC   C3B39297  34.188  43.931   7.751
 3014POPC   C4B39298  34.191  43.886   7.281
 3015POPC   NC339299  17.147  36.060   9.764
 3015POPC   PO439300  16.615  36.167   9.546
 3015POPC   GL139301  16.556  36.338   9.125
 3015POPC   GL239302  16.617  36.027   8.989
 3015POPC   C1A39303  16.853  36.443   8.790
 3015POPC   D2A39304  17.099  36.361   8.440
 3015POPC   C3A39305  16.837  36.197   8.108
 3015POPC   C4A39306  16.762  36.453   7.742
 3015POPC   C1B39307  17.049  35.955   8.817
 3015POPC   C2B39308  17.238  35.872   8.394
 3015POPC   C3B39309  17.325  36.134   8.024
 3015POPC   C4B39310  17.101  36.055   7.667
 3016POPC   NC339311  44.838   9.384   9.649
 3016POPC   PO439312  44.653   8.719   9.492
 3016POPC   GL139313  44.895   8.769   9.147
 3016POPC   GL239314  44.903   9.124   9.201
 3016POPC   C1A39315  44.765   8.923   8.744
 3016POPC   D2A39316  44.493   8.974   8.401
 3016POPC   C3A39317  44.725   8.925   8.027
 3016POPC   C4A39318  44.456   9.053   7.727
 3016POPC   C1B39319   0.013   9.371   8.828
 3016POPC   C2B39320   0.140   9.473   8.416
 3016POPC   C3B39321   0.007   9.623   8.035
 3016POPC   C4B39322  44.890   9.332   7.762
 3017POPC   NC339323  24.989  15.753   9.417
 3017POPC   PO439324  25.681  15.773   9.330
 3017POPC   GL139325  25.370  15.968   9.104
 3017POPC   GL239326  25.227  15.708   8.987
 3017POPC   C1A39327  25.166  16.144   8.744
 3017POPC   D2A39328  25.142  15.936   8.382
 3017POPC   C3A39329  25.226  16.137   7.991
 3017POPC   C4A39330  25.219  16.261   7.575
 3017POPC   C1B39331  25.546  15.728   8.685
 3017POPC   C2B39332  25.612  15.474   8.358
 3017POPC   C3B39333  25.445  15.637   8.020
 3017POPC   C4B39334  25.568  15.873   7.705
 3018POPC   NC339335   1.374  23.534   9.379
 3018POPC   PO439336   1.102  24.115   9.381
 3018POPC   GL139337   1.397  23.946   9.014
 3018POPC   GL239338   1.663  23.713   8.991
 3018POPC   C1A39339   1.462  23.881   8.522
 3018POPC   D2A39340   1.518  23.990   8.038
 3018POPC   C3A39341   1.158  23.870   7.801
 3018POPC   C4A39342   1.041  23.585   7.466
 3018POPC   C1B39343   1.747  23.451   8.612
 3018POPC   C2B39344   1.681  23.537   8.160
 3018POPC   C3B39345   1.499  23.460   7.747
 3018POPC   C4B39346   1.394  23.220   7.353
 3019POPC   NC339347  28.009  22.122   9.373
 3019POPC   PO439348  27.278  22.222   9.479
 3019POPC   GL139349  27.539  22.279   9.180
 3019POPC   GL239350  27.535  21.929   9.112
 3019POPC   C1A39351  27.724  22.321   8.797
 3019POPC   D2A39352  27.766  22.524   8.437
 3019POPC   C3A39353  27.658  22.308   8.075
 3019POPC   C4A39354  27.669  22.495   7.681
 3019POPC   C1B39355  27.738  21.767   8.756
 3019POPC   C2B39356  28.005  21.741   8.387
 3019POPC   C3B39357  27.883  21.791   7.952
 3019POPC   C4B39358  27.578  22.003   7.654
 3020POPC   NC339359   8.708   4.661   9.470
 3020POPC   PO439360   9.235   5.133   9.420
 3020POPC   GL139361   8.956   4.993   9.116
 3020POPC   GL239362   8.933   4.632   9.013
 3020POPC   C1A39363   9.063   5.047   8.704
 3020POPC   D2A39364   8.959   5.273   8.363
 3020POPC   C3A39365   9.014   5.010   8.052
 3020POPC   C4A39366   9.352   4.953   7.796
 3020POPC   C1B39367   8.619   4.745   8.731
 3020POPC   C2B39368   8.569   4.944   8.324
 3020POPC   C3B39369   8.640   4.686   7.918
 3020POPC   C4B39370   8.914   4.847   7.557
 3021POPC   NC339371   7.111   9.502   9.533
 3021POPC   PO439372   7.536   9.992   9.721
 3021POPC   GL139373   7.537   9.977   9.215
 3021POPC   GL239374   7.401   9.662   9.114
 3021POPC   C1A39375   7.517   9.945   8.717
 3021POPC   D2A39376   7.150   9.908   8.434
 3021POPC   C3A39377   7.238   9.832   8.010
 3021POPC   C4A39378   7.665   9.705   7.867
 3021POPC   C1B39379   7.346   9.456   8.689
 3021POPC   C2B39380   7.431   9.403   8.241
 3021POPC   C3B39381   7.290   9.348   7.802
 3021POPC   C4B39382   7.274   9.353   7.330
 3022POPC   NC339383  19.572  34.282   9.626
 3022POPC   PO439384  18.875  34.484   9.547
 3022POPC   GL139385  19.036  34.609   9.165
 3022POPC   GL239386  19.344  34.513   9.219
 3022POPC   C1A39387  19.091  34.455   8.724
 3022POPC   D2A39388  19.195  34.298   8.307
 3022POPC   C3A39389  19.061  34.482   7.925
 3022POPC   C4A39390  19.315  34.491   7.578
 3022POPC   C1B39391  19.497  34.725   8.876
 3022POPC   C2B39392  19.356  34.828   8.476
 3022POPC   C3B39393  19.513  34.693   8.091
 3022POPC   C4B39394  19.509  34.921   7.709
 3023POPC   NC339395   5.054  12.026   9.563
 3023POPC   PO439396   4.584  11.961   9.082
 3023POPC   GL139397   5.032  11.956   9.019
 3023POPC   GL239398   5.244  12.216   9.090
 3023POPC   C1A39399   5.378  11.923   8.711
 3023POPC   D2A39400   5.397  11.717   8.329
 3023POPC   C3A39401   5.272  11.963   7.987
 3023POPC   C4A39402   4.895  11.977   7.813
 3023POPC   C1B39403   5.062  12.421   8.703
 3023POPC   C2B39404   4.992  12.278   8.296
 3023POPC   C3B39405   5.067  12.442   7.885
 3023POPC   C4B39406   5.335  12.303   7.579
 3024POPC   NC339407  16.686  24.167   9.406
 3024POPC   PO439408  17.067  24.631   9.437
 3024POPC   GL139409  16.852  24.584   9.026
 3024POPC   GL239410  16.662  24.250   8.915
 3024POPC   C1A39411  16.812  24.594   8.573
 3024POPC   D2A39412  16.824  24.264   8.261
 3024POPC   C3A39413  16.983  24.455   7.905
 3024POPC   C4A39414  17.059  24.869   7.786
 3024POPC   C1B39415  16.395  24.187   8.554
 3024POPC   C2B39416  16.319  24.510   8.283
 3024POPC   C3B39417  16.299  24.762   7.944
 3024POPC   C4B39418  16.554  24.528   7.674
 3025POPC   NC339419  23.587  35.349   9.427
 3025POPC   PO439420  24.135  34.914   9.711
 3025POPC   GL139421  24.010  34.998   9.275
 3025POPC   GL239422  24.031  35.309   9.172
 3025POPC   C1A39423  23.772  35.050   8.834
 3025POPC   D2A39424  23.445  35.284   8.551
 3025POPC   C3A39425  23.431  35.114   8.122
 3025POPC   C4A39426  23.726  35.073   7.788
 3025POPC   C1B39427  23.805  35.561   8.822
 3025POPC   C2B39428  23.726  35.738   8.426
 3025POPC   C3B39429  23.616  35.618   7.984
 3025POPC   C4B39430  23.845  35.567   7.576
 3026POPC   NC339431  41.086  25.734   9.780
 3026POPC   PO439432  41.022  26.370   9.469
 3026POPC   GL139433  40.742  26.161   9.175
 3026POPC   GL239434  40.705  25.789   9.268
 3026POPC   C1A39435  40.788  26.180   8.735
 3026POPC   D2A39436  40.509  26.277   8.418
 3026POPC   C3A39437  40.682  26.300   8.007
 3026POPC   C4A39438  40.817  26.393   7.570
 3026POPC   C1B39439  40.439  25.835   8.877
 3026POPC   C2B39440  40.566  25.747   8.451
 3026POPC   C3B39441  40.536  25.794   8.020
 3026POPC   C4B39442  40.758  25.916   7.678
 3027POPC   NC339443  20.831  21.329   9.575
 3027POPC   PO439444  20.191  21.375   9.492
 3027POPC   GL139445  20.497  21.396   9.166
 3027POPC   GL239446  20.625  21.073   9.179
 3027POPC   C1A39447  20.431  21.476   8.731
 3027POPC   D2A39448  20.236  21.329   8.360
 3027POPC   C3A39449  20.506  21.251   8.015
 3027POPC   C4A39450  20.920  21.459   8.029
 3027POPC   C1B39451  20.762  20.996   8.764
 3027POPC   C2B39452  20.924  21.066   8.344
 3027POPC   C3B39453  20.902  20.947   7.898
 3027POPC   C4B39454  20.863  21.003   7.439
 3028POPC   NC339455  38.111  13.418   9.452
 3028POPC   PO439456  37.441  13.687   9.522
 3028POPC   GL139457  37.777  13.728   9.203
 3028POPC   GL239458  37.469  13.768   9.015
 3028POPC   C1A39459  37.892  13.606   8.788
 3028POPC   D2A39460  37.550  13.617   8.498
 3028POPC   C3A39461  37.734  13.723   8.116
 3028POPC   C4A39462  37.689  13.636   7.719
 3028POPC   C1B39463  37.190  13.959   8.742
 3028POPC   C2B39464  37.126  13.888   8.310
 3028POPC   C3B39465  37.326  13.975   7.917
 3028POPC   C4B39466  37.075  14.087   7.569
 3029POPC   NC339467  35.519  33.258   9.530
 3029POPC   PO439468  35.073  32.730   9.354
 3029POPC   GL139469  35.218  33.051   9.077
 3029POPC   GL239470  35.291  33.425   9.113
 3029POPC   C1A39471  35.159  32.951   8.667
 3029POPC   D2A39472  35.375  32.856   8.292
 3029POPC   C3A39473  35.308  32.837   7.868
 3029POPC   C4A39474  35.730  32.778   7.733
 3029POPC   C1B39475  35.566  33.347   8.799
 3029POPC   C2B39476  35.371  33.362   8.423
 3029POPC   C3B39477  35.242  33.313   8.021
 3029POPC   C4B39478  35.095  33.539   7.697
 3030POPC   NC339479   9.042  14.823   9.494
 3030POPC   PO439480   9.041  15.483   9.532
 3030POPC   GL139481   8.874  15.437   9.130
 3030POPC   GL239482   8.798  15.092   9.053
 3030POPC   C1A39483   9.028  15.425   8.740
 3030POPC   D2A39484   9.237  15.395   8.398
 3030POPC   C3A39485   9.072  15.450   8.026
 3030POPC   C4A39486   9.216  15.268   7.673
 3030POPC   C1B39487   8.543  15.284   8.692
 3030POPC   C2B39488   8.711  15.179   8.268
 3030POPC   C3B39489   8.881  14.961   7.880
 3030POPC   C4B39490   8.956  14.935   7.410
 3031POPC   NC339491  41.308  29.284   9.630
 3031POPC   PO439492  41.754  28.764   9.406
 3031POPC   GL139493  41.385  28.954   9.128
 3031POPC   GL239494  41.290  29.338   9.122
 3031POPC   C1A39495  41.338  29.058   8.709
 3031POPC   D2A39496  41.517  29.062   8.318
 3031POPC   C3A39497  41.363  29.285   8.000
 3031POPC   C4A39498  41.614  29.144   7.679
 3031POPC   C1B39499  41.551  29.533   8.795
 3031POPC   C2B39500  41.625  29.579   8.386
 3031POPC   C3B39501  41.783  29.593   7.975
 3031POPC   C4B39502  41.543  29.628   7.617
 3032POPC   NC339503  23.485  30.965   9.431
 3032POPC   PO439504  23.025  30.507   9.573
 3032POPC   GL139505  23.046  30.810   9.207
 3032POPC   GL239506  22.766  30.735   9.026
 3032POPC   C1A39507  23.048  31.029   8.756
 3032POPC   D2A39508  22.879  31.044   8.318
 3032POPC   C3A39509  23.104  30.986   7.908
 3032POPC   C4A39510  23.252  30.695   7.559
 3032POPC   C1B39511  22.938  30.440   8.717
 3032POPC   C2B39512  22.925  30.257   8.279
 3032POPC   C3B39513  22.945  30.342   7.806
 3032POPC   C4B39514  22.732  30.486   7.406
 3033POPC   NC339515  19.463   4.056   9.378
 3033POPC   PO439516  19.088   4.457   9.781
 3033POPC   GL139517  18.986   4.263   9.296
 3033POPC   GL239518  18.867   4.567   9.183
 3033POPC   C1A39519  19.106   4.067   8.828
 3033POPC   D2A39520  19.216   3.850   8.387
 3033POPC   C3A39521  19.043   4.044   7.983
 3033POPC   C4A39522  18.946   4.383   7.695
 3033POPC   C1B39523  19.018   4.596   8.739
 3033POPC   C2B39524  19.068   4.721   8.325
 3033POPC   C3B39525  19.306   4.567   8.003
 3033POPC   C4B39526  19.396   4.669   7.583
 3034POPC   NC339527  33.641  15.869   9.758
 3034POPC   PO439528  34.102  16.228   9.512
 3034POPC   GL139529  33.795  15.990   9.266
 3034POPC   GL239530  34.038  15.761   9.148
 3034POPC   C1A39531  33.582  15.842   8.880
 3034POPC   D2A39532  33.676  15.690   8.443
 3034POPC   C3A39533  33.559  15.889   8.042
 3034POPC   C4A39534  33.681  15.707   7.666
 3034POPC   C1B39535  34.038  16.027   8.765
 3034POPC   C2B39536  33.981  16.091   8.313
 3034POPC   C3B39537  33.961  16.145   7.879
 3034POPC   C4B39538  33.577  16.264   7.665
 3035POPC   NC339539  30.294  24.199   9.531
 3035POPC   PO439540  29.655  24.374   9.686
 3035POPC   GL139541  29.807  24.142   9.315
 3035POPC   GL239542  29.984  24.432   9.185
 3035POPC   C1A39543  29.875  24.067   8.853
 3035POPC   D2A39544  29.765  24.228   8.445
 3035POPC   C3A39545  29.993  24.319   8.108
 3035POPC   C4A39546  29.916  24.140   7.708
 3035POPC   C1B39547  29.868  24.677   8.808
 3035POPC   C2B39548  29.926  24.844   8.404
 3035POPC   C3B39549  30.215  24.788   8.063
 3035POPC   C4B39550  30.019  24.644   7.687
 3036POPC   NC339551  34.769   9.983   9.496
 3036POPC   PO439552  34.173   9.680   9.441
 3036POPC   GL139553  34.406   9.903   9.143
 3036POPC   GL239554  34.658   9.640   9.127
 3036POPC   C1A39555  34.669  10.007   8.786
 3036POPC   D2A39556  34.505  10.022   8.384
 3036POPC   C3A39557  34.672   9.857   8.023
 3036POPC   C4A39558  34.971   9.896   7.687
 3036POPC   C1B39559  34.495   9.535   8.734
 3036POPC   C2B39560  34.255   9.550   8.364
 3036POPC   C3B39561  34.423   9.405   8.005
 3036POPC   C4B39562  34.567   9.514   7.644
 3037POPC   NC339563  36.732  40.772   9.520
 3037POPC   PO439564  37.324  40.500   9.648
 3037POPC   GL139565  37.175  40.694   9.192
 3037POPC   GL239566  36.862  40.829   9.039
 3037POPC   C1A39567  37.252  40.793   8.716
 3037POPC   D2A39568  36.947  40.919   8.443
 3037POPC   C3A39569  36.936  40.753   8.054
 3037POPC   C4A39570  37.156  40.797   7.684
 3037POPC   C1B39571  36.534  41.044   8.827
 3037POPC   C2B39572  36.507  41.209   8.434
 3037POPC   C3B39573  36.513  41.016   8.055
 3037POPC   C4B39574  36.617  40.793   7.656
 3038POPC   NC339575   7.133   1.854   9.771
 3038POPC   PO439576   6.534   2.083   9.485
 3038POPC   GL139577   6.640   1.900   9.151
 3038POPC   GL239578   6.399   1.735   9.019
 3038POPC   C1A39579   6.753   1.991   8.743
 3038POPC   D2A39580   6.708   1.867   8.342
 3038POPC   C3A39581   6.407   2.125   8.120
 3038POPC   C4A39582   6.602   2.238   7.741
 3038POPC   C1B39583   6.288   1.753   8.611
 3038POPC   C2B39584   6.217   1.625   8.209
 3038POPC   C3B39585   6.547   1.673   7.901
 3038POPC   C4B39586   6.682   1.704   7.483
 3039POPC   NC339587  20.208  21.805   9.338
 3039POPC   PO439588  20.525  22.399   9.451
 3039POPC   GL139589  20.666  22.235   9.051
 3039POPC   GL239590  20.614  21.891   9.024
 3039POPC   C1A39591  20.610  22.312   8.600
 3039POPC   D2A39592  20.714  22.154   8.190
 3039POPC   C3A39593  20.606  22.335   7.766
 3039POPC   C4A39594  20.562  22.734   7.515
 3039POPC   C1B39595  20.242  21.972   8.728
 3039POPC   C2B39596  20.146  21.833   8.327
 3039POPC   C3B39597  20.438  21.759   7.994
 3039POPC   C4B39598  20.834  21.877   7.778
 3040POPC   NC339599  29.526  30.176   9.560
 3040POPC   PO439600  30.030  29.753   9.399
 3040POPC   GL139601  29.608  29.785   9.203
 3040POPC   GL239602  29.733  30.063   9.103
 3040POPC   C1A39603  29.460  29.827   8.747
 3040POPC   D2A39604  29.362  29.712   8.300
 3040POPC   C3A39605  29.709  29.848   7.977
 3040POPC   C4A39606  30.178  29.759   7.878
 3040POPC   C1B39607  30.024  30.103   8.769
 3040POPC   C2B39608  30.198  30.069   8.352
 3040POPC   C3B39609  30.043  30.241   7.982
 3040POPC   C4B39610  29.881  30.450   7.626
 3041POPC   NC339611   5.481   2.091   9.711
 3041POPC   PO439612   4.899   2.278   9.464
 3041POPC   GL139613   5.018   2.030   9.173
 3041POPC   GL239614   5.373   1.977   9.199
 3041POPC   C1A39615   4.770   1.907   8.817
 3041POPC   D2A39616   4.929   1.848   8.391
 3041POPC   C3A39617   4.718   1.971   8.001
 3041POPC   C4A39618   4.809   2.074   7.544
 3041POPC   C1B39619   5.305   1.821   8.789
 3041POPC   C2B39620   5.545   1.732   8.425
 3041POPC   C3B39621   5.336   1.799   8.073
 3041POPC   C4B39622   5.245   1.973   7.726
 3042POPC   NC339623   4.536  13.302   9.408
 3042POPC   PO439624   4.277  13.929   9.311
 3042POPC   GL139625   4.266  13.613   9.053
 3042POPC   GL239626   4.562  13.412   8.930
 3042POPC   C1A39627   4.118  13.761   8.658
 3042POPC   D2A39628   4.136  13.681   8.249
 3042POPC   C3A39629   4.512  13.703   8.061
 3042POPC   C4A39630   4.273  13.665   7.684
 3042POPC   C1B39631   4.434  13.342   8.531
 3042POPC   C2B39632   4.430  13.099   8.173
 3042POPC   C3B39633   4.582  13.273   7.766
 3042POPC   C4B39634   4.541  13.413   7.276
 3043POPC   NC339635  19.572  29.022   9.286
 3043POPC   PO439636  20.163  29.044   9.438
 3043POPC   GL139637  19.964  29.211   9.053
 3043POPC   GL239638  19.583  29.300   8.890
 3043POPC   C1A39639  19.946  29.021   8.672
 3043POPC   D2A39640  20.143  29.164   8.333
 3043POPC   C3A39641  20.113  28.907   7.990
 3043POPC   C4A39642  19.949  29.006   7.591
 3043POPC   C1B39643  19.433  28.960   8.645
 3043POPC   C2B39644  19.655  28.965   8.253
 3043POPC   C3B39645  19.548  29.126   7.873
 3043POPC   C4B39646  19.461  28.830   7.556
 3044POPC   NC339647   3.427  36.667   9.486
 3044POPC   PO439648   3.718  37.184   9.473
 3044POPC   GL139649   3.722  36.881   9.126
 3044POPC   GL239650   3.365  36.902   9.012
 3044POPC   C1A39651   3.873  36.841   8.712
 3044POPC   D2A39652   3.638  36.840   8.330
 3044POPC   C3A39653   3.886  36.996   7.996
 3044POPC   C4A39654   3.869  36.971   7.558
 3044POPC   C1B39655   3.015  36.693   8.757
 3044POPC   C2B39656   3.027  36.452   8.354
 3044POPC   C3B39657   3.154  36.651   7.995
 3044POPC   C4B39658   3.406  36.928   7.750
 3045POPC   NC339659  31.616   3.982   9.478
 3045POPC   PO439660  31.383   4.632   9.482
 3045POPC   GL139661  31.281   4.324   9.164
 3045POPC   GL239662  31.141   4.612   9.019
 3045POPC   C1A39663  31.465   4.032   8.830
 3045POPC   D2A39664  31.709   4.017   8.437
 3045POPC   C3A39665  31.480   4.030   8.055
 3045POPC   C4A39666  31.505   4.249   7.710
 3045POPC   C1B39667  31.480   4.535   8.714
 3045POPC   C2B39668  31.573   4.520   8.278
 3045POPC   C3B39669  31.232   4.540   8.007
 3045POPC   C4B39670  30.965   4.759   7.745
 3046POPC   NC339671  24.716  29.536   9.474
 3046POPC   PO439672  24.257  29.020   9.352
 3046POPC   GL139673  24.571  29.002   9.048
 3046POPC   GL239674  24.653  29.314   9.019
 3046POPC   C1A39675  24.544  28.930   8.606
 3046POPC   D2A39676  24.288  28.836   8.250
 3046POPC   C3A39677  24.350  29.086   7.907
 3046POPC   C4A39678  24.773  29.168   7.828
 3046POPC   C1B39679  24.258  29.325   8.769
 3046POPC   C2B39680  24.363  29.348   8.359
 3046POPC   C3B39681  24.376  29.612   8.050
 3046POPC   C4B39682  24.157  29.619   7.707
 3047POPC   NC339683   3.357  11.184   9.480
 3047POPC   PO439684   4.027  11.109   9.516
 3047POPC   GL139685   3.757  11.131   9.154
 3047POPC   GL239686   3.518  11.417   9.034
 3047POPC   C1A39687   3.786  11.130   8.716
 3047POPC   D2A39688   3.582  11.431   8.442
 3047POPC   C3A39689   3.663  11.292   8.021
 3047POPC   C4A39690   3.756  11.309   7.598
 3047POPC   C1B39691   3.260  11.130   8.756
 3047POPC   C2B39692   3.314  10.992   8.311
 3047POPC   C3B39693   3.188  11.162   7.896
 3047POPC   C4B39694   3.169  11.078   7.428
 3048POPC   NC339695  34.992  30.015   9.688
 3048POPC   PO439696  34.456  29.809   9.510
 3048POPC   GL139697  34.567  29.996   9.138
 3048POPC   GL239698  34.941  30.014   9.174
 3048POPC   C1A39699  34.325  30.049   8.752
 3048POPC   D2A39700  34.414  29.842   8.354
 3048POPC   C3A39701  34.323  30.065   7.987
 3048POPC   C4A39702  34.444  29.851   7.623
 3048POPC   C1B39703  35.008  29.852   8.763
 3048POPC   C2B39704  34.919  30.017   8.326
 3048POPC   C3B39705  34.819  30.057   7.886
 3048POPC   C4B39706  34.869  30.007   7.374
 3049POPC   NC339707  38.886  39.254   9.600
 3049POPC   PO439708  39.397  38.895   9.613
 3049POPC   GL139709  39.260  39.144   9.207
 3049POPC   GL239710  39.044  39.445   9.114
 3049POPC   C1A39711  39.393  39.296   8.775
 3049POPC   D2A39712  39.218  39.221   8.342
 3049POPC   C3A39713  39.264  39.457   7.970
 3049POPC   C4A39714  39.530  39.276   7.681
 3049POPC   C1B39715  38.884  39.262   8.716
 3049POPC   C2B39716  38.738  39.068   8.306
 3049POPC   C3B39717  38.836  39.171   7.855
 3049POPC   C4B39718  39.094  39.298   7.447
 3050POPC   NC339719   1.625  16.907   9.562
 3050POPC   PO439720   0.950  16.850   9.572
 3050POPC   GL139721   1.173  16.561   9.266
 3050POPC   GL239722   0.971  16.308   9.109
 3050POPC   C1A39723   1.353  16.627   8.847
 3050POPC   D2A39724   1.245  16.958   8.516
 3050POPC   C3A39725   1.155  16.870   8.081
 3050POPC   C4A39726   1.291  16.791   7.674
 3050POPC   C1B39727   1.056  16.208   8.720
 3050POPC   C2B39728   1.222  16.412   8.389
 3050POPC   C3B39729   1.008  16.368   8.034
 3050POPC   C4B39730   0.852  16.554   7.699
 3051POPC   NC339731   1.437  30.054   9.360
 3051POPC   PO439732   0.779  30.124   9.424
 3051POPC   GL139733   0.921  29.814   9.099
 3051POPC   GL239734   1.268  29.660   9.084
 3051POPC   C1A39735   1.042  29.794   8.663
 3051POPC   D2A39736   1.170  30.179   8.471
 3051POPC   C3A39737   1.188  30.187   8.036
 3051POPC   C4A39738   1.369  30.444   7.720
 3051POPC   C1B39739   1.545  29.862   8.716
 3051POPC   C2B39740   1.561  29.884   8.268
 3051POPC   C3B39741   1.341  29.665   7.962
 3051POPC   C4B39742   0.906  29.717   7.868
 3052POPC   NC339743  14.409  19.349   9.644
 3052POPC   PO439744  14.632  19.909   9.487
 3052POPC   GL139745  14.464  19.752   9.135
 3052POPC   GL239746  14.107  19.729   9.209
 3052POPC   C1A39747  14.269  19.860   8.738
 3052POPC   D2A39748  14.081  19.956   8.344
 3052POPC   C3A39749  14.248  19.822   7.927
 3052POPC   C4A39750  14.234  19.872   7.455
 3052POPC   C1B39751  13.954  19.435   8.854
 3052POPC   C2B39752  13.845  19.482   8.411
 3052POPC   C3B39753  14.024  19.355   8.029
 3052POPC   C4B39754  14.221  19.376   7.607
 3053POPC   NC339755  21.772   3.055   9.773
 3053POPC   PO439756  22.192   2.583   9.562
 3053POPC   GL139757  22.096   2.682   9.160
 3053POPC   GL239758  22.153   2.351   9.112
 3053POPC   C1A39759  22.128   2.903   8.770
 3053POPC   D2A39760  21.819   2.983   8.444
 3053POPC   C3A39761  22.008   2.983   8.053
 3053POPC   C4A39762  22.208   2.843   7.718
 3053POPC   C1B39763  22.220   2.415   8.713
 3053POPC   C2B39764  22.145   2.561   8.348
 3053POPC   C3B39765  22.152   2.380   7.938
 3053POPC   C4B39766  22.181   2.409   7.456
 3054POPC   NC339767  20.505   7.761   9.494
 3054POPC   PO439768  21.082   7.375   9.377
 3054POPC   GL139769  20.923   7.552   9.063
 3054POPC   GL239770  20.563   7.475   9.048
 3054POPC   C1A39771  20.881   7.498   8.643
 3054POPC   D2A39772  20.710   7.613   8.279
 3054POPC   C3A39773  20.749   7.280   8.050
 3054POPC   C4A39774  20.761   7.113   7.674
 3054POPC   C1B39775  20.389   7.723   8.678
 3054POPC   C2B39776  20.223   7.742   8.257
 3054POPC   C3B39777  20.391   7.582   7.846
 3054POPC   C4B39778  20.316   7.568   7.389
 3055POPC   NC339779   9.545  11.906   9.321
 3055POPC   PO439780   9.711  12.566   9.440
 3055POPC   GL139781   9.918  12.295   9.141
 3055POPC   GL239782  10.054  11.952   9.209
 3055POPC   C1A39783   9.776  12.299   8.733
 3055POPC   D2A39784   9.562  12.360   8.379
 3055POPC   C3A39785   9.707  12.233   8.005
 3055POPC   C4A39786   9.801  12.388   7.624
 3055POPC   C1B39787   9.856  11.775   8.799
 3055POPC   C2B39788   9.668  11.834   8.412
 3055POPC   C3B39789   9.842  11.731   8.028
 3055POPC   C4B39790   9.755  11.877   7.605
 3056POPC   NC339791  31.401  21.858   9.532
 3056POPC   PO439792  31.812  22.372   9.619
 3056POPC   GL139793  31.552  22.289   9.255
 3056POPC   GL239794  31.653  21.987   9.099
 3056POPC   C1A39795  31.554  22.414   8.808
 3056POPC   D2A39796  31.506  22.512   8.356
 3056POPC   C3A39797  31.544  22.097   8.147
 3056POPC   C4A39798  31.512  21.985   7.719
 3056POPC   C1B39799  31.308  21.920   8.781
 3056POPC   C2B39800  31.089  21.900   8.372
 3056POPC   C3B39801  31.056  22.057   7.937
 3056POPC   C4B39802  31.017  21.996   7.465
 3057POPC   NC339803   7.202  12.421   9.464
 3057POPC   PO439804   7.283  11.784   9.493
 3057POPC   GL139805   7.351  12.040   9.109
 3057POPC   GL239806   7.559  12.317   9.099
 3057POPC   C1A39807   7.349  12.138   8.677
 3057POPC   D2A39808   7.272  11.961   8.295
 3057POPC   C3A39809   7.365  12.226   7.955
 3057POPC   C4A39810   7.220  12.155   7.535
 3057POPC   C1B39811   7.832  12.241   8.773
 3057POPC   C2B39812   7.721  12.181   8.341
 3057POPC   C3B39813   7.857  12.052   7.966
 3057POPC   C4B39814   7.738  12.238   7.569
 3058POPC   NC339815  18.607   2.424   9.405
 3058POPC   PO439816  18.049   2.731   9.252
 3058POPC   GL139817  18.449   2.790   9.069
 3058POPC   GL239818  18.526   2.460   8.907
 3058POPC   C1A39819  18.516   2.899   8.659
 3058POPC   D2A39820  18.271   3.015   8.331
 3058POPC   C3A39821  18.447   2.889   7.968
 3058POPC   C4A39822  18.326   2.741   7.603
 3058POPC   C1B39823  18.133   2.553   8.659
 3058POPC   C2B39824  17.911   2.642   8.303
 3058POPC   C3B39825  18.028   2.485   7.925
 3058POPC   C4B39826  17.869   2.538   7.532
 3059POPC   NC339827   4.745  40.288   9.256
 3059POPC   PO439828   4.968  39.702   9.589
 3059POPC   GL139829   5.046  39.855   9.162
 3059POPC   GL239830   5.257  40.141   9.099
 3059POPC   C1A39831   4.989  39.750   8.732
 3059POPC   D2A39832   5.069  39.701   8.296
 3059POPC   C3A39833   4.975  40.081   8.051
 3059POPC   C4A39834   5.178  40.159   7.672
 3059POPC   C1B39835   5.109  40.281   8.696
 3059POPC   C2B39836   4.785  40.415   8.416
 3059POPC   C3B39837   4.596  40.474   8.003
 3059POPC   C4B39838   4.645  40.218   7.644
 3060POPC   NC339839  44.491  19.446   9.528
 3060POPC   PO439840  44.809  18.854   9.450
 3060POPC   GL139841  44.639  18.924   9.052
 3060POPC   GL239842  44.681  19.279   9.045
 3060POPC   C1A39843  44.453  18.965   8.627
 3060POPC   D2A39844  44.389  18.974   8.173
 3060POPC   C3A39845  44.727  18.934   7.929
 3060POPC   C4A39846  44.663  19.237   7.662
 3060POPC   C1B39847  44.759  19.395   8.612
 3060POPC   C2B39848  44.786  19.372   8.164
 3060POPC   C3B39849   0.008  19.567   7.803
 3060POPC   C4B39850  44.855  19.602   7.352
 3061POPC   NC339851  36.995   8.872   9.584
 3061POPC   PO439852  36.603   9.345   9.291
 3061POPC   GL139853  36.978   9.118   9.138
 3061POPC   GL239854  37.218   8.822   9.122
 3061POPC   C1A39855  37.074   9.191   8.763
 3061POPC   D2A39856  36.880   9.066   8.370
 3061POPC   C3A39857  36.943   9.279   7.974
 3061POPC   C4A39858  36.737   9.438   7.590
 3061POPC   C1B39859  36.914   8.694   8.813
 3061POPC   C2B39860  36.910   8.571   8.320
 3061POPC   C3B39861  36.876   8.765   7.897
 3061POPC   C4B39862  37.217   8.721   7.616
 3062POPC   NC339863  11.388  37.415   9.328
 3062POPC   PO439864  10.984  37.871   9.464
 3062POPC   GL139865  11.060  37.722   9.050
 3062POPC   GL239866  10.916  37.405   9.097
 3062POPC   C1A39867  11.393  37.761   8.726
 3062POPC   D2A39868  11.638  37.864   8.344
 3062POPC   C3A39869  11.418  37.885   7.958
 3062POPC   C4A39870  11.053  37.825   7.649
 3062POPC   C1B39871  11.138  37.247   8.758
 3062POPC   C2B39872  11.350  37.388   8.380
 3062POPC   C3B39873  11.132  37.466   8.003
 3062POPC   C4B39874  11.390  37.438   7.615
 3063POPC   NC339875  24.933   1.721   9.682
 3063POPC   PO439876  24.365   1.849   9.582
 3063POPC   GL139877  24.411   1.904   9.171
 3063POPC   GL239878  24.773   1.985   9.186
 3063POPC   C1A39879  24.321   1.812   8.739
 3063POPC   D2A39880  24.192   2.032   8.386
 3063POPC   C3A39881  24.371   2.193   8.040
 3063POPC   C4A39882  24.629   1.919   7.834
 3063POPC   C1B39883  24.588   2.255   8.863
 3063POPC   C2B39884  24.693   2.204   8.467
 3063POPC   C3B39885  24.879   2.247   8.112
 3063POPC   C4B39886  24.776   2.432   7.739
 3064POPC   NC339887   8.662  12.182   9.578
 3064POPC   PO439888   9.095  11.787   9.330
 3064POPC   GL139889   9.076  12.201   9.205
 3064POPC   GL239890   9.392  12.360   9.081
 3064POPC   C1A39891   8.797  12.193   8.880
 3064POPC   D2A39892   8.672  12.135   8.466
 3064POPC   C3A39893   8.873  12.105   8.077
 3064POPC   C4A39894   8.730  12.109   7.688
 3064POPC   C1B39895   9.274  12.098   8.718
 3064POPC   C2B39896   9.153  11.814   8.389
 3064POPC   C3B39897   9.334  11.856   7.979
 3064POPC   C4B39898   9.248  12.167   7.670
 3065POPC   NC339899  15.691  28.677   9.419
 3065POPC   PO439900  15.819  27.991   9.561
 3065POPC   GL139901  15.847  28.243   9.186
 3065POPC   GL239902  16.152  28.392   9.038
 3065POPC   C1A39903  15.655  28.325   8.810
 3065POPC   D2A39904  15.566  28.096   8.431
 3065POPC   C3A39905  15.844  28.250   8.126
 3065POPC   C4A39906  15.887  28.489   7.760
 3065POPC   C1B39907  16.174  28.295   8.601
 3065POPC   C2B39908  16.313  28.491   8.207
 3065POPC   C3B39909  16.383  28.375   7.779
 3065POPC   C4B39910  16.263  28.289   7.357
 3066POPC   NC339911  34.199  20.708   9.455
 3066POPC   PO439912  34.819  20.519   9.547
 3066POPC   GL139913  34.627  20.531   9.156
 3066POPC   GL239914  34.635  20.880   9.154
 3066POPC   C1A39915  34.391  20.633   8.764
 3066POPC   D2A39916  34.186  20.784   8.384
 3066POPC   C3A39917  34.365  20.615   8.020
 3066POPC   C4A39918  34.427  20.700   7.573
 3066POPC   C1B39919  34.869  20.816   8.755
 3066POPC   C2B39920  34.729  20.845   8.324
 3066POPC   C3B39921  34.809  20.836   7.877
 3066POPC   C4B39922  34.850  20.930   7.386
 3067POPC   NC339923  14.601  33.584   9.485
 3067POPC   PO439924  14.035  33.950   9.548
 3067POPC   GL139925  14.236  33.797   9.182
 3067POPC   GL239926  13.940  33.644   9.063
 3067POPC   C1A39927  14.531  33.729   8.814
 3067POPC   D2A39928  14.441  33.462   8.454
 3067POPC   C3A39929  14.530  33.562   8.011
 3067POPC   C4A39930  14.591  33.982   7.831
 3067POPC   C1B39931  14.050  33.880   8.700
 3067POPC   C2B39932  14.234  33.932   8.297
 3067POPC   C3B39933  14.095  33.820   7.913
 3067POPC   C4B39934  14.198  33.903   7.486
 3068POPC   NC339935   2.272   8.923   9.623
 3068POPC   PO439936   2.860   9.083   9.502
 3068POPC   GL139937   2.730   8.866   9.157
 3068POPC   GL239938   3.016   8.919   8.985
 3068POPC   C1A39939   2.591   9.028   8.742
 3068POPC   D2A39940   2.439   9.248   8.384
 3068POPC   C3A39941   2.364   8.970   8.095
 3068POPC   C4A39942   2.567   8.813   7.764
 3068POPC   C1B39943   3.053   8.874   8.557
 3068POPC   C2B39944   2.881   8.871   8.183
 3068POPC   C3B39945   3.077   8.912   7.830
 3068POPC   C4B39946   3.266   9.286   7.732
 3069POPC   NC339947  12.389   2.576   9.344
 3069POPC   PO439948  12.931   2.971   9.604
 3069POPC   GL139949  12.860   2.798   9.194
 3069POPC   GL239950  12.554   3.024   9.193
 3069POPC   C1A39951  12.968   2.568   8.756
 3069POPC   D2A39952  13.109   2.602   8.275
 3069POPC   C3A39953  12.956   2.576   7.838
 3069POPC   C4A39954  12.603   2.520   7.554
 3069POPC   C1B39955  12.672   2.994   8.777
 3069POPC   C2B39956  12.645   3.173   8.404
 3069POPC   C3B39957  12.853   3.027   8.047
 3069POPC   C4B39958  13.029   3.042   7.619
 3070POPC   NC339959  23.932  12.626   9.492
 3070POPC   PO439960  23.264  12.931   9.403
 3070POPC   GL139961  23.543  12.956   9.040
 3070POPC   GL239962  23.905  13.002   9.113
 3070POPC   C1A39963  23.699  13.009   8.614
 3070POPC   D2A39964  23.889  13.345   8.420
 3070POPC   C3A39965  23.894  13.253   8.006
 3070POPC   C4A39966  23.552  12.954   7.927
 3070POPC   C1B39967  23.916  12.609   8.845
 3070POPC   C2B39968  23.678  12.513   8.456
 3070POPC   C3B39969  23.712  12.474   8.009
 3070POPC   C4B39970  24.005  12.659   7.760
 3071POPC   NC339971  41.474   6.283   9.474
 3071POPC   PO439972  41.648   6.850   9.429
 3071POPC   GL139973  41.456   6.621   9.091
 3071POPC   GL239974  41.674   6.856   8.915
 3071POPC   C1A39975  41.422   6.532   8.638
 3071POPC   D2A39976  41.835   6.600   8.478
 3071POPC   C3A39977  41.827   6.599   8.058
 3071POPC   C4A39978  41.530   6.506   7.713
 3071POPC   C1B39979  41.273   6.997   8.815
 3071POPC   C2B39980  41.257   7.014   8.417
 3071POPC   C3B39981  41.378   6.822   8.104
 3071POPC   C4B39982  41.523   7.005   7.769
 3072POPC   NC339983  28.867  27.386   9.392
 3072POPC   PO439984  29.571  27.618   9.499
 3072POPC   GL139985  29.294  27.557   9.165
 3072POPC   GL239986  29.363  27.202   9.086
 3072POPC   C1A39987  29.167  27.720   8.757
 3072POPC   D2A39988  29.311  27.827   8.340
 3072POPC   C3A39989  29.139  27.630   7.999
 3072POPC   C4A39990  28.953  27.314   7.766
 3072POPC   C1B39991  29.588  27.323   8.720
 3072POPC   C2B39992  29.697  27.441   8.316
 3072POPC   C3B39993  29.559  27.292   7.912
 3072POPC   C4B39994  29.384  27.489   7.548
 3073POPC   NC339995  35.501  22.579   9.279
 3073POPC   PO439996  35.328  22.175   9.810
 3073POPC   GL139997  35.310  22.057   9.313
 3073POPC   GL239998  35.094  22.282   9.115
 3073POPC   C1A39999  35.502  22.111   8.834
 3073POPC   D2A40000  35.632  22.438   8.517
 3073POPC   C3A40001  35.539  22.267   8.108
 3073POPC   C4A40002  35.641  21.825   7.996
 3073POPC   C1B40003  35.012  22.240   8.674
 3073POPC   C2B40004  34.732  22.318   8.307
 3073POPC   C3B40005  34.860  22.344   7.910
 3073POPC   C4B40006  35.207  22.209   7.696
 3074POPC   NC340007  24.526  40.322   9.721
 3074POPC   PO440008  24.742  40.888   9.458
 3074POPC   GL140009  24.702  40.691   9.065
 3074POPC   GL240010  24.801  40.359   9.046
 3074POPC   C1A40011  24.628  40.819   8.648
 3074POPC   D2A40012  24.348  40.801   8.296
 3074POPC   C3A40013  24.404  41.039   7.929
 3074POPC   C4A40014  24.200  41.219   7.566
 3074POPC   C1B40015  24.717  40.289   8.593
 3074POPC   C2B40016  24.527  40.331   8.159
 3074POPC   C3B40017  24.534  40.490   7.723
 3074POPC   C4B40018  24.709  40.350   7.299
 3075POPC   NC340019   7.928   9.889   9.520
 3075POPC   PO440020   8.437   9.507   9.430
 3075POPC   GL140021   8.204   9.743   9.099
 3075POPC   GL240022   8.041  10.100   9.082
 3075POPC   C1A40023   8.013   9.789   8.704
 3075POPC   D2A40024   7.821   9.769   8.335
 3075POPC   C3A40025   8.160   9.805   8.032
 3075POPC   C4A40026   8.209   9.631   7.644
 3075POPC   C1B40027   8.375  10.153   8.794
 3075POPC   C2B40028   8.523   9.943   8.429
 3075POPC   C3B40029   8.540  10.171   8.028
 3075POPC   C4B40030   8.422  10.162   7.570
 3076POPC   NC340031  31.803  13.293   9.413
 3076POPC   PO440032  31.609  13.955   9.331
 3076POPC   GL140033  31.458  13.566   9.098
 3076POPC   GL240034  31.736  13.446   8.930
 3076POPC   C1A40035  31.311  13.394   8.665
 3076POPC   D2A40036  31.512  13.521   8.258
 3076POPC   C3A40037  31.337  13.590   7.882
 3076POPC   C4A40038  31.506  13.682   7.449
 3076POPC   C1B40039  31.616  13.832   8.654
 3076POPC   C2B40040  31.651  14.030   8.215
 3076POPC   C3B40041  31.560  14.079   7.766
 3076POPC   C4B40042  31.719  14.126   7.316
 3077POPC   NC340043  27.952   2.088   9.487
 3077POPC   PO440044  27.343   1.793   9.589
 3077POPC   GL140045  27.531   1.987   9.205
 3077POPC   GL240046  27.713   2.311   9.100
 3077POPC   C1A40047  27.778   1.857   8.857
 3077POPC   D2A40048  27.716   1.944   8.437
 3077POPC   C3A40049  27.402   1.726   8.173
 3077POPC   C4A40050  27.617   1.639   7.814
 3077POPC   C1B40051  27.388   2.262   8.770
 3077POPC   C2B40052  27.286   2.202   8.327
 3077POPC   C3B40053  27.584   2.157   7.942
 3077POPC   C4B40054  27.444   2.226   7.489
 3078POPC   NC340055  39.908   1.173   9.725
 3078POPC   PO440056  40.229   1.641   9.443
 3078POPC   GL140057  40.144   1.412   9.046
 3078POPC   GL240058  40.016   1.062   9.067
 3078POPC   C1A40059  39.949   1.330   8.644
 3078POPC   D2A40060  39.845   1.049   8.316
 3078POPC   C3A40061  39.859   1.233   7.936
 3078POPC   C4A40062  40.224   1.402   7.810
 3078POPC   C1B40063  40.236   0.927   8.631
 3078POPC   C2B40064  40.345   1.009   8.160
 3078POPC   C3B40065  40.249   0.915   7.707
 3078POPC   C4B40066  40.357   0.839   7.266
 3079POPC   NC340067  13.121  13.369   9.517
 3079POPC   PO440068  12.437  13.414   9.507
 3079POPC   GL140069  12.759  13.553   9.200
 3079POPC   GL240070  12.858  13.232   9.091
 3079POPC   C1A40071  13.003  13.771   8.867
 3079POPC   D2A40072  12.938  13.906   8.424
 3079POPC   C3A40073  12.927  13.723   8.008
 3079POPC   C4A40074  12.919  13.936   7.605
 3079POPC   C1B40075  12.746  13.360   8.687
 3079POPC   C2B40076  12.920  13.267   8.284
 3079POPC   C3B40077  12.738  13.257   7.889
 3079POPC   C4B40078  12.306  13.346   7.795
 3080POPC   NC340079  18.102  26.183   9.600
 3080POPC   PO440080  17.938  26.766   9.372
 3080POPC   GL140081  17.941  26.373   9.146
 3080POPC   GL240082  18.264  26.175   9.097
 3080POPC   C1A40083  17.858  26.091   8.809
 3080POPC   D2A40084  17.821  25.876   8.422
 3080POPC   C3A40085  17.994  26.041   8.048
 3080POPC   C4A40086  18.317  26.111   7.718
 3080POPC   C1B40087  18.311  25.869   8.740
 3080POPC   C2B40088  18.330  25.760   8.308
 3080POPC   C3B40089  18.201  25.600   7.908
 3080POPC   C4B40090  18.466  25.504   7.552
 3081POPC   NC340091  28.108  33.435   9.903
 3081POPC   PO440092  28.439  33.047   9.436
 3081POPC   GL140093  28.486  33.008   9.027
 3081POPC   GL240094  28.812  33.101   9.100
 3081POPC   C1A40095  28.222  32.874   8.694
 3081POPC   D2A40096  28.276  32.776   8.271
 3081POPC   C3A40097  28.171  33.003   7.953
 3081POPC   C4A40098  28.155  32.823   7.601
 3081POPC   C1B40099  28.834  33.225   8.698
 3081POPC   C2B40100  28.614  33.130   8.382
 3081POPC   C3B40101  28.587  33.285   8.014
 3081POPC   C4B40102  28.614  33.172   7.589
 3082POPC   NC340103   5.238  16.136   9.375
 3082POPC   PO440104   4.746  15.618   9.412
 3082POPC   GL140105   4.990  15.770   9.117
 3082POPC   GL240106   5.177  15.501   9.119
 3082POPC   C1A40107   4.883  15.915   8.717
 3082POPC   D2A40108   4.946  15.636   8.399
 3082POPC   C3A40109   4.925  15.822   8.015
 3082POPC   C4A40110   4.682  16.011   7.736
 3082POPC   C1B40111   5.354  15.711   8.746
 3082POPC   C2B40112   5.352  15.982   8.363
 3082POPC   C3B40113   5.420  15.905   7.926
 3082POPC   C4B40114   5.418  15.739   7.519
 3083POPC   NC340115   5.976  17.011   9.509
 3083POPC   PO440116   5.528  16.453   9.594
 3083POPC   GL140117   5.779  16.581   9.261
 3083POPC   GL240118   5.568  16.397   9.076
 3083POPC   C1A40119   5.832  16.775   8.843
 3083POPC   D2A40120   6.029  16.612   8.469
 3083POPC   C3A40121   5.917  16.795   8.094
 3083POPC   C4A40122   5.895  16.858   7.672
 3083POPC   C1B40123   5.627  16.326   8.667
 3083POPC   C2B40124   5.502  16.632   8.379
 3083POPC   C3B40125   5.545  16.413   8.016
 3083POPC   C4B40126   5.594  16.464   7.614
 3084POPC   NC340127  24.089   9.294   9.326
 3084POPC   PO440128  24.550   8.901   9.522
 3084POPC   GL140129  24.550   8.793   9.128
 3084POPC   GL240130  24.248   8.647   9.114
 3084POPC   C1A40131  24.547   9.054   8.765
 3084POPC   D2A40132  24.323   9.036   8.358
 3084POPC   C3A40133  24.521   9.107   7.995
 3084POPC   C4A40134  24.723   9.031   7.608
 3084POPC   C1B40135  24.156   8.739   8.731
 3084POPC   C2B40136  24.126   8.562   8.343
 3084POPC   C3B40137  24.251   8.682   7.967
 3084POPC   C4B40138  24.439   8.604   7.585
 3085POPC   NC340139  29.715  38.484   9.608
 3085POPC   PO440140  30.296  38.720   9.476
 3085POPC   GL140141  30.021  38.715   9.169
 3085POPC   GL240142  30.016  38.351   9.189
 3085POPC   C1A40143  29.801  38.609   8.796
 3085POPC   D2A40144  29.954  38.618   8.402
 3085POPC   C3A40145  29.766  38.415   8.046
 3085POPC   C4A40146  29.922  38.480   7.638
 3085POPC   C1B40147  30.176  38.245   8.760
 3085POPC   C2B40148  30.206  38.177   8.311
 3085POPC   C3B40149  30.110  38.062   7.882
 3085POPC   C4B40150  30.163  38.081   7.402
 3086POPC   NC340151   2.986  32.959   9.333
 3086POPC   PO440152   2.430  33.239   9.512
 3086POPC   GL140153   2.519  32.955   9.133
 3086POPC   GL240154   2.633  32.606   9.179
 3086POPC   C1A40155   2.450  32.864   8.689
 3086POPC   D2A40156   2.527  33.012   8.264
 3086POPC   C3A40157   2.911  33.224   8.172
 3086POPC   C4A40158   2.882  33.425   7.808
 3086POPC   C1B40159   2.874  32.533   8.778
 3086POPC   C2B40160   2.962  32.766   8.405
 3086POPC   C3B40161   2.846  32.744   7.952
 3086POPC   C4B40162   2.489  32.464   7.853
 3087POPC   NC340163  14.990  43.362   9.504
 3087POPC   PO440164  15.262  42.688   9.606
 3087POPC   GL140165  15.034  42.917   9.231
 3087POPC   GL240166  15.189  43.218   9.081
 3087POPC   C1A40167  14.973  42.909   8.754
 3087POPC   D2A40168  14.860  42.853   8.320
 3087POPC   C3A40169  15.070  43.029   8.002
 3087POPC   C4A40170  15.321  43.048   7.669
 3087POPC   C1B40171  15.329  43.382   8.745
 3087POPC   C2B40172  15.371  43.155   8.395
 3087POPC   C3B40173  15.459  43.373   8.036
 3087POPC   C4B40174  15.488  43.587   7.692
 3088POPC   NC340175  22.998  36.459   9.454
 3088POPC   PO440176  22.924  37.077   9.665
 3088POPC   GL140177  22.902  37.067   9.173
 3088POPC   GL240178  22.817  36.752   9.068
 3088POPC   C1A40179  22.917  37.081   8.680
 3088POPC   D2A40180  22.850  36.880   8.268
 3088POPC   C3A40181  22.935  37.053   7.828
 3088POPC   C4A40182  22.687  37.309   7.526
 3088POPC   C1B40183  22.915  36.551   8.696
 3088POPC   C2B40184  23.017  36.341   8.318
 3088POPC   C3B40185  22.989  36.520   7.943
 3088POPC   C4B40186  22.683  36.641   7.704
 3089POPC   NC340187  44.942   9.896   9.316
 3089POPC   PO440188  44.420   9.537   9.526
 3089POPC   GL140189  44.587   9.524   9.159
 3089POPC   GL240190  44.568   9.826   8.975
 3089POPC   C1A40191  44.488   9.356   8.779
 3089POPC   D2A40192  44.645   9.556   8.456
 3089POPC   C3A40193  44.501   9.411   8.097
 3089POPC   C4A40194  44.538   9.707   7.799
 3089POPC   C1B40195  44.741  10.048   8.620
 3089POPC   C2B40196  44.709  10.034   8.159
 3089POPC   C3B40197  44.727  10.153   7.712
 3089POPC   C4B40198  44.998   9.814   7.512
 3090POPC   NC340199  42.930   7.253   9.493
 3090POPC   PO440200  42.656   7.769   9.130
 3090POPC   GL140201  42.982   7.456   9.028
 3090POPC   GL240202  43.298   7.564   9.151
 3090POPC   C1A40203  43.078   7.170   8.707
 3090POPC   D2A40204  42.898   7.173   8.307
 3090POPC   C3A40205  43.171   7.174   7.957
 3090POPC   C4A40206  42.822   7.030   7.758
 3090POPC   C1B40207  43.464   7.493   8.714
 3090POPC   C2B40208  43.262   7.552   8.314
 3090POPC   C3B40209  43.178   7.698   7.891
 3090POPC   C4B40210  43.521   7.696   7.637
 3091POPC   NC340211  19.801   8.852   9.574
 3091POPC   PO440212  19.352   9.293   9.199
 3091POPC   GL140213  19.672   8.990   9.083
 3091POPC   GL240214  19.652   8.644   9.134
 3091POPC   C1A40215  19.903   9.081   8.732
 3091POPC   D2A40216  19.667   9.165   8.351
 3091POPC   C3A40217  19.940   9.195   8.020
 3091POPC   C4A40218  19.878   9.437   7.677
 3091POPC   C1B40219  19.917   8.558   8.771
 3091POPC   C2B40220  19.926   8.717   8.345
 3091POPC   C3B40221  19.914   8.689   7.899
 3091POPC   C4B40222  19.629   8.965   7.683
 3092POPC   NC340223  39.347  21.826   9.498
 3092POPC   PO440224  38.849  22.192   9.759
 3092POPC   GL140225  38.987  22.123   9.283
 3092POPC   GL240226  39.066  22.418   9.076
 3092POPC   C1A40227  39.208  21.968   8.853
 3092POPC   D2A40228  39.164  21.906   8.386
 3092POPC   C3A40229  39.202  22.157   7.990
 3092POPC   C4A40230  39.340  21.886   7.640
 3092POPC   C1B40231  39.445  22.423   8.790
 3092POPC   C2B40232  39.610  22.375   8.357
 3092POPC   C3B40233  39.460  22.629   8.032
 3092POPC   C4B40234  39.389  22.758   7.631
 3093POPC   NC340235   7.550  43.832   9.436
 3093POPC   PO440236   6.994  44.190   9.410
 3093POPC   GL140237   7.207  44.129   9.088
 3093POPC   GL240238   7.523  44.303   9.187
 3093POPC   C1A40239   7.255  43.792   8.784
 3093POPC   D2A40240   7.562  43.723   8.470
 3093POPC   C3A40241   7.383  43.782   8.048
 3093POPC   C4A40242   7.559  43.662   7.665
 3093POPC   C1B40243   7.562  44.214   8.754
 3093POPC   C2B40244   7.323  44.169   8.393
 3093POPC   C3B40245   7.534  44.255   8.010
 3093POPC   C4B40246   7.330  44.135   7.616
 3094POPC   NC340247  39.010  32.186   9.517
 3094POPC   PO440248  38.379  32.234   9.659
 3094POPC   GL140249  38.269  32.170   9.221
 3094POPC   GL240250  38.585  32.002   9.166
 3094POPC   C1A40251  38.416  32.257   8.773
 3094POPC   D2A40252  38.631  32.242   8.347
 3094POPC   C3A40253  38.427  32.365   7.946
 3094POPC   C4A40254  38.326  32.164   7.529
 3094POPC   C1B40255  38.636  31.785   8.752
 3094POPC   C2B40256  38.869  31.763   8.356
 3094POPC   C3B40257  39.034  32.052   8.065
 3094POPC   C4B40258  38.800  32.099   7.693
 3095POPC   NC340259   7.830  29.859   9.533
 3095POPC   PO440260   8.483  30.098   9.377
 3095POPC   GL140261   8.154  30.001   9.148
 3095POPC   GL240262   8.212  29.711   9.011
 3095POPC   C1A40263   7.995  30.083   8.730
 3095POPC   D2A40264   7.851  29.939   8.322
 3095POPC   C3A40265   7.980  30.112   7.901
 3095POPC   C4A40266   8.095  29.863   7.512
 3095POPC   C1B40267   8.479  29.845   8.702
 3095POPC   C2B40268   8.547  29.993   8.293
 3095POPC   C3B40269   8.397  29.793   7.940
 3095POPC   C4B40270   8.560  29.557   7.615
 3096POPC   NC340271  38.265   0.762   9.480
 3096POPC   PO440272  38.832   0.310   9.535
 3096POPC   GL140273  38.563   0.391   9.205
 3096POPC   GL240274  38.218   0.373   9.138
 3096POPC   C1A40275  38.686   0.376   8.787
 3096POPC   D2A40276  38.619   0.637   8.443
 3096POPC   C3A40277  38.586   0.490   8.057
 3096POPC   C4A40278  38.510   0.732   7.701
 3096POPC   C1B40279  38.218   0.613   8.775
 3096POPC   C2B40280  38.096   0.511   8.356
 3096POPC   C3B40281  38.115   0.479   7.909
 3096POPC   C4B40282  38.257   0.383   7.471
 3097POPC   NC340283  11.999   4.365   9.500
 3097POPC   PO440284  12.310   3.754   9.552
 3097POPC   GL140285  12.258   4.006   9.202
 3097POPC   GL240286  11.908   4.000   9.151
 3097POPC   C1A40287  12.242   4.295   8.833
 3097POPC   D2A40288  12.280   4.601   8.488
 3097POPC   C3A40289  12.328   4.372   8.122
 3097POPC   C4A40290  12.150   4.469   7.744
 3097POPC   C1B40291  11.979   3.793   8.807
 3097POPC   C2B40292  12.082   3.989   8.434
 3097POPC   C3B40293  11.921   4.028   8.031
 3097POPC   C4B40294  12.157   3.972   7.671
 3098POPC   NC340295  40.798   5.992   9.632
 3098POPC   PO440296  40.600   5.397   9.495
 3098POPC   GL140297  40.650   5.599   9.077
 3098POPC   GL240298  40.912   5.853   9.145
 3098POPC   C1A40299  40.668   5.916   8.688
 3098POPC   D2A40300  40.698   6.120   8.237
 3098POPC   C3A40301  40.656   5.794   7.911
 3098POPC   C4A40302  40.617   5.561   7.507
 3098POPC   C1B40303  41.107   5.668   8.805
 3098POPC   C2B40304  40.996   5.636   8.361
 3098POPC   C3B40305  41.152   5.842   7.986
 3098POPC   C4B40306  41.066   5.807   7.553
 3099POPC   NC340307  44.938  33.712   9.603
 3099POPC   PO440308   0.579  33.655   9.508
 3099POPC   GL140309   0.476  33.649   9.083
 3099POPC   GL240310   0.563  33.346   8.976
 3099POPC   C1A40311   0.666  33.770   8.674
 3099POPC   D2A40312   0.344  33.948   8.403
 3099POPC   C3A40313   0.361  33.922   7.989
 3099POPC   C4A40314   0.254  33.878   7.595
 3099POPC   C1B40315   0.285  33.436   8.598
 3099POPC   C2B40316   0.397  33.412   8.147
 3099POPC   C3B40317   0.358  33.374   7.691
 3099POPC   C4B40318   0.330  33.493   7.247
 3100POPC   NC340319  17.961   8.671   9.482
 3100POPC   PO440320  18.444   9.129   9.583
 3100POPC   GL140321  18.199   9.045   9.194
 3100POPC   GL240322  18.004   9.328   9.024
 3100POPC   C1A40323  18.215   8.821   8.787
 3100POPC   D2A40324  18.072   8.789   8.349
 3100POPC   C3A40325  18.179   9.108   8.047
 3100POPC   C4A40326  18.085   9.024   7.617
 3100POPC   C1B40327  18.416   9.322   8.829
 3100POPC   C2B40328  18.547   9.314   8.397
 3100POPC   C3B40329  18.631   9.356   7.962
 3100POPC   C4B40330  18.499   9.275   7.545
 3101POPC   NC340331  39.521  25.676   9.428
 3101POPC   PO440332  39.469  26.432   9.503
 3101POPC   GL140333  39.084  26.339   9.290
 3101POPC   GL240334  38.942  25.998   9.262
 3101POPC   C1A40335  39.143  26.335   8.853
 3101POPC   D2A40336  39.313  26.108   8.486
 3101POPC   C3A40337  39.249  26.339   8.093
 3101POPC   C4A40338  39.183  26.299   7.667
 3101POPC   C1B40339  39.157  25.809   8.889
 3101POPC   C2B40340  38.978  25.710   8.504
 3101POPC   C3B40341  38.971  25.868   8.100
 3101POPC   C4B40342  39.269  25.807   7.777
 3102POPC   NC340343  28.919  25.745   9.294
 3102POPC   PO440344  29.432  25.933   9.679
 3102POPC   GL140345  29.289  26.116   9.223
 3102POPC   GL240346  29.306  25.842   8.963
 3102POPC   C1A40347  29.192  26.321   8.801
 3102POPC   D2A40348  29.219  26.146   8.382
 3102POPC   C3A40349  29.102  26.227   7.957
 3102POPC   C4A40350  29.048  25.811   7.769
 3102POPC   C1B40351  28.908  25.899   8.694
 3102POPC   C2B40352  28.690  26.076   8.376
 3102POPC   C3B40353  28.637  25.762   8.124
 3102POPC   C4B40354  28.609  25.542   7.761
 3103POPC   NC340355   1.756  31.817   9.570
 3103POPC   PO440356   2.134  31.275   9.439
 3103POPC   GL140357   1.842  31.504   9.164
 3103POPC   GL240358   2.139  31.646   9.059
 3103POPC   C1A40359   1.805  31.679   8.695
 3103POPC   D2A40360   2.028  31.466   8.353
 3103POPC   C3A40361   1.833  31.359   7.959
 3103POPC   C4A40362   2.040  31.569   7.613
 3103POPC   C1B40363   2.042  31.229   8.800
 3103POPC   C2B40364   2.243  30.989   8.472
 3103POPC   C3B40365   2.289  31.097   8.059
 3103POPC   C4B40366   2.167  30.966   7.654
 3104POPC   NC340367  31.818   8.366   9.356
 3104POPC   PO440368  31.258   8.007   9.547
 3104POPC   GL140369  31.381   8.181   9.164
 3104POPC   GL240370  31.569   7.867   9.154
 3104POPC   C1A40371  31.376   8.454   8.771
 3104POPC   D2A40372  31.412   8.599   8.315
 3104POPC   C3A40373  31.726   8.355   8.064
 3104POPC   C4A40374  31.647   8.191   7.644
 3104POPC   C1B40375  31.700   7.993   8.759
 3104POPC   C2B40376  31.576   7.845   8.354
 3104POPC   C3B40377  31.744   7.800   7.934
 3104POPC   C4B40378  31.795   7.745   7.459
 3105POPC   NC340379  25.337  32.030   9.430
 3105POPC   PO440380  25.304  32.699   9.392
 3105POPC   GL140381  25.239  32.365   9.074
 3105POPC   GL240382  24.910  32.161   9.134
 3105POPC   C1A40383  25.481  32.201   8.705
 3105POPC   D2A40384  25.603  32.323   8.254
 3105POPC   C3A40385  25.458  32.150   7.813
 3105POPC   C4A40386  25.594  32.379   7.407
 3105POPC   C1B40387  24.926  32.277   8.689
 3105POPC   C2B40388  25.104  32.143   8.292
 3105POPC   C3B40389  24.909  32.269   7.909
 3105POPC   C4B40390  24.710  32.188   7.495
 3106POPC   NC340391  20.938  16.081   9.322
 3106POPC   PO440392  20.313  15.970   9.472
 3106POPC   GL140393  20.511  15.862   9.127
 3106POPC   GL240394  20.393  16.190   8.979
 3106POPC   C1A40395  20.715  15.709   8.782
 3106POPC   D2A40396  20.465  15.877   8.469
 3106POPC   C3A40397  20.587  15.842   8.075
 3106POPC   C4A40398  20.403  15.762   7.727
 3106POPC   C1B40399  20.764  16.219   8.712
 3106POPC   C2B40400  20.961  16.283   8.324
 3106POPC   C3B40401  20.833  16.255   7.903
 3106POPC   C4B40402  20.879  15.884   7.634
 3107POPC   NC340403  15.341  27.929   9.498
 3107POPC   PO440404  15.187  28.621   9.470
 3107POPC   GL140405  15.253  28.415   9.112
 3107POPC   GL240406  14.930  28.247   9.091
 3107POPC   C1A40407  15.163  28.326   8.664
 3107POPC   D2A40408  14.889  28.315   8.333
 3107POPC   C3A40409  15.092  28.066   8.001
 3107POPC   C4A40410  15.458  28.208   7.752
 3107POPC   C1B40411  14.845  28.674   8.881
 3107POPC   C2B40412  14.587  28.762   8.510
 3107POPC   C3B40413  14.685  28.760   8.068
 3107POPC   C4B40414  15.043  28.531   7.871
 3108POPC   NC340415  37.564   3.167   9.405
 3108POPC   PO440416  37.676   3.868   9.508
 3108POPC   GL140417  37.623   3.634   9.170
 3108POPC   GL240418  37.938   3.434   9.161
 3108POPC   C1A40419  37.643   3.784   8.767
 3108POPC   D2A40420  37.496   3.596   8.403
 3108POPC   C3A40421  37.568   3.811   8.047
 3108POPC   C4A40422  37.489   3.695   7.635
 3108POPC   C1B40423  37.756   3.273   8.775
 3108POPC   C2B40424  37.823   3.142   8.370
 3108POPC   C3B40425  37.666   3.286   7.971
 3108POPC   C4B40426  37.936   3.438   7.626
 3109POPC   NC340427  38.301  31.760   9.558
 3109POPC   PO440428  38.513  31.001   9.577
 3109POPC   GL140429  38.372  31.142   9.146
 3109POPC   GL240430  38.343  31.508   9.139
 3109POPC   C1A40431  38.317  31.269   8.720
 3109POPC   D2A40432  38.471  31.458   8.370
 3109POPC   C3A40433  38.337  31.272   8.012
 3109POPC   C4A40434  38.562  31.237   7.650
 3109POPC   C1B40435  38.122  31.791   8.839
 3109POPC   C2B40436  38.247  31.929   8.414
 3109POPC   C3B40437  38.451  31.843   8.018
 3109POPC   C4B40438  38.262  31.668   7.666
 3110POPC   NC340439  27.170  28.983   9.589
 3110POPC   PO440440  27.734  29.133   9.290
 3110POPC   GL140441  27.724  29.343   8.936
 3110POPC   GL240442  27.402  29.150   8.906
 3110POPC   C1A40443  27.705  29.297   8.509
 3110POPC   D2A40444  27.505  28.908   8.393
 3110POPC   C3A40445  27.377  28.875   7.980
 3110POPC   C4A40446  27.690  29.028   7.741
 3110POPC   C1B40447  27.254  29.516   8.741
 3110POPC   C2B40448  27.205  29.317   8.409
 3110POPC   C3B40449  27.406  29.375   8.066
 3110POPC   C4B40450  27.187  29.605   7.786
 3111POPC   NC340451  16.866   3.057   9.501
 3111POPC   PO440452  16.353   2.744   9.214
 3111POPC   GL140453  16.646   2.540   9.009
 3111POPC   GL240454  16.939   2.708   9.062
 3111POPC   C1A40455  16.712   2.568   8.599
 3111POPC   D2A40456  16.783   2.746   8.258
 3111POPC   C3A40457  16.515   2.623   7.954
 3111POPC   C4A40458  16.576   2.935   7.661
 3111POPC   C1B40459  17.035   2.973   8.690
 3111POPC   C2B40460  17.092   3.151   8.272
 3111POPC   C3B40461  17.097   2.886   7.883
 3111POPC   C4B40462  16.972   2.445   7.836
 3112POPC   NC340463  10.799  22.463   9.778
 3112POPC   PO440464  10.492  22.004   9.509
 3112POPC   GL140465  10.742  22.137   9.171
 3112POPC   GL240466  10.414  22.140   8.968
 3112POPC   C1A40467  10.866  22.235   8.743
 3112POPC   D2A40468  10.533  22.171   8.449
 3112POPC   C3A40469  10.734  22.207   8.021
 3112POPC   C4A40470  10.783  22.439   7.567
 3112POPC   C1B40471  10.198  21.800   8.703
 3112POPC   C2B40472  10.020  21.820   8.301
 3112POPC   C3B40473  10.198  22.161   8.064
 3112POPC   C4B40474  10.339  22.231   7.686
 3113POPC   NC340475  41.414  15.403   9.629
 3113POPC   PO440476  41.853  15.879   9.520
 3113POPC   GL140477  41.765  15.814   9.128
 3113POPC   GL240478  41.438  15.683   9.111
 3113POPC   C1A40479  41.809  15.807   8.720
 3113POPC   D2A40480  41.599  15.681   8.367
 3113POPC   C3A40481  41.866  15.797   8.036
 3113POPC   C4A40482  41.746  15.978   7.665
 3113POPC   C1B40483  41.319  15.981   8.784
 3113POPC   C2B40484  41.259  16.219   8.413
 3113POPC   C3B40485  41.367  16.125   7.991
 3113POPC   C4B40486  41.291  16.307   7.574
 3114POPC   NC340487  30.917  34.723   9.627
 3114POPC   PO440488  30.312  34.428   9.538
 3114POPC   GL140489  30.555  34.627   9.259
 3114POPC   GL240490  30.902  34.532   9.170
 3114POPC   C1A40491  30.570  34.691   8.822
 3114POPC   D2A40492  30.417  34.696   8.410
 3114POPC   C3A40493  30.524  34.393   8.160
 3114POPC   C4A40494  30.618  34.670   7.848
 3114POPC   C1B40495  30.988  34.401   8.755
 3114POPC   C2B40496  30.949  34.621   8.369
 3114POPC   C3B40497  31.012  34.402   8.004
 3114POPC   C4B40498  30.747  34.102   7.793
 3115POPC   NC340499  19.298   3.099   9.368
 3115POPC   PO440500  18.992   3.669   9.359
 3115POPC   GL140501  18.946   3.373   9.043
 3115POPC   GL240502  19.276   3.370   8.930
 3115POPC   C1A40503  18.671   3.455   8.696
 3115POPC   D2A40504  18.722   3.710   8.326
 3115POPC   C3A40505  18.977   3.539   7.991
 3115POPC   C4A40506  18.696   3.661   7.713
 3115POPC   C1B40507  19.469   3.048   8.679
 3115POPC   C2B40508  19.328   2.896   8.269
 3115POPC   C3B40509  19.468   3.010   7.837
 3115POPC   C4B40510  19.354   3.286   7.490
 3116POPC   NC340511  23.228  19.157   9.405
 3116POPC   PO440512  22.716  18.791   9.574
 3116POPC   GL140513  22.786  19.007   9.180
 3116POPC   GL240514  23.104  18.794   9.077
 3116POPC   C1A40515  22.923  19.171   8.759
 3116POPC   D2A40516  22.989  18.934   8.384
 3116POPC   C3A40517  22.793  19.056   7.995
 3116POPC   C4A40518  23.033  19.245   7.678
 3116POPC   C1B40519  23.172  18.547   8.694
 3116POPC   C2B40520  23.297  18.537   8.266
 3116POPC   C3B40521  23.261  18.850   7.928
 3116POPC   C4B40522  23.329  18.826   7.484
 3117POPC   NC340523   9.098  31.371   9.555
 3117POPC   PO440524   8.602  31.695   9.775
 3117POPC   GL140525   8.735  31.450   9.249
 3117POPC   GL240526   9.016  31.684   9.141
 3117POPC   C1A40527   9.041  31.232   8.902
 3117POPC   D2A40528   9.377  31.387   8.581
 3117POPC   C3A40529   9.293  31.382   8.125
 3117POPC   C4A40530   8.910  31.292   7.870
 3117POPC   C1B40531   8.779  31.626   8.748
 3117POPC   C2B40532   8.910  31.609   8.356
 3117POPC   C3B40533   8.872  31.795   7.970
 3117POPC   C4B40534   8.738  31.841   7.545
 3118POPC   NC340535  10.841  25.452   9.574
 3118POPC   PO440536  10.256  25.179   9.433
 3118POPC   GL140537  10.487  25.328   9.130
 3118POPC   GL240538  10.801  25.141   9.144
 3118POPC   C1A40539  10.244  25.322   8.751
 3118POPC   D2A40540  10.098  25.234   8.363
 3118POPC   C3A40541  10.381  25.367   8.074
 3118POPC   C4A40542  10.429  25.273   7.654
 3118POPC   C1B40543  10.727  25.159   8.704
 3118POPC   C2B40544  10.733  24.975   8.292
 3118POPC   C3B40545  10.848  25.216   7.933
 3118POPC   C4B40546  10.747  25.685   7.884
 3119POPC   NC340547  33.753  24.201   9.626
 3119POPC   PO440548  33.723  23.511   9.369
 3119POPC   GL140549  33.770  23.767   9.015
 3119POPC   GL240550  33.989  24.076   9.015
 3119POPC   C1A40551  33.665  23.898   8.637
 3119POPC   D2A40552  33.699  24.027   8.260
 3119POPC   C3A40553  33.505  23.736   8.045
 3119POPC   C4A40554  33.600  23.699   7.618
 3119POPC   C1B40555  34.154  23.729   8.715
 3119POPC   C2B40556  34.000  23.573   8.341
 3119POPC   C3B40557  33.996  23.656   7.923
 3119POPC   C4B40558  34.095  23.477   7.526
 3120POPC   NC340559  42.158  33.410   9.354
 3120POPC   PO440560  42.460  34.101   9.488
 3120POPC   GL140561  42.343  33.832   9.119
 3120POPC   GL240562  41.972  33.853   9.081
 3120POPC   C1A40563  42.479  33.651   8.679
 3120POPC   D2A40564  42.372  33.648   8.224
 3120POPC   C3A40565  42.538  33.668   7.792
 3120POPC   C4A40566  42.732  33.689   7.353
 3120POPC   C1B40567  42.131  34.057   8.718
 3120POPC   C2B40568  42.009  34.059   8.282
 3120POPC   C3B40569  42.246  34.061   7.914
 3120POPC   C4B40570  42.323  34.000   7.460
 3121POPC   NC340571   0.446  33.212   9.463
 3121POPC   PO440572   0.436  32.574   9.302
 3121POPC   GL140573   0.359  32.863   9.036
 3121POPC   GL240574   0.123  33.088   9.108
 3121POPC   C1A40575   0.464  32.960   8.642
 3121POPC   D2A40576   0.576  32.736   8.294
 3121POPC   C3A40577   0.541  32.951   7.936
 3121POPC   C4A40578   0.876  33.171   7.763
 3121POPC   C1B40579  44.924  33.083   8.718
 3121POPC   C2B40580   0.076  33.006   8.299
 3121POPC   C3B40581   0.008  33.067   7.859
 3121POPC   C4B40582   0.081  33.031   7.397
 3122POPC   NC340583  30.226  17.277   9.350
 3122POPC   PO440584  29.496  17.366   9.469
 3122POPC   GL140585  29.732  17.583   9.149
 3122POPC   GL240586  29.994  17.837   9.246
 3122POPC   C1A40587  29.631  17.643   8.724
 3122POPC   D2A40588  29.521  17.412   8.355
 3122POPC   C3A40589  29.742  17.430   7.949
 3122POPC   C4A40590  30.151  17.297   7.761
 3122POPC   C1B40591  30.136  17.745   8.810
 3122POPC   C2B40592  29.999  17.664   8.361
 3122POPC   C3B40593  30.136  17.777   7.943
 3122POPC   C4B40594  30.441  17.696   7.599
 3123POPC   NC340595  36.679  29.815   9.433
 3123POPC   PO440596  36.122  30.098   9.709
 3123POPC   GL140597  36.278  30.117   9.277
 3123POPC   GL240598  35.984  30.204   9.210
 3123POPC   C1A40599  36.328  30.061   8.793
 3123POPC   D2A40600  36.336  29.750   8.419
 3123POPC   C3A40601  36.347  29.841   7.937
 3123POPC   C4A40602  36.126  29.608   7.657
 3123POPC   C1B40603  35.863  30.298   8.824
 3123POPC   C2B40604  35.934  30.128   8.452
 3123POPC   C3B40605  36.152  30.242   8.136
 3123POPC   C4B40606  35.983  30.229   7.750
 3124POPC   NC340607   4.838  34.824   9.585
 3124POPC   PO440608   4.902  34.172   9.661
 3124POPC   GL140609   4.903  34.435   9.258
 3124POPC   GL240610   5.134  34.671   9.160
 3124POPC   C1A40611   4.756  34.512   8.817
 3124POPC   D2A40612   4.788  34.599   8.355
 3124POPC   C3A40613   5.021  34.334   8.017
 3124POPC   C4A40614   5.065  34.379   7.532
 3124POPC   C1B40615   5.265  34.436   8.814
 3124POPC   C2B40616   5.319  34.566   8.407
 3124POPC   C3B40617   5.189  34.846   8.112
 3124POPC   C4B40618   5.253  34.811   7.713
 3125POPC   NC340619   6.551  32.053   9.459
 3125POPC   PO440620   6.964  32.645   9.672
 3125POPC   GL140621   6.772  32.474   9.265
 3125POPC   GL240622   6.447  32.402   9.092
 3125POPC   C1A40623   6.856  32.549   8.834
 3125POPC   D2A40624   6.751  32.280   8.521
 3125POPC   C3A40625   6.588  32.448   8.163
 3125POPC   C4A40626   6.701  32.287   7.763
 3125POPC   C1B40627   6.267  32.187   8.735
 3125POPC   C2B40628   6.101  32.248   8.329
 3125POPC   C3B40629   6.222  32.161   7.953
 3125POPC   C4B40630   6.090  32.040   7.559
 3126POPC   NC340631  13.009   1.897   9.352
 3126POPC   PO440632  13.636   1.774   9.481
 3126POPC   GL140633  13.563   1.874   9.116
 3126POPC   GL240634  13.317   1.650   9.053
 3126POPC   C1A40635  13.773   1.955   8.749
 3126POPC   D2A40636  13.947   2.187   8.433
 3126POPC   C3A40637  13.917   1.968   8.038
 3126POPC   C4A40638  13.614   1.995   7.732
 3126POPC   C1B40639  13.268   1.996   8.729
 3126POPC   C2B40640  13.440   1.981   8.317
 3126POPC   C3B40641  13.222   2.162   7.994
 3126POPC   C4B40642  13.079   2.123   7.587
 3127POPC   NC340643  33.368  13.980   9.700
 3127POPC   PO440644  32.948  13.503   9.479
 3127POPC   GL140645  33.087  13.660   9.140
 3127POPC   GL240646  33.416  13.801   9.212
 3127POPC   C1A40647  33.077  13.545   8.743
 3127POPC   D2A40648  32.887  13.332   8.431
 3127POPC   C3A40649  32.815  13.542   8.041
 3127POPC   C4A40650  32.895  13.767   7.667
 3127POPC   C1B40651  33.390  13.946   8.826
 3127POPC   C2B40652  33.290  13.860   8.408
 3127POPC   C3B40653  33.284  13.761   7.983
 3127POPC   C4B40654  33.397  13.827   7.540
 3128POPC   NC340655   0.210   9.992   5.302
 3128POPC   PO440656   0.833   9.683   5.413
 3128POPC   GL140657   0.597   9.688   5.815
 3128POPC   GL240658   0.263   9.568   5.793
 3128POPC   C1A40659   0.399   9.890   6.197
 3128POPC   D2A40660   0.571   9.944   6.626
 3128POPC   C3A40661   0.272   9.879   6.936
 3128POPC   C4A40662   0.504   9.736   7.216
 3128POPC   C1B40663   0.330   9.375   6.183
 3128POPC   C2B40664   0.311   9.523   6.563
 3128POPC   C3B40665   0.293   9.366   6.944
 3128POPC   C4B40666   0.169   9.374   7.349
 3129POPC   NC340667   3.496  24.779   5.421
 3129POPC   PO440668   3.422  24.095   5.217
 3129POPC   GL140669   3.417  24.265   5.673
 3129POPC   GL240670   3.719  24.242   5.899
 3129POPC   C1A40671   3.264  24.237   6.127
 3129POPC   D2A40672   3.380  24.279   6.588
 3129POPC   C3A40673   3.416  24.678   6.833
 3129POPC   C4A40674   3.277  24.734   7.251
 3129POPC   C1B40675   3.681  24.560   6.240
 3129POPC   C2B40676   3.850  24.851   6.556
 3129POPC   C3B40677   4.015  24.823   6.972
 3129POPC   C4B40678   3.787  24.592   7.266
 3130POPC   NC340679  25.923  44.289   5.538
 3130POPC   PO440680  26.188  43.651   5.474
 3130POPC   GL140681  26.147  43.910   5.797
 3130POPC   GL240682  25.800  43.761   5.790
 3130POPC   C1A40683  25.993  44.073   6.185
 3130POPC   D2A40684  26.168  44.206   6.557
 3130POPC   C3A40685  25.987  44.071   6.923
 3130POPC   C4A40686  26.162  44.115   7.306
 3130POPC   C1B40687  25.988  43.575   6.165
 3130POPC   C2B40688  25.867  43.672   6.587
 3130POPC   C3B40689  26.049  43.572   6.968
 3130POPC   C4B40690  26.204  43.622   7.342
 3131POPC   NC340691   8.051   0.703   5.569
 3131POPC   PO440692   8.604   1.160   5.467
 3131POPC   GL140693   8.313   1.165   5.836
 3131POPC   GL240694   7.938   1.166   5.799
 3131POPC   C1A40695   8.220   1.299   6.274
 3131POPC   D2A40696   8.420   1.433   6.675
 3131POPC   C3A40697   8.184   1.222   6.965
 3131POPC   C4A40698   8.297   1.029   7.332
 3131POPC   C1B40699   7.894   0.886   6.183
 3131POPC   C2B40700   8.081   0.805   6.598
 3131POPC   C3B40701   7.872   0.803   7.003
 3131POPC   C4B40702   7.718   0.986   7.386
 3132POPC   NC340703  28.601  33.115   5.124
 3132POPC   PO440704  27.980  33.024   5.264
 3132POPC   GL140705  28.220  33.189   5.646
 3132POPC   GL240706  28.601  33.220   5.671
 3132POPC   C1A40707  28.156  33.115   6.112
 3132POPC   D2A40708  28.365  33.213   6.510
 3132POPC   C3A40709  28.181  33.047   6.875
 3132POPC   C4A40710  28.227  33.199   7.271
 3132POPC   C1B40711  28.661  33.060   6.105
 3132POPC   C2B40712  28.482  32.732   6.401
 3132POPC   C3B40713  28.478  32.614   6.836
 3132POPC   C4B40714  28.543  32.785   7.268
 3133POPC   NC340715  33.922   7.753   5.308
 3133POPC   PO440716  33.610   7.183   5.258
 3133POPC   GL140717  33.910   7.329   5.593
 3133POPC   GL240718  33.639   7.566   5.697
 3133POPC   C1A40719  33.941   7.369   6.068
 3133POPC   D2A40720  33.897   7.120   6.468
 3133POPC   C3A40721  33.859   7.363   6.864
 3133POPC   C4A40722  33.874   7.174   7.265
 3133POPC   C1B40723  33.413   7.524   6.087
 3133POPC   C2B40724  33.467   7.401   6.516
 3133POPC   C3B40725  33.340   7.363   6.924
 3133POPC   C4B40726  33.497   7.693   7.160
 3134POPC   NC340727  18.106  18.800   5.482
 3134POPC   PO440728  18.461  19.506   5.474
 3134POPC   GL140729  18.257  19.224   5.788
 3134POPC   GL240730  17.943  19.028   5.915
 3134POPC   C1A40731  18.389  18.964   6.146
 3134POPC   D2A40732  18.167  18.942   6.546
 3134POPC   C3A40733  18.430  18.861   6.891
 3134POPC   C4A40734  18.307  19.051   7.260
 3134POPC   C1B40735  17.984  18.642   6.168
 3134POPC   C2B40736  18.002  18.460   6.617
 3134POPC   C3B40737  17.976  18.663   7.056
 3134POPC   C4B40738  18.174  18.616   7.461
 3135POPC   NC340739  40.953  40.124   5.267
 3135POPC   PO440740  40.302  40.024   5.364
 3135POPC   GL140741  40.593  39.905   5.671
 3135POPC   GL240742  40.687  40.236   5.720
 3135POPC   C1A40743  40.824  39.916   6.099
 3135POPC   D2A40744  40.938  40.115   6.506
 3135POPC   C3A40745  41.045  39.832   6.846
 3135POPC   C4A40746  40.779  39.896   7.171
 3135POPC   C1B40747  40.538  40.354   6.139
 3135POPC   C2B40748  40.396  40.277   6.558
 3135POPC   C3B40749  40.574  40.313   6.960
 3135POPC   C4B40750  40.421  40.620   7.208
 3136POPC   NC340751  38.268  28.861   5.432
 3136POPC   PO440752  38.594  28.257   5.377
 3136POPC   GL140753  38.489  28.405   5.783
 3136POPC   GL240754  38.765  28.258   5.908
 3136POPC   C1A40755  38.435  28.520   6.243
 3136POPC   D2A40756  38.302  28.324   6.638
 3136POPC   C3A40757  38.210  28.550   7.029
 3136POPC   C4A40758  38.298  28.348   7.435
 3136POPC   C1B40759  38.962  28.377   6.317
 3136POPC   C2B40760  38.757  28.553   6.695
 3136POPC   C3B40761  38.673  28.322   7.077
 3136POPC   C4B40762  38.801  28.368   7.520
 3137POPC   NC340763  32.067  40.176   5.311
 3137POPC   PO440764  32.623  39.800   5.317
 3137POPC   GL140765  32.351  39.895   5.668
 3137POPC   GL240766  32.368  40.242   5.723
 3137POPC   C1A40767  32.192  39.906   6.110
 3137POPC   D2A40768  32.123  39.884   6.562
 3137POPC   C3A40769  32.352  39.785   6.940
 3137POPC   C4A40770  32.058  39.732   7.219
 3137POPC   C1B40771  32.180  40.431   6.070
 3137POPC   C2B40772  32.258  40.368   6.481
 3137POPC   C3B40773  32.284  40.282   6.901
 3137POPC   C4B40774  32.001  40.253   7.248
 3138POPC   NC340775  31.098  28.523   5.117
 3138POPC   PO440776  30.557  28.277   5.527
 3138POPC   GL140777  30.654  28.387   5.924
 3138POPC   GL240778  30.519  28.078   6.025
 3138POPC   C1A40779  30.796  28.490   6.337
 3138POPC   D2A40780  30.738  28.732   6.703
 3138POPC   C3A40781  30.616  28.453   7.027
 3138POPC   C4A40782  30.568  28.681   7.362
 3138POPC   C1B40783  30.970  28.025   6.158
 3138POPC   C2B40784  31.138  28.041   6.585
 3138POPC   C3B40785  30.930  28.029   7.007
 3138POPC   C4B40786  30.888  28.228   7.425
 3139POPC   NC340787  30.390  13.069   5.068
 3139POPC   PO440788  29.870  12.774   5.442
 3139POPC   GL140789  29.808  12.942   5.834
 3139POPC   GL240790  29.573  12.699   5.909
 3139POPC   C1A40791  29.989  13.047   6.229
 3139POPC   D2A40792  29.848  12.880   6.662
 3139POPC   C3A40793  30.018  13.053   7.085
 3139POPC   C4A40794  30.194  12.993   7.528
 3139POPC   C1B40795  29.463  13.022   6.240
 3139POPC   C2B40796  29.369  13.160   6.674
 3139POPC   C3B40797  29.508  12.943   7.068
 3139POPC   C4B40798  29.802  12.578   7.075
 3140POPC   NC340799  10.842  37.422   5.425
 3140POPC   PO440800  10.789  38.050   5.370
 3140POPC   GL140801  10.568  37.894   5.741
 3140POPC   GL240802  10.692  37.565   5.884
 3140POPC   C1A40803  10.462  37.905   6.195
 3140POPC   D2A40804  10.509  38.083   6.589
 3140POPC   C3A40805  10.408  37.905   6.958
 3140POPC   C4A40806  10.608  37.829   7.351
 3140POPC   C1B40807  10.438  37.395   6.211
 3140POPC   C2B40808  10.529  37.526   6.630
 3140POPC   C3B40809  10.516  37.407   7.060
 3140POPC   C4B40810  10.280  37.433   7.426
 3141POPC   NC340811  16.622  16.089   5.130
 3141POPC   PO440812  16.882  15.720   5.607
 3141POPC   GL140813  16.611  15.700   5.916
 3141POPC   GL240814  16.695  15.993   6.099
 3141POPC   C1A40815  16.633  15.574   6.359
 3141POPC   D2A40816  16.805  15.861   6.661
 3141POPC   C3A40817  16.785  15.766   7.098
 3141POPC   C4A40818  16.977  15.929   7.470
 3141POPC   C1B40819  16.345  16.215   6.198
 3141POPC   C2B40820  16.379  16.469   6.551
 3141POPC   C3B40821  16.520  16.240   6.913
 3141POPC   C4B40822  16.442  16.056   7.326
 3142POPC   NC340823  32.564  44.787   5.178
 3142POPC   PO440824  32.027  44.562   5.401
 3142POPC   GL140825  32.212  44.778   5.735
 3142POPC   GL240826  32.493  44.605   5.718
 3142POPC   C1A40827  32.133  44.877   6.176
 3142POPC   D2A40828  32.333  44.820   6.586
 3142POPC   C3A40829  32.178  44.782   7.016
 3142POPC   C4A40830  32.312  44.912   7.462
 3142POPC   C1B40831  32.443  44.452   6.145
 3142POPC   C2B40832  32.338  44.293   6.531
 3142POPC   C3B40833  32.506  44.393   6.917
 3142POPC   C4B40834  32.582  44.481   7.339
 3143POPC   NC340835  16.833  43.461   5.324
 3143POPC   PO440836  16.599  44.037   5.049
 3143POPC   GL140837  16.660  43.941   5.551
 3143POPC   GL240838  16.349  43.902   5.765
 3143POPC   C1A40839  16.808  43.949   6.033
 3143POPC   D2A40840  16.593  44.204   6.377
 3143POPC   C3A40841  16.563  44.042   6.804
 3143POPC   C4A40842  16.738  44.121   7.193
 3143POPC   C1B40843  16.503  43.555   6.019
 3143POPC   C2B40844  16.546  43.665   6.440
 3143POPC   C3B40845  16.470  43.513   6.852
 3143POPC   C4B40846  16.418  43.728   7.211
 3144POPC   NC340847  43.384  32.593   5.285
 3144POPC   PO440848  42.978  31.967   5.292
 3144POPC   GL140849  42.989  32.122   5.704
 3144POPC   GL240850  43.046  32.484   5.689
 3144POPC   C1A40851  43.171  32.169   6.119
 3144POPC   D2A40852  43.266  32.145   6.559
 3144POPC   C3A40853  43.205  32.012   6.996
 3144POPC   C4A40854  43.314  32.074   7.439
 3144POPC   C1B40855  42.808  32.518   6.086
 3144POPC   C2B40856  42.806  32.383   6.491
 3144POPC   C3B40857  42.779  32.576   6.883
 3144POPC   C4B40858  42.924  32.402   7.250
 3145POPC   NC340859  11.049   3.678   5.148
 3145POPC   PO440860  10.355   3.741   5.366
 3145POPC   GL140861  10.442   3.569   5.795
 3145POPC   GL240862  10.696   3.820   5.814
 3145POPC   C1A40863  10.367   3.384   6.235
 3145POPC   D2A40864  10.417   3.724   6.560
 3145POPC   C3A40865  10.550   3.748   6.983
 3145POPC   C4A40866  10.316   3.741   7.358
 3145POPC   C1B40867  10.808   3.629   6.191
 3145POPC   C2B40868  10.883   3.511   6.602
 3145POPC   C3B40869  10.892   3.350   7.002
 3145POPC   C4B40870  10.543   3.303   7.266
 3146POPC   NC340871  10.345  40.577   5.446
 3146POPC   PO440872  10.930  40.870   5.506
 3146POPC   GL140873  10.618  40.806   5.822
 3146POPC   GL240874  10.398  41.052   5.719
 3146POPC   C1A40875  10.298  40.647   6.125
 3146POPC   D2A40876  10.212  40.764   6.572
 3146POPC   C3A40877  10.431  40.471   6.860
 3146POPC   C4A40878  10.557  40.561   7.285
 3146POPC   C1B40879  10.421  41.142   6.168
 3146POPC   C2B40880  10.572  41.161   6.580
 3146POPC   C3B40881  10.587  40.950   6.943
 3146POPC   C4B40882  10.618  41.133   7.318
 3147POPC   NC340883  18.832   4.217   5.418
 3147POPC   PO440884  19.399   4.462   5.170
 3147POPC   GL140885  19.381   4.416   5.661
 3147POPC   GL240886  19.070   4.344   5.864
 3147POPC   C1A40887  19.527   4.243   6.077
 3147POPC   D2A40888  19.410   4.331   6.498
 3147POPC   C3A40889  19.464   4.447   6.911
 3147POPC   C4A40890  19.120   4.417   7.219
 3147POPC   C1B40891  19.036   4.121   6.239
 3147POPC   C2B40892  18.875   4.155   6.624
 3147POPC   C3B40893  18.893   3.997   7.024
 3147POPC   C4B40894  18.693   4.060   7.391
 3148POPC   NC340895  36.197   0.210   5.433
 3148POPC   PO440896  36.309   0.900   5.372
 3148POPC   GL140897  36.181   0.621   5.744
 3148POPC   GL240898  36.477   0.394   5.840
 3148POPC   C1A40899  36.002   0.383   6.110
 3148POPC   D2A40900  36.039   0.499   6.568
 3148POPC   C3A40901  35.878   0.440   7.013
 3148POPC   C4A40902  35.714   0.050   7.228
 3148POPC   C1B40903  36.428   0.655   6.226
 3148POPC   C2B40904  36.539   0.491   6.648
 3148POPC   C3B40905  36.360   0.318   7.042
 3148POPC   C4B40906  36.462   0.322   7.479
 3149POPC   NC340907  25.684   5.461   5.401
 3149POPC   PO440908  25.572   6.104   5.388
 3149POPC   GL140909  25.323   5.878   5.717
 3149POPC   GL240910  25.559   5.676   5.875
 3149POPC   C1A40911  25.099   5.786   6.153
 3149POPC   D2A40912  25.274   5.802   6.593
 3149POPC   C3A40913  25.153   5.724   7.037
 3149POPC   C4A40914  25.128   5.979   7.426
 3149POPC   C1B40915  25.551   6.045   6.176
 3149POPC   C2B40916  25.709   6.067   6.608
 3149POPC   C3B40917  25.554   6.031   7.035
 3149POPC   C4B40918  25.606   5.704   7.333
 3150POPC   NC340919  22.922  31.623   5.444
 3150POPC   PO440920  22.458  31.203   5.690
 3150POPC   GL140921  22.759  31.418   5.897
 3150POPC   GL240922  23.060  31.228   5.874
 3150POPC   C1A40923  22.901  31.443   6.304
 3150POPC   D2A40924  23.074  31.500   6.653
 3150POPC   C3A40925  22.787  31.781   6.805
 3150POPC   C4A40926  22.820  31.656   7.186
 3150POPC   C1B40927  23.297  31.087   6.264
 3150POPC   C2B40928  23.537  31.237   6.659
 3150POPC   C3B40929  23.379  31.427   7.059
 3150POPC   C4B40930  23.245  31.280   7.442
 3151POPC   NC340931  21.419  27.862   5.154
 3151POPC   PO440932  21.350  28.549   5.311
 3151POPC   GL140933  21.426  28.422   5.761
 3151POPC   GL240934  21.702  28.235   5.739
 3151POPC   C1A40935  21.276  28.397   6.187
 3151POPC   D2A40936  21.128  28.273   6.579
 3151POPC   C3A40937  21.398  28.188   6.925
 3151POPC   C4A40938  21.444  28.323   7.325
 3151POPC   C1B40939  21.661  28.059   6.157
 3151POPC   C2B40940  21.850  27.943   6.568
 3151POPC   C3B40941  21.797  27.827   7.009
 3151POPC   C4B40942  21.836  28.033   7.385
 3152POPC   NC340943  25.842  35.984   5.640
 3152POPC   PO440944  26.165  36.492   5.350
 3152POPC   GL140945  26.183  36.348   5.790
 3152POPC   GL240946  26.420  36.086   5.799
 3152POPC   C1A40947  25.995  36.266   6.224
 3152POPC   D2A40948  26.123  36.396   6.646
 3152POPC   C3A40949  25.972  36.165   6.963
 3152POPC   C4A40950  25.775  36.182   7.325
 3152POPC   C1B40951  26.307  35.840   6.155
 3152POPC   C2B40952  26.294  35.928   6.578
 3152POPC   C3B40953  26.264  35.727   6.951
 3152POPC   C4B40954  26.176  35.865   7.368
 3153POPC   NC340955   4.191   7.281   5.375
 3153POPC   PO440956   3.832   7.771   5.555
 3153POPC   GL140957   4.071   7.433   5.848
 3153POPC   GL240958   4.434   7.306   5.844
 3153POPC   C1A40959   4.180   7.270   6.284
 3153POPC   D2A40960   4.147   7.495   6.675
 3153POPC   C3A40961   4.207   7.315   7.077
 3153POPC   C4A40962   4.485   7.641   7.224
 3153POPC   C1B40963   4.682   7.164   6.234
 3153POPC   C2B40964   4.592   7.197   6.692
 3153POPC   C3B40965   4.678   7.160   7.117
 3153POPC   C4B40966   4.568   7.281   7.568
 3154POPC   NC340967  36.656  33.991   5.548
 3154POPC   PO440968  37.268  34.153   5.288
 3154POPC   GL140969  37.184  33.956   5.751
 3154POPC   GL240970  37.236  33.565   5.803
 3154POPC   C1A40971  36.906  34.006   6.166
 3154POPC   D2A40972  36.685  34.163   6.545
 3154POPC   C3A40973  36.751  33.953   6.907
 3154POPC   C4A40974  36.786  33.797   7.290
 3154POPC   C1B40975  37.322  33.708   6.234
 3154POPC   C2B40976  37.058  33.625   6.611
 3154POPC   C3B40977  37.174  33.530   7.039
 3154POPC   C4B40978  37.253  33.615   7.472
 3155POPC   NC340979  16.782   7.203   5.182
 3155POPC   PO440980  16.513   7.712   5.560
 3155POPC   GL140981  16.903   7.653   5.812
 3155POPC   GL240982  17.166   7.396   5.684
 3155POPC   C1A40983  16.805   7.547   6.253
 3155POPC   D2A40984  16.442   7.599   6.570
 3155POPC   C3A40985  16.548   7.559   7.021
 3155POPC   C4A40986  16.438   7.497   7.481
 3155POPC   C1B40987  17.275   7.313   6.143
 3155POPC   C2B40988  17.221   7.116   6.572
 3155POPC   C3B40989  17.108   7.034   7.003
 3155POPC   C4B40990  16.881   7.244   7.328
 3156POPC   NC340991  19.650   9.139   5.363
 3156POPC   PO440992  20.227   8.750   5.490
 3156POPC   GL140993  19.881   8.863   5.748
 3156POPC   GL240994  19.536   8.694   5.705
 3156POPC   C1A40995  19.796   8.843   6.178
 3156POPC   D2A40996  19.609   9.044   6.511
 3156POPC   C3A40997  19.824   9.072   6.880
 3156POPC   C4A40998  19.760   9.271   7.231
 3156POPC   C1B40999  19.459   8.457   6.098
 3156POPC   C2B41000  19.709   8.416   6.471
 3156POPC   C3B41001  19.596   8.599   6.859
 3156POPC   C4B41002  19.752   8.694   7.267
 3157POPC   NC341003  37.298   3.326   5.364
 3157POPC   PO441004  36.736   3.687   5.438
 3157POPC   GL141005  36.535   3.642   5.819
 3157POPC   GL241006  36.763   3.338   5.853
 3157POPC   C1A41007  36.479   3.518   6.229
 3157POPC   D2A41008  36.744   3.273   6.495
 3157POPC   C3A41009  36.875   3.574   6.785
 3157POPC   C4A41010  36.781   3.636   7.203
 3157POPC   C1B41011  37.103   3.186   6.139
 3157POPC   C2B41012  37.302   3.255   6.557
 3157POPC   C3B41013  37.125   3.174   6.965
 3157POPC   C4B41014  36.888   3.128   7.304
 3158POPC   NC341015   0.964   2.119   5.459
 3158POPC   PO441016   1.536   1.890   5.259
 3158POPC   GL141017   1.373   1.931   5.713
 3158POPC   GL241018   1.100   1.741   5.801
 3158POPC   C1A41019   1.311   2.017   6.175
 3158POPC   D2A41020   1.466   1.930   6.593
 3158POPC   C3A41021   1.260   2.134   6.915
 3158POPC   C4A41022   1.299   2.412   7.257
 3158POPC   C1B41023   1.210   1.536   6.252
 3158POPC   C2B41024   1.227   1.492   6.688
 3158POPC   C3B41025   1.320   1.651   7.083
 3158POPC   C4B41026   1.074   1.948   7.342
 3159POPC   NC341027  16.471  27.427   5.529
 3159POPC   PO441028  17.227  27.607   5.543
 3159POPC   GL141029  16.938  27.582   5.843
 3159POPC   GL241030  17.040  27.280   5.946
 3159POPC   C1A41031  16.903  27.800   6.271
 3159POPC   D2A41032  16.788  28.013   6.674
 3159POPC   C3A41033  16.667  27.791   7.096
 3159POPC   C4A41034  16.923  27.662   7.484
 3159POPC   C1B41035  16.695  27.336   6.227
 3159POPC   C2B41036  16.692  27.484   6.663
 3159POPC   C3B41037  16.951  27.366   7.043
 3159POPC   C4B41038  17.361  27.257   7.196
 3160POPC   NC341039  29.641   4.342   5.392
 3160POPC   PO441040  29.882   3.828   5.579
 3160POPC   GL141041  29.900   4.137   5.896
 3160POPC   GL241042  29.720   4.472   5.881
 3160POPC   C1A41043  30.126   4.098   6.283
 3160POPC   D2A41044  29.872   3.974   6.612
 3160POPC   C3A41045  29.999   4.102   6.998
 3160POPC   C4A41046  30.371   4.357   6.988
 3160POPC   C1B41047  29.729   4.419   6.313
 3160POPC   C2B41048  30.004   4.653   6.584
 3160POPC   C3B41049  29.938   4.835   6.973
 3160POPC   C4B41050  29.780   4.526   7.234
 3161POPC   NC341051  21.714   6.100   5.153
 3161POPC   PO441052  21.292   5.630   5.453
 3161POPC   GL141053  21.314   5.691   5.893
 3161POPC   GL241054  21.468   6.008   5.812
 3161POPC   C1A41055  21.621   5.726   6.256
 3161POPC   D2A41056  21.788   5.784   6.701
 3161POPC   C3A41057  21.527   5.752   7.067
 3161POPC   C4A41058  21.088   5.838   7.180
 3161POPC   C1B41059  21.400   6.182   6.219
 3161POPC   C2B41060  21.312   5.979   6.600
 3161POPC   C3B41061  21.354   6.204   6.937
 3161POPC   C4B41062  21.561   6.252   7.307
 3162POPC   NC341063  44.474  37.142   5.062
 3162POPC   PO441064  44.758  36.778   5.572
 3162POPC   GL141065  44.631  36.927   5.915
 3162POPC   GL241066  44.541  37.243   5.896
 3162POPC   C1A41067  44.708  36.794   6.294
 3162POPC   D2A41068   0.005  36.818   6.575
 3162POPC   C3A41069  44.789  36.613   6.870
 3162POPC   C4A41070  44.790  36.823   7.235
 3162POPC   C1B41071  44.343  37.195   6.258
 3162POPC   C2B41072  44.390  37.029   6.637
 3162POPC   C3B41073  44.398  37.201   7.021
 3162POPC   C4B41074  44.421  37.108   7.416
 3163POPC   NC341075  15.077  29.613   5.187
 3163POPC   PO441076  14.933  30.275   5.168
 3163POPC   GL141077  14.963  30.005   5.564
 3163POPC   GL241078  14.835  30.245   5.810
 3163POPC   C1A41079  15.085  29.835   6.011
 3163POPC   D2A41080  15.044  29.934   6.469
 3163POPC   C3A41081  15.230  29.805   6.866
 3163POPC   C4A41082  15.022  29.855   7.261
 3163POPC   C1B41083  15.256  30.315   6.013
 3163POPC   C2B41084  15.354  30.368   6.455
 3163POPC   C3B41085  15.156  30.348   6.858
 3163POPC   C4B41086  15.382  30.193   7.199
 3164POPC   NC341087   5.739   0.160   5.342
 3164POPC   PO441088   5.890   0.775   5.545
 3164POPC   GL141089   5.591   0.618   5.874
 3164POPC   GL241090   5.644   0.263   5.838
 3164POPC   C1A41091   5.583   0.737   6.331
 3164POPC   D2A41092   5.950   0.872   6.601
 3164POPC   C3A41093   6.050   0.649   7.012
 3164POPC   C4A41094   5.777   0.656   7.387
 3164POPC   C1B41095   5.940   0.381   6.187
 3164POPC   C2B41096   5.843   0.339   6.628
 3164POPC   C3B41097   5.746   0.251   7.066
 3164POPC   C4B41098   6.150   0.171   7.264
 3165POPC   NC341099  33.415  18.060   5.430
 3165POPC   PO441100  33.818  18.654   5.583
 3165POPC   GL141101  33.605  18.367   5.817
 3165POPC   GL241102  33.763  18.034   5.822
 3165POPC   C1A41103  33.736  18.357   6.249
 3165POPC   D2A41104  33.586  18.567   6.609
 3165POPC   C3A41105  33.613  18.408   7.006
 3165POPC   C4A41106  33.974  18.605   7.180
 3165POPC   C1B41107  33.975  17.901   6.216
 3165POPC   C2B41108  33.917  18.033   6.666
 3165POPC   C3B41109  34.002  18.107   7.092
 3165POPC   C4B41110  34.053  17.884   7.457
 3166POPC   NC341111  18.529  17.898   5.562
 3166POPC   PO441112  18.019  17.627   5.186
 3166POPC   GL141113  18.065  17.558   5.691
 3166POPC   GL241114  18.400  17.538   5.928
 3166POPC   C1A41115  17.985  17.623   6.162
 3166POPC   D2A41116  18.359  17.601   6.460
 3166POPC   C3A41117  18.301  17.520   6.897
 3166POPC   C4A41118  18.213  17.665   7.336
 3166POPC   C1B41119  18.572  17.192   6.222
 3166POPC   C2B41120  18.446  17.058   6.654
 3166POPC   C3B41121  18.604  17.145   7.079
 3166POPC   C4B41122  18.486  17.259   7.542
 3167POPC   NC341123  25.298  28.952   5.051
 3167POPC   PO441124  25.574  29.368   5.395
 3167POPC   GL141125  25.386  29.124   5.733
 3167POPC   GL241126  25.639  28.908   5.891
 3167POPC   C1A41127  25.188  29.258   6.148
 3167POPC   D2A41128  25.352  29.481   6.531
 3167POPC   C3A41129  25.358  29.329   6.946
 3167POPC   C4A41130  25.050  29.344   7.283
 3167POPC   C1B41131  25.340  28.749   6.226
 3167POPC   C2B41132  25.103  28.909   6.600
 3167POPC   C3B41133  25.168  28.877   7.033
 3167POPC   C4B41134  25.520  28.920   7.255
 3168POPC   NC341135  27.997  16.482   5.112
 3168POPC   PO441136  27.495  16.832   5.494
 3168POPC   GL141137  27.623  16.657   5.854
 3168POPC   GL241138  27.954  16.720   5.802
 3168POPC   C1A41139  27.578  16.523   6.268
 3168POPC   D2A41140  27.606  16.761   6.633
 3168POPC   C3A41141  27.651  16.541   7.037
 3168POPC   C4A41142  27.557  16.787   7.409
 3168POPC   C1B41143  27.886  16.952   6.196
 3168POPC   C2B41144  28.037  17.041   6.599
 3168POPC   C3B41145  27.856  17.015   6.996
 3168POPC   C4B41146  28.138  16.673   7.020
 3169POPC   NC341147  33.768  43.538   5.366
 3169POPC   PO441148  33.584  44.216   5.335
 3169POPC   GL141149  33.707  44.027   5.759
 3169POPC   GL241150  33.936  44.252   5.824
 3169POPC   C1A41151  33.705  43.818   6.206
 3169POPC   D2A41152  33.843  43.633   6.629
 3169POPC   C3A41153  33.742  43.856   7.047
 3169POPC   C4A41154  33.729  43.781   7.523
 3169POPC   C1B41155  34.106  44.119   6.220
 3169POPC   C2B41156  33.952  44.124   6.648
 3169POPC   C3B41157  33.977  44.302   7.066
 3169POPC   C4B41158  33.880  44.262   7.504
 3170POPC   NC341159  38.369  40.145   5.189
 3170POPC   PO441160  38.607  39.767   5.698
 3170POPC   GL141161  38.351  39.913   5.916
 3170POPC   GL241162  38.217  40.161   5.713
 3170POPC   C1A41163  38.498  39.976   6.331
 3170POPC   D2A41164  38.521  40.172   6.704
 3170POPC   C3A41165  38.713  39.925   6.948
 3170POPC   C4A41166  38.940  40.249   7.093
 3170POPC   C1B41167  38.055  40.202   6.174
 3170POPC   C2B41168  38.058  40.042   6.592
 3170POPC   C3B41169  38.133  39.967   7.024
 3170POPC   C4B41170  38.380  39.648   7.210
 3171POPC   NC341171   7.071  32.532   5.425
 3171POPC   PO441172   6.405  32.195   5.465
 3171POPC   GL141173   6.505  32.093   5.887
 3171POPC   GL241174   6.850  32.222   5.892
 3171POPC   C1A41175   6.382  32.058   6.309
 3171POPC   D2A41176   6.715  32.156   6.562
 3171POPC   C3A41177   6.673  32.317   6.958
 3171POPC   C4A41178   6.504  32.155   7.312
 3171POPC   C1B41179   7.115  31.992   6.203
 3171POPC   C2B41180   7.098  31.837   6.631
 3171POPC   C3B41181   7.195  31.991   7.017
 3171POPC   C4B41182   7.003  32.158   7.365
 3172POPC   NC341183   4.933  14.708   5.382
 3172POPC   PO441184   5.208  14.110   5.221
 3172POPC   GL141185   5.140  14.192   5.713
 3172POPC   GL241186   4.871  13.990   5.877
 3172POPC   C1A41187   5.131  14.498   6.064
 3172POPC   D2A41188   5.424  14.640   6.375
 3172POPC   C3A41189   5.261  14.680   6.781
 3172POPC   C4A41190   4.985  14.578   7.110
 3172POPC   C1B41191   4.696  14.248   6.203
 3172POPC   C2B41192   4.889  14.346   6.593
 3172POPC   C3B41193   4.677  14.212   6.955
 3172POPC   C4B41194   4.827  14.162   7.373
 3173POPC   NC341195  14.108  11.720   5.550
 3173POPC   PO441196  13.528  11.622   5.180
 3173POPC   GL141197  13.693  11.424   5.619
 3173POPC   GL241198  13.775  11.620   5.916
 3173POPC   C1A41199  13.511  11.194   6.013
 3173POPC   D2A41200  13.373  11.132   6.441
 3173POPC   C3A41201  13.494  11.448   6.756
 3173POPC   C4A41202  13.405  11.321   7.175
 3173POPC   C1B41203  14.018  11.303   6.121
 3173POPC   C2B41204  13.892  11.142   6.520
 3173POPC   C3B41205  13.949  11.270   6.931
 3173POPC   C4B41206  13.992  11.356   7.337
 3174POPC   NC341207   0.274  38.694   5.419
 3174POPC   PO441208   0.749  38.242   5.406
 3174POPC   GL141209   0.567  38.347   5.777
 3174POPC   GL241210   0.635  38.681   5.830
 3174POPC   C1A41211   0.510  38.183   6.190
 3174POPC   D2A41212   0.615  38.207   6.632
 3174POPC   C3A41213   0.358  38.463   6.871
 3174POPC   C4A41214   0.320  38.468   7.302
 3174POPC   C1B41215   0.791  38.959   6.139
 3174POPC   C2B41216   0.726  38.751   6.544
 3174POPC   C3B41217   0.610  38.905   6.936
 3174POPC   C4B41218   0.695  38.851   7.333
 3175POPC   NC341219  10.122  25.662   5.470
 3175POPC   PO441220  10.620  25.269   5.360
 3175POPC   GL141221  10.639  25.289   5.797
 3175POPC   GL241222  10.726  24.954   5.856
 3175POPC   C1A41223  10.780  25.500   6.214
 3175POPC   D2A41224  10.567  25.572   6.638
 3175POPC   C3A41225  10.560  25.368   7.061
 3175POPC   C4A41226  10.794  25.530   7.406
 3175POPC   C1B41227  10.555  25.057   6.256
 3175POPC   C2B41228  10.711  25.082   6.655
 3175POPC   C3B41229  10.746  24.864   7.048
 3175POPC   C4B41230  10.847  25.029   7.453
 3176POPC   NC341231  32.619   4.655   5.519
 3176POPC   PO441232  32.096   4.361   5.145
 3176POPC   GL141233  32.197   4.234   5.646
 3176POPC   GL241234  32.194   4.503   5.908
 3176POPC   C1A41235  32.236   4.080   6.151
 3176POPC   D2A41236  32.192   4.203   6.606
 3176POPC   C3A41237  32.388   4.030   7.001
 3176POPC   C4A41238  32.202   3.921   7.392
 3176POPC   C1B41239  32.492   4.514   6.298
 3176POPC   C2B41240  32.490   4.601   6.760
 3176POPC   C3B41241  32.147   4.495   7.069
 3176POPC   C4B41242  31.847   4.799   7.294
 3177POPC   NC341243   0.267  14.089   5.083
 3177POPC   PO441244   0.445  14.623   5.312
 3177POPC   GL141245   0.492  14.667   5.756
 3177POPC   GL241246   0.586  14.314   5.840
 3177POPC   C1A41247   0.665  14.685   6.213
 3177POPC   D2A41248   0.598  14.324   6.516
 3177POPC   C3A41249   0.403  14.373   6.939
 3177POPC   C4A41250   0.345  14.642   7.296
 3177POPC   C1B41251   0.235  14.435   6.140
 3177POPC   C2B41252   0.214  14.695   6.525
 3177POPC   C3B41253  44.990  14.711   6.917
 3177POPC   C4B41254  44.876  14.452   7.299
 3178POPC   NC341255  33.021  39.645   5.504
 3178POPC   PO441256  33.212  40.292   5.520
 3178POPC   GL141257  33.159  40.039   5.836
 3178POPC   GL241258  32.829  40.026   5.793
 3178POPC   C1A41259  33.085  39.912   6.248
 3178POPC   D2A41260  33.145  40.091   6.637
 3178POPC   C3A41261  33.186  39.854   6.947
 3178POPC   C4A41262  33.323  40.084   7.244
 3178POPC   C1B41263  32.632  40.169   6.169
 3178POPC   C2B41264  32.648  40.004   6.591
 3178POPC   C3B41265  32.746  40.122   7.044
 3178POPC   C4B41266  32.476  40.165   7.426
 3179POPC   NC341267  30.894   7.628   5.466
 3179POPC   PO441268  30.505   7.110   5.468
 3179POPC   GL141269  30.823   7.204   5.816
 3179POPC   GL241270  30.617   7.478   5.854
 3179POPC   C1A41271  31.018   7.409   6.230
 3179POPC   D2A41272  31.003   7.550   6.710
 3179POPC   C3A41273  30.821   7.376   7.121
 3179POPC   C4A41274  30.979   7.305   7.580
 3179POPC   C1B41275  30.510   7.349   6.253
 3179POPC   C2B41276  30.547   7.250   6.673
 3179POPC   C3B41277  30.278   7.321   7.002
 3179POPC   C4B41278  30.164   7.569   7.367
 3180POPC   NC341279  38.284  39.653   5.389
 3180POPC   PO441280  38.388  38.981   5.357
 3180POPC   GL141281  38.459  39.172   5.796
 3180POPC   GL241282  38.204  39.428   5.858
 3180POPC   C1A41283  38.592  39.333   6.242
 3180POPC   D2A41284  38.847  39.568   6.585
 3180POPC   C3A41285  38.786  39.398   7.036
 3180POPC   C4A41286  38.648  39.081   7.374
 3180POPC   C1B41287  38.141  39.609   6.293
 3180POPC   C2B41288  38.328  39.505   6.713
 3180POPC   C3B41289  38.261  39.188   7.070
 3180POPC   C4B41290  38.208  39.296   7.554
 3181POPC   NC341291  28.278  26.208   5.066
 3181POPC   PO441292  28.634  25.707   5.374
 3181POPC   GL141293  28.482  25.867   5.804
 3181POPC   GL241294  28.224  26.155   5.851
 3181POPC   C1A41295  28.364  25.889   6.260
 3181POPC   D2A41296  28.132  25.932   6.632
 3181POPC   C3A41297  28.407  25.931   6.933
 3181POPC   C4A41298  28.548  26.122   7.257
 3181POPC   C1B41299  28.094  26.310   6.284
 3181POPC   C2B41300  28.113  26.420   6.772
 3181POPC   C3B41301  28.037  26.249   7.226
 3181POPC   C4B41302  27.830  26.302   7.718
 3182POPC   NC341303  29.434  43.260   5.368
 3182POPC   PO441304  28.879  42.944   5.451
 3182POPC   GL141305  29.158  43.044   5.790
 3182POPC   GL241306  29.428  42.803   5.748
 3182POPC   C1A41307  29.135  43.289   6.203
 3182POPC   D2A41308  29.395  43.586   6.479
 3182POPC   C3A41309  29.472  43.424   6.911
 3182POPC   C4A41310  29.190  43.236   7.196
 3182POPC   C1B41311  29.210  42.756   6.210
 3182POPC   C2B41312  29.110  42.754   6.705
 3182POPC   C3B41313  29.108  42.744   7.206
 3182POPC   C4B41314  28.956  42.864   7.726
 3183POPC   NC341315   1.232  36.489   5.314
 3183POPC   PO441316   1.088  35.895   5.435
 3183POPC   GL141317   1.254  36.161   5.738
 3183POPC   GL241318   1.366  35.880   5.910
 3183POPC   C1A41319   1.342  36.308   6.152
 3183POPC   D2A41320   1.488  36.108   6.516
 3183POPC   C3A41321   1.279  36.211   6.874
 3183POPC   C4A41322   1.143  36.102   7.259
 3183POPC   C1B41323   1.003  35.881   6.140
 3183POPC   C2B41324   0.982  36.010   6.520
 3183POPC   C3B41325   0.950  35.793   6.884
 3183POPC   C4B41326   0.742  35.804   7.232
 3184POPC   NC341327   4.014  35.601   5.539
 3184POPC   PO441328   4.292  36.114   5.457
 3184POPC   GL141329   4.253  36.196   5.872
 3184POPC   GL241330   4.172  35.863   5.959
 3184POPC   C1A41331   4.321  36.228   6.319
 3184POPC   D2A41332   4.540  36.468   6.617
 3184POPC   C3A41333   4.245  36.367   6.896
 3184POPC   C4A41334   4.084  36.020   7.082
 3184POPC   C1B41335   4.595  35.867   6.102
 3184POPC   C2B41336   4.707  35.960   6.537
 3184POPC   C3B41337   4.635  36.072   6.967
 3184POPC   C4B41338   4.493  35.916   7.379
 3185POPC   NC341339  22.302  34.723   5.120
 3185POPC   PO441340  22.014  35.286   5.464
 3185POPC   GL141341  22.174  35.456   5.832
 3185POPC   GL241342  22.414  35.262   5.894
 3185POPC   C1A41343  22.069  35.396   6.281
 3185POPC   D2A41344  21.876  35.531   6.673
 3185POPC   C3A41345  22.114  35.339   6.999
 3185POPC   C4A41346  22.327  35.401   7.400
 3185POPC   C1B41347  22.423  35.033   6.229
 3185POPC   C2B41348  22.428  35.176   6.595
 3185POPC   C3B41349  22.398  34.892   6.903
 3185POPC   C4B41350  22.295  34.923   7.278
 3186POPC   NC341351  20.618  11.705   5.386
 3186POPC   PO441352  20.516  11.113   5.338
 3186POPC   GL141353  20.644  11.324   5.734
 3186POPC   GL241354  20.977  11.231   5.866
 3186POPC   C1A41355  20.549  11.338   6.199
 3186POPC   D2A41356  20.710  11.314   6.639
 3186POPC   C3A41357  20.450  11.406   7.038
 3186POPC   C4A41358  20.232  11.141   7.374
 3186POPC   C1B41359  21.032  11.518   6.226
 3186POPC   C2B41360  21.149  11.655   6.651
 3186POPC   C3B41361  21.009  11.492   7.029
 3186POPC   C4B41362  20.777  11.682   7.375
 3187POPC   NC341363  25.824  10.930   5.361
 3187POPC   PO441364  26.010  11.507   5.492
 3187POPC   GL141365  25.867  11.286   5.810
 3187POPC   GL241366  26.152  11.065   5.774
 3187POPC   C1A41367  25.880  11.473   6.220
 3187POPC   D2A41368  26.064  11.332   6.600
 3187POPC   C3A41369  26.235  11.461   6.957
 3187POPC   C4A41370  25.868  11.493   7.217
 3187POPC   C1B41371  26.338  11.227   6.145
 3187POPC   C2B41372  26.413  10.994   6.522
 3187POPC   C3B41373  26.354  10.917   6.965
 3187POPC   C4B41374  26.236  11.145   7.354
 3188POPC   NC341375  17.128  18.961   5.609
 3188POPC   PO441376  17.746  19.169   5.443
 3188POPC   GL141377  17.501  19.288   5.796
 3188POPC   GL241378  17.722  19.481   5.933
 3188POPC   C1A41379  17.436  19.104   6.212
 3188POPC   D2A41380  17.640  18.821   6.494
 3188POPC   C3A41381  17.497  18.753   6.883
 3188POPC   C4A41382  17.356  19.016   7.207
 3188POPC   C1B41383  17.800  19.428   6.370
 3188POPC   C2B41384  17.575  19.279   6.744
 3188POPC   C3B41385  17.820  19.175   7.109
 3188POPC   C4B41386  17.872  19.353   7.530
 3189POPC   NC341387  15.363  10.611   5.554
 3189POPC   PO441388  14.808  10.841   5.343
 3189POPC   GL141389  14.897  10.762   5.791
 3189POPC   GL241390  15.026  10.418   5.887
 3189POPC   C1A41391  15.032  10.785   6.241
 3189POPC   D2A41392  15.361  10.770   6.562
 3189POPC   C3A41393  15.249  10.834   7.006
 3189POPC   C4A41394  15.309  10.783   7.449
 3189POPC   C1B41395  14.832  10.291   6.275
 3189POPC   C2B41396  14.966  10.460   6.665
 3189POPC   C3B41397  15.330  10.336   6.910
 3189POPC   C4B41398  15.322  10.175   7.319
 3190POPC   NC341399   3.480  40.850   5.413
 3190POPC   PO441400   3.194  40.273   5.646
 3190POPC   GL141401   3.426  40.531   5.869
 3190POPC   GL241402   3.758  40.605   5.851
 3190POPC   C1A41403   3.503  40.564   6.291
 3190POPC   D2A41404   3.381  40.784   6.586
 3190POPC   C3A41405   3.412  40.535   6.886
 3190POPC   C4A41406   3.301  40.592   7.233
 3190POPC   C1B41407   3.634  41.008   6.101
 3190POPC   C2B41408   3.800  41.086   6.498
 3190POPC   C3B41409   3.820  40.851   6.870
 3190POPC   C4B41410   3.685  40.926   7.274
 3191POPC   NC341411  17.912   7.804   5.319
 3191POPC   PO441412  18.353   7.365   5.442
 3191POPC   GL141413  18.226   7.358   5.850
 3191POPC   GL241414  18.028   7.059   5.769
 3191POPC   C1A41415  18.409   7.448   6.280
 3191POPC   D2A41416  18.289   7.637   6.686
 3191POPC   C3A41417  18.370   7.502   7.107
 3191POPC   C4A41418  18.325   7.549   7.570
 3191POPC   C1B41419  18.130   7.016   6.207
 3191POPC   C2B41420  18.103   7.166   6.626
 3191POPC   C3B41421  18.152   6.999   7.024
 3191POPC   C4B41422  18.249   7.072   7.431
 3192POPC   NC341423  23.619  21.513   5.250
 3192POPC   PO441424  23.524  20.958   5.572
 3192POPC   GL141425  23.741  21.088   5.909
 3192POPC   GL241426  24.101  21.102   5.871
 3192POPC   C1A41427  23.557  21.306   6.268
 3192POPC   D2A41428  23.751  21.591   6.564
 3192POPC   C3A41429  23.580  21.454   6.947
 3192POPC   C4A41430  23.547  21.202   7.313
 3192POPC   C1B41431  24.054  21.239   6.291
 3192POPC   C2B41432  23.903  21.093   6.669
 3192POPC   C3B41433  24.012  21.163   7.083
 3192POPC   C4B41434  24.032  21.176   7.560
 3193POPC   NC341435  24.379   1.501   5.271
 3193POPC   PO441436  24.340   0.907   5.498
 3193POPC   GL141437  24.401   1.265   5.759
 3193POPC   GL241438  24.279   1.638   5.749
 3193POPC   C1A41439  24.504   1.216   6.175
 3193POPC   D2A41440  24.390   1.014   6.553
 3193POPC   C3A41441  24.650   1.113   6.886
 3193POPC   C4A41442  24.550   1.106   7.303
 3193POPC   C1B41443  24.535   1.734   6.131
 3193POPC   C2B41444  24.540   1.548   6.576
 3193POPC   C3B41445  24.383   1.528   7.010
 3193POPC   C4B41446  24.179   1.431   7.419
 3194POPC   NC341447  22.096  36.699   5.413
 3194POPC   PO441448  22.732  36.966   5.458
 3194POPC   GL141449  22.456  36.744   5.805
 3194POPC   GL241450  22.054  36.742   5.909
 3194POPC   C1A41451  22.398  36.736   6.279
 3194POPC   D2A41452  22.293  36.528   6.655
 3194POPC   C3A41453  22.281  36.670   7.054
 3194POPC   C4A41454  21.958  36.604   7.340
 3194POPC   C1B41455  21.890  36.891   6.327
 3194POPC   C2B41456  21.995  36.975   6.763
 3194POPC   C3B41457  21.956  37.091   7.199
 3194POPC   C4B41458  22.172  37.405   7.457
 3195POPC   NC341459  10.908  12.654   5.585
 3195POPC   PO441460  10.307  12.959   5.495
 3195POPC   GL141461  10.507  12.833   5.832
 3195POPC   GL241462  10.782  13.078   5.905
 3195POPC   C1A41463  10.602  12.685   6.230
 3195POPC   D2A41464  10.353  12.515   6.572
 3195POPC   C3A41465  10.552  12.688   6.893
 3195POPC   C4A41466  10.601  12.818   7.282
 3195POPC   C1B41467  10.419  13.205   6.155
 3195POPC   C2B41468  10.468  13.064   6.561
 3195POPC   C3B41469  10.566  13.222   6.951
 3195POPC   C4B41470  10.334  13.348   7.313
 3196POPC   NC341471  29.652  27.393   5.433
 3196POPC   PO441472  30.026  26.714   5.374
 3196POPC   GL141473  29.965  27.008   5.726
 3196POPC   GL241474  29.623  27.075   5.843
 3196POPC   C1A41475  30.016  26.819   6.134
 3196POPC   D2A41476  30.088  26.561   6.527
 3196POPC   C3A41477  30.018  26.725   6.946
 3196POPC   C4A41478  29.826  26.620   7.352
 3196POPC   C1B41479  29.514  26.819   6.235
 3196POPC   C2B41480  29.585  26.700   6.661
 3196POPC   C3B41481  29.530  26.880   7.053
 3196POPC   C4B41482  29.460  26.974   7.506
 3197POPC   NC341483  42.117  17.219   5.474
 3197POPC   PO441484  41.471  17.386   5.297
 3197POPC   GL141485  41.465  17.536   5.725
 3197POPC   GL241486  41.812  17.650   5.788
 3197POPC   C1A41487  41.368  17.478   6.180
 3197POPC   D2A41488  41.286  17.725   6.573
 3197POPC   C3A41489  41.354  17.502   6.949
 3197POPC   C4A41490  41.092  17.612   7.301
 3197POPC   C1B41491  42.011  17.665   6.231
 3197POPC   C2B41492  41.813  17.601   6.649
 3197POPC   C3B41493  41.844  17.350   7.045
 3197POPC   C4B41494  41.858  17.294   7.532
 3198POPC   NC341495   7.832   0.310   5.136
 3198POPC   PO441496   8.399   0.399   5.503
 3198POPC   GL141497   8.097   0.177   5.686
 3198POPC   GL241498   8.298   0.036   5.944
 3198POPC   C1A41499   7.816   0.204   6.016
 3198POPC   D2A41500   7.741   0.166   6.451
 3198POPC   C3A41501   8.051   0.290   6.727
 3198POPC   C4A41502   7.987   0.297   7.147
 3198POPC   C1B41503   8.287   0.429   6.197
 3198POPC   C2B41504   8.503   0.509   6.595
 3198POPC   C3B41505   8.357   0.628   7.010
 3198POPC   C4B41506   8.565   0.609   7.392
 3199POPC   NC341507  43.640  11.080   5.477
 3199POPC   PO441508  43.170  10.560   5.413
 3199POPC   GL141509  43.103  10.348   5.822
 3199POPC   GL241510  43.448  10.314   5.911
 3199POPC   C1A41511  43.053  10.382   6.307
 3199POPC   D2A41512  43.218  10.123   6.650
 3199POPC   C3A41513  43.290  10.276   7.088
 3199POPC   C4A41514  43.092  10.509   7.414
 3199POPC   C1B41515  43.525  10.591   6.280
 3199POPC   C2B41516  43.367  10.628   6.708
 3199POPC   C3B41517  43.357  10.830   7.118
 3199POPC   C4B41518  43.531  10.789   7.543
 3200POPC   NC341519   7.693  30.605   5.337
 3200POPC   PO441520   7.002  30.739   5.171
 3200POPC   GL141521   7.260  30.734   5.619
 3200POPC   GL241522   7.288  30.388   5.804
 3200POPC   C1A41523   7.451  30.794   6.077
 3200POPC   D2A41524   7.317  30.996   6.479
 3200POPC   C3A41525   7.531  30.993   6.871
 3200POPC   C4A41526   7.619  30.695   7.188
 3200POPC   C1B41527   7.565  30.302   6.184
 3200POPC   C2B41528   7.616  30.426   6.645
 3200POPC   C3B41529   7.952  30.371   6.959
 3200POPC   C4B41530   7.931  30.341   7.428
 3201POPC   NC341531  37.378  11.378   5.445
 3201POPC   PO441532  36.737  11.654   5.308
 3201POPC   GL141533  36.914  11.551   5.706
 3201POPC   GL241534  36.692  11.261   5.757
 3201POPC   C1A41535  36.946  11.444   6.157
 3201POPC   D2A41536  36.762  11.563   6.537
 3201POPC   C3A41537  37.063  11.451   6.819
 3201POPC   C4A41538  36.993  11.495   7.242
 3201POPC   C1B41539  36.616  11.030   6.146
 3201POPC   C2B41540  36.836  11.054   6.517
 3201POPC   C3B41541  36.660  11.154   6.922
 3201POPC   C4B41542  36.828  10.991   7.281
 3202POPC   NC341543   5.694   6.996   5.323
 3202POPC   PO441544   5.984   6.406   5.556
 3202POPC   GL141545   5.913   6.530   5.952
 3202POPC   GL241546   5.787   6.867   5.877
 3202POPC   C1A41547   5.776   6.633   6.377
 3202POPC   D2A41548   5.504   6.861   6.603
 3202POPC   C3A41549   5.653   6.777   6.977
 3202POPC   C4A41550   5.845   6.712   7.348
 3202POPC   C1B41551   6.148   6.908   6.206
 3202POPC   C2B41552   6.186   6.874   6.641
 3202POPC   C3B41553   6.053   7.095   7.007
 3202POPC   C4B41554   6.047   7.178   7.433
 3203POPC   NC341555   1.047   4.805   5.535
 3203POPC   PO441556   1.479   5.354   5.602
 3203POPC   GL141557   1.105   5.251   5.866
 3203POPC   GL241558   1.153   5.605   5.987
 3203POPC   C1A41559   0.951   4.944   6.177
 3203POPC   D2A41560   1.184   4.812   6.556
 3203POPC   C3A41561   1.065   4.897   6.979
 3203POPC   C4A41562   0.946   5.233   7.257
 3203POPC   C1B41563   1.254   5.332   6.347
 3203POPC   C2B41564   1.236   5.368   6.810
 3203POPC   C3B41565   1.445   5.244   7.169
 3203POPC   C4B41566   1.446   5.419   7.593
 3204POPC   NC341567  13.898  34.492   5.357
 3204POPC   PO441568  14.576  34.548   5.292
 3204POPC   GL141569  14.419  34.421   5.709
 3204POPC   GL241570  14.176  34.692   5.743
 3204POPC   C1A41571  14.494  34.260   6.150
 3204POPC   D2A41572  14.662  34.437   6.568
 3204POPC   C3A41573  14.789  34.178   6.900
 3204POPC   C4A41574  14.667  34.114   7.341
 3204POPC   C1B41575  14.373  34.755   6.157
 3204POPC   C2B41576  14.205  34.655   6.562
 3204POPC   C3B41577  14.256  34.433   6.936
 3204POPC   C4B41578  14.246  34.409   7.387
 3205POPC   NC341579  42.853  33.895   5.581
 3205POPC   PO441580  43.522  33.952   5.363
 3205POPC   GL141581  43.338  33.813   5.765
 3205POPC   GL241582  43.230  33.483   5.708
 3205POPC   C1A41583  43.253  33.936   6.211
 3205POPC   D2A41584  43.008  33.775   6.586
 3205POPC   C3A41585  43.115  34.013   6.955
 3205POPC   C4A41586  43.173  34.072   7.389
 3205POPC   C1B41587  43.160  33.433   6.173
 3205POPC   C2B41588  43.310  33.371   6.613
 3205POPC   C3B41589  43.117  33.455   7.041
 3205POPC   C4B41590  43.057  33.292   7.480
 3206POPC   NC341591   8.298   4.340   5.466
 3206POPC   PO441592   7.643   4.081   5.324
 3206POPC   GL141593   7.852   4.243   5.723
 3206POPC   GL241594   7.934   4.614   5.745
 3206POPC   C1A41595   8.041   4.221   6.163
 3206POPC   D2A41596   8.187   4.007   6.556
 3206POPC   C3A41597   8.340   4.277   6.906
 3206POPC   C4A41598   8.319   4.285   7.358
 3206POPC   C1B41599   7.970   4.755   6.204
 3206POPC   C2B41600   8.021   4.700   6.679
 3206POPC   C3B41601   8.086   4.776   7.137
 3206POPC   C4B41602   8.436   4.766   7.448
 3207POPC   NC341603  31.015  32.413   5.613
 3207POPC   PO441604  30.465  31.997   5.397
 3207POPC   GL141605  30.480  32.140   5.823
 3207POPC   GL241606  30.615  32.488   5.917
 3207POPC   C1A41607  30.683  32.069   6.227
 3207POPC   D2A41608  30.809  31.804   6.578
 3207POPC   C3A41609  30.602  32.000   6.913
 3207POPC   C4A41610  30.721  32.150   7.270
 3207POPC   C1B41611  30.958  32.534   6.270
 3207POPC   C2B41612  31.015  32.452   6.714
 3207POPC   C3B41613  30.761  32.587   7.052
 3207POPC   C4B41614  30.475  32.606   7.411
 3208POPC   NC341615  41.688   3.468   5.514
 3208POPC   PO441616  41.378   4.004   5.831
 3208POPC   GL141617  41.644   3.713   5.963
 3208POPC   GL241618  41.433   3.423   5.989
 3208POPC   C1A41619  41.769   3.580   6.352
 3208POPC   D2A41620  41.661   3.296   6.648
 3208POPC   C3A41621  41.905   3.367   6.998
 3208POPC   C4A41622  41.787   3.620   7.345
 3208POPC   C1B41623  41.239   3.123   6.326
 3208POPC   C2B41624  41.194   3.094   6.793
 3208POPC   C3B41625  41.411   3.359   7.101
 3208POPC   C4B41626  41.322   3.425   7.549
 3209POPC   NC341627  24.974  35.763   5.473
 3209POPC   PO441628  25.223  35.113   5.456
 3209POPC   GL141629  24.958  35.340   5.815
 3209POPC   GL241630  25.034  35.685   5.970
 3209POPC   C1A41631  24.778  35.348   6.266
 3209POPC   D2A41632  24.950  35.538   6.656
 3209POPC   C3A41633  25.032  35.288   7.039
 3209POPC   C4A41634  25.268  35.486   7.383
 3209POPC   C1B41635  25.316  35.515   6.282
 3209POPC   C2B41636  25.608  35.302   6.561
 3209POPC   C3B41637  25.534  35.218   6.993
 3209POPC   C4B41638  25.477  34.885   7.244
 3210POPC   NC341639  17.987  41.369   5.456
 3210POPC   PO441640  18.657  41.331   5.444
 3210POPC   GL141641  18.387  41.557   5.770
 3210POPC   GL241642  18.086  41.797   5.745
 3210POPC   C1A41643  18.256  41.412   6.206
 3210POPC   D2A41644  17.988  41.159   6.514
 3210POPC   C3A41645  17.987  41.338   6.935
 3210POPC   C4A41646  18.350  41.558   7.124
 3210POPC   C1B41647  17.853  41.693   6.124
 3210POPC   C2B41648  17.980  41.710   6.548
 3210POPC   C3B41649  17.957  41.875   6.951
 3210POPC   C4B41650  17.888  41.693   7.306
 3211POPC   NC341651   1.086   5.568   5.484
 3211POPC   PO441652   1.203   6.190   5.387
 3211POPC   GL141653   1.234   6.111   5.809
 3211POPC   GL241654   1.539   5.906   5.785
 3211POPC   C1A41655   1.279   6.027   6.249
 3211POPC   D2A41656   1.039   5.759   6.518
 3211POPC   C3A41657   1.005   5.885   6.918
 3211POPC   C4A41658   1.187   5.688   7.246
 3211POPC   C1B41659   1.632   5.663   6.161
 3211POPC   C2B41660   1.564   5.683   6.569
 3211POPC   C3B41661   1.557   5.872   6.945
 3211POPC   C4B41662   1.342   6.193   7.168
 3212POPC   NC341663  28.547   0.564   5.511
 3212POPC   PO441664  28.077   0.095   5.393
 3212POPC   GL141665  28.157   0.357   5.783
 3212POPC   GL241666  28.445   0.169   5.849
 3212POPC   C1A41667  28.438   0.570   6.160
 3212POPC   D2A41668  28.634   0.468   6.573
 3212POPC   C3A41669  28.410   0.688   6.898
 3212POPC   C4A41670  28.409   0.947   7.270
 3212POPC   C1B41671  28.520   0.045   6.247
 3212POPC   C2B41672  28.325   0.043   6.655
 3212POPC   C3B41673  28.398   0.208   7.057
 3212POPC   C4B41674  28.139   0.487   7.306
 3213POPC   NC341675  41.665  24.795   5.488
 3213POPC   PO441676  41.400  24.100   5.425
 3213POPC   GL141677  41.595  24.357   5.748
 3213POPC   GL241678  41.298  24.494   5.859
 3213POPC   C1A41679  41.660  24.606   6.172
 3213POPC   D2A41680  41.344  24.586   6.511
 3213POPC   C3A41681  41.537  24.700   6.892
 3213POPC   C4A41682  41.806  24.602   7.211
 3213POPC   C1B41683  41.460  24.147   6.208
 3213POPC   C2B41684  41.395  24.107   6.685
 3213POPC   C3B41685  41.605  24.110   7.085
 3213POPC   C4B41686  41.585  23.908   7.513
 3214POPC   NC341687  20.527   7.493   5.014
 3214POPC   PO441688  20.741   7.043   5.509
 3214POPC   GL141689  20.663   7.149   5.903
 3214POPC   GL241690  20.424   7.393   5.901
 3214POPC   C1A41691  20.752   7.254   6.339
 3214POPC   D2A41692  21.124   7.326   6.625
 3214POPC   C3A41693  21.012   7.596   6.972
 3214POPC   C4A41694  20.751   7.375   7.241
 3214POPC   C1B41695  20.208   7.114   6.188
 3214POPC   C2B41696  20.319   7.058   6.592
 3214POPC   C3B41697  20.291   7.270   6.961
 3214POPC   C4B41698  19.913   7.267   7.180
 3215POPC   NC341699  38.097   9.930   5.590
 3215POPC   PO441700  38.720   9.666   5.504
 3215POPC   GL141701  38.487   9.588   5.861
 3215POPC   GL241702  38.214   9.419   5.680
 3215POPC   C1A41703  38.725   9.668   6.247
 3215POPC   D2A41704  38.969   9.703   6.608
 3215POPC   C3A41705  38.779   9.691   7.018
 3215POPC   C4A41706  38.400   9.907   7.198
 3215POPC   C1B41707  38.105   9.280   6.085
 3215POPC   C2B41708  38.283   9.520   6.413
 3215POPC   C3B41709  38.304   9.576   6.820
 3215POPC   C4B41710  38.353   9.399   7.201
 3216POPC   NC341711  12.090  33.376   5.136
 3216POPC   PO441712  12.245  32.797   5.454
 3216POPC   GL141713  12.045  32.975   5.857
 3216POPC   GL241714  11.904  33.291   5.711
 3216POPC   C1A41715  12.133  32.929   6.259
 3216POPC   D2A41716  12.431  33.020   6.596
 3216POPC   C3A41717  12.178  32.863   6.911
 3216POPC   C4A41718  12.142  32.933   7.315
 3216POPC   C1B41719  11.967  33.400   6.160
 3216POPC   C2B41720  11.970  33.264   6.612
 3216POPC   C3B41721  12.212  33.367   6.991
 3216POPC   C4B41722  12.021  33.432   7.411
 3217POPC   NC341723  14.921  19.118   5.427
 3217POPC   PO441724  14.333  18.868   5.324
 3217POPC   GL141725  14.348  18.839   5.731
 3217POPC   GL241726  14.006  18.702   5.803
 3217POPC   C1A41727  14.562  19.003   6.111
 3217POPC   D2A41728  14.482  19.279   6.483
 3217POPC   C3A41729  14.642  19.119   6.870
 3217POPC   C4A41730  14.478  19.134   7.267
 3217POPC   C1B41731  14.287  18.559   6.138
 3217POPC   C2B41732  14.413  18.732   6.531
 3217POPC   C3B41733  14.217  18.851   6.881
 3217POPC   C4B41734  14.010  18.922   7.243
 3218POPC   NC341735   1.359  27.118   5.446
 3218POPC   PO441736   1.378  26.525   5.191
 3218POPC   GL141737   1.424  26.677   5.677
 3218POPC   GL241738   1.344  26.421   5.910
 3218POPC   C1A41739   1.348  26.886   6.108
 3218POPC   D2A41740   1.425  26.800   6.553
 3218POPC   C3A41741   1.283  27.067   6.886
 3218POPC   C4A41742   1.439  27.196   7.293
 3218POPC   C1B41743   1.076  26.489   6.297
 3218POPC   C2B41744   1.013  26.442   6.751
 3218POPC   C3B41745   1.193  26.593   7.127
 3218POPC   C4B41746   0.921  26.618   7.505
 3219POPC   NC341747   7.386  44.924   5.500
 3219POPC   PO441748   7.291  44.280   5.641
 3219POPC   GL141749   7.412  44.632   5.917
 3219POPC   GL241750   7.221  44.982   5.972
 3219POPC   C1A41751   7.482  44.741   6.330
 3219POPC   D2A41752   7.552  44.777   6.748
 3219POPC   C3A41753   7.342  44.452   6.951
 3219POPC   C4A41754   7.532  44.498   7.315
 3219POPC   C1B41755   7.171   0.137   6.419
 3219POPC   C2B41756   7.155   0.081   6.872
 3219POPC   C3B41757   7.398   0.022   7.252
 3219POPC   C4B41758   7.300   0.252   7.662
 3220POPC   NC341759  24.768   0.855   5.645
 3220POPC   PO441760  25.017   0.384   5.225
 3220POPC   GL141761  25.343   0.519   5.703
 3220POPC   GL241762  25.111   0.723   6.002
 3220POPC   C1A41763  25.545   0.584   6.179
 3220POPC   D2A41764  25.562   0.415   6.660
 3220POPC   C3A41765  25.341   0.559   7.092
 3220POPC   C4A41766  24.885   0.624   7.272
 3220POPC   C1B41767  25.096   0.378   6.318
 3220POPC   C2B41768  25.073   0.197   6.693
 3220POPC   C3B41769  24.970   0.179   7.067
 3220POPC   C4B41770  24.943  44.939   7.415
 3221POPC   NC341771   7.689  44.116   5.463
 3221POPC   PO441772   7.356  43.590   5.280
 3221POPC   GL141773   7.288  43.731   5.724
 3221POPC   GL241774   7.606  43.764   5.815
 3221POPC   C1A41775   7.270  43.692   6.216
 3221POPC   D2A41776   7.261  43.745   6.708
 3221POPC   C3A41777   7.039  43.561   7.113
 3221POPC   C4A41778   7.081  43.526   7.627
 3221POPC   C1B41779   7.635  44.087   6.150
 3221POPC   C2B41780   7.712  44.321   6.524
 3221POPC   C3B41781   7.805  44.232   6.939
 3221POPC   C4B41782   7.587  43.931   7.209
 3222POPC   NC341783  13.429  17.053   5.319
 3222POPC   PO441784  13.743  16.401   5.487
 3222POPC   GL141785  13.781  16.614   5.877
 3222POPC   GL241786  13.469  16.610   6.008
 3222POPC   C1A41787  13.891  16.569   6.321
 3222POPC   D2A41788  14.090  16.515   6.693
 3222POPC   C3A41789  13.879  16.675   7.019
 3222POPC   C4A41790  13.728  16.597   7.442
 3222POPC   C1B41791  13.383  16.710   6.440
 3222POPC   C2B41792  13.364  16.760   6.909
 3222POPC   C3B41793  13.380  16.927   7.331
 3222POPC   C4B41794  13.794  17.091   7.562
 3223POPC   NC341795  16.943  36.820   5.421
 3223POPC   PO441796  16.402  37.192   5.380
 3223POPC   GL141797  16.662  37.149   5.763
 3223POPC   GL241798  17.036  37.237   5.736
 3223POPC   C1A41799  16.534  36.990   6.191
 3223POPC   D2A41800  16.648  36.791   6.589
 3223POPC   C3A41801  16.495  37.053   6.936
 3223POPC   C4A41802  16.684  37.245   7.278
 3223POPC   C1B41803  17.035  36.905   6.087
 3223POPC   C2B41804  17.181  36.842   6.534
 3223POPC   C3B41805  17.011  36.895   6.962
 3223POPC   C4B41806  16.931  36.637   7.299
 3224POPC   NC341807   8.506  42.739   5.607
 3224POPC   PO441808   9.131  42.928   5.358
 3224POPC   GL141809   9.096  43.224   5.721
 3224POPC   GL241810   8.846  43.047   5.799
 3224POPC   C1A41811   8.936  43.350   6.173
 3224POPC   D2A41812   9.156  43.161   6.524
 3224POPC   C3A41813   9.089  43.335   6.929
 3224POPC   C4A41814   9.147  43.185   7.340
 3224POPC   C1B41815   8.908  42.819   6.191
 3224POPC   C2B41816   8.915  42.676   6.617
 3224POPC   C3B41817   9.002  42.785   7.057
 3224POPC   C4B41818   8.879  42.775   7.501
 3225POPC   NC341819  24.636  34.260   5.007
 3225POPC   PO441820  24.347  33.801   5.503
 3225POPC   GL141821  24.548  33.818   5.884
 3225POPC   GL241822  24.788  34.086   5.983
 3225POPC   C1A41823  24.408  33.949   6.282
 3225POPC   D2A41824  24.447  33.720   6.631
 3225POPC   C3A41825  24.219  33.745   6.994
 3225POPC   C4A41826  24.212  34.118   7.255
 3225POPC   C1B41827  24.911  33.794   6.357
 3225POPC   C2B41828  24.904  33.732   6.823
 3225POPC   C3B41829  24.675  33.943   7.121
 3225POPC   C4B41830  24.766  34.006   7.561
 3226POPC   NC341831  23.390  30.211   5.622
 3226POPC   PO441832  23.761  29.760   5.228
 3226POPC   GL141833  23.727  29.812   5.665
 3226POPC   GL241834  24.034  29.996   5.725
 3226POPC   C1A41835  23.636  29.856   6.112
 3226POPC   D2A41836  23.613  29.975   6.540
 3226POPC   C3A41837  23.718  29.715   6.889
 3226POPC   C4A41838  23.598  29.924   7.268
 3226POPC   C1B41839  24.092  30.195   6.111
 3226POPC   C2B41840  24.130  30.038   6.522
 3226POPC   C3B41841  24.004  30.160   6.929
 3226POPC   C4B41842  24.138  29.888   7.260
 3227POPC   NC341843  20.379  36.560   5.375
 3227POPC   PO441844  20.873  37.068   5.376
 3227POPC   GL141845  20.638  36.864   5.693
 3227POPC   GL241846  20.852  36.597   5.837
 3227POPC   C1A41847  20.446  37.014   6.078
 3227POPC   D2A41848  20.800  37.085   6.376
 3227POPC   C3A41849  20.832  37.004   6.804
 3227POPC   C4A41850  20.498  37.118   7.038
 3227POPC   C1B41851  20.660  36.605   6.260
 3227POPC   C2B41852  20.428  36.735   6.649
 3227POPC   C3B41853  20.615  36.603   7.047
 3227POPC   C4B41854  21.014  36.416   7.144
 3228POPC   NC341855  14.329  18.422   5.409
 3228POPC   PO441856  14.523  17.795   5.426
 3228POPC   GL141857  14.507  18.081   5.769
 3228POPC   GL241858  14.714  18.385   5.751
 3228POPC   C1A41859  14.417  18.074   6.190
 3228POPC   D2A41860  14.260  17.993   6.590
 3228POPC   C3A41861  14.260  18.328   6.856
 3228POPC   C4A41862  14.446  18.126   7.164
 3228POPC   C1B41863  14.804  18.477   6.172
 3228POPC   C2B41864  14.703  18.319   6.550
 3228POPC   C3B41865  14.752  18.542   6.918
 3228POPC   C4B41866  14.519  18.646   7.242
 3229POPC   NC341867  37.333  32.651   5.067
 3229POPC   PO441868  36.731  32.760   5.358
 3229POPC   GL141869  36.876  33.057   5.711
 3229POPC   GL241870  37.236  33.016   5.753
 3229POPC   C1A41871  36.990  33.222   6.171
 3229POPC   D2A41872  36.991  33.074   6.624
 3229POPC   C3A41873  36.706  33.309   6.935
 3229POPC   C4A41874  36.806  33.325   7.397
 3229POPC   C1B41875  37.029  32.718   6.082
 3229POPC   C2B41876  36.781  32.612   6.440
 3229POPC   C3B41877  36.775  32.601   6.873
 3229POPC   C4B41878  36.941  32.897   7.153
 3230POPC   NC341879  43.216   0.804   5.299
 3230POPC   PO441880  42.895   0.262   5.248
 3230POPC   GL141881  43.005   0.181   5.672
 3230POPC   GL241882  43.207   0.486   5.702
 3230POPC   C1A41883  42.843   0.323   6.099
 3230POPC   D2A41884  42.630   0.305   6.517
 3230POPC   C3A41885  42.938   0.255   6.866
 3230POPC   C4A41886  42.971   0.409   7.285
 3230POPC   C1B41887  43.356   0.541   6.125
 3230POPC   C2B41888  43.432   0.370   6.542
 3230POPC   C3B41889  43.376   0.538   6.924
 3230POPC   C4B41890  43.471   0.512   7.326
 3231POPC   NC341891  11.655  24.525   5.644
 3231POPC   PO441892  11.128  24.835   5.293
 3231POPC   GL141893  11.192  24.747   5.767
 3231POPC   GL241894  11.483  24.872   5.969
 3231POPC   C1A41895  11.210  24.459   6.158
 3231POPC   D2A41896  11.490  24.308   6.526
 3231POPC   C3A41897  11.307  24.348   6.946
 3231POPC   C4A41898  11.086  24.110   7.263
 3231POPC   C1B41899  11.555  24.786   6.353
 3231POPC   C2B41900  11.677  24.801   6.731
 3231POPC   C3B41901  11.581  24.734   7.130
 3231POPC   C4B41902  11.616  24.739   7.574
 3232POPC   NC341903  19.877  15.441   5.112
 3232POPC   PO441904  19.913  14.887   5.410
 3232POPC   GL141905  19.878  15.138   5.802
 3232POPC   GL241906  19.915  14.842   5.974
 3232POPC   C1A41907  19.804  15.307   6.243
 3232POPC   D2A41908  19.505  15.377   6.601
 3232POPC   C3A41909  19.677  15.488   7.000
 3232POPC   C4A41910  20.020  15.300   7.222
 3232POPC   C1B41911  20.142  14.946   6.348
 3232POPC   C2B41912  19.998  15.107   6.750
 3232POPC   C3B41913  19.816  14.857   7.112
 3232POPC   C4B41914  20.013  14.500   7.351
 3233POPC   NC341915  30.448  18.414   5.465
 3233POPC   PO441916  31.112  18.415   5.302
 3233POPC   GL141917  30.995  18.127   5.678
 3233POPC   GL241918  30.629  17.967   5.713
 3233POPC   C1A41919  30.895  18.109   6.148
 3233POPC   D2A41920  30.716  18.288   6.538
 3233POPC   C3A41921  30.897  18.190   6.944
 3233POPC   C4A41922  30.897  18.545   7.241
 3233POPC   C1B41923  30.377  18.142   6.093
 3233POPC   C2B41924  30.245  18.017   6.540
 3233POPC   C3B41925  30.405  18.083   6.967
 3233POPC   C4B41926  30.399  18.454   7.203
 3234POPC   NC341927  38.978  12.238   5.476
 3234POPC   PO441928  39.452  11.841   5.192
 3234POPC   GL141929  39.471  11.937   5.672
 3234POPC   GL241930  39.159  11.962   5.847
 3234POPC   C1A41931  39.556  11.847   6.161
 3234POPC   D2A41932  39.501  11.629   6.574
 3234POPC   C3A41933  39.498  11.827   6.965
 3234POPC   C4A41934  39.339  12.180   7.144
 3234POPC   C1B41935  39.148  12.151   6.246
 3234POPC   C2B41936  39.127  12.162   6.682
 3234POPC   C3B41937  38.963  12.467   6.974
 3234POPC   C4B41938  38.737  12.726   7.188
 3235POPC   NC341939  40.089  36.286   5.218
 3235POPC   PO441940  39.561  35.995   5.491
 3235POPC   GL141941  39.633  36.059   5.899
 3235POPC   GL241942  39.592  35.690   5.931
 3235POPC   C1A41943  40.002  36.092   6.213
 3235POPC   D2A41944  40.258  35.883   6.561
 3235POPC   C3A41945  40.263  36.109   6.967
 3235POPC   C4A41946  40.211  36.056   7.413
 3235POPC   C1B41947  39.589  35.856   6.361
 3235POPC   C2B41948  39.784  36.043   6.725
 3235POPC   C3B41949  39.759  35.956   7.158
 3235POPC   C4B41950  39.596  36.205   7.481
 3236POPC   NC341951   1.612  24.641   5.536
 3236POPC   PO441952   1.107  24.341   5.483
 3236POPC   GL141953   1.269  24.396   5.863
 3236POPC   GL241954   1.553  24.187   5.859
 3236POPC   C1A41955   1.220  24.654   6.228
 3236POPC   D2A41956   1.339  24.570   6.656
 3236POPC   C3A41957   1.045  24.473   6.957
 3236POPC   C4A41958   1.053  24.601   7.374
 3236POPC   C1B41959   1.574  24.260   6.312
 3236POPC   C2B41960   1.504  24.108   6.763
 3236POPC   C3B41961   1.504  24.330   7.166
 3236POPC   C4B41962   1.565  24.728   7.411
 3237POPC   NC341963  31.304  27.590   5.189
 3237POPC   PO441964  31.838  27.643   5.549
 3237POPC   GL141965  31.609  27.559   5.896
 3237POPC   GL241966  31.281  27.532   5.721
 3237POPC   C1A41967  31.657  27.509   6.361
 3237POPC   D2A41968  31.549  27.746   6.741
 3237POPC   C3A41969  31.660  27.617   7.166
 3237POPC   C4A41970  31.840  27.255   7.384
 3237POPC   C1B41971  31.168  27.531   6.166
 3237POPC   C2B41972  31.208  27.368   6.586
 3237POPC   C3B41973  31.149  27.558   7.005
 3237POPC   C4B41974  30.910  27.507   7.431
 3238POPC   NC341975  22.662  30.194   5.281
 3238POPC   PO441976  22.209  30.683   5.413
 3238POPC   GL141977  22.305  30.693   5.809
 3238POPC   GL241978  22.514  30.371   5.769
 3238POPC   C1A41979  22.055  30.739   6.186
 3238POPC   D2A41980  22.012  30.432   6.520
 3238POPC   C3A41981  22.118  30.571   6.953
 3238POPC   C4A41982  22.256  30.672   7.377
 3238POPC   C1B41983  22.511  30.475   6.225
 3238POPC   C2B41984  22.408  30.765   6.574
 3238POPC   C3B41985  22.570  30.803   6.987
 3238POPC   C4B41986  22.412  31.123   7.252
 3239POPC   NC341987  16.532  18.778   5.425
 3239POPC   PO441988  16.802  19.290   5.608
 3239POPC   GL141989  16.522  19.040   5.862
 3239POPC   GL241990  16.769  18.813   5.912
 3239POPC   C1A41991  16.418  18.856   6.261
 3239POPC   D2A41992  16.620  18.893   6.662
 3239POPC   C3A41993  16.406  18.993   7.045
 3239POPC   C4A41994  16.495  19.107   7.488
 3239POPC   C1B41995  16.917  19.067   6.244
 3239POPC   C2B41996  17.128  18.978   6.631
 3239POPC   C3B41997  16.967  18.758   7.022
 3239POPC   C4B41998  16.956  18.885   7.487
 3240POPC   NC341999  23.870   7.814   5.605
 3240POPC   PO442000  24.398   7.360   5.456
 3240POPC   GL142001  24.458   7.271   5.837
 3240POPC   GL242002  24.795   7.125   5.784
 3240POPC   C1A42003  24.275   7.512   6.172
 3240POPC   D2A42004  24.409   7.447   6.580
 3240POPC   C3A42005  24.175   7.401   6.948
 3240POPC   C4A42006  24.247   7.059   7.185
 3240POPC   C1B42007  24.827   7.360   6.186
 3240POPC   C2B42008  24.850   7.156   6.590
 3240POPC   C3B42009  24.700   7.252   6.983
 3240POPC   C4B42010  24.884   7.582   7.193
 3241POPC   NC342011  33.338  20.145   5.434
 3241POPC   PO442012  33.054  20.822   5.257
 3241POPC   GL142013  33.191  20.577   5.692
 3241POPC   GL242014  33.414  20.755   5.918
 3241POPC   C1A42015  33.133  20.254   6.088
 3241POPC   D2A42016  33.322  20.140   6.523
 3241POPC   C3A42017  33.285  20.371   6.927
 3241POPC   C4A42018  33.088  20.386   7.337
 3241POPC   C1B42019  33.045  20.739   6.173
 3241POPC   C2B42020  32.985  20.857   6.569
 3241POPC   C3B42021  33.139  21.014   6.934
 3241POPC   C4B42022  32.853  20.839   7.216
 3242POPC   NC342023  22.599  10.174   5.356
 3242POPC   PO442024  22.929   9.576   5.365
 3242POPC   GL142025  22.918   9.900   5.704
 3242POPC   GL242026  23.261  10.018   5.758
 3242POPC   C1A42027  22.833   9.941   6.178
 3242POPC   D2A42028  22.772   9.734   6.592
 3242POPC   C3A42029  22.583   9.973   6.926
 3242POPC   C4A42030  22.833  10.279   7.187
 3242POPC   C1B42031  23.326   9.799   6.127
 3242POPC   C2B42032  23.233   9.977   6.522
 3242POPC   C3B42033  23.112   9.904   6.934
 3242POPC   C4B42034  22.896   9.732   7.254
 3243POPC   NC342035  18.337  44.039   5.288
 3243POPC   PO442036  17.978  43.561   5.561
 3243POPC   GL142037  18.167  43.878   5.829
 3243POPC   GL242038  18.313  44.211   5.771
 3243POPC   C1A42039  18.204  43.747   6.244
 3243POPC   D2A42040  17.956  43.677   6.587
 3243POPC   C3A42041  18.232  43.716   6.893
 3243POPC   C4A42042  18.383  43.575   7.244
 3243POPC   C1B42043  18.315  44.263   6.210
 3243POPC   C2B42044  18.169  44.154   6.612
 3243POPC   C3B42045  18.068  44.349   6.987
 3243POPC   C4B42046  18.243  44.083   7.253
 3244POPC   NC342047  29.609  26.650   5.585
 3244POPC   PO442048  29.201  27.225   5.554
 3244POPC   GL142049  29.163  26.857   5.833
 3244POPC   GL242050  29.104  26.513   5.742
 3244POPC   C1A42051  28.925  26.775   6.190
 3244POPC   D2A42052  28.782  27.006   6.541
 3244POPC   C3A42053  29.061  26.945   6.849
 3244POPC   C4A42054  29.068  26.797   7.227
 3244POPC   C1B42055  29.249  26.376   6.165
 3244POPC   C2B42056  29.118  26.467   6.609
 3244POPC   C3B42057  29.321  26.397   7.031
 3244POPC   C4B42058  29.329  26.463   7.509
 3245POPC   NC342059  26.617   1.647   5.512
 3245POPC   PO442060  26.859   2.250   5.462
 3245POPC   GL142061  26.903   2.112   5.841
 3245POPC   GL242062  26.568   2.009   5.875
 3245POPC   C1A42063  26.836   2.234   6.253
 3245POPC   D2A42064  26.641   2.108   6.628
 3245POPC   C3A42065  26.855   2.259   6.983
 3245POPC   C4A42066  26.882   2.288   7.418
 3245POPC   C1B42067  26.693   1.706   6.193
 3245POPC   C2B42068  26.776   1.566   6.612
 3245POPC   C3B42069  26.714   1.748   7.008
 3245POPC   C4B42070  26.842   1.606   7.410
 3246POPC   NC342071   0.844  18.584   5.410
 3246POPC   PO442072   0.577  17.949   5.314
 3246POPC   GL142073   0.611  18.162   5.713
 3246POPC   GL242074   0.249  18.226   5.739
 3246POPC   C1A42075   0.744  18.214   6.172
 3246POPC   D2A42076   0.583  18.154   6.619
 3246POPC   C3A42077   0.579  18.387   7.032
 3246POPC   C4A42078   0.640  18.482   7.529
 3246POPC   C1B42079   0.244  18.098   6.183
 3246POPC   C2B42080   0.064  18.151   6.599
 3246POPC   C3B42081   0.045  18.098   7.049
 3246POPC   C4B42082   0.163  18.370   7.380
 3247POPC   NC342083  37.117  18.746   5.353
 3247POPC   PO442084  36.592  19.069   5.664
 3247POPC   GL142085  36.733  18.885   5.972
 3247POPC   GL242086  37.055  18.934   5.840
 3247POPC   C1A42087  36.798  18.971   6.401
 3247POPC   D2A42088  36.864  19.352   6.657
 3247POPC   C3A42089  36.768  19.323   7.091
 3247POPC   C4A42090  36.811  19.323   7.581
 3247POPC   C1B42091  37.164  18.637   6.144
 3247POPC   C2B42092  37.116  18.574   6.582
 3247POPC   C3B42093  37.080  18.886   6.903
 3247POPC   C4B42094  36.956  18.908   7.313
 3248POPC   NC342095  13.677   9.234   5.195
 3248POPC   PO442096  13.428   9.842   5.423
 3248POPC   GL142097  13.660   9.866   5.741
 3248POPC   GL242098  13.839   9.566   5.815
 3248POPC   C1A42099  13.453   9.838   6.133
 3248POPC   D2A42100  13.167   9.925   6.482
 3248POPC   C3A42101  13.324   9.742   6.857
 3248POPC   C4A42102  13.442   9.867   7.251
 3248POPC   C1B42103  13.953   9.859   6.155
 3248POPC   C2B42104  13.740   9.830   6.545
 3248POPC   C3B42105  13.852   9.858   6.935
 3248POPC   C4B42106  13.940   9.683   7.300
 3249POPC   NC342107  14.803  31.432   5.499
 3249POPC   PO442108  14.128  31.524   5.390
 3249POPC   GL142109  14.353  31.445   5.758
 3249POPC   GL242110  14.319  31.764   5.838
 3249POPC   C1A42111  14.704  31.492   6.138
 3249POPC   D2A42112  14.801  31.243   6.556
 3249POPC   C3A42113  14.605  31.315   6.967
 3249POPC   C4A42114  14.160  31.326   7.111
 3249POPC   C1B42115  14.222  31.660   6.226
 3249POPC   C2B42116  14.406  31.578   6.586
 3249POPC   C3B42117  14.346  31.781   6.974
 3249POPC   C4B42118  14.166  31.864   7.354
 3250POPC   NC342119  28.544  17.261   5.483
 3250POPC   PO442120  28.032  17.684   5.454
 3250POPC   GL142121  28.217  17.576   5.833
 3250POPC   GL242122  28.138  17.214   5.833
 3250POPC   C1A42123  28.528  17.729   6.188
 3250POPC   D2A42124  28.736  17.617   6.615
 3250POPC   C3A42125  28.507  17.770   6.989
 3250POPC   C4A42126  28.500  17.576   7.413
 3250POPC   C1B42127  28.313  17.269   6.223
 3250POPC   C2B42128  28.236  17.507   6.574
 3250POPC   C3B42129  28.303  17.307   6.955
 3250POPC   C4B42130  28.119  17.286   7.318
 3251POPC   NC342131  34.467   4.457   5.499
 3251POPC   PO442132  35.007   3.943   5.519
 3251POPC   GL142133  34.748   4.180   5.816
 3251POPC   GL242134  34.764   4.525   5.913
 3251POPC   C1A42135  34.380   4.160   6.098
 3251POPC   D2A42136  34.308   4.024   6.526
 3251POPC   C3A42137  34.479   4.238   6.878
 3251POPC   C4A42138  34.406   4.013   7.249
 3251POPC   C1B42139  34.383   4.675   6.151
 3251POPC   C2B42140  34.244   4.683   6.610
 3251POPC   C3B42141  34.319   4.766   7.061
 3251POPC   C4B42142  34.497   4.522   7.341
 3252POPC   NC342143   2.112  16.602   5.354
 3252POPC   PO442144   2.618  16.354   5.675
 3252POPC   GL142145   2.216  16.612   5.854
 3252POPC   GL242146   2.084  16.965   5.787
 3252POPC   C1A42147   1.997  16.643   6.224
 3252POPC   D2A42148   2.027  16.844   6.620
 3252POPC   C3A42149   1.998  16.565   6.973
 3252POPC   C4A42150   2.148  16.382   7.348
 3252POPC   C1B42151   1.788  17.087   6.158
 3252POPC   C2B42152   1.553  17.028   6.550
 3252POPC   C3B42153   1.609  16.931   6.981
 3252POPC   C4B42154   1.525  17.132   7.376
 3253POPC   NC342155   1.277  43.568   5.600
 3253POPC   PO442156   1.414  44.209   5.268
 3253POPC   GL142157   1.318  44.134   5.733
 3253POPC   GL242158   0.979  43.983   5.815
 3253POPC   C1A42159   1.373  44.038   6.201
 3253POPC   D2A42160   1.473  43.662   6.483
 3253POPC   C3A42161   1.352  43.694   6.936
 3253POPC   C4A42162   1.399  44.031   7.233
 3253POPC   C1B42163   0.873  43.908   6.263
 3253POPC   C2B42164   1.013  44.045   6.691
 3253POPC   C3B42165   0.882  43.943   7.120
 3253POPC   C4B42166   0.886  43.502   7.205
 3254POPC   NC342167   2.232   0.929   5.421
 3254POPC   PO442168   2.751   0.462   5.415
 3254POPC   GL142169   2.864   0.409   5.772
 3254POPC   GL242170   2.921   0.046   5.724
 3254POPC   C1A42171   2.715   0.606   6.106
 3254POPC   D2A42172   2.727   0.454   6.483
 3254POPC   C3A42173   2.640   0.684   6.842
 3254POPC   C4A42174   2.800   0.561   7.241
 3254POPC   C1B42175   2.686   0.072   6.113
 3254POPC   C2B42176   2.892  44.952   6.495
 3254POPC   C3B42177   2.871   0.155   6.855
 3254POPC   C4B42178   2.916   0.057   7.213
 3255POPC   NC342179   8.675  17.465   5.195
 3255POPC   PO442180   9.166  17.713   5.514
 3255POPC   GL142181   9.028  17.498   5.854
 3255POPC   GL242182   8.714  17.471   5.724
 3255POPC   C1A42183   9.022  17.495   6.314
 3255POPC   D2A42184   8.863  17.266   6.681
 3255POPC   C3A42185   9.004  17.429   7.067
 3255POPC   C4A42186   9.018  17.894   7.162
 3255POPC   C1B42187   8.592  17.718   6.110
 3255POPC   C2B42188   8.711  17.858   6.549
 3255POPC   C3B42189   8.584  17.703   6.966
 3255POPC   C4B42190   8.656  17.619   7.436
 3256POPC   NC342191   1.677  14.796   5.484
 3256POPC   PO442192   2.126  14.331   5.168
 3256POPC   GL142193   1.993  14.392   5.633
 3256POPC   GL242194   1.879  14.076   5.737
 3256POPC   C1A42195   1.963  14.456   6.111
 3256POPC   D2A42196   2.247  14.430   6.500
 3256POPC   C3A42197   2.126  14.597   6.887
 3256POPC   C4A42198   1.778  14.634   7.177
 3256POPC   C1B42199   1.898  13.962   6.182
 3256POPC   C2B42200   1.952  14.045   6.618
 3256POPC   C3B42201   1.902  14.147   7.042
 3256POPC   C4B42202   1.586  14.078   7.312
 3257POPC   NC342203  17.637  28.766   5.181
 3257POPC   PO442204  18.142  29.262   5.313
 3257POPC   GL142205  18.143  29.114   5.760
 3257POPC   GL242206  18.490  29.090   5.830
 3257POPC   C1A42207  17.955  29.126   6.209
 3257POPC   D2A42208  17.962  29.481   6.546
 3257POPC   C3A42209  17.974  29.414   7.017
 3257POPC   C4A42210  18.246  29.408   7.384
 3257POPC   C1B42211  18.445  29.242   6.264
 3257POPC   C2B42212  18.380  29.216   6.706
 3257POPC   C3B42213  18.253  28.980   7.041
 3257POPC   C4B42214  18.456  28.923   7.418
 3258POPC   NC342215  13.336  24.367   5.454
 3258POPC   PO442216  13.842  24.753   5.309
 3258POPC   GL142217  13.742  24.606   5.742
 3258POPC   GL242218  13.732  24.243   5.778
 3258POPC   C1A42219  13.942  24.532   6.164
 3258POPC   D2A42220  14.045  24.607   6.608
 3258POPC   C3A42221  13.779  24.465   6.948
 3258POPC   C4A42222  13.594  24.716   7.273
 3258POPC   C1B42223  13.441  24.389   6.141
 3258POPC   C2B42224  13.400  24.552   6.596
 3258POPC   C3B42225  13.273  24.383   7.047
 3258POPC   C4B42226  13.422  24.285   7.489
 3259POPC   NC342227  22.314  18.694   5.448
 3259POPC   PO442228  21.845  19.101   5.513
 3259POPC   GL142229  22.139  19.032   5.848
 3259POPC   GL242230  22.485  19.095   5.753
 3259POPC   C1A42231  22.276  19.247   6.225
 3259POPC   D2A42232  22.111  19.249   6.656
 3259POPC   C3A42233  22.264  19.343   7.063
 3259POPC   C4A42234  21.990  19.286   7.403
 3259POPC   C1B42235  22.561  18.834   6.116
 3259POPC   C2B42236  22.415  18.753   6.509
 3259POPC   C3B42237  22.468  18.885   6.919
 3259POPC   C4B42238  22.375  18.856   7.330
 3260POPC   NC342239  26.996   1.069   5.379
 3260POPC   PO442240  26.385   1.240   5.461
 3260POPC   GL142241  26.556   1.274   5.881
 3260POPC   GL242242  26.885   1.161   5.869
 3260POPC   C1A42243  26.607   1.163   6.323
 3260POPC   D2A42244  26.358   1.249   6.684
 3260POPC   C3A42245  26.602   1.246   7.041
 3260POPC   C4A42246  26.590   0.951   7.334
 3260POPC   C1B42247  27.128   1.203   6.248
 3260POPC   C2B42248  27.284   1.388   6.622
 3260POPC   C3B42249  27.134   1.429   7.022
 3260POPC   C4B42250  27.047   1.157   7.350
 3261POPC   NC342251  36.683  20.220   5.453
 3261POPC   PO442252  37.077  20.674   5.112
 3261POPC   GL142253  37.063  20.657   5.602
 3261POPC   GL242254  36.863  20.932   5.755
 3261POPC   C1A42255  37.032  20.489   6.051
 3261POPC   D2A42256  37.108  20.569   6.491
 3261POPC   C3A42257  37.009  20.255   6.782
 3261POPC   C4A42258  37.099  20.277   7.207
 3261POPC   C1B42259  37.042  20.986   6.177
 3261POPC   C2B42260  37.211  21.067   6.600
 3261POPC   C3B42261  37.037  20.990   7.013
 3261POPC   C4B42262  37.056  20.763   7.399
 3262POPC   NC342263  38.976  12.998   5.462
 3262POPC   PO442264  39.421  12.402   5.430
 3262POPC   GL142265  39.335  12.443   5.841
 3262POPC   GL242266  39.091  12.715   5.920
 3262POPC   C1A42267  39.472  12.543   6.244
 3262POPC   D2A42268  39.183  12.663   6.532
 3262POPC   C3A42269  39.430  12.613   6.843
 3262POPC   C4A42270  39.435  12.664   7.258
 3262POPC   C1B42271  39.354  13.035   6.217
 3262POPC   C2B42272  39.416  13.125   6.653
 3262POPC   C3B42273  39.140  13.011   7.003
 3262POPC   C4B42274  39.231  13.090   7.431
 3263POPC   NC342275  10.783  10.383   5.619
 3263POPC   PO442276  10.140  10.654   5.414
 3263POPC   GL142277  10.303  10.477   5.807
 3263POPC   GL242278  10.341  10.104   5.847
 3263POPC   C1A42279  10.527  10.606   6.185
 3263POPC   D2A42280  10.488  10.465   6.601
 3263POPC   C3A42281  10.415  10.729   6.964
 3263POPC   C4A42282  10.744  10.717   7.285
 3263POPC   C1B42283  10.579  10.091   6.248
 3263POPC   C2B42284  10.884  10.127   6.596
 3263POPC   C3B42285  10.777  10.305   6.993
 3263POPC   C4B42286  10.387  10.304   7.221
 3264POPC   NC342287  14.391  10.761   5.513
 3264POPC   PO442288  13.958  10.328   5.488
 3264POPC   GL142289  14.227  10.219   5.861
 3264POPC   GL242290  14.481  10.479   5.934
 3264POPC   C1A42291  14.307  10.191   6.316
 3264POPC   D2A42292  13.981  10.292   6.614
 3264POPC   C3A42293  14.087  10.309   7.030
 3264POPC   C4A42294  14.443  10.392   7.227
 3264POPC   C1B42295  14.512  10.698   6.306
 3264POPC   C2B42296  14.441  10.588   6.728
 3264POPC   C3B42297  14.728  10.745   7.015
 3264POPC   C4B42298  14.921  10.512   7.339
 3265POPC   NC342299   3.906  44.804   5.535
 3265POPC   PO442300   3.619  44.381   5.079
 3265POPC   GL142301   3.491  44.457   5.591
 3265POPC   GL242302   3.410  44.834   5.692
 3265POPC   C1A42303   3.507  44.481   6.060
 3265POPC   D2A42304   3.719  44.413   6.463
 3265POPC   C3A42305   3.529  44.548   6.864
 3265POPC   C4A42306   3.551  44.541   7.320
 3265POPC   C1B42307   3.598  44.983   6.106
 3265POPC   C2B42308   3.406  44.905   6.505
 3265POPC   C3B42309   3.385   0.041   6.939
 3265POPC   C4B42310   3.780  44.985   7.163
 3266POPC   NC342311   6.708  33.426   5.686
 3266POPC   PO442312   6.205  33.801   5.401
 3266POPC   GL142313   6.475  33.891   5.775
 3266POPC   GL242314   6.863  33.936   5.771
 3266POPC   C1A42315   6.604  33.834   6.213
 3266POPC   D2A42316   6.830  33.700   6.549
 3266POPC   C3A42317   6.616  33.838   6.907
 3266POPC   C4A42318   6.428  33.798   7.312
 3266POPC   C1B42319   7.020  34.105   6.190
 3266POPC   C2B42320   6.939  34.279   6.626
 3266POPC   C3B42321   6.939  34.186   7.084
 3266POPC   C4B42322   6.756  34.139   7.524
 3267POPC   NC342323  27.880  33.382   4.971
 3267POPC   PO442324  27.425  33.005   5.253
 3267POPC   GL142325  27.458  32.919   5.764
 3267POPC   GL242326  27.673  32.677   5.961
 3267POPC   C1A42327  27.628  33.109   6.194
 3267POPC   D2A42328  27.653  32.942   6.615
 3267POPC   C3A42329  27.659  33.187   6.990
 3267POPC   C4A42330  27.805  32.887   7.246
 3267POPC   C1B42331  27.272  32.728   6.220
 3267POPC   C2B42332  27.142  32.859   6.641
 3267POPC   C3B42333  27.325  32.797   7.070
 3267POPC   C4B42334  27.428  32.801   7.585
 3268POPC   NC342335  36.998  32.413   5.493
 3268POPC   PO442336  36.941  31.799   5.540
 3268POPC   GL142337  36.873  32.064   5.868
 3268POPC   GL242338  37.188  32.246   5.911
 3268POPC   C1A42339  36.844  32.126   6.296
 3268POPC   D2A42340  36.934  32.137   6.727
 3268POPC   C3A42341  36.622  32.094   7.065
 3268POPC   C4A42342  36.672  32.024   7.534
 3268POPC   C1B42343  37.325  32.355   6.299
 3268POPC   C2B42344  37.246  32.537   6.655
 3268POPC   C3B42345  37.239  32.494   7.055
 3268POPC   C4B42346  37.062  32.186   7.265
 3269POPC   NC342347   1.584  41.157   5.113
 3269POPC   PO442348   1.078  41.616   5.329
 3269POPC   GL142349   1.184  41.560   5.786
 3269POPC   GL242350   1.476  41.373   5.721
 3269POPC   C1A42351   1.282  41.574   6.263
 3269POPC   D2A42352   1.209  41.846   6.602
 3269POPC   C3A42353   1.479  41.880   6.944
 3269POPC   C4A42354   1.284  41.770   7.327
 3269POPC   C1B42355   1.526  41.152   6.110
 3269POPC   C2B42356   1.403  41.075   6.516
 3269POPC   C3B42357   1.411  41.365   6.876
 3269POPC   C4B42358   1.558  41.348   7.298
 3270POPC   NC342359  16.329  30.872   5.489
 3270POPC   PO442360  15.812  30.395   5.386
 3270POPC   GL142361  15.875  30.564   5.809
 3270POPC   GL242362  15.851  30.946   5.788
 3270POPC   C1A42363  15.827  30.406   6.242
 3270POPC   D2A42364  15.811  30.197   6.660
 3270POPC   C3A42365  15.821  30.409   7.034
 3270POPC   C4A42366  15.857  30.607   7.417
 3270POPC   C1B42367  16.055  30.887   6.187
 3270POPC   C2B42368  16.117  30.679   6.578
 3270POPC   C3B42369  16.009  30.868   6.935
 3270POPC   C4B42370  16.120  31.047   7.290
 3271POPC   NC342371   5.510  35.317   5.399
 3271POPC   PO442372   6.159  35.592   5.489
 3271POPC   GL142373   5.946  35.290   5.750
 3271POPC   GL242374   5.631  35.476   5.849
 3271POPC   C1A42375   5.846  35.181   6.204
 3271POPC   D2A42376   5.908  35.210   6.652
 3271POPC   C3A42377   6.077  35.558   6.909
 3271POPC   C4A42378   6.051  35.310   7.287
 3271POPC   C1B42379   5.562  35.694   6.206
 3271POPC   C2B42380   5.621  35.648   6.662
 3271POPC   C3B42381   5.592  35.441   7.052
 3271POPC   C4B42382   5.578  35.452   7.490
 3272POPC   NC342383   7.294   9.472   5.542
 3272POPC   PO442384   7.032  10.002   5.319
 3272POPC   GL142385   7.211   9.956   5.793
 3272POPC   GL242386   7.455   9.693   5.957
 3272POPC   C1A42387   7.370  10.089   6.237
 3272POPC   D2A42388   7.587   9.859   6.572
 3272POPC   C3A42389   7.433   9.908   6.978
 3272POPC   C4A42390   7.493   9.806   7.407
 3272POPC   C1B42391   7.234   9.524   6.342
 3272POPC   C2B42392   7.279   9.446   6.779
 3272POPC   C3B42393   7.647   9.440   7.020
 3272POPC   C4B42394   7.784   9.411   7.470
 3273POPC   NC342395  28.710  34.832   5.454
 3273POPC   PO442396  28.338  34.252   5.348
 3273POPC   GL142397  28.298  34.550   5.659
 3273POPC   GL242398  27.989  34.746   5.577
 3273POPC   C1A42399  28.541  34.635   6.077
 3273POPC   D2A42400  28.757  34.462   6.445
 3273POPC   C3A42401  28.699  34.610   6.869
 3273POPC   C4A42402  28.483  34.504   7.250
 3273POPC   C1B42403  28.110  34.898   5.980
 3273POPC   C2B42404  28.131  34.732   6.396
 3273POPC   C3B42405  28.189  34.690   6.840
 3273POPC   C4B42406  28.218  34.957   7.220
 3274POPC   NC342407  21.351  33.361   5.468
 3274POPC   PO442408  21.126  32.782   5.186
 3274POPC   GL142409  21.130  32.953   5.669
 3274POPC   GL242410  20.896  33.214   5.652
 3274POPC   C1A42411  21.163  32.790   6.141
 3274POPC   D2A42412  21.108  32.988   6.548
 3274POPC   C3A42413  21.347  32.932   6.934
 3274POPC   C4A42414  21.577  33.225   7.201
 3274POPC   C1B42415  20.881  33.225   6.098
 3274POPC   C2B42416  20.999  33.485   6.462
 3274POPC   C3B42417  21.120  33.420   6.874
 3274POPC   C4B42418  21.025  33.208   7.242
 3275POPC   NC342419  27.137  14.595   5.220
 3275POPC   PO442420  26.670  14.236   5.335
 3275POPC   GL142421  26.941  14.432   5.682
 3275POPC   GL242422  27.101  14.198   5.907
 3275POPC   C1A42423  26.931  14.654   6.086
 3275POPC   D2A42424  27.107  14.638   6.517
 3275POPC   C3A42425  26.824  14.415   6.785
 3275POPC   C4A42426  26.680  14.502   7.198
 3275POPC   C1B42427  26.806  14.190   6.298
 3275POPC   C2B42428  26.565  14.000   6.659
 3275POPC   C3B42429  26.705  13.979   7.101
 3275POPC   C4B42430  26.542  14.082   7.506
 3276POPC   NC342431   6.222  34.354   5.551
 3276POPC   PO442432   6.757  34.791   5.527
 3276POPC   GL142433   6.473  34.709   5.869
 3276POPC   GL242434   6.600  34.372   5.901
 3276POPC   C1A42435   6.533  34.658   6.329
 3276POPC   D2A42436   6.665  34.784   6.721
 3276POPC   C3A42437   6.560  34.559   7.050
 3276POPC   C4A42438   6.779  34.633   7.400
 3276POPC   C1B42439   6.278  34.230   6.194
 3276POPC   C2B42440   6.411  34.232   6.622
 3276POPC   C3B42441   6.225  34.170   7.016
 3276POPC   C4B42442   6.289  34.309   7.439
 3277POPC   NC342443  16.776  35.074   5.431
 3277POPC   PO442444  16.845  35.723   5.269
 3277POPC   GL142445  16.964  35.633   5.725
 3277POPC   GL242446  16.920  35.324   5.857
 3277POPC   C1A42447  16.765  35.698   6.157
 3277POPC   D2A42448  16.515  35.513   6.502
 3277POPC   C3A42449  16.611  35.588   6.917
 3277POPC   C4A42450  16.525  35.415   7.337
 3277POPC   C1B42451  16.891  35.175   6.251
 3277POPC   C2B42452  16.991  35.335   6.635
 3277POPC   C3B42453  16.920  35.222   7.039
 3277POPC   C4B42454  17.021  35.591   7.324
 3278POPC   NC342455  25.831   3.218   5.382
 3278POPC   PO442456  26.262   3.746   5.194
 3278POPC   GL142457  26.139   3.628   5.630
 3278POPC   GL242458  25.752   3.634   5.674
 3278POPC   C1A42459  26.242   3.469   6.069
 3278POPC   D2A42460  26.459   3.550   6.489
 3278POPC   C3A42461  26.211   3.471   6.871
 3278POPC   C4A42462  26.160   3.331   7.306
 3278POPC   C1B42463  25.875   3.852   6.052
 3278POPC   C2B42464  25.981   3.698   6.462
 3278POPC   C3B42465  25.820   3.829   6.862
 3278POPC   C4B42466  25.914   3.768   7.275
 3279POPC   NC342467  25.094  29.470   5.392
 3279POPC   PO442468  25.471  30.101   5.471
 3279POPC   GL142469  25.205  29.962   5.815
 3279POPC   GL242470  25.360  29.637   5.817
 3279POPC   C1A42471  25.065  29.820   6.260
 3279POPC   D2A42472  24.891  29.638   6.685
 3279POPC   C3A42473  25.116  29.826   7.013
 3279POPC   C4A42474  25.412  30.155   7.150
 3279POPC   C1B42475  25.596  29.832   6.146
 3279POPC   C2B42476  25.534  29.954   6.559
 3279POPC   C3B42477  25.617  29.758   6.921
 3279POPC   C4B42478  25.505  29.650   7.336
 3280POPC   NC342479   7.340  41.121   5.338
 3280POPC   PO442480   7.681  41.764   5.501
 3280POPC   GL142481   7.515  41.416   5.714
 3280POPC   GL242482   7.157  41.493   5.731
 3280POPC   C1A42483   7.407  41.256   6.126
 3280POPC   D2A42484   7.513  41.536   6.474
 3280POPC   C3A42485   7.410  41.357   6.853
 3280POPC   C4A42486   7.587  41.427   7.219
 3280POPC   C1B42487   7.108  41.735   6.145
 3280POPC   C2B42488   7.082  41.890   6.586
 3280POPC   C3B42489   7.208  41.845   7.019
 3280POPC   C4B42490   7.527  41.915   7.292
 3281POPC   NC342491   1.913   1.623   5.414
 3281POPC   PO442492   1.715   0.957   5.457
 3281POPC   GL142493   1.945   1.116   5.807
 3281POPC   GL242494   2.024   1.442   5.865
 3281POPC   C1A42495   2.094   1.101   6.234
 3281POPC   D2A42496   1.932   0.969   6.616
 3281POPC   C3A42497   2.068   0.950   7.026
 3281POPC   C4A42498   1.961   0.989   7.480
 3281POPC   C1B42499   2.190   1.598   6.261
 3281POPC   C2B42500   2.246   1.548   6.711
 3281POPC   C3B42501   2.296   1.378   7.125
 3281POPC   C4B42502   2.290   1.356   7.595
 3282POPC   NC342503  35.684  30.924   5.567
 3282POPC   PO442504  35.203  30.482   5.352
 3282POPC   GL142505  35.241  30.548   5.775
 3282POPC   GL242506  35.582  30.523   5.875
 3282POPC   C1A42507  35.080  30.452   6.181
 3282POPC   D2A42508  35.011  30.723   6.486
 3282POPC   C3A42509  35.172  30.735   6.866
 3282POPC   C4A42510  34.981  30.971   7.212
 3282POPC   C1B42511  35.498  30.746   6.242
 3282POPC   C2B42512  35.723  30.831   6.609
 3282POPC   C3B42513  35.726  30.924   7.018
 3282POPC   C4B42514  35.465  30.705   7.267
 3283POPC   NC342515  19.582  31.113   5.272
 3283POPC   PO442516  20.027  30.537   5.341
 3283POPC   GL142517  19.913  30.491   5.791
 3283POPC   GL242518  19.720  30.809   5.838
 3283POPC   C1A42519  19.985  30.601   6.263
 3283POPC   D2A42520  19.757  30.519   6.691
 3283POPC   C3A42521  19.987  30.625   7.111
 3283POPC   C4A42522  20.252  30.411   7.457
 3283POPC   C1B42523  19.504  30.769   6.231
 3283POPC   C2B42524  19.315  30.804   6.625
 3283POPC   C3B42525  19.359  30.665   7.034
 3283POPC   C4B42526  19.558  30.724   7.426
 3284POPC   NC342527  32.487  31.171   5.451
 3284POPC   PO442528  32.092  31.648   5.396
 3284POPC   GL142529  32.355  31.657   5.749
 3284POPC   GL242530  32.044  31.584   5.920
 3284POPC   C1A42531  32.492  31.621   6.180
 3284POPC   D2A42532  32.314  31.643   6.629
 3284POPC   C3A42533  32.509  31.491   7.050
 3284POPC   C4A42534  32.505  31.284   7.492
 3284POPC   C1B42535  31.913  31.258   6.215
 3284POPC   C2B42536  31.821  31.455   6.607
 3284POPC   C3B42537  31.962  31.566   7.023
 3284POPC   C4B42538  32.011  31.242   7.371
 3285POPC   NC342539  22.730  44.165   5.381
 3285POPC   PO442540  23.027  43.625   5.418
 3285POPC   GL142541  22.918  43.869   5.768
 3285POPC   GL242542  22.599  43.801   5.710
 3285POPC   C1A42543  23.048  44.017   6.152
 3285POPC   D2A42544  23.198  43.918   6.546
 3285POPC   C3A42545  23.102  44.010   6.971
 3285POPC   C4A42546  23.208  43.724   7.281
 3285POPC   C1B42547  22.548  43.922   6.125
 3285POPC   C2B42548  22.679  43.855   6.527
 3285POPC   C3B42549  22.455  43.792   6.898
 3285POPC   C4B42550  22.681  43.684   7.269
 3286POPC   NC342551  38.300  34.026   5.498
 3286POPC   PO442552  38.768  33.632   5.479
 3286POPC   GL142553  38.537  33.730   5.857
 3286POPC   GL242554  38.194  33.616   5.855
 3286POPC   C1A42555  38.468  34.058   6.179
 3286POPC   D2A42556  38.681  34.218   6.550
 3286POPC   C3A42557  38.520  33.950   6.853
 3286POPC   C4A42558  38.425  33.792   7.245
 3286POPC   C1B42559  38.379  33.431   6.250
 3286POPC   C2B42560  38.459  33.393   6.710
 3286POPC   C3B42561  38.098  33.434   7.003
 3286POPC   C4B42562  38.059  33.510   7.457
 3287POPC   NC342563  22.117  12.446   5.651
 3287POPC   PO442564  22.329  12.964   5.252
 3287POPC   GL142565  22.175  12.996   5.685
 3287POPC   GL242566  21.850  12.926   5.703
 3287POPC   C1A42567  22.264  12.958   6.144
 3287POPC   D2A42568  22.185  12.751   6.554
 3287POPC   C3A42569  22.351  12.984   6.910
 3287POPC   C4A42570  22.376  12.917   7.350
 3287POPC   C1B42571  21.787  12.800   6.164
 3287POPC   C2B42572  21.674  12.746   6.603
 3287POPC   C3B42573  21.891  12.747   6.984
 3287POPC   C4B42574  21.953  13.127   7.221
 3288POPC   NC342575   4.974  42.735   5.595
 3288POPC   PO442576   5.116  42.081   5.377
 3288POPC   GL142577   5.155  42.250   5.782
 3288POPC   GL242578   4.816  42.288   5.869
 3288POPC   C1A42579   5.093  42.197   6.261
 3288POPC   D2A42580   4.701  42.165   6.520
 3288POPC   C3A42581   4.801  42.065   6.947
 3288POPC   C4A42582   5.185  42.051   7.177
 3288POPC   C1B42583   4.782  42.603   6.277
 3288POPC   C2B42584   4.962  42.638   6.729
 3288POPC   C3B42585   4.999  42.522   7.188
 3288POPC   C4B42586   4.766  42.674   7.586
 3289POPC   NC342587  39.416   7.139   5.429
 3289POPC   PO442588  39.206   7.774   5.425
 3289POPC   GL142589  39.395   7.565   5.767
 3289POPC   GL242590  39.165   7.300   5.846
 3289POPC   C1A42591  39.450   7.478   6.218
 3289POPC   D2A42592  39.197   7.374   6.581
 3289POPC   C3A42593  39.446   7.460   6.945
 3289POPC   C4A42594  39.411   7.508   7.358
 3289POPC   C1B42595  38.931   7.573   6.170
 3289POPC   C2B42596  38.696   7.627   6.601
 3289POPC   C3B42597  38.651   7.702   7.044
 3289POPC   C4B42598  38.921   7.473   7.358
 3290POPC   NC342599  19.595   2.548   5.527
 3290POPC   PO442600  20.235   2.735   5.362
 3290POPC   GL142601  20.025   2.702   5.780
 3290POPC   GL242602  19.756   2.946   5.831
 3290POPC   C1A42603  19.953   2.557   6.244
 3290POPC   D2A42604  19.948   2.809   6.637
 3290POPC   C3A42605  19.851   2.670   7.067
 3290POPC   C4A42606  20.064   2.329   7.307
 3290POPC   C1B42607  19.507   2.800   6.186
 3290POPC   C2B42608  19.435   2.914   6.596
 3290POPC   C3B42609  19.528   3.097   7.013
 3290POPC   C4B42610  19.817   3.129   7.386
 3291POPC   NC342611  23.770  15.991   5.437
 3291POPC   PO442612  23.190  16.302   5.702
 3291POPC   GL142613  23.547  16.086   5.903
 3291POPC   GL242614  23.644  15.729   5.895
 3291POPC   C1A42615  23.854  16.063   6.228
 3291POPC   D2A42616  23.658  15.895   6.596
 3291POPC   C3A42617  23.763  16.158   6.928
 3291POPC   C4A42618  23.575  16.141   7.320
 3291POPC   C1B42619  23.945  15.559   6.259
 3291POPC   C2B42620  24.071  15.647   6.720
 3291POPC   C3B42621  23.788  15.663   7.106
 3291POPC   C4B42622  23.836  15.782   7.547
 3292POPC   NC342623  42.174  33.743   5.351
 3292POPC   PO442624  42.698  33.484   5.683
 3292POPC   GL142625  42.439  33.856   5.864
 3292POPC   GL242626  42.114  34.053   5.807
 3292POPC   C1A42627  42.573  33.842   6.297
 3292POPC   D2A42628  42.504  33.473   6.588
 3292POPC   C3A42629  42.351  33.571   6.995
 3292POPC   C4A42630  42.235  33.485   7.417
 3292POPC   C1B42631  42.055  33.880   6.220
 3292POPC   C2B42632  42.215  33.942   6.641
 3292POPC   C3B42633  42.008  33.958   7.023
 3292POPC   C4B42634  42.102  34.354   7.180
 3293POPC   NC342635   5.190   1.860   5.393
 3293POPC   PO442636   4.532   1.922   5.346
 3293POPC   GL142637   4.796   1.908   5.735
 3293POPC   GL242638   4.993   2.229   5.707
 3293POPC   C1A42639   4.971   1.723   6.154
 3293POPC   D2A42640   5.201   1.930   6.510
 3293POPC   C3A42641   5.061   2.016   6.955
 3293POPC   C4A42642   5.009   1.692   7.271
 3293POPC   C1B42643   5.176   2.296   6.131
 3293POPC   C2B42644   5.152   2.422   6.580
 3293POPC   C3B42645   5.261   2.495   6.999
 3293POPC   C4B42646   5.232   2.380   7.426
 3294POPC   NC342647  16.300  22.617   5.430
 3294POPC   PO442648  15.895  22.023   5.471
 3294POPC   GL142649  15.910  22.230   5.883
 3294POPC   GL242650  15.595  22.370   6.017
 3294POPC   C1A42651  16.061  22.334   6.316
 3294POPC   D2A42652  16.309  22.130   6.642
 3294POPC   C3A42653  16.208  22.305   7.039
 3294POPC   C4A42654  15.835  22.356   7.227
 3294POPC   C1B42655  15.672  22.007   6.299
 3294POPC   C2B42656  15.681  22.095   6.769
 3294POPC   C3B42657  15.614  21.886   7.168
 3294POPC   C4B42658  15.855  21.712   7.483
 3295POPC   NC342659  21.491   7.411   5.265
 3295POPC   PO442660  20.942   7.340   5.095
 3295POPC   GL142661  21.181   7.246   5.620
 3295POPC   GL242662  21.529   7.078   5.695
 3295POPC   C1A42663  21.275   7.362   6.104
 3295POPC   D2A42664  21.526   7.651   6.443
 3295POPC   C3A42665  21.537   7.586   6.917
 3295POPC   C4A42666  21.343   7.232   7.116
 3295POPC   C1B42667  21.752   7.155   6.118
 3295POPC   C2B42668  21.609   7.131   6.555
 3295POPC   C3B42669  21.798   7.057   6.962
 3295POPC   C4B42670  21.851   7.338   7.307
 3296POPC   NC342671  38.770  44.678   5.554
 3296POPC   PO442672  39.483  44.733   5.422
 3296POPC   GL142673  39.246  44.768   5.748
 3296POPC   GL242674  39.157  44.419   5.777
 3296POPC   C1A42675  39.452  44.728   6.145
 3296POPC   D2A42676  39.604  44.821   6.556
 3296POPC   C3A42677  39.372  44.565   6.830
 3296POPC   C4A42678  39.367  44.447   7.241
 3296POPC   C1B42679  38.940  44.582   6.168
 3296POPC   C2B42680  38.804  44.597   6.591
 3296POPC   C3B42681  38.932  44.777   6.983
 3296POPC   C4B42682  38.970  44.800   7.422
 3297POPC   NC342683  34.963  42.204   5.401
 3297POPC   PO442684  35.389  42.681   5.599
 3297POPC   GL142685  35.438  42.300   5.798
 3297POPC   GL242686  35.146  42.086   5.855
 3297POPC   C1A42687  35.418  42.409   6.223
 3297POPC   D2A42688  35.248  42.450   6.602
 3297POPC   C3A42689  35.433  42.226   6.907
 3297POPC   C4A42690  35.481  42.557   7.235
 3297POPC   C1B42691  35.230  41.932   6.220
 3297POPC   C2B42692  35.030  41.961   6.587
 3297POPC   C3B42693  34.922  42.168   6.918
 3297POPC   C4B42694  35.121  42.205   7.296
 3298POPC   NC342695  10.319  35.902   5.538
 3298POPC   PO442696  10.844  36.273   5.526
 3298POPC   GL142697  10.642  36.173   5.869
 3298POPC   GL242698  10.321  36.263   5.887
 3298POPC   C1A42699  10.619  35.993   6.258
 3298POPC   D2A42700  10.681  36.156   6.644
 3298POPC   C3A42701  10.678  35.919   6.984
 3298POPC   C4A42702  10.806  35.985   7.382
 3298POPC   C1B42703  10.115  35.990   6.157
 3298POPC   C2B42704  10.168  35.972   6.592
 3298POPC   C3B42705  10.256  36.236   6.942
 3298POPC   C4B42706  10.308  36.076   7.305
 3299POPC   NC342707  16.698  23.102   5.389
 3299POPC   PO442708  16.590  22.643   5.804
 3299POPC   GL142709  16.778  22.999   5.949
 3299POPC   GL242710  17.040  23.188   5.793
 3299POPC   C1A42711  16.531  23.246   6.218
 3299POPC   D2A42712  16.269  23.326   6.566
 3299POPC   C3A42713  16.413  23.069   6.913
 3299POPC   C4A42714  16.513  23.221   7.306
 3299POPC   C1B42715  17.037  23.336   6.235
 3299POPC   C2B42716  16.868  23.167   6.616
 3299POPC   C3B42717  16.989  23.017   7.018
 3299POPC   C4B42718  16.782  22.807   7.346
 3300POPC   NC342719   5.047   5.011   5.411
 3300POPC   PO442720   5.458   5.590   5.310
 3300POPC   GL142721   5.314   5.327   5.730
 3300POPC   GL242722   5.222   4.965   5.888
 3300POPC   C1A42723   5.098   5.375   6.160
 3300POPC   D2A42724   4.894   5.501   6.559
 3300POPC   C3A42725   5.048   5.422   6.980
 3300POPC   C4A42726   5.180   5.078   7.203
 3300POPC   C1B42727   5.095   4.873   6.318
 3300POPC   C2B42728   5.207   4.666   6.704
 3300POPC   C3B42729   4.961   4.637   7.061
 3300POPC   C4B42730   4.727   4.860   7.345
 3301POPC   NC342731  38.463  38.517   5.402
 3301POPC   PO442732  39.024  38.872   5.541
 3301POPC   GL142733  38.747  38.698   5.808
 3301POPC   GL242734  38.832  38.339   5.760
 3301POPC   C1A42735  38.515  38.748   6.204
 3301POPC   D2A42736  38.409  38.953   6.608
 3301POPC   C3A42737  38.318  38.685   6.979
 3301POPC   C4A42738  38.218  38.798   7.421
 3301POPC   C1B42739  38.553  38.193   6.105
 3301POPC   C2B42740  38.396  38.295   6.524
 3301POPC   C3B42741  38.468  38.188   6.959
 3301POPC   C4B42742  38.639  38.032   7.334
 3302POPC   NC342743  17.954  37.114   5.395
 3302POPC   PO442744  17.318  37.048   5.275
 3302POPC   GL142745  17.385  36.837   5.690
 3302POPC   GL242746  17.557  37.117   5.757
 3302POPC   C1A42747  17.508  36.704   6.134
 3302POPC   D2A42748  17.693  36.641   6.554
 3302POPC   C3A42749  17.478  36.644   6.950
 3302POPC   C4A42750  17.382  36.820   7.390
 3302POPC   C1B42751  17.430  37.221   6.169
 3302POPC   C2B42752  17.616  37.130   6.564
 3302POPC   C3B42753  17.472  37.149   6.988
 3302POPC   C4B42754  17.173  37.267   7.313
 3303POPC   NC342755  23.283  22.413   5.528
 3303POPC   PO442756  22.663  22.052   5.487
 3303POPC   GL142757  22.938  22.133   5.818
 3303POPC   GL242758  23.234  21.928   5.750
 3303POPC   C1A42759  22.997  22.178   6.252
 3303POPC   D2A42760  22.879  22.176   6.662
 3303POPC   C3A42761  23.182  22.393   6.852
 3303POPC   C4A42762  23.201  22.483   7.252
 3303POPC   C1B42763  23.291  21.755   6.167
 3303POPC   C2B42764  23.340  21.893   6.616
 3303POPC   C3B42765  23.184  21.824   7.023
 3303POPC   C4B42766  22.849  22.091   7.164
 3304POPC   NC342767   6.446  13.903   5.323
 3304POPC   PO442768   6.635  14.530   5.450
 3304POPC   GL142769   6.729  14.266   5.830
 3304POPC   GL242770   6.741  14.614   5.982
 3304POPC   C1A42771   6.712  14.220   6.311
 3304POPC   D2A42772   6.906  14.458   6.635
 3304POPC   C3A42773   6.953  14.323   7.067
 3304POPC   C4A42774   6.919  14.719   7.311
 3304POPC   C1B42775   6.329  14.531   6.166
 3304POPC   C2B42776   6.280  14.385   6.591
 3304POPC   C3B42777   6.487  14.540   6.947
 3304POPC   C4B42778   6.354  14.756   7.317
 3305POPC   NC342779  41.003  17.373   5.437
 3305POPC   PO442780  40.307  17.285   5.489
 3305POPC   GL142781  40.600  17.334   5.776
 3305POPC   GL242782  40.606  17.700   5.707
 3305POPC   C1A42783  40.821  17.260   6.161
 3305POPC   D2A42784  40.613  17.320   6.562
 3305POPC   C3A42785  40.867  17.395   6.873
 3305POPC   C4A42786  40.920  17.116   7.194
 3305POPC   C1B42787  40.522  17.694   6.163
 3305POPC   C2B42788  40.669  17.831   6.563
 3305POPC   C3B42789  40.453  17.717   6.934
 3305POPC   C4B42790  40.584  17.530   7.279
 3306POPC   NC342791  11.646  35.109   5.517
 3306POPC   PO442792  12.279  35.313   5.319
 3306POPC   GL142793  12.198  35.243   5.769
 3306POPC   GL242794  12.153  34.886   5.819
 3306POPC   C1A42795  12.044  35.297   6.195
 3306POPC   D2A42796  11.654  35.426   6.406
 3306POPC   C3A42797  11.708  35.429   6.873
 3306POPC   C4A42798  12.011  35.573   7.202
 3306POPC   C1B42799  12.477  34.750   6.126
 3306POPC   C2B42800  12.624  34.814   6.546
 3306POPC   C3B42801  12.453  35.066   6.906
 3306POPC   C4B42802  12.183  35.088   7.307
 3307POPC   NC342803  25.961  19.463   5.499
 3307POPC   PO442804  26.243  18.971   5.130
 3307POPC   GL142805  26.208  19.025   5.634
 3307POPC   GL242806  25.858  19.011   5.792
 3307POPC   C1A42807  26.234  19.013   6.135
 3307POPC   D2A42808  25.979  19.006   6.551
 3307POPC   C3A42809  26.177  18.981   6.948
 3307POPC   C4A42810  26.243  19.292   7.261
 3307POPC   C1B42811  25.804  19.313   6.183
 3307POPC   C2B42812  25.716  19.465   6.606
 3307POPC   C3B42813  25.777  19.318   7.004
 3307POPC   C4B42814  25.696  18.886   7.122
 3308POPC   NC342815  20.108  38.273   5.217
 3308POPC   PO442816  20.143  38.713   5.681
 3308POPC   GL142817  19.797  38.429   5.782
 3308POPC   GL242818  19.491  38.608   5.726
 3308POPC   C1A42819  19.687  38.233   6.205
 3308POPC   D2A42820  19.849  38.059   6.627
 3308POPC   C3A42821  19.931  38.297   7.020
 3308POPC   C4A42822  19.953  38.414   7.439
 3308POPC   C1B42823  19.640  38.823   6.093
 3308POPC   C2B42824  19.780  38.868   6.494
 3308POPC   C3B42825  19.691  38.736   6.899
 3308POPC   C4B42826  19.918  38.870   7.225
 3309POPC   NC342827  38.574  36.610   5.305
 3309POPC   PO442828  38.204  37.161   5.243
 3309POPC   GL142829  38.534  37.031   5.617
 3309POPC   GL242830  38.619  36.685   5.790
 3309POPC   C1A42831  38.781  37.093   6.037
 3309POPC   D2A42832  38.849  37.053   6.508
 3309POPC   C3A42833  38.478  36.956   6.757
 3309POPC   C4A42834  38.200  37.157   7.080
 3309POPC   C1B42835  38.815  36.579   6.187
 3309POPC   C2B42836  38.950  36.569   6.629
 3309POPC   C3B42837  38.807  36.661   7.031
 3309POPC   C4B42838  38.692  37.073   7.203
 3310POPC   NC342839  35.381  32.568   5.407
 3310POPC   PO442840  34.932  33.053   5.558
 3310POPC   GL142841  35.257  32.868   5.849
 3310POPC   GL242842  35.564  33.053   5.794
 3310POPC   C1A42843  35.374  32.817   6.303
 3310POPC   D2A42844  35.129  33.003   6.661
 3310POPC   C3A42845  35.081  32.810   7.076
 3310POPC   C4A42846  35.399  32.736   7.354
 3310POPC   C1B42847  35.587  33.291   6.191
 3310POPC   C2B42848  35.559  33.270   6.631
 3310POPC   C3B42849  35.494  33.160   7.063
 3310POPC   C4B42850  35.463  33.204   7.522
 3311POPC   NC342851  30.745  16.198   5.487
 3311POPC   PO442852  30.202  16.650   5.540
 3311POPC   GL142853  30.487  16.694   5.899
 3311POPC   GL242854  30.785  16.914   5.907
 3311POPC   C1A42855  30.537  16.758   6.343
 3311POPC   D2A42856  30.629  16.651   6.738
 3311POPC   C3A42857  30.867  16.920   6.972
 3311POPC   C4A42858  30.864  17.122   7.318
 3311POPC   C1B42859  30.936  16.532   6.168
 3311POPC   C2B42860  31.034  16.359   6.598
 3311POPC   C3B42861  30.921  16.328   7.043
 3311POPC   C4B42862  30.909  16.615   7.397
 3312POPC   NC342863  14.273  27.610   5.303
 3312POPC   PO442864  14.360  26.958   5.333
 3312POPC   GL142865  14.434  27.286   5.707
 3312POPC   GL242866  14.375  27.663   5.802
 3312POPC   C1A42867  14.627  27.353   6.145
 3312POPC   D2A42868  14.639  27.619   6.547
 3312POPC   C3A42869  14.374  27.545   6.938
 3312POPC   C4A42870  14.508  27.218   7.197
 3312POPC   C1B42871  14.292  27.874   6.226
 3312POPC   C2B42872  14.461  28.083   6.628
 3312POPC   C3B42873  14.557  27.996   7.067
 3312POPC   C4B42874  14.247  27.821   7.405
 3313POPC   NC342875  34.351  31.143   4.951
 3313POPC   PO442876  34.599  31.611   5.427
 3313POPC   GL142877  34.740  31.294   5.717
 3313POPC   GL242878  34.422  31.232   5.925
 3313POPC   C1A42879  34.887  31.364   6.145
 3313POPC   D2A42880  34.606  31.534   6.444
 3313POPC   C3A42881  34.574  31.341   6.841
 3313POPC   C4A42882  34.664  31.441   7.239
 3313POPC   C1B42883  34.155  31.251   6.326
 3313POPC   C2B42884  34.079  31.173   6.790
 3313POPC   C3B42885  34.289  31.084   7.189
 3313POPC   C4B42886  34.319  31.308   7.591
 3314POPC   NC342887   3.501  14.258   5.294
 3314POPC   PO442888   3.120  14.823   5.315
 3314POPC   GL142889   3.378  14.592   5.718
 3314POPC   GL242890   3.609  14.262   5.778
 3314POPC   C1A42891   3.661  14.566   6.172
 3314POPC   D2A42892   3.909  14.758   6.522
 3314POPC   C3A42893   3.742  14.693   6.915
 3314POPC   C4A42894   3.759  14.491   7.278
 3314POPC   C1B42895   3.430  14.006   6.129
 3314POPC   C2B42896   3.531  13.856   6.523
 3314POPC   C3B42897   3.396  13.989   6.931
 3314POPC   C4B42898   3.580  13.998   7.317
 3315POPC   NC342899  27.498  14.872   5.729
 3315POPC   PO442900  27.399  14.276   5.444
 3315POPC   GL142901  27.613  14.344   5.874
 3315POPC   GL242902  27.422  14.573   6.109
 3315POPC   C1A42903  27.873  14.449   6.265
 3315POPC   D2A42904  27.619  14.592   6.633
 3315POPC   C3A42905  27.628  14.391   7.036
 3315POPC   C4A42906  27.855  14.523   7.400
 3315POPC   C1B42907  27.383  14.225   6.335
 3315POPC   C2B42908  27.272  14.141   6.730
 3315POPC   C3B42909  27.150  14.237   7.144
 3315POPC   C4B42910  27.324  14.039   7.465
 3316POPC   NC342911  23.511   4.584   5.359
 3316POPC   PO442912  23.540   5.223   5.441
 3316POPC   GL142913  23.733   5.155   5.814
 3316POPC   GL242914  23.680   4.815   5.824
 3316POPC   C1A42915  23.696   5.344   6.214
 3316POPC   D2A42916  23.659   5.177   6.616
 3316POPC   C3A42917  23.836   5.332   6.976
 3316POPC   C4A42918  23.710   5.105   7.327
 3316POPC   C1B42919  23.884   4.871   6.243
 3316POPC   C2B42920  24.050   4.744   6.658
 3316POPC   C3B42921  24.113   4.906   7.075
 3316POPC   C4B42922  24.071   4.871   7.584
 3317POPC   NC342923   2.526   2.735   5.511
 3317POPC   PO442924   3.206   2.866   5.524
 3317POPC   GL142925   2.871   2.914   5.859
 3317POPC   GL242926   2.520   3.098   5.849
 3317POPC   C1A42927   2.853   2.637   6.212
 3317POPC   D2A42928   3.098   2.481   6.556
 3317POPC   C3A42929   2.933   2.677   6.934
 3317POPC   C4A42930   2.644   2.484   7.215
 3317POPC   C1B42931   2.379   2.841   6.198
 3317POPC   C2B42932   2.534   2.753   6.622
 3317POPC   C3B42933   2.517   2.967   7.034
 3317POPC   C4B42934   2.471   3.235   7.406
 3318POPC   NC342935   2.146  31.225   5.443
 3318POPC   PO442936   1.642  31.669   5.503
 3318POPC   GL142937   1.713  31.553   5.896
 3318POPC   GL242938   1.814  31.234   5.840
 3318POPC   C1A42939   1.823  31.511   6.317
 3318POPC   D2A42940   2.029  31.827   6.569
 3318POPC   C3A42941   2.001  31.706   6.998
 3318POPC   C4A42942   1.649  31.597   7.275
 3318POPC   C1B42943   2.175  31.188   6.099
 3318POPC   C2B42944   2.343  31.363   6.458
 3318POPC   C3B42945   2.311  31.126   6.836
 3318POPC   C4B42946   2.168  31.281   7.224
 3319POPC   NC342947   0.704   2.748   5.476
 3319POPC   PO442948   0.198   2.338   5.671
 3319POPC   GL142949   0.363   2.709   5.856
 3319POPC   GL242950   0.261   3.060   5.864
 3319POPC   C1A42951   0.623   2.705   6.177
 3319POPC   D2A42952   0.543   2.469   6.535
 3319POPC   C3A42953   0.509   2.698   6.934
 3319POPC   C4A42954   0.490   2.625   7.385
 3319POPC   C1B42955   0.641   3.214   6.112
 3319POPC   C2B42956   0.836   3.062   6.492
 3319POPC   C3B42957   0.742   3.168   6.932
 3319POPC   C4B42958   0.450   3.133   7.261
 3320POPC   NC342959  35.134   2.329   5.381
 3320POPC   PO442960  35.174   3.023   5.464
 3320POPC   GL142961  35.379   2.924   5.800
 3320POPC   GL242962  35.445   2.587   5.729
 3320POPC   C1A42963  35.489   3.054   6.190
 3320POPC   D2A42964  35.262   3.077   6.558
 3320POPC   C3A42965  35.522   3.027   6.910
 3320POPC   C4A42966  35.304   2.935   7.277
 3320POPC   C1B42967  35.272   2.562   6.151
 3320POPC   C2B42968  35.442   2.606   6.534
 3320POPC   C3B42969  35.310   2.570   6.917
 3320POPC   C4B42970  35.498   2.476   7.323
 3321POPC   NC342971  22.460   7.235   5.440
 3321POPC   PO442972  21.873   7.449   5.513
 3321POPC   GL142973  22.144   7.443   5.875
 3321POPC   GL242974  22.287   7.112   5.925
 3321POPC   C1A42975  22.043   7.618   6.278
 3321POPC   D2A42976  21.971   7.468   6.677
 3321POPC   C3A42977  22.124   7.664   7.042
 3321POPC   C4A42978  21.884   7.825   7.420
 3321POPC   C1B42979  22.264   7.157   6.374
 3321POPC   C2B42980  22.306   7.133   6.826
 3321POPC   C3B42981  22.229   6.985   7.233
 3321POPC   C4B42982  22.198   7.094   7.654
 3322POPC   NC342983  33.198  43.901   5.328
 3322POPC   PO442984  32.485  43.674   5.382
 3322POPC   GL142985  32.657  43.886   5.766
 3322POPC   GL242986  33.033  43.954   5.810
 3322POPC   C1A42987  32.707  43.970   6.203
 3322POPC   D2A42988  32.851  44.137   6.574
 3322POPC   C3A42989  32.745  43.945   6.939
 3322POPC   C4A42990  32.866  43.926   7.337
 3322POPC   C1B42991  33.238  44.053   6.220
 3322POPC   C2B42992  33.356  43.832   6.583
 3322POPC   C3B42993  33.245  43.916   6.964
 3322POPC   C4B42994  33.373  44.100   7.320
 3323POPC   NC342995  18.843  30.494   5.539
 3323POPC   PO442996  19.143  30.994   5.375
 3323POPC   GL142997  19.171  30.784   5.779
 3323POPC   GL242998  19.303  30.478   5.865
 3323POPC   C1A42999  19.001  30.883   6.182
 3323POPC   D2A43000  18.887  31.121   6.552
 3323POPC   C3A43001  18.931  30.980   6.968
 3323POPC   C4A43002  18.764  31.087   7.386
 3323POPC   C1B43003  19.097  30.380   6.262
 3323POPC   C2B43004  18.860  30.582   6.596
 3323POPC   C3B43005  18.783  30.502   7.042
 3323POPC   C4B43006  19.005  30.658   7.400
 3324POPC   NC343007   4.722  31.168   5.449
 3324POPC   PO443008   5.278  30.731   5.172
 3324POPC   GL143009   5.353  30.869   5.659
 3324POPC   GL243010   5.272  31.199   5.751
 3324POPC   C1A43011   5.165  30.780   6.120
 3324POPC   D2A43012   4.943  30.840   6.536
 3324POPC   C3A43013   5.111  30.722   6.946
 3324POPC   C4A43014   5.368  30.343   7.078
 3324POPC   C1B43015   5.380  31.213   6.236
 3324POPC   C2B43016   5.441  31.176   6.683
 3324POPC   C3B43017   5.314  31.157   7.151
 3324POPC   C4B43018   5.116  31.132   7.572
 3325POPC   NC343019  29.489   5.326   5.488
 3325POPC   PO443020  28.747   5.402   5.395
 3325POPC   GL143021  29.019   5.186   5.728
 3325POPC   GL243022  28.905   4.895   5.930
 3325POPC   C1A43023  29.303   5.209   6.101
 3325POPC   D2A43024  29.420   5.242   6.519
 3325POPC   C3A43025  29.214   5.116   6.867
 3325POPC   C4A43026  29.163   5.365   7.196
 3325POPC   C1B43027  28.908   4.981   6.386
 3325POPC   C2B43028  28.710   4.972   6.800
 3325POPC   C3B43029  28.864   4.925   7.224
 3325POPC   C4B43030  28.789   4.843   7.669
 3326POPC   NC343031  31.988  21.113   5.374
 3326POPC   PO443032  32.450  21.602   5.458
 3326POPC   GL143033  32.218  21.450   5.864
 3326POPC   GL243034  32.073  21.087   5.878
 3326POPC   C1A43035  32.335  21.502   6.344
 3326POPC   D2A43036  32.501  21.662   6.772
 3326POPC   C3A43037  32.264  21.581   7.159
 3326POPC   C4A43038  32.205  21.386   7.599
 3326POPC   C1B43039  32.023  21.104   6.325
 3326POPC   C2B43040  32.107  21.257   6.763
 3326POPC   C3B43041  32.047  21.110   7.201
 3326POPC   C4B43042  31.942  20.920   7.659
 3327POPC   NC343043  29.664  10.687   5.375
 3327POPC   PO443044  30.301  10.841   5.453
 3327POPC   GL143045  30.027  10.688   5.784
 3327POPC   GL243046  30.056  10.351   5.850
 3327POPC   C1A43047  30.138  10.672   6.249
 3327POPC   D2A43048  30.018  10.902   6.605
 3327POPC   C3A43049  30.181  10.862   6.987
 3327POPC   C4A43050  29.910  10.778   7.312
 3327POPC   C1B43051  29.961  10.173   6.226
 3327POPC   C2B43052  30.048  10.312   6.632
 3327POPC   C3B43053  30.092  10.350   7.056
 3327POPC   C4B43054  30.002  10.314   7.488
 3328POPC   NC343055   6.758  31.852   5.521
 3328POPC   PO443056   6.292  31.374   5.475
 3328POPC   GL143057   6.464  31.556   5.834
 3328POPC   GL243058   6.560  31.230   5.947
 3328POPC   C1A43059   6.721  31.671   6.200
 3328POPC   D2A43060   6.565  31.627   6.585
 3328POPC   C3A43061   6.701  31.808   6.950
 3328POPC   C4A43062   6.846  31.661   7.322
 3328POPC   C1B43063   6.875  31.150   6.262
 3328POPC   C2B43064   6.936  31.283   6.708
 3328POPC   C3B43065   6.605  31.298   7.030
 3328POPC   C4B43066   6.195  31.201   7.244
 3329POPC   NC343067  28.978  30.845   5.494
 3329POPC   PO443068  28.912  30.206   5.708
 3329POPC   GL143069  29.123  30.531   5.919
 3329POPC   GL243070  29.243  30.860   5.931
 3329POPC   C1A43071  28.978  30.705   6.321
 3329POPC   D2A43072  29.094  30.917   6.690
 3329POPC   C3A43073  28.995  30.671   7.058
 3329POPC   C4A43074  28.970  30.258   7.211
 3329POPC   C1B43075  29.484  30.690   6.261
 3329POPC   C2B43076  29.700  30.505   6.570
 3329POPC   C3B43077  29.528  30.685   6.927
 3329POPC   C4B43078  29.357  30.987   7.224
 3330POPC   NC343079  39.998   4.732   5.040
 3330POPC   PO443080  39.928   4.151   5.399
 3330POPC   GL143081  39.783   4.347   5.767
 3330POPC   GL243082  40.078   4.542   5.889
 3330POPC   C1A43083  39.783   4.223   6.189
 3330POPC   D2A43084  40.064   4.247   6.538
 3330POPC   C3A43085  39.912   4.254   6.927
 3330POPC   C4A43086  40.132   4.369   7.300
 3330POPC   C1B43087  39.939   4.693   6.322
 3330POPC   C2B43088  39.713   4.681   6.718
 3330POPC   C3B43089  39.730   4.640   7.197
 3330POPC   C4B43090  39.868   4.807   7.616
 3331POPC   NC343091   9.286   5.396   5.659
 3331POPC   PO443092   9.278   4.707   5.468
 3331POPC   GL143093   9.010   4.954   5.800
 3331POPC   GL243094   8.772   5.262   5.748
 3331POPC   C1A43095   9.018   5.118   6.220
 3331POPC   D2A43096   9.219   5.428   6.483
 3331POPC   C3A43097   9.295   5.202   6.852
 3331POPC   C4A43098   8.977   4.992   7.053
 3331POPC   C1B43099   8.661   5.453   6.149
 3331POPC   C2B43100   8.716   5.315   6.595
 3331POPC   C3B43101   8.837   5.477   7.001
 3331POPC   C4B43102   8.773   5.316   7.384
 3332POPC   NC343103  22.472   0.711   5.708
 3332POPC   PO443104  21.909   0.419   5.417
 3332POPC   GL143105  22.074   0.390   5.874
 3332POPC   GL243106  22.396   0.344   6.065
 3332POPC   C1A43107  21.941   0.362   6.334
 3332POPC   D2A43108  21.857   0.475   6.775
 3332POPC   C3A43109  22.081   0.308   7.080
 3332POPC   C4A43110  22.490   0.179   7.182
 3332POPC   C1B43111  22.345   0.712   6.352
 3332POPC   C2B43112  22.382   0.669   6.787
 3332POPC   C3B43113  22.403   0.755   7.202
 3332POPC   C4B43114  22.554   0.838   7.612
 3333POPC   NC343115  14.335  26.499   5.426
 3333POPC   PO443116  14.703  25.995   5.244
 3333POPC   GL143117  14.586  26.060   5.701
 3333POPC   GL243118  14.257  26.075   5.718
 3333POPC   C1A43119  14.488  26.256   6.145
 3333POPC   D2A43120  14.665  26.373   6.564
 3333POPC   C3A43121  14.395  26.282   6.952
 3333POPC   C4A43122  14.409  26.242   7.421
 3333POPC   C1B43123  14.070  25.921   6.082
 3333POPC   C2B43124  14.018  26.090   6.472
 3333POPC   C3B43125  14.009  25.937   6.874
 3333POPC   C4B43126  14.299  25.814   7.197
 3334POPC   NC343127   8.045  29.992   5.382
 3334POPC   PO443128   8.623  30.120   5.652
 3334POPC   GL143129   8.301  29.879   5.836
 3334POPC   GL243130   7.973  30.079   5.893
 3334POPC   C1A43131   8.433  29.797   6.254
 3334POPC   D2A43132   8.542  30.148   6.531
 3334POPC   C3A43133   8.347  30.030   6.903
 3334POPC   C4A43134   8.395  29.655   7.130
 3334POPC   C1B43135   7.991  30.027   6.357
 3334POPC   C2B43136   8.028  29.664   6.670
 3334POPC   C3B43137   7.861  29.648   7.090
 3334POPC   C4B43138   7.647  30.020   7.162
 3335POPC   NC343139  43.245   3.206   5.415
 3335POPC   PO443140  42.766   3.689   5.450
 3335POPC   GL143141  42.865   3.415   5.818
 3335POPC   GL243142  43.226   3.438   5.874
 3335POPC   C1A43143  42.774   3.478   6.293
 3335POPC   D2A43144  43.018   3.741   6.621
 3335POPC   C3A43145  43.070   3.655   7.080
 3335POPC   C4A43146  42.868   3.779   7.486
 3335POPC   C1B43147  43.298   3.428   6.310
 3335POPC   C2B43148  43.105   3.196   6.656
 3335POPC   C3B43149  43.372   3.010   6.931
 3335POPC   C4B43150  43.393   3.285   7.259
 3336POPC   NC343151  32.759  24.343   5.548
 3336POPC   PO443152  32.120  24.542   5.342
 3336POPC   GL143153  32.311  24.530   5.769
 3336POPC   GL243154  32.553  24.806   5.739
 3336POPC   C1A43155  32.336  24.317   6.210
 3336POPC   D2A43156  32.229  24.173   6.634
 3336POPC   C3A43157  32.529  24.208   6.958
 3336POPC   C4A43158  32.300  24.479   7.218
 3336POPC   C1B43159  32.727  24.627   6.148
 3336POPC   C2B43160  32.781  24.476   6.589
 3336POPC   C3B43161  32.670  24.716   6.969
 3336POPC   C4B43162  32.716  24.684   7.432
 3337POPC   NC343163   4.656  34.690   5.480
 3337POPC   PO443164   3.975  34.421   5.299
 3337POPC   GL143165   4.296  34.429   5.722
 3337POPC   GL243166   4.281  34.748   5.855
 3337POPC   C1A43167   4.516  34.453   6.202
 3337POPC   D2A43168   4.290  34.581   6.621
 3337POPC   C3A43169   4.328  34.549   7.109
 3337POPC   C4A43170   4.556  34.353   7.485
 3337POPC   C1B43171   4.405  34.982   6.241
 3337POPC   C2B43172   4.329  35.106   6.675
 3337POPC   C3B43173   4.678  35.066   6.976
 3337POPC   C4B43174   4.774  34.820   7.345
 3338POPC   NC343175  22.182  11.483   5.390
 3338POPC   PO443176  22.129  10.775   5.512
 3338POPC   GL143177  22.281  11.118   5.822
 3338POPC   GL243178  21.994  11.321   5.861
 3338POPC   C1A43179  22.249  11.114   6.316
 3338POPC   D2A43180  21.932  11.031   6.680
 3338POPC   C3A43181  22.008  10.900   7.136
 3338POPC   C4A43182  21.915  11.010   7.576
 3338POPC   C1B43183  22.023  11.568   6.225
 3338POPC   C2B43184  22.158  11.536   6.626
 3338POPC   C3B43185  22.103  11.713   6.995
 3338POPC   C4B43186  22.036  11.420   7.297
 3339POPC   NC343187   7.340  17.859   5.528
 3339POPC   PO443188   7.143  17.167   5.450
 3339POPC   GL143189   7.518  17.376   5.695
 3339POPC   GL243190   7.740  17.202   5.920
 3339POPC   C1A43191   7.582  17.644   6.099
 3339POPC   D2A43192   7.275  17.638   6.447
 3339POPC   C3A43193   7.464  17.658   6.858
 3339POPC   C4A43194   7.222  17.715   7.220
 3339POPC   C1B43195   7.359  17.192   6.167
 3339POPC   C2B43196   7.320  17.132   6.594
 3339POPC   C3B43197   7.200  17.229   7.018
 3339POPC   C4B43198   7.522  17.229   7.328
 3340POPC   NC343199  38.254  42.001   5.119
 3340POPC   PO443200  38.237  41.406   5.482
 3340POPC   GL143201  38.465  41.468   5.884
 3340POPC   GL243202  38.617  41.842   5.985
 3340POPC   C1A43203  38.451  41.238   6.277
 3340POPC   D2A43204  38.602  41.157   6.677
 3340POPC   C3A43205  38.250  41.198   6.937
 3340POPC   C4A43206  38.209  41.531   7.228
 3340POPC   C1B43207  38.303  41.736   6.299
 3340POPC   C2B43208  38.282  41.705   6.741
 3340POPC   C3B43209  38.412  41.958   7.040
 3340POPC   C4B43210  38.747  42.139   7.149
 3341POPC   NC343211   7.228   2.741   5.311
 3341POPC   PO443212   7.781   3.104   5.488
 3341POPC   GL143213   7.470   2.831   5.795
 3341POPC   GL243214   7.214   2.541   5.815
 3341POPC   C1A43215   7.238   2.909   6.228
 3341POPC   D2A43216   7.194   2.953   6.699
 3341POPC   C3A43217   7.555   2.869   7.003
 3341POPC   C4A43218   7.739   3.117   7.343
 3341POPC   C1B43219   7.314   2.403   6.262
 3341POPC   C2B43220   7.391   2.456   6.709
 3341POPC   C3B43221   7.143   2.574   7.063
 3341POPC   C4B43222   7.435   2.696   7.472
 3342POPC   NC343223  38.984  33.216   5.397
 3342POPC   PO443224  38.352  32.850   5.449
 3342POPC   GL143225  38.542  32.963   5.835
 3342POPC   GL243226  38.238  33.101   5.890
 3342POPC   C1A43227  38.534  32.941   6.310
 3342POPC   D2A43228  38.645  32.769   6.711
 3342POPC   C3A43229  38.432  32.979   7.011
 3342POPC   C4A43230  38.489  33.289   7.276
 3342POPC   C1B43231  38.029  32.925   6.192
 3342POPC   C2B43232  38.033  33.127   6.569
 3342POPC   C3B43233  37.923  32.953   6.944
 3342POPC   C4B43234  38.036  33.011   7.332
 3343POPC   NC343235  39.609  37.143   5.427
 3343POPC   PO443236  39.026  36.749   5.413
 3343POPC   GL143237  39.152  36.792   5.818
 3343POPC   GL243238  39.294  37.140   5.833
 3343POPC   C1A43239  39.246  36.847   6.245
 3343POPC   D2A43240  39.453  36.750   6.586
 3343POPC   C3A43241  39.271  36.861   6.942
 3343POPC   C4A43242  39.142  36.901   7.334
 3343POPC   C1B43243  39.169  37.356   6.225
 3343POPC   C2B43244  39.291  37.275   6.647
 3343POPC   C3B43245  39.106  37.364   7.056
 3343POPC   C4B43246  39.118  37.399   7.502
 3344POPC   NC343247  21.830  16.356   5.285
 3344POPC   PO443248  21.256  15.925   5.280
 3344POPC   GL143249  21.327  15.900   5.749
 3344POPC   GL243250  21.089  16.117   5.834
 3344POPC   C1A43251  21.295  15.764   6.203
 3344POPC   D2A43252  21.112  15.835   6.640
 3344POPC   C3A43253  21.390  15.703   6.977
 3344POPC   C4A43254  21.499  15.959   7.334
 3344POPC   C1B43255  21.405  16.265   6.150
 3344POPC   C2B43256  21.541  16.085   6.538
 3344POPC   C3B43257  21.402  16.220   6.899
 3344POPC   C4B43258  21.639  16.440   7.144
 3345POPC   NC343259  10.745  38.371   5.042
 3345POPC   PO443260  11.318  38.565   5.311
 3345POPC   GL143261  11.116  38.466   5.697
 3345POPC   GL243262  11.433  38.355   5.834
 3345POPC   C1A43263  11.098  38.733   6.066
 3345POPC   D2A43264  11.188  38.779   6.495
 3345POPC   C3A43265  11.127  38.495   6.830
 3345POPC   C4A43266  11.102  38.619   7.281
 3345POPC   C1B43267  11.514  38.437   6.276
 3345POPC   C2B43268  11.689  38.360   6.701
 3345POPC   C3B43269  11.550  38.402   7.100
 3345POPC   C4B43270  11.279  38.155   7.350
 3346POPC   NC343271  16.317  32.322   5.276
 3346POPC   PO443272  16.883  31.935   5.512
 3346POPC   GL143273  16.577  32.162   5.771
 3346POPC   GL243274  16.386  31.931   5.983
 3346POPC   C1A43275  16.569  32.377   6.180
 3346POPC   D2A43276  16.387  32.382   6.599
 3346POPC   C3A43277  16.632  32.433   6.977
 3346POPC   C4A43278  16.946  32.176   7.166
 3346POPC   C1B43279  16.666  31.881   6.304
 3346POPC   C2B43280  16.755  32.001   6.693
 3346POPC   C3B43281  16.555  31.863   7.040
 3346POPC   C4B43282  16.459  32.093   7.382
 3347POPC   NC343283   8.118  35.358   5.483
 3347POPC   PO443284   8.273  36.061   5.455
 3347POPC   GL143285   8.253  35.709   5.831
 3347POPC   GL243286   7.900  35.515   5.891
 3347POPC   C1A43287   8.228  35.535   6.305
 3347POPC   D2A43288   8.238  35.714   6.765
 3347POPC   C3A43289   8.334  35.435   7.145
 3347POPC   C4A43290   8.264  35.046   7.389
 3347POPC   C1B43291   7.711  35.580   6.268
 3347POPC   C2B43292   7.813  35.347   6.615
 3347POPC   C3B43293   7.850  35.408   7.017
 3347POPC   C4B43294   7.820  35.488   7.441
 3348POPC   NC343295  40.153  42.936   5.413
 3348POPC   PO443296  39.480  43.220   5.462
 3348POPC   GL143297  39.794  43.276   5.799
 3348POPC   GL243298  39.761  42.943   5.811
 3348POPC   C1A43299  40.013  43.329   6.224
 3348POPC   D2A43300  40.208  43.117   6.553
 3348POPC   C3A43301  40.190  43.289   6.963
 3348POPC   C4A43302  39.947  43.394   7.325
 3348POPC   C1B43303  39.928  42.830   6.159
 3348POPC   C2B43304  39.839  42.734   6.546
 3348POPC   C3B43305  40.018  42.803   6.937
 3348POPC   C4B43306  40.181  42.950   7.357
 3349POPC   NC343307  44.133   3.283   5.392
 3349POPC   PO443308  43.564   3.561   5.491
 3349POPC   GL143309  43.688   3.753   5.873
 3349POPC   GL243310  43.987   3.579   5.860
 3349POPC   C1A43311  43.754   3.740   6.317
 3349POPC   D2A43312  43.848   3.435   6.639
 3349POPC   C3A43313  43.652   3.631   6.983
 3349POPC   C4A43314  43.775   3.848   7.333
 3349POPC   C1B43315  44.215   3.481   6.248
 3349POPC   C2B43316  44.360   3.262   6.606
 3349POPC   C3B43317  44.274   3.452   6.960
 3349POPC   C4B43318  44.000   3.368   7.269
 3350POPC   NC343319   2.945  16.642   5.534
 3350POPC   PO443320   2.574  17.147   5.450
 3350POPC   GL143321   2.641  16.874   5.877
 3350POPC   GL243322   2.907  16.616   6.024
 3350POPC   C1A43323   2.508  16.691   6.305
 3350POPC   D2A43324   2.421  16.471   6.686
 3350POPC   C3A43325   2.512  16.696   7.077
 3350POPC   C4A43326   2.515  16.701   7.532
 3350POPC   C1B43327   3.144  16.643   6.389
 3350POPC   C2B43328   2.923  16.527   6.759
 3350POPC   C3B43329   2.992  16.521   7.170
 3350POPC   C4B43330   2.995  16.587   7.574
 3351POPC   NC343331  44.733  35.410   5.389
 3351POPC   PO443332  44.869  34.767   5.501
 3351POPC   GL143333  44.567  35.106   5.789
 3351POPC   GL243334  44.404  35.489   5.800
 3351POPC   C1A43335  44.490  35.232   6.252
 3351POPC   D2A43336  44.823  35.143   6.575
 3351POPC   C3A43337  44.878  35.310   6.983
 3351POPC   C4A43338  44.641  35.231   7.409
 3351POPC   C1B43339  44.576  35.740   6.164
 3351POPC   C2B43340  44.757  35.688   6.591
 3351POPC   C3B43341  44.560  35.692   7.013
 3351POPC   C4B43342  44.329  35.649   7.400
 3352POPC   NC343343  32.348   7.161   5.602
 3352POPC   PO443344  32.282   6.509   5.308
 3352POPC   GL143345  32.233   6.669   5.753
 3352POPC   GL243346  31.936   6.904   5.817
 3352POPC   C1A43347  32.296   6.826   6.189
 3352POPC   D2A43348  32.471   7.044   6.550
 3352POPC   C3A43349  32.509   6.780   6.896
 3352POPC   C4A43350  32.325   6.672   7.320
 3352POPC   C1B43351  31.840   6.613   6.119
 3352POPC   C2B43352  32.002   6.530   6.520
 3352POPC   C3B43353  31.997   6.726   6.912
 3352POPC   C4B43354  31.830   6.753   7.316
 3353POPC   NC343355   4.271   2.147   5.664
 3353POPC   PO443356   4.693   2.536   5.373
 3353POPC   GL143357   4.590   2.834   5.744
 3353POPC   GL243358   4.271   2.672   5.747
 3353POPC   C1A43359   4.469   2.950   6.211
 3353POPC   D2A43360   4.340   3.059   6.662
 3353POPC   C3A43361   4.324   2.702   6.947
 3353POPC   C4A43362   4.372   2.697   7.387
 3353POPC   C1B43363   4.101   2.570   6.145
 3353POPC   C2B43364   3.948   2.737   6.520
 3353POPC   C3B43365   3.849   2.864   6.911
 3353POPC   C4B43366   3.828   2.708   7.287
 3354POPC   NC343367   5.099  44.394   5.288
 3354POPC   PO443368   5.325   0.034   5.491
 3354POPC   GL143369   5.263  44.664   5.723
 3354POPC   GL243370   5.394  44.314   5.708
 3354POPC   C1A43371   5.075  44.542   6.091
 3354POPC   D2A43372   4.960  44.815   6.438
 3354POPC   C3A43373   5.048  44.716   6.841
 3354POPC   C4A43374   4.930  44.787   7.244
 3354POPC   C1B43375   5.564  44.426   6.119
 3354POPC   C2B43376   5.377  44.466   6.535
 3354POPC   C3B43377   5.534  44.556   6.938
 3354POPC   C4B43378   5.415  44.726   7.347
 3355POPC   NC343379  17.306  27.161   5.477
 3355POPC   PO443380  17.667  26.670   5.273
 3355POPC   GL143381  17.557  26.744   5.708
 3355POPC   GL243382  17.885  26.660   5.798
 3355POPC   C1A43383  17.368  26.945   6.109
 3355POPC   D2A43384  17.170  27.188   6.466
 3355POPC   C3A43385  17.052  26.901   6.805
 3355POPC   C4A43386  17.250  26.763   7.195
 3355POPC   C1B43387  17.665  26.537   6.180
 3355POPC   C2B43388  17.504  26.725   6.569
 3355POPC   C3B43389  17.668  26.612   6.975
 3355POPC   C4B43390  17.816  26.788   7.371
 3356POPC   NC343391   3.189   0.640   5.436
 3356POPC   PO443392   3.718   0.208   5.432
 3356POPC   GL143393   3.707   0.441   5.788
 3356POPC   GL243394   3.372   0.356   5.811
 3356POPC   C1A43395   3.632   0.495   6.226
 3356POPC   D2A43396   3.751   0.272   6.577
 3356POPC   C3A43397   3.670   0.477   6.939
 3356POPC   C4A43398   3.726   0.721   7.283
 3356POPC   C1B43399   3.160   0.246   6.165
 3356POPC   C2B43400   3.236   0.394   6.551
 3356POPC   C3B43401   3.173   0.565   6.915
 3356POPC   C4B43402   3.284   0.412   7.316
 3357POPC   NC343403  37.420   2.483   5.367
 3357POPC   PO443404  37.888   1.886   5.429
 3357POPC   GL143405  37.767   2.055   5.822
 3357POPC   GL243406  37.467   1.968   5.769
 3357POPC   C1A43407  37.819   2.065   6.273
 3357POPC   D2A43408  37.945   2.279   6.654
 3357POPC   C3A43409  37.895   2.094   7.029
 3357POPC   C4A43410  37.747   1.779   7.288
 3357POPC   C1B43411  37.363   2.248   6.076
 3357POPC   C2B43412  37.500   2.453   6.435
 3357POPC   C3B43413  37.469   2.424   6.871
 3357POPC   C4B43414  37.310   2.281   7.258
 3358POPC   NC343415  20.393  19.331   5.532
 3358POPC   PO443416  20.596  18.708   5.463
 3358POPC   GL143417  20.582  18.954   5.825
 3358POPC   GL243418  20.879  18.780   5.948
 3358POPC   C1A43419  20.618  19.162   6.222
 3358POPC   D2A43420  20.648  18.995   6.631
 3358POPC   C3A43421  20.528  19.245   6.989
 3358POPC   C4A43422  20.634  19.271   7.444
 3358POPC   C1B43423  20.970  18.627   6.380
 3358POPC   C2B43424  20.976  18.632   6.848
 3358POPC   C3B43425  20.830  18.895   7.194
 3358POPC   C4B43426  20.743  18.801   7.656
 3359POPC   NC343427  21.715   7.853   5.690
 3359POPC   PO443428  21.902   8.448   5.564
 3359POPC   GL143429  22.079   8.303   5.918
 3359POPC   GL243430  22.425   8.283   5.844
 3359POPC   C1A43431  21.987   8.231   6.349
 3359POPC   D2A43432  21.886   7.970   6.698
 3359POPC   C3A43433  22.056   8.176   7.065
 3359POPC   C4A43434  22.340   8.456   7.295
 3359POPC   C1B43435  22.410   7.967   6.168
 3359POPC   C2B43436  22.389   7.825   6.612
 3359POPC   C3B43437  22.533   7.995   7.016
 3359POPC   C4B43438  22.359   7.953   7.425
 3360POPC   NC343439   3.226  12.578   5.403
 3360POPC   PO443440   3.459  13.178   5.558
 3360POPC   GL143441   3.353  12.951   5.914
 3360POPC   GL243442   3.471  12.623   5.847
 3360POPC   C1A43443   3.619  12.920   6.300
 3360POPC   D2A43444   3.717  13.011   6.748
 3360POPC   C3A43445   3.488  13.070   7.135
 3360POPC   C4A43446   3.677  13.180   7.524
 3360POPC   C1B43447   3.234  12.573   6.261
 3360POPC   C2B43448   3.300  12.706   6.679
 3360POPC   C3B43449   3.505  12.574   7.042
 3360POPC   C4B43450   3.447  12.393   7.435
 3361POPC   NC343451  44.345  10.385   5.615
 3361POPC   PO443452  43.995  10.852   5.316
 3361POPC   GL143453  43.913  10.649   5.736
 3361POPC   GL243454  44.212  10.751   5.942
 3361POPC   C1A43455  43.925  10.324   6.092
 3361POPC   D2A43456  44.072  10.219   6.495
 3361POPC   C3A43457  43.746  10.285   6.798
 3361POPC   C4A43458  43.771  10.533   7.181
 3361POPC   C1B43459  44.022  10.750   6.365
 3361POPC   C2B43460  44.116  10.644   6.787
 3361POPC   C3B43461  44.250  10.717   7.199
 3361POPC   C4B43462  44.045  10.972   7.527
 3362POPC   NC343463  12.537  42.565   5.557
 3362POPC   PO443464  12.910  42.206   5.116
 3362POPC   GL143465  12.793  42.138   5.632
 3362POPC   GL243466  12.894  42.409   5.872
 3362POPC   C1A43467  12.750  42.011   6.111
 3362POPC   D2A43468  12.575  42.169   6.503
 3362POPC   C3A43469  12.872  42.090   6.843
 3362POPC   C4A43470  13.240  42.056   7.106
 3362POPC   C1B43471  12.959  42.484   6.307
 3362POPC   C2B43472  12.786  42.580   6.711
 3362POPC   C3B43473  12.574  42.438   7.064
 3362POPC   C4B43474  12.910  42.476   7.355
 3363POPC   NC343475   8.710  35.910   5.488
 3363POPC   PO443476   9.412  35.759   5.319
 3363POPC   GL143477   9.203  35.970   5.750
 3363POPC   GL243478   8.905  36.219   5.887
 3363POPC   C1A43479   9.235  36.075   6.210
 3363POPC   D2A43480   9.153  35.878   6.588
 3363POPC   C3A43481   9.113  36.074   6.973
 3363POPC   C4A43482   8.777  36.228   7.208
 3363POPC   C1B43483   8.728  36.190   6.303
 3363POPC   C2B43484   8.668  36.050   6.709
 3363POPC   C3B43485   8.747  35.707   6.947
 3363POPC   C4B43486   8.771  35.613   7.358
 3364POPC   NC343487  24.740  24.366   5.434
 3364POPC   PO443488  24.265  24.819   5.593
 3364POPC   GL143489  24.130  24.511   5.886
 3364POPC   GL243490  24.432  24.345   5.970
 3364POPC   C1A43491  24.074  24.493   6.331
 3364POPC   D2A43492  24.427  24.489   6.600
 3364POPC   C3A43493  24.349  24.465   7.031
 3364POPC   C4A43494  24.100  24.746   7.324
 3364POPC   C1B43495  24.740  24.205   6.295
 3364POPC   C2B43496  24.858  24.237   6.746
 3364POPC   C3B43497  24.802  24.216   7.210
 3364POPC   C4B43498  24.836  24.109   7.656
 3365POPC   NC343499  33.421  28.157   5.406
 3365POPC   PO443500  32.916  27.714   5.450
 3365POPC   GL143501  33.036  27.587   5.910
 3365POPC   GL243502  33.310  27.317   5.989
 3365POPC   C1A43503  32.987  27.483   6.372
 3365POPC   D2A43504  32.877  27.795   6.674
 3365POPC   C3A43505  33.097  27.910   7.028
 3365POPC   C4A43506  32.849  27.648   7.228
 3365POPC   C1B43507  33.436  27.708   6.214
 3365POPC   C2B43508  33.396  27.765   6.624
 3365POPC   C3B43509  33.298  27.447   6.915
 3365POPC   C4B43510  33.317  27.536   7.356
 3366POPC   NC343511  30.328  43.222   5.514
 3366POPC   PO443512  29.789  42.965   5.297
 3366POPC   GL143513  29.843  43.210   5.681
 3366POPC   GL243514  29.962  42.906   5.820
 3366POPC   C1A43515  30.066  43.329   6.093
 3366POPC   D2A43516  30.212  43.385   6.494
 3366POPC   C3A43517  30.119  43.171   6.878
 3366POPC   C4A43518  30.283  43.262   7.288
 3366POPC   C1B43519  29.618  43.088   6.116
 3366POPC   C2B43520  29.478  43.068   6.533
 3366POPC   C3B43521  29.542  42.925   6.944
 3366POPC   C4B43522  29.756  43.135   7.242
 3367POPC   NC343523  22.001  29.445   5.223
 3367POPC   PO443524  22.267  28.837   5.396
 3367POPC   GL143525  22.138  29.088   5.745
 3367POPC   GL243526  22.322  29.352   5.650
 3367POPC   C1A43527  22.122  28.974   6.208
 3367POPC   D2A43528  21.760  28.959   6.526
 3367POPC   C3A43529  21.826  29.133   6.947
 3367POPC   C4A43530  22.175  28.889   7.084
 3367POPC   C1B43531  22.338  29.436   6.091
 3367POPC   C2B43532  22.437  29.272   6.519
 3367POPC   C3B43533  22.342  29.350   6.938
 3367POPC   C4B43534  22.404  29.716   7.179
 3368POPC   NC343535   6.202   6.820   5.547
 3368POPC   PO443536   6.752   6.399   5.517
 3368POPC   GL143537   6.885   6.602   5.892
 3368POPC   GL243538   6.587   6.812   5.906
 3368POPC   C1A43539   6.870   6.533   6.336
 3368POPC   D2A43540   6.674   6.728   6.682
 3368POPC   C3A43541   6.764   6.551   7.087
 3368POPC   C4A43542   6.809   6.739   7.494
 3368POPC   C1B43543   6.408   6.464   6.119
 3368POPC   C2B43544   6.263   6.366   6.532
 3368POPC   C3B43545   6.150   6.505   6.972
 3368POPC   C4B43546   6.352   6.787   7.279
 3369POPC   NC343547  34.320  24.663   5.463
 3369POPC   PO443548  34.752  24.145   5.318
 3369POPC   GL143549  34.628  24.344   5.757
 3369POPC   GL243550  34.692  24.682   5.843
 3369POPC   C1A43551  34.605  24.215   6.241
 3369POPC   D2A43552  34.809  24.288   6.682
 3369POPC   C3A43553  34.618  24.155   7.099
 3369POPC   C4A43554  34.755  24.156   7.544
 3369POPC   C1B43555  34.372  24.664   6.169
 3369POPC   C2B43556  34.332  24.524   6.602
 3369POPC   C3B43557  34.529  24.633   6.978
 3369POPC   C4B43558  34.550  24.837   7.342
 3370POPC   NC343559  39.901  26.903   5.183
 3370POPC   PO443560  39.971  26.274   5.174
 3370POPC   GL143561  40.021  26.639   5.625
 3370POPC   GL243562  39.910  26.982   5.703
 3370POPC   C1A43563  39.915  26.610   6.129
 3370POPC   D2A43564  39.891  26.435   6.601
 3370POPC   C3A43565  39.942  26.678   6.987
 3370POPC   C4A43566  39.859  26.494   7.391
 3370POPC   C1B43567  40.075  27.116   6.133
 3370POPC   C2B43568  40.070  27.092   6.600
 3370POPC   C3B43569  40.371  27.010   6.951
 3370POPC   C4B43570  40.545  27.101   7.374
 3371POPC   NC343571   7.857   2.033   5.631
 3371POPC   PO443572   7.314   2.223   5.415
 3371POPC   GL143573   7.313   1.996   5.813
 3371POPC   GL243574   7.051   1.702   5.788
 3371POPC   C1A43575   7.533   1.918   6.227
 3371POPC   D2A43576   7.695   2.019   6.642
 3371POPC   C3A43577   7.514   1.900   7.012
 3371POPC   C4A43578   7.440   2.231   7.259
 3371POPC   C1B43579   7.194   1.527   6.195
 3371POPC   C2B43580   7.372   1.548   6.618
 3371POPC   C3B43581   7.136   1.569   7.024
 3371POPC   C4B43582   7.172   1.809   7.424
 3372POPC   NC343583  32.699   7.916   5.401
 3372POPC   PO443584  33.417   7.928   5.414
 3372POPC   GL143585  33.306   8.176   5.791
 3372POPC   GL243586  32.920   8.215   5.825
 3372POPC   C1A43587  33.247   8.252   6.227
 3372POPC   D2A43588  33.014   8.181   6.575
 3372POPC   C3A43589  33.280   8.108   6.892
 3372POPC   C4A43590  33.165   8.129   7.318
 3372POPC   C1B43591  32.740   8.454   6.207
 3372POPC   C2B43592  32.642   8.517   6.666
 3372POPC   C3B43593  32.716   8.309   7.066
 3372POPC   C4B43594  32.412   8.362   7.391
 3373POPC   NC343595  25.972  23.220   5.399
 3373POPC   PO443596  26.116  22.593   5.687
 3373POPC   GL143597  26.103  23.034   5.873
 3373POPC   GL243598  25.738  23.127   5.855
 3373POPC   C1A43599  26.187  23.095   6.322
 3373POPC   D2A43600  26.116  22.759   6.606
 3373POPC   C3A43601  26.126  22.825   7.000
 3373POPC   C4A43602  25.846  22.639   7.187
 3373POPC   C1B43603  25.756  23.359   6.260
 3373POPC   C2B43604  25.865  23.260   6.734
 3373POPC   C3B43605  25.737  23.203   7.200
 3373POPC   C4B43606  25.604  23.389   7.618
 3374POPC   NC343607   3.956   3.062   5.433
 3374POPC   PO443608   4.447   3.497   5.496
 3374POPC   GL143609   4.405   3.379   5.892
 3374POPC   GL243610   4.126   3.136   5.900
 3374POPC   C1A43611   4.474   3.669   6.242
 3374POPC   D2A43612   4.747   3.758   6.590
 3374POPC   C3A43613   4.498   3.838   6.947
 3374POPC   C4A43614   4.337   3.584   7.195
 3374POPC   C1B43615   4.101   3.323   6.289
 3374POPC   C2B43616   4.125   3.585   6.627
 3374POPC   C3B43617   3.991   3.339   6.948
 3374POPC   C4B43618   4.132   3.136   7.320
 3375POPC   NC343619  22.423  35.673   5.406
 3375POPC   PO443620  22.396  36.351   5.380
 3375POPC   GL143621  22.266  36.257   5.783
 3375POPC   GL243622  22.479  35.974   5.816
 3375POPC   C1A43623  22.103  36.328   6.206
 3375POPC   D2A43624  22.001  36.083   6.574
 3375POPC   C3A43625  22.048  36.218   6.997
 3375POPC   C4A43626  21.972  36.027   7.396
 3375POPC   C1B43627  22.267  35.837   6.179
 3375POPC   C2B43628  22.371  35.705   6.636
 3375POPC   C3B43629  22.346  35.812   7.091
 3375POPC   C4B43630  22.453  35.858   7.554
 3376POPC   NC343631  27.999  11.931   5.414
 3376POPC   PO443632  28.615  11.689   5.318
 3376POPC   GL143633  28.426  11.925   5.706
 3376POPC   GL243634  28.135  12.189   5.846
 3376POPC   C1A43635  28.481  11.963   6.147
 3376POPC   D2A43636  28.521  12.108   6.561
 3376POPC   C3A43637  28.386  11.889   6.928
 3376POPC   C4A43638  28.677  11.709   7.175
 3376POPC   C1B43639  28.019  12.192   6.309
 3376POPC   C2B43640  28.043  12.242   6.778
 3376POPC   C3B43641  28.313  12.349   7.169
 3376POPC   C4B43642  28.134  12.376   7.604
 3377POPC   NC343643   4.702   1.056   5.053
 3377POPC   PO443644   5.113   1.429   5.535
 3377POPC   GL143645   5.102   1.122   5.818
 3377POPC   GL243646   4.784   1.030   5.773
 3377POPC   C1A43647   5.292   1.176   6.197
 3377POPC   D2A43648   5.113   1.427   6.548
 3377POPC   C3A43649   5.364   1.603   6.872
 3377POPC   C4A43650   5.465   1.450   7.241
 3377POPC   C1B43651   4.785   1.141   6.240
 3377POPC   C2B43652   4.701   1.169   6.700
 3377POPC   C3B43653   5.005   1.228   7.041
 3377POPC   C4B43654   4.904   1.138   7.479
 3378POPC   NC343655  35.508  24.824   5.628
 3378POPC   PO443656  35.455  25.541   5.489
 3378POPC   GL143657  35.332  25.331   5.870
 3378POPC   GL243658  35.106  25.036   5.847
 3378POPC   C1A43659  35.544  25.353   6.273
 3378POPC   D2A43660  35.551  25.586   6.650
 3378POPC   C3A43661  35.483  25.400   7.050
 3378POPC   C4A43662  35.682  25.669   7.319
 3378POPC   C1B43663  35.182  24.976   6.257
 3378POPC   C2B43664  35.247  25.132   6.654
 3378POPC   C3B43665  35.565  24.924   6.890
 3378POPC   C4B43666  35.464  24.852   7.285
 3379POPC   NC343667   5.361  16.278   5.157
 3379POPC   PO443668   4.919  16.693   5.473
 3379POPC   GL143669   5.210  16.849   5.793
 3379POPC   GL243670   4.928  16.914   5.974
 3379POPC   C1A43671   5.381  16.791   6.214
 3379POPC   D2A43672   5.319  16.718   6.650
 3379POPC   C3A43673   5.390  16.375   6.887
 3379POPC   C4A43674   5.232  16.518   7.267
 3379POPC   C1B43675   4.880  16.789   6.392
 3379POPC   C2B43676   4.910  17.003   6.793
 3379POPC   C3B43677   4.825  16.834   7.196
 3379POPC   C4B43678   4.938  16.766   7.609
 3380POPC   NC343679  42.697  29.040   5.608
 3380POPC   PO443680  42.043  29.229   5.334
 3380POPC   GL143681  42.125  29.156   5.833
 3380POPC   GL243682  42.290  28.843   5.880
 3380POPC   C1A43683  42.120  29.006   6.328
 3380POPC   D2A43684  42.197  28.870   6.781
 3380POPC   C3A43685  42.264  29.189   7.149
 3380POPC   C4A43686  42.019  29.399   7.513
 3380POPC   C1B43687  42.607  28.790   6.236
 3380POPC   C2B43688  42.732  28.923   6.621
 3380POPC   C3B43689  42.815  28.762   7.006
 3380POPC   C4B43690  42.714  29.015   7.325
 3381POPC   NC343691  21.036  28.256   5.480
 3381POPC   PO443692  20.453  28.468   5.317
 3381POPC   GL143693  20.571  28.355   5.766
 3381POPC   GL243694  20.892  28.556   5.873
 3381POPC   C1A43695  20.358  28.399   6.203
 3381POPC   D2A43696  20.158  28.612   6.599
 3381POPC   C3A43697  20.320  28.520   7.042
 3381POPC   C4A43698  20.485  28.212   7.336
 3381POPC   C1B43699  20.809  28.617   6.329
 3381POPC   C2B43700  20.623  28.329   6.658
 3381POPC   C3B43701  20.874  28.280   7.028
 3381POPC   C4B43702  21.076  28.643   7.192
 3382POPC   NC343703  27.992  19.947   5.572
 3382POPC   PO443704  28.624  19.798   5.732
 3382POPC   GL143705  28.269  19.923   5.981
 3382POPC   GL243706  28.223  20.255   6.060
 3382POPC   C1A43707  27.958  19.903   6.337
 3382POPC   D2A43708  27.903  20.028   6.772
 3382POPC   C3A43709  28.211  19.810   7.022
 3382POPC   C4A43710  28.556  19.569   7.209
 3382POPC   C1B43711  28.588  20.088   6.327
 3382POPC   C2B43712  28.671  19.876   6.716
 3382POPC   C3B43713  28.665  20.066   7.117
 3382POPC   C4B43714  28.538  20.174   7.527
 3383POPC   NC343715   9.549  21.697   5.511
 3383POPC   PO443716  10.051  21.197   5.452
 3383POPC   GL143717   9.843  21.325   5.831
 3383POPC   GL243718   9.928  21.672   5.871
 3383POPC   C1A43719   9.753  21.138   6.247
 3383POPC   D2A43720   9.516  20.980   6.593
 3383POPC   C3A43721   9.721  21.058   6.977
 3383POPC   C4A43722   9.638  21.190   7.417
 3383POPC   C1B43723   9.575  21.623   6.182
 3383POPC   C2B43724   9.379  21.474   6.573
 3383POPC   C3B43725   9.512  21.542   7.005
 3383POPC   C4B43726   9.646  21.709   7.407
 3384POPC   NC343727   2.388  33.512   5.133
 3384POPC   PO443728   2.672  32.964   5.411
 3384POPC   GL143729   2.825  33.023   5.811
 3384POPC   GL243730   2.796  33.330   5.910
 3384POPC   C1A43731   2.947  32.883   6.230
 3384POPC   D2A43732   2.926  33.092   6.635
 3384POPC   C3A43733   2.911  32.831   6.990
 3384POPC   C4A43734   2.933  32.907   7.440
 3384POPC   C1B43735   2.525  33.208   6.272
 3384POPC   C2B43736   2.418  33.129   6.722
 3384POPC   C3B43737   2.572  33.182   7.133
 3384POPC   C4B43738   2.468  33.303   7.535
 3385POPC   NC343739   9.139  12.476   5.497
 3385POPC   PO443740   8.817  11.922   5.068
 3385POPC   GL143741   8.965  11.946   5.534
 3385POPC   GL243742   8.674  12.064   5.690
 3385POPC   C1A43743   9.029  11.926   6.049
 3385POPC   D2A43744   8.853  12.079   6.473
 3385POPC   C3A43745   9.128  12.060   6.858
 3385POPC   C4A43746   8.953  11.949   7.265
 3385POPC   C1B43747   8.698  12.349   6.052
 3385POPC   C2B43748   8.653  12.573   6.461
 3385POPC   C3B43749   8.801  12.508   6.881
 3385POPC   C4B43750   9.074  12.429   7.226
 3386POPC   NC343751  37.304  43.794   5.277
 3386POPC   PO443752  37.960  44.034   5.248
 3386POPC   GL143753  37.693  43.898   5.628
 3386POPC   GL243754  37.569  44.186   5.851
 3386POPC   C1A43755  37.659  43.752   6.092
 3386POPC   D2A43756  37.808  43.900   6.516
 3386POPC   C3A43757  37.731  43.656   6.895
 3386POPC   C4A43758  38.021  43.506   7.202
 3386POPC   C1B43759  37.881  44.278   6.172
 3386POPC   C2B43760  37.759  44.395   6.618
 3386POPC   C3B43761  37.612  44.177   6.996
 3386POPC   C4B43762  37.865  44.049   7.358
 3387POPC   NC343763  17.013  30.167   5.438
 3387POPC   PO443764  16.468  29.642   5.428
 3387POPC   GL143765  16.737  29.809   5.779
 3387POPC   GL243766  16.688  30.167   5.838
 3387POPC   C1A43767  16.698  29.840   6.240
 3387POPC   D2A43768  16.480  29.545   6.514
 3387POPC   C3A43769  16.566  29.683   6.927
 3387POPC   C4A43770  16.925  29.723   7.208
 3387POPC   C1B43771  16.875  30.353   6.203
 3387POPC   C2B43772  16.857  30.216   6.639
 3387POPC   C3B43773  16.742  30.184   7.079
 3387POPC   C4B43774  17.056  30.251   7.419
 3388POPC   NC343775  36.641  23.456   5.352
 3388POPC   PO443776  37.251  23.730   5.626
 3388POPC   GL143777  36.866  23.605   5.780
 3388POPC   GL243778  36.621  23.869   5.765
 3388POPC   C1A43779  36.652  23.433   6.130
 3388POPC   D2A43780  36.897  23.464   6.506
 3388POPC   C3A43781  36.737  23.517   6.910
 3388POPC   C4A43782  36.941  23.660   7.243
 3388POPC   C1B43783  36.765  23.933   6.202
 3388POPC   C2B43784  36.581  23.922   6.613
 3388POPC   C3B43785  36.628  24.001   7.063
 3388POPC   C4B43786  36.534  23.845   7.488
 3389POPC   NC343787  32.061  24.962   5.546
 3389POPC   PO443788  32.477  25.474   5.400
 3389POPC   GL143789  32.540  25.445   5.805
 3389POPC   GL243790  32.248  25.281   5.896
 3389POPC   C1A43791  32.479  25.537   6.262
 3389POPC   D2A43792  32.283  25.270   6.546
 3389POPC   C3A43793  32.260  25.423   6.956
 3389POPC   C4A43794  31.957  25.339   7.225
 3389POPC   C1B43795  32.295  24.910   6.166
 3389POPC   C2B43796  32.326  24.719   6.560
 3389POPC   C3B43797  32.178  24.901   6.925
 3389POPC   C4B43798  32.359  25.016   7.291
 3390POPC   NC343799  17.474  25.326   5.376
 3390POPC   PO443800  18.055  25.469   5.462
 3390POPC   GL143801  17.675  25.537   5.805
 3390POPC   GL243802  17.282  25.436   5.833
 3390POPC   C1A43803  17.608  25.308   6.207
 3390POPC   D2A43804  17.451  25.109   6.585
 3390POPC   C3A43805  17.393  25.378   6.943
 3390POPC   C4A43806  17.619  25.404   7.360
 3390POPC   C1B43807  17.102  25.192   6.188
 3390POPC   C2B43808  16.962  25.246   6.608
 3390POPC   C3B43809  17.071  24.940   6.913
 3390POPC   C4B43810  17.238  25.049   7.314
 3391POPC   NC343811   8.130  41.668   5.456
 3391POPC   PO443812   7.891  40.965   5.379
 3391POPC   GL143813   7.976  41.158   5.748
 3391POPC   GL243814   8.285  41.315   5.764
 3391POPC   C1A43815   7.902  41.402   6.120
 3391POPC   D2A43816   8.078  41.515   6.505
 3391POPC   C3A43817   7.907  41.649   6.880
 3391POPC   C4A43818   8.158  41.553   7.224
 3391POPC   C1B43819   8.430  41.493   6.143
 3391POPC   C2B43820   8.615  41.593   6.549
 3391POPC   C3B43821   8.669  41.422   6.946
 3391POPC   C4B43822   8.647  41.618   7.321
 3392POPC   NC343823  29.000  14.067   5.443
 3392POPC   PO443824  28.929  14.723   5.636
 3392POPC   GL143825  29.043  14.346   5.866
 3392POPC   GL243826  28.731  14.123   5.885
 3392POPC   C1A43827  29.251  14.446   6.240
 3392POPC   D2A43828  28.994  14.726   6.488
 3392POPC   C3A43829  29.106  14.701   6.904
 3392POPC   C4A43830  29.471  14.503   7.048
 3392POPC   C1B43831  28.770  14.282   6.313
 3392POPC   C2B43832  29.084  14.168   6.633
 3392POPC   C3B43833  29.069  14.197   7.060
 3392POPC   C4B43834  28.919  14.004   7.396
 3393POPC   NC343835  19.772  30.139   5.372
 3393POPC   PO443836  19.842  29.480   5.192
 3393POPC   GL143837  19.711  29.696   5.658
 3393POPC   GL243838  19.583  30.059   5.806
 3393POPC   C1A43839  19.845  29.803   6.125
 3393POPC   D2A43840  20.063  30.085   6.422
 3393POPC   C3A43841  20.251  29.850   6.756
 3393POPC   C4A43842  19.976  29.667   7.086
 3393POPC   C1B43843  19.598  30.243   6.223
 3393POPC   C2B43844  19.580  29.956   6.564
 3393POPC   C3B43845  19.515  29.880   6.990
 3393POPC   C4B43846  19.657  30.252   7.214
 3394POPC   NC343847  20.609  34.983   5.397
 3394POPC   PO443848  20.997  34.467   5.315
 3394POPC   GL143849  20.807  34.546   5.727
 3394POPC   GL243850  20.479  34.645   5.807
 3394POPC   C1A43851  20.728  34.435   6.210
 3394POPC   D2A43852  20.551  34.300   6.627
 3394POPC   C3A43853  20.390  34.493   7.010
 3394POPC   C4A43854  20.616  34.435   7.380
 3394POPC   C1B43855  20.805  34.909   6.067
 3394POPC   C2B43856  20.988  34.794   6.492
 3394POPC   C3B43857  20.853  34.666   6.889
 3394POPC   C4B43858  20.919  34.839   7.270
 3395POPC   NC343859  15.939  16.747   5.448
 3395POPC   PO443860  16.264  16.168   5.501
 3395POPC   GL143861  15.938  16.224   5.862
 3395POPC   GL243862  15.805  16.579   5.912
 3395POPC   C1A43863  15.865  16.294   6.328
 3395POPC   D2A43864  15.596  16.559   6.601
 3395POPC   C3A43865  15.781  16.593   7.031
 3395POPC   C4A43866  16.230  16.570   7.207
 3395POPC   C1B43867  16.011  16.822   6.241
 3395POPC   C2B43868  16.048  16.847   6.692
 3395POPC   C3B43869  16.065  17.066   7.095
 3395POPC   C4B43870  16.466  17.049   7.269
 3396POPC   NC343871  19.172  10.583   5.402
 3396POPC   PO443872  19.609  10.182   5.750
 3396POPC   GL143873  19.135  10.260   5.818
 3396POPC   GL243874  18.964  10.627   5.865
 3396POPC   C1A43875  18.922  10.281   6.223
 3396POPC   D2A43876  19.028  10.508   6.596
 3396POPC   C3A43877  18.937  10.361   7.001
 3396POPC   C4A43878  19.214  10.450   7.352
 3396POPC   C1B43879  18.732  10.784   6.287
 3396POPC   C2B43880  18.776  10.926   6.767
 3396POPC   C3B43881  18.883  10.925   7.219
 3396POPC   C4B43882  18.890  11.219   7.579
 3397POPC   NC343883  20.579  43.404   5.507
 3397POPC   PO443884  20.675  42.736   5.334
 3397POPC   GL143885  20.470  42.950   5.674
 3397POPC   GL243886  20.770  43.073   5.836
 3397POPC   C1A43887  20.368  42.890   6.113
 3397POPC   D2A43888  20.477  43.042   6.520
 3397POPC   C3A43889  20.372  42.797   6.865
 3397POPC   C4A43890  20.419  42.902   7.276
 3397POPC   C1B43891  20.683  43.364   6.169
 3397POPC   C2B43892  20.706  43.507   6.606
 3397POPC   C3B43893  20.672  43.261   6.990
 3397POPC   C4B43894  20.920  43.107   7.351
 3398POPC   NC343895  35.491  34.416   5.228
 3398POPC   PO443896  35.060  34.868   5.514
 3398POPC   GL143897  35.372  34.707   5.828
 3398POPC   GL243898  35.525  34.362   5.783
 3398POPC   C1A43899  35.412  34.609   6.274
 3398POPC   D2A43900  35.135  34.489   6.619
 3398POPC   C3A43901  35.307  34.634   6.999
 3398POPC   C4A43902  35.188  34.820   7.383
 3398POPC   C1B43903  35.522  34.127   6.207
 3398POPC   C2B43904  35.582  34.277   6.648
 3398POPC   C3B43905  35.393  34.123   7.028
 3398POPC   C4B43906  35.545  34.372   7.361
 3399POPC   NC343907  21.079   8.315   5.152
 3399POPC   PO443908  21.279   7.766   5.492
 3399POPC   GL143909  21.363   8.237   5.671
 3399POPC   GL243910  21.031   8.367   5.681
 3399POPC   C1A43911  21.525   8.422   6.107
 3399POPC   D2A43912  21.452   8.214   6.521
 3399POPC   C3A43913  21.585   8.306   6.945
 3399POPC   C4A43914  21.490   8.099   7.319
 3399POPC   C1B43915  21.014   8.462   6.125
 3399POPC   C2B43916  20.937   8.301   6.550
 3399POPC   C3B43917  21.097   8.122   6.938
 3399POPC   C4B43918  21.109   8.423   7.257
 3400POPC   NC343919   0.967  29.175   5.460
 3400POPC   PO443920   1.656  29.403   5.503
 3400POPC   GL143921   1.345  29.167   5.840
 3400POPC   GL243922   0.949  29.186   5.944
 3400POPC   C1A43923   1.232  28.849   6.178
 3400POPC   D2A43924   1.330  28.953   6.584
 3400POPC   C3A43925   1.139  28.886   6.937
 3400POPC   C4A43926   1.081  28.924   7.351
 3400POPC   C1B43927   1.064  29.301   6.306
 3400POPC   C2B43928   0.967  29.294   6.690
 3400POPC   C3B43929   1.004  29.437   7.074
 3400POPC   C4B43930   0.815  29.422   7.445
 3401POPC   NC343931  14.491  37.930   5.024
 3401POPC   PO443932  14.185  37.770   5.578
 3401POPC   GL143933  14.276  37.500   5.881
 3401POPC   GL243934  14.615  37.381   5.765
 3401POPC   C1A43935  14.209  37.633   6.292
 3401POPC   D2A43936  14.416  37.973   6.506
 3401POPC   C3A43937  14.392  37.863   6.932
 3401POPC   C4A43938  14.509  37.848   7.348
 3401POPC   C1B43939  14.558  37.273   6.219
 3401POPC   C2B43940  14.574  37.460   6.633
 3401POPC   C3B43941  14.510  37.354   7.067
 3401POPC   C4B43942  14.775  37.386   7.420
 3402POPC   NC343943  12.142  32.283   5.339
 3402POPC   PO443944  11.523  32.156   5.631
 3402POPC   GL143945  11.904  32.192   5.792
 3402POPC   GL243946  11.891  32.522   5.719
 3402POPC   C1A43947  12.069  32.069   6.176
 3402POPC   D2A43948  12.106  31.836   6.553
 3402POPC   C3A43949  12.315  32.124   6.834
 3402POPC   C4A43950  12.276  32.044   7.264
 3402POPC   C1B43951  11.752  32.551   6.150
 3402POPC   C2B43952  11.843  32.676   6.578
 3402POPC   C3B43953  11.663  32.603   6.969
 3402POPC   C4B43954  12.001  32.454   7.215
 3403POPC   NC343955  21.685   8.848   5.588
 3403POPC   PO443956  21.112   8.738   5.309
 3403POPC   GL143957  21.202   8.863   5.768
 3403POPC   GL243958  21.424   9.186   5.856
 3403POPC   C1A43959  21.215   8.919   6.231
 3403POPC   D2A43960  21.496   8.745   6.554
 3403POPC   C3A43961  21.362   8.743   6.972
 3403POPC   C4A43962  21.089   8.956   7.274
 3403POPC   C1B43963  21.695   9.123   6.209
 3403POPC   C2B43964  21.453   9.264   6.518
 3403POPC   C3B43965  21.332   9.218   6.860
 3403POPC   C4B43966  21.584   9.128   7.218
 3404POPC   NC343967   9.659  15.407   5.060
 3404POPC   PO443968   9.599  15.983   5.310
 3404POPC   GL143969   9.896  15.988   5.670
 3404POPC   GL243970   9.826  15.632   5.693
 3404POPC   C1A43971   9.987  16.185   6.126
 3404POPC   D2A43972   9.793  16.251   6.592
 3404POPC   C3A43973   9.953  16.151   7.064
 3404POPC   C4A43974   9.927  16.278   7.552
 3404POPC   C1B43975   9.770  15.715   6.139
 3404POPC   C2B43976   9.558  15.778   6.546
 3404POPC   C3B43977   9.632  15.659   6.962
 3404POPC   C4B43978  10.011  15.624   7.204
 3405POPC   NC343979  32.595  28.095   5.288
 3405POPC   PO443980  33.184  28.552   5.324
 3405POPC   GL143981  33.048  28.388   5.738
 3405POPC   GL243982  32.778  28.107   5.769
 3405POPC   C1A43983  33.067  28.482   6.184
 3405POPC   D2A43984  33.121  28.236   6.555
 3405POPC   C3A43985  32.918  28.379   6.914
 3405POPC   C4A43986  33.188  28.363   7.273
 3405POPC   C1B43987  32.832  28.012   6.198
 3405POPC   C2B43988  32.569  28.180   6.553
 3405POPC   C3B43989  32.496  28.031   6.977
 3405POPC   C4B43990  32.732  28.117   7.351
 3406POPC   NC343991   9.611  34.502   5.467
 3406POPC   PO443992  10.271  34.493   5.565
 3406POPC   GL143993   9.948  34.546   5.863
 3406POPC   GL243994   9.672  34.771   5.902
 3406POPC   C1A43995   9.798  34.317   6.220
 3406POPC   D2A43996   9.868  34.185   6.657
 3406POPC   C3A43997   9.746  34.333   7.050
 3406POPC   C4A43998   9.741  34.373   7.503
 3406POPC   C1B43999   9.876  34.811   6.295
 3406POPC   C2B44000   9.918  35.068   6.606
 3406POPC   C3B44001   9.911  34.878   6.989
 3406POPC   C4B44002   9.616  34.821   7.294
 3407POPC   NC344003  39.296   1.374   5.423
 3407POPC   PO444004  38.654   1.327   5.523
 3407POPC   GL144005  38.896   1.096   5.886
 3407POPC   GL244006  39.264   1.138   5.909
 3407POPC   C1A44007  38.895   1.111   6.341
 3407POPC   D2A44008  38.686   0.962   6.711
 3407POPC   C3A44009  38.930   1.124   7.046
 3407POPC   C4A44010  39.187   1.506   7.118
 3407POPC   C1B44011  39.383   0.969   6.324
 3407POPC   C2B44012  39.344   1.121   6.749
 3407POPC   C3B44013  39.576   1.122   7.143
 3407POPC   C4B44014  39.684   0.942   7.554
 3408POPC   NC344015   9.153  33.674   5.383
 3408POPC   PO444016   8.620  34.077   5.279
 3408POPC   GL144017   8.931  34.075   5.664
 3408POPC   GL244018   9.165  33.835   5.875
 3408POPC   C1A44019   8.829  34.094   6.125
 3408POPC   D2A44020   8.906  33.795   6.476
 3408POPC   C3A44021   8.801  33.837   6.914
 3408POPC   C4A44022   8.918  33.524   7.233
 3408POPC   C1B44023   9.329  34.054   6.300
 3408POPC   C2B44024   9.233  34.139   6.754
 3408POPC   C3B44025   9.245  33.946   7.183
 3408POPC   C4B44026   9.310  34.125   7.614
 3409POPC   NC344027  25.227  39.503   5.536
 3409POPC   PO444028  24.943  38.851   5.374
 3409POPC   GL144029  25.196  39.031   5.741
 3409POPC   GL244030  25.479  39.251   5.867
 3409POPC   C1A44031  25.109  39.155   6.173
 3409POPC   D2A44032  25.067  38.831   6.439
 3409POPC   C3A44033  25.199  38.921   6.842
 3409POPC   C4A44034  25.007  39.158   7.201
 3409POPC   C1B44035  25.591  38.953   6.234
 3409POPC   C2B44036  25.716  39.110   6.644
 3409POPC   C3B44037  25.546  39.258   7.026
 3409POPC   C4B44038  25.486  39.019   7.376
 3410POPC   NC344039  17.096  14.641   5.384
 3410POPC   PO444040  17.616  15.118   5.382
 3410POPC   GL144041  17.670  15.219   5.807
 3410POPC   GL244042  17.893  14.924   5.843
 3410POPC   C1A44043  17.540  15.473   6.190
 3410POPC   D2A44044  17.624  15.559   6.636
 3410POPC   C3A44045  17.439  15.296   6.968
 3410POPC   C4A44046  17.217  14.950   7.193
 3410POPC   C1B44047  17.970  15.177   6.221
 3410POPC   C2B44048  17.855  15.118   6.645
 3410POPC   C3B44049  17.838  14.940   7.050
 3410POPC   C4B44050  17.934  14.718   7.434
 3411POPC   NC344051  21.983  28.477   5.345
 3411POPC   PO444052  22.549  28.138   5.466
 3411POPC   GL144053  22.204  28.251   5.769
 3411POPC   GL244054  22.079  28.589   5.831
 3411POPC   C1A44055  22.126  28.254   6.233
 3411POPC   D2A44056  22.158  28.588   6.543
 3411POPC   C3A44057  22.392  28.453   6.883
 3411POPC   C4A44058  22.317  28.203   7.256
 3411POPC   C1B44059  21.756  28.600   6.139
 3411POPC   C2B44060  21.661  28.424   6.540
 3411POPC   C3B44061  21.892  28.328   6.922
 3411POPC   C4B44062  21.926  28.519   7.299
 3412POPC   NC344063  13.850  36.327   5.363
 3412POPC   PO444064  13.637  36.941   5.467
 3412POPC   GL144065  13.781  36.864   5.864
 3412POPC   GL244066  13.887  36.501   5.842
 3412POPC   C1A44067  13.557  36.924   6.244
 3412POPC   D2A44068  13.392  37.166   6.595
 3412POPC   C3A44069  13.501  36.975   6.984
 3412POPC   C4A44070  13.659  37.097   7.381
 3412POPC   C1B44071  14.033  36.598   6.243
 3412POPC   C2B44072  13.838  36.738   6.645
 3412POPC   C3B44073  13.780  36.558   7.061
 3412POPC   C4B44074  13.510  36.603   7.439
 3413POPC   NC344075  10.650   7.775   5.505
 3413POPC   PO444076  10.671   7.125   5.513
 3413POPC   GL144077  10.343   7.363   5.753
 3413POPC   GL244078  10.584   7.450   5.932
 3413POPC   C1A44079  10.157   7.547   6.165
 3413POPC   D2A44080  10.331   7.431   6.603
 3413POPC   C3A44081  10.206   7.483   7.068
 3413POPC   C4A44082  10.269   7.763   7.458
 3413POPC   C1B44083  10.791   7.458   6.321
 3413POPC   C2B44084  10.758   7.170   6.671
 3413POPC   C3B44085  10.707   7.169   7.094
 3413POPC   C4B44086  10.928   6.841   7.221
 3414POPC   NC344087  24.318  14.138   5.374
 3414POPC   PO444088  24.717  14.710   5.364
 3414POPC   GL144089  24.643  14.427   5.721
 3414POPC   GL244090  24.292  14.414   5.816
 3414POPC   C1A44091  24.709  14.188   6.122
 3414POPC   D2A44092  24.497  14.122   6.526
 3414POPC   C3A44093  24.689  14.122   6.934
 3414POPC   C4A44094  24.528  14.197   7.362
 3414POPC   C1B44095  24.421  14.626   6.196
 3414POPC   C2B44096  24.371  14.732   6.637
 3414POPC   C3B44097  24.437  14.578   7.056
 3414POPC   C4B44098  24.459  14.661   7.510
 3415POPC   NC344099   0.689  41.285   5.387
 3415POPC   PO444100   0.340  41.816   5.497
 3415POPC   GL144101   0.648  41.630   5.796
 3415POPC   GL244102   0.468  41.354   5.910
 3415POPC   C1A44103   0.732  41.618   6.278
 3415POPC   D2A44104   0.463  41.705   6.662
 3415POPC   C3A44105   0.572  41.417   6.979
 3415POPC   C4A44106   0.977  41.381   7.154
 3415POPC   C1B44107   0.253  41.765   6.178
 3415POPC   C2B44108   0.077  42.045   6.544
 3415POPC   C3B44109   0.038  41.878   6.973
 3415POPC   C4B44110   0.272  41.669   7.290
 3416POPC   NC344111  38.778  18.466   5.263
 3416POPC   PO444112  38.262  18.137   5.396
 3416POPC   GL144113  38.433  18.360   5.771
 3416POPC   GL244114  38.786  18.418   5.766
 3416POPC   C1A44115  38.292  18.448   6.223
 3416POPC   D2A44116  38.304  18.167   6.577
 3416POPC   C3A44117  38.303  18.301   6.998
 3416POPC   C4A44118  38.172  17.994   7.303
 3416POPC   C1B44119  38.786  18.280   6.196
 3416POPC   C2B44120  38.777  18.408   6.634
 3416POPC   C3B44121  38.906  18.372   7.066
 3416POPC   C4B44122  38.624  18.257   7.386
 3417POPC   NC344123  13.565  29.239   5.404
 3417POPC   PO444124  14.034  28.802   5.512
 3417POPC   GL144125  13.908  29.164   5.768
 3417POPC   GL244126  14.059  29.003   6.003
 3417POPC   C1A44127  13.714  29.348   6.165
 3417POPC   D2A44128  13.497  29.178   6.534
 3417POPC   C3A44129  13.520  29.258   6.978
 3417POPC   C4A44130  13.748  29.308   7.355
 3417POPC   C1B44131  14.190  28.822   6.368
 3417POPC   C2B44132  13.854  28.780   6.632
 3417POPC   C3B44133  13.924  28.917   6.995
 3417POPC   C4B44134  14.226  28.805   7.266
 3418POPC   NC344135  16.428  39.808   5.021
 3418POPC   PO444136  15.908  39.673   5.304
 3418POPC   GL144137  16.033  39.846   5.724
 3418POPC   GL244138  15.709  39.878   5.847
 3418POPC   C1A44139  16.060  40.137   6.123
 3418POPC   D2A44140  16.125  40.044   6.537
 3418POPC   C3A44141  15.998  40.044   6.942
 3418POPC   C4A44142  16.119  39.792   7.272
 3418POPC   C1B44143  15.567  40.078   6.249
 3418POPC   C2B44144  15.410  40.243   6.644
 3418POPC   C3B44145  15.509  40.111   7.070
 3418POPC   C4B44146  15.748  40.106   7.417
 3419POPC   NC344147  10.949  27.025   5.506
 3419POPC   PO444148  10.441  26.537   5.505
 3419POPC   GL144149  10.368  26.757   5.847
 3419POPC   GL244150  10.721  26.767   5.911
 3419POPC   C1A44151  10.354  26.710   6.286
 3419POPC   D2A44152  10.453  26.936   6.640
 3419POPC   C3A44153  10.355  26.720   6.975
 3419POPC   C4A44154  10.552  26.560   7.323
 3419POPC   C1B44155  10.806  27.022   6.272
 3419POPC   C2B44156  10.748  27.343   6.581
 3419POPC   C3B44157  10.893  27.394   6.999
 3419POPC   C4B44158  11.074  27.094   7.275
 3420POPC   NC344159  29.447  39.894   5.526
 3420POPC   PO444160  29.815  39.896   4.977
 3420POPC   GL144161  29.962  40.043   5.519
 3420POPC   GL244162  29.731  40.141   5.850
 3420POPC   C1A44163  30.190  40.062   5.988
 3420POPC   D2A44164  30.245  40.093   6.474
 3420POPC   C3A44165  30.041  39.825   6.802
 3420POPC   C4A44166  29.880  39.798   7.258
 3420POPC   C1B44167  29.695  39.955   6.239
 3420POPC   C2B44168  29.512  40.101   6.599
 3420POPC   C3B44169  29.658  40.151   6.948
 3420POPC   C4B44170  29.718  40.286   7.302
 3421POPC   NC344171  10.580  38.924   5.478
 3421POPC   PO444172  10.381  39.512   5.181
 3421POPC   GL144173  10.295  39.380   5.613
 3421POPC   GL244174  10.175  39.055   5.746
 3421POPC   C1A44175  10.276  39.463   6.074
 3421POPC   D2A44176  10.083  39.236   6.436
 3421POPC   C3A44177  10.340  39.257   6.790
 3421POPC   C4A44178  10.420  39.216   7.205
 3421POPC   C1B44179  10.428  38.961   6.155
 3421POPC   C2B44180  10.736  39.067   6.490
 3421POPC   C3B44181  10.807  38.908   6.920
 3421POPC   C4B44182  10.872  39.064   7.328
 3422POPC   NC344183   9.955  13.267   5.517
 3422POPC   PO444184   9.417  12.859   5.360
 3422POPC   GL144185   9.571  12.708   5.764
 3422POPC   GL244186   9.922  12.841   5.825
 3422POPC   C1A44187   9.590  12.795   6.223
 3422POPC   D2A44188   9.473  13.050   6.584
 3422POPC   C3A44189   9.641  12.804   6.940
 3422POPC   C4A44190   9.523  12.673   7.319
 3422POPC   C1B44191  10.107  12.781   6.198
 3422POPC   C2B44192   9.990  12.920   6.598
 3422POPC   C3B44193  10.136  12.949   7.018
 3422POPC   C4B44194  10.110  12.784   7.444
 3423POPC   NC344195  31.016  20.881   5.352
 3423POPC   PO444196  30.506  20.469   5.525
 3423POPC   GL144197  30.757  20.668   5.828
 3423POPC   GL244198  30.962  20.390   5.878
 3423POPC   C1A44199  30.672  20.664   6.298
 3423POPC   D2A44200  30.773  20.332   6.625
 3423POPC   C3A44201  30.696  20.462   7.058
 3423POPC   C4A44202  30.361  20.336   7.315
 3423POPC   C1B44203  31.150  20.699   6.155
 3423POPC   C2B44204  31.224  20.568   6.585
 3423POPC   C3B44205  31.136  20.744   6.982
 3423POPC   C4B44206  30.994  20.729   7.401
 3424POPC   NC344207  12.726  15.618   5.137
 3424POPC   PO444208  12.970  15.007   5.156
 3424POPC   GL144209  12.769  15.088   5.594
 3424POPC   GL244210  12.779  15.442   5.709
 3424POPC   C1A44211  12.878  15.060   6.068
 3424POPC   D2A44212  13.066  15.161   6.493
 3424POPC   C3A44213  12.961  15.036   6.938
 3424POPC   C4A44214  12.727  15.022   7.354
 3424POPC   C1B44215  13.031  15.552   6.070
 3424POPC   C2B44216  13.002  15.674   6.496
 3424POPC   C3B44217  13.112  15.533   6.897
 3424POPC   C4B44218  12.787  15.482   7.185
 3425POPC   NC344219   9.465  42.533   5.414
 3425POPC   PO444220   9.913  41.991   5.277
 3425POPC   GL144221   9.820  42.253   5.651
 3425POPC   GL244222   9.545  42.196   5.780
 3425POPC   C1A44223   9.854  42.499   6.061
 3425POPC   D2A44224  10.028  42.362   6.422
 3425POPC   C3A44225   9.843  42.402   6.801
 3425POPC   C4A44226   9.778  42.346   7.237
 3425POPC   C1B44227   9.416  42.038   6.114
 3425POPC   C2B44228   9.484  42.175   6.502
 3425POPC   C3B44229   9.514  41.964   6.884
 3425POPC   C4B44230   9.476  41.959   7.304
 3426POPC   NC344231   4.892  33.028   5.341
 3426POPC   PO444232   5.384  33.352   5.756
 3426POPC   GL144233   5.056  33.060   5.841
 3426POPC   GL244234   5.084  32.694   5.686
 3426POPC   C1A44235   4.792  33.100   6.229
 3426POPC   D2A44236   4.798  32.920   6.645
 3426POPC   C3A44237   5.178  33.072   6.865
 3426POPC   C4A44238   5.206  33.272   7.256
 3426POPC   C1B44239   5.336  32.668   6.067
 3426POPC   C2B44240   5.232  32.652   6.506
 3426POPC   C3B44241   5.074  32.574   6.903
 3426POPC   C4B44242   5.371  32.694   7.221
 3427POPC   NC344243  34.601   6.267   5.460
 3427POPC   PO444244  34.566   5.599   5.382
 3427POPC   GL144245  34.602   5.846   5.736
 3427POPC   GL244246  34.913   5.756   5.790
 3427POPC   C1A44247  34.423   5.830   6.129
 3427POPC   D2A44248  34.293   5.565   6.453
 3427POPC   C3A44249  34.348   5.704   6.899
 3427POPC   C4A44250  34.303   5.838   7.331
 3427POPC   C1B44251  34.923   5.979   6.149
 3427POPC   C2B44252  34.753   6.047   6.534
 3427POPC   C3B44253  34.836   5.915   6.941
 3427POPC   C4B44254  34.854   6.075   7.316
 3428POPC   NC344255  29.246  24.189   5.411
 3428POPC   PO444256  28.593  24.116   5.276
 3428POPC   GL144257  28.892  24.152   5.782
 3428POPC   GL244258  29.263  24.353   5.887
 3428POPC   C1A44259  28.958  24.297   6.278
 3428POPC   D2A44260  29.093  24.486   6.715
 3428POPC   C3A44261  29.149  24.239   7.132
 3428POPC   C4A44262  29.053  24.154   7.596
 3428POPC   C1B44263  29.335  24.692   6.237
 3428POPC   C2B44264  29.552  24.720   6.651
 3428POPC   C3B44265  29.445  24.711   7.100
 3428POPC   C4B44266  28.987  24.708   7.221
 3429POPC   NC344267  10.307  23.859   5.414
 3429POPC   PO444268  10.842  23.443   5.468
 3429POPC   GL144269  10.605  23.650   5.795
 3429POPC   GL244270  10.621  24.031   5.785
 3429POPC   C1A44271  10.530  23.735   6.221
 3429POPC   D2A44272  10.333  23.674   6.589
 3429POPC   C3A44273  10.668  23.689   6.847
 3429POPC   C4A44274  10.491  23.676   7.225
 3429POPC   C1B44275  10.300  24.164   6.083
 3429POPC   C2B44276  10.351  24.199   6.504
 3429POPC   C3B44277  10.355  24.095   6.910
 3429POPC   C4B44278  10.288  24.132   7.334
 3430POPC   NC344279  27.441  30.040   5.264
 3430POPC   PO444280  27.935  30.374   5.580
 3430POPC   GL144281  27.579  30.132   5.773
 3430POPC   GL244282  27.517  29.754   5.680
 3430POPC   C1A44283  27.667  30.120   6.202
 3430POPC   D2A44284  27.770  29.945   6.584
 3430POPC   C3A44285  27.759  30.152   6.997
 3430POPC   C4A44286  28.076  30.221   7.320
 3430POPC   C1B44287  27.342  29.744   6.087
 3430POPC   C2B44288  27.263  29.885   6.505
 3430POPC   C3B44289  27.400  29.781   6.906
 3430POPC   C4B44290  27.352  29.707   7.323
 3431POPC   NC344291  18.377  28.164   5.475
 3431POPC   PO444292  17.694  28.380   5.463
 3431POPC   GL144293  18.018  28.337   5.795
 3431POPC   GL244294  18.301  28.597   5.741
 3431POPC   C1A44295  18.212  28.218   6.186
 3431POPC   D2A44296  18.458  28.322   6.549
 3431POPC   C3A44297  18.381  28.050   6.871
 3431POPC   C4A44298  18.256  28.086   7.276
 3431POPC   C1B44299  18.353  28.725   6.164
 3431POPC   C2B44300  18.169  28.763   6.557
 3431POPC   C3B44301  18.094  28.493   6.896
 3431POPC   C4B44302  18.097  28.564   7.316
 3432POPC   NC344303  27.332  38.336   5.609
 3432POPC   PO444304  27.878  38.749   5.340
 3432POPC   GL144305  27.681  38.664   5.839
 3432POPC   GL244306  27.652  38.342   6.005
 3432POPC   C1A44307  27.418  38.662   6.295
 3432POPC   D2A44308  27.136  38.642   6.695
 3432POPC   C3A44309  27.330  38.632   7.116
 3432POPC   C4A44310  27.824  38.650   7.115
 3432POPC   C1B44311  27.332  38.101   6.194
 3432POPC   C2B44312  27.327  38.175   6.571
 3432POPC   C3B44313  27.563  38.246   6.911
 3432POPC   C4B44314  27.328  38.121   7.275
 3433POPC   NC344315   7.122  38.533   5.521
 3433POPC   PO444316   7.736  38.266   5.709
 3433POPC   GL144317   7.392  38.446   5.945
 3433POPC   GL244318   7.161  38.147   5.865
 3433POPC   C1A44319   7.237  38.716   6.312
 3433POPC   D2A44320   7.200  38.613   6.773
 3433POPC   C3A44321   7.611  38.501   6.979
 3433POPC   C4A44322   7.928  38.732   7.203
 3433POPC   C1B44323   7.006  38.257   6.262
 3433POPC   C2B44324   6.990  38.076   6.667
 3433POPC   C3B44325   6.973  38.249   7.059
 3433POPC   C4B44326   7.238  38.485   7.331
 3434POPC   NC344327  17.294  43.007   5.490
 3434POPC   PO444328  17.879  42.725   5.439
 3434POPC   GL144329  17.659  42.880   5.834
 3434POPC   GL244330  17.654  43.222   5.795
 3434POPC   C1A44331  17.309  42.808   6.179
 3434POPC   D2A44332  17.152  43.055   6.556
 3434POPC   C3A44333  17.126  42.851   6.976
 3434POPC   C4A44334  17.466  42.646   7.208
 3434POPC   C1B44335  17.494  43.272   6.214
 3434POPC   C2B44336  17.456  43.596   6.494
 3434POPC   C3B44337  17.459  43.549   6.901
 3434POPC   C4B44338  17.398  43.244   7.186
 3435POPC   NC344339  39.149  17.608   5.247
 3435POPC   PO444340  39.742  17.924   5.238
 3435POPC   GL144341  39.503  17.736   5.652
 3435POPC   GL244342  39.134  17.609   5.745
 3435POPC   C1A44343  39.455  17.463   6.074
 3435POPC   D2A44344  39.240  17.634   6.422
 3435POPC   C3A44345  39.469  17.541   6.779
 3435POPC   C4A44346  39.375  17.404   7.196
 3435POPC   C1B44347  38.959  17.310   6.113
 3435POPC   C2B44348  38.794  17.371   6.524
 3435POPC   C3B44349  38.968  17.507   6.906
 3435POPC   C4B44350  38.864  17.307   7.306
 3436POPC   NC344351  17.414  10.858   5.620
 3436POPC   PO444352  17.753  10.272   5.422
 3436POPC   GL144353  17.608  10.406   5.786
 3436POPC   GL244354  17.846  10.679   5.824
 3436POPC   C1A44355  17.454  10.510   6.198
 3436POPC   D2A44356  17.495  10.625   6.634
 3436POPC   C3A44357  17.409  10.373   7.001
 3436POPC   C4A44358  17.364  10.583   7.405
 3436POPC   C1B44359  17.959  10.840   6.243
 3436POPC   C2B44360  17.872  10.961   6.687
 3436POPC   C3B44361  17.769  10.737   7.072
 3436POPC   C4B44362  17.755  10.853   7.556
 3437POPC   NC344363  12.441  31.614   5.421
 3437POPC   PO444364  11.905  31.917   5.183
 3437POPC   GL144365  12.014  31.703   5.677
 3437POPC   GL244366  12.200  31.357   5.785
 3437POPC   C1A44367  11.901  31.569   6.137
 3437POPC   D2A44368  11.905  31.318   6.533
 3437POPC   C3A44369  12.000  31.451   6.955
 3437POPC   C4A44370  11.892  31.710   7.313
 3437POPC   C1B44371  12.240  31.124   6.219
 3437POPC   C2B44372  12.411  31.204   6.684
 3437POPC   C3B44373  12.444  31.195   7.166
 3437POPC   C4B44374  12.215  31.360   7.488
 3438POPC   NC344375   9.045  31.387   5.288
 3438POPC   PO444376   8.469  31.354   5.160
 3438POPC   GL144377   8.669  31.528   5.589
 3438POPC   GL244378   8.920  31.808   5.592
 3438POPC   C1A44379   8.819  31.507   6.038
 3438POPC   D2A44380   8.783  31.665   6.491
 3438POPC   C3A44381   8.904  31.414   6.886
 3438POPC   C4A44382   8.811  31.390   7.347
 3438POPC   C1B44383   9.147  31.919   5.983
 3438POPC   C2B44384   9.303  31.775   6.412
 3438POPC   C3B44385   9.391  31.958   6.820
 3438POPC   C4B44386   9.198  31.791   7.187
 3439POPC   NC344387  21.164   1.676   5.232
 3439POPC   PO444388  21.683   2.116   5.448
 3439POPC   GL144389  21.470   2.177   5.809
 3439POPC   GL244390  21.131   2.173   5.706
 3439POPC   C1A44391  21.610   2.223   6.244
 3439POPC   D2A44392  21.417   2.414   6.594
 3439POPC   C3A44393  21.334   2.229   6.979
 3439POPC   C4A44394  21.577   1.898   7.189
 3439POPC   C1B44395  21.093   2.300   6.180
 3439POPC   C2B44396  20.932   2.183   6.628
 3439POPC   C3B44397  20.973   1.867   7.014
 3439POPC   C4B44398  21.066   1.805   7.452
 3440POPC   NC344399  34.152   5.205   5.665
 3440POPC   PO444400  34.681   4.880   5.354
 3440POPC   GL144401  34.615   5.005   5.789
 3440POPC   GL244402  34.568   5.361   5.888
 3440POPC   C1A44403  34.773   4.991   6.221
 3440POPC   D2A44404  34.708   4.984   6.672
 3440POPC   C3A44405  34.327   5.196   6.809
 3440POPC   C4A44406  34.280   5.301   7.247
 3440POPC   C1B44407  34.800   5.494   6.237
 3440POPC   C2B44408  34.768   5.502   6.656
 3440POPC   C3B44409  34.761   5.356   7.061
 3440POPC   C4B44410  34.731   5.560   7.461
 3441POPC   NC344411   0.017  34.450   5.792
 3441POPC   PO444412  44.472  34.255   5.444
 3441POPC   GL144413  44.410  34.287   5.875
 3441POPC   GL244414  44.522  34.603   5.888
 3441POPC   C1A44415  44.508  34.257   6.322
 3441POPC   D2A44416  44.680  34.265   6.714
 3441POPC   C3A44417  44.474  34.144   7.058
 3441POPC   C4A44418  44.494  34.313   7.527
 3441POPC   C1B44419  44.652  34.739   6.287
 3441POPC   C2B44420  44.443  34.732   6.671
 3441POPC   C3B44421  44.571  34.847   7.088
 3441POPC   C4B44422   0.038  34.923   7.252
 3442POPC   NC344423  33.225   3.521   5.290
 3442POPC   PO444424  32.735   3.798   5.672
 3442POPC   GL144425  33.072   3.501   5.838
 3442POPC   GL244426  33.202   3.723   6.096
 3442POPC   C1A44427  33.284   3.231   6.184
 3442POPC   D2A44428  33.296   3.041   6.612
 3442POPC   C3A44429  33.179   3.304   6.960
 3442POPC   C4A44430  33.337   3.431   7.358
 3442POPC   C1B44431  32.934   3.584   6.404
 3442POPC   C2B44432  32.898   3.733   6.816
 3442POPC   C3B44433  32.865   3.655   7.229
 3442POPC   C4B44434  32.864   3.430   7.618
 3443POPC   NC344435   3.336   5.342   5.632
 3443POPC   PO444436   3.862   5.035   5.636
 3443POPC   GL144437   3.525   4.982   5.941
 3443POPC   GL244438   3.365   4.657   5.996
 3443POPC   C1A44439   3.251   5.132   6.310
 3443POPC   D2A44440   3.159   4.908   6.707
 3443POPC   C3A44441   3.378   5.153   7.021
 3443POPC   C4A44442   3.568   5.355   7.383
 3443POPC   C1B44443   3.624   4.809   6.394
 3443POPC   C2B44444   3.834   5.043   6.740
 3443POPC   C3B44445   3.793   4.906   7.154
 3443POPC   C4B44446   3.458   4.575   7.133
 3444POPC   NC344447  30.437  37.499   5.523
 3444POPC   PO444448  30.930  37.957   5.492
 3444POPC   GL144449  30.868  37.659   5.863
 3444POPC   GL244450  30.514  37.727   5.974
 3444POPC   C1A44451  30.831  37.620   6.351
 3444POPC   D2A44452  30.440  37.715   6.594
 3444POPC   C3A44453  30.497  37.854   7.040
 3444POPC   C4A44454  30.906  37.695   7.193
 3444POPC   C1B44455  30.428  37.323   6.184
 3444POPC   C2B44456  30.246  37.221   6.585
 3444POPC   C3B44457  30.475  37.344   6.969
 3444POPC   C4B44458  30.567  37.369   7.409
 3445POPC   NC344459  28.704  39.458   5.381
 3445POPC   PO444460  29.325  39.242   5.276
 3445POPC   GL144461  29.148  39.319   5.691
 3445POPC   GL244462  28.867  39.119   5.782
 3445POPC   C1A44463  29.158  39.326   6.167
 3445POPC   D2A44464  29.274  39.089   6.557
 3445POPC   C3A44465  29.186  39.289   6.931
 3445POPC   C4A44466  29.048  39.518   7.289
 3445POPC   C1B44467  28.686  39.086   6.214
 3445POPC   C2B44468  28.763  39.116   6.676
 3445POPC   C3B44469  28.741  39.135   7.142
 3445POPC   C4B44470  28.768  39.261   7.641
 3446POPC   NC344471  18.121  17.149   5.277
 3446POPC   PO444472  18.345  16.483   5.293
 3446POPC   GL144473  18.260  16.721   5.713
 3446POPC   GL244474  18.372  17.049   5.753
 3446POPC   C1A44475  18.314  16.713   6.185
 3446POPC   D2A44476  18.020  16.698   6.527
 3446POPC   C3A44477  18.142  16.513   6.914
 3446POPC   C4A44478  18.373  16.700   7.243
 3446POPC   C1B44479  18.085  17.147   6.105
 3446POPC   C2B44480  17.970  17.233   6.527
 3446POPC   C3B44481  17.916  17.026   6.902
 3446POPC   C4B44482  18.118  17.158   7.208
 3447POPC   NC344483  31.258  25.517   5.330
 3447POPC   PO444484  31.629  24.946   5.435
 3447POPC   GL144485  31.622  25.226   5.779
 3447POPC   GL244486  31.267  25.148   5.713
 3447POPC   C1A44487  31.815  25.232   6.227
 3447POPC   D2A44488  31.764  25.469   6.638
 3447POPC   C3A44489  31.520  25.280   6.995
 3447POPC   C4A44490  31.318  25.524   7.338
 3447POPC   C1B44491  31.121  25.190   6.117
 3447POPC   C2B44492  31.252  25.232   6.540
 3447POPC   C3B44493  31.041  25.394   6.900
 3447POPC   C4B44494  31.035  25.102   7.218
 3448POPC   NC344495   9.552   0.750   5.394
 3448POPC   PO444496  10.164   0.489   5.357
 3448POPC   GL144497   9.915   0.603   5.729
 3448POPC   GL244498   9.704   0.320   5.693
 3448POPC   C1A44499  10.020   0.671   6.166
 3448POPC   D2A44500   9.860   0.707   6.586
 3448POPC   C3A44501   9.968   0.393   6.865
 3448POPC   C4A44502   9.780   0.267   7.246
 3448POPC   C1B44503   9.569   0.401   6.100
 3448POPC   C2B44504   9.544   0.297   6.532
 3448POPC   C3B44505   9.421   0.497   6.927
 3448POPC   C4B44506   9.253   0.273   7.276
 3449POPC   NC344507  36.545  31.570   5.411
 3449POPC   PO444508  37.156  31.279   5.287
 3449POPC   GL144509  36.916  31.322   5.716
 3449POPC   GL244510  36.843  31.025   5.881
 3449POPC   C1A44511  36.871  31.586   6.141
 3449POPC   D2A44512  36.947  31.541   6.602
 3449POPC   C3A44513  37.047  31.734   7.009
 3449POPC   C4A44514  37.001  31.654   7.463
 3449POPC   C1B44515  36.583  31.181   6.254
 3449POPC   C2B44516  36.544  31.254   6.708
 3449POPC   C3B44517  36.722  31.365   7.103
 3449POPC   C4B44518  36.825  31.179   7.497
 3450POPC   NC344519  28.120  25.631   5.358
 3450POPC   PO444520  28.233  24.951   5.410
 3450POPC   GL144521  28.314  25.022   5.821
 3450POPC   GL244522  28.366  25.366   5.723
 3450POPC   C1A44523  28.473  25.205   6.197
 3450POPC   D2A44524  28.346  25.089   6.593
 3450POPC   C3A44525  28.620  24.875   6.852
 3450POPC   C4A44526  28.504  24.838   7.264
 3450POPC   C1B44527  28.102  25.538   6.037
 3450POPC   C2B44528  27.991  25.478   6.495
 3450POPC   C3B44529  28.173  25.461   6.914
 3450POPC   C4B44530  28.372  25.587   7.306
 3451POPC   NC344531  28.854  36.404   5.425
 3451POPC   PO444532  29.242  35.736   5.370
 3451POPC   GL144533  29.121  35.953   5.766
 3451POPC   GL244534  29.306  36.256   5.751
 3451POPC   C1A44535  28.864  36.054   6.201
 3451POPC   D2A44536  28.749  36.333   6.565
 3451POPC   C3A44537  29.084  36.326   6.854
 3451POPC   C4A44538  29.236  36.002   7.112
 3451POPC   C1B44539  29.386  36.067   6.169
 3451POPC   C2B44540  29.251  35.893   6.566
 3451POPC   C3B44541  29.562  35.731   6.837
 3451POPC   C4B44542  29.669  35.737   7.278
 3452POPC   NC344543  19.923   5.337   5.358
 3452POPC   PO444544  20.076   4.658   5.363
 3452POPC   GL144545  19.971   4.929   5.710
 3452POPC   GL244546  19.647   4.881   5.664
 3452POPC   C1A44547  19.907   5.132   6.133
 3452POPC   D2A44548  20.032   5.005   6.556
 3452POPC   C3A44549  20.021   5.282   6.902
 3452POPC   C4A44550  19.757   5.412   7.223
 3452POPC   C1B44551  19.570   4.742   6.079
 3452POPC   C2B44552  19.546   4.818   6.531
 3452POPC   C3B44553  19.654   4.923   6.960
 3452POPC   C4B44554  19.780   4.939   7.392
 3453POPC   NC344555  10.489   2.227   5.418
 3453POPC   PO444556  10.549   1.523   5.335
 3453POPC   GL144557  10.674   1.830   5.694
 3453POPC   GL244558  10.357   1.933   5.852
 3453POPC   C1A44559  10.784   2.005   6.125
 3453POPC   D2A44560  10.594   1.912   6.528
 3453POPC   C3A44561  10.658   2.023   6.943
 3453POPC   C4A44562  10.323   1.912   7.209
 3453POPC   C1B44563  10.317   2.239   6.208
 3453POPC   C2B44564  10.477   2.438   6.609
 3453POPC   C3B44565  10.355   2.450   7.042
 3453POPC   C4B44566  10.332   2.632   7.460
 3454POPC   NC344567   3.002  10.167   5.626
 3454POPC   PO444568   3.642  10.450   5.424
 3454POPC   GL144569   3.653  10.604   5.831
 3454POPC   GL244570   3.330  10.497   5.856
 3454POPC   C1A44571   3.710  10.381   6.238
 3454POPC   D2A44572   3.482  10.425   6.618
 3454POPC   C3A44573   3.635  10.456   7.033
 3454POPC   C4A44574   3.567  10.788   7.296
 3454POPC   C1B44575   3.147  10.428   6.224
 3454POPC   C2B44576   2.984  10.301   6.609
 3454POPC   C3B44577   3.129  10.459   6.998
 3454POPC   C4B44578   3.315  10.151   7.263
 3455POPC   NC344579  32.913  12.680   5.444
 3455POPC   PO444580  32.604  13.240   5.370
 3455POPC   GL144581  32.829  13.127   5.787
 3455POPC   GL244582  32.794  12.775   5.951
 3455POPC   C1A44583  33.059  13.104   6.233
 3455POPC   D2A44584  32.998  12.748   6.547
 3455POPC   C3A44585  32.907  12.872   6.975
 3455POPC   C4A44586  33.279  12.938   7.238
 3455POPC   C1B44587  33.216  12.591   6.100
 3455POPC   C2B44588  33.424  12.462   6.506
 3455POPC   C3B44589  33.248  12.462   6.945
 3455POPC   C4B44590  32.998  12.502   7.319
 3456POPC   NC344591  29.930  33.623   5.258
 3456POPC   PO444592  29.884  34.250   5.417
 3456POPC   GL144593  29.872  33.887   5.741
 3456POPC   GL244594  29.871  33.518   5.765
 3456POPC   C1A44595  29.964  33.910   6.194
 3456POPC   D2A44596  29.981  34.083   6.617
 3456POPC   C3A44597  30.056  33.845   6.985
 3456POPC   C4A44598  29.729  33.836   7.289
 3456POPC   C1B44599  30.090  33.418   6.146
 3456POPC   C2B44600  29.880  33.509   6.539
 3456POPC   C3B44601  29.720  33.449   6.932
 3456POPC   C4B44602  29.883  33.377   7.311
 3457POPC   NC344603  23.962  20.903   5.431
 3457POPC   PO444604  23.435  20.459   5.282
 3457POPC   GL144605  23.617  20.477   5.730
 3457POPC   GL244606  23.952  20.593   5.820
 3457POPC   C1A44607  23.529  20.695   6.161
 3457POPC   D2A44608  23.623  20.618   6.586
 3457POPC   C3A44609  23.498  20.880   6.913
 3457POPC   C4A44610  23.341  20.721   7.278
 3457POPC   C1B44611  24.024  20.725   6.225
 3457POPC   C2B44612  24.155  20.635   6.614
 3457POPC   C3B44613  23.973  20.633   6.977
 3457POPC   C4B44614  23.841  20.756   7.339
 3458POPC   NC344615   6.074  12.167   5.403
 3458POPC   PO444616   6.400  11.644   5.622
 3458POPC   GL144617   6.080  11.899   5.888
 3458POPC   GL244618   5.899  12.250   5.880
 3458POPC   C1A44619   5.729  11.927   6.233
 3458POPC   D2A44620   5.533  11.995   6.642
 3458POPC   C3A44621   5.728  11.812   6.962
 3458POPC   C4A44622   5.999  11.773   7.306
 3458POPC   C1B44623   6.214  12.245   6.217
 3458POPC   C2B44624   6.282  12.095   6.631
 3458POPC   C3B44625   6.022  12.211   6.933
 3458POPC   C4B44626   5.764  12.234   7.291
 3459POPC   NC344627  27.017   0.296   5.000
 3459POPC   PO444628  26.470   0.246   5.394
 3459POPC   GL144629  26.764   0.322   5.740
 3459POPC   GL244630  26.843   0.657   5.648
 3459POPC   C1A44631  26.865   0.056   6.122
 3459POPC   D2A44632  26.652   0.077   6.533
 3459POPC   C3A44633  26.893   0.257   6.881
 3459POPC   C4A44634  27.260   0.110   7.109
 3459POPC   C1B44635  26.931   0.678   6.079
 3459POPC   C2B44636  27.129   0.734   6.457
 3459POPC   C3B44637  26.989   0.919   6.840
 3459POPC   C4B44638  27.019   0.670   7.199
 3460POPC   NC344639   4.255  44.519   5.243
 3460POPC   PO444640   4.855  44.749   5.087
 3460POPC   GL144641   4.709  44.642   5.613
 3460POPC   GL244642   4.349  44.704   5.741
 3460POPC   C1A44643   4.581  44.596   6.159
 3460POPC   D2A44644   4.394  44.498   6.622
 3460POPC   C3A44645   4.464  44.699   7.071
 3460POPC   C4A44646   4.557  44.621   7.535
 3460POPC   C1B44647   4.074  44.734   6.179
 3460POPC   C2B44648   3.967  44.809   6.654
 3460POPC   C3B44649   3.999  44.528   7.027
 3460POPC   C4B44650   4.055  44.616   7.472
 3461POPC   NC344651  37.480  15.508   5.346
 3461POPC   PO444652  37.729  14.912   5.167
 3461POPC   GL144653  37.850  15.101   5.610
 3461POPC   GL244654  37.705  15.406   5.785
 3461POPC   C1A44655  37.859  15.055   6.115
 3461POPC   D2A44656  37.701  15.219   6.551
 3461POPC   C3A44657  37.887  15.111   6.972
 3461POPC   C4A44658  38.065  14.877   7.331
 3461POPC   C1B44659  37.364  15.287   6.109
 3461POPC   C2B44660  37.181  15.189   6.515
 3461POPC   C3B44661  37.295  15.406   6.899
 3461POPC   C4B44662  37.581  15.405   7.278
 3462POPC   NC344663  29.559  34.421   5.119
 3462POPC   PO444664  29.926  34.896   5.475
 3462POPC   GL144665  29.935  34.697   5.897
 3462POPC   GL244666  29.976  34.352   5.917
 3462POPC   C1A44667  29.791  34.554   6.340
 3462POPC   D2A44668  29.589  34.406   6.719
 3462POPC   C3A44669  29.576  34.722   7.011
 3462POPC   C4A44670  29.930  34.922   7.128
 3462POPC   C1B44671  30.264  34.347   6.274
 3462POPC   C2B44672  30.213  34.537   6.709
 3462POPC   C3B44673  30.002  34.383   7.086
 3462POPC   C4B44674  29.568  34.297   7.246
 3463POPC   NC344675  32.193  27.334   5.523
 3463POPC   PO444676  32.169  27.914   5.142
 3463POPC   GL144677  32.299  27.867   5.630
 3463POPC   GL244678  32.521  27.625   5.789
 3463POPC   C1A44679  32.336  27.976   6.107
 3463POPC   D2A44680  31.994  27.917   6.421
 3463POPC   C3A44681  32.053  27.613   6.752
 3463POPC   C4A44682  32.179  27.637   7.182
 3463POPC   C1B44683  32.231  27.474   6.153
 3463POPC   C2B44684  32.429  27.311   6.499
 3463POPC   C3B44685  32.546  27.446   6.877
 3463POPC   C4B44686  32.518  27.260   7.269
 3464POPC   NC344687  33.202   7.318   5.421
 3464POPC   PO444688  32.530   7.478   5.309
 3464POPC   GL144689  32.762   7.499   5.724
 3464POPC   GL244690  33.066   7.705   5.739
 3464POPC   C1A44691  32.915   7.282   6.114
 3464POPC   D2A44692  33.009   7.131   6.539
 3464POPC   C3A44693  32.826   7.208   6.921
 3464POPC   C4A44694  33.022   7.172   7.305
 3464POPC   C1B44695  32.957   7.806   6.176
 3464POPC   C2B44696  33.039   7.667   6.610
 3464POPC   C3B44697  32.991   7.723   7.052
 3464POPC   C4B44698  33.079   7.648   7.498
 3465POPC   NC344699  21.092  17.253   5.196
 3465POPC   PO444700  21.709  17.572   5.327
 3465POPC   GL144701  21.541  17.462   5.769
 3465POPC   GL244702  21.189  17.431   5.690
 3465POPC   C1A44703  21.451  17.562   6.249
 3465POPC   D2A44704  21.558  17.406   6.674
 3465POPC   C3A44705  21.476  17.676   7.035
 3465POPC   C4A44706  21.253  17.686   7.400
 3465POPC   C1B44707  21.143  17.207   6.063
 3465POPC   C2B44708  21.146  17.132   6.536
 3465POPC   C3B44709  21.162  17.255   7.012
 3465POPC   C4B44710  21.197  17.180   7.468
 3466POPC   NC344711  40.961  36.631   5.362
 3466POPC   PO444712  40.558  37.012   4.985
 3466POPC   GL144713  40.550  36.893   5.583
 3466POPC   GL244714  40.462  37.237   5.825
 3466POPC   C1A44715  40.765  36.928   6.075
 3466POPC   D2A44716  40.838  37.157   6.517
 3466POPC   C3A44717  41.063  37.014   6.918
 3466POPC   C4A44718  41.191  36.856   7.337
 3466POPC   C1B44719  40.340  37.175   6.276
 3466POPC   C2B44720  40.461  36.797   6.528
 3466POPC   C3B44721  40.445  36.625   6.942
 3466POPC   C4B44722  40.689  36.858   7.211
 3467POPC   NC344723  42.500  42.669   5.247
 3467POPC   PO444724  42.473  43.294   5.456
 3467POPC   GL144725  42.289  43.152   5.806
 3467POPC   GL244726  42.173  42.872   5.605
 3467POPC   C1A44727  42.291  43.283   6.258
 3467POPC   D2A44728  42.410  43.149   6.690
 3467POPC   C3A44729  42.397  43.290   7.130
 3467POPC   C4A44730  42.326  43.112   7.554
 3467POPC   C1B44731  42.123  42.766   6.059
 3467POPC   C2B44732  42.243  42.728   6.481
 3467POPC   C3B44733  42.096  42.838   6.917
 3467POPC   C4B44734  42.290  42.728   7.250
 3468POPC   NC344735  30.500  38.280   5.494
 3468POPC   PO444736  30.902  38.882   5.501
 3468POPC   GL144737  30.695  38.667   5.808
 3468POPC   GL244738  30.441  38.840   5.955
 3468POPC   C1A44739  30.927  38.478   6.145
 3468POPC   D2A44740  31.033  38.545   6.581
 3468POPC   C3A44741  30.755  38.282   6.849
 3468POPC   C4A44742  30.805  38.218   7.288
 3468POPC   C1B44743  30.496  38.685   6.370
 3468POPC   C2B44744  30.381  38.658   6.793
 3468POPC   C3B44745  30.407  38.533   7.212
 3468POPC   C4B44746  30.276  38.815   7.526
 3469POPC   NC344747   5.664  25.909   5.102
 3469POPC   PO444748   5.580  26.431   5.522
 3469POPC   GL144749   5.758  26.164   5.806
 3469POPC   GL244750   5.948  26.387   6.022
 3469POPC   C1A44751   5.854  25.909   6.162
 3469POPC   D2A44752   5.874  26.097   6.550
 3469POPC   C3A44753   5.756  25.880   6.887
 3469POPC   C4A44754   6.000  25.794   7.219
 3469POPC   C1B44755   5.742  26.550   6.373
 3469POPC   C2B44756   5.796  26.525   6.832
 3469POPC   C3B44757   5.982  26.304   7.145
 3469POPC   C4B44758   6.014  26.442   7.553
 3470POPC   NC344759  23.104  34.942   5.414
 3470POPC   PO444760  22.622  34.496   5.388
 3470POPC   GL144761  22.900  34.582   5.726
 3470POPC   GL244762  22.749  34.836   5.892
 3470POPC   C1A44763  23.063  34.531   6.167
 3470POPC   D2A44764  22.768  34.571   6.507
 3470POPC   C3A44765  22.871  34.507   6.933
 3470POPC   C4A44766  22.539  34.467   7.235
 3470POPC   C1B44767  22.918  35.020   6.301
 3470POPC   C2B44768  22.872  35.004   6.762
 3470POPC   C3B44769  22.830  34.924   7.235
 3470POPC   C4B44770  23.102  34.949   7.638
 3471POPC   NC344771  15.546  15.297   5.419
 3471POPC   PO444772  16.164  15.140   5.563
 3471POPC   GL144773  15.822  15.129   5.823
 3471POPC   GL244774  15.667  14.801   5.816
 3471POPC   C1A44775  15.734  15.328   6.201
 3471POPC   D2A44776  15.846  15.163   6.607
 3471POPC   C3A44777  15.994  15.473   6.852
 3471POPC   C4A44778  15.963  15.580   7.244
 3471POPC   C1B44779  15.911  14.825   6.223
 3471POPC   C2B44780  16.026  14.670   6.664
 3471POPC   C3B44781  16.101  14.945   7.039
 3471POPC   C4B44782  15.772  15.096   7.323
 3472POPC   NC344783  13.416  23.550   5.665
 3472POPC   PO444784  14.009  23.851   5.542
 3472POPC   GL144785  13.835  23.737   5.928
 3472POPC   GL244786  13.490  23.874   6.038
 3472POPC   C1A44787  13.795  23.554   6.324
 3472POPC   D2A44788  13.606  23.383   6.688
 3472POPC   C3A44789  13.772  23.612   7.038
 3472POPC   C4A44790  13.587  23.615   7.425
 3472POPC   C1B44791  13.256  23.621   6.334
 3472POPC   C2B44792  13.203  23.755   6.750
 3472POPC   C3B44793  13.220  23.877   7.192
 3472POPC   C4B44794  13.204  23.860   7.666
 3473POPC   NC344795  14.972  37.100   5.307
 3473POPC   PO444796  15.034  36.400   5.253
 3473POPC   GL144797  15.139  36.686   5.682
 3473POPC   GL244798  15.249  37.038   5.729
 3473POPC   C1A44799  15.146  36.733   6.160
 3473POPC   D2A44800  15.011  36.650   6.612
 3473POPC   C3A44801  15.265  36.737   6.964
 3473POPC   C4A44802  15.358  37.117   7.205
 3473POPC   C1B44803  15.034  37.232   6.046
 3473POPC   C2B44804  14.964  37.136   6.467
 3473POPC   C3B44805  14.985  37.228   6.883
 3473POPC   C4B44806  14.847  36.941   7.190
 3474POPC   NC344807  26.526  43.963   5.381
 3474POPC   PO444808  27.099  43.725   5.557
 3474POPC   GL144809  26.692  43.759   5.809
 3474POPC   GL244810  26.652  44.154   5.847
 3474POPC   C1A44811  26.466  43.865   6.209
 3474POPC   D2A44812  26.372  43.697   6.588
 3474POPC   C3A44813  26.505  43.873   6.962
 3474POPC   C4A44814  26.739  43.631   7.240
 3474POPC   C1B44815  26.967  43.986   6.169
 3474POPC   C2B44816  26.989  43.774   6.550
 3474POPC   C3B44817  27.107  43.850   6.967
 3474POPC   C4B44818  26.885  44.109   7.265
 3475POPC   NC344819  28.032  36.927   5.611
 3475POPC   PO444820  28.450  36.587   5.210
 3475POPC   GL144821  28.476  36.651   5.704
 3475POPC   GL244822  28.540  36.980   5.911
 3475POPC   C1A44823  28.321  36.601   6.146
 3475POPC   D2A44824  28.083  36.665   6.491
 3475POPC   C3A44825  28.345  36.700   6.836
 3475POPC   C4A44826  28.287  36.757   7.247
 3475POPC   C1B44827  28.211  37.092   6.198
 3475POPC   C2B44828  28.265  37.130   6.585
 3475POPC   C3B44829  28.279  37.252   6.967
 3475POPC   C4B44830  28.538  37.221   7.317
 3476POPC   NC344831  39.128  13.712   5.173
 3476POPC   PO444832  38.731  13.408   5.556
 3476POPC   GL144833  39.119  13.540   5.656
 3476POPC   GL244834  39.143  13.278   5.856
 3476POPC   C1A44835  39.333  13.747   5.996
 3476POPC   D2A44836  39.334  13.665   6.445
 3476POPC   C3A44837  39.448  13.940   6.786
 3476POPC   C4A44838  39.447  13.759   7.206
 3476POPC   C1B44839  38.909  13.503   6.170
 3476POPC   C2B44840  38.892  13.385   6.571
 3476POPC   C3B44841  39.125  13.508   6.890
 3476POPC   C4B44842  38.968  13.480   7.254
 3477POPC   NC344843  14.643  30.537   5.417
 3477POPC   PO444844  14.041  30.818   5.322
 3477POPC   GL144845  14.250  30.852   5.762
 3477POPC   GL244846  14.597  30.992   5.783
 3477POPC   C1A44847  14.257  30.672   6.224
 3477POPC   D2A44848  14.539  30.594   6.573
 3477POPC   C3A44849  14.306  30.377   6.892
 3477POPC   C4A44850  14.358  30.234   7.285
 3477POPC   C1B44851  14.337  31.158   6.186
 3477POPC   C2B44852  14.300  31.048   6.643
 3477POPC   C3B44853  14.376  30.857   7.068
 3477POPC   C4B44854  14.250  30.987   7.515
 3478POPC   NC344855  39.684  24.954   5.441
 3478POPC   PO444856  40.294  25.439   5.454
 3478POPC   GL144857  39.964  25.350   5.678
 3478POPC   GL244858  40.081  25.019   5.741
 3478POPC   C1A44859  39.893  25.334   6.097
 3478POPC   D2A44860  39.970  25.194   6.491
 3478POPC   C3A44861  40.020  25.472   6.784
 3478POPC   C4A44862  40.024  25.408   7.222
 3478POPC   C1B44863  40.261  24.960   6.130
 3478POPC   C2B44864  40.274  24.790   6.545
 3478POPC   C3B44865  40.278  25.016   6.920
 3478POPC   C4B44866  40.153  24.942   7.349
 3479POPC   NC344867  15.955  37.211   5.454
 3479POPC   PO444868  15.587  36.758   5.471
 3479POPC   GL144869  15.754  36.920   5.846
 3479POPC   GL244870  16.115  36.978   5.887
 3479POPC   C1A44871  15.638  36.868   6.250
 3479POPC   D2A44872  15.460  37.038   6.602
 3479POPC   C3A44873  15.729  36.933   6.929
 3479POPC   C4A44874  16.073  36.798   7.125
 3479POPC   C1B44875  16.096  36.632   6.225
 3479POPC   C2B44876  16.187  36.578   6.688
 3479POPC   C3B44877  16.499  36.556   7.047
 3479POPC   C4B44878  16.481  36.796   7.439
 3480POPC   NC344879  16.454  12.084   5.501
 3480POPC   PO444880  15.886  11.793   5.364
 3480POPC   GL144881  15.885  11.990   5.761
 3480POPC   GL244882  16.108  12.221   5.895
 3480POPC   C1A44883  15.735  11.969   6.162
 3480POPC   D2A44884  15.500  12.131   6.488
 3480POPC   C3A44885  15.740  12.081   6.860
 3480POPC   C4A44886  15.884  12.046   7.273
 3480POPC   C1B44887  15.837  12.475   6.196
 3480POPC   C2B44888  15.756  12.544   6.645
 3480POPC   C3B44889  15.961  12.528   7.071
 3480POPC   C4B44890  16.150  12.438   7.504
 3481POPC   NC344891   7.066  15.833   5.343
 3481POPC   PO444892   6.581  16.341   5.499
 3481POPC   GL144893   6.695  16.116   5.841
 3481POPC   GL244894   6.525  15.830   5.928
 3481POPC   C1A44895   6.879  16.165   6.246
 3481POPC   D2A44896   6.837  16.005   6.661
 3481POPC   C3A44897   6.944  16.253   6.988
 3481POPC   C4A44898   6.762  16.105   7.385
 3481POPC   C1B44899   6.537  15.694   6.342
 3481POPC   C2B44900   6.703  15.500   6.707
 3481POPC   C3B44901   6.633  15.702   7.098
 3481POPC   C4B44902   6.419  15.597   7.480
 3482POPC   NC344903  39.750  22.524   5.527
 3482POPC   PO444904  40.088  21.972   5.313
 3482POPC   GL144905  40.142  21.996   5.764
 3482POPC   GL244906  39.795  22.051   5.795
 3482POPC   C1A44907  40.211  22.191   6.203
 3482POPC   D2A44908  40.357  22.313   6.644
 3482POPC   C3A44909  40.115  22.147   7.014
 3482POPC   C4A44910  39.930  22.419   7.349
 3482POPC   C1B44911  39.749  21.981   6.250
 3482POPC   C2B44912  39.837  22.292   6.575
 3482POPC   C3B44913  39.621  22.303   6.958
 3482POPC   C4B44914  39.730  21.965   7.318
 3483POPC   NC344915  20.287  21.859   5.564
 3483POPC   PO444916  20.822  22.233   5.496
 3483POPC   GL144917  20.740  21.949   5.836
 3483POPC   GL244918  21.062  21.866   5.950
 3483POPC   C1A44919  20.578  21.854   6.263
 3483POPC   D2A44920  20.563  22.089   6.685
 3483POPC   C3A44921  20.651  21.897   7.116
 3483POPC   C4A44922  20.415  21.907   7.510
 3483POPC   C1B44923  20.984  22.165   6.278
 3483POPC   C2B44924  21.036  22.321   6.700
 3483POPC   C3B44925  20.800  22.390   7.090
 3483POPC   C4B44926  20.992  22.228   7.447
 3484POPC   NC344927  10.385  42.873   5.599
 3484POPC   PO444928  10.729  43.389   5.384
 3484POPC   GL144929  10.620  43.369   5.810
 3484POPC   GL244930  10.260  43.375   5.849
 3484POPC   C1A44931  10.597  43.186   6.223
 3484POPC   D2A44932  10.436  43.221   6.634
 3484POPC   C3A44933  10.700  43.063   6.952
 3484POPC   C4A44934  10.641  43.098   7.379
 3484POPC   C1B44935  10.096  43.070   6.168
 3484POPC   C2B44936  10.047  42.870   6.555
 3484POPC   C3B44937  10.211  42.890   6.987
 3484POPC   C4B44938  10.010  42.776   7.348
 3485POPC   NC344939  25.586   9.254   5.268
 3485POPC   PO444940  25.322   9.800   5.570
 3485POPC   GL144941  25.186   9.615   5.943
 3485POPC   GL244942  25.448   9.347   5.863
 3485POPC   C1A44943  25.017   9.609   6.368
 3485POPC   D2A44944  25.248   9.731   6.699
 3485POPC   C3A44945  25.236   9.463   7.045
 3485POPC   C4A44946  25.022   9.781   7.197
 3485POPC   C1B44947  25.521   9.463   6.306
 3485POPC   C2B44948  25.678   9.450   6.728
 3485POPC   C3B44949  25.654   9.760   7.041
 3485POPC   C4B44950  25.474   9.762   7.432
 3486POPC   NC344951   9.441   5.648   5.106
 3486POPC   PO444952   9.861   6.164   5.278
 3486POPC   GL144953   9.802   6.011   5.711
 3486POPC   GL244954   9.519   5.837   5.643
 3486POPC   C1A44955   9.794   6.163   6.150
 3486POPC   D2A44956   9.958   6.003   6.540
 3486POPC   C3A44957   9.760   6.061   6.942
 3486POPC   C4A44958   9.761   5.808   7.297
 3486POPC   C1B44959   9.438   5.813   6.111
 3486POPC   C2B44960   9.439   5.897   6.551
 3486POPC   C3B44961   9.326   5.699   6.967
 3486POPC   C4B44962   9.263   5.422   7.336
 3487POPC   NC344963  38.200  17.701   5.549
 3487POPC   PO444964  38.747  17.263   5.362
 3487POPC   GL144965  38.631  17.492   5.731
 3487POPC   GL244966  38.698  17.887   5.661
 3487POPC   C1A44967  38.437  17.422   6.156
 3487POPC   D2A44968  38.364  17.642   6.566
 3487POPC   C3A44969  38.476  17.438   6.957
 3487POPC   C4A44970  38.345  17.372   7.379
 3487POPC   C1B44971  38.804  17.788   6.113
 3487POPC   C2B44972  38.809  17.895   6.545
 3487POPC   C3B44973  38.658  17.931   6.950
 3487POPC   C4B44974  38.648  17.760   7.357
 3488POPC   NC344975   3.981  15.156   5.437
 3488POPC   PO444976   4.671  15.078   5.473
 3488POPC   GL144977   4.386  15.034   5.779
 3488POPC   GL244978   4.365  15.373   5.773
 3488POPC   C1A44979   4.219  15.000   6.182
 3488POPC   D2A44980   4.110  15.240   6.553
 3488POPC   C3A44981   4.231  14.996   6.888
 3488POPC   C4A44982   4.052  14.916   7.299
 3488POPC   C1B44983   4.357  15.496   6.181
 3488POPC   C2B44984   4.623  15.334   6.502
 3488POPC   C3B44985   4.640  15.458   6.919
 3488POPC   C4B44986   4.319  15.373   7.236
 3489POPC   NC344987   3.715  16.004   5.520
 3489POPC   PO444988   3.767  15.461   5.151
 3489POPC   GL144989   3.454  15.570   5.606
 3489POPC   GL244990   3.276  15.845   5.756
 3489POPC   C1A44991   3.551  15.641   6.130
 3489POPC   D2A44992   3.641  15.873   6.555
 3489POPC   C3A44993   3.553  15.685   6.979
 3489POPC   C4A44994   3.876  15.611   7.304
 3489POPC   C1B44995   3.323  16.119   6.140
 3489POPC   C2B44996   3.205  16.146   6.576
 3489POPC   C3B44997   3.388  16.182   6.987
 3489POPC   C4B44998   3.323  16.208   7.421
 3490POPC   NC344999  38.274  11.579   5.212
 3490POPC   PO445000  38.406  10.955   5.309
 3490POPC   GL145001  38.332  11.224   5.707
 3490POPC   GL245002  38.601  11.509   5.649
 3490POPC   C1A45003  38.253  11.150   6.200
 3490POPC   D2A45004  38.526  11.020   6.604
 3490POPC   C3A45005  38.356  11.029   7.048
 3490POPC   C4A45006  38.187  11.050   7.482
 3490POPC   C1B45007  38.645  11.460   6.096
 3490POPC   C2B45008  38.457  11.527   6.502
 3490POPC   C3B45009  38.437  11.564   6.934
 3490POPC   C4B45010  38.466  11.460   7.345
 3491POPC   NC345011  21.808  17.106   5.473
 3491POPC   PO445012  22.302  17.482   5.107
 3491POPC   GL145013  22.393  17.477   5.571
 3491POPC   GL245014  22.063  17.501   5.720
 3491POPC   C1A45015  22.450  17.479   6.058
 3491POPC   D2A45016  22.290  17.409   6.497
 3491POPC   C3A45017  22.479  17.626   6.848
 3491POPC   C4A45018  22.541  17.492   7.258
 3491POPC   C1B45019  21.950  17.625   6.161
 3491POPC   C2B45020  21.934  17.749   6.618
 3491POPC   C3B45021  21.996  17.628   7.070
 3491POPC   C4B45022  21.775  17.669   7.479
 3492POPC   NC345023  38.785   7.520   5.420
 3492POPC   PO445024  38.164   7.246   5.526
 3492POPC   GL145025  38.402   7.496   5.781
 3492POPC   GL245026  38.655   7.263   5.849
 3492POPC   C1A45027  38.385   7.498   6.223
 3492POPC   D2A45028  38.182   7.784   6.515
 3492POPC   C3A45029  38.150   7.620   6.926
 3492POPC   C4A45030  38.023   7.568   7.335
 3492POPC   C1B45031  38.868   7.037   6.188
 3492POPC   C2B45032  38.744   6.887   6.603
 3492POPC   C3B45033  38.657   7.167   6.952
 3492POPC   C4B45034  38.451   7.329   7.308
 3493POPC   NC345035  21.249  12.895   5.440
 3493POPC   PO445036  21.668  12.425   5.558
 3493POPC   GL145037  21.418  12.669   5.856
 3493POPC   GL245038  21.408  13.081   5.891
 3493POPC   C1A45039  21.328  12.555   6.276
 3493POPC   D2A45040  21.148  12.713   6.644
 3493POPC   C3A45041  21.378  12.658   7.010
 3493POPC   C4A45042  21.490  13.066   7.047
 3493POPC   C1B45043  21.424  13.137   6.354
 3493POPC   C2B45044  21.149  13.241   6.714
 3493POPC   C3B45045  20.959  13.030   7.067
 3493POPC   C4B45046  20.710  13.143   7.457
 3494POPC   NC345047  13.660  25.201   5.225
 3494POPC   PO445048  14.124  25.709   5.358
 3494POPC   GL145049  13.897  25.374   5.678
 3494POPC   GL245050  13.530  25.316   5.703
 3494POPC   C1A45051  13.796  25.036   6.047
 3494POPC   D2A45052  13.884  25.085   6.523
 3494POPC   C3A45053  14.001  24.939   7.004
 3494POPC   C4A45054  13.947  25.028   7.502
 3494POPC   C1B45055  13.301  25.247   6.082
 3494POPC   C2B45056  13.408  25.276   6.491
 3494POPC   C3B45057  13.504  25.037   6.869
 3494POPC   C4B45058  13.473  25.217   7.278
 3495POPC   NC345059  38.012  34.984   5.492
 3495POPC   PO445060  38.638  35.211   5.328
 3495POPC   GL145061  38.432  35.274   5.728
 3495POPC   GL245062  38.403  34.970   5.819
 3495POPC   C1A45063  38.343  35.521   6.087
 3495POPC   D2A45064  38.578  35.654   6.449
 3495POPC   C3A45065  38.388  35.529   6.837
 3495POPC   C4A45066  38.344  35.729   7.218
 3495POPC   C1B45067  38.152  35.043   6.162
 3495POPC   C2B45068  38.403  35.148   6.488
 3495POPC   C3B45069  38.584  35.018   6.852
 3495POPC   C4B45070  38.480  34.796   7.197
 3496POPC   NC345071   9.495  43.306   5.386
 3496POPC   PO445072   9.936  42.785   5.471
 3496POPC   GL145073   9.613  42.932   5.767
 3496POPC   GL245074   9.748  43.278   5.828
 3496POPC   C1A45075   9.586  43.025   6.229
 3496POPC   D2A45076   9.665  43.204   6.637
 3496POPC   C3A45077   9.702  42.877   6.937
 3496POPC   C4A45078   9.485  42.813   7.282
 3496POPC   C1B45079   9.896  43.543   6.205
 3496POPC   C2B45080  10.042  43.553   6.626
 3496POPC   C3B45081  10.097  43.379   7.031
 3496POPC   C4B45082  10.174  43.241   7.448
 3497POPC   NC345083   7.045   5.254   5.344
 3497POPC   PO445084   6.345   5.157   5.106
 3497POPC   GL145085   6.563   5.170   5.592
 3497POPC   GL245086   6.852   5.348   5.788
 3497POPC   C1A45087   6.548   5.059   6.084
 3497POPC   D2A45088   6.458   4.823   6.484
 3497POPC   C3A45089   6.517   4.962   6.946
 3497POPC   C4A45090   6.443   4.837   7.399
 3497POPC   C1B45091   6.969   5.320   6.188
 3497POPC   C2B45092   6.794   5.201   6.554
 3497POPC   C3B45093   6.885   5.357   6.950
 3497POPC   C4B45094   6.640   5.687   7.108
 3498POPC   NC345095   2.068  27.158   5.470
 3498POPC   PO445096   1.945  26.534   5.301
 3498POPC   GL145097   1.979  26.538   5.777
 3498POPC   GL245098   2.353  26.478   5.827
 3498POPC   C1A45099   1.845  26.745   6.192
 3498POPC   D2A45100   1.952  26.981   6.596
 3498POPC   C3A45101   1.758  26.840   6.994
 3498POPC   C4A45102   1.862  26.933   7.434
 3498POPC   C1B45103   2.176  26.362   6.237
 3498POPC   C2B45104   2.000  26.466   6.651
 3498POPC   C3B45105   2.208  26.412   7.075
 3498POPC   C4B45106   2.207  26.388   7.557
 3499POPC   NC345107   3.556  38.900   5.482
 3499POPC   PO445108   3.690  39.562   5.373
 3499POPC   GL145109   3.475  39.366   5.722
 3499POPC   GL245110   3.776  39.200   5.831
 3499POPC   C1A45111   3.395  39.224   6.167
 3499POPC   D2A45112   3.637  39.230   6.556
 3499POPC   C3A45113   3.565  38.984   6.926
 3499POPC   C4A45114   3.339  39.121   7.316
 3499POPC   C1B45115   3.993  39.398   6.173
 3499POPC   C2B45116   4.026  39.552   6.597
 3499POPC   C3B45117   3.814  39.486   7.022
 3499POPC   C4B45118   3.949  39.450   7.477
 3500POPC   NC345119  42.662  17.620   5.434
 3500POPC   PO445120  43.372  17.750   5.420
 3500POPC   GL145121  43.118  17.524   5.689
 3500POPC   GL245122  43.174  17.168   5.734
 3500POPC   C1A45123  43.075  17.565   6.121
 3500POPC   D2A45124  42.823  17.433   6.442
 3500POPC   C3A45125  42.934  17.565   6.820
 3500POPC   C4A45126  43.140  17.730   7.146
 3500POPC   C1B45127  43.410  17.171   6.158
 3500POPC   C2B45128  43.230  17.151   6.570
 3500POPC   C3B45129  43.354  17.308   6.944
 3500POPC   C4B45130  43.298  17.253   7.339
 3501POPC   NC345131  20.773   0.164   5.491
 3501POPC   PO445132  20.311   0.636   5.464
 3501POPC   GL145133  20.474   0.471   5.809
 3501POPC   GL245134  20.375   0.144   5.812
 3501POPC   C1A45135  20.345   0.473   6.228
 3501POPC   D2A45136  20.373   0.649   6.629
 3501POPC   C3A45137  20.364   0.446   7.013
 3501POPC   C4A45138  20.563   0.599   7.393
 3501POPC   C1B45139  20.649   0.056   6.165
 3501POPC   C2B45140  20.580   0.184   6.577
 3501POPC   C3B45141  20.820   0.260   6.929
 3501POPC   C4B45142  20.689   0.107   7.342
 3502POPC   NC345143  24.882  38.381   5.376
 3502POPC   PO445144  25.467  37.975   5.434
 3502POPC   GL145145  25.249  38.101   5.825
 3502POPC   GL245146  25.117  38.472   5.846
 3502POPC   C1A45147  25.410  38.145   6.256
 3502POPC   D2A45148  25.336  38.414   6.613
 3502POPC   C3A45149  25.488  38.533   7.016
 3502POPC   C4A45150  25.147  38.665   7.271
 3502POPC   C1B45151  24.940  38.358   6.265
 3502POPC   C2B45152  24.850  38.457   6.724
 3502POPC   C3B45153  24.818  38.298   7.131
 3502POPC   C4B45154  24.773  38.443   7.562
 3503POPC   NC345155  18.135  36.325   5.396
 3503POPC   PO445156  18.730  35.988   5.421
 3503POPC   GL145157  18.403  36.076   5.787
 3503POPC   GL245158  18.018  36.195   5.879
 3503POPC   C1A45159  18.373  36.143   6.238
 3503POPC   D2A45160  18.201  36.139   6.641
 3503POPC   C3A45161  18.411  36.254   7.003
 3503POPC   C4A45162  18.490  36.073   7.383
 3503POPC   C1B45163  18.050  36.524   6.213
 3503POPC   C2B45164  18.208  36.646   6.614
 3503POPC   C3B45165  17.985  36.507   6.975
 3503POPC   C4B45166  18.075  36.362   7.402
 3504POPC   NC345167  44.865  32.457   5.547
 3504POPC   PO445168  44.467  31.996   5.375
 3504POPC   GL145169  44.551  32.108   5.792
 3504POPC   GL245170  44.865  32.009   5.821
 3504POPC   C1A45171  44.564  32.409   6.175
 3504POPC   D2A45172  44.584  32.333   6.620
 3504POPC   C3A45173  44.569  32.627   6.954
 3504POPC   C4A45174  44.268  32.650   7.264
 3504POPC   C1B45175   0.016  32.153   6.217
 3504POPC   C2B45176   0.012  32.048   6.633
 3504POPC   C3B45177  44.787  32.076   7.034
 3504POPC   C4B45178  44.952  32.393   7.292
 3505POPC   NC345179  10.091  42.414   5.258
 3505POPC   PO445180  10.719  42.549   5.477
 3505POPC   GL145181  10.602  42.297   5.807
 3505POPC   GL245182  10.276  42.407   5.805
 3505POPC   C1A45183  10.445  42.105   6.201
 3505POPC   D2A45184  10.386  42.070   6.642
 3505POPC   C3A45185  10.665  42.047   7.000
 3505POPC   C4A45186  10.556  42.107   7.419
 3505POPC   C1B45187  10.400  42.637   6.205
 3505POPC   C2B45188  10.448  42.571   6.656
 3505POPC   C3B45189  10.291  42.396   7.050
 3505POPC   C4B45190  10.553  42.603   7.307
 3506POPC   NC345191  44.297  10.646   5.047
 3506POPC   PO445192  44.783  10.445   5.459
 3506POPC   GL145193  44.759  10.528   5.890
 3506POPC   GL245194  44.758  10.870   5.922
 3506POPC   C1A45195  44.698  10.246   6.255
 3506POPC   D2A45196  44.561  10.181   6.676
 3506POPC   C3A45197  44.867  10.202   6.977
 3506POPC   C4A45198  44.715  10.433   7.289
 3506POPC   C1B45199  44.556  10.732   6.343
 3506POPC   C2B45200  44.642  10.672   6.811
 3506POPC   C3B45201  44.721  10.938   7.183
 3506POPC   C4B45202  44.552  11.140   7.557
 3507POPC   NC345203  39.117  17.030   5.560
 3507POPC   PO445204  39.062  16.385   5.609
 3507POPC   GL145205  39.469  16.555   5.818
 3507POPC   GL245206  39.583  16.938   5.826
 3507POPC   C1A45207  39.509  16.455   6.254
 3507POPC   D2A45208  39.226  16.535   6.604
 3507POPC   C3A45209  39.447  16.466   6.989
 3507POPC   C4A45210  39.238  16.402   7.363
 3507POPC   C1B45211  39.353  16.953   6.217
 3507POPC   C2B45212  39.224  17.115   6.610
 3507POPC   C3B45213  39.118  16.946   7.011
 3507POPC   C4B45214  38.961  16.833   7.430
 3508POPC   NC345215  42.521  16.630   5.444
 3508POPC   PO445216  41.908  16.762   5.370
 3508POPC   GL145217  42.164  16.816   5.788
 3508POPC   GL245218  42.536  16.816   5.914
 3508POPC   C1A45219  42.136  16.830   6.239
 3508POPC   D2A45220  42.236  16.624   6.593
 3508POPC   C3A45221  42.370  16.844   6.930
 3508POPC   C4A45222  42.468  16.978   7.326
 3508POPC   C1B45223  42.659  16.533   6.271
 3508POPC   C2B45224  42.711  16.489   6.724
 3508POPC   C3B45225  42.734  16.530   7.161
 3508POPC   C4B45226  42.617  16.540   7.595
 3509POPC   NC345227  14.483  28.830   5.371
 3509POPC   PO445228  14.657  29.480   5.343
 3509POPC   GL145229  14.414  29.231   5.659
 3509POPC   GL245230  14.320  29.454   5.895
 3509POPC   C1A45231  14.559  28.992   6.036
 3509POPC   D2A45232  14.709  29.049   6.465
 3509POPC   C3A45233  14.437  29.010   6.825
 3509POPC   C4A45234  14.675  29.005   7.208
 3509POPC   C1B45235  14.306  29.334   6.305
 3509POPC   C2B45236  14.024  29.263   6.589
 3509POPC   C3B45237  14.067  29.392   6.973
 3509POPC   C4B45238  14.262  29.315   7.334
 3510POPC   NC345239  30.225  24.457   5.425
 3510POPC   PO445240  29.695  24.101   5.450
 3510POPC   GL145241  29.827  24.393   5.780
 3510POPC   GL245242  30.057  24.694   5.826
 3510POPC   C1A45243  30.035  24.289   6.149
 3510POPC   D2A45244  29.791  24.281   6.495
 3510POPC   C3A45245  30.040  24.265   6.847
 3510POPC   C4A45246  29.894  24.391   7.245
 3510POPC   C1B45247  29.842  24.766   6.173
 3510POPC   C2B45248  30.051  24.701   6.515
 3510POPC   C3B45249  29.997  24.770   6.896
 3510POPC   C4B45250  30.071  24.862   7.245
 3511POPC   NC345251   7.954  23.798   5.649
 3511POPC   PO445252   8.318  23.413   5.164
 3511POPC   GL145253   8.450  23.709   5.721
 3511POPC   GL245254   8.288  23.901   6.010
 3511POPC   C1A45255   8.512  23.529   6.208
 3511POPC   D2A45256   8.243  23.766   6.544
 3511POPC   C3A45257   8.208  23.625   6.996
 3511POPC   C4A45258   8.560  23.591   7.301
 3511POPC   C1B45259   8.090  24.229   6.208
 3511POPC   C2B45260   7.936  24.274   6.597
 3511POPC   C3B45261   8.160  24.141   6.962
 3511POPC   C4B45262   8.191  23.964   7.394
 3512POPC   NC345263  20.164  20.004   5.060
 3512POPC   PO445264  20.643  19.705   5.407
 3512POPC   GL145265  20.462  19.921   5.744
 3512POPC   GL245266  20.742  20.160   5.735
 3512POPC   C1A45267  20.294  19.856   6.160
 3512POPC   D2A45268  20.468  19.609   6.509
 3512POPC   C3A45269  20.376  19.729   6.928
 3512POPC   C4A45270  20.572  19.763   7.330
 3512POPC   C1B45271  20.896  19.889   6.040
 3512POPC   C2B45272  20.850  19.959   6.465
 3512POPC   C3B45273  20.872  19.897   6.880
 3512POPC   C4B45274  20.787  20.195   7.160
 3513POPC   NC345275  22.729   3.116   5.479
 3513POPC   PO445276  23.170   2.587   5.284
 3513POPC   GL145277  22.981   2.664   5.690
 3513POPC   GL245278  23.272   2.535   5.839
 3513POPC   C1A45279  22.994   2.908   6.083
 3513POPC   D2A45280  22.940   2.917   6.512
 3513POPC   C3A45281  22.857   2.787   6.918
 3513POPC   C4A45282  22.982   2.970   7.308
 3513POPC   C1B45283  23.043   2.415   6.207
 3513POPC   C2B45284  23.130   2.412   6.623
 3513POPC   C3B45285  23.233   2.436   7.048
 3513POPC   C4B45286  22.974   2.479   7.366
 3514POPC   NC345287  17.543  44.946   5.480
 3514POPC   PO445288  17.955  44.300   5.423
 3514POPC   GL145289  17.674  44.482   5.750
 3514POPC   GL245290  17.294  44.513   5.751
 3514POPC   C1A45291  17.571  44.552   6.190
 3514POPC   D2A45292  17.798  44.549   6.561
 3514POPC   C3A45293  17.598  44.551   6.933
 3514POPC   C4A45294  17.533  44.293   7.277
 3514POPC   C1B45295  17.169  44.864   6.054
 3514POPC   C2B45296  17.295  44.925   6.466
 3514POPC   C3B45297  17.188  44.922   6.894
 3514POPC   C4B45298  17.346  44.812   7.282
 3515POPC   NC345299  18.022  31.898   5.508
 3515POPC   PO445300  18.311  31.388   5.179
 3515POPC   GL145301  18.354  31.522   5.665
 3515POPC   GL245302  18.329  31.223   5.909
 3515POPC   C1A45303  18.463  31.729   6.115
 3515POPC   D2A45304  18.548  31.524   6.543
 3515POPC   C3A45305  18.481  31.683   6.994
 3515POPC   C4A45306  18.387  31.416   7.338
 3515POPC   C1B45307  18.051  31.453   6.220
 3515POPC   C2B45308  18.097  31.790   6.546
 3515POPC   C3B45309  18.035  31.908   6.990
 3515POPC   C4B45310  18.166  31.852   7.426
 3516POPC   NC345311   8.421  44.796   5.514
 3516POPC   PO445312   7.822  44.896   5.344
 3516POPC   GL145313   7.956  44.669   5.761
 3516POPC   GL245314   8.275  44.441   5.837
 3516POPC   C1A45315   7.979  44.746   6.211
 3516POPC   D2A45316   8.105  44.633   6.620
 3516POPC   C3A45317   8.014  44.817   6.999
 3516POPC   C4A45318   8.061  44.734   7.438
 3516POPC   C1B45319   8.125  44.243   6.214
 3516POPC   C2B45320   8.222  44.139   6.634
 3516POPC   C3B45321   8.290  44.380   7.044
 3516POPC   C4B45322   8.350  44.326   7.534
 3517POPC   NC345323   3.956  38.328   5.396
 3517POPC   PO445324   3.333  38.495   5.469
 3517POPC   GL145325   3.476  38.652   5.904
 3517POPC   GL245326   3.802  38.522   5.850
 3517POPC   C1A45327   3.521  38.732   6.357
 3517POPC   D2A45328   3.226  38.482   6.586
 3517POPC   C3A45329   3.325  38.296   6.972
 3517POPC   C4A45330   3.580  38.536   7.253
 3517POPC   C1B45331   3.664  38.260   6.212
 3517POPC   C2B45332   3.734  38.310   6.655
 3517POPC   C3B45333   3.832  38.121   7.047
 3517POPC   C4B45334   4.222  38.089   7.199
 3518POPC   NC345335  28.398  10.252   5.443
 3518POPC   PO445336  28.625  10.936   5.382
 3518POPC   GL145337  28.668  10.670   5.753
 3518POPC   GL245338  28.316  10.575   5.823
 3518POPC   C1A45339  28.633  10.721   6.239
 3518POPC   D2A45340  28.636  10.512   6.669
 3518POPC   C3A45341  28.606  10.681   7.109
 3518POPC   C4A45342  28.636  10.621   7.568
 3518POPC   C1B45343  28.109  10.811   6.151
 3518POPC   C2B45344  28.209  10.794   6.592
 3518POPC   C3B45345  28.166  10.498   6.921
 3518POPC   C4B45346  28.013  10.546   7.313
 3519POPC   NC345347  34.460  32.052   5.423
 3519POPC   PO445348  35.078  32.186   5.422
 3519POPC   GL145349  34.940  32.474   5.752
 3519POPC   GL245350  34.841  32.183   5.915
 3519POPC   C1A45351  34.884  32.643   6.214
 3519POPC   D2A45352  35.039  32.490   6.660
 3519POPC   C3A45353  34.720  32.425   7.013
 3519POPC   C4A45354  34.296  32.221   7.046
 3519POPC   C1B45355  35.084  31.846   6.118
 3519POPC   C2B45356  35.109  31.710   6.528
 3519POPC   C3B45357  34.789  31.812   6.832
 3519POPC   C4B45358  34.754  31.944   7.220
 3520POPC   NC345359  32.584  35.581   5.406
 3520POPC   PO445360  33.128  35.470   5.181
 3520POPC   GL145361  32.943  35.373   5.688
 3520POPC   GL245362  33.178  35.349   5.941
 3520POPC   C1A45363  32.713  35.175   6.095
 3520POPC   D2A45364  32.701  35.060   6.524
 3520POPC   C3A45365  32.927  35.246   6.850
 3520POPC   C4A45366  33.202  35.292   7.178
 3520POPC   C1B45367  33.117  35.391   6.372
 3520POPC   C2B45368  33.212  35.663   6.727
 3520POPC   C3B45369  32.965  35.734   7.061
 3520POPC   C4B45370  33.219  35.808   7.385
 3521POPC   NC345371  38.787  39.262   5.408
 3521POPC   PO445372  39.521  39.201   5.284
 3521POPC   GL145373  39.296  39.345   5.722
 3521POPC   GL245374  38.973  39.266   5.870
 3521POPC   C1A45375  39.381  39.288   6.184
 3521POPC   D2A45376  39.411  39.049   6.584
 3521POPC   C3A45377  39.298  39.334   6.910
 3521POPC   C4A45378  39.524  39.540   7.217
 3521POPC   C1B45379  38.976  38.988   6.226
 3521POPC   C2B45380  38.901  39.064   6.660
 3521POPC   C3B45381  39.036  38.907   7.057
 3521POPC   C4B45382  39.447  38.946   7.257
 3522POPC   NC345383   8.158  34.109   5.227
 3522POPC   PO445384   7.764  33.574   5.396
 3522POPC   GL145385   7.907  33.759   5.763
 3522POPC   GL245386   7.883  34.119   5.695
 3522POPC   C1A45387   8.097  33.644   6.188
 3522POPC   D2A45388   8.145  33.579   6.641
 3522POPC   C3A45389   8.401  33.473   6.997
 3522POPC   C4A45390   8.020  33.581   7.211
 3522POPC   C1B45391   8.125  34.172   6.101
 3522POPC   C2B45392   8.378  34.023   6.489
 3522POPC   C3B45393   8.281  33.975   6.951
 3522POPC   C4B45394   7.985  34.129   7.264
 3523POPC   NC345395   9.557  40.750   5.432
 3523POPC   PO445396   9.808  41.293   5.179
 3523POPC   GL145397   9.883  41.151   5.625
 3523POPC   GL245398   9.952  40.816   5.752
 3523POPC   C1A45399   9.908  41.165   6.112
 3523POPC   D2A45400   9.954  41.270   6.552
 3523POPC   C3A45401   9.848  40.998   6.920
 3523POPC   C4A45402  10.132  40.783   7.157
 3523POPC   C1B45403   9.666  40.712   6.112
 3523POPC   C2B45404   9.586  40.495   6.495
 3523POPC   C3B45405   9.838  40.476   6.856
 3523POPC   C4B45406   9.713  40.509   7.258
 3524POPC   NC345407  12.339  34.068   5.401
 3524POPC   PO445408  11.776  33.674   5.355
 3524POPC   GL145409  11.883  33.792   5.794
 3524POPC   GL245410  12.207  33.751   5.842
 3524POPC   C1A45411  11.730  33.844   6.215
 3524POPC   D2A45412  12.013  33.768   6.574
 3524POPC   C3A45413  11.818  33.684   6.983
 3524POPC   C4A45414  11.897  33.923   7.345
 3524POPC   C1B45415  12.430  33.647   6.230
 3524POPC   C2B45416  12.529  33.894   6.587
 3524POPC   C3B45417  12.583  34.029   6.988
 3524POPC   C4B45418  12.386  33.800   7.272
 3525POPC   NC345419  37.450  35.412   5.430
 3525POPC   PO445420  38.099  35.450   5.402
 3525POPC   GL145421  37.912  35.371   5.826
 3525POPC   GL245422  37.583  35.216   5.918
 3525POPC   C1A45423  37.811  35.494   6.265
 3525POPC   D2A45424  37.440  35.393   6.591
 3525POPC   C3A45425  37.591  35.386   7.030
 3525POPC   C4A45426  37.837  35.716   7.210
 3525POPC   C1B45427  37.669  35.017   6.340
 3525POPC   C2B45428  37.948  35.263   6.691
 3525POPC   C3B45429  38.089  35.227   7.144
 3525POPC   C4B45430  37.818  35.087   7.500
 3526POPC   NC345431   0.699  30.069   5.375
 3526POPC   PO445432   1.181  29.559   5.258
 3526POPC   GL145433   1.123  29.619   5.729
 3526POPC   GL245434   1.130  29.961   5.860
 3526POPC   C1A45435   1.412  29.618   6.121
 3526POPC   D2A45436   1.391  29.566   6.593
 3526POPC   C3A45437   1.442  29.735   7.020
 3526POPC   C4A45438   1.236  29.756   7.437
 3526POPC   C1B45439   1.107  29.983   6.328
 3526POPC   C2B45440   1.089  30.007   6.780
 3526POPC   C3B45441   0.878  29.971   7.172
 3526POPC   C4B45442   0.956  30.154   7.578
 3527POPC   NC345443  20.697   8.707   5.510
 3527POPC   PO445444  21.039   9.300   5.527
 3527POPC   GL145445  20.776   9.127   5.864
 3527POPC   GL245446  20.423   9.122   5.806
 3527POPC   C1A45447  20.709   8.875   6.270
 3527POPC   D2A45448  20.931   8.806   6.691
 3527POPC   C3A45449  20.655   8.798   7.070
 3527POPC   C4A45450  20.607   8.879   7.523
 3527POPC   C1B45451  20.479   9.338   6.232
 3527POPC   C2B45452  20.430   9.152   6.666
 3527POPC   C3B45453  20.292   9.167   7.123
 3527POPC   C4B45454  20.098   9.000   7.506
 3528POPC   NC345455  37.506  25.851   5.002
 3528POPC   PO445456  37.727  25.748   5.552
 3528POPC   GL145457  37.481  26.000   5.816
 3528POPC   GL245458  37.585  26.334   5.778
 3528POPC   C1A45459  37.461  25.841   6.225
 3528POPC   D2A45460  37.804  25.780   6.476
 3528POPC   C3A45461  37.662  25.872   6.856
 3528POPC   C4A45462  37.820  25.765   7.231
 3528POPC   C1B45463  37.852  26.186   6.149
 3528POPC   C2B45464  38.041  26.218   6.590
 3528POPC   C3B45465  37.969  26.236   7.050
 3528POPC   C4B45466  37.559  26.218   7.270
 3529POPC   NC345467  24.456  28.716   5.599
 3529POPC   PO445468  24.870  29.058   5.193
 3529POPC   GL145469  24.868  29.039   5.697
 3529POPC   GL245470  24.562  29.165   5.861
 3529POPC   C1A45471  24.809  28.881   6.177
 3529POPC   D2A45472  24.573  29.084   6.539
 3529POPC   C3A45473  24.729  29.113   6.933
 3529POPC   C4A45474  24.619  29.000   7.347
 3529POPC   C1B45475  24.231  29.191   6.182
 3529POPC   C2B45476  24.067  29.166   6.621
 3529POPC   C3B45477  24.180  29.059   7.043
 3529POPC   C4B45478  24.085  29.160   7.477
 3530POPC   NC345479  44.158   0.038   5.614
 3530POPC   PO445480  43.650  44.609   5.308
 3530POPC   GL145481  43.819  44.512   5.787
 3530POPC   GL245482  43.945  44.821   6.002
 3530POPC   C1A45483  43.702  44.502   6.280
 3530POPC   D2A45484  43.733  44.794   6.637
 3530POPC   C3A45485  43.697  44.504   6.963
 3530POPC   C4A45486  43.698  44.281   7.350
 3530POPC   C1B45487  44.318  44.927   6.270
 3530POPC   C2B45488  44.391   0.006   6.713
 3530POPC   C3B45489  44.093  44.923   7.024
 3530POPC   C4B45490  43.972  44.703   7.346
 3531POPC   NC345491  42.586  42.036   5.452
 3531POPC   PO445492  42.059  42.417   5.235
 3531POPC   GL145493  42.105  42.369   5.695
 3531POPC   GL245494  42.454  42.461   5.724
 3531POPC   C1A45495  42.255  42.273   6.154
 3531POPC   D2A45496  42.523  42.303   6.535
 3531POPC   C3A45497  42.261  42.359   6.877
 3531POPC   C4A45498  42.162  42.234   7.295
 3531POPC   C1B45499  42.624  42.630   6.116
 3531POPC   C2B45500  42.775  42.793   6.499
 3531POPC   C3B45501  42.657  42.700   6.895
 3531POPC   C4B45502  42.670  42.368   7.200
 3532POPC   NC345503  11.548   3.457   5.493
 3532POPC   PO445504  10.965   3.227   5.105
 3532POPC   GL145505  11.042   3.430   5.621
 3532POPC   GL245506  11.223   3.757   5.746
 3532POPC   C1A45507  11.270   3.430   6.110
 3532POPC   D2A45508  11.297   3.237   6.523
 3532POPC   C3A45509  11.470   3.403   6.869
 3532POPC   C4A45510  11.354   3.370   7.233
 3532POPC   C1B45511  11.198   3.953   6.179
 3532POPC   C2B45512  11.349   3.807   6.560
 3532POPC   C3B45513  11.161   3.789   6.949
 3532POPC   C4B45514  11.247   3.908   7.340
 3533POPC   NC345515  39.323  31.143   5.449
 3533POPC   PO445516  39.092  31.783   5.433
 3533POPC   GL145517  39.352  31.577   5.753
 3533POPC   GL245518  39.083  31.347   5.851
 3533POPC   C1A45519  39.417  31.507   6.209
 3533POPC   D2A45520  39.074  31.469   6.528
 3533POPC   C3A45521  39.255  31.543   6.958
 3533POPC   C4A45522  39.357  31.490   7.431
 3533POPC   C1B45523  38.743  31.248   6.127
 3533POPC   C2B45524  38.785  31.010   6.501
 3533POPC   C3B45525  38.872  31.156   6.906
 3533POPC   C4B45526  38.875  31.378   7.274
 3534POPC   NC345527  39.639  26.356   5.489
 3534POPC   PO445528  39.113  26.235   5.690
 3534POPC   GL145529  39.507  26.079   5.890
 3534POPC   GL245530  39.654  25.744   5.839
 3534POPC   C1A45531  39.572  26.213   6.279
 3534POPC   D2A45532  39.384  26.409   6.634
 3534POPC   C3A45533  39.571  26.272   6.994
 3534POPC   C4A45534  39.355  26.025   7.290
 3534POPC   C1B45535  39.351  25.709   6.228
 3534POPC   C2B45536  39.102  25.954   6.569
 3534POPC   C3B45537  38.868  25.860   6.956
 3534POPC   C4B45538  39.026  25.648   7.317
 3535POPC   NC345539  12.643  14.665   5.238
 3535POPC   PO445540  12.923  14.059   5.425
 3535POPC   GL145541  12.890  14.167   5.834
 3535POPC   GL245542  12.538  14.226   5.799
 3535POPC   C1A45543  13.009  14.320   6.241
 3535POPC   D2A45544  13.194  14.614   6.523
 3535POPC   C3A45545  12.949  14.523   6.873
 3535POPC   C4A45546  13.000  14.264   7.216
 3535POPC   C1B45547  12.659  14.603   6.002
 3535POPC   C2B45548  12.684  14.769   6.448
 3535POPC   C3B45549  12.508  14.830   6.874
 3535POPC   C4B45550  12.573  14.575   7.221
 3536POPC   NC345551   2.066   3.356   5.329
 3536POPC   PO445552   1.827   3.909   5.625
 3536POPC   GL145553   1.808   3.553   5.907
 3536POPC   GL245554   2.095   3.389   5.830
 3536POPC   C1A45555   1.873   3.500   6.376
 3536POPC   D2A45556   2.237   3.648   6.650
 3536POPC   C3A45557   2.242   3.738   7.062
 3536POPC   C4A45558   1.838   3.762   7.219
 3536POPC   C1B45559   2.339   3.419   6.196
 3536POPC   C2B45560   2.230   3.152   6.573
 3536POPC   C3B45561   1.964   2.991   6.882
 3536POPC   C4B45562   1.986   3.256   7.204
 3537POPC   NC345563  24.474   4.326   5.441
 3537POPC   PO445564  24.750   3.722   5.707
 3537POPC   GL145565  24.837   4.099   5.985
 3537POPC   GL245566  24.604   4.382   5.941
 3537POPC   C1A45567  24.799   4.138   6.443
 3537POPC   D2A45568  24.642   4.468   6.697
 3537POPC   C3A45569  24.808   4.406   7.106
 3537POPC   C4A45570  24.897   4.575   7.542
 3537POPC   C1B45571  24.381   4.036   6.176
 3537POPC   C2B45572  24.256   4.069   6.590
 3537POPC   C3B45573  24.262   4.274   6.989
 3537POPC   C4B45574  24.184   4.124   7.424
 3538POPC   NC345575   9.927  12.576   5.405
 3538POPC   PO445576   9.446  12.148   5.620
 3538POPC   GL145577   9.844  12.240   5.797
 3538POPC   GL245578   9.904  11.876   5.846
 3538POPC   C1A45579  10.098  12.247   6.178
 3538POPC   D2A45580  10.011  11.994   6.532
 3538POPC   C3A45581   9.744  12.253   6.790
 3538POPC   C4A45582   9.962  12.438   7.123
 3538POPC   C1B45583   9.614  11.922   6.212
 3538POPC   C2B45584   9.540  11.772   6.641
 3538POPC   C3B45585   9.656  11.816   7.062
 3538POPC   C4B45586   9.517  12.165   7.250
 3539POPC   NC345587  23.935  11.249   5.274
 3539POPC   PO445588  23.518  11.711   5.335
 3539POPC   GL145589  23.641  11.391   5.675
 3539POPC   GL245590  23.996  11.310   5.764
 3539POPC   C1A45591  23.567  11.275   6.107
 3539POPC   D2A45592  23.658  11.067   6.494
 3539POPC   C3A45593  23.564  11.310   6.851
 3539POPC   C4A45594  23.436  11.206   7.254
 3539POPC   C1B45595  24.069  11.139   6.158
 3539POPC   C2B45596  24.147  11.216   6.594
 3539POPC   C3B45597  23.985  11.059   6.969
 3539POPC   C4B45598  23.905  11.407   7.226
 3540POPC   NC345599   6.000  20.426   5.353
 3540POPC   PO445600   5.306  20.313   5.365
 3540POPC   GL145601   5.608  20.444   5.719
 3540POPC   GL245602   5.858  20.731   5.778
 3540POPC   C1A45603   5.758  20.417   6.156
 3540POPC   D2A45604   5.701  20.675   6.491
 3540POPC   C3A45605   5.754  20.445   6.854
 3540POPC   C4A45606   5.664  20.446   7.265
 3540POPC   C1B45607   6.065  20.879   6.197
 3540POPC   C2B45608   6.240  21.049   6.568
 3540POPC   C3B45609   6.094  20.899   6.966
 3540POPC   C4B45610   6.135  21.099   7.355
 3541POPC   NC345611  30.905  11.088   5.192
 3541POPC   PO445612  31.508  11.437   5.189
 3541POPC   GL145613  31.564  11.510   5.694
 3541POPC   GL245614  31.254  11.671   5.828
 3541POPC   C1A45615  31.470  11.303   6.139
 3541POPC   D2A45616  31.369  11.135   6.557
 3541POPC   C3A45617  31.543  11.314   6.923
 3541POPC   C4A45618  31.336  11.237   7.279
 3541POPC   C1B45619  31.236  11.747   6.276
 3541POPC   C2B45620  31.204  11.632   6.717
 3541POPC   C3B45621  31.319  11.747   7.134
 3541POPC   C4B45622  31.271  11.659   7.590
 3542POPC   NC345623   5.150   2.551   5.312
 3542POPC   PO445624   5.282   3.173   5.387
 3542POPC   GL145625   5.330   3.106   5.787
 3542POPC   GL245626   5.136   2.794   5.780
 3542POPC   C1A45627   5.344   3.185   6.234
 3542POPC   D2A45628   5.266   2.919   6.591
 3542POPC   C3A45629   5.201   3.090   6.981
 3542POPC   C4A45630   5.079   3.038   7.421
 3542POPC   C1B45631   4.961   2.793   6.192
 3542POPC   C2B45632   4.751   2.737   6.599
 3542POPC   C3B45633   4.820   2.740   7.034
 3542POPC   C4B45634   4.687   2.351   7.156
 3543POPC   NC345635  26.137  31.885   5.324
 3543POPC   PO445636  25.845  31.314   5.252
 3543POPC   GL145637  25.798  31.600   5.633
 3543POPC   GL245638  26.130  31.559   5.769
 3543POPC   C1A45639  25.792  31.514   6.124
 3543POPC   D2A45640  26.009  31.511   6.526
 3543POPC   C3A45641  25.896  31.662   6.920
 3543POPC   C4A45642  25.727  31.414   7.214
 3543POPC   C1B45643  26.370  31.473   6.141
 3543POPC   C2B45644  26.431  31.260   6.553
 3543POPC   C3B45645  26.403  31.486   6.944
 3543POPC   C4B45646  26.180  31.577   7.331
 3544POPC   NC345647   0.930  11.797   5.588
 3544POPC   PO445648   1.213  12.374   5.452
 3544POPC   GL145649   1.360  12.252   5.867
 3544POPC   GL245650   1.373  11.890   5.861
 3544POPC   C1A45651   1.223  12.126   6.288
 3544POPC   D2A45652   1.339  12.066   6.711
 3544POPC   C3A45653   1.140  12.322   7.021
 3544POPC   C4A45654   1.374  12.517   7.358
 3544POPC   C1B45655   1.162  11.606   6.184
 3544POPC   C2B45656   0.984  11.726   6.586
 3544POPC   C3B45657   1.082  11.709   7.020
 3544POPC   C4B45658   1.288  11.935   7.339
 3545POPC   NC345659  42.608  34.822   5.397
 3545POPC   PO445660  42.487  34.139   5.401
 3545POPC   GL145661  42.349  34.485   5.665
 3545POPC   GL245662  42.725  34.472   5.741
 3545POPC   C1A45663  42.302  34.774   6.048
 3545POPC   D2A45664  42.115  34.916   6.454
 3545POPC   C3A45665  42.413  34.868   6.817
 3545POPC   C4A45666  42.354  34.772   7.243
 3545POPC   C1B45667  42.539  34.313   6.101
 3545POPC   C2B45668  42.482  34.502   6.462
 3545POPC   C3B45669  42.515  34.340   6.864
 3545POPC   C4B45670  42.708  34.384   7.246
 3546POPC   NC345671   2.558  37.010   5.416
 3546POPC   PO445672   3.185  36.686   5.479
 3546POPC   GL145673   2.902  36.972   5.805
 3546POPC   GL245674   2.560  36.797   5.876
 3546POPC   C1A45675   2.710  37.068   6.266
 3546POPC   D2A45676   2.659  36.841   6.683
 3546POPC   C3A45677   2.681  37.035   7.105
 3546POPC   C4A45678   2.391  37.080   7.457
 3546POPC   C1B45679   2.484  36.495   6.215
 3546POPC   C2B45680   2.474  36.348   6.658
 3546POPC   C3B45681   2.361  36.572   7.060
 3546POPC   C4B45682   2.410  36.601   7.546
 3547POPC   NC345683   6.153  24.326   5.250
 3547POPC   PO445684   6.885  24.464   5.302
 3547POPC   GL145685   6.694  24.367   5.730
 3547POPC   GL245686   6.785  24.067   5.858
 3547POPC   C1A45687   6.714  24.637   6.113
 3547POPC   D2A45688   6.502  24.753   6.504
 3547POPC   C3A45689   6.400  24.406   6.772
 3547POPC   C4A45690   6.475  24.429   7.201
 3547POPC   C1B45691   7.043  24.234   6.183
 3547POPC   C2B45692   6.994  24.476   6.571
 3547POPC   C3B45693   6.958  24.329   6.996
 3547POPC   C4B45694   6.934  24.456   7.422
 3548POPC   NC345695  37.219  43.131   5.468
 3548POPC   PO445696  36.647  43.436   5.604
 3548POPC   GL145697  36.881  43.145   5.865
 3548POPC   GL245698  36.856  42.804   5.741
 3548POPC   C1A45699  37.122  43.001   6.227
 3548POPC   D2A45700  37.222  43.191   6.612
 3548POPC   C3A45701  37.030  43.082   6.970
 3548POPC   C4A45702  36.769  43.224   7.277
 3548POPC   C1B45703  36.693  42.745   6.152
 3548POPC   C2B45704  36.724  42.905   6.576
 3548POPC   C3B45705  36.693  42.696   6.991
 3548POPC   C4B45706  36.660  42.763   7.455
 3549POPC   NC345707  34.386  35.699   5.269
 3549POPC   PO445708  34.256  36.393   5.348
 3549POPC   GL145709  34.431  36.115   5.672
 3549POPC   GL245710  34.303  35.784   5.767
 3549POPC   C1A45711  34.423  36.124   6.144
 3549POPC   D2A45712  34.479  35.901   6.541
 3549POPC   C3A45713  34.578  36.197   6.901
 3549POPC   C4A45714  34.734  36.479   7.269
 3549POPC   C1B45715  34.052  35.773   6.168
 3549POPC   C2B45716  33.964  35.894   6.626
 3549POPC   C3B45717  34.171  35.900   7.070
 3549POPC   C4B45718  34.555  35.991   7.361
 3550POPC   NC345719   0.350   5.410   5.371
 3550POPC   PO445720   0.325   6.047   5.300
 3550POPC   GL145721   0.687   6.000   5.666
 3550POPC   GL245722   0.668   5.631   5.784
 3550POPC   C1A45723   0.756   5.991   6.153
 3550POPC   D2A45724   0.529   5.821   6.549
 3550POPC   C3A45725   0.485   6.031   6.982
 3550POPC   C4A45726   0.354   6.049   7.413
 3550POPC   C1B45727   0.753   5.428   6.207
 3550POPC   C2B45728   0.801   5.222   6.583
 3550POPC   C3B45729   0.716   5.472   6.889
 3550POPC   C4B45730   0.665   5.650   7.268
 3551POPC   NC345731  33.607  43.006   5.385
 3551POPC   PO445732  33.416  43.631   5.644
 3551POPC   GL145733  33.672  43.397   5.885
 3551POPC   GL245734  33.900  43.187   5.755
 3551POPC   C1A45735  33.657  43.288   6.302
 3551POPC   D2A45736  33.361  43.305   6.623
 3551POPC   C3A45737  33.574  43.392   7.004
 3551POPC   C4A45738  33.952  43.416   7.257
 3551POPC   C1B45739  33.729  42.858   6.023
 3551POPC   C2B45740  33.670  42.782   6.468
 3551POPC   C3B45741  33.565  42.893   6.871
 3551POPC   C4B45742  33.757  42.889   7.252
 3552POPC   NC345743  26.183  39.153   5.226
 3552POPC   PO445744  25.729  39.563   5.459
 3552POPC   GL145745  26.001  39.279   5.714
 3552POPC   GL245746  25.873  38.976   5.792
 3552POPC   C1A45747  26.222  39.063   6.111
 3552POPC   D2A45748  26.152  38.851   6.520
 3552POPC   C3A45749  26.273  39.003   6.940
 3552POPC   C4A45750  26.176  39.216   7.339
 3552POPC   C1B45751  25.854  39.389   6.182
 3552POPC   C2B45752  26.046  39.580   6.596
 3552POPC   C3B45753  25.944  39.606   7.074
 3552POPC   C4B45754  25.704  39.468   7.472
 3553POPC   NC345755  31.608  44.346   5.440
 3553POPC   PO445756  31.360  44.971   5.575
 3553POPC   GL145757  31.399  44.600   5.816
 3553POPC   GL245758  31.727  44.657   5.835
 3553POPC   C1A45759  31.359  44.386   6.228
 3553POPC   D2A45760  31.271  44.607   6.610
 3553POPC   C3A45761  31.124  44.444   6.988
 3553POPC   C4A45762  31.270  44.271   7.394
 3553POPC   C1B45763  31.615  44.822   6.244
 3553POPC   C2B45764  31.801  44.715   6.619
 3553POPC   C3B45765  31.630  44.616   7.003
 3553POPC   C4B45766  31.825  44.754   7.368
 3554POPC   NC345767  43.243  44.969   5.239
 3554POPC   PO445768  42.717  44.571   5.414
 3554POPC   GL145769  42.885  44.618   5.795
 3554POPC   GL245770  42.771  44.293   5.885
 3554POPC   C1A45771  42.983  44.607   6.246
 3554POPC   D2A45772  43.277  44.552   6.583
 3554POPC   C3A45773  43.213  44.672   6.990
 3554POPC   C4A45774  43.020  44.879   7.300
 3554POPC   C1B45775  42.621  44.224   6.301
 3554POPC   C2B45776  42.769  44.398   6.693
 3554POPC   C3B45777  42.783  44.425   7.131
 3554POPC   C4B45778  42.733  44.457   7.586
 3555POPC   NC345779  40.785  42.275   5.192
 3555POPC   PO445780  40.476  42.002   5.754
 3555POPC   GL145781  40.547  42.449   5.844
 3555POPC   GL245782  40.896  42.617   5.818
 3555POPC   C1A45783  40.714  42.413   6.258
 3555POPC   D2A45784  40.900  42.142   6.508
 3555POPC   C3A45785  40.706  42.163   6.878
 3555POPC   C4A45786  40.871  41.988   7.204
 3555POPC   C1B45787  41.005  42.818   6.252
 3555POPC   C2B45788  40.929  42.628   6.704
 3555POPC   C3B45789  40.941  42.528   7.165
 3555POPC   C4B45790  40.753  42.629   7.551
 3556POPC   NC345791  19.477  20.641   5.240
 3556POPC   PO445792  20.076  20.454   5.107
 3556POPC   GL145793  19.938  20.568   5.584
 3556POPC   GL245794  19.988  20.908   5.743
 3556POPC   C1A45795  20.056  20.404   6.047
 3556POPC   D2A45796  20.057  20.514   6.499
 3556POPC   C3A45797  19.848  20.245   6.828
 3556POPC   C4A45798  19.807  20.424   7.250
 3556POPC   C1B45799  20.189  20.903   6.174
 3556POPC   C2B45800  20.132  21.031   6.624
 3556POPC   C3B45801  19.938  20.925   7.033
 3556POPC   C4B45802  20.029  21.030   7.468
 3557POPC   NC345803  15.892  24.486   5.298
 3557POPC   PO445804  15.541  24.967   5.626
 3557POPC   GL145805  15.907  24.661   5.779
 3557POPC   GL245806  15.908  24.260   5.770
 3557POPC   C1A45807  16.031  24.505   6.203
 3557POPC   D2A45808  15.815  24.698   6.568
 3557POPC   C3A45809  15.990  24.684   6.997
 3557POPC   C4A45810  16.310  24.464   7.216
 3557POPC   C1B45811  15.697  24.109   6.160
 3557POPC   C2B45812  15.852  24.165   6.564
 3557POPC   C3B45813  16.006  24.130   6.962
 3557POPC   C4B45814  15.792  24.248   7.274
 3558POPC   NC345815  27.789  44.724   5.349
 3558POPC   PO445816  27.193  44.907   5.169
 3558POPC   GL145817  27.302   0.006   5.616
 3558POPC   GL245818  27.656   0.098   5.697
 3558POPC   C1A45819  27.351  44.879   6.055
 3558POPC   D2A45820  27.533  44.651   6.395
 3558POPC   C3A45821  27.439  44.734   6.821
 3558POPC   C4A45822  27.651  44.671   7.216
 3558POPC   C1B45823  27.841   0.062   6.093
 3558POPC   C2B45824  27.745   0.121   6.529
 3558POPC   C3B45825  27.784   0.146   6.974
 3558POPC   C4B45826  28.011  44.997   7.310
 3559POPC   NC345827  44.058  16.566   5.360
 3559POPC   PO445828  43.552  17.017   5.344
 3559POPC   GL145829  43.820  16.868   5.728
 3559POPC   GL245830  43.856  16.477   5.829
 3559POPC   C1A45831  44.089  16.828   6.110
 3559POPC   D2A45832  44.038  16.479   6.375
 3559POPC   C3A45833  44.080  16.525   6.813
 3559POPC   C4A45834  43.913  16.828   7.094
 3559POPC   C1B45835  43.593  16.688   6.185
 3559POPC   C2B45836  43.631  16.839   6.628
 3559POPC   C3B45837  43.401  16.818   7.030
 3559POPC   C4B45838  43.535  16.831   7.468
 3560POPC   NC345839  10.360  19.350   5.421
 3560POPC   PO445840  10.961  19.505   5.675
 3560POPC   GL145841  10.664  19.165   5.836
 3560POPC   GL245842  10.326  19.220   5.926
 3560POPC   C1A45843  10.662  18.871   6.218
 3560POPC   D2A45844  10.577  18.934   6.695
 3560POPC   C3A45845  10.824  18.771   7.093
 3560POPC   C4A45846  10.714  19.013   7.501
 3560POPC   C1B45847  10.154  18.919   6.238
 3560POPC   C2B45848   9.957  18.980   6.619
 3560POPC   C3B45849  10.103  19.192   6.983
 3560POPC   C4B45850  10.340  18.871   7.176
 3561POPC   NC345851  40.209  20.790   5.467
 3561POPC   PO445852  40.033  20.146   5.507
 3561POPC   GL145853  40.148  20.445   5.835
 3561POPC   GL245854  40.457  20.634   5.914
 3561POPC   C1A45855  40.017  20.675   6.202
 3561POPC   D2A45856  39.768  20.865   6.517
 3561POPC   C3A45857  39.759  20.677   6.918
 3561POPC   C4A45858  39.860  20.607   7.349
 3561POPC   C1B45859  40.462  20.899   6.290
 3561POPC   C2B45860  40.267  20.913   6.704
 3561POPC   C3B45861  40.273  20.649   7.081
 3561POPC   C4B45862  40.297  20.785   7.555
 3562POPC   NC345863  11.733  19.870   5.386
 3562POPC   PO445864  12.198  20.308   5.250
 3562POPC   GL145865  12.221  19.930   5.600
 3562POPC   GL245866  11.942  19.898   5.827
 3562POPC   C1A45867  12.311  19.662   6.045
 3562POPC   D2A45868  12.209  19.770   6.492
 3562POPC   C3A45869  12.472  19.880   6.818
 3562POPC   C4A45870  12.349  19.987   7.231
 3562POPC   C1B45871  11.804  19.738   6.183
 3562POPC   C2B45872  11.698  19.876   6.570
 3562POPC   C3B45873  11.921  19.785   6.928
 3562POPC   C4B45874  11.873  19.879   7.356
 3563POPC   NC345875   0.733  32.425   5.278
 3563POPC   PO445876   0.156  32.124   5.407
 3563POPC   GL145877   0.363  32.224   5.823
 3563POPC   GL245878   0.723  32.248   5.768
 3563POPC   C1A45879   0.570  32.172   6.260
 3563POPC   D2A45880   0.480  32.324   6.674
 3563POPC   C3A45881   0.330  32.109   7.041
 3563POPC   C4A45882   0.413  32.187   7.473
 3563POPC   C1B45883   0.901  32.558   6.058
 3563POPC   C2B45884   0.959  32.591   6.516
 3563POPC   C3B45885   0.822  32.590   6.954
 3563POPC   C4B45886   0.760  32.576   7.457
 3564POPC   NC345887  42.117  26.623   5.399
 3564POPC   PO445888  42.602  26.976   5.332
 3564POPC   GL145889  42.553  26.786   5.755
 3564POPC   GL245890  42.218  26.715   5.897
 3564POPC   C1A45891  42.644  26.660   6.179
 3564POPC   D2A45892  42.314  26.704   6.518
 3564POPC   C3A45893  42.335  26.942   6.915
 3564POPC   C4A45894  42.636  26.961   7.257
 3564POPC   C1B45895  41.880  26.587   6.194
 3564POPC   C2B45896  41.770  26.673   6.628
 3564POPC   C3B45897  41.940  26.581   7.014
 3564POPC   C4B45898  42.278  26.563   7.318
 3565POPC   NC345899  38.269   4.786   5.372
 3565POPC   PO445900  38.815   4.332   5.446
 3565POPC   GL145901  38.634   4.542   5.805
 3565POPC   GL245902  38.300   4.422   5.743
 3565POPC   C1A45903  38.492   4.458   6.245
 3565POPC   D2A45904  38.497   4.392   6.696
 3565POPC   C3A45905  38.796   4.573   6.954
 3565POPC   C4A45906  38.500   4.516   7.274
 3565POPC   C1B45907  38.207   4.062   6.024
 3565POPC   C2B45908  38.152   4.100   6.465
 3565POPC   C3B45909  38.141   4.048   6.936
 3565POPC   C4B45910  38.277   4.037   7.404
 3566POPC   NC345911  23.970  34.449   5.495
 3566POPC   PO445912  23.547  34.903   5.331
 3566POPC   GL145913  23.570  34.760   5.756
 3566POPC   GL245914  23.280  34.913   5.890
 3566POPC   C1A45915  23.623  34.474   6.120
 3566POPC   D2A45916  23.754  34.523   6.559
 3566POPC   C3A45917  23.537  34.427   6.943
 3566POPC   C4A45918  23.714  34.315   7.321
 3566POPC   C1B45919  23.430  34.920   6.281
 3566POPC   C2B45920  23.274  34.741   6.644
 3566POPC   C3B45921  23.322  34.870   7.092
 3566POPC   C4B45922  23.725  34.852   7.321
 3567POPC   NC345923   1.643  39.232   5.576
 3567POPC   PO445924   2.307  38.897   5.393
 3567POPC   GL145925   2.074  38.971   5.756
 3567POPC   GL245926   2.139  39.331   5.823
 3567POPC   C1A45927   2.077  38.963   6.203
 3567POPC   D2A45928   2.243  39.252   6.494
 3567POPC   C3A45929   2.103  39.061   6.850
 3567POPC   C4A45930   1.898  39.017   7.237
 3567POPC   C1B45931   1.832  39.409   6.161
 3567POPC   C2B45932   1.751  39.418   6.566
 3567POPC   C3B45933   1.700  39.450   6.972
 3567POPC   C4B45934   1.740  39.448   7.416
 3568POPC   NC345935  14.076  13.410   5.339
 3568POPC   PO445936  13.516  13.795   5.250
 3568POPC   GL145937  13.715  13.694   5.678
 3568POPC   GL245938  13.815  13.352   5.771
 3568POPC   C1A45939  13.612  13.701   6.145
 3568POPC   D2A45940  13.285  13.611   6.460
 3568POPC   C3A45941  13.355  13.578   6.912
 3568POPC   C4A45942  13.336  13.883   7.260
 3568POPC   C1B45943  13.965  13.322   6.202
 3568POPC   C2B45944  13.927  13.522   6.610
 3568POPC   C3B45945  13.861  13.647   7.034
 3568POPC   C4B45946  13.970  13.440   7.416
 3569POPC   NC345947  35.151  15.823   5.394
 3569POPC   PO445948  35.801  16.050   5.399
 3569POPC   GL145949  35.484  16.060   5.763
 3569POPC   GL245950  35.134  16.198   5.783
 3569POPC   C1A45951  35.590  15.984   6.209
 3569POPC   D2A45952  35.522  16.180   6.597
 3569POPC   C3A45953  35.480  15.940   6.948
 3569POPC   C4A45954  35.306  16.142   7.278
 3569POPC   C1B45955  35.102  15.890   6.134
 3569POPC   C2B45956  35.115  15.828   6.595
 3569POPC   C3B45957  34.978  15.796   7.043
 3569POPC   C4B45958  35.134  15.678   7.482
 3570POPC   NC345959  32.744  13.665   5.366
 3570POPC   PO445960  33.431  13.792   5.258
 3570POPC   GL145961  33.190  13.814   5.697
 3570POPC   GL245962  32.826  13.960   5.777
 3570POPC   C1A45963  33.219  13.644   6.177
 3570POPC   D2A45964  32.985  13.556   6.634
 3570POPC   C3A45965  32.942  13.522   7.143
 3570POPC   C4A45966  33.133  13.327   7.556
 3570POPC   C1B45967  32.818  13.930   6.261
 3570POPC   C2B45968  33.170  14.035   6.532
 3570POPC   C3B45969  33.281  13.901   6.941
 3570POPC   C4B45970  33.012  14.030   7.260
 3571POPC   NC345971  20.644  32.830   5.360
 3571POPC   PO445972  20.665  33.523   5.310
 3571POPC   GL145973  20.416  33.338   5.762
 3571POPC   GL245974  20.456  32.981   5.832
 3571POPC   C1A45975  20.395  33.274   6.267
 3571POPC   D2A45976  20.621  33.115   6.660
 3571POPC   C3A45977  20.524  33.272   7.100
 3571POPC   C4A45978  20.507  33.080   7.523
 3571POPC   C1B45979  20.599  32.779   6.231
 3571POPC   C2B45980  20.424  32.607   6.636
 3571POPC   C3B45981  20.490  32.747   7.057
 3571POPC   C4B45982  20.851  32.742   7.280
 3572POPC   NC345983  38.628  31.654   5.470
 3572POPC   PO445984  38.459  31.008   5.498
 3572POPC   GL145985  38.204  31.300   5.792
 3572POPC   GL245986  38.212  31.676   5.802
 3572POPC   C1A45987  38.218  31.422   6.242
 3572POPC   D2A45988  38.525  31.466   6.553
 3572POPC   C3A45989  38.277  31.569   6.915
 3572POPC   C4A45990  38.265  31.355   7.270
 3572POPC   C1B45991  38.574  31.787   6.111
 3572POPC   C2B45992  38.805  31.915   6.505
 3572POPC   C3B45993  38.782  31.740   6.908
 3572POPC   C4B45994  38.574  31.779   7.304
 3573POPC   NC345995  20.257  15.166   5.470
 3573POPC   PO445996  20.881  15.157   5.350
 3573POPC   GL145997  20.759  15.095   5.780
 3573POPC   GL245998  20.427  14.959   5.895
 3573POPC   C1A45999  20.857  14.939   6.190
 3573POPC   D2A46000  20.596  15.071   6.540
 3573POPC   C3A46001  20.733  15.004   6.983
 3573POPC   C4A46002  20.375  14.912   7.260
 3573POPC   C1B46003  20.382  15.375   6.098
 3573POPC   C2B46004  20.471  15.591   6.480
 3573POPC   C3B46005  20.430  15.406   6.908
 3573POPC   C4B46006  20.476  15.431   7.361
 3574POPC   NC346007  28.749  22.780   5.392
 3574POPC   PO446008  29.352  23.030   5.273
 3574POPC   GL146009  29.246  22.923   5.694
 3574POPC   GL246010  29.331  23.244   5.806
 3574POPC   C1A46011  29.026  22.785   6.101
 3574POPC   D2A46012  28.850  22.968   6.499
 3574POPC   C3A46013  28.964  22.841   6.923
 3574POPC   C4A46014  29.076  22.740   7.348
 3574POPC   C1B46015  29.231  23.237   6.259
 3574POPC   C2B46016  29.287  23.169   6.692
 3574POPC   C3B46017  29.368  23.117   7.131
 3574POPC   C4B46018  29.525  23.447   7.384
 3575POPC   NC346019   9.410  37.541   5.456
 3575POPC   PO446020   9.152  38.083   5.386
 3575POPC   GL146021   8.930  37.819   5.766
 3575POPC   GL246022   9.116  37.512   5.899
 3575POPC   C1A46023   8.746  37.629   6.224
 3575POPC   D2A46024   8.831  37.428   6.685
 3575POPC   C3A46025   8.817  37.764   7.009
 3575POPC   C4A46026   9.170  38.065   7.047
 3575POPC   C1B46027   9.264  37.499   6.375
 3575POPC   C2B46028   9.379  37.369   6.824
 3575POPC   C3B46029   9.170  37.436   7.206
 3575POPC   C4B46030   8.730  37.313   7.249
 3576POPC   NC346031  32.053  38.112   5.472
 3576POPC   PO446032  32.279  38.800   5.548
 3576POPC   GL146033  32.468  38.616   5.856
 3576POPC   GL246034  32.499  38.295   5.691
 3576POPC   C1A46035  32.257  38.620   6.242
 3576POPC   D2A46036  32.049  38.384   6.571
 3576POPC   C3A46037  32.065  38.683   6.931
 3576POPC   C4A46038  32.148  38.894   7.361
 3576POPC   C1B46039  32.515  38.194   6.147
 3576POPC   C2B46040  32.593  38.387   6.554
 3576POPC   C3B46041  32.399  38.285   6.949
 3576POPC   C4B46042  32.578  38.156   7.356
 3577POPC   NC346043  40.625  28.859   5.198
 3577POPC   PO446044  40.843  28.208   5.348
 3577POPC   GL146045  40.991  28.179   5.811
 3577POPC   GL246046  40.861  28.443   6.008
 3577POPC   C1A46047  40.862  28.005   6.257
 3577POPC   D2A46048  40.453  28.018   6.509
 3577POPC   C3A46049  40.583  28.146   6.917
 3577POPC   C4A46050  40.901  28.299   7.162
 3577POPC   C1B46051  40.819  28.715   6.343
 3577POPC   C2B46052  40.801  28.587   6.754
 3577POPC   C3B46053  40.574  28.683   7.111
 3577POPC   C4B46054  40.695  28.948   7.437
 3578POPC   NC346055  39.158  38.041   5.434
 3578POPC   PO446056  39.589  37.589   5.338
 3578POPC   GL146057  39.514  37.780   5.722
 3578POPC   GL246058  39.176  37.662   5.788
 3578POPC   C1A46059  39.502  37.719   6.173
 3578POPC   D2A46060  39.282  37.777   6.573
 3578POPC   C3A46061  39.509  37.676   6.961
 3578POPC   C4A46062  39.549  37.635   7.415
 3578POPC   C1B46063  39.023  37.968   6.094
 3578POPC   C2B46064  38.879  38.076   6.526
 3578POPC   C3B46065  38.917  37.876   6.929
 3578POPC   C4B46066  39.122  37.891   7.319
 3579POPC   NC346067  17.999  20.630   5.288
 3579POPC   PO446068  18.650  20.396   5.507
 3579POPC   GL146069  18.306  20.638   5.744
 3579POPC   GL246070  17.940  20.609   5.782
 3579POPC   C1A46071  18.223  20.788   6.174
 3579POPC   D2A46072  18.474  20.824   6.538
 3579POPC   C3A46073  18.300  20.683   6.910
 3579POPC   C4A46074  18.070  20.749   7.238
 3579POPC   C1B46075  17.811  20.451   6.162
 3579POPC   C2B46076  18.003  20.464   6.551
 3579POPC   C3B46077  17.940  20.306   6.949
 3579POPC   C4B46078  18.154  20.247   7.336
 3580POPC   NC346079  18.623  40.922   5.201
 3580POPC   PO446080  17.997  40.862   5.311
 3580POPC   GL146081  18.312  40.989   5.661
 3580POPC   GL246082  18.626  40.787   5.728
 3580POPC   C1A46083  18.317  40.916   6.127
 3580POPC   D2A46084  18.258  40.703   6.546
 3580POPC   C3A46085  18.307  40.940   6.903
 3580POPC   C4A46086  18.173  40.978   7.324
 3580POPC   C1B46087  18.635  40.511   6.111
 3580POPC   C2B46088  18.511  40.271   6.476
 3580POPC   C3B46089  18.585  40.417   6.874
 3580POPC   C4B46090  18.545  40.621   7.250
 3581POPC   NC346091  33.642  42.268   5.422
 3581POPC   PO446092  34.034  42.770   5.404
 3581POPC   GL146093  34.002  42.473   5.770
 3581POPC   GL246094  33.978  42.105   5.793
 3581POPC   C1A46095  33.872  42.384   6.212
 3581POPC   D2A46096  33.957  42.145   6.584
 3581POPC   C3A46097  33.926  42.385   6.986
 3581POPC   C4A46098  34.146  42.487   7.384
 3581POPC   C1B46099  33.699  41.900   6.148
 3581POPC   C2B46100  33.451  42.068   6.499
 3581POPC   C3B46101  33.599  41.974   6.938
 3581POPC   C4B46102  33.409  41.870   7.319
 3582POPC   NC346103  23.277   7.006   5.605
 3582POPC   PO446104  22.838   7.439   5.250
 3582POPC   GL146105  22.988   7.445   5.695
 3582POPC   GL246106  22.676   7.465   5.849
 3582POPC   C1A46107  23.128   7.356   6.152
 3582POPC   D2A46108  23.296   7.495   6.564
 3582POPC   C3A46109  23.146   7.319   6.956
 3582POPC   C4A46110  22.991   7.361   7.369
 3582POPC   C1B46111  22.622   7.514   6.261
 3582POPC   C2B46112  22.758   7.339   6.617
 3582POPC   C3B46113  22.651   7.500   6.993
 3582POPC   C4B46114  22.458   7.419   7.344
 3583POPC   NC346115  36.510  41.818   5.207
 3583POPC   PO446116  37.125  41.517   5.319
 3583POPC   GL146117  36.936  41.767   5.673
 3583POPC   GL246118  36.636  41.987   5.679
 3583POPC   C1A46119  36.967  41.688   6.127
 3583POPC   D2A46120  36.974  41.905   6.536
 3583POPC   C3A46121  37.125  41.718   6.946
 3583POPC   C4A46122  37.015  41.570   7.369
 3583POPC   C1B46123  36.465  41.829   6.067
 3583POPC   C2B46124  36.536  41.616   6.452
 3583POPC   C3B46125  36.598  41.720   6.864
 3583POPC   C4B46126  36.494  41.602   7.267
 3584POPC   NC346127  34.786  20.956   5.460
 3584POPC   PO446128  34.437  20.326   5.408
 3584POPC   GL146129  34.414  20.417   5.825
 3584POPC   GL246130  34.316  20.793   5.825
 3584POPC   C1A46131  34.756  20.457   6.130
 3584POPC   D2A46132  34.738  20.640   6.534
 3584POPC   C3A46133  34.431  20.406   6.782
 3584POPC   C4A46134  34.572  20.343   7.215
 3584POPC   C1B46135  34.283  20.657   6.269
 3584POPC   C2B46136  34.296  20.916   6.644
 3584POPC   C3B46137  34.431  20.840   7.046
 3584POPC   C4B46138  34.117  20.589   7.194
 3585POPC   NC346139  34.609   4.006   5.314
 3585POPC   PO446140  34.529   3.405   5.387
 3585POPC   GL146141  34.626   3.471   5.788
 3585POPC   GL246142  34.459   3.772   5.764
 3585POPC   C1A46143  34.572   3.314   6.207
 3585POPC   D2A46144  34.585   3.530   6.593
 3585POPC   C3A46145  34.609   3.316   6.999
 3585POPC   C4A46146  34.515   3.505   7.423
 3585POPC   C1B46147  34.743   3.800   6.154
 3585POPC   C2B46148  34.836   3.995   6.549
 3585POPC   C3B46149  34.805   3.810   6.960
 3585POPC   C4B46150  34.906   3.838   7.375
 3586POPC   NC346151  19.594  39.754   5.329
 3586POPC   PO446152  20.264  39.580   5.433
 3586POPC   GL146153  19.907  39.764   5.737
 3586POPC   GL246154  20.019  40.046   5.932
 3586POPC   C1A46155  19.530  39.963   6.002
 3586POPC   D2A46156  19.587  40.152   6.436
 3586POPC   C3A46157  19.498  40.342   6.852
 3586POPC   C4A46158  19.758  40.137   7.197
 3586POPC   C1B46159  19.881  39.743   6.298
 3586POPC   C2B46160  19.840  39.727   6.784
 3586POPC   C3B46161  20.102  39.746   7.194
 3586POPC   C4B46162  20.461  39.654   7.556
 3587POPC   NC346163  22.033  13.305   5.150
 3587POPC   PO446164  22.379  13.744   5.423
 3587POPC   GL146165  22.132  13.510   5.734
 3587POPC   GL246166  22.368  13.452   6.008
 3587POPC   C1A46167  21.867  13.316   6.068
 3587POPC   D2A46168  21.918  13.186   6.503
 3587POPC   C3A46169  22.097  13.444   6.811
 3587POPC   C4A46170  22.142  13.600   7.207
 3587POPC   C1B46171  22.204  13.741   6.375
 3587POPC   C2B46172  22.352  13.907   6.818
 3587POPC   C3B46173  22.458  14.004   7.275
 3587POPC   C4B46174  22.653  13.882   7.680
 3588POPC   NC346175  16.293  14.632   5.439
 3588POPC   PO446176  16.905  14.249   5.532
 3588POPC   GL146177  16.507  14.271   5.770
 3588POPC   GL246178  16.455  14.630   5.910
 3588POPC   C1A46179  16.467  14.233   6.252
 3588POPC   D2A46180  16.332  14.220   6.723
 3588POPC   C3A46181  16.679  14.298   7.093
 3588POPC   C4A46182  17.052  14.487   7.341
 3588POPC   C1B46183  16.415  14.755   6.339
 3588POPC   C2B46184  16.521  14.702   6.776
 3588POPC   C3B46185  16.618  14.819   7.179
 3588POPC   C4B46186  16.607  14.601   7.563
 3589POPC   NC346187  11.996  21.139   5.478
 3589POPC   PO446188  12.414  21.554   5.525
 3589POPC   GL146189  12.292  21.349   5.908
 3589POPC   GL246190  11.971  21.158   5.982
 3589POPC   C1A46191  12.275  21.594   6.297
 3589POPC   D2A46192  12.155  21.630   6.730
 3589POPC   C3A46193  12.413  21.527   7.039
 3589POPC   C4A46194  12.257  21.130   7.070
 3589POPC   C1B46195  12.017  21.157   6.435
 3589POPC   C2B46196  11.826  21.238   6.817
 3589POPC   C3B46197  11.761  21.586   7.040
 3589POPC   C4B46198  12.022  21.674   7.316
 3590POPC   NC346199  41.366  37.762   5.497
 3590POPC   PO446200  41.820  37.291   5.568
 3590POPC   GL146201  41.626  37.549   5.896
 3590POPC   GL246202  41.603  37.928   5.926
 3590POPC   C1A46203  41.421  37.473   6.276
 3590POPC   D2A46204  41.394  37.330   6.705
 3590POPC   C3A46205  41.325  37.691   6.996
 3590POPC   C4A46206  41.615  37.796   7.330
 3590POPC   C1B46207  41.342  37.984   6.303
 3590POPC   C2B46208  41.186  38.106   6.729
 3590POPC   C3B46209  41.433  38.258   7.122
 3590POPC   C4B46210  41.482  38.259   7.605
 3591POPC   NC346211  43.827   3.950   5.418
 3591POPC   PO446212  44.186   4.569   5.502
 3591POPC   GL146213  43.886   4.342   5.729
 3591POPC   GL246214  44.133   4.076   5.834
 3591POPC   C1A46215  43.709   4.229   6.113
 3591POPC   D2A46216  43.858   4.309   6.525
 3591POPC   C3A46217  43.669   4.170   6.905
 3591POPC   C4A46218  43.715   4.366   7.304
 3591POPC   C1B46219  44.202   3.988   6.279
 3591POPC   C2B46220  44.101   3.906   6.740
 3591POPC   C3B46221  44.141   4.176   7.127
 3591POPC   C4B46222  44.090   4.151   7.597
 3592POPC   NC346223   1.111  38.201   5.107
 3592POPC   PO446224   1.295  37.643   5.607
 3592POPC   GL146225   1.321  37.776   5.981
 3592POPC   GL246226   0.974  37.805   5.995
 3592POPC   C1A46227   1.284  37.671   6.381
 3592POPC   D2A46228   1.474  37.656   6.720
 3592POPC   C3A46229   1.237  37.379   6.957
 3592POPC   C4A46230   1.392  37.430   7.344
 3592POPC   C1B46231   1.013  38.112   6.294
 3592POPC   C2B46232   1.097  38.037   6.724
 3592POPC   C3B46233   1.010  37.807   7.112
 3592POPC   C4B46234   0.976  37.947   7.562
 3593POPC   NC346235   4.244  28.286   5.058
 3593POPC   PO446236   4.092  27.695   5.385
 3593POPC   GL146237   4.191  27.951   5.783
 3593POPC   GL246238   4.235  28.327   5.731
 3593POPC   C1A46239   4.352  28.076   6.200
 3593POPC   D2A46240   4.124  28.158   6.581
 3593POPC   C3A46241   4.327  28.143   6.975
 3593POPC   C4A46242   4.092  28.404   7.255
 3593POPC   C1B46243   4.418  28.595   6.095
 3593POPC   C2B46244   4.501  28.500   6.520
 3593POPC   C3B46245   4.652  28.530   6.914
 3593POPC   C4B46246   4.659  28.344   7.314
 3594POPC   NC346247  26.482  21.936   5.489
 3594POPC   PO446248  26.887  22.493   5.594
 3594POPC   GL146249  26.797  22.158   5.817
 3594POPC   GL246250  27.093  21.976   5.749
 3594POPC   C1A46251  26.614  21.982   6.180
 3594POPC   D2A46252  26.534  21.730   6.548
 3594POPC   C3A46253  26.661  21.935   6.899
 3594POPC   C4A46254  26.713  22.004   7.315
 3594POPC   C1B46255  27.119  22.099   6.200
 3594POPC   C2B46256  26.881  22.281   6.566
 3594POPC   C3B46257  26.941  22.377   7.020
 3594POPC   C4B46258  27.231  22.294   7.405
 3595POPC   NC346259  12.016   8.385   5.151
 3595POPC   PO446260  12.208   7.773   5.363
 3595POPC   GL146261  12.007   8.107   5.595
 3595POPC   GL246262  11.826   7.882   5.790
 3595POPC   C1A46263  12.097   8.323   6.003
 3595POPC   D2A46264  12.132   8.184   6.442
 3595POPC   C3A46265  12.316   8.277   6.839
 3595POPC   C4A46266  12.425   8.256   7.275
 3595POPC   C1B46267  11.902   7.776   6.216
 3595POPC   C2B46268  12.155   7.683   6.569
 3595POPC   C3B46269  12.084   7.557   6.953
 3595POPC   C4B46270  12.127   7.822   7.272
 3596POPC   NC346271  23.787  24.746   5.602
 3596POPC   PO446272  24.099  25.215   5.225
 3596POPC   GL146273  23.956  25.193   5.762
 3596POPC   GL246274  23.629  25.143   5.870
 3596POPC   C1A46275  23.875  24.993   6.257
 3596POPC   D2A46276  23.853  25.276   6.620
 3596POPC   C3A46277  23.843  25.061   6.993
 3596POPC   C4A46278  23.666  25.094   7.370
 3596POPC   C1B46279  23.458  25.293   6.248
 3596POPC   C2B46280  23.346  25.474   6.628
 3596POPC   C3B46281  23.400  25.357   7.038
 3596POPC   C4B46282  23.320  25.469   7.488
 3597POPC   NC346283   8.956  19.584   5.351
 3597POPC   PO446284   8.733  18.928   5.407
 3597POPC   GL146285   8.881  18.913   5.858
 3597POPC   GL246286   8.817  18.662   6.039
 3597POPC   C1A46287   8.726  19.143   6.275
 3597POPC   D2A46288   8.981  19.319   6.613
 3597POPC   C3A46289   8.699  19.360   6.928
 3597POPC   C4A46290   8.709  19.245   7.332
 3597POPC   C1B46291   9.102  18.839   6.331
 3597POPC   C2B46292   8.967  18.821   6.715
 3597POPC   C3B46293   9.097  19.018   7.078
 3597POPC   C4B46294   8.929  18.792   7.406
 3598POPC   NC346295  26.043   6.185   5.385
 3598POPC   PO446296  26.152   5.459   5.374
 3598POPC   GL146297  26.054   5.718   5.734
 3598POPC   GL246298  26.305   5.962   5.795
 3598POPC   C1A46299  25.978   5.757   6.189
 3598POPC   D2A46300  26.042   5.533   6.581
 3598POPC   C3A46301  25.918   5.710   6.923
 3598POPC   C4A46302  26.032   5.993   7.223
 3598POPC   C1B46303  26.436   5.992   6.219
 3598POPC   C2B46304  26.226   6.025   6.585
 3598POPC   C3B46305  26.418   6.073   6.936
 3598POPC   C4B46306  26.415   6.331   7.266
 3599POPC   NC346307  22.721  34.020   5.461
 3599POPC   PO446308  23.356  33.818   5.370
 3599POPC   GL146309  23.122  33.791   5.760
 3599POPC   GL246310  23.082  34.118   5.852
 3599POPC   C1A46311  22.750  33.798   6.096
 3599POPC   D2A46312  22.577  33.496   6.405
 3599POPC   C3A46313  22.599  33.654   6.845
 3599POPC   C4A46314  22.787  34.003   7.097
 3599POPC   C1B46315  23.235  33.947   6.258
 3599POPC   C2B46316  23.126  33.859   6.703
 3599POPC   C3B46317  23.323  33.950   7.103
 3599POPC   C4B46318  23.185  34.303   7.303
 3600POPC   NC346319   2.683  31.849   5.474
 3600POPC   PO446320   2.581  31.161   5.543
 3600POPC   GL146321   2.537  31.459   5.842
 3600POPC   GL246322   2.212  31.642   5.767
 3600POPC   C1A46323   2.790  31.525   6.222
 3600POPC   D2A46324   3.026  31.637   6.605
 3600POPC   C3A46325   3.076  31.340   6.930
 3600POPC   C4A46326   2.892  31.246   7.318
 3600POPC   C1B46327   2.381  31.852   6.139
 3600POPC   C2B46328   2.554  31.850   6.560
 3600POPC   C3B46329   2.570  31.570   6.923
 3600POPC   C4B46330   2.448  31.729   7.328
 3601POPC   NC346331  31.154  34.965   5.405
 3601POPC   PO446332  31.353  34.371   5.179
 3601POPC   GL146333  31.398  34.539   5.654
 3601POPC   GL246334  31.197  34.427   5.894
 3601POPC   C1A46335  31.650  34.495   6.099
 3601POPC   D2A46336  31.883  34.514   6.528
 3601POPC   C3A46337  31.635  34.560   6.930
 3601POPC   C4A46338  31.721  34.394   7.351
 3601POPC   C1B46339  31.187  34.625   6.314
 3601POPC   C2B46340  31.082  34.448   6.733
 3601POPC   C3B46341  31.214  34.385   7.157
 3601POPC   C4B46342  31.245  34.287   7.578
 3602POPC   NC346343  44.883   3.377   5.479
 3602POPC   PO446344  44.269   3.735   5.431
 3602POPC   GL146345  44.446   3.387   5.755
 3602POPC   GL246346  44.520   3.645   5.876
 3602POPC   C1A46347  44.657   3.214   6.149
 3602POPC   D2A46348  44.867   3.296   6.561
 3602POPC   C3A46349  44.789   3.441   6.987
 3602POPC   C4A46350  44.961   3.282   7.372
 3602POPC   C1B46351  44.697   3.706   6.240
 3602POPC   C2B46352  44.576   3.742   6.622
 3602POPC   C3B46353  44.569   3.924   7.003
 3602POPC   C4B46354  44.349   3.778   7.347
 3603POPC   NC346355  14.500   3.165   5.411
 3603POPC   PO446356  14.096   3.628   5.493
 3603POPC   GL146357  13.987   3.515   5.921
 3603POPC   GL246358  14.252   3.258   5.915
 3603POPC   C1A46359  14.150   3.532   6.351
 3603POPC   D2A46360  14.504   3.666   6.633
 3603POPC   C3A46361  14.300   3.826   6.994
 3603POPC   C4A46362  14.023   3.642   7.259
 3603POPC   C1B46363  14.578   3.232   6.276
 3603POPC   C2B46364  14.482   3.157   6.725
 3603POPC   C3B46365  14.393   3.253   7.187
 3603POPC   C4B46366  14.357   2.904   7.532
 3604POPC   NC346367  25.216  44.201   5.439
 3604POPC   PO446368  25.345  43.614   5.504
 3604POPC   GL146369  25.220  43.894   5.844
 3604POPC   GL246370  25.504  44.167   5.877
 3604POPC   C1A46371  25.060  44.041   6.257
 3604POPC   D2A46372  25.180  44.295   6.633
 3604POPC   C3A46373  25.393  44.125   7.005
 3604POPC   C4A46374  25.096  43.835   7.167
 3604POPC   C1B46375  25.538  43.851   6.223
 3604POPC   C2B46376  25.364  43.783   6.616
 3604POPC   C3B46377  25.517  43.594   6.982
 3604POPC   C4B46378  25.717  43.800   7.306
 3605POPC   NC346379  24.487  19.468   5.246
 3605POPC   PO446380  24.662  18.890   5.378
 3605POPC   GL146381  24.465  19.083   5.759
 3605POPC   GL246382  24.272  19.424   5.756
 3605POPC   C1A46383  24.483  18.892   6.187
 3605POPC   D2A46384  24.290  18.934   6.569
 3605POPC   C3A46385  24.514  18.890   6.935
 3605POPC   C4A46386  24.816  19.183   7.135
 3605POPC   C1B46387  24.485  19.407   6.168
 3605POPC   C2B46388  24.307  19.449   6.550
 3605POPC   C3B46389  24.303  19.335   6.951
 3605POPC   C4B46390  24.515  19.601   7.227
 3606POPC   NC346391  42.023  29.754   5.416
 3606POPC   PO446392  41.618  30.141   5.476
 3606POPC   GL146393  41.439  29.987   5.811
 3606POPC   GL246394  41.554  29.644   5.726
 3606POPC   C1A46395  41.396  30.194   6.209
 3606POPC   D2A46396  41.580  30.253   6.607
 3606POPC   C3A46397  41.345  30.352   6.980
 3606POPC   C4A46398  41.621  30.219   7.270
 3606POPC   C1B46399  41.574  29.697   6.181
 3606POPC   C2B46400  41.363  29.725   6.524
 3606POPC   C3B46401  41.442  29.837   6.933
 3606POPC   C4B46402  41.779  29.744   7.193
 3607POPC   NC346403  20.978  10.336   5.443
 3607POPC   PO446404  20.415  10.454   5.784
 3607POPC   GL146405  20.567  10.855   5.924
 3607POPC   GL246406  20.240  11.019   5.934
 3607POPC   C1A46407  20.843  10.908   6.307
 3607POPC   D2A46408  20.887  10.527   6.568
 3607POPC   C3A46409  20.564  10.361   6.809
 3607POPC   C4A46410  20.688  10.531   7.163
 3607POPC   C1B46411  20.334  10.902   6.388
 3607POPC   C2B46412  20.453  10.872   6.829
 3607POPC   C3B46413  20.208  10.665   7.185
 3607POPC   C4B46414  20.031  10.725   7.621
 3608POPC   NC346415  37.441  42.171   5.305
 3608POPC   PO446416  37.368  42.747   5.665
 3608POPC   GL146417  37.693  42.546   5.925
 3608POPC   GL246418  37.799  42.272   5.725
 3608POPC   C1A46419  37.751  42.461   6.384
 3608POPC   D2A46420  37.439  42.216   6.644
 3608POPC   C3A46421  37.458  42.138   7.071
 3608POPC   C4A46422  37.697  42.401   7.316
 3608POPC   C1B46423  37.747  42.019   6.085
 3608POPC   C2B46424  37.894  41.969   6.492
 3608POPC   C3B46425  37.994  42.201   6.840
 3608POPC   C4B46426  37.930  41.964   7.198
 3609POPC   NC346427   4.367  16.078   5.386
 3609POPC   PO446428   3.950  15.592   5.632
 3609POPC   GL146429   4.237  15.877   5.828
 3609POPC   GL246430   4.608  15.840   5.807
 3609POPC   C1A46431   4.346  16.050   6.196
 3609POPC   D2A46432   4.145  16.048   6.559
 3609POPC   C3A46433   4.130  15.695   6.835
 3609POPC   C4A46434   3.945  16.034   7.057
 3609POPC   C1B46435   4.779  15.753   6.202
 3609POPC   C2B46436   4.622  15.856   6.590
 3609POPC   C3B46437   4.498  16.043   6.964
 3609POPC   C4B46438   4.650  15.810   7.288
 3610POPC   NC346439  20.612   9.407   5.398
 3610POPC   PO446440  20.502  10.114   5.305
 3610POPC   GL146441  20.571   9.945   5.727
 3610POPC   GL246442  20.814   9.667   5.819
 3610POPC   C1A46443  20.462   9.857   6.159
 3610POPC   D2A46444  20.745   9.985   6.480
 3610POPC   C3A46445  20.712   9.843   6.872
 3610POPC   C4A46446  20.534  10.040   7.229
 3610POPC   C1B46447  21.078   9.477   6.160
 3610POPC   C2B46448  20.932   9.287   6.525
 3610POPC   C3B46449  20.827   9.286   6.957
 3610POPC   C4B46450  20.637   9.530   7.256
 3611POPC   NC346451   9.081   7.729   5.478
 3611POPC   PO446452   8.719   7.333   5.233
 3611POPC   GL146453   8.738   7.413   5.691
 3611POPC   GL246454   8.945   7.135   5.721
 3611POPC   C1A46455   8.968   7.523   6.118
 3611POPC   D2A46456   9.180   7.808   6.457
 3611POPC   C3A46457   9.069   7.696   6.891
 3611POPC   C4A46458   8.906   7.531   7.274
 3611POPC   C1B46459   8.651   7.064   6.065
 3611POPC   C2B46460   8.611   7.051   6.519
 3611POPC   C3B46461   8.866   7.178   6.883
 3611POPC   C4B46462   8.886   7.007   7.301
 3612POPC   NC346463   1.099  15.524   5.306
 3612POPC   PO446464   1.277  14.823   5.222
 3612POPC   GL146465   1.241  15.050   5.645
 3612POPC   GL246466   1.161  15.413   5.790
 3612POPC   C1A46467   1.232  15.012   6.105
 3612POPC   D2A46468   1.067  14.912   6.500
 3612POPC   C3A46469   1.341  14.844   6.862
 3612POPC   C4A46470   1.280  14.984   7.316
 3612POPC   C1B46471   1.400  15.484   6.188
 3612POPC   C2B46472   1.449  15.273   6.587
 3612POPC   C3B46473   1.351  15.392   7.013
 3612POPC   C4B46474   1.539  15.499   7.398
 3613POPC   NC346475   9.279  44.812   5.335
 3613POPC   PO446476   8.739  44.460   5.449
 3613POPC   GL146477   8.958  44.753   5.724
 3613POPC   GL246478   8.716  44.720   5.939
 3613POPC   C1A46479   9.151  44.954   6.122
 3613POPC   D2A46480   9.005  44.772   6.531
 3613POPC   C3A46481   8.941  44.938   6.957
 3613POPC   C4A46482   9.068  44.769   7.348
 3613POPC   C1B46483   8.489  44.632   6.280
 3613POPC   C2B46484   8.629  44.450   6.662
 3613POPC   C3B46485   8.823  44.438   7.040
 3613POPC   C4B46486   8.571  44.712   7.290
 3614POPC   NC346487  43.245  18.411   5.395
 3614POPC   PO446488  42.607  18.238   5.501
 3614POPC   GL146489  42.927  18.321   5.805
 3614POPC   GL246490  43.168  18.054   5.796
 3614POPC   C1A46491  42.945  18.418   6.248
 3614POPC   D2A46492  42.909  18.602   6.664
 3614POPC   C3A46493  42.895  18.351   7.047
 3614POPC   C4A46494  43.115  18.522   7.458
 3614POPC   C1B46495  43.291  18.050   6.240
 3614POPC   C2B46496  43.176  18.059   6.705
 3614POPC   C3B46497  43.372  18.196   7.110
 3614POPC   C4B46498  43.451  18.092   7.550
 3615POPC   NC346499  33.026  23.715   5.357
 3615POPC   PO446500  32.465  23.988   5.655
 3615POPC   GL146501  32.889  23.867   5.844
 3615POPC   GL246502  33.130  23.545   5.812
 3615POPC   C1A46503  33.030  23.784   6.269
 3615POPC   D2A46504  32.918  23.578   6.636
 3615POPC   C3A46505  32.958  23.856   6.984
 3615POPC   C4A46506  32.791  23.987   7.376
 3615POPC   C1B46507  33.368  23.429   6.166
 3615POPC   C2B46508  33.358  23.239   6.570
 3615POPC   C3B46509  33.274  23.417   6.952
 3615POPC   C4B46510  33.193  23.564   7.342
 3616POPC   NC346511  18.802  19.194   5.451
 3616POPC   PO446512  19.300  18.894   5.153
 3616POPC   GL146513  19.259  18.915   5.632
 3616POPC   GL246514  19.184  19.251   5.810
 3616POPC   C1A46515  19.120  18.823   6.084
 3616POPC   D2A46516  19.232  18.896   6.532
 3616POPC   C3A46517  19.011  18.809   6.905
 3616POPC   C4A46518  18.811  19.115   7.158
 3616POPC   C1B46519  19.340  19.350   6.236
 3616POPC   C2B46520  19.548  19.425   6.635
 3616POPC   C3B46521  19.444  19.409   7.102
 3616POPC   C4B46522  19.294  19.323   7.525
 3617POPC   NC346523  39.057  28.244   5.419
 3617POPC   PO446524  39.487  28.652   5.591
 3617POPC   GL146525  39.272  28.542   5.910
 3617POPC   GL246526  39.266  28.231   5.890
 3617POPC   C1A46527  39.512  28.468   6.271
 3617POPC   D2A46528  39.493  28.201   6.600
 3617POPC   C3A46529  39.142  28.251   6.827
 3617POPC   C4A46530  39.107  28.574   7.140
 3617POPC   C1B46531  39.454  27.948   6.144
 3617POPC   C2B46532  39.298  27.740   6.507
 3617POPC   C3B46533  39.347  27.804   6.942
 3617POPC   C4B46534  39.041  27.980   7.242
 3618POPC   NC346535   0.910  16.437   5.382
 3618POPC   PO446536   1.666  16.737   5.358
 3618POPC   GL146537   1.610  16.679   5.788
 3618POPC   GL246538   1.372  16.416   5.657
 3618POPC   C1A46539   1.327  16.830   6.140
 3618POPC   D2A46540   1.008  16.858   6.440
 3618POPC   C3A46541   1.129  16.751   6.836
 3618POPC   C4A46542   1.070  16.910   7.243
 3618POPC   C1B46543   1.394  16.319   6.087
 3618POPC   C2B46544   1.543  16.506   6.462
 3618POPC   C3B46545   1.527  16.389   6.862
 3618POPC   C4B46546   1.414  16.527   7.230
 3619POPC   NC346547  16.226  21.670   5.424
 3619POPC   PO446548  15.810  21.256   5.427
 3619POPC   GL146549  16.024  21.346   5.802
 3619POPC   GL246550  15.914  21.686   5.842
 3619POPC   C1A46551  16.297  21.203   6.157
 3619POPC   D2A46552  16.438  21.087   6.584
 3619POPC   C3A46553  16.107  21.236   6.889
 3619POPC   C4A46554  15.918  21.239   7.315
 3619POPC   C1B46555  16.122  21.725   6.226
 3619POPC   C2B46556  15.928  21.672   6.620
 3619POPC   C3B46557  16.074  21.805   6.990
 3619POPC   C4B46558  16.305  21.586   7.223
 3620POPC   NC346559  31.152  17.711   5.357
 3620POPC   PO446560  31.713  17.246   5.416
 3620POPC   GL146561  31.520  17.307   5.800
 3620POPC   GL246562  31.455  17.672   5.799
 3620POPC   C1A46563  31.541  17.309   6.260
 3620POPC   D2A46564  31.415  17.509   6.654
 3620POPC   C3A46565  31.337  17.230   7.005
 3620POPC   C4A46566  31.668  17.247   7.316
 3620POPC   C1B46567  31.214  17.713   6.202
 3620POPC   C2B46568  31.215  17.988   6.579
 3620POPC   C3B46569  31.529  17.975   6.881
 3620POPC   C4B46570  31.433  17.698   7.196
 3621POPC   NC346571  21.929  10.387   5.687
 3621POPC   PO446572  21.322  10.680   5.389
 3621POPC   GL146573  21.422  10.519   5.808
 3621POPC   GL246574  21.692  10.634   6.054
 3621POPC   C1A46575  21.238  10.478   6.206
 3621POPC   D2A46576  21.405  10.641   6.601
 3621POPC   C3A46577  21.204  10.505   6.991
 3621POPC   C4A46578  21.098  10.724   7.383
 3621POPC   C1B46579  21.681  10.199   6.272
 3621POPC   C2B46580  21.554  10.137   6.701
 3621POPC   C3B46581  21.727  10.447   6.994
 3621POPC   C4B46582  21.601  10.617   7.386
 3622POPC   NC346583  20.961   6.674   5.340
 3622POPC   PO446584  21.557   6.557   5.190
 3622POPC   GL146585  21.521   6.493   5.629
 3622POPC   GL246586  21.168   6.422   5.731
 3622POPC   C1A46587  21.495   6.676   6.046
 3622POPC   D2A46588  21.249   6.764   6.414
 3622POPC   C3A46589  21.510   6.660   6.760
 3622POPC   C4A46590  21.443   6.730   7.171
 3622POPC   C1B46591  20.973   6.433   6.108
 3622POPC   C2B46592  20.947   6.342   6.531
 3622POPC   C3B46593  21.010   6.564   6.893
 3622POPC   C4B46594  21.061   6.403   7.297
 3623POPC   NC346595  16.362   2.007   5.514
 3623POPC   PO446596  17.009   2.041   5.330
 3623POPC   GL146597  16.892   1.896   5.739
 3623POPC   GL246598  16.742   2.223   5.824
 3623POPC   C1A46599  16.723   1.861   6.169
 3623POPC   D2A46600  16.689   2.064   6.556
 3623POPC   C3A46601  16.786   1.854   6.939
 3623POPC   C4A46602  17.097   2.065   7.177
 3623POPC   C1B46603  16.374   2.257   6.150
 3623POPC   C2B46604  16.218   2.233   6.602
 3623POPC   C3B46605  16.436   2.229   7.023
 3623POPC   C4B46606  16.542   2.445   7.453
 3624POPC   NC346607   2.011  34.371   5.460
 3624POPC   PO446608   1.831  35.014   5.495
 3624POPC   GL146609   1.942  34.730   5.859
 3624POPC   GL246610   1.846  34.364   5.922
 3624POPC   C1A46611   2.062  34.891   6.271
 3624POPC   D2A46612   2.116  34.733   6.662
 3624POPC   C3A46613   2.232  34.863   7.054
 3624POPC   C4A46614   1.911  34.711   7.314
 3624POPC   C1B46615   2.090  34.383   6.259
 3624POPC   C2B46616   2.191  34.227   6.606
 3624POPC   C3B46617   2.030  34.334   6.976
 3624POPC   C4B46618   2.030  34.187   7.362
 3625POPC   NC346619   2.905  28.939   5.744
 3625POPC   PO446620   2.454  29.240   5.265
 3625POPC   GL146621   2.541  29.362   5.749
 3625POPC   GL246622   2.871  29.439   5.830
 3625POPC   C1A46623   2.611  29.240   6.244
 3625POPC   D2A46624   2.780  28.968   6.624
 3625POPC   C3A46625   2.756  29.107   7.087
 3625POPC   C4A46626   2.560  29.228   7.525
 3625POPC   C1B46627   3.070  29.459   6.244
 3625POPC   C2B46628   2.892  29.503   6.666
 3625POPC   C3B46629   3.108  29.560   7.047
 3625POPC   C4B46630   3.048  29.348   7.426
 3626POPC   NC346631   3.761  31.445   5.418
 3626POPC   PO446632   3.053  31.581   5.428
 3626POPC   GL146633   3.344  31.368   5.749
 3626POPC   GL246634   3.726  31.346   5.903
 3626POPC   C1A46635   3.338  31.494   6.198
 3626POPC   D2A46636   3.481  31.365   6.600
 3626POPC   C3A46637   3.463  31.697   6.921
 3626POPC   C4A46638   3.287  31.562   7.332
 3626POPC   C1B46639   3.908  31.206   6.306
 3626POPC   C2B46640   3.939  31.209   6.753
 3626POPC   C3B46641   3.678  31.284   7.123
 3626POPC   C4B46642   3.643  31.293   7.574
 3627POPC   NC346643  32.767  11.111   5.428
 3627POPC   PO446644  33.424  11.375   5.347
 3627POPC   GL146645  33.273  11.174   5.751
 3627POPC   GL246646  32.952  11.068   5.907
 3627POPC   C1A46647  33.318  11.280   6.198
 3627POPC   D2A46648  33.159  11.569   6.481
 3627POPC   C3A46649  33.025  11.351   6.823
 3627POPC   C4A46650  33.257  11.448   7.197
 3627POPC   C1B46651  32.860  11.529   6.047
 3627POPC   C2B46652  32.716  11.798   6.411
 3627POPC   C3B46653  32.637  11.725   6.849
 3627POPC   C4B46654  32.742  11.496   7.211
 3628POPC   NC346655  34.500  42.760   5.566
 3628POPC   PO446656  34.191  43.315   5.348
 3628POPC   GL146657  34.408  43.213   5.777
 3628POPC   GL246658  34.255  42.886   5.970
 3628POPC   C1A46659  34.618  43.154   6.207
 3628POPC   D2A46660  34.541  43.009   6.648
 3628POPC   C3A46661  34.806  43.144   7.007
 3628POPC   C4A46662  34.785  43.104   7.494
 3628POPC   C1B46663  34.104  43.042   6.344
 3628POPC   C2B46664  33.990  43.155   6.758
 3628POPC   C3B46665  34.286  43.104   7.076
 3628POPC   C4B46666  34.516  42.779   7.202
 3629POPC   NC346667  15.436   8.390   5.402
 3629POPC   PO446668  15.018   7.940   5.372
 3629POPC   GL146669  15.332   8.023   5.737
 3629POPC   GL246670  15.720   8.047   5.630
 3629POPC   C1A46671  15.203   8.099   6.189
 3629POPC   D2A46672  14.834   8.005   6.484
 3629POPC   C3A46673  14.973   8.074   6.924
 3629POPC   C4A46674  14.855   8.225   7.306
 3629POPC   C1B46675  15.787   8.217   6.031
 3629POPC   C2B46676  15.673   8.153   6.437
 3629POPC   C3B46677  15.636   8.329   6.817
 3629POPC   C4B46678  15.430   8.211   7.176
 3630POPC   NC346679   1.620  11.207   5.505
 3630POPC   PO446680   2.266  11.290   5.579
 3630POPC   GL146681   2.156  11.378   5.996
 3630POPC   GL246682   1.862  11.128   5.970
 3630POPC   C1A46683   1.981  11.305   6.439
 3630POPC   D2A46684   1.761  11.021   6.747
 3630POPC   C3A46685   1.892  11.208   7.126
 3630POPC   C4A46686   2.211  11.530   7.091
 3630POPC   C1B46687   1.700  11.565   6.062
 3630POPC   C2B46688   1.582  11.731   6.426
 3630POPC   C3B46689   1.712  11.624   6.826
 3630POPC   C4B46690   1.745  11.727   7.243
 3631POPC   NC346691  44.802   5.946   5.441
 3631POPC   PO446692  44.899   5.269   5.466
 3631POPC   GL146693  44.841   5.630   5.852
 3631POPC   GL246694  44.517   5.885   5.875
 3631POPC   C1A46695  44.877   5.741   6.347
 3631POPC   D2A46696   0.059   6.041   6.687
 3631POPC   C3A46697  44.918   5.959   7.132
 3631POPC   C4A46698  44.502   5.836   7.285
 3631POPC   C1B46699  44.555   6.134   6.292
 3631POPC   C2B46700  44.532   6.052   6.759
 3631POPC   C3B46701  44.556   6.325   7.134
 3631POPC   C4B46702  44.713   6.239   7.544
 3632POPC   NC346703  24.872  20.374   5.073
 3632POPC   PO446704  24.400  20.672   5.434
 3632POPC   GL146705  24.459  20.740   5.841
 3632POPC   GL246706  24.462  20.397   5.880
 3632POPC   C1A46707  24.524  20.705   6.264
 3632POPC   D2A46708  24.632  20.429   6.612
 3632POPC   C3A46709  24.530  20.693   6.955
 3632POPC   C4A46710  24.365  20.860   7.309
 3632POPC   C1B46711  24.296  20.255   6.241
 3632POPC   C2B46712  24.376  19.978   6.588
 3632POPC   C3B46713  24.287  20.214   6.958
 3632POPC   C4B46714  24.220  20.389   7.361
 3633POPC   NC346715  28.734  29.479   5.474
 3633POPC   PO446716  28.156  29.022   5.604
 3633POPC   GL146717  28.316  29.293   5.911
 3633POPC   GL246718  28.682  29.217   5.948
 3633POPC   C1A46719  28.391  29.222   6.357
 3633POPC   D2A46720  28.392  28.825   6.553
 3633POPC   C3A46721  28.427  28.940   6.947
 3633POPC   C4A46722  28.231  29.285   7.138
 3633POPC   C1B46723  28.836  28.970   6.339
 3633POPC   C2B46724  28.909  29.059   6.750
 3633POPC   C3B46725  28.729  29.377   7.016
 3633POPC   C4B46726  28.676  29.118   7.343
 3634POPC   NC346727  33.329  44.377   5.675
 3634POPC   PO446728  33.683  44.907   5.389
 3634POPC   GL146729  33.942  44.789   5.764
 3634POPC   GL246730  33.651  44.684   5.934
 3634POPC   C1A46731  34.126  44.782   6.210
 3634POPC   D2A46732  34.269   0.010   6.607
 3634POPC   C3A46733  34.178  44.788   6.977
 3634POPC   C4A46734  33.926  44.757   7.304
 3634POPC   C1B46735  33.720  44.442   6.290
 3634POPC   C2B46736  33.773  44.604   6.699
 3634POPC   C3B46737  33.528  44.532   7.078
 3634POPC   C4B46738  33.468  44.554   7.509
 3635POPC   NC346739  10.064  39.826   5.089
 3635POPC   PO446740   9.898  40.427   5.427
 3635POPC   GL146741   9.846  40.329   5.848
 3635POPC   GL246742   9.459  40.342   5.797
 3635POPC   C1A46743  10.013  40.027   6.143
 3635POPC   D2A46744   9.939  40.078   6.554
 3635POPC   C3A46745  10.061  39.757   6.796
 3635POPC   C4A46746   9.967  39.657   7.218
 3635POPC   C1B46747   9.507  40.078   6.178
 3635POPC   C2B46748   9.429  40.014   6.619
 3635POPC   C3B46749   9.634  40.019   7.004
 3635POPC   C4B46750   9.426  39.802   7.300
 3636POPC   NC346751  36.335  34.827   5.573
 3636POPC   PO446752  35.929  34.412   5.322
 3636POPC   GL146753  36.039  34.440   5.808
 3636POPC   GL246754  36.324  34.622   6.033
 3636POPC   C1A46755  35.937  34.403   6.265
 3636POPC   D2A46756  36.274  34.458   6.554
 3636POPC   C3A46757  36.348  34.289   6.945
 3636POPC   C4A46758  36.422  34.555   7.290
 3636POPC   C1B46759  36.126  34.894   6.352
 3636POPC   C2B46760  35.808  34.751   6.656
 3636POPC   C3B46761  35.916  34.609   7.077
 3636POPC   C4B46762  36.076  34.912   7.376
 3637POPC   NC346763  39.618  34.718   5.376
 3637POPC   PO446764  39.084  34.318   5.381
 3637POPC   GL146765  39.287  34.385   5.788
 3637POPC   GL246766  39.252  34.713   5.792
 3637POPC   C1A46767  39.460  34.541   6.218
 3637POPC   D2A46768  39.649  34.569   6.620
 3637POPC   C3A46769  39.378  34.604   6.948
 3637POPC   C4A46770  39.430  34.470   7.327
 3637POPC   C1B46771  39.185  34.950   6.182
 3637POPC   C2B46772  39.347  34.999   6.590
 3637POPC   C3B46773  39.115  35.036   6.967
 3637POPC   C4B46774  38.975  34.825   7.322
 3638POPC   NC346775  28.988  44.035   5.367
 3638POPC   PO446776  29.563  43.710   5.437
 3638POPC   GL146777  29.454  44.023   5.791
 3638POPC   GL246778  29.128  44.178   5.829
 3638POPC   C1A46779  29.372  44.128   6.263
 3638POPC   D2A46780  29.020  44.224   6.579
 3638POPC   C3A46781  29.124  44.141   7.013
 3638POPC   C4A46782  29.479  43.883   7.104
 3638POPC   C1B46783  29.029  43.795   6.043
 3638POPC   C2B46784  28.888  43.703   6.454
 3638POPC   C3B46785  28.994  43.570   6.858
 3638POPC   C4B46786  29.020  43.711   7.308
 3639POPC   NC346787  20.103  16.085   5.476
 3639POPC   PO446788  19.559  15.726   5.258
 3639POPC   GL146789  19.800  15.686   5.648
 3639POPC   GL246790  19.677  16.020   5.765
 3639POPC   C1A46791  19.958  15.764   6.098
 3639POPC   D2A46792  19.852  15.806   6.562
 3639POPC   C3A46793  20.091  15.783   6.971
 3639POPC   C4A46794  19.995  15.766   7.415
 3639POPC   C1B46795  19.617  16.229   6.178
 3639POPC   C2B46796  19.595  16.253   6.654
 3639POPC   C3B46797  19.679  16.093   7.084
 3639POPC   C4B46798  19.709  16.157   7.540
 3640POPC   NC346799  42.569  18.679   5.646
 3640POPC   PO446800  42.021  19.047   5.542
 3640POPC   GL146801  42.199  18.971   5.948
 3640POPC   GL246802  42.549  19.064   6.004
 3640POPC   C1A46803  42.037  18.939   6.368
 3640POPC   D2A46804  42.031  19.153   6.707
 3640POPC   C3A46805  42.392  19.352   6.829
 3640POPC   C4A46806  42.399  19.163   7.190
 3640POPC   C1B46807  42.508  18.758   6.346
 3640POPC   C2B46808  42.487  18.838   6.794
 3640POPC   C3B46809  42.745  18.803   7.202
 3640POPC   C4B46810  42.673  18.721   7.658
 3641POPC   NC346811  14.269   0.645   5.166
 3641POPC   PO446812  14.225   1.330   5.338
 3641POPC   GL146813  14.329   1.251   5.781
 3641POPC   GL246814  14.551   1.521   5.862
 3641POPC   C1A46815  14.225   0.994   6.176
 3641POPC   D2A46816  14.101   1.136   6.597
 3641POPC   C3A46817  14.233   0.894   6.941
 3641POPC   C4A46818  14.452   0.861   7.319
 3641POPC   C1B46819  14.365   1.471   6.267
 3641POPC   C2B46820  14.468   1.487   6.707
 3641POPC   C3B46821  14.392   1.415   7.143
 3641POPC   C4B46822  14.265   1.688   7.498
 3642POPC   NC346823  40.802  29.333   5.426
 3642POPC   PO446824  40.699  28.723   5.633
 3642POPC   GL146825  40.796  29.101   5.892
 3642POPC   GL246826  41.082  29.364   5.886
 3642POPC   C1A46827  40.775  29.307   6.312
 3642POPC   D2A46828  40.809  29.110   6.714
 3642POPC   C3A46829  40.808  29.328   7.110
 3642POPC   C4A46830  40.686  29.445   7.554
 3642POPC   C1B46831  41.206  29.031   6.214
 3642POPC   C2B46832  41.241  28.827   6.633
 3642POPC   C3B46833  41.096  28.889   7.085
 3642POPC   C4B46834  41.146  29.163   7.483
 3643POPC   NC346835  33.500  24.533   5.427
 3643POPC   PO446836  34.157  24.227   5.521
 3643POPC   GL146837  34.015  24.469   5.853
 3643POPC   GL246838  33.656  24.458   5.904
 3643POPC   C1A46839  34.013  24.300   6.270
 3643POPC   D2A46840  33.850  24.092   6.646
 3643POPC   C3A46841  34.101  24.279   7.004
 3643POPC   C4A46842  34.039  24.697   7.172
 3643POPC   C1B46843  33.556  24.474   6.339
 3643POPC   C2B46844  33.778  24.589   6.678
 3643POPC   C3B46845  33.605  24.399   7.022
 3643POPC   C4B46846  33.459  24.519   7.373
 3644POPC   NC346847   0.471   4.059   5.698
 3644POPC   PO446848   0.516   3.316   5.488
 3644POPC   GL146849   0.365   3.569   5.785
 3644POPC   GL246850   0.713   3.652   5.860
 3644POPC   C1A46851   0.159   3.465   6.168
 3644POPC   D2A46852   0.363   3.262   6.531
 3644POPC   C3A46853   0.299   3.465   6.895
 3644POPC   C4A46854   0.430   3.677   7.223
 3644POPC   C1B46855   0.566   3.747   6.287
 3644POPC   C2B46856   0.773   3.567   6.622
 3644POPC   C3B46857   0.901   3.711   7.026
 3644POPC   C4B46858   0.837   3.902   7.447
 3645POPC   NC346859  21.466   9.464   5.438
 3645POPC   PO446860  21.432  10.142   5.465
 3645POPC   GL146861  21.244  10.003   5.831
 3645POPC   GL246862  21.495   9.756   5.857
 3645POPC   C1A46863  21.214   9.965   6.288
 3645POPC   D2A46864  21.219   9.705   6.666
 3645POPC   C3A46865  21.192   9.948   7.039
 3645POPC   C4A46866  21.310  10.192   7.376
 3645POPC   C1B46867  21.607   9.650   6.248
 3645POPC   C2B46868  21.760   9.658   6.672
 3645POPC   C3B46869  21.592   9.612   7.076
 3645POPC   C4B46870  21.200   9.470   7.259
 3646POPC   NC346871  10.638   0.497   5.365
 3646POPC   PO446872  10.995   0.032   5.673
 3646POPC   GL146873  10.679   0.263   5.880
 3646POPC   GL246874  10.411   0.500   5.815
 3646POPC   C1A46875  10.637   0.193   6.307
 3646POPC   D2A46876  10.961   0.116   6.587
 3646POPC   C3A46877  10.772  44.999   6.946
 3646POPC   C4A46878  10.865   0.230   7.309
 3646POPC   C1B46879  10.546   0.683   6.175
 3646POPC   C2B46880  10.380   0.610   6.572
 3646POPC   C3B46881  10.505   0.450   6.955
 3646POPC   C4B46882  10.270   0.423   7.300
 3647POPC   NC346883  22.896  44.909   5.616
 3647POPC   PO446884  23.144  44.312   5.534
 3647POPC   GL146885  23.026  44.465   5.902
 3647POPC   GL246886  22.694  44.341   5.873
 3647POPC   C1A46887  23.173  44.739   6.249
 3647POPC   D2A46888  23.237   0.000   6.627
 3647POPC   C3A46889  22.951  44.841   6.910
 3647POPC   C4A46890  23.002  44.502   7.151
 3647POPC   C1B46891  22.736  44.380   6.323
 3647POPC   C2B46892  22.727  44.303   6.757
 3647POPC   C3B46893  22.639  44.181   7.183
 3647POPC   C4B46894  22.529  44.582   7.342
 3648POPC   NC346895  12.973   9.913   5.325
 3648POPC   PO446896  13.082   9.311   5.293
 3648POPC   GL146897  12.851   9.544   5.653
 3648POPC   GL246898  13.122   9.693   5.799
 3648POPC   C1A46899  12.748   9.759   6.115
 3648POPC   D2A46900  12.621   9.867   6.551
 3648POPC   C3A46901  12.829   9.838   6.945
 3648POPC   C4A46902  12.881  10.045   7.329
 3648POPC   C1B46903  13.140   9.444   6.214
 3648POPC   C2B46904  12.949   9.472   6.592
 3648POPC   C3B46905  13.025   9.322   6.982
 3648POPC   C4B46906  13.356   9.373   7.251
 3649POPC   NC346907   8.397  27.187   5.133
 3649POPC   PO446908   7.987  27.740   5.346
 3649POPC   GL146909   8.163  27.446   5.692
 3649POPC   GL246910   8.489  27.218   5.673
 3649POPC   C1A46911   8.068  27.635   6.108
 3649POPC   D2A46912   8.037  27.928   6.465
 3649POPC   C3A46913   7.915  27.795   6.895
 3649POPC   C4A46914   8.224  27.720   7.221
 3649POPC   C1B46915   8.317  27.182   6.116
 3649POPC   C2B46916   8.155  27.358   6.522
 3649POPC   C3B46917   8.178  27.286   6.956
 3649POPC   C4B46918   7.860  27.354   7.263
 3650POPC   NC346919  11.539  26.227   5.388
 3650POPC   PO446920  11.035  25.798   5.544
 3650POPC   GL146921  11.179  26.183   5.831
 3650POPC   GL246922  11.528  26.359   5.896
 3650POPC   C1A46923  11.075  26.313   6.253
 3650POPC   D2A46924  11.150  26.149   6.684
 3650POPC   C3A46925  11.200  26.139   7.130
 3650POPC   C4A46926  11.227  25.694   7.197
 3650POPC   C1B46927  11.583  26.365   6.364
 3650POPC   C2B46928  11.568  26.417   6.824
 3650POPC   C3B46929  11.692  26.301   7.256
 3650POPC   C4B46930  11.504  26.361   7.696
 3651POPC   NC346931   8.797   0.668   5.528
 3651POPC   PO446932   9.369   0.272   5.296
 3651POPC   GL146933   9.164   0.331   5.743
 3651POPC   GL246934   8.791   0.232   5.823
 3651POPC   C1A46935   9.059   0.485   6.193
 3651POPC   D2A46936   9.022   0.292   6.603
 3651POPC   C3A46937   8.862   0.470   6.968
 3651POPC   C4A46938   9.035   0.772   7.193
 3651POPC   C1B46939   8.685   0.115   6.265
 3651POPC   C2B46940   8.492  44.987   6.654
 3651POPC   C3B46941   8.470   0.141   7.054
 3651POPC   C4B46942   8.771   0.162   7.409
 3652POPC   NC346943  28.089   4.438   4.952
 3652POPC   PO446944  28.378   4.321   5.617
 3652POPC   GL146945  28.664   4.402   5.906
 3652POPC   GL246946  28.837   4.111   5.739
 3652POPC   C1A46947  28.486   4.372   6.313
 3652POPC   D2A46948  28.370   4.594   6.638
 3652POPC   C3A46949  28.245   4.431   6.995
 3652POPC   C4A46950  28.434   4.614   7.332
 3652POPC   C1B46951  28.649   3.933   6.115
 3652POPC   C2B46952  28.756   4.008   6.535
 3652POPC   C3B46953  28.598   3.979   6.911
 3652POPC   C4B46954  28.526   4.125   7.289
 3653POPC   NC346955  14.581   8.094   5.429
 3653POPC   PO446956  14.660   8.756   5.536
 3653POPC   GL146957  14.488   8.441   5.844
 3653POPC   GL246958  14.312   8.109   5.915
 3653POPC   C1A46959  14.544   8.432   6.283
 3653POPC   D2A46960  14.534   8.730   6.610
 3653POPC   C3A46961  14.610   8.556   7.012
 3653POPC   C4A46962  14.403   8.462   7.424
 3653POPC   C1B46963  14.297   7.991   6.346
 3653POPC   C2B46964  14.377   8.180   6.753
 3653POPC   C3B46965  14.301   8.025   7.183
 3653POPC   C4B46966  14.225   7.644   7.445
 3654POPC   NC346967   8.794  28.763   5.476
 3654POPC   PO446968   8.842  28.048   5.579
 3654POPC   GL146969   8.906  28.263   5.938
 3654POPC   GL246970   8.925  28.605   5.930
 3654POPC   C1A46971   9.071  28.299   6.320
 3654POPC   D2A46972   8.901  28.076   6.626
 3654POPC   C3A46973   9.088  28.161   6.994
 3654POPC   C4A46974   8.888  28.164   7.370
 3654POPC   C1B46975   8.799  28.803   6.272
 3654POPC   C2B46976   8.805  28.608   6.631
 3654POPC   C3B46977   8.686  28.460   6.988
 3654POPC   C4B46978   9.031  28.640   7.188
 3655POPC   NC346979  31.052   6.030   5.406
 3655POPC   PO446980  31.685   5.714   5.419
 3655POPC   GL146981  31.575   5.711   5.851
 3655POPC   GL246982  31.592   6.078   5.836
 3655POPC   C1A46983  31.512   5.693   6.328
 3655POPC   D2A46984  31.777   5.791   6.696
 3655POPC   C3A46985  31.542   5.664   7.025
 3655POPC   C4A46986  31.208   5.404   7.166
 3655POPC   C1B46987  31.790   6.111   6.246
 3655POPC   C2B46988  31.574   6.244   6.607
 3655POPC   C3B46989  31.346   6.143   6.933
 3655POPC   C4B46990  31.579   6.112   7.272
 3656POPC   NC346991  24.950  22.646   5.377
 3656POPC   PO446992  25.571  22.960   5.365
 3656POPC   GL146993  25.246  22.970   5.704
 3656POPC   GL246994  25.202  22.629   5.835
 3656POPC   C1A46995  25.324  23.003   6.153
 3656POPC   D2A46996  25.641  22.850   6.429
 3656POPC   C3A46997  25.535  22.843   6.852
 3656POPC   C4A46998  25.241  23.029   7.128
 3656POPC   C1B46999  24.925  22.698   6.237
 3656POPC   C2B47000  25.055  22.787   6.665
 3656POPC   C3B47001  25.006  22.599   7.114
 3656POPC   C4B47002  25.048  22.674   7.579
 3657POPC   NC347003  15.690  31.848   5.513
 3657POPC   PO447004  16.174  31.312   5.555
 3657POPC   GL147005  16.014  31.581   5.835
 3657POPC   GL247006  15.685  31.444   5.813
 3657POPC   C1A47007  15.861  31.706   6.210
 3657POPC   D2A47008  15.619  31.659   6.548
 3657POPC   C3A47009  15.866  31.744   6.840
 3657POPC   C4A47010  15.921  31.680   7.214
 3657POPC   C1B47011  15.661  31.243   6.198
 3657POPC   C2B47012  15.901  31.237   6.563
 3657POPC   C3B47013  15.710  31.271   6.961
 3657POPC   C4B47014  15.618  31.031   7.317
 3658POPC   NC347015  44.566  43.520   5.167
 3658POPC   PO447016  44.902  43.926   5.657
 3658POPC   GL147017  44.760  43.926   6.041
 3658POPC   GL247018  44.458  44.076   5.897
 3658POPC   C1A47019  44.632  44.186   6.365
 3658POPC   D2A47020  44.473  44.117   6.752
 3658POPC   C3A47021  44.656  44.047   7.171
 3658POPC   C4A47022  44.851  43.746   7.488
 3658POPC   C1B47023  44.276  43.825   6.222
 3658POPC   C2B47024  44.183  43.541   6.544
 3658POPC   C3B47025  44.249  43.702   6.939
 3658POPC   C4B47026  44.409  43.610   7.305
 3659POPC   NC347027  41.402  25.573   5.416
 3659POPC   PO447028  41.951  25.180   5.551
 3659POPC   GL147029  41.568  25.239   5.776
 3659POPC   GL247030  41.448  24.994   5.958
 3659POPC   C1A47031  41.558  25.474   6.183
 3659POPC   D2A47032  41.542  25.517   6.658
 3659POPC   C3A47033  41.630  25.221   6.970
 3659POPC   C4A47034  41.243  25.322   7.193
 3659POPC   C1B47035  41.563  25.040   6.421
 3659POPC   C2B47036  41.213  25.088   6.682
 3659POPC   C3B47037  41.089  24.864   7.029
 3659POPC   C4B47038  41.421  24.881   7.371
 3660POPC   NC347039   3.103  13.401   5.366
 3660POPC   PO447040   3.707  13.855   5.341
 3660POPC   GL147041   3.611  13.726   5.738
 3660POPC   GL247042   3.266  13.701   5.748
 3660POPC   C1A47043   3.625  13.512   6.139
 3660POPC   D2A47044   3.421  13.350   6.519
 3660POPC   C3A47045   3.567  13.516   6.921
 3660POPC   C4A47046   3.384  13.542   7.331
 3660POPC   C1B47047   3.110  13.570   6.164
 3660POPC   C2B47048   3.050  13.701   6.614
 3660POPC   C3B47049   2.968  13.565   7.029
 3660POPC   C4B47050   2.922  13.730   7.469
 3661POPC   NC347051  37.593  27.521   5.328
 3661POPC   PO447052  37.308  28.014   5.628
 3661POPC   GL147053  37.453  27.699   5.821
 3661POPC   GL247054  37.817  27.629   5.778
 3661POPC   C1A47055  37.533  27.522   6.188
 3661POPC   D2A47056  37.783  27.464   6.527
 3661POPC   C3A47057  37.567  27.304   6.891
 3661POPC   C4A47058  37.488  27.455   7.256
 3661POPC   C1B47059  37.860  27.925   6.131
 3661POPC   C2B47060  37.961  27.939   6.570
 3661POPC   C3B47061  37.967  27.687   6.980
 3661POPC   C4B47062  38.063  27.885   7.378
 3662POPC   NC347063  32.030  43.490   5.456
 3662POPC   PO447064  32.388  42.897   5.410
 3662POPC   GL147065  32.177  43.105   5.758
 3662POPC   GL247066  32.405  43.399   5.796
 3662POPC   C1A47067  32.055  43.287   6.166
 3662POPC   D2A47068  31.946  43.307   6.612
 3662POPC   C3A47069  31.973  42.913   6.832
 3662POPC   C4A47070  31.976  42.826   7.261
 3662POPC   C1B47071  32.589  43.410   6.176
 3662POPC   C2B47072  32.454  43.259   6.550
 3662POPC   C3B47073  32.580  43.140   6.923
 3662POPC   C4B47074  32.388  43.125   7.278
 3663POPC   NC347075  41.210  11.353   5.575
 3663POPC   PO447076  41.756  11.275   5.171
 3663POPC   GL147077  41.736  11.187   5.637
 3663POPC   GL247078  41.604  11.447   5.895
 3663POPC   C1A47079  41.670  10.891   6.001
 3663POPC   D2A47080  41.672  10.822   6.475
 3663POPC   C3A47081  41.634  11.157   6.802
 3663POPC   C4A47082  41.687  11.064   7.264
 3663POPC   C1B47083  41.329  11.220   6.199
 3663POPC   C2B47084  41.158  11.171   6.603
 3663POPC   C3B47085  41.212  11.382   6.968
 3663POPC   C4B47086  41.194  11.261   7.374
 3664POPC   NC347087  28.181  22.541   5.643
 3664POPC   PO447088  28.444  23.133   5.375
 3664POPC   GL147089  28.410  23.045   5.795
 3664POPC   GL247090  28.065  23.097   5.798
 3664POPC   C1A47091  28.496  22.805   6.168
 3664POPC   D2A47092  28.432  22.694   6.603
 3664POPC   C3A47093  28.499  23.047   6.884
 3664POPC   C4A47094  28.566  22.870   7.248
 3664POPC   C1B47095  28.081  23.113   6.238
 3664POPC   C2B47096  28.038  23.035   6.683
 3664POPC   C3B47097  28.040  22.898   7.120
 3664POPC   C4B47098  28.191  23.161   7.425
 3665POPC   NC347099  12.762   2.516   5.345
 3665POPC   PO447100  12.344   2.932   5.465
 3665POPC   GL147101  12.549   2.672   5.804
 3665POPC   GL247102  12.922   2.649   5.809
 3665POPC   C1A47103  12.683   2.787   6.229
 3665POPC   D2A47104  12.953   2.686   6.562
 3665POPC   C3A47105  12.762   2.656   6.948
 3665POPC   C4A47106  12.678   2.925   7.244
 3665POPC   C1B47107  12.940   2.334   6.147
 3665POPC   C2B47108  13.157   2.216   6.522
 3665POPC   C3B47109  13.184   2.368   6.934
 3665POPC   C4B47110  13.080   2.578   7.332
 3666POPC   NC347111   4.775  15.519   5.439
 3666POPC   PO447112   5.191  15.109   5.178
 3666POPC   GL147113   5.135  15.188   5.675
 3666POPC   GL247114   4.851  15.304   5.914
 3666POPC   C1A47115   5.271  15.031   6.081
 3666POPC   D2A47116   5.122  15.072   6.490
 3666POPC   C3A47117   5.246  15.185   6.906
 3666POPC   C4A47118   5.129  15.536   7.135
 3666POPC   C1B47119   4.738  14.921   6.195
 3666POPC   C2B47120   4.711  14.837   6.687
 3666POPC   C3B47121   4.685  15.002   7.127
 3666POPC   C4B47122   4.788  15.347   7.451
 3667POPC   NC347123  13.553  20.965   5.310
 3667POPC   PO447124  13.475  21.583   5.428
 3667POPC   GL147125  13.648  21.368   5.804
 3667POPC   GL247126  13.750  21.037   5.866
 3667POPC   C1A47127  13.744  21.459   6.227
 3667POPC   D2A47128  13.538  21.449   6.634
 3667POPC   C3A47129  13.817  21.646   6.913
 3667POPC   C4A47130  13.763  21.813   7.294
 3667POPC   C1B47131  13.665  20.954   6.306
 3667POPC   C2B47132  13.937  21.121   6.622
 3667POPC   C3B47133  13.805  21.158   7.044
 3667POPC   C4B47134  13.766  21.036   7.438
 3668POPC   NC347135  35.054  16.674   5.532
 3668POPC   PO447136  35.671  16.950   5.396
 3668POPC   GL147137  35.526  16.730   5.753
 3668POPC   GL247138  35.331  17.007   5.865
 3668POPC   C1A47139  35.417  16.466   6.128
 3668POPC   D2A47140  35.084  16.389   6.453
 3668POPC   C3A47141  35.182  16.514   6.904
 3668POPC   C4A47142  35.292  16.778   7.298
 3668POPC   C1B47143  35.188  16.908   6.307
 3668POPC   C2B47144  35.305  17.034   6.752
 3668POPC   C3B47145  35.670  17.128   7.029
 3668POPC   C4B47146  35.717  17.179   7.522
 3669POPC   NC347147  22.732  25.142   5.548
 3669POPC   PO447148  23.406  24.994   5.448
 3669POPC   GL147149  23.157  25.286   5.786
 3669POPC   GL247150  22.969  25.030   5.982
 3669POPC   C1A47151  22.996  25.458   6.226
 3669POPC   D2A47152  23.009  25.090   6.506
 3669POPC   C3A47153  22.987  25.089   6.937
 3669POPC   C4A47154  22.922  25.449   7.181
 3669POPC   C1B47155  22.587  25.183   6.254
 3669POPC   C2B47156  22.669  25.525   6.626
 3669POPC   C3B47157  22.493  25.667   7.050
 3669POPC   C4B47158  22.457  25.320   7.377
 3670POPC   NC347159  21.297  34.134   5.456
 3670POPC   PO447160  21.656  33.630   5.224
 3670POPC   GL147161  21.595  33.759   5.711
 3670POPC   GL247162  21.807  33.965   5.892
 3670POPC   C1A47163  21.405  33.776   6.162
 3670POPC   D2A47164  21.381  33.873   6.601
 3670POPC   C3A47165  21.590  33.640   6.915
 3670POPC   C4A47166  21.328  33.647   7.296
 3670POPC   C1B47167  21.828  34.047   6.342
 3670POPC   C2B47168  21.710  34.303   6.688
 3670POPC   C3B47169  21.554  34.127   7.034
 3670POPC   C4B47170  21.766  33.905   7.359
 3671POPC   NC347171  21.898  34.001   5.368
 3671POPC   PO447172  22.510  33.604   5.432
 3671POPC   GL147173  22.260  33.796   5.696
 3671POPC   GL247174  22.046  33.518   5.737
 3671POPC   C1A47175  22.271  34.014   6.069
 3671POPC   D2A47176  22.329  33.964   6.511
 3671POPC   C3A47177  22.029  33.921   6.853
 3671POPC   C4A47178  22.277  33.977   7.198
 3671POPC   C1B47179  22.076  33.561   6.208
 3671POPC   C2B47180  22.129  33.453   6.667
 3671POPC   C3B47181  22.087  33.446   7.135
 3671POPC   C4B47182  22.153  33.648   7.547
 3672POPC   NC347183  39.531  44.276   5.393
 3672POPC   PO447184  39.344  43.703   5.249
 3672POPC   GL147185  39.138  43.931   5.588
 3672POPC   GL247186  39.386  43.750   5.778
 3672POPC   C1A47187  39.068  43.995   6.073
 3672POPC   D2A47188  39.203  43.731   6.446
 3672POPC   C3A47189  39.345  43.948   6.819
 3672POPC   C4A47190  39.199  43.974   7.264
 3672POPC   C1B47191  39.633  43.661   6.148
 3672POPC   C2B47192  39.746  43.686   6.605
 3672POPC   C3B47193  39.585  43.573   7.039
 3672POPC   C4B47194  39.527  43.655   7.487
 3673POPC   NC347195   5.725   7.859   5.086
 3673POPC   PO447196   6.216   8.263   5.308
 3673POPC   GL147197   5.885   8.178   5.625
 3673POPC   GL247198   5.747   8.476   5.791
 3673POPC   C1A47199   5.903   8.099   6.091
 3673POPC   D2A47200   6.167   8.181   6.441
 3673POPC   C3A47201   5.991   8.169   6.850
 3673POPC   C4A47202   6.113   8.314   7.277
 3673POPC   C1B47203   5.628   8.558   6.233
 3673POPC   C2B47204   5.530   8.489   6.674
 3673POPC   C3B47205   5.700   8.540   7.090
 3673POPC   C4B47206   5.640   8.100   7.230
 3674POPC   NC347207  14.975  31.355   5.017
 3674POPC   PO447208  15.141  31.799   5.460
 3674POPC   GL147209  15.190  31.566   5.819
 3674POPC   GL247210  15.223  31.215   5.751
 3674POPC   C1A47211  15.227  31.682   6.223
 3674POPC   D2A47212  14.928  31.763   6.526
 3674POPC   C3A47213  15.098  31.653   6.920
 3674POPC   C4A47214  14.936  31.505   7.294
 3674POPC   C1B47215  15.145  31.177   6.183
 3674POPC   C2B47216  15.316  31.252   6.618
 3674POPC   C3B47217  15.197  31.158   7.061
 3674POPC   C4B47218  15.193  31.137   7.563
 3675POPC   NC347219  43.459  29.288   5.464
 3675POPC   PO447220  42.957  28.919   5.247
 3675POPC   GL147221  43.157  28.941   5.738
 3675POPC   GL247222  43.063  28.679   5.920
 3675POPC   C1A47223  43.026  29.111   6.193
 3675POPC   D2A47224  43.063  29.416   6.555
 3675POPC   C3A47225  42.823  29.350   6.949
 3675POPC   C4A47226  43.006  29.417   7.391
 3675POPC   C1B47227  43.359  28.736   6.250
 3675POPC   C2B47228  43.252  28.960   6.660
 3675POPC   C3B47229  43.292  29.184   7.040
 3675POPC   C4B47230  43.316  29.024   7.470
 3676POPC   NC347231  31.631   9.333   5.395
 3676POPC   PO447232  31.556   8.661   5.434
 3676POPC   GL147233  31.496   8.796   5.826
 3676POPC   GL247234  31.649   9.112   5.855
 3676POPC   C1A47235  31.405   8.854   6.252
 3676POPC   D2A47236  31.186   8.627   6.563
 3676POPC   C3A47237  31.220   8.854   6.944
 3676POPC   C4A47238  31.283   8.991   7.404
 3676POPC   C1B47239  31.613   9.334   6.239
 3676POPC   C2B47240  31.506   9.352   6.661
 3676POPC   C3B47241  31.622   9.132   7.025
 3676POPC   C4B47242  31.785   8.866   7.332
 3677POPC   NC347243  18.640  38.502   5.433
 3677POPC   PO447244  19.293  38.319   5.330
 3677POPC   GL147245  19.033  38.355   5.724
 3677POPC   GL247246  18.984  38.710   5.779
 3677POPC   C1A47247  18.786  38.316   6.130
 3677POPC   D2A47248  18.891  38.490   6.538
 3677POPC   C3A47249  18.972  38.177   6.847
 3677POPC   C4A47250  18.909  38.241   7.260
 3677POPC   C1B47251  19.244  38.522   6.162
 3677POPC   C2B47252  19.399  38.414   6.597
 3677POPC   C3B47253  19.231  38.572   6.984
 3677POPC   C4B47254  19.449  38.473   7.323
 3678POPC   NC347255  33.896   6.837   5.364
 3678POPC   PO447256  33.439   6.437   5.613
 3678POPC   GL147257  33.655   6.736   5.840
 3678POPC   GL247258  33.522   7.063   5.775
 3678POPC   C1A47259  33.741   6.643   6.259
 3678POPC   D2A47260  33.917   6.495   6.604
 3678POPC   C3A47261  33.894   6.795   6.899
 3678POPC   C4A47262  33.885   6.582   7.269
 3678POPC   C1B47263  33.392   7.011   6.214
 3678POPC   C2B47264  33.431   6.862   6.670
 3678POPC   C3B47265  33.459   6.923   7.146
 3678POPC   C4B47266  33.616   6.859   7.589
 3679POPC   NC347267  16.462  41.230   5.386
 3679POPC   PO447268  16.867  41.699   5.395
 3679POPC   GL147269  16.815  41.678   5.782
 3679POPC   GL247270  16.461  41.787   5.832
 3679POPC   C1A47271  16.891  41.677   6.192
 3679POPC   D2A47272  16.599  41.743   6.522
 3679POPC   C3A47273  16.814  41.639   6.875
 3679POPC   C4A47274  17.072  41.366   7.071
 3679POPC   C1B47275  16.477  41.403   6.091
 3679POPC   C2B47276  16.729  41.270   6.470
 3679POPC   C3B47277  16.524  41.174   6.848
 3679POPC   C4B47278  16.492  41.404   7.184
 3680POPC   NC347279  12.454  12.364   5.216
 3680POPC   PO447280  12.045  11.849   5.366
 3680POPC   GL147281  12.076  12.051   5.739
 3680POPC   GL247282  12.362  12.269   5.747
 3680POPC   C1A47283  12.057  12.164   6.167
 3680POPC   D2A47284  11.857  12.419   6.473
 3680POPC   C3A47285  11.844  12.204   6.859
 3680POPC   C4A47286  12.141  12.044   7.143
 3680POPC   C1B47287  12.536  12.327   6.175
 3680POPC   C2B47288  12.362  12.222   6.595
 3680POPC   C3B47289  12.509  12.440   6.937
 3680POPC   C4B47290  12.287  12.528   7.287
 3681POPC   NC347291  30.366  20.903   5.586
 3681POPC   PO447292  29.724  20.716   5.378
 3681POPC   GL147293  29.940  20.615   5.738
 3681POPC   GL247294  29.767  20.881   5.862
 3681POPC   C1A47295  30.118  20.584   6.172
 3681POPC   D2A47296  29.969  20.420   6.597
 3681POPC   C3A47297  30.112  20.647   6.988
 3681POPC   C4A47298  29.959  20.666   7.423
 3681POPC   C1B47299  29.614  20.654   6.213
 3681POPC   C2B47300  29.462  20.533   6.622
 3681POPC   C3B47301  29.605  20.712   7.002
 3681POPC   C4B47302  29.528  20.983   7.338
 3682POPC   NC347303  28.681  23.573   5.285
 3682POPC   PO447304  28.103  23.705   5.382
 3682POPC   GL147305  28.335  23.550   5.703
 3682POPC   GL247306  28.575  23.762   5.757
 3682POPC   C1A47307  28.271  23.601   6.156
 3682POPC   D2A47308  28.345  23.423   6.552
 3682POPC   C3A47309  28.420  23.571   6.952
 3682POPC   C4A47310  28.221  23.652   7.318
 3682POPC   C1B47311  28.700  23.866   6.178
 3682POPC   C2B47312  28.596  23.929   6.595
 3682POPC   C3B47313  28.813  23.884   6.959
 3682POPC   C4B47314  28.677  23.874   7.383
 3683POPC   NC347315  17.435  15.577   5.476
 3683POPC   PO447316  17.076  16.160   5.276
 3683POPC   GL147317  17.248  16.034   5.745
 3683POPC   GL247318  17.594  15.920   5.906
 3683POPC   C1A47319  17.172  15.855   6.186
 3683POPC   D2A47320  17.349  15.988   6.559
 3683POPC   C3A47321  17.267  15.792   6.923
 3683POPC   C4A47322  17.466  16.052   7.175
 3683POPC   C1B47323  17.839  15.927   6.330
 3683POPC   C2B47324  17.861  15.968   6.812
 3683POPC   C3B47325  17.806  15.637   7.137
 3683POPC   C4B47326  17.828  15.632   7.609
 3684POPC   NC347327  14.720  36.445   5.595
 3684POPC   PO447328  15.176  35.919   5.467
 3684POPC   GL147329  15.228  36.186   5.809
 3684POPC   GL247330  15.495  35.957   5.845
 3684POPC   C1A47331  15.104  36.231   6.277
 3684POPC   D2A47332  15.101  35.988   6.695
 3684POPC   C3A47333  15.034  36.282   7.054
 3684POPC   C4A47334  15.151  36.568   7.428
 3684POPC   C1B47335  15.426  35.833   6.243
 3684POPC   C2B47336  15.588  35.984   6.599
 3684POPC   C3B47337  15.493  35.983   7.049
 3684POPC   C4B47338  15.802  35.821   7.325
 3685POPC   NC347339  39.211   4.157   5.264
 3685POPC   PO447340  39.389   4.822   5.429
 3685POPC   GL147341  39.271   4.608   5.814
 3685POPC   GL247342  39.255   4.281   5.757
 3685POPC   C1A47343  39.370   4.512   6.244
 3685POPC   D2A47344  39.470   4.246   6.600
 3685POPC   C3A47345  39.317   4.429   6.972
 3685POPC   C4A47346  39.421   4.149   7.265
 3685POPC   C1B47347  38.955   4.231   6.086
 3685POPC   C2B47348  38.964   4.295   6.519
 3685POPC   C3B47349  39.024   4.037   6.872
 3685POPC   C4B47350  38.859   4.159   7.251
 3686POPC   NC347351  18.891  42.562   5.384
 3686POPC   PO447352  18.395  42.113   5.491
 3686POPC   GL147353  18.492  42.121   5.889
 3686POPC   GL247354  18.583  42.496   5.855
 3686POPC   C1A47355  18.454  41.889   6.289
 3686POPC   D2A47356  18.307  42.119   6.640
 3686POPC   C3A47357  18.436  42.080   7.049
 3686POPC   C4A47358  18.156  42.189   7.348
 3686POPC   C1B47359  18.398  42.499   6.266
 3686POPC   C2B47360  18.187  42.634   6.638
 3686POPC   C3B47361  18.319  42.604   7.067
 3686POPC   C4B47362  18.370  42.606   7.512
 3687POPC   NC347363  24.103  21.893   5.455
 3687POPC   PO447364  24.556  22.377   5.519
 3687POPC   GL147365  24.389  22.405   5.899
 3687POPC   GL247366  24.299  22.062   5.910
 3687POPC   C1A47367  24.524  22.356   6.308
 3687POPC   D2A47368  24.732  22.380   6.709
 3687POPC   C3A47369  24.514  22.588   7.043
 3687POPC   C4A47370  24.507  22.576   7.494
 3687POPC   C1B47371  24.047  22.159   6.288
 3687POPC   C2B47372  24.155  22.406   6.681
 3687POPC   C3B47373  24.318  22.114   6.990
 3687POPC   C4B47374  24.604  21.746   7.046
 3688POPC   NC347375  39.516  41.064   5.401
 3688POPC   PO447376  38.939  40.695   5.534
 3688POPC   GL147377  39.217  40.776   5.868
 3688POPC   GL247378  39.135  41.108   5.787
 3688POPC   C1A47379  39.343  40.678   6.323
 3688POPC   D2A47380  39.466  40.822   6.764
 3688POPC   C3A47381  39.202  40.680   7.160
 3688POPC   C4A47382  38.835  40.563   7.475
 3688POPC   C1B47383  39.326  41.184   6.186
 3688POPC   C2B47384  39.107  41.221   6.567
 3688POPC   C3B47385  39.109  41.143   6.977
 3688POPC   C4B47386  39.506  41.107   7.216
 3689POPC   NC347387  13.715  19.923   5.300
 3689POPC   PO447388  13.016  19.952   5.210
 3689POPC   GL147389  13.329  19.907   5.652
 3689POPC   GL247390  13.626  20.129   5.766
 3689POPC   C1A47391  13.378  19.926   6.141
 3689POPC   D2A47392  13.335  19.699   6.537
 3689POPC   C3A47393  13.621  19.754   6.874
 3689POPC   C4A47394  13.538  19.822   7.300
 3689POPC   C1B47395  13.880  20.055   6.183
 3689POPC   C2B47396  14.029  20.057   6.641
 3689POPC   C3B47397  13.931  20.099   7.103
 3689POPC   C4B47398  13.808  20.178   7.562
 3690POPC   NC347399   5.957  30.267   5.297
 3690POPC   PO447400   5.807  29.586   5.134
 3690POPC   GL147401   5.729  29.916   5.568
 3690POPC   GL247402   6.079  29.927   5.685
 3690POPC   C1A47403   5.740  30.033   6.080
 3690POPC   D2A47404   5.605  30.175   6.537
 3690POPC   C3A47405   5.702  29.969   6.959
 3690POPC   C4A47406   5.539  29.614   7.219
 3690POPC   C1B47407   6.238  29.903   6.123
 3690POPC   C2B47408   6.099  29.995   6.547
 3690POPC   C3B47409   6.168  29.748   6.897
 3690POPC   C4B47410   6.122  29.930   7.292
 3691POPC   NC347411   7.787   9.183   5.509
 3691POPC   PO447412   8.045   8.660   5.425
 3691POPC   GL147413   8.227   8.816   5.808
 3691POPC   GL247414   7.945   8.937   5.950
 3691POPC   C1A47415   8.414   8.927   6.230
 3691POPC   D2A47416   8.256   9.102   6.626
 3691POPC   C3A47417   8.269   8.919   7.017
 3691POPC   C4A47418   8.245   9.210   7.340
 3691POPC   C1B47419   7.860   8.902   6.377
 3691POPC   C2B47420   7.765   8.828   6.794
 3691POPC   C3B47421   7.800   8.989   7.200
 3691POPC   C4B47422   7.925   8.967   7.652
 3692POPC   NC347423   0.139   1.926   5.443
 3692POPC   PO447424   0.626   2.346   5.269
 3692POPC   GL147425   0.659   2.266   5.820
 3692POPC   GL247426   0.564   1.914   5.786
 3692POPC   C1A47427   0.368   2.084   6.221
 3692POPC   D2A47428   0.439   1.828   6.583
 3692POPC   C3A47429   0.384   2.135   6.873
 3692POPC   C4A47430   0.168   2.285   7.193
 3692POPC   C1B47431   0.805   1.857   6.175
 3692POPC   C2B47432   0.939   1.977   6.549
 3692POPC   C3B47433   0.844   1.808   6.905
 3692POPC   C4B47434   0.562   1.850   7.237
 3693POPC   NC347435  23.495  30.141   5.124
 3693POPC   PO447436  22.948  30.039   5.608
 3693POPC   GL147437  23.140  29.802   5.888
 3693POPC   GL247438  23.285  29.492   5.731
 3693POPC   C1A47439  23.134  29.972   6.299
 3693POPC   D2A47440  23.128  30.075   6.727
 3693POPC   C3A47441  22.799  30.085   7.016
 3693POPC   C4A47442  23.115  30.155   7.323
 3693POPC   C1B47443  23.274  29.425   6.189
 3693POPC   C2B47444  23.278  29.591   6.606
 3693POPC   C3B47445  23.212  29.666   7.037
 3693POPC   C4B47446  23.254  29.399   7.372
 3694POPC   NC347447   8.716  16.514   5.502
 3694POPC   PO447448   8.939  17.105   5.363
 3694POPC   GL147449   8.944  16.965   5.800
 3694POPC   GL247450   9.134  16.642   5.839
 3694POPC   C1A47451   9.047  16.982   6.249
 3694POPC   D2A47452   8.964  16.772   6.632
 3694POPC   C3A47453   8.912  16.891   7.052
 3694POPC   C4A47454   9.173  16.738   7.390
 3694POPC   C1B47455   8.907  16.477   6.210
 3694POPC   C2B47456   8.687  16.350   6.613
 3694POPC   C3B47457   8.955  16.377   6.952
 3694POPC   C4B47458   9.041  16.183   7.296
 3695POPC   NC347459   1.722  32.119   5.536
 3695POPC   PO447460   1.064  32.070   5.360
 3695POPC   GL147461   1.240  32.247   5.764
 3695POPC   GL247462   1.386  32.586   5.794
 3695POPC   C1A47463   1.098  32.090   6.175
 3695POPC   D2A47464   0.946  31.872   6.540
 3695POPC   C3A47465   1.022  32.123   6.861
 3695POPC   C4A47466   0.842  32.145   7.214
 3695POPC   C1B47467   1.415  32.481   6.226
 3695POPC   C2B47468   1.414  32.353   6.626
 3695POPC   C3B47469   1.561  32.503   7.015
 3695POPC   C4B47470   1.228  32.491   7.246
 3696POPC   NC347471  23.025   8.912   5.237
 3696POPC   PO447472  22.468   9.053   5.559
 3696POPC   GL147473  22.707   8.765   5.815
 3696POPC   GL247474  23.088   8.786   5.752
 3696POPC   C1A47475  22.886   8.817   6.229
 3696POPC   D2A47476  23.232   8.904   6.495
 3696POPC   C3A47477  23.097   8.854   6.891
 3696POPC   C4A47478  22.827   8.951   7.221
 3696POPC   C1B47479  23.229   9.165   6.039
 3696POPC   C2B47480  23.224   9.422   6.463
 3696POPC   C3B47481  23.161   9.385   6.922
 3696POPC   C4B47482  23.338   9.135   7.260
 3697POPC   NC347483  43.716   0.935   5.577
 3697POPC   PO447484  42.918   1.127   5.429
 3697POPC   GL147485  43.031   1.289   5.808
 3697POPC   GL247486  43.271   0.999   5.824
 3697POPC   C1A47487  43.173   1.272   6.234
 3697POPC   D2A47488  42.917   1.165   6.554
 3697POPC   C3A47489  43.099   1.374   6.895
 3697POPC   C4A47490  42.962   1.361   7.301
 3697POPC   C1B47491  42.946   0.838   6.114
 3697POPC   C2B47492  43.002   0.664   6.544
 3697POPC   C3B47493  43.015   0.871   6.967
 3697POPC   C4B47494  43.333   1.006   7.246
 3698POPC   NC347495  11.767  20.497   5.205
 3698POPC   PO447496  12.348  20.842   5.418
 3698POPC   GL147497  12.104  20.710   5.740
 3698POPC   GL247498  12.010  20.391   5.732
 3698POPC   C1A47499  12.168  20.716   6.171
 3698POPC   D2A47500  12.304  20.748   6.580
 3698POPC   C3A47501  11.964  20.748   6.838
 3698POPC   C4A47502  11.985  20.771   7.281
 3698POPC   C1B47503  12.169  20.205   6.153
 3698POPC   C2B47504  12.104  20.260   6.617
 3698POPC   C3B47505  11.927  20.281   7.035
 3698POPC   C4B47506  12.044  20.327   7.482
 3699POPC   NC347507  10.887   1.371   5.639
 3699POPC   PO447508  11.536   1.425   5.464
 3699POPC   GL147509  11.427   1.231   5.859
 3699POPC   GL247510  11.102   1.218   6.063
 3699POPC   C1A47511  11.573   1.245   6.277
 3699POPC   D2A47512  11.358   1.345   6.648
 3699POPC   C3A47513  11.536   1.214   7.006
 3699POPC   C4A47514  11.343   1.131   7.394
 3699POPC   C1B47515  11.076   1.613   6.308
 3699POPC   C2B47516  11.048   1.745   6.749
 3699POPC   C3B47517  11.095   1.504   7.154
 3699POPC   C4B47518  11.102   1.478   7.676
 3700POPC   NC347519  33.878  40.039   5.173
 3700POPC   PO447520  33.376  39.617   5.112
 3700POPC   GL147521  33.544  39.817   5.552
 3700POPC   GL247522  33.749  40.149   5.663
 3700POPC   C1A47523  33.598  39.874   6.048
 3700POPC   D2A47524  33.545  39.820   6.501
 3700POPC   C3A47525  33.690  39.894   6.915
 3700POPC   C4A47526  34.024  39.828   7.152
 3700POPC   C1B47527  33.959  40.237   6.121
 3700POPC   C2B47528  33.927  40.179   6.564
 3700POPC   C3B47529  34.165  40.270   6.948
 3700POPC   C4B47530  34.234  40.207   7.407
 3701POPC   NC347531  21.361  16.348   5.497
 3701POPC   PO447532  21.477  16.923   5.197
 3701POPC   GL147533  21.366  16.935   5.677
 3701POPC   GL247534  21.137  16.703   5.775
 3701POPC   C1A47535  21.441  16.811   6.170
 3701POPC   D2A47536  21.519  16.604   6.574
 3701POPC   C3A47537  21.483  16.873   6.917
 3701POPC   C4A47538  21.669  17.211   7.139
 3701POPC   C1B47539  20.939  16.506   6.104
 3701POPC   C2B47540  21.022  16.619   6.486
 3701POPC   C3B47541  20.944  16.788   6.847
 3701POPC   C4B47542  21.125  16.602   7.186
 3702POPC   NC347543  34.086  31.189   5.480
 3702POPC   PO447544  33.605  31.719   5.426
 3702POPC   GL147545  33.604  31.450   5.808
 3702POPC   GL247546  33.808  31.139   5.932
 3702POPC   C1A47547  33.664  31.501   6.279
 3702POPC   D2A47548  33.790  31.819   6.602
 3702POPC   C3A47549  34.114  31.698   6.909
 3702POPC   C4A47550  33.962  31.464   7.231
 3702POPC   C1B47551  33.346  31.122   6.080
 3702POPC   C2B47552  33.277  31.240   6.503
 3702POPC   C3B47553  33.556  31.386   6.828
 3702POPC   C4B47554  33.453  31.359   7.268
 3703POPC   NC347555  34.021  29.429   5.133
 3703POPC   PO447556  33.491  29.253   5.535
 3703POPC   GL147557  33.740  29.126   5.883
 3703POPC   GL247558  34.072  29.210   5.821
 3703POPC   C1A47559  33.855  28.970   6.291
 3703POPC   D2A47560  33.614  29.105   6.651
 3703POPC   C3A47561  33.770  29.064   7.051
 3703POPC   C4A47562  33.535  29.163   7.402
 3703POPC   C1B47563  34.045  29.450   6.240
 3703POPC   C2B47564  34.121  29.282   6.670
 3703POPC   C3B47565  34.258  29.247   7.112
 3703POPC   C4B47566  34.305  29.377   7.582
 3704POPC   NC347567  44.908  44.380   5.545
 3704POPC   PO447568  44.533  44.946   5.352
 3704POPC   GL147569  44.595  44.781   5.747
 3704POPC   GL247570  44.340  44.559   5.792
 3704POPC   C1A47571  44.724  44.641   6.152
 3704POPC   D2A47572  44.887  44.640   6.567
 3704POPC   C3A47573  44.667  44.560   6.945
 3704POPC   C4A47574  44.994  44.438   7.224
 3704POPC   C1B47575  44.204  44.413   6.214
 3704POPC   C2B47576  44.172  44.525   6.669
 3704POPC   C3B47577  44.168  44.313   7.092
 3704POPC   C4B47578  44.434  44.451   7.416
 3705POPC   NC347579  25.970  29.047   5.456
 3705POPC   PO447580  26.291  29.634   5.515
 3705POPC   GL147581  26.137  29.377   5.814
 3705POPC   GL247582  25.822  29.411   5.828
 3705POPC   C1A47583  26.167  29.105   6.170
 3705POPC   D2A47584  26.214  29.103   6.621
 3705POPC   C3A47585  25.958  28.919   6.936
 3705POPC   C4A47586  26.311  28.983   7.166
 3705POPC   C1B47587  25.717  29.326   6.222
 3705POPC   C2B47588  25.905  29.510   6.594
 3705POPC   C3B47589  25.996  29.436   7.061
 3705POPC   C4B47590  25.814  29.270   7.451
 3706POPC   NC347591  27.958  39.192   5.358
 3706POPC   PO447592  28.603  38.908   5.369
 3706POPC   GL147593  28.362  39.150   5.665
 3706POPC   GL247594  28.163  38.868   5.746
 3706POPC   C1A47595  28.302  39.395   6.041
 3706POPC   D2A47596  28.343  39.354   6.489
 3706POPC   C3A47597  28.333  39.540   6.883
 3706POPC   C4A47598  28.405  39.454   7.310
 3706POPC   C1B47599  28.151  38.927   6.180
 3706POPC   C2B47600  28.342  38.844   6.578
 3706POPC   C3B47601  28.275  38.945   7.030
 3706POPC   C4B47602  27.969  39.126   7.321
 3707POPC   NC347603  10.565   3.322   5.365
 3707POPC   PO447604  10.475   2.687   5.399
 3707POPC   GL147605  10.366   2.615   5.824
 3707POPC   GL247606  10.590   2.915   5.923
 3707POPC   C1A47607  10.253   2.760   6.257
 3707POPC   D2A47608  10.595   2.974   6.459
 3707POPC   C3A47609  10.432   3.210   6.762
 3707POPC   C4A47610  10.194   2.952   7.081
 3707POPC   C1B47611  10.765   2.532   6.174
 3707POPC   C2B47612  10.961   2.281   6.553
 3707POPC   C3B47613  10.896   2.480   6.972
 3707POPC   C4B47614  10.705   2.869   7.045
 3708POPC   NC347615  10.133  41.568   5.340
 3708POPC   PO447616  10.787  41.555   5.392
 3708POPC   GL147617  10.584  41.525   5.828
 3708POPC   GL247618  10.194  41.518   5.858
 3708POPC   C1A47619  10.786  41.499   6.252
 3708POPC   D2A47620  10.818  41.732   6.626
 3708POPC   C3A47621  10.783  41.535   7.028
 3708POPC   C4A47622  10.454  41.631   7.310
 3708POPC   C1B47623  10.273  41.621   6.297
 3708POPC   C2B47624  10.325  41.589   6.734
 3708POPC   C3B47625  10.241  41.308   6.985
 3708POPC   C4B47626  10.120  41.240   7.354
 3709POPC   NC347627   6.758  36.119   5.311
 3709POPC   PO447628   6.265  36.510   5.579
 3709POPC   GL147629   6.550  36.132   5.790
 3709POPC   GL247630   6.907  35.957   5.750
 3709POPC   C1A47631   6.427  36.080   6.185
 3709POPC   D2A47632   6.359  36.297   6.547
 3709POPC   C3A47633   6.447  36.038   6.881
 3709POPC   C4A47634   6.456  36.309   7.191
 3709POPC   C1B47635   6.970  36.116   6.112
 3709POPC   C2B47636   6.825  36.066   6.508
 3709POPC   C3B47637   6.834  36.377   6.823
 3709POPC   C4B47638   7.013  36.315   7.226
 3710POPC   NC347639  35.613  23.838   5.578
 3710POPC   PO447640  36.268  23.790   5.400
 3710POPC   GL147641  36.078  23.761   5.806
 3710POPC   GL247642  35.841  23.476   5.865
 3710POPC   C1A47643  36.199  23.674   6.230
 3710POPC   D2A47644  36.357  23.449   6.571
 3710POPC   C3A47645  36.243  23.704   6.927
 3710POPC   C4A47646  36.022  23.640   7.272
 3710POPC   C1B47647  35.657  23.668   6.252
 3710POPC   C2B47648  35.771  23.696   6.688
 3710POPC   C3B47649  35.802  24.008   6.997
 3710POPC   C4B47650  35.679  24.009   7.411
 3711POPC   NC347651  18.024  10.721   5.163
 3711POPC   PO447652  18.716  10.461   5.397
 3711POPC   GL147653  18.480  10.366   5.801
 3711POPC   GL247654  18.125  10.227   5.801
 3711POPC   C1A47655  18.413  10.366   6.258
 3711POPC   D2A47656  18.522  10.488   6.685
 3711POPC   C3A47657  18.296  10.754   6.940
 3711POPC   C4A47658  18.176  10.694   7.350
 3711POPC   C1B47659  17.919  10.321   6.187
 3711POPC   C2B47660  18.008  10.469   6.603
 3711POPC   C3B47661  18.023  10.282   6.999
 3711POPC   C4B47662  17.792  10.304   7.378
 3712POPC   NC347663  22.255  27.781   5.557
 3712POPC   PO447664  21.683  27.391   5.307
 3712POPC   GL147665  21.862  27.515   5.731
 3712POPC   GL247666  21.803  27.244   5.853
 3712POPC   C1A47667  22.074  27.735   6.143
 3712POPC   D2A47668  22.347  27.602   6.486
 3712POPC   C3A47669  22.310  27.825   6.884
 3712POPC   C4A47670  22.213  27.691   7.313
 3712POPC   C1B47671  22.026  27.244   6.226
 3712POPC   C2B47672  22.157  27.099   6.594
 3712POPC   C3B47673  22.206  27.314   6.932
 3712POPC   C4B47674  21.964  27.209   7.215
 3713POPC   NC347675  32.381  32.015   5.385
 3713POPC   PO447676  31.772  32.298   5.328
 3713POPC   GL147677  31.992  32.090   5.717
 3713POPC   GL247678  32.216  32.342   5.772
 3713POPC   C1A47679  32.187  32.035   6.181
 3713POPC   D2A47680  32.441  32.143   6.579
 3713POPC   C3A47681  32.306  32.016   6.999
 3713POPC   C4A47682  31.925  32.184   7.150
 3713POPC   C1B47683  32.449  32.488   6.168
 3713POPC   C2B47684  32.393  32.711   6.576
 3713POPC   C3B47685  32.487  32.533   6.956
 3713POPC   C4B47686  32.691  32.298   7.214
 3714POPC   NC347687  20.060  10.179   5.621
 3714POPC   PO447688  19.741   9.608   5.356
 3714POPC   GL147689  19.873   9.712   5.743
 3714POPC   GL247690  20.206   9.593   5.749
 3714POPC   C1A47691  19.942   9.811   6.183
 3714POPC   D2A47692  19.667   9.877   6.523
 3714POPC   C3A47693  19.739   9.691   6.919
 3714POPC   C4A47694  19.710   9.877   7.303
 3714POPC   C1B47695  19.993   9.313   6.053
 3714POPC   C2B47696  19.983   9.414   6.513
 3714POPC   C3B47697  20.239   9.617   6.846
 3714POPC   C4B47698  20.156   9.648   7.287
 3715POPC   NC347699   6.396   2.970   5.222
 3715POPC   PO447700   6.811   2.534   5.264
 3715POPC   GL147701   6.704   2.677   5.677
 3715POPC   GL247702   6.710   3.041   5.687
 3715POPC   C1A47703   6.790   2.641   6.136
 3715POPC   D2A47704   6.901   2.475   6.561
 3715POPC   C3A47705   6.621   2.396   6.899
 3715POPC   C4A47706   6.588   2.605   7.319
 3715POPC   C1B47707   6.495   3.073   6.113
 3715POPC   C2B47708   6.496   2.866   6.507
 3715POPC   C3B47709   6.709   2.903   6.881
 3715POPC   C4B47710   6.519   3.099   7.191
 3716POPC   NC347711  27.305   2.014   5.482
 3716POPC   PO447712  27.932   1.715   5.543
 3716POPC   GL147713  27.754   2.062   5.823
 3716POPC   GL247714  27.410   2.200   5.961
 3716POPC   C1A47715  27.807   2.058   6.275
 3716POPC   D2A47716  27.660   1.842   6.635
 3716POPC   C3A47717  27.648   2.123   6.983
 3716POPC   C4A47718  27.917   2.192   7.357
 3716POPC   C1B47719  27.257   1.912   6.292
 3716POPC   C2B47720  27.154   1.890   6.744
 3716POPC   C3B47721  27.171   1.924   7.193
 3716POPC   C4B47722  27.175   1.859   7.684
 3717POPC   NC347723  42.391  44.229   5.466
 3717POPC   PO447724  42.083  44.868   5.551
 3717POPC   GL147725  42.368  44.653   5.783
 3717POPC   GL247726  42.256  44.347   5.927
 3717POPC   C1A47727  42.474  44.720   6.204
 3717POPC   D2A47728  42.299  44.922   6.557
 3717POPC   C3A47729  42.582  44.862   6.889
 3717POPC   C4A47730  42.516  44.843   7.326
 3717POPC   C1B47731  42.038  44.285   6.288
 3717POPC   C2B47732  42.243  44.432   6.623
 3717POPC   C3B47733  42.235  44.505   7.033
 3717POPC   C4B47734  41.952  44.244   7.211
 3718POPC   NC347735  24.148  29.587   5.427
 3718POPC   PO447736  24.693  30.015   5.421
 3718POPC   GL147737  24.556  29.792   5.774
 3718POPC   GL247738  24.848  29.584   5.838
 3718POPC   C1A47739  24.541  29.943   6.195
 3718POPC   D2A47740  24.714  30.113   6.563
 3718POPC   C3A47741  24.509  29.979   6.880
 3718POPC   C4A47742  24.666  29.927   7.244
 3718POPC   C1B47743  24.694  29.464   6.238
 3718POPC   C2B47744  24.392  29.570   6.580
 3718POPC   C3B47745  24.415  29.506   7.049
 3718POPC   C4B47746  24.587  29.491   7.481
 3719POPC   NC347747  26.130  25.592   5.535
 3719POPC   PO447748  26.108  24.960   5.252
 3719POPC   GL147749  26.049  25.079   5.684
 3719POPC   GL247750  25.730  25.229   5.727
 3719POPC   C1A47751  26.004  25.078   6.149
 3719POPC   D2A47752  26.102  24.927   6.546
 3719POPC   C3A47753  26.142  25.193   6.886
 3719POPC   C4A47754  25.918  25.115   7.262
 3719POPC   C1B47755  25.664  25.463   6.092
 3719POPC   C2B47756  25.808  25.407   6.517
 3719POPC   C3B47757  25.660  25.342   6.901
 3719POPC   C4B47758  25.612  25.540   7.273
 3720POPC   NC347759  21.829   2.556   5.533
 3720POPC   PO447760  22.290   3.029   5.458
 3720POPC   GL147761  22.234   2.747   5.800
 3720POPC   GL247762  22.478   2.461   5.760
 3720POPC   C1A47763  22.082   2.848   6.208
 3720POPC   D2A47764  22.119   3.184   6.529
 3720POPC   C3A47765  22.133   3.046   6.924
 3720POPC   C4A47766  21.977   2.813   7.241
 3720POPC   C1B47767  22.579   2.652   6.162
 3720POPC   C2B47768  22.437   2.768   6.574
 3720POPC   C3B47769  22.362   2.582   6.964
 3720POPC   C4B47770  22.510   2.766   7.310
 3721POPC   NC347771  23.210  35.572   5.510
 3721POPC   PO447772  22.669  35.123   5.460
 3721POPC   GL147773  22.933  35.288   5.818
 3721POPC   GL247774  22.792  35.574   5.827
 3721POPC   C1A47775  23.208  35.414   6.194
 3721POPC   D2A47776  23.332  35.267   6.658
 3721POPC   C3A47777  23.092  35.347   7.045
 3721POPC   C4A47778  22.638  35.377   7.018
 3721POPC   C1B47779  22.667  35.514   6.238
 3721POPC   C2B47780  22.881  35.519   6.588
 3721POPC   C3B47781  23.092  35.809   6.842
 3721POPC   C4B47782  22.840  35.809   7.218
 3722POPC   NC347783   1.424  34.810   5.364
 3722POPC   PO447784   0.827  34.551   5.288
 3722POPC   GL147785   1.104  34.564   5.706
 3722POPC   GL247786   1.436  34.659   5.845
 3722POPC   C1A47787   1.101  34.462   6.173
 3722POPC   D2A47788   0.845  34.388   6.536
 3722POPC   C3A47789   0.997  34.529   6.938
 3722POPC   C4A47790   1.080  34.271   7.304
 3722POPC   C1B47791   1.594  34.619   6.276
 3722POPC   C2B47792   1.632  34.539   6.708
 3722POPC   C3B47793   1.526  34.442   7.126
 3722POPC   C4B47794   1.448  34.606   7.546
 3723POPC   NC347795  42.737  25.925   5.455
 3723POPC   PO447796  43.256  26.277   5.401
 3723POPC   GL147797  43.186  26.047   5.778
 3723POPC   GL247798  43.003  25.751   5.831
 3723POPC   C1A47799  42.876  26.129   6.138
 3723POPC   D2A47800  42.684  26.256   6.530
 3723POPC   C3A47801  42.833  26.125   6.932
 3723POPC   C4A47802  42.769  26.402   7.297
 3723POPC   C1B47803  43.298  25.774   6.205
 3723POPC   C2B47804  43.213  25.892   6.626
 3723POPC   C3B47805  43.283  25.815   7.047
 3723POPC   C4B47806  42.947  25.822   7.349
 3724POPC   NC347807  33.066  27.246   5.527
 3724POPC   PO447808  33.382  26.707   5.221
 3724POPC   GL147809  33.182  26.663   5.672
 3724POPC   GL247810  32.845  26.740   5.831
 3724POPC   C1A47811  33.255  26.721   6.127
 3724POPC   D2A47812  33.279  27.018   6.474
 3724POPC   C3A47813  33.267  26.798   6.862
 3724POPC   C4A47814  33.330  26.607   7.248
 3724POPC   C1B47815  32.798  26.986   6.262
 3724POPC   C2B47816  32.829  27.040   6.746
 3724POPC   C3B47817  32.999  27.132   7.190
 3724POPC   C4B47818  32.930  27.348   7.619
 3725POPC   NC347819  31.760  19.395   5.462
 3725POPC   PO447820  31.084  19.654   5.554
 3725POPC   GL147821  31.306  19.973   5.802
 3725POPC   GL247822  31.585  19.774   5.796
 3725POPC   C1A47823  31.554  20.004   6.225
 3725POPC   D2A47824  31.663  19.779   6.585
 3725POPC   C3A47825  31.537  19.864   7.022
 3725POPC   C4A47826  31.681  19.921   7.441
 3725POPC   C1B47827  31.753  19.524   6.119
 3725POPC   C2B47828  31.746  19.288   6.489
 3725POPC   C3B47829  31.616  19.364   6.881
 3725POPC   C4B47830  31.764  19.364   7.238
 3726POPC   NC347831  31.052  23.990   5.338
 3726POPC   PO447832  30.754  23.412   5.394
 3726POPC   GL147833  30.819  23.598   5.814
 3726POPC   GL247834  30.949  23.935   5.833
 3726POPC   C1A47835  30.540  23.624   6.213
 3726POPC   D2A47836  30.459  23.538   6.670
 3726POPC   C3A47837  30.514  23.934   6.903
 3726POPC   C4A47838  30.664  23.989   7.318
 3726POPC   C1B47839  31.022  23.793   6.251
 3726POPC   C2B47840  30.955  23.722   6.688
 3726POPC   C3B47841  30.960  23.612   7.116
 3726POPC   C4B47842  31.157  23.909   7.369
 3727POPC   NC347843   5.576  42.043   5.325
 3727POPC   PO447844   6.041  42.457   5.326
 3727POPC   GL147845   6.045  42.189   5.701
 3727POPC   GL247846   5.682  42.220   5.790
 3727POPC   C1A47847   6.176  42.179   6.169
 3727POPC   D2A47848   5.971  42.056   6.583
 3727POPC   C3A47849   6.135  42.186   6.981
 3727POPC   C4A47850   6.032  42.206   7.425
 3727POPC   C1B47851   5.474  42.500   6.107
 3727POPC   C2B47852   5.434  42.473   6.567
 3727POPC   C3B47853   5.598  42.228   6.916
 3727POPC   C4B47854   5.570  42.416   7.313
 3728POPC   NC347855  27.291  36.821   5.498
 3728POPC   PO447856  27.821  37.314   5.484
 3728POPC   GL147857  27.604  37.073   5.837
 3728POPC   GL247858  27.773  36.742   5.998
 3728POPC   C1A47859  27.683  37.147   6.256
 3728POPC   D2A47860  27.612  36.881   6.545
 3728POPC   C3A47861  27.853  36.953   6.886
 3728POPC   C4A47862  27.767  36.721   7.216
 3728POPC   C1B47863  27.336  36.673   6.152
 3728POPC   C2B47864  27.145  36.540   6.536
 3728POPC   C3B47865  27.322  36.704   6.919
 3728POPC   C4B47866  27.196  36.743   7.333
 3729POPC   NC347867  29.397  35.407   5.085
 3729POPC   PO447868  29.003  35.160   5.604
 3729POPC   GL147869  29.219  35.423   5.866
 3729POPC   GL247870  28.936  35.563   6.049
 3729POPC   C1A47871  29.288  35.300   6.295
 3729POPC   D2A47872  29.021  35.206   6.605
 3729POPC   C3A47873  29.085  35.498   6.910
 3729POPC   C4A47874  29.195  35.539   7.331
 3729POPC   C1B47875  28.638  35.207   6.140
 3729POPC   C2B47876  28.569  34.966   6.496
 3729POPC   C3B47877  28.579  35.129   6.894
 3729POPC   C4B47878  28.797  35.239   7.243
 3730POPC   NC347879  29.647  39.482   5.048
 3730POPC   PO447880  30.151  39.541   5.509
 3730POPC   GL147881  30.073  39.204   5.822
 3730POPC   GL247882  29.736  39.106   5.695
 3730POPC   C1A47883  30.122  39.062   6.269
 3730POPC   D2A47884  29.912  38.838   6.603
 3730POPC   C3A47885  29.744  39.126   6.878
 3730POPC   C4A47886  30.028  39.294   7.182
 3730POPC   C1B47887  29.620  39.073   6.155
 3730POPC   C2B47888  29.617  39.457   6.460
 3730POPC   C3B47889  29.568  39.623   6.888
 3730POPC   C4B47890  29.538  39.390   7.289
 3731POPC   NC347891  40.511  28.278   5.673
 3731POPC   PO447892  39.920  28.433   5.283
 3731POPC   GL147893  40.006  28.501   5.710
 3731POPC   GL247894  39.772  28.286   5.857
 3731POPC   C1A47895  40.042  28.611   6.156
 3731POPC   D2A47896  39.921  28.480   6.577
 3731POPC   C3A47897  40.151  28.407   6.917
 3731POPC   C4A47898  40.035  28.710   7.180
 3731POPC   C1B47899  39.950  28.088   6.241
 3731POPC   C2B47900  39.928  27.929   6.657
 3731POPC   C3B47901  39.746  28.099   7.039
 3731POPC   C4B47902  39.630  27.941   7.453
 3732POPC   NC347903  44.478  38.089   5.381
 3732POPC   PO447904  44.820  38.655   5.449
 3732POPC   GL147905   0.004  38.384   5.778
 3732POPC   GL247906  44.696  38.175   5.884
 3732POPC   C1A47907   0.027  38.407   6.237
 3732POPC   D2A47908  44.734  38.301   6.562
 3732POPC   C3A47909  44.843  38.538   6.900
 3732POPC   C4A47910  44.819  38.511   7.309
 3732POPC   C1B47911  44.363  38.116   6.233
 3732POPC   C2B47912  44.251  38.038   6.688
 3732POPC   C3B47913  44.468  38.207   7.051
 3732POPC   C4B47914  44.362  38.380   7.457
 3733POPC   NC347915  41.069  24.703   5.054
 3733POPC   PO447916  40.514  24.563   5.369
 3733POPC   GL147917  40.755  24.553   5.748
 3733POPC   GL247918  40.888  24.205   5.751
 3733POPC   C1A47919  40.613  24.611   6.176
 3733POPC   D2A47920  40.851  24.743   6.512
 3733POPC   C3A47921  40.658  24.650   6.849
 3733POPC   C4A47922  40.604  24.760   7.237
 3733POPC   C1B47923  40.982  24.291   6.213
 3733POPC   C2B47924  40.886  24.206   6.655
 3733POPC   C3B47925  41.070  24.350   7.051
 3733POPC   C4B47926  40.914  24.466   7.490
 3734POPC   NC347927  12.472  40.292   5.352
 3734POPC   PO447928  13.086  39.929   5.367
 3734POPC   GL147929  12.955  39.981   5.748
 3734POPC   GL247930  13.252  40.029   5.904
 3734POPC   C1A47931  12.811  40.053   6.155
 3734POPC   D2A47932  12.851  39.739   6.481
 3734POPC   C3A47933  12.772  39.916   6.866
 3734POPC   C4A47934  12.754  40.245   7.172
 3734POPC   C1B47935  13.288  40.032   6.332
 3734POPC   C2B47936  13.268  40.090   6.743
 3734POPC   C3B47937  13.224  39.885   7.126
 3734POPC   C4B47938  12.864  39.713   7.322
 3735POPC   NC347939   7.933  37.185   5.431
 3735POPC   PO447940   8.269  36.680   5.199
 3735POPC   GL147941   8.226  36.838   5.678
 3735POPC   GL247942   7.939  36.980   5.920
 3735POPC   C1A47943   8.462  36.932   6.076
 3735POPC   D2A47944   8.302  36.916   6.495
 3735POPC   C3A47945   8.448  36.993   6.918
 3735POPC   C4A47946   8.182  36.715   7.156
 3735POPC   C1B47947   7.791  36.976   6.374
 3735POPC   C2B47948   7.938  37.042   6.820
 3735POPC   C3B47949   7.853  37.100   7.257
 3735POPC   C4B47950   7.926  37.339   7.604
 3736POPC   NC347951  23.539   2.933   5.263
 3736POPC   PO447952  23.952   2.468   5.386
 3736POPC   GL147953  23.747   2.729   5.697
 3736POPC   GL247954  23.967   2.994   5.816
 3736POPC   C1A47955  23.503   2.958   6.027
 3736POPC   D2A47956  23.418   2.791   6.433
 3736POPC   C3A47957  23.382   2.890   6.897
 3736POPC   C4A47958  23.458   2.781   7.378
 3736POPC   C1B47959  23.895   2.688   6.198
 3736POPC   C2B47960  23.999   2.726   6.631
 3736POPC   C3B47961  23.864   2.755   7.048
 3736POPC   C4B47962  24.015   2.801   7.447
 3737POPC   NC347963  23.525  23.254   5.421
 3737POPC   PO447964  23.730  22.588   5.416
 3737POPC   GL147965  23.757  22.885   5.740
 3737POPC   GL247966  23.440  22.793   5.858
 3737POPC   C1A47967  23.757  23.116   6.150
 3737POPC   D2A47968  23.864  23.319   6.553
 3737POPC   C3A47969  23.769  23.160   6.974
 3737POPC   C4A47970  23.767  23.133   7.420
 3737POPC   C1B47971  23.376  22.712   6.308
 3737POPC   C2B47972  23.281  22.915   6.750
 3737POPC   C3B47973  23.323  22.963   7.220
 3737POPC   C4B47974  23.559  22.701   7.548
 3738POPC   NC347975  20.161  29.218   5.392
 3738POPC   PO447976  20.849  29.386   5.312
 3738POPC   GL147977  20.560  29.423   5.730
 3738POPC   GL247978  20.202  29.541   5.817
 3738POPC   C1A47979  20.589  29.213   6.146
 3738POPC   D2A47980  20.911  29.189   6.484
 3738POPC   C3A47981  20.803  29.044   6.900
 3738POPC   C4A47982  20.785  29.200   7.320
 3738POPC   C1B47983  20.304  29.628   6.260
 3738POPC   C2B47984  20.391  29.354   6.616
 3738POPC   C3B47985  20.438  29.440   7.052
 3738POPC   C4B47986  20.260  29.450   7.485
 3739POPC   NC347987   7.011   0.847   5.417
 3739POPC   PO447988   7.638   0.673   5.350
 3739POPC   GL147989   7.351   0.509   5.723
 3739POPC   GL247990   7.084   0.748   5.906
 3739POPC   C1A47991   7.435   0.499   6.172
 3739POPC   D2A47992   7.569   0.656   6.553
 3739POPC   C3A47993   7.558   0.390   6.888
 3739POPC   C4A47994   7.554   0.509   7.296
 3739POPC   C1B47995   6.982   0.659   6.352
 3739POPC   C2B47996   7.097   0.598   6.790
 3739POPC   C3B47997   7.049   0.512   7.209
 3739POPC   C4B47998   7.206   0.799   7.534
 3740POPC   NC347999  32.379  15.905   5.544
 3740POPC   PO448000  31.830  15.536   5.381
 3740POPC   GL148001  31.967  15.729   5.792
 3740POPC   GL248002  31.973  16.112   5.863
 3740POPC   C1A48003  32.222  15.765   6.182
 3740POPC   D2A48004  32.424  15.901   6.584
 3740POPC   C3A48005  32.174  15.844   6.972
 3740POPC   C4A48006  32.327  15.789   7.401
 3740POPC   C1B48007  32.175  16.269   6.278
 3740POPC   C2B48008  32.158  16.315   6.750
 3740POPC   C3B48009  32.214  16.303   7.214
 3740POPC   C4B48010  32.287  16.308   7.670
 3741POPC   NC348011   8.114  36.273   5.078
 3741POPC   PO448012   7.768  35.864   5.493
 3741POPC   GL148013   7.871  36.015   5.969
 3741POPC   GL248014   7.764  36.382   6.060
 3741POPC   C1A48015   8.206  36.048   6.288
 3741POPC   D2A48016   8.309  36.393   6.591
 3741POPC   C3A48017   8.303  36.237   7.013
 3741POPC   C4A48018   8.284  35.911   7.314
 3741POPC   C1B48019   7.797  36.269   6.504
 3741POPC   C2B48020   7.724  35.872   6.717
 3741POPC   C3B48021   7.808  35.904   7.138
 3741POPC   C4B48022   7.921  36.310   7.350
 3742POPC   NC348023  17.955  23.312   5.415
 3742POPC   PO448024  18.367  22.799   5.306
 3742POPC   GL148025  18.285  22.976   5.711
 3742POPC   GL248026  17.983  22.815   5.791
 3742POPC   C1A48027  18.248  23.077   6.177
 3742POPC   D2A48028  18.031  23.155   6.593
 3742POPC   C3A48029  18.324  23.208   6.953
 3742POPC   C4A48030  18.626  22.999   7.235
 3742POPC   C1B48031  17.830  22.800   6.244
 3742POPC   C2B48032  17.883  22.676   6.661
 3742POPC   C3B48033  17.988  22.830   7.036
 3742POPC   C4B48034  17.796  22.651   7.343
 3743POPC   NC348035  36.117  35.737   5.298
 3743POPC   PO448036  36.586  35.195   5.486
 3743POPC   GL148037  36.244  35.295   5.766
 3743POPC   GL248038  35.972  35.033   5.859
 3743POPC   C1A48039  36.268  35.377   6.202
 3743POPC   D2A48040  36.449  35.283   6.615
 3743POPC   C3A48041  36.381  35.514   6.990
 3743POPC   C4A48042  36.205  35.407   7.399
 3743POPC   C1B48043  35.753  35.209   6.226
 3743POPC   C2B48044  35.936  35.338   6.597
 3743POPC   C3B48045  36.022  35.135   6.938
 3743POPC   C4B48046  35.625  35.026   7.135
 3744POPC   NC348047  36.955  16.093   5.203
 3744POPC   PO448048  36.597  15.602   5.500
 3744POPC   GL148049  36.944  15.840   5.660
 3744POPC   GL248050  36.753  16.133   5.699
 3744POPC   C1A48051  37.105  15.984   6.080
 3744POPC   D2A48052  37.114  15.697   6.463
 3744POPC   C3A48053  36.931  15.817   6.871
 3744POPC   C4A48054  36.928  16.196   7.125
 3744POPC   C1B48055  36.631  15.861   6.086
 3744POPC   C2B48056  36.618  15.993   6.491
 3744POPC   C3B48057  36.412  15.733   6.760
 3744POPC   C4B48058  36.519  15.671   7.151
 3745POPC   NC348059  30.890  31.694   5.402
 3745POPC   PO448060  30.433  31.182   5.460
 3745POPC   GL148061  30.579  31.401   5.779
 3745POPC   GL248062  30.913  31.301   5.746
 3745POPC   C1A48063  30.531  31.566   6.190
 3745POPC   D2A48064  30.436  31.363   6.579
 3745POPC   C3A48065  30.594  31.482   6.966
 3745POPC   C4A48066  30.469  31.688   7.338
 3745POPC   C1B48067  31.016  31.450   6.147
 3745POPC   C2B48068  30.941  31.297   6.584
 3745POPC   C3B48069  31.046  31.251   7.036
 3745POPC   C4B48070  30.857  31.330   7.466
 3746POPC   NC348071  44.851   8.388   5.539
 3746POPC   PO448072  44.417   7.951   5.611
 3746POPC   GL148073  44.487   7.954   6.011
 3746POPC   GL248074  44.833   8.050   5.967
 3746POPC   C1A48075  44.577   8.076   6.435
 3746POPC   D2A48076  44.992   8.093   6.623
 3746POPC   C3A48077  44.956   7.933   7.029
 3746POPC   C4A48078  44.735   8.119   7.381
 3746POPC   C1B48079  44.848   8.464   6.218
 3746POPC   C2B48080   0.028   8.622   6.651
 3746POPC   C3B48081  44.920   8.551   7.108
 3746POPC   C4B48082   0.062   8.506   7.562
 3747POPC   NC348083  28.293  38.549   5.360
 3747POPC   PO448084  27.776  38.269   5.517
 3747POPC   GL148085  28.115  38.345   5.803
 3747POPC   GL248086  28.423  38.204   5.721
 3747POPC   C1A48087  28.155  38.397   6.258
 3747POPC   D2A48088  28.182  38.368   6.719
 3747POPC   C3A48089  28.587  38.538   6.904
 3747POPC   C4A48090  28.540  38.478   7.317
 3747POPC   C1B48091  28.489  38.016   6.114
 3747POPC   C2B48092  28.615  38.151   6.520
 3747POPC   C3B48093  28.526  38.044   6.944
 3747POPC   C4B48094  28.826  38.028   7.230
 3748POPC   NC348095  25.176   6.392   5.370
 3748POPC   PO448096  25.364   7.048   5.396
 3748POPC   GL148097  25.254   6.724   5.753
 3748POPC   GL248098  25.479   6.415   5.783
 3748POPC   C1A48099  25.012   6.509   6.131
 3748POPC   D2A48100  24.876   6.634   6.587
 3748POPC   C3A48101  25.090   6.754   7.016
 3748POPC   C4A48102  25.521   6.896   7.226
 3748POPC   C1B48103  25.533   6.581   6.172
 3748POPC   C2B48104  25.359   6.437   6.521
 3748POPC   C3B48105  25.518   6.509   6.897
 3748POPC   C4B48106  25.363   6.415   7.304
 3749POPC   NC348107  40.568  21.997   5.295
 3749POPC   PO448108  40.934  22.504   5.320
 3749POPC   GL148109  40.717  22.303   5.702
 3749POPC   GL248110  40.879  21.955   5.693
 3749POPC   C1A48111  40.707  22.341   6.195
 3749POPC   D2A48112  40.909  22.221   6.624
 3749POPC   C3A48113  40.766  22.441   6.978
 3749POPC   C4A48114  40.420  22.487   7.216
 3749POPC   C1B48115  40.587  21.882   6.009
 3749POPC   C2B48116  40.579  21.880   6.447
 3749POPC   C3B48117  40.567  21.898   6.902
 3749POPC   C4B48118  40.492  21.770   7.339
 3750POPC   NC348119  38.384  12.600   5.234
 3750POPC   PO448120  38.620  11.903   5.257
 3750POPC   GL148121  38.497  12.029   5.724
 3750POPC   GL248122  38.730  12.240   5.929
 3750POPC   C1A48123  38.275  11.857   6.137
 3750POPC   D2A48124  38.030  11.799   6.575
 3750POPC   C3A48125  38.154  12.003   6.979
 3750POPC   C4A48126  38.408  12.339   7.206
 3750POPC   C1B48127  38.747  12.482   6.311
 3750POPC   C2B48128  38.533  12.414   6.702
 3750POPC   C3B48129  38.668  12.028   6.904
 3750POPC   C4B48130  38.996  11.767   7.047
 3751POPC   NC348131  40.284  16.050   5.427
 3751POPC   PO448132  39.765  15.696   5.440
 3751POPC   GL148133  39.927  15.901   5.769
 3751POPC   GL248134  40.181  15.623   5.760
 3751POPC   C1A48135  39.965  16.228   6.133
 3751POPC   D2A48136  39.948  16.418   6.567
 3751POPC   C3A48137  39.955  16.228   6.968
 3751POPC   C4A48138  39.992  15.954   7.325
 3751POPC   C1B48139  40.055  15.708   6.198
 3751POPC   C2B48140  39.957  15.890   6.553
 3751POPC   C3B48141  39.999  15.699   6.906
 3751POPC   C4B48142  40.343  15.562   7.150
 3752POPC   NC348143   2.751  25.085   5.254
 3752POPC   PO448144   2.914  25.723   5.414
 3752POPC   GL148145   2.653  25.421   5.677
 3752POPC   GL248146   2.711  25.060   5.768
 3752POPC   C1A48147   2.619  25.416   6.145
 3752POPC   D2A48148   2.484  25.242   6.536
 3752POPC   C3A48149   2.586  25.448   6.908
 3752POPC   C4A48150   2.682  25.301   7.287
 3752POPC   C1B48151   2.527  24.874   6.157
 3752POPC   C2B48152   2.408  24.742   6.598
 3752POPC   C3B48153   2.323  24.986   6.998
 3752POPC   C4B48154   2.396  24.920   7.464
 3753POPC   NC348155  29.119  41.302   5.281
 3753POPC   PO448156  29.496  41.727   5.606
 3753POPC   GL148157  29.182  41.461   5.808
 3753POPC   GL248158  29.012  41.181   5.983
 3753POPC   C1A48159  29.155  41.624   6.230
 3753POPC   D2A48160  29.087  41.469   6.605
 3753POPC   C3A48161  29.153  41.731   6.947
 3753POPC   C4A48162  28.836  41.509   7.200
 3753POPC   C1B48163  29.316  40.965   6.256
 3753POPC   C2B48164  29.460  41.071   6.661
 3753POPC   C3B48165  29.250  41.212   7.023
 3753POPC   C4B48166  29.347  41.332   7.433
 3754POPC   NC348167   2.523  42.563   5.460
 3754POPC   PO448168   1.824  42.281   5.369
 3754POPC   GL148169   1.873  42.528   5.737
 3754POPC   GL248170   2.190  42.419   5.837
 3754POPC   C1A48171   1.776  42.387   6.153
 3754POPC   D2A48172   1.775  42.114   6.511
 3754POPC   C3A48173   1.793  42.339   6.889
 3754POPC   C4A48174   1.585  42.299   7.251
 3754POPC   C1B48175   2.269  42.249   6.255
 3754POPC   C2B48176   2.290  42.208   6.701
 3754POPC   C3B48177   2.171  42.060   7.087
 3754POPC   C4B48178   2.363  42.375   7.310
 3755POPC   NC348179   5.942  31.048   5.460
 3755POPC   PO448180   5.623  30.425   5.561
 3755POPC   GL148181   5.978  30.407   5.799
 3755POPC   GL248182   6.017  30.720   5.860
 3755POPC   C1A48183   6.115  30.391   6.219
 3755POPC   D2A48184   5.973  30.582   6.574
 3755POPC   C3A48185   6.030  30.403   6.943
 3755POPC   C4A48186   6.023  30.730   7.229
 3755POPC   C1B48187   5.658  30.642   6.158
 3755POPC   C2B48188   5.447  30.666   6.546
 3755POPC   C3B48189   5.621  30.765   6.935
 3755POPC   C4B48190   5.502  30.728   7.359
 3756POPC   NC348191  41.543   2.692   5.333
 3756POPC   PO448192  41.220   3.225   5.535
 3756POPC   GL148193  41.551   2.990   5.762
 3756POPC   GL248194  41.401   2.678   5.914
 3756POPC   C1A48195  41.722   3.033   6.194
 3756POPC   D2A48196  41.568   2.786   6.585
 3756POPC   C3A48197  41.652   2.907   7.029
 3756POPC   C4A48198  41.707   3.119   7.450
 3756POPC   C1B48199  41.318   2.397   6.302
 3756POPC   C2B48200  41.543   2.282   6.716
 3756POPC   C3B48201  41.687   2.360   7.156
 3756POPC   C4B48202  41.534   2.652   7.478
 3757POPC   NC348203  41.271  14.811   5.295
 3757POPC   PO448204  41.561  15.345   5.574
 3757POPC   GL148205  41.463  14.974   5.780
 3757POPC   GL248206  41.749  14.785   5.914
 3757POPC   C1A48207  41.422  15.049   6.216
 3757POPC   D2A48208  41.152  15.021   6.557
 3757POPC   C3A48209  41.390  15.033   6.917
 3757POPC   C4A48210  41.458  15.325   7.250
 3757POPC   C1B48211  41.917  14.855   6.345
 3757POPC   C2B48212  41.846  14.756   6.793
 3757POPC   C3B48213  41.746  14.830   7.223
 3757POPC   C4B48214  41.850  15.041   7.597
 3758POPC   NC348215  12.537  20.427   5.594
 3758POPC   PO448216  13.061  20.811   5.355
 3758POPC   GL148217  12.903  20.750   5.786
 3758POPC   GL248218  12.577  20.879   5.899
 3758POPC   C1A48219  12.993  20.866   6.229
 3758POPC   D2A48220  12.813  20.817   6.634
 3758POPC   C3A48221  12.982  20.641   7.014
 3758POPC   C4A48222  12.979  20.814   7.423
 3758POPC   C1B48223  12.636  20.508   6.239
 3758POPC   C2B48224  12.626  20.349   6.681
 3758POPC   C3B48225  12.401  20.489   7.036
 3758POPC   C4B48226  12.502  20.532   7.459
 3759POPC   NC348227  13.989  38.860   5.525
 3759POPC   PO448228  14.284  39.481   5.396
 3759POPC   GL148229  14.373  39.285   5.796
 3759POPC   GL248230  14.098  39.073   5.958
 3759POPC   C1A48231  14.513  39.233   6.227
 3759POPC   D2A48232  14.483  39.451   6.604
 3759POPC   C3A48233  14.528  39.341   7.005
 3759POPC   C4A48234  14.329  39.114   7.302
 3759POPC   C1B48235  14.209  38.837   6.284
 3759POPC   C2B48236  14.282  38.959   6.709
 3759POPC   C3B48237  14.047  38.782   7.052
 3759POPC   C4B48238  14.004  38.769   7.502
 3760POPC   NC348239   4.827   6.795   5.423
 3760POPC   PO448240   5.468   6.591   5.381
 3760POPC   GL148241   5.214   6.658   5.746
 3760POPC   GL248242   5.386   6.567   6.046
 3760POPC   C1A48243   4.875   6.681   6.074
 3760POPC   D2A48244   4.805   6.380   6.375
 3760POPC   C3A48245   4.702   6.410   6.810
 3760POPC   C4A48246   4.787   6.641   7.174
 3760POPC   C1B48247   5.309   6.388   6.468
 3760POPC   C2B48248   5.209   6.491   6.902
 3760POPC   C3B48249   5.327   6.623   7.340
 3760POPC   C4B48250   5.544   6.436   7.717
 3761POPC   NC348251   6.120  31.811   5.507
 3761POPC   PO448252   5.628  31.414   5.410
 3761POPC   GL148253   5.852  31.435   5.798
 3761POPC   GL248254   5.751  31.130   5.922
 3761POPC   C1A48255   5.815  31.509   6.252
 3761POPC   D2A48256   6.030  31.727   6.570
 3761POPC   C3A48257   6.187  31.583   6.913
 3761POPC   C4A48258   6.335  31.681   7.280
 3761POPC   C1B48259   5.985  31.021   6.305
 3761POPC   C2B48260   5.957  31.118   6.758
 3761POPC   C3B48261   5.739  31.402   7.044
 3761POPC   C4B48262   5.724  31.834   7.091
 3762POPC   NC348263  21.752  10.400   5.235
 3762POPC   PO448264  22.380  10.334   5.718
 3762POPC   GL148265  22.460  10.405   6.089
 3762POPC   GL248266  22.208  10.672   6.048
 3762POPC   C1A48267  22.416  10.148   6.444
 3762POPC   D2A48268  22.075  10.112   6.716
 3762POPC   C3A48269  22.203  10.254   7.131
 3762POPC   C4A48270  22.066  10.481   7.483
 3762POPC   C1B48271  22.058  10.559   6.440
 3762POPC   C2B48272  22.322  10.611   6.791
 3762POPC   C3B48273  22.478  10.668   7.211
 3762POPC   C4B48274  22.394  10.833   7.599
 3763POPC   NC348275  41.120  28.579   5.468
 3763POPC   PO448276  41.772  28.550   5.271
 3763POPC   GL148277  41.546  28.434   5.719
 3763POPC   GL248278  41.491  28.068   5.801
 3763POPC   C1A48279  41.325  28.531   6.154
 3763POPC   D2A48280  41.225  28.300   6.556
 3763POPC   C3A48281  41.361  28.440   6.987
 3763POPC   C4A48282  41.298  28.259   7.444
 3763POPC   C1B48283  41.679  28.178   6.200
 3763POPC   C2B48284  41.777  28.182   6.617
 3763POPC   C3B48285  41.964  28.416   6.915
 3763POPC   C4B48286  41.782  28.374   7.289
 3764POPC   NC348287  38.038  26.998   5.471
 3764POPC   PO448288  37.507  26.668   5.227
 3764POPC   GL148289  37.562  26.848   5.640
 3764POPC   GL248290  37.517  27.192   5.758
 3764POPC   C1A48291  37.511  26.779   6.075
 3764POPC   D2A48292  37.490  27.035   6.436
 3764POPC   C3A48293  37.694  26.810   6.766
 3764POPC   C4A48294  37.591  26.732   7.185
 3764POPC   C1B48295  37.872  27.155   6.076
 3764POPC   C2B48296  38.158  27.112   6.431
 3764POPC   C3B48297  38.052  27.161   6.836
 3764POPC   C4B48298  37.941  27.171   7.241
 3765POPC   NC348299   6.042  44.208   5.286
 3765POPC   PO448300   6.167  44.919   5.250
 3765POPC   GL148301   5.966  44.829   5.659
 3765POPC   GL248302   5.889  44.486   5.707
 3765POPC   C1A48303   5.888  44.882   6.094
 3765POPC   D2A48304   5.835  44.687   6.480
 3765POPC   C3A48305   5.919  44.848   6.848
 3765POPC   C4A48306   5.902  44.742   7.261
 3765POPC   C1B48307   6.084  44.417   6.119
 3765POPC   C2B48308   6.260  44.414   6.574
 3765POPC   C3B48309   6.057  44.346   6.988
 3765POPC   C4B48310   6.142  44.371   7.479
 3766POPC   NC348311   7.317   3.769   5.427
 3766POPC   PO448312   7.318   3.176   5.142
 3766POPC   GL148313   7.341   3.313   5.654
 3766POPC   GL248314   7.318   3.653   5.901
 3766POPC   C1A48315   7.566   3.277   6.088
 3766POPC   D2A48316   7.335   3.423   6.462
 3766POPC   C3A48317   7.508   3.357   6.871
 3766POPC   C4A48318   7.353   3.430   7.280
 3766POPC   C1B48319   7.389   3.935   6.232
 3766POPC   C2B48320   7.626   4.046   6.588
 3766POPC   C3B48321   7.480   3.859   6.958
 3766POPC   C4B48322   7.483   3.944   7.381
 3767POPC   NC348323  23.639  32.050   5.326
 3767POPC   PO448324  24.066  32.463   5.693
 3767POPC   GL148325  23.678  32.246   5.801
 3767POPC   GL248326  23.335  32.413   5.828
 3767POPC   C1A48327  23.589  32.136   6.204
 3767POPC   D2A48328  23.852  32.322   6.522
 3767POPC   C3A48329  23.766  32.184   6.923
 3767POPC   C4A48330  23.861  32.325   7.315
 3767POPC   C1B48331  23.459  32.622   6.245
 3767POPC   C2B48332  23.378  32.404   6.636
 3767POPC   C3B48333  23.362  32.487   7.039
 3767POPC   C4B48334  23.376  32.242   7.351
 3768POPC   NC348335  11.452  36.954   5.309
 3768POPC   PO448336  10.881  37.097   5.736
 3768POPC   GL148337  11.290  36.992   5.781
 3768POPC   GL248338  11.590  37.201   5.763
 3768POPC   C1A48339  11.477  36.784   6.109
 3768POPC   D2A48340  11.336  36.952   6.496
 3768POPC   C3A48341  11.448  36.736   6.835
 3768POPC   C4A48342  11.212  36.644   7.148
 3768POPC   C1B48343  11.633  37.295   6.222
 3768POPC   C2B48344  11.486  37.436   6.652
 3768POPC   C3B48345  11.303  37.205   6.998
 3768POPC   C4B48346  11.525  37.024   7.320
 3769POPC   NC348347   2.498  39.321   5.404
 3769POPC   PO448348   3.146  39.132   5.354
 3769POPC   GL148349   2.979  39.217   5.830
 3769POPC   GL248350   2.673  39.429   5.876
 3769POPC   C1A48351   2.911  39.359   6.327
 3769POPC   D2A48352   2.688  39.311   6.763
 3769POPC   C3A48353   2.847  39.363   7.186
 3769POPC   C4A48354   3.049  39.469   7.587
 3769POPC   C1B48355   2.573  39.043   6.124
 3769POPC   C2B48356   2.667  38.840   6.567
 3769POPC   C3B48357   2.571  38.861   7.020
 3769POPC   C4B48358   2.379  39.186   7.258
 3770POPC   NC348359  10.938   6.112   5.344
 3770POPC   PO448360  11.561   5.915   5.497
 3770POPC   GL148361  11.260   5.767   5.756
 3770POPC   GL248362  11.506   5.502   5.869
 3770POPC   C1A48363  11.102   5.709   6.153
 3770POPC   D2A48364  11.364   5.852   6.494
 3770POPC   C3A48365  11.236   5.894   6.905
 3770POPC   C4A48366  11.320   5.911   7.333
 3770POPC   C1B48367  11.414   5.346   6.304
 3770POPC   C2B48368  11.460   5.403   6.716
 3770POPC   C3B48369  11.571   5.530   7.099
 3770POPC   C4B48370  11.425   5.412   7.500
 3771POPC   NC348371  11.065  19.923   5.529
 3771POPC   PO448372  10.435  19.828   5.265
 3771POPC   GL148373  10.530  19.980   5.684
 3771POPC   GL248374  10.570  19.688   5.913
 3771POPC   C1A48375  10.575  20.150   6.133
 3771POPC   D2A48376  10.703  19.950   6.517
 3771POPC   C3A48377  10.647  20.158   6.906
 3771POPC   C4A48378  10.520  19.924   7.271
 3771POPC   C1B48379  10.620  19.449   6.307
 3771POPC   C2B48380  10.546  19.484   6.756
 3771POPC   C3B48381  10.543  19.392   7.184
 3771POPC   C4B48382  10.595  19.515   7.600
 3772POPC   NC348383  17.249  41.418   5.491
 3772POPC   PO448384  17.772  41.780   5.325
 3772POPC   GL148385  17.549  41.871   5.753
 3772POPC   GL248386  17.342  41.603   5.960
 3772POPC   C1A48387  17.465  42.014   6.219
 3772POPC   D2A48388  17.195  41.863   6.561
 3772POPC   C3A48389  17.462  41.692   6.868
 3772POPC   C4A48390  17.380  41.725   7.281
 3772POPC   C1B48391  17.272  41.357   6.376
 3772POPC   C2B48392  17.466  41.171   6.772
 3772POPC   C3B48393  17.552  41.267   7.221
 3772POPC   C4B48394  17.193  41.261   7.564
 3773POPC   NC348395   0.700  33.385   5.169
 3773POPC   PO448396   0.324  33.945   5.160
 3773POPC   GL148397   0.402  33.878   5.613
 3773POPC   GL248398   0.700  33.669   5.675
 3773POPC   C1A48399   0.357  33.838   6.077
 3773POPC   D2A48400   0.467  33.975   6.492
 3773POPC   C3A48401   0.333  33.799   6.839
 3773POPC   C4A48402   0.251  34.107   7.129
 3773POPC   C1B48403   0.736  33.473   6.093
 3773POPC   C2B48404   0.621  33.433   6.535
 3773POPC   C3B48405   0.769  33.537   6.933
 3773POPC   C4B48406   0.846  33.418   7.324
 3774POPC   NC348407  13.129  33.465   5.499
 3774POPC   PO448408  12.410  33.609   5.385
 3774POPC   GL148409  12.700  33.599   5.765
 3774POPC   GL248410  12.692  33.928   5.892
 3774POPC   C1A48411  12.941  33.460   6.136
 3774POPC   D2A48412  13.054  33.391   6.575
 3774POPC   C3A48413  12.721  33.492   6.866
 3774POPC   C4A48414  12.893  33.694   7.204
 3774POPC   C1B48415  12.942  33.939   6.281
 3774POPC   C2B48416  13.033  33.887   6.716
 3774POPC   C3B48417  13.074  34.171   7.060
 3774POPC   C4B48418  12.993  34.100   7.506
 3775POPC   NC348419  44.378  25.517   5.329
 3775POPC   PO448420  44.644  24.987   5.595
 3775POPC   GL148421  44.666  25.390   5.795
 3775POPC   GL248422  44.778  25.164   6.045
 3775POPC   C1A48423  44.778  25.623   6.194
 3775POPC   D2A48424  44.540  25.531   6.542
 3775POPC   C3A48425  44.635  25.624   6.950
 3775POPC   C4A48426  44.346  25.652   7.271
 3775POPC   C1B48427  44.575  25.034   6.416
 3775POPC   C2B48428  44.609  25.111   6.852
 3775POPC   C3B48429  44.534  25.179   7.285
 3775POPC   C4B48430  44.474  24.929   7.616
 3776POPC   NC348431  24.302  17.634   5.214
 3776POPC   PO448432  24.645  17.161   5.340
 3776POPC   GL148433  24.577  17.503   5.677
 3776POPC   GL248434  24.322  17.793   5.709
 3776POPC   C1A48435  24.441  17.477   6.111
 3776POPC   D2A48436  24.545  17.351   6.513
 3776POPC   C3A48437  24.353  17.247   6.923
 3776POPC   C4A48438  24.556  17.301   7.331
 3776POPC   C1B48439  24.281  17.941   6.161
 3776POPC   C2B48440  24.150  17.725   6.551
 3776POPC   C3B48441  24.089  17.712   7.007
 3776POPC   C4B48442  24.312  17.726   7.397
 3777POPC   NC348443  23.798  41.872   5.384
 3777POPC   PO448444  23.563  41.211   5.492
 3777POPC   GL148445  23.795  41.510   5.783
 3777POPC   GL248446  24.017  41.831   5.835
 3777POPC   C1A48447  23.721  41.630   6.229
 3777POPC   D2A48448  23.870  41.542   6.665
 3777POPC   C3A48449  23.505  41.623   6.961
 3777POPC   C4A48450  23.307  41.554   7.367
 3777POPC   C1B48451  23.910  42.101   6.194
 3777POPC   C2B48452  23.731  42.025   6.585
 3777POPC   C3B48453  23.865  41.959   7.003
 3777POPC   C4B48454  23.593  41.989   7.367
 3778POPC   NC348455  17.683  43.925   5.574
 3778POPC   PO448456  17.258  43.464   5.536
 3778POPC   GL148457  17.390  43.665   5.918
 3778POPC   GL248458  17.742  43.675   6.029
 3778POPC   C1A48459  17.304  43.987   6.209
 3778POPC   D2A48460  17.022  43.976   6.543
 3778POPC   C3A48461  17.197  43.969   6.965
 3778POPC   C4A48462  17.336  43.796   7.365
 3778POPC   C1B48463  17.800  44.070   6.260
 3778POPC   C2B48464  17.632  44.079   6.686
 3778POPC   C3B48465  17.783  43.904   7.068
 3778POPC   C4B48466  17.831  43.941   7.517
 3779POPC   NC348467  41.168  35.022   5.530
 3779POPC   PO448468  41.911  34.951   5.499
 3779POPC   GL148469  41.763  35.131   5.897
 3779POPC   GL248470  41.430  35.274   5.887
 3779POPC   C1A48471  41.676  35.298   6.335
 3779POPC   D2A48472  41.562  35.697   6.555
 3779POPC   C3A48473  41.707  35.654   6.931
 3779POPC   C4A48474  41.634  35.221   7.092
 3779POPC   C1B48475  41.212  35.506   6.204
 3779POPC   C2B48476  41.210  35.329   6.597
 3779POPC   C3B48477  41.215  35.530   6.964
 3779POPC   C4B48478  40.948  35.667   7.246
 3780POPC   NC348479   8.078  10.983   5.562
 3780POPC   PO448480   8.173  11.613   5.404
 3780POPC   GL148481   8.294  11.422   5.803
 3780POPC   GL248482   8.470  11.150   5.872
 3780POPC   C1A48483   8.048  11.273   6.187
 3780POPC   D2A48484   8.003  11.434   6.598
 3780POPC   C3A48485   7.995  11.157   6.958
 3780POPC   C4A48486   7.729  10.978   7.280
 3780POPC   C1B48487   8.535  11.285   6.257
 3780POPC   C2B48488   8.373  11.076   6.587
 3780POPC   C3B48489   8.482  10.931   6.956
 3780POPC   C4B48490   8.305  10.912   7.368
 3781POPC   NC348491  23.219  43.218   5.457
 3781POPC   PO448492  22.701  42.846   5.430
 3781POPC   GL148493  22.857  43.034   5.783
 3781POPC   GL248494  22.805  43.354   5.804
 3781POPC   C1A48495  22.726  43.051   6.212
 3781POPC   D2A48496  22.598  42.785   6.524
 3781POPC   C3A48497  22.783  42.897   6.910
 3781POPC   C4A48498  22.633  42.816   7.305
 3781POPC   C1B48499  22.937  43.523   6.222
 3781POPC   C2B48500  23.266  43.415   6.555
 3781POPC   C3B48501  23.265  43.304   6.993
 3781POPC   C4B48502  22.925  43.245   7.261
 3782POPC   NC348503  29.731  35.947   5.382
 3782POPC   PO448504  29.655  36.596   5.512
 3782POPC   GL148505  29.798  36.326   5.915
 3782POPC   GL248506  29.827  35.992   5.874
 3782POPC   C1A48507  29.839  36.182   6.373
 3782POPC   D2A48508  29.595  36.406   6.713
 3782POPC   C3A48509  29.644  36.282   7.136
 3782POPC   C4A48510  29.890  36.158   7.470
 3782POPC   C1B48511  30.158  35.814   6.125
 3782POPC   C2B48512  30.199  35.823   6.560
 3782POPC   C3B48513  30.002  36.012   6.890
 3782POPC   C4B48514  30.194  35.842   7.226
 3783POPC   NC348515   5.160  28.518   5.398
 3783POPC   PO448516   4.527  28.489   5.352
 3783POPC   GL148517   4.754  28.486   5.752
 3783POPC   GL248518   5.059  28.652   5.872
 3783POPC   C1A48519   4.837  28.291   6.182
 3783POPC   D2A48520   5.047  28.455   6.571
 3783POPC   C3A48521   5.075  28.261   6.992
 3783POPC   C4A48522   5.138  28.409   7.413
 3783POPC   C1B48523   5.329  28.275   6.040
 3783POPC   C2B48524   5.384  28.054   6.439
 3783POPC   C3B48525   5.549  28.141   6.840
 3783POPC   C4B48526   5.464  27.971   7.250
 3784POPC   NC348527  27.731  12.498   5.394
 3784POPC   PO448528  28.028  13.129   5.478
 3784POPC   GL148529  27.700  12.903   5.719
 3784POPC   GL248530  27.710  12.556   5.893
 3784POPC   C1A48531  27.448  12.994   6.080
 3784POPC   D2A48532  27.635  13.117   6.471
 3784POPC   C3A48533  27.474  12.885   6.827
 3784POPC   C4A48534  27.643  12.997   7.217
 3784POPC   C1B48535  27.936  12.832   6.167
 3784POPC   C2B48536  28.138  12.994   6.519
 3784POPC   C3B48537  27.990  12.775   6.890
 3784POPC   C4B48538  27.829  12.503   7.198
 3785POPC   NC348539  31.254  21.789   5.350
 3785POPC   PO448540  31.910  21.561   5.288
 3785POPC   GL148541  31.703  21.422   5.696
 3785POPC   GL248542  31.345  21.307   5.648
 3785POPC   C1A48543  31.751  21.514   6.161
 3785POPC   D2A48544  31.647  21.396   6.599
 3785POPC   C3A48545  31.764  21.500   7.049
 3785POPC   C4A48546  31.709  21.364   7.491
 3785POPC   C1B48547  31.233  21.405   6.094
 3785POPC   C2B48548  31.178  21.570   6.511
 3785POPC   C3B48549  31.280  21.536   6.931
 3785POPC   C4B48550  31.304  21.178   7.223
 3786POPC   NC348551  30.360  29.133   5.407
 3786POPC   PO448552  30.953  28.868   5.393
 3786POPC   GL148553  30.715  28.918   5.774
 3786POPC   GL248554  30.666  29.299   5.822
 3786POPC   C1A48555  30.650  28.981   6.241
 3786POPC   D2A48556  30.374  29.215   6.556
 3786POPC   C3A48557  30.484  29.224   7.005
 3786POPC   C4A48558  30.875  29.033   7.097
 3786POPC   C1B48559  30.695  29.490   6.260
 3786POPC   C2B48560  30.936  29.308   6.624
 3786POPC   C3B48561  31.102  29.496   7.025
 3786POPC   C4B48562  30.837  29.570   7.391
 3787POPC   NC348563  32.874  25.406   5.169
 3787POPC   PO448564  32.981  24.759   5.411
 3787POPC   GL148565  32.931  25.136   5.650
 3787POPC   GL248566  33.185  25.381   5.564
 3787POPC   C1A48567  32.789  25.139   6.101
 3787POPC   D2A48568  32.787  24.984   6.523
 3787POPC   C3A48569  32.719  25.226   6.867
 3787POPC   C4A48570  32.825  25.192   7.282
 3787POPC   C1B48571  33.181  25.451   5.982
 3787POPC   C2B48572  33.162  25.357   6.420
 3787POPC   C3B48573  33.219  25.355   6.864
 3787POPC   C4B48574  33.342  25.314   7.278
 3788POPC   NC348575   8.265  31.709   5.351
 3788POPC   PO448576   7.857  31.146   5.499
 3788POPC   GL148577   8.207  31.337   5.735
 3788POPC   GL248578   8.476  31.130   5.876
 3788POPC   C1A48579   8.301  31.575   6.126
 3788POPC   D2A48580   8.047  31.774   6.452
 3788POPC   C3A48581   8.122  31.734   6.889
 3788POPC   C4A48582   7.884  31.882   7.258
 3788POPC   C1B48583   8.274  31.076   6.277
 3788POPC   C2B48584   8.435  31.253   6.654
 3788POPC   C3B48585   8.432  31.144   7.072
 3788POPC   C4B48586   8.070  31.115   7.403
 3789POPC   NC348587  26.743  26.265   5.468
 3789POPC   PO448588  26.511  25.654   5.231
 3789POPC   GL148589  26.522  25.826   5.750
 3789POPC   GL248590  26.809  26.074   5.934
 3789POPC   C1A48591  26.669  25.687   6.188
 3789POPC   D2A48592  26.877  25.953   6.478
 3789POPC   C3A48593  26.839  25.816   6.861
 3789POPC   C4A48594  26.650  25.751   7.229
 3789POPC   C1B48595  27.146  26.304   6.178
 3789POPC   C2B48596  27.084  26.405   6.603
 3789POPC   C3B48597  27.221  26.246   6.940
 3789POPC   C4B48598  27.064  26.128   7.313
 3790POPC   NC348599  11.115  20.845   5.560
 3790POPC   PO448600  11.403  20.229   5.373
 3790POPC   GL148601  11.324  20.418   5.786
 3790POPC   GL248602  11.578  20.687   5.825
 3790POPC   C1A48603  11.270  20.516   6.253
 3790POPC   D2A48604  11.548  20.448   6.648
 3790POPC   C3A48605  11.223  20.524   6.969
 3790POPC   C4A48606  10.825  20.595   7.225
 3790POPC   C1B48607  11.675  20.809   6.260
 3790POPC   C2B48608  11.447  20.948   6.642
 3790POPC   C3B48609  11.526  20.906   7.095
 3790POPC   C4B48610  11.228  20.810   7.423
 3791POPC   NC348611  17.099  31.510   5.513
 3791POPC   PO448612  17.769  31.488   5.634
 3791POPC   GL148613  17.435  31.740   5.817
 3791POPC   GL248614  17.291  31.456   5.989
 3791POPC   C1A48615  17.147  31.918   6.123
 3791POPC   D2A48616  17.116  31.684   6.490
 3791POPC   C3A48617  17.142  31.752   6.930
 3791POPC   C4A48618  17.375  31.425   7.167
 3791POPC   C1B48619  17.421  31.289   6.364
 3791POPC   C2B48620  17.768  31.355   6.633
 3791POPC   C3B48621  18.019  31.246   6.974
 3791POPC   C4B48622  17.865  31.474   7.297
 3792POPC   NC348623  25.281   2.889   5.291
 3792POPC   PO448624  25.155   2.251   5.475
 3792POPC   GL148625  25.413   2.610   5.706
 3792POPC   GL248626  25.141   2.799   5.769
 3792POPC   C1A48627  25.526   2.867   6.088
 3792POPC   D2A48628  25.325   2.841   6.496
 3792POPC   C3A48629  25.365   3.121   6.837
 3792POPC   C4A48630  25.616   3.235   7.223
 3792POPC   C1B48631  25.158   2.470   6.120
 3792POPC   C2B48632  24.987   2.474   6.520
 3792POPC   C3B48633  25.109   2.448   6.933
 3792POPC   C4B48634  24.811   2.305   7.237
 3793POPC   NC348635  18.878   5.763   5.404
 3793POPC   PO448636  19.301   6.189   5.527
 3793POPC   GL148637  19.063   6.027   5.830
 3793POPC   GL248638  19.186   5.722   5.866
 3793POPC   C1A48639  19.075   6.061   6.286
 3793POPC   D2A48640  19.298   6.073   6.662
 3793POPC   C3A48641  19.067   5.986   7.021
 3793POPC   C4A48642  19.124   5.664   7.321
 3793POPC   C1B48643  19.012   5.545   6.276
 3793POPC   C2B48644  18.954   5.590   6.727
 3793POPC   C3B48645  18.801   5.352   7.091
 3793POPC   C4B48646  18.800   5.334   7.566
 3794POPC   NC348647  38.283  37.558   5.429
 3794POPC   PO448648  38.693  38.029   5.391
 3794POPC   GL148649  38.660  37.779   5.775
 3794POPC   GL248650  38.317  37.778   5.895
 3794POPC   C1A48651  38.681  37.625   6.242
 3794POPC   D2A48652  38.488  37.775   6.646
 3794POPC   C3A48653  38.421  37.643   7.077
 3794POPC   C4A48654  38.152  37.587   7.464
 3794POPC   C1B48655  38.134  37.908   6.305
 3794POPC   C2B48656  38.033  38.002   6.770
 3794POPC   C3B48657  38.060  38.036   7.242
 3794POPC   C4B48658  37.937  38.006   7.708
 3795POPC   NC348659  15.783  17.712   5.662
 3795POPC   PO448660  15.757  17.146   5.276
 3795POPC   GL148661  15.744  17.132   5.743
 3795POPC   GL248662  16.076  17.272   5.708
 3795POPC   C1A48663  15.712  17.276   6.207
 3795POPC   D2A48664  15.793  17.662   6.496
 3795POPC   C3A48665  15.774  17.601   6.952
 3795POPC   C4A48666  15.634  17.765   7.341
 3795POPC   C1B48667  16.200  17.383   6.120
 3795POPC   C2B48668  16.175  17.319   6.554
 3795POPC   C3B48669  16.281  17.520   6.923
 3795POPC   C4B48670  16.352  17.540   7.314
 3796POPC   NC348671   3.280   7.021   5.492
 3796POPC   PO448672   3.551   6.441   5.624
 3796POPC   GL148673   3.388   6.405   5.978
 3796POPC   GL248674   3.322   6.775   5.977
 3796POPC   C1A48675   3.295   6.445   6.400
 3796POPC   D2A48676   3.371   6.769   6.648
 3796POPC   C3A48677   3.562   6.612   6.994
 3796POPC   C4A48678   3.888   6.766   7.229
 3796POPC   C1B48679   3.011   6.896   6.266
 3796POPC   C2B48680   2.916   6.999   6.690
 3796POPC   C3B48681   3.162   6.958   7.098
 3796POPC   C4B48682   3.365   6.729   7.451
 3797POPC   NC348683  31.848   0.035   5.466
 3797POPC   PO448684  31.386   0.533   5.351
 3797POPC   GL148685  31.494   0.486   5.798
 3797POPC   GL248686  31.681   0.196   5.901
 3797POPC   C1A48687  31.390   0.541   6.248
 3797POPC   D2A48688  31.107   0.607   6.610
 3797POPC   C3A48689  31.278   0.502   7.004
 3797POPC   C4A48690  31.554   0.574   7.369
 3797POPC   C1B48691  31.826   0.290   6.265
 3797POPC   C2B48692  31.626   0.261   6.662
 3797POPC   C3B48693  31.663   0.149   7.081
 3797POPC   C4B48694  31.984   0.273   7.372
 3798POPC   NC348695   7.302  35.764   5.362
 3798POPC   PO448696   7.631  35.158   5.380
 3798POPC   GL148697   7.459  35.203   5.848
 3798POPC   GL248698   7.371  34.871   5.942
 3798POPC   C1A48699   7.420  35.156   6.339
 3798POPC   D2A48700   7.551  34.895   6.684
 3798POPC   C3A48701   7.409  35.156   6.938
 3798POPC   C4A48702   7.354  35.454   7.239
 3798POPC   C1B48703   6.968  35.113   6.099
 3798POPC   C2B48704   6.872  35.253   6.533
 3798POPC   C3B48705   6.913  35.190   7.007
 3798POPC   C4B48706   6.918  35.312   7.474
 3799POPC   NC348707  10.711  33.260   5.402
 3799POPC   PO448708  10.266  32.771   5.252
 3799POPC   GL148709  10.375  32.946   5.705
 3799POPC   GL248710  10.741  32.886   5.792
 3799POPC   C1A48711  10.449  33.016   6.190
 3799POPC   D2A48712  10.250  33.117   6.570
 3799POPC   C3A48713  10.406  32.945   6.948
 3799POPC   C4A48714  10.250  33.111   7.336
 3799POPC   C1B48715  10.942  33.137   6.161
 3799POPC   C2B48716  10.885  33.222   6.600
 3799POPC   C3B48717  10.866  33.189   7.036
 3799POPC   C4B48718  10.805  32.821   7.279
 3800POPC   NC348719   2.142  15.545   5.068
 3800POPC   PO448720   1.658  15.354   5.556
 3800POPC   GL148721   1.980  15.191   5.864
 3800POPC   GL248722   2.126  14.908   5.708
 3800POPC   C1A48723   2.080  15.243   6.318
 3800POPC   D2A48724   1.880  14.950   6.601
 3800POPC   C3A48725   1.774  15.109   6.997
 3800POPC   C4A48726   1.988  15.449   7.174
 3800POPC   C1B48727   2.304  14.829   6.132
 3800POPC   C2B48728   2.426  14.898   6.568
 3800POPC   C3B48729   2.286  15.087   6.918
 3800POPC   C4B48730   2.193  14.963   7.307
 3801POPC   NC348731  30.444   8.845   4.897
 3801POPC   PO448732  30.314   9.234   5.371
 3801POPC   GL148733  30.069   9.089   5.712
 3801POPC   GL248734  29.907   9.377   5.831
 3801POPC   C1A48735  30.115   8.998   6.175
 3801POPC   D2A48736  30.239   8.889   6.622
 3801POPC   C3A48737  29.905   8.932   6.946
 3801POPC   C4A48738  29.891   8.969   7.398
 3801POPC   C1B48739  29.631   9.186   6.175
 3801POPC   C2B48740  29.518   8.997   6.599
 3801POPC   C3B48741  29.500   9.273   6.964
 3801POPC   C4B48742  29.502   9.628   7.250
 3802POPC   NC348743   2.254  35.099   5.689
 3802POPC   PO448744   2.046  35.615   5.379
 3802POPC   GL148745   2.024  35.576   5.828
 3802POPC   GL248746   1.697  35.484   5.890
 3802POPC   C1A48747   2.047  35.438   6.277
 3802POPC   D2A48748   2.310  35.232   6.600
 3802POPC   C3A48749   2.240  35.445   6.981
 3802POPC   C4A48750   2.152  35.317   7.392
 3802POPC   C1B48751   1.630  35.120   6.155
 3802POPC   C2B48752   1.683  35.051   6.596
 3802POPC   C3B48753   1.804  35.145   7.018
 3802POPC   C4B48754   1.633  35.100   7.429
 3803POPC   NC348755  23.784  33.722   5.201
 3803POPC   PO448756  24.223  34.220   5.189
 3803POPC   GL148757  23.907  33.982   5.623
 3803POPC   GL248758  23.680  33.711   5.750
 3803POPC   C1A48759  23.887  34.014   6.100
 3803POPC   D2A48760  23.959  33.834   6.507
 3803POPC   C3A48761  23.799  34.002   6.882
 3803POPC   C4A48762  23.787  33.798   7.276
 3803POPC   C1B48763  23.611  33.568   6.205
 3803POPC   C2B48764  23.547  33.560   6.680
 3803POPC   C3B48765  23.555  33.362   7.095
 3803POPC   C4B48766  23.440  33.518   7.528
 3804POPC   NC348767  35.716   3.066   5.412
 3804POPC   PO448768  36.295   2.608   5.449
 3804POPC   GL148769  36.225   2.873   5.763
 3804POPC   GL248770  35.891   2.833   5.819
 3804POPC   C1A48771  36.199   2.899   6.209
 3804POPC   D2A48772  35.879   2.922   6.504
 3804POPC   C3A48773  36.146   2.791   6.794
 3804POPC   C4A48774  36.082   2.844   7.211
 3804POPC   C1B48775  35.778   2.555   6.140
 3804POPC   C2B48776  35.896   2.366   6.544
 3804POPC   C3B48777  35.873   2.427   7.005
 3804POPC   C4B48778  35.960   2.462   7.518
 3805POPC   NC348779  30.780  13.914   5.435
 3805POPC   PO448780  30.736  13.250   5.353
 3805POPC   GL148781  30.571  13.406   5.739
 3805POPC   GL248782  30.356  13.659   5.658
 3805POPC   C1A48783  30.650  13.708   6.085
 3805POPC   D2A48784  30.870  13.656   6.471
 3805POPC   C3A48785  30.729  13.686   6.908
 3805POPC   C4A48786  30.698  13.693   7.359
 3805POPC   C1B48787  30.161  13.549   6.056
 3805POPC   C2B48788  30.332  13.452   6.445
 3805POPC   C3B48789  30.242  13.510   6.863
 3805POPC   C4B48790  30.459  13.281   7.187
 3806POPC   NC348791  44.224  19.601   5.565
 3806POPC   PO448792  44.549  19.176   5.245
 3806POPC   GL148793  44.609  18.987   5.692
 3806POPC   GL248794  44.424  18.700   5.835
 3806POPC   C1A48795  44.763  19.023   6.144
 3806POPC   D2A48796  44.665  19.202   6.594
 3806POPC   C3A48797  44.907  19.174   6.999
 3806POPC   C4A48798  44.884  18.906   7.338
 3806POPC   C1B48799  44.307  18.856   6.282
 3806POPC   C2B48800  44.226  18.969   6.703
 3806POPC   C3B48801  44.506  18.841   6.987
 3806POPC   C4B48802  44.420  18.809   7.464
 3807POPC   NC348803  10.939   2.691   5.288
 3807POPC   PO448804  11.435   3.087   5.230
 3807POPC   GL148805  11.371   3.027   5.716
 3807POPC   GL248806  11.600   2.811   5.909
 3807POPC   C1A48807  11.124   2.937   6.119
 3807POPC   D2A48808  11.059   2.782   6.552
 3807POPC   C3A48809  11.399   2.685   6.824
 3807POPC   C4A48810  11.281   2.751   7.245
 3807POPC   C1B48811  11.651   2.919   6.354
 3807POPC   C2B48812  11.803   3.039   6.765
 3807POPC   C3B48813  11.712   3.008   7.219
 3807POPC   C4B48814  11.447   3.029   7.634
 3808POPC   NC348815   6.208  15.747   5.530
 3808POPC   PO448816   5.513  15.892   5.417
 3808POPC   GL148817   5.621  15.797   5.839
 3808POPC   GL248818   5.660  16.136   5.946
 3808POPC   C1A48819   5.942  15.762   6.187
 3808POPC   D2A48820   5.938  16.009   6.573
 3808POPC   C3A48821   6.144  15.886   6.941
 3808POPC   C4A48822   6.267  16.043   7.343
 3808POPC   C1B48823   5.477  15.963   6.327
 3808POPC   C2B48824   5.577  15.635   6.605
 3808POPC   C3B48825   5.570  15.769   7.007
 3808POPC   C4B48826   5.660  16.126   7.251
 3809POPC   NC348827  29.749  22.786   5.409
 3809POPC   PO448828  30.229  23.209   5.720
 3809POPC   GL148829  30.067  22.789   5.841
 3809POPC   GL248830  29.691  22.700   5.916
 3809POPC   C1A48831  30.040  22.780   6.289
 3809POPC   D2A48832  29.692  22.866   6.570
 3809POPC   C3A48833  29.871  22.870   6.974
 3809POPC   C4A48834  30.025  22.719   7.340
 3809POPC   C1B48835  29.716  23.132   6.105
 3809POPC   C2B48836  29.845  23.352   6.481
 3809POPC   C3B48837  29.727  23.371   6.892
 3809POPC   C4B48838  29.989  23.295   7.243
 3810POPC   NC348839  35.072  31.708   5.462
 3810POPC   PO448840  35.621  32.150   5.464
 3810POPC   GL148841  35.438  32.309   5.824
 3810POPC   GL248842  35.670  32.553   5.839
 3810POPC   C1A48843  35.283  32.313   6.205
 3810POPC   D2A48844  35.466  32.166   6.560
 3810POPC   C3A48845  35.242  32.046   6.904
 3810POPC   C4A48846  35.169  32.284   7.224
 3810POPC   C1B48847  35.808  32.459   6.235
 3810POPC   C2B48848  35.830  32.627   6.639
 3810POPC   C3B48849  35.545  32.501   6.932
 3810POPC   C4B48850  35.687  32.264   7.273
 3811POPC   NC348851  13.744  37.904   5.364
 3811POPC   PO448852  13.267  37.526   5.454
 3811POPC   GL148853  13.538  37.348   5.793
 3811POPC   GL248854  13.757  37.625   5.809
 3811POPC   C1A48855  13.687  37.422   6.255
 3811POPC   D2A48856  13.482  37.681   6.595
 3811POPC   C3A48857  13.588  37.495   7.000
 3811POPC   C4A48858  13.600  37.601   7.433
 3811POPC   C1B48859  13.783  37.917   6.198
 3811POPC   C2B48860  13.935  37.904   6.655
 3811POPC   C3B48861  13.900  37.908   7.119
 3811POPC   C4B48862  14.030  37.846   7.558
 3812POPC   NC348863  26.241  28.322   5.342
 3812POPC   PO448864  25.639  28.735   5.280
 3812POPC   GL148865  25.889  28.541   5.637
 3812POPC   GL248866  25.908  28.167   5.733
 3812POPC   C1A48867  26.105  28.612   6.035
 3812POPC   D2A48868  25.916  28.704   6.451
 3812POPC   C3A48869  26.061  28.414   6.791
 3812POPC   C4A48870  26.196  28.429   7.222
 3812POPC   C1B48871  26.160  28.099   6.131
 3812POPC   C2B48872  26.437  28.179   6.493
 3812POPC   C3B48873  26.500  28.071   6.927
 3812POPC   C4B48874  26.369  27.959   7.345
 3813POPC   NC348875  42.319  24.902   5.520
 3813POPC   PO448876  42.672  25.472   5.478
 3813POPC   GL148877  42.379  25.343   5.803
 3813POPC   GL248878  42.461  25.063   5.999
 3813POPC   C1A48879  42.126  25.438   6.154
 3813POPC   D2A48880  42.002  25.353   6.542
 3813POPC   C3A48881  42.315  25.316   6.841
 3813POPC   C4A48882  42.168  25.372   7.247
 3813POPC   C1B48883  42.065  24.926   6.219
 3813POPC   C2B48884  41.986  24.867   6.683
 3813POPC   C3B48885  42.183  24.893   7.089
 3813POPC   C4B48886  42.326  24.607   7.396
 3814POPC   NC348887  19.111  17.471   5.235
 3814POPC   PO448888  18.480  17.443   5.446
 3814POPC   GL148889  18.863  17.542   5.711
 3814POPC   GL248890  19.228  17.497   5.769
 3814POPC   C1A48891  18.872  17.602   6.162
 3814POPC   D2A48892  18.933  17.416   6.589
 3814POPC   C3A48893  18.808  17.681   6.951
 3814POPC   C4A48894  18.733  17.663   7.393
 3814POPC   C1B48895  19.375  17.531   6.232
 3814POPC   C2B48896  19.463  17.214   6.579
 3814POPC   C3B48897  19.427  17.243   7.029
 3814POPC   C4B48898  19.291  17.595   7.201
 3815POPC   NC348899  13.034   3.942   5.434
 3815POPC   PO448900  12.576   4.448   5.337
 3815POPC   GL148901  12.648   4.177   5.680
 3815POPC   GL248902  12.955   4.292   5.803
 3815POPC   C1A48903  12.580   4.161   6.137
 3815POPC   D2A48904  12.411   4.019   6.539
 3815POPC   C3A48905  12.614   4.104   6.917
 3815POPC   C4A48906  12.794   4.357   7.196
 3815POPC   C1B48907  13.096   4.174   6.218
 3815POPC   C2B48908  13.230   4.221   6.642
 3815POPC   C3B48909  13.272   3.947   6.961
 3815POPC   C4B48910  13.120   4.006   7.349
 3816POPC   NC348911  35.054  24.498   5.331
 3816POPC   PO448912  35.675  24.364   5.636
 3816POPC   GL148913  35.443  24.437   5.956
 3816POPC   GL248914  35.127  24.427   5.835
 3816POPC   C1A48915  35.575  24.301   6.339
 3816POPC   D2A48916  35.748  24.450   6.728
 3816POPC   C3A48917  35.461  24.392   7.078
 3816POPC   C4A48918  35.397  24.414   7.521
 3816POPC   C1B48919  35.026  24.494   6.248
 3816POPC   C2B48920  35.240  24.591   6.619
 3816POPC   C3B48921  35.074  24.742   6.969
 3816POPC   C4B48922  34.964  24.510   7.269
 3817POPC   NC348923  13.764  42.901   5.237
 3817POPC   PO448924  13.414  43.474   5.410
 3817POPC   GL148925  13.540  43.237   5.751
 3817POPC   GL248926  13.420  42.948   5.625
 3817POPC   C1A48927  13.483  43.320   6.207
 3817POPC   D2A48928  13.739  43.608   6.481
 3817POPC   C3A48929  13.803  43.421   6.897
 3817POPC   C4A48930  13.444  43.400   7.146
 3817POPC   C1B48931  13.689  42.874   6.073
 3817POPC   C2B48932  13.765  43.026   6.540
 3817POPC   C3B48933  13.676  42.891   6.981
 3817POPC   C4B48934  13.906  42.620   7.270
 3818POPC   NC348935  35.372  19.490   5.260
 3818POPC   PO448936  35.554  20.133   5.340
 3818POPC   GL148937  35.388  19.875   5.706
 3818POPC   GL248938  35.248  19.538   5.750
 3818POPC   C1A48939  35.272  20.003   6.136
 3818POPC   D2A48940  35.324  20.163   6.570
 3818POPC   C3A48941  35.304  19.909   6.920
 3818POPC   C4A48942  35.134  20.158   7.223
 3818POPC   C1B48943  35.254  19.481   6.192
 3818POPC   C2B48944  35.077  19.581   6.602
 3818POPC   C3B48945  35.043  19.433   7.002
 3818POPC   C4B48946  35.176  19.656   7.355
 3819POPC   NC348947   6.402  13.378   5.600
 3819POPC   PO448948   6.902  13.834   5.344
 3819POPC   GL148949   6.792  13.706   5.726
 3819POPC   GL248950   6.962  13.425   5.898
 3819POPC   C1A48951   6.612  13.754   6.102
 3819POPC   D2A48952   6.706  13.757   6.544
 3819POPC   C3A48953   6.575  14.032   6.854
 3819POPC   C4A48954   6.347  13.857   7.189
 3819POPC   C1B48955   6.856  13.326   6.324
 3819POPC   C2B48956   6.902  13.332   6.783
 3819POPC   C3B48957   6.729  13.442   7.206
 3819POPC   C4B48958   6.886  13.381   7.641
 3820POPC   NC348959  18.805  22.656   5.325
 3820POPC   PO448960  19.390  22.804   5.420
 3820POPC   GL148961  19.125  22.721   5.859
 3820POPC   GL248962  18.745  22.639   5.862
 3820POPC   C1A48963  19.030  22.777   6.366
 3820POPC   D2A48964  19.155  22.855   6.845
 3820POPC   C3A48965  19.170  23.117   7.239
 3820POPC   C4A48966  19.425  23.331   7.561
 3820POPC   C1B48967  18.476  22.618   6.267
 3820POPC   C2B48968  18.454  22.749   6.730
 3820POPC   C3B48969  18.775  22.554   7.016
 3820POPC   C4B48970  19.080  22.638   7.365
 3821POPC   NC348971  39.929   0.930   5.045
 3821POPC   PO448972  39.820   0.301   5.338
 3821POPC   GL148973  39.833   0.428   5.782
 3821POPC   GL248974  40.160   0.361   5.843
 3821POPC   C1A48975  39.936   0.665   6.209
 3821POPC   D2A48976  40.193   0.717   6.625
 3821POPC   C3A48977  39.914   0.705   6.998
 3821POPC   C4A48978  39.605   0.428   7.161
 3821POPC   C1B48979  40.379   0.375   6.260
 3821POPC   C2B48980  40.492   0.235   6.682
 3821POPC   C3B48981  40.311   0.360   7.072
 3821POPC   C4B48982  40.193   0.056   7.374
 3822POPC   NC348983  10.728  30.176   5.399
 3822POPC   PO448984  10.637  29.637   5.665
 3822POPC   GL148985  10.339  29.826   5.887
 3822POPC   GL248986  10.576  30.090   5.912
 3822POPC   C1A48987  10.332  29.945   6.322
 3822POPC   D2A48988  10.560  29.857   6.656
 3822POPC   C3A48989  10.305  29.808   6.970
 3822POPC   C4A48990  10.512  29.920   7.300
 3822POPC   C1B48991  10.273  30.414   6.156
 3822POPC   C2B48992  10.174  30.350   6.613
 3822POPC   C3B48993  10.271  30.318   7.048
 3822POPC   C4B48994  10.249  30.345   7.493
 3823POPC   NC348995  30.205  13.103   5.540
 3823POPC   PO448996  30.617  12.670   5.191
 3823POPC   GL148997  30.572  12.733   5.645
 3823POPC   GL248998  30.868  12.933   5.711
 3823POPC   C1A48999  30.422  12.725   6.117
 3823POPC   D2A49000  30.358  12.912   6.566
 3823POPC   C3A49001  30.320  12.678   6.963
 3823POPC   C4A49002  30.571  12.716   7.346
 3823POPC   C1B49003  30.948  12.632   6.015
 3823POPC   C2B49004  30.843  12.775   6.419
 3823POPC   C3B49005  30.803  12.773   6.851
 3823POPC   C4B49006  30.924  13.036   7.177
 3824POPC   NC349007  30.457  39.095   5.489
 3824POPC   PO449008  30.771  39.644   5.125
 3824POPC   GL149009  30.879  39.423   5.607
 3824POPC   GL249010  30.617  39.315   5.902
 3824POPC   C1A49011  31.067  39.373   6.086
 3824POPC   D2A49012  31.126  39.088   6.473
 3824POPC   C3A49013  30.928  39.225   6.853
 3824POPC   C4A49014  30.804  39.496   7.172
 3824POPC   C1B49015  30.619  39.219   6.368
 3824POPC   C2B49016  30.365  39.204   6.769
 3824POPC   C3B49017  30.538  39.039   7.146
 3824POPC   C4B49018  30.867  38.741   7.035
 3825POPC   NC349019   9.951  24.677   5.482
 3825POPC   PO449020   9.258  24.370   5.508
 3825POPC   GL149021   9.403  24.562   5.903
 3825POPC   GL249022   9.672  24.847   5.892
 3825POPC   C1A49023   9.452  24.310   6.298
 3825POPC   D2A49024   9.465  24.252   6.725
 3825POPC   C3A49025   9.494  24.607   7.011
 3825POPC   C4A49026   9.422  24.651   7.439
 3825POPC   C1B49027   9.892  24.485   6.121
 3825POPC   C2B49028   9.914  24.459   6.592
 3825POPC   C3B49029   9.885  24.285   7.030
 3825POPC   C4B49030   9.919  24.491   7.451
 3826POPC   NC349031  30.207   6.774   5.445
 3826POPC   PO449032  29.640   6.599   5.376
 3826POPC   GL149033  29.902   6.559   5.793
 3826POPC   GL249034  29.921   6.238   5.907
 3826POPC   C1A49035  30.087   6.557   6.278
 3826POPC   D2A49036  30.162   6.885   6.665
 3826POPC   C3A49037  30.107   6.831   7.134
 3826POPC   C4A49038  30.235   6.710   7.563
 3826POPC   C1B49039  29.662   6.051   6.264
 3826POPC   C2B49040  29.503   6.125   6.682
 3826POPC   C3B49041  29.670   6.360   7.029
 3826POPC   C4B49042  30.063   6.322   7.215
 3827POPC   NC349043  19.395   3.391   5.434
 3827POPC   PO449044  18.778   3.739   5.450
 3827POPC   GL149045  18.872   3.816   5.876
 3827POPC   GL249046  19.253   3.838   5.859
 3827POPC   C1A49047  18.942   3.601   6.302
 3827POPC   D2A49048  19.233   3.385   6.608
 3827POPC   C3A49049  19.159   3.490   7.052
 3827POPC   C4A49050  19.098   3.732   7.433
 3827POPC   C1B49051  19.425   3.785   6.292
 3827POPC   C2B49052  19.291   3.883   6.717
 3827POPC   C3B49053  19.412   3.997   7.143
 3827POPC   C4B49054  19.372   4.148   7.589
 3828POPC   NC349055  10.857  36.722   5.479
 3828POPC   PO449056  10.324  37.115   5.323
 3828POPC   GL149057  10.366  37.052   5.805
 3828POPC   GL249058  10.521  36.719   5.844
 3828POPC   C1A49059  10.318  36.894   6.262
 3828POPC   D2A49060  10.228  37.096   6.645
 3828POPC   C3A49061  10.375  36.930   7.015
 3828POPC   C4A49062  10.819  36.963   7.143
 3828POPC   C1B49063  10.677  36.529   6.248
 3828POPC   C2B49064  10.677  36.656   6.700
 3828POPC   C3B49065  10.725  36.443   7.117
 3828POPC   C4B49066  10.891  36.578   7.533
 3829POPC   NC349067  30.382  21.532   4.935
 3829POPC   PO449068  30.933  21.347   5.305
 3829POPC   GL149069  30.808  21.418   5.752
 3829POPC   GL249070  30.474  21.574   5.792
 3829POPC   C1A49071  30.754  21.203   6.169
 3829POPC   D2A49072  31.018  21.054   6.522
 3829POPC   C3A49073  30.900  21.212   6.926
 3829POPC   C4A49074  30.852  21.608   7.175
 3829POPC   C1B49075  30.354  21.547   6.249
 3829POPC   C2B49076  30.384  21.162   6.565
 3829POPC   C3B49077  30.441  21.071   7.031
 3829POPC   C4B49078  30.398  21.440   7.324
 3830POPC   NC349079   1.464  17.142   5.571
 3830POPC   PO449080   1.428  17.693   5.193
 3830POPC   GL149081   1.215  17.579   5.706
 3830POPC   GL249082   0.853  17.426   5.744
 3830POPC   C1A49083   1.425  17.472   6.211
 3830POPC   D2A49084   1.426  17.742   6.620
 3830POPC   C3A49085   1.399  17.557   7.053
 3830POPC   C4A49086   1.462  17.648   7.519
 3830POPC   C1B49087   0.951  17.311   6.190
 3830POPC   C2B49088   1.138  17.311   6.640
 3830POPC   C3B49089   0.943  17.346   7.051
 3830POPC   C4B49090   1.062  17.305   7.555
 3831POPC   NC349091  20.834  43.777   5.258
 3831POPC   PO449092  20.273  43.721   5.674
 3831POPC   GL149093  20.592  43.984   5.677
 3831POPC   GL249094  20.813  43.742   5.803
 3831POPC   C1A49095  20.628  44.172   6.075
 3831POPC   D2A49096  20.458  43.938   6.448
 3831POPC   C3A49097  20.587  43.954   6.890
 3831POPC   C4A49098  20.377  43.769   7.235
 3831POPC   C1B49099  20.933  43.811   6.224
 3831POPC   C2B49100  21.035  43.971   6.606
 3831POPC   C3B49101  21.032  43.695   6.957
 3831POPC   C4B49102  20.868  43.609   7.327
 3832POPC   NC349103  13.858  39.643   5.257
 3832POPC   PO449104  13.629  39.020   5.277
 3832POPC   GL149105  13.644  39.218   5.706
 3832POPC   GL249106  13.887  39.481   5.745
 3832POPC   C1A49107  13.598  39.265   6.167
 3832POPC   D2A49108  13.319  39.105   6.509
 3832POPC   C3A49109  13.514  39.218   6.877
 3832POPC   C4A49110  13.638  39.029   7.255
 3832POPC   C1B49111  14.089  39.537   6.166
 3832POPC   C2B49112  13.924  39.398   6.555
 3832POPC   C3B49113  13.998  39.313   6.969
 3832POPC   C4B49114  14.160  39.583   7.238
 3833POPC   NC349115   7.014  11.827   5.371
 3833POPC   PO449116   6.504  12.209   5.207
 3833POPC   GL149117   6.562  12.144   5.678
 3833POPC   GL249118   6.785  11.883   5.830
 3833POPC   C1A49119   6.776  12.344   6.045
 3833POPC   D2A49120   6.641  12.415   6.464
 3833POPC   C3A49121   6.782  12.124   6.765
 3833POPC   C4A49122   6.838  12.222   7.196
 3833POPC   C1B49123   6.602  11.882   6.250
 3833POPC   C2B49124   6.578  11.630   6.625
 3833POPC   C3B49125   6.418  11.648   7.041
 3833POPC   C4B49126   6.456  11.650   7.499
 3834POPC   NC349127  16.521   9.586   5.312
 3834POPC   PO449128  17.186   9.534   5.452
 3834POPC   GL149129  16.787   9.546   5.749
 3834POPC   GL249130  16.503   9.794   5.759
 3834POPC   C1A49131  16.636   9.596   6.202
 3834POPC   D2A49132  16.692   9.881   6.572
 3834POPC   C3A49133  16.683   9.589   6.929
 3834POPC   C4A49134  16.548   9.571   7.380
 3834POPC   C1B49135  16.373  10.045   6.094
 3834POPC   C2B49136  16.435  10.334   6.413
 3834POPC   C3B49137  16.402  10.304   6.830
 3834POPC   C4B49138  16.575  10.032   7.147
 3835POPC   NC349139   7.885  38.709   5.625
 3835POPC   PO449140   8.311  38.294   5.356
 3835POPC   GL149141   8.306  38.445   5.780
 3835POPC   GL249142   8.489  38.799   5.758
 3835POPC   C1A49143   8.119  38.336   6.203
 3835POPC   D2A49144   7.978  38.569   6.549
 3835POPC   C3A49145   8.169  38.404   6.906
 3835POPC   C4A49146   7.978  38.207   7.246
 3835POPC   C1B49147   8.323  38.781   6.174
 3835POPC   C2B49148   8.498  38.677   6.566
 3835POPC   C3B49149   8.530  38.741   7.004
 3835POPC   C4B49150   8.429  38.551   7.385
 3836POPC   NC349151  35.065   4.802   5.596
 3836POPC   PO449152  35.490   5.230   5.305
 3836POPC   GL149153  35.378   5.189   5.744
 3836POPC   GL249154  35.059   5.276   5.793
 3836POPC   C1A49155  35.274   5.021   6.176
 3836POPC   D2A49156  35.188   5.232   6.542
 3836POPC   C3A49157  35.200   5.071   6.963
 3836POPC   C4A49158  34.909   4.763   7.115
 3836POPC   C1B49159  35.286   5.551   6.096
 3836POPC   C2B49160  35.212   5.737   6.493
 3836POPC   C3B49161  35.240   5.599   6.899
 3836POPC   C4B49162  35.194   5.450   7.314
 3837POPC   NC349163  34.402  21.648   5.547
 3837POPC   PO449164  34.896  21.370   5.297
 3837POPC   GL149165  34.618  21.279   5.785
 3837POPC   GL249166  34.610  21.574   6.000
 3837POPC   C1A49167  34.494  21.128   6.212
 3837POPC   D2A49168  34.382  21.420   6.575
 3837POPC   C3A49169  34.479  21.347   7.005
 3837POPC   C4A49170  34.355  21.178   7.419
 3837POPC   C1B49171  34.872  21.452   6.306
 3837POPC   C2B49172  34.834  21.160   6.639
 3837POPC   C3B49173  34.971  21.379   6.997
 3837POPC   C4B49174  34.801  21.447   7.424
 3838POPC   NC349175  40.796  31.823   5.426
 3838POPC   PO449176  40.519  31.211   5.245
 3838POPC   GL149177  40.609  31.412   5.638
 3838POPC   GL249178  40.943  31.445   5.741
 3838POPC   C1A49179  40.553  31.315   6.071
 3838POPC   D2A49180  40.504  31.516   6.450
 3838POPC   C3A49181  40.625  31.355   6.833
 3838POPC   C4A49182  40.712  31.252   7.250
 3838POPC   C1B49183  40.956  31.575   6.182
 3838POPC   C2B49184  41.059  31.563   6.608
 3838POPC   C3B49185  40.977  31.667   7.036
 3838POPC   C4B49186  40.893  31.691   7.448
 3839POPC   NC349187  16.942  25.654   5.488
 3839POPC   PO449188  16.587  26.097   5.314
 3839POPC   GL149189  16.714  26.027   5.767
 3839POPC   GL249190  16.398  25.977   5.881
 3839POPC   C1A49191  16.723  26.234   6.203
 3839POPC   D2A49192  16.953  26.418   6.586
 3839POPC   C3A49193  16.892  26.340   7.022
 3839POPC   C4A49194  16.957  26.078   7.375
 3839POPC   C1B49195  16.465  25.810   6.291
 3839POPC   C2B49196  16.494  26.022   6.698
 3839POPC   C3B49197  16.477  26.015   7.142
 3839POPC   C4B49198  16.621  25.681   7.394
 3840POPC   NC349199  16.978  21.319   5.435
 3840POPC   PO449200  16.617  21.853   5.576
 3840POPC   GL149201  16.818  21.549   5.890
 3840POPC   GL249202  17.007  21.211   5.933
 3840POPC   C1A49203  16.727  21.475   6.323
 3840POPC   D2A49204  16.447  21.604   6.661
 3840POPC   C3A49205  16.649  21.367   6.952
 3840POPC   C4A49206  17.003  21.366   7.135
 3840POPC   C1B49207  16.865  20.958   6.299
 3840POPC   C2B49208  16.934  20.901   6.753
 3840POPC   C3B49209  16.773  20.900   7.150
 3840POPC   C4B49210  16.393  21.049   7.282
 3841POPC   NC349211  30.487  23.016   5.394
 3841POPC   PO449212  31.151  22.920   5.325
 3841POPC   GL149213  30.869  22.764   5.704
 3841POPC   GL249214  30.535  22.565   5.711
 3841POPC   C1A49215  30.768  22.782   6.192
 3841POPC   D2A49216  30.705  22.982   6.655
 3841POPC   C3A49217  30.963  22.964   7.071
 3841POPC   C4A49218  31.192  23.191   7.425
 3841POPC   C1B49219  30.378  22.415   6.106
 3841POPC   C2B49220  30.448  22.527   6.550
 3841POPC   C3B49221  30.422  22.677   6.978
 3841POPC   C4B49222  30.429  23.085   7.132
 3842POPC   NC349223  40.192  34.943   5.564
 3842POPC   PO449224  39.918  34.355   5.408
 3842POPC   GL149225  39.797  34.513   5.825
 3842POPC   GL249226  39.750  34.869   5.835
 3842POPC   C1A49227  39.984  34.629   6.229
 3842POPC   D2A49228  40.128  34.372   6.552
 3842POPC   C3A49229  40.221  34.476   6.981
 3842POPC   C4A49230  39.903  34.628   7.280
 3842POPC   C1B49231  39.697  35.064   6.186
 3842POPC   C2B49232  39.872  35.027   6.561
 3842POPC   C3B49233  39.714  35.001   6.951
 3842POPC   C4B49234  39.475  34.971   7.327
 3843POPC   NC349235  13.036  41.196   5.530
 3843POPC   PO449236  12.522  40.754   5.354
 3843POPC   GL149237  12.756  40.826   5.762
 3843POPC   GL249238  12.922  40.494   5.836
 3843POPC   C1A49239  12.939  40.936   6.190
 3843POPC   D2A49240  12.734  40.695   6.548
 3843POPC   C3A49241  12.813  40.854   6.983
 3843POPC   C4A49242  12.587  40.953   7.361
 3843POPC   C1B49243  13.147  40.487   6.224
 3843POPC   C2B49244  13.215  40.619   6.663
 3843POPC   C3B49245  13.186  40.486   7.089
 3843POPC   C4B49246  12.990  40.649   7.450
 3844POPC   NC349247  36.384  40.337   5.490
 3844POPC   PO449248  36.969  40.015   5.457
 3844POPC   GL149249  37.197  40.067   5.817
 3844POPC   GL249250  37.216  40.460   5.754
 3844POPC   C1A49251  37.102  39.861   6.238
 3844POPC   D2A49252  36.823  39.928   6.634
 3844POPC   C3A49253  36.933  39.760   7.061
 3844POPC   C4A49254  37.148  39.904   7.450
 3844POPC   C1B49255  37.083  40.381   6.184
 3844POPC   C2B49256  37.248  40.225   6.556
 3844POPC   C3B49257  37.132  40.252   6.973
 3844POPC   C4B49258  36.696  40.211   7.050
 3845POPC   NC349259   6.661  21.027   5.209
 3845POPC   PO449260   6.431  20.480   5.567
 3845POPC   GL149261   6.691  20.566   5.909
 3845POPC   GL249262   6.762  20.288   6.085
 3845POPC   C1A49263   6.631  20.802   6.296
 3845POPC   D2A49264   6.713  20.628   6.679
 3845POPC   C3A49265   6.581  20.726   7.080
 3845POPC   C4A49266   6.897  20.612   7.383
 3845POPC   C1B49267   6.295  20.416   6.195
 3845POPC   C2B49268   6.192  20.543   6.584
 3845POPC   C3B49269   6.255  20.363   6.967
 3845POPC   C4B49270   6.513  20.287   7.340
 3846POPC   NC349271  19.527  19.781   5.414
 3846POPC   PO449272  20.001  20.048   5.504
 3846POPC   GL149273  19.918  19.629   5.749
 3846POPC   GL249274  19.558  19.632   5.877
 3846POPC   C1A49275  19.904  19.484   6.205
 3846POPC   D2A49276  19.952  19.778   6.556
 3846POPC   C3A49277  19.865  19.672   6.964
 3846POPC   C4A49278  20.031  19.965   7.228
 3846POPC   C1B49279  19.693  19.968   6.139
 3846POPC   C2B49280  19.481  20.027   6.519
 3846POPC   C3B49281  19.376  19.865   6.880
 3846POPC   C4B49282  19.520  19.989   7.226
 3847POPC   NC349283  39.569  32.938   5.394
 3847POPC   PO449284  39.672  33.554   5.647
 3847POPC   GL149285  39.557  33.175   5.886
 3847POPC   GL249286  39.260  33.008   5.819
 3847POPC   C1A49287  39.437  32.956   6.289
 3847POPC   D2A49288  39.647  32.856   6.687
 3847POPC   C3A49289  39.408  33.042   7.032
 3847POPC   C4A49290  39.424  33.311   7.382
 3847POPC   C1B49291  38.967  33.165   6.123
 3847POPC   C2B49292  39.018  33.247   6.583
 3847POPC   C3B49293  38.910  33.148   7.008
 3847POPC   C4B49294  38.891  32.754   7.199
 3848POPC   NC349295  37.277  25.599   5.582
 3848POPC   PO449296  37.613  25.134   5.236
 3848POPC   GL149297  37.585  25.217   5.714
 3848POPC   GL249298  37.498  24.896   5.778
 3848POPC   C1A49299  37.711  25.371   6.144
 3848POPC   D2A49300  37.489  25.399   6.563
 3848POPC   C3A49301  37.822  25.382   6.876
 3848POPC   C4A49302  38.017  25.252   7.263
 3848POPC   C1B49303  37.393  24.982   6.230
 3848POPC   C2B49304  37.289  24.936   6.671
 3848POPC   C3B49305  37.394  25.142   7.042
 3848POPC   C4B49306  37.535  24.884   7.390
 3849POPC   NC349307  20.358  20.327   5.455
 3849POPC   PO449308  20.882  20.517   5.381
 3849POPC   GL149309  20.865  20.672   5.817
 3849POPC   GL249310  20.506  20.629   5.865
 3849POPC   C1A49311  20.838  20.740   6.276
 3849POPC   D2A49312  20.743  20.496   6.650
 3849POPC   C3A49313  20.822  20.705   7.024
 3849POPC   C4A49314  20.433  20.865   7.191
 3849POPC   C1B49315  20.551  20.302   6.200
 3849POPC   C2B49316  20.377  20.138   6.621
 3849POPC   C3B49317  20.316  20.351   7.049
 3849POPC   C4B49318  20.411  20.235   7.513
 3850POPC   NC349319  43.311   8.428   5.373
 3850POPC   PO449320  42.756   8.182   5.308
 3850POPC   GL149321  42.903   8.157   5.761
 3850POPC   GL249322  43.227   8.296   5.849
 3850POPC   C1A49323  42.898   8.071   6.222
 3850POPC   D2A49324  43.060   7.885   6.617
 3850POPC   C3A49325  42.930   8.052   7.021
 3850POPC   C4A49326  42.991   7.880   7.426
 3850POPC   C1B49327  43.360   8.414   6.238
 3850POPC   C2B49328  43.539   8.200   6.593
 3850POPC   C3B49329  43.437   8.256   7.030
 3850POPC   C4B49330  43.570   8.557   7.333
 3851POPC   NC349331  20.055  28.404   5.537
 3851POPC   PO449332  19.484  28.717   5.303
 3851POPC   GL149333  19.619  28.508   5.747
 3851POPC   GL249334  19.628  28.143   5.783
 3851POPC   C1A49335  19.835  28.429   6.160
 3851POPC   D2A49336  19.984  28.140   6.470
 3851POPC   C3A49337  19.876  28.245   6.869
 3851POPC   C4A49338  19.992  28.172   7.269
 3851POPC   C1B49339  19.568  27.986   6.204
 3851POPC   C2B49340  19.499  27.914   6.638
 3851POPC   C3B49341  19.582  27.879   7.100
 3851POPC   C4B49342  19.718  27.826   7.527
 3852POPC   NC349343  35.060  27.989   5.665
 3852POPC   PO449344  35.110  27.393   5.296
 3852POPC   GL149345  35.246  27.376   5.766
 3852POPC   GL249346  35.416  27.694   5.852
 3852POPC   C1A49347  35.510  27.338   6.177
 3852POPC   D2A49348  35.327  27.446   6.573
 3852POPC   C3A49349  35.300  27.202   6.933
 3852POPC   C4A49350  35.334  27.369   7.339
 3852POPC   C1B49351  35.382  27.905   6.258
 3852POPC   C2B49352  35.572  27.910   6.666
 3852POPC   C3B49353  35.507  27.782   7.075
 3852POPC   C4B49354  35.267  27.869   7.439
 3853POPC   NC349355   7.375  33.262   5.394
 3853POPC   PO449356   7.431  32.660   5.164
 3853POPC   GL149357   7.408  32.832   5.672
 3853POPC   GL249358   7.267  33.137   5.885
 3853POPC   C1A49359   7.591  32.830   6.117
 3853POPC   D2A49360   7.441  33.075   6.444
 3853POPC   C3A49361   7.447  32.892   6.853
 3853POPC   C4A49362   7.165  33.036   7.164
 3853POPC   C1B49363   7.629  33.387   6.049
 3853POPC   C2B49364   7.669  33.529   6.488
 3853POPC   C3B49365   7.584  33.393   6.924
 3853POPC   C4B49366   7.391  33.457   7.322
 3854POPC   NC349367  10.797  20.086   5.122
 3854POPC   PO449368  11.349  19.687   5.222
 3854POPC   GL149369  11.444  19.760   5.779
 3854POPC   GL249370  11.413  19.474   5.984
 3854POPC   C1A49371  11.413  20.047   6.154
 3854POPC   D2A49372  11.195  20.090   6.599
 3854POPC   C3A49373  11.452  20.033   6.989
 3854POPC   C4A49374  11.427  19.663   7.232
 3854POPC   C1B49375  11.116  19.668   6.274
 3854POPC   C2B49376  11.060  19.573   6.667
 3854POPC   C3B49377  10.953  19.757   7.043
 3854POPC   C4B49378  11.036  20.147   7.246
 3855POPC   NC349379  22.766   2.303   5.335
 3855POPC   PO449380  23.183   1.845   5.414
 3855POPC   GL149381  22.967   1.782   5.784
 3855POPC   GL249382  22.908   2.135   5.795
 3855POPC   C1A49383  22.964   1.677   6.230
 3855POPC   D2A49384  22.949   1.905   6.622
 3855POPC   C3A49385  22.928   1.787   7.058
 3855POPC   C4A49386  23.301   1.956   7.182
 3855POPC   C1B49387  22.634   2.095   6.135
 3855POPC   C2B49388  22.631   2.293   6.530
 3855POPC   C3B49389  22.762   2.273   6.935
 3855POPC   C4B49390  22.576   2.173   7.269
 3856POPC   NC349391  15.631   1.464   5.665
 3856POPC   PO449392  16.045   1.153   5.197
 3856POPC   GL149393  16.050   1.107   5.686
 3856POPC   GL249394  15.778   1.082   5.950
 3856POPC   C1A49395  16.288   1.066   6.082
 3856POPC   D2A49396  16.376   1.150   6.552
 3856POPC   C3A49397  16.083   1.069   6.905
 3856POPC   C4A49398  16.079   1.184   7.335
 3856POPC   C1B49399  15.777   1.424   6.301
 3856POPC   C2B49400  15.530   1.433   6.695
 3856POPC   C3B49401  15.711   1.434   7.098
 3856POPC   C4B49402  15.780   1.538   7.574
 3857POPC   NC349403  39.430  15.377   5.421
 3857POPC   PO449404  39.354  14.698   5.373
 3857POPC   GL149405  39.292  14.986   5.722
 3857POPC   GL249406  39.544  14.846   5.856
 3857POPC   C1A49407  39.174  15.226   6.113
 3857POPC   D2A49408  38.932  15.328   6.503
 3857POPC   C3A49409  39.112  15.264   6.916
 3857POPC   C4A49410  39.144  15.609   7.201
 3857POPC   C1B49411  39.657  14.900   6.238
 3857POPC   C2B49412  39.523  15.046   6.620
 3857POPC   C3B49413  39.485  14.841   6.989
 3857POPC   C4B49414  39.277  14.729   7.350
 3858POPC   NC349415  17.300   1.682   5.395
 3858POPC   PO449416  17.695   2.242   5.475
 3858POPC   GL149417  17.398   2.040   5.763
 3858POPC   GL249418  17.500   1.693   5.857
 3858POPC   C1A49419  17.180   2.141   6.143
 3858POPC   D2A49420  17.379   2.250   6.529
 3858POPC   C3A49421  17.525   2.030   6.868
 3858POPC   C4A49422  17.764   2.179   7.194
 3858POPC   C1B49423  17.168   1.621   6.144
 3858POPC   C2B49424  17.144   1.795   6.562
 3858POPC   C3B49425  17.272   1.607   6.961
 3858POPC   C4B49426  17.473   1.794   7.366
 3859POPC   NC349427   9.716  30.085   5.179
 3859POPC   PO449428   9.866  29.446   5.363
 3859POPC   GL149429   9.798  29.650   5.761
 3859POPC   GL249430   9.654  30.000   5.717
 3859POPC   C1A49431   9.938  29.648   6.182
 3859POPC   D2A49432   9.876  29.903   6.548
 3859POPC   C3A49433   9.795  29.740   6.935
 3859POPC   C4A49434   9.923  29.971   7.287
 3859POPC   C1B49435   9.780  30.195   6.113
 3859POPC   C2B49436   9.639  30.356   6.513
 3859POPC   C3B49437   9.745  30.286   6.925
 3859POPC   C4B49438   9.593  30.347   7.330
 3860POPC   NC349439   5.188  26.675   5.534
 3860POPC   PO449440   4.679  26.611   5.917
 3860POPC   GL149441   5.120  26.759   6.057
 3860POPC   GL249442   5.255  27.052   5.942
 3860POPC   C1A49443   5.298  26.792   6.473
 3860POPC   D2A49444   4.950  26.680   6.753
 3860POPC   C3A49445   4.974  26.549   7.166
 3860POPC   C4A49446   5.218  26.595   7.524
 3860POPC   C1B49447   5.345  27.372   6.278
 3860POPC   C2B49448   5.440  27.300   6.735
 3860POPC   C3B49449   5.256  26.995   7.061
 3860POPC   C4B49450   4.949  27.016   7.425
 3861POPC   NC349451  12.540  43.827   4.916
 3861POPC   PO449452  12.947  43.916   5.410
 3861POPC   GL149453  13.001  43.803   5.820
 3861POPC   GL249454  13.097  43.460   5.825
 3861POPC   C1A49455  12.752  43.903   6.212
 3861POPC   D2A49456  12.923  43.992   6.611
 3861POPC   C3A49457  12.706  43.943   6.989
 3861POPC   C4A49458  12.874  44.210   7.327
 3861POPC   C1B49459  12.863  43.413   6.195
 3861POPC   C2B49460  12.775  43.506   6.652
 3861POPC   C3B49461  12.910  43.463   7.084
 3861POPC   C4B49462  12.699  43.723   7.437
 3862POPC   NC349463  28.180  27.763   5.237
 3862POPC   PO449464  28.544  27.363   5.596
 3862POPC   GL149465  28.373  27.700   5.790
 3862POPC   GL249466  28.071  27.875   5.716
 3862POPC   C1A49467  28.259  27.703   6.233
 3862POPC   D2A49468  28.448  27.443   6.558
 3862POPC   C3A49469  28.296  27.459   6.947
 3862POPC   C4A49470  28.597  27.645   7.167
 3862POPC   C1B49471  27.955  28.131   6.065
 3862POPC   C2B49472  27.932  28.032   6.480
 3862POPC   C3B49473  28.208  27.954   6.856
 3862POPC   C4B49474  28.117  27.827   7.282
 3863POPC   NC349475  21.831  30.151   5.490
 3863POPC   PO449476  22.365  29.762   5.308
 3863POPC   GL149477  22.227  29.857   5.700
 3863POPC   GL249478  21.913  29.671   5.680
 3863POPC   C1A49479  22.382  29.967   6.111
 3863POPC   D2A49480  22.568  30.024   6.516
 3863POPC   C3A49481  22.257  30.075   6.833
 3863POPC   C4A49482  22.323  30.203   7.240
 3863POPC   C1B49483  21.909  29.734   6.115
 3863POPC   C2B49484  22.144  29.680   6.508
 3863POPC   C3B49485  21.938  29.652   6.896
 3863POPC   C4B49486  21.901  29.902   7.222
 3864POPC   NC349487  14.022  32.854   5.357
 3864POPC   PO449488  14.529  33.236   5.202
 3864POPC   GL149489  14.548  33.322   5.677
 3864POPC   GL249490  14.629  32.975   5.765
 3864POPC   C1A49491  14.265  33.296   6.062
 3864POPC   D2A49492  14.140  32.968   6.406
 3864POPC   C3A49493  14.034  33.111   6.835
 3864POPC   C4A49494  14.234  33.160   7.221
 3864POPC   C1B49495  14.690  33.050   6.206
 3864POPC   C2B49496  14.572  33.210   6.586
 3864POPC   C3B49497  14.706  33.165   6.995
 3864POPC   C4B49498  14.825  32.800   7.200
 3865POPC   NC349499   1.625   7.224   5.699
 3865POPC   PO449500   2.014   7.705   5.393
 3865POPC   GL149501   2.101   7.460   5.739
 3865POPC   GL249502   2.383   7.201   5.716
 3865POPC   C1A49503   2.015   7.559   6.168
 3865POPC   D2A49504   2.165   7.372   6.526
 3865POPC   C3A49505   2.026   7.490   6.922
 3865POPC   C4A49506   1.917   7.558   7.338
 3865POPC   C1B49507   2.125   7.069   6.091
 3865POPC   C2B49508   1.861   6.889   6.429
 3865POPC   C3B49509   1.817   6.973   6.834
 3865POPC   C4B49510   2.047   7.047   7.196
 3866POPC   NC349511   7.953  22.867   5.284
 3866POPC   PO449512   8.097  23.364   5.676
 3866POPC   GL149513   8.096  23.001   5.883
 3866POPC   GL249514   7.885  22.702   5.785
 3866POPC   C1A49515   8.292  23.065   6.281
 3866POPC   D2A49516   8.387  23.257   6.673
 3866POPC   C3A49517   8.172  23.109   7.035
 3866POPC   C4A49518   8.329  22.730   7.196
 3866POPC   C1B49519   8.020  22.636   6.226
 3866POPC   C2B49520   8.204  22.726   6.642
 3866POPC   C3B49521   7.894  22.697   6.910
 3866POPC   C4B49522   7.865  22.579   7.309
 3867POPC   NC349523   1.615   2.336   5.472
 3867POPC   PO449524   2.039   2.936   5.539
 3867POPC   GL149525   1.917   2.917   5.968
 3867POPC   GL249526   1.826   2.570   5.909
 3867POPC   C1A49527   1.870   2.810   6.393
 3867POPC   D2A49528   2.091   2.480   6.594
 3867POPC   C3A49529   2.225   2.557   6.977
 3867POPC   C4A49530   2.184   2.792   7.366
 3867POPC   C1B49531   1.715   2.325   6.281
 3867POPC   C2B49532   1.551   2.456   6.657
 3867POPC   C3B49533   1.737   2.536   7.046
 3867POPC   C4B49534   1.755   2.487   7.500
 3868POPC   NC349535  30.598   2.202   5.407
 3868POPC   PO449536  30.634   1.547   5.388
 3868POPC   GL149537  30.714   1.815   5.799
 3868POPC   GL249538  30.746   2.205   5.888
 3868POPC   C1A49539  30.739   1.860   6.257
 3868POPC   D2A49540  30.687   2.116   6.621
 3868POPC   C3A49541  30.715   1.889   6.996
 3868POPC   C4A49542  30.607   2.043   7.392
 3868POPC   C1B49543  30.390   2.225   6.200
 3868POPC   C2B49544  30.176   2.283   6.597
 3868POPC   C3B49545  30.299   2.232   7.042
 3868POPC   C4B49546  30.125   2.105   7.495
 3869POPC   NC349547   8.343   1.556   5.466
 3869POPC   PO449548   8.276   2.209   5.687
 3869POPC   GL149549   8.055   2.206   6.053
 3869POPC   GL249550   7.712   2.365   5.979
 3869POPC   C1A49551   8.048   1.830   6.304
 3869POPC   D2A49552   7.926   1.578   6.636
 3869POPC   C3A49553   7.996   1.753   7.010
 3869POPC   C4A49554   8.367   1.674   7.167
 3869POPC   C1B49555   7.835   2.451   6.425
 3869POPC   C2B49556   8.205   2.231   6.628
 3869POPC   C3B49557   8.320   2.166   7.043
 3869POPC   C4B49558   7.950   2.215   7.282
 3870POPC   NC349559  10.506   4.177   5.455
 3870POPC   PO449560  10.331   4.806   5.353
 3870POPC   GL149561  10.334   4.598   5.774
 3870POPC   GL249562  10.650   4.432   5.874
 3870POPC   C1A49563  10.245   4.467   6.213
 3870POPC   D2A49564  10.325   4.236   6.600
 3870POPC   C3A49565  10.176   4.411   6.993
 3870POPC   C4A49566  10.442   4.214   7.273
 3870POPC   C1B49567  10.670   4.134   6.220
 3870POPC   C2B49568  10.822   4.036   6.635
 3870POPC   C3B49569  10.918   4.212   7.074
 3870POPC   C4B49570  10.879   4.221   7.550
 3871POPC   NC349571   0.001  29.359   5.277
 3871POPC   PO449572   0.488  28.880   5.501
 3871POPC   GL149573   0.450  29.140   5.838
 3871POPC   GL249574   0.348  29.429   5.657
 3871POPC   C1A49575   0.539  29.171   6.308
 3871POPC   D2A49576   0.484  29.225   6.778
 3871POPC   C3A49577   0.646  28.948   7.070
 3871POPC   C4A49578   0.485  28.639   7.342
 3871POPC   C1B49579   0.250  29.555   6.069
 3871POPC   C2B49580   0.132  29.460   6.489
 3871POPC   C3B49581   0.064  29.438   6.944
 3871POPC   C4B49582   0.334  29.268   7.342
 3872POPC   NC349583  39.733  18.398   5.068
 3872POPC   PO449584  40.185  18.149   5.566
 3872POPC   GL149585  40.018  18.280   5.983
 3872POPC   GL249586  39.733  18.564   5.961
 3872POPC   C1A49587  40.154  18.088   6.386
 3872POPC   D2A49588  40.374  18.192   6.779
 3872POPC   C3A49589  40.167  18.115   7.175
 3872POPC   C4A49590  40.299  17.849   7.548
 3872POPC   C1B49591  39.649  18.495   6.381
 3872POPC   C2B49592  39.904  18.411   6.721
 3872POPC   C3B49593  40.253  18.667   6.903
 3872POPC   C4B49594  40.451  18.608   7.308
 3873POPC   NC349595   5.846  10.749   5.081
 3873POPC   PO449596   5.950  11.377   5.178
 3873POPC   GL149597   5.940  11.449   5.689
 3873POPC   GL249598   5.619  11.676   5.777
 3873POPC   C1A49599   5.929  11.456   6.167
 3873POPC   D2A49600   6.021  11.664   6.579
 3873POPC   C3A49601   5.970  11.381   6.961
 3873POPC   C4A49602   6.151  11.259   7.348
 3873POPC   C1B49603   5.417  11.496   6.153
 3873POPC   C2B49604   5.538  11.482   6.573
 3873POPC   C3B49605   5.422  11.402   6.985
 3873POPC   C4B49606   5.593  11.486   7.381
 3874POPC   NC349607   6.531  27.623   5.473
 3874POPC   PO449608   6.342  27.001   5.445
 3874POPC   GL149609   6.472  27.269   5.817
 3874POPC   GL249610   6.862  27.321   5.877
 3874POPC   C1A49611   6.532  27.579   6.158
 3874POPC   D2A49612   6.841  27.452   6.477
 3874POPC   C3A49613   6.637  27.479   6.841
 3874POPC   C4A49614   6.533  27.705   7.180
 3874POPC   C1B49615   6.996  27.757   6.088
 3874POPC   C2B49616   6.762  27.963   6.446
 3874POPC   C3B49617   6.860  27.956   6.888
 3874POPC   C4B49618   7.021  27.983   7.340
 3875POPC   NC349619  44.038   0.840   5.134
 3875POPC   PO449620  43.854   1.364   5.514
 3875POPC   GL149621  43.865   1.239   5.951
 3875POPC   GL249622  44.074   0.956   5.939
 3875POPC   C1A49623  43.618   0.991   6.246
 3875POPC   D2A49624  43.398   0.994   6.631
 3875POPC   C3A49625  43.673   1.188   6.915
 3875POPC   C4A49626  43.836   1.195   7.332
 3875POPC   C1B49627  44.216   0.931   6.345
 3875POPC   C2B49628  44.152   1.112   6.729
 3875POPC   C3B49629  44.159   0.891   7.092
 3875POPC   C4B49630  44.230   0.952   7.581
 3876POPC   NC349631  19.818   4.282   5.268
 3876POPC   PO449632  20.452   4.089   5.393
 3876POPC   GL149633  20.145   4.111   5.753
 3876POPC   GL249634  19.914   4.415   5.787
 3876POPC   C1A49635  20.014   4.102   6.210
 3876POPC   D2A49636  19.781   3.991   6.593
 3876POPC   C3A49637  19.896   4.112   7.008
 3876POPC   C4A49638  19.739   4.389   7.341
 3876POPC   C1B49639  20.043   4.613   6.197
 3876POPC   C2B49640  19.937   4.493   6.629
 3876POPC   C3B49641  20.071   4.608   7.043
 3876POPC   C4B49642  20.138   4.635   7.558
 3877POPC   NC349643  29.765  20.196   5.429
 3877POPC   PO449644  30.089  19.560   5.515
 3877POPC   GL149645  29.858  19.570   5.867
 3877POPC   GL249646  29.708  19.897   5.832
 3877POPC   C1A49647  29.998  19.725   6.266
 3877POPC   D2A49648  30.185  19.923   6.629
 3877POPC   C3A49649  30.026  19.800   7.030
 3877POPC   C4A49650  29.874  19.639   7.443
 3877POPC   C1B49651  29.681  20.135   6.209
 3877POPC   C2B49652  29.589  20.035   6.634
 3877POPC   C3B49653  29.701  20.203   7.035
 3877POPC   C4B49654  29.901  20.160   7.439
 3878POPC   NC349655  16.076  32.770   5.539
 3878POPC   PO449656  16.118  31.997   5.533
 3878POPC   GL149657  15.931  32.114   5.882
 3878POPC   GL249658  16.115  32.394   5.858
 3878POPC   C1A49659  16.044  32.157   6.304
 3878POPC   D2A49660  15.844  32.209   6.661
 3878POPC   C3A49661  16.116  32.183   6.987
 3878POPC   C4A49662  15.953  32.176   7.361
 3878POPC   C1B49663  16.137  32.637   6.192
 3878POPC   C2B49664  15.970  32.692   6.585
 3878POPC   C3B49665  16.190  32.716   6.946
 3878POPC   C4B49666  16.265  32.559   7.340
 3879POPC   NC349667  30.319  10.356   5.418
 3879POPC   PO449668  31.017  10.618   5.316
 3879POPC   GL149669  30.770  10.723   5.660
 3879POPC   GL249670  31.007  10.517   5.827
 3879POPC   C1A49671  30.663  10.783   6.104
 3879POPC   D2A49672  30.533  10.928   6.502
 3879POPC   C3A49673  30.491  10.558   6.733
 3879POPC   C4A49674  30.569  10.517   7.163
 3879POPC   C1B49675  30.979  10.324   6.231
 3879POPC   C2B49676  30.813  10.178   6.616
 3879POPC   C3B49677  30.985  10.267   7.003
 3879POPC   C4B49678  30.903  10.234   7.452
 3880POPC   NC349679  27.105   4.597   5.584
 3880POPC   PO449680  27.742   4.306   5.267
 3880POPC   GL149681  27.664   4.351   5.739
 3880POPC   GL249682  27.349   4.195   5.783
 3880POPC   C1A49683  27.929   4.386   6.145
 3880POPC   D2A49684  27.837   4.539   6.572
 3880POPC   C3A49685  27.739   4.418   7.005
 3880POPC   C4A49686  27.898   4.704   7.317
 3880POPC   C1B49687  27.431   4.247   6.224
 3880POPC   C2B49688  27.529   4.092   6.630
 3880POPC   C3B49689  27.308   4.139   6.998
 3880POPC   C4B49690  27.181   4.234   7.406
 3881POPC   NC349691  39.688  14.503   5.092
 3881POPC   PO449692  40.125  14.064   5.430
 3881POPC   GL149693  40.078  14.239   5.844
 3881POPC   GL249694  40.178  14.570   5.806
 3881POPC   C1A49695  39.867  14.395   6.241
 3881POPC   D2A49696  39.909  14.664   6.613
 3881POPC   C3A49697  39.900  14.493   7.012
 3881POPC   C4A49698  40.101  14.612   7.376
 3881POPC   C1B49699  40.268  14.717   6.218
 3881POPC   C2B49700  40.352  14.927   6.599
 3881POPC   C3B49701  40.404  14.739   6.990
 3881POPC   C4B49702  40.650  14.710   7.378
 3882POPC   NC349703  41.447   1.701   5.246
 3882POPC   PO449704  41.767   2.279   5.339
 3882POPC   GL149705  41.515   2.082   5.691
 3882POPC   GL249706  41.255   1.806   5.717
 3882POPC   C1A49707  41.613   1.987   6.136
 3882POPC   D2A49708  41.803   1.782   6.517
 3882POPC   C3A49709  41.893   1.951   6.928
 3882POPC   C4A49710  41.739   1.800   7.342
 3882POPC   C1B49711  41.246   1.618   6.148
 3882POPC   C2B49712  41.290   1.883   6.516
 3882POPC   C3B49713  41.382   1.843   6.944
 3882POPC   C4B49714  41.229   2.117   7.268
 3883POPC   NC349715  12.355   0.313   5.230
 3883POPC   PO449716  12.906   0.647   5.159
 3883POPC   GL149717  12.907   0.442   5.667
 3883POPC   GL249718  13.099   0.151   5.759
 3883POPC   C1A49719  12.762   0.394   6.116
 3883POPC   D2A49720  12.866   0.593   6.515
 3883POPC   C3A49721  12.770   0.417   6.890
 3883POPC   C4A49722  12.540   0.503   7.244
 3883POPC   C1B49723  13.194   0.126   6.223
 3883POPC   C2B49724  13.067   0.042   6.673
 3883POPC   C3B49725  13.282   0.090   7.079
 3883POPC   C4B49726  13.025   0.336   7.332
 3884POPC   NC349727  21.181   4.985   5.310
 3884POPC   PO449728  21.830   5.193   5.355
 3884POPC   GL149729  21.501   5.212   5.719
 3884POPC   GL249730  21.339   4.907   5.820
 3884POPC   C1A49731  21.502   5.215   6.210
 3884POPC   D2A49732  21.375   5.450   6.613
 3884POPC   C3A49733  21.527   5.256   6.978
 3884POPC   C4A49734  21.527   5.110   7.397
 3884POPC   C1B49735  21.094   4.830   6.208
 3884POPC   C2B49736  21.212   4.663   6.615
 3884POPC   C3B49737  21.217   4.864   7.009
 3884POPC   C4B49738  20.808   4.916   7.178
 3885POPC   NC349739  43.632  15.085   5.416
 3885POPC   PO449740  44.149  15.441   5.334
 3885POPC   GL149741  43.926  15.423   5.768
 3885POPC   GL249742  43.707  15.161   5.914
 3885POPC   C1A49743  44.076  15.322   6.222
 3885POPC   D2A49744  44.092  15.543   6.645
 3885POPC   C3A49745  43.960  15.385   7.036
 3885POPC   C4A49746  44.128  15.017   7.245
 3885POPC   C1B49747  43.568  15.427   6.279
 3885POPC   C2B49748  43.514  15.353   6.755
 3885POPC   C3B49749  43.610  15.049   7.141
 3885POPC   C4B49750  43.559  15.120   7.574
 3886POPC   NC349751  24.889  12.554   5.363
 3886POPC   PO449752  25.397  13.022   5.288
 3886POPC   GL149753  25.301  12.753   5.659
 3886POPC   GL249754  25.001  12.903   5.768
 3886POPC   C1A49755  25.305  12.676   6.125
 3886POPC   D2A49756  25.091  12.533   6.512
 3886POPC   C3A49757  25.252  12.742   6.859
 3886POPC   C4A49758  25.525  12.579   7.114
 3886POPC   C1B49759  24.815  12.872   6.188
 3886POPC   C2B49760  24.877  13.006   6.629
 3886POPC   C3B49761  24.796  12.804   7.058
 3886POPC   C4B49762  25.082  12.647   7.397
 3887POPC   NC349763  26.043  15.646   5.376
 3887POPC   PO449764  25.862  16.363   5.465
 3887POPC   GL149765  26.084  16.082   5.736
 3887POPC   GL249766  25.900  15.786   5.829
 3887POPC   C1A49767  26.003  16.152   6.154
 3887POPC   D2A49768  26.091  16.002   6.533
 3887POPC   C3A49769  26.169  16.252   6.887
 3887POPC   C4A49770  26.283  16.116   7.301
 3887POPC   C1B49771  25.963  15.591   6.201
 3887POPC   C2B49772  25.931  15.506   6.603
 3887POPC   C3B49773  25.992  15.747   6.959
 3887POPC   C4B49774  25.824  15.679   7.320
 3888POPC   NC349775   2.115  41.927   5.479
 3888POPC   PO449776   1.993  41.296   5.348
 3888POPC   GL149777   1.969  41.510   5.722
 3888POPC   GL249778   2.305  41.447   5.775
 3888POPC   C1A49779   1.772  41.648   6.124
 3888POPC   D2A49780   1.782  41.434   6.531
 3888POPC   C3A49781   1.901  41.582   6.968
 3888POPC   C4A49782   1.797  41.836   7.351
 3888POPC   C1B49783   2.265  41.768   6.079
 3888POPC   C2B49784   2.177  41.765   6.489
 3888POPC   C3B49785   2.387  41.652   6.841
 3888POPC   C4B49786   2.367  41.540   7.245
 3889POPC   NC349787   4.512  27.953   5.390
 3889POPC   PO449788   4.688  27.212   5.323
 3889POPC   GL149789   4.435  27.431   5.649
 3889POPC   GL249790   4.070  27.445   5.825
 3889POPC   C1A49791   4.538  27.629   6.026
 3889POPC   D2A49792   4.600  27.531   6.486
 3889POPC   C3A49793   4.280  27.343   6.754
 3889POPC   C4A49794   4.098  27.508   7.146
 3889POPC   C1B49795   4.102  27.583   6.275
 3889POPC   C2B49796   3.882  27.705   6.657
 3889POPC   C3B49797   3.857  27.974   7.017
 3889POPC   C4B49798   4.010  27.916   7.449
 3890POPC   NC349799  27.360  25.888   5.301
 3890POPC   PO449800  27.988  26.094   5.394
 3890POPC   GL149801  27.720  26.030   5.752
 3890POPC   GL249802  27.359  26.055   5.785
 3890POPC   C1A49803  27.680  26.009   6.200
 3890POPC   D2A49804  27.615  26.306   6.533
 3890POPC   C3A49805  27.697  26.080   6.891
 3890POPC   C4A49806  27.557  26.129   7.326
 3890POPC   C1B49807  27.208  25.789   6.143
 3890POPC   C2B49808  27.372  25.798   6.581
 3890POPC   C3B49809  27.307  25.749   7.020
 3890POPC   C4B49810  27.422  25.610   7.377
 3891POPC   NC349811  12.864  39.595   5.165
 3891POPC   PO449812  12.701  39.009   5.296
 3891POPC   GL149813  12.872  39.225   5.691
 3891POPC   GL249814  13.155  39.489   5.655
 3891POPC   C1A49815  12.997  39.050   6.120
 3891POPC   D2A49816  12.829  38.955   6.562
 3891POPC   C3A49817  13.051  38.937   6.953
 3891POPC   C4A49818  12.795  39.157   7.234
 3891POPC   C1B49819  13.178  39.563   6.113
 3891POPC   C2B49820  13.347  39.596   6.551
 3891POPC   C3B49821  13.065  39.463   6.886
 3891POPC   C4B49822  13.235  39.343   7.284
 3892POPC   NC349823  24.088  11.922   5.359
 3892POPC   PO449824  23.841  12.461   5.195
 3892POPC   GL149825  23.873  12.195   5.710
 3892POPC   GL249826  23.739  11.891   5.748
 3892POPC   C1A49827  23.739  12.208   6.160
 3892POPC   D2A49828  23.931  12.160   6.556
 3892POPC   C3A49829  23.881  12.269   6.963
 3892POPC   C4A49830  24.074  12.393   7.326
 3892POPC   C1B49831  23.885  11.677   6.090
 3892POPC   C2B49832  23.717  11.628   6.476
 3892POPC   C3B49833  23.724  11.783   6.885
 3892POPC   C4B49834  23.466  11.714   7.261
 3893POPC   NC349835  11.206   7.066   5.482
 3893POPC   PO449836  11.465   7.729   5.447
 3893POPC   GL149837  11.431   7.532   5.840
 3893POPC   GL249838  11.087   7.457   5.838
 3893POPC   C1A49839  11.396   7.685   6.286
 3893POPC   D2A49840  11.665   7.615   6.658
 3893POPC   C3A49841  11.605   7.661   7.093
 3893POPC   C4A49842  11.607   7.428   7.460
 3893POPC   C1B49843  11.224   7.199   6.201
 3893POPC   C2B49844  11.249   7.323   6.655
 3893POPC   C3B49845  11.225   7.290   7.111
 3893POPC   C4B49846  11.153   7.199   7.539
 3894POPC   NC349847  29.199   3.477   5.157
 3894POPC   PO449848  28.984   3.137   5.682
 3894POPC   GL149849  29.200   3.389   5.982
 3894POPC   GL249850  29.125   3.753   6.006
 3894POPC   C1A49851  29.228   3.501   6.422
 3894POPC   D2A49852  29.050   3.675   6.773
 3894POPC   C3A49853  28.978   3.406   7.087
 3894POPC   C4A49854  28.801   3.445   7.515
 3894POPC   C1B49855  29.484   3.932   6.239
 3894POPC   C2B49856  29.386   4.158   6.614
 3894POPC   C3B49857  29.140   4.139   6.972
 3894POPC   C4B49858  28.959   3.874   7.276
 3895POPC   NC349859   4.490  24.744   5.316
 3895POPC   PO449860   3.883  24.456   5.422
 3895POPC   GL149861   4.258  24.468   5.717
 3895POPC   GL249862   4.382  24.146   5.800
 3895POPC   C1A49863   4.518  24.580   6.118
 3895POPC   D2A49864   4.302  24.606   6.542
 3895POPC   C3A49865   4.485  24.555   6.957
 3895POPC   C4A49866   4.274  24.600   7.410
 3895POPC   C1B49867   4.138  24.254   6.175
 3895POPC   C2B49868   3.855  24.121   6.444
 3895POPC   C3B49869   3.849  24.365   6.784
 3895POPC   C4B49870   4.125  24.245   7.073
 3896POPC   NC349871  37.251  19.661   5.413
 3896POPC   PO449872  37.762  20.066   5.350
 3896POPC   GL149873  37.755  19.917   5.780
 3896POPC   GL249874  37.645  19.571   5.734
 3896POPC   C1A49875  37.897  19.907   6.249
 3896POPC   D2A49876  37.619  19.670   6.597
 3896POPC   C3A49877  37.702  19.625   7.016
 3896POPC   C4A49878  37.915  19.973   7.120
 3896POPC   C1B49879  37.455  19.729   6.126
 3896POPC   C2B49880  37.442  20.132   6.418
 3896POPC   C3B49881  37.477  20.096   6.896
 3896POPC   C4B49882  37.420  19.911   7.360
 3897POPC   NC349883  36.588   8.923   5.514
 3897POPC   PO449884  37.174   9.179   5.312
 3897POPC   GL149885  37.077   9.003   5.701
 3897POPC   GL249886  37.035   8.643   5.715
 3897POPC   C1A49887  37.209   8.897   6.131
 3897POPC   D2A49888  37.025   8.856   6.551
 3897POPC   C3A49889  37.197   8.889   6.991
 3897POPC   C4A49890  37.022   9.329   7.103
 3897POPC   C1B49891  36.777   8.610   6.124
 3897POPC   C2B49892  36.621   8.528   6.559
 3897POPC   C3B49893  36.724   8.691   6.970
 3897POPC   C4B49894  36.836   8.939   7.365
 3898POPC   NC349895  24.525  32.498   5.629
 3898POPC   PO449896  24.112  32.001   5.385
 3898POPC   GL149897  24.373  32.021   5.772
 3898POPC   GL249898  24.154  32.071   6.036
 3898POPC   C1A49899  24.691  32.080   6.130
 3898POPC   D2A49900  24.821  32.257   6.559
 3898POPC   C3A49901  24.663  32.114   6.957
 3898POPC   C4A49902  24.350  32.378   7.158
 3898POPC   C1B49903  24.318  32.167   6.446
 3898POPC   C2B49904  24.210  31.944   6.779
 3898POPC   C3B49905  24.184  31.894   7.214
 3898POPC   C4B49906  24.018  31.788   7.599
 3899POPC   NC349907  28.790  42.496   5.336
 3899POPC   PO449908  28.527  41.972   5.651
 3899POPC   GL149909  28.468  42.310   5.915
 3899POPC   GL249910  28.158  42.448   5.887
 3899POPC   C1A49911  28.373  42.441   6.342
 3899POPC   D2A49912  28.618  42.634   6.641
 3899POPC   C3A49913  28.612  42.437   7.031
 3899POPC   C4A49914  28.720  42.522   7.440
 3899POPC   C1B49915  27.973  42.728   6.154
 3899POPC   C2B49916  27.877  42.759   6.573
 3899POPC   C3B49917  28.151  42.619   6.876
 3899POPC   C4B49918  28.218  42.639   7.308
 3900POPC   NC349919   3.076   1.465   5.445
 3900POPC   PO449920   2.387   1.423   5.443
 3900POPC   GL149921   2.524   1.163   5.832
 3900POPC   GL249922   2.873   0.981   5.759
 3900POPC   C1A49923   2.601   1.071   6.301
 3900POPC   D2A49924   2.698   1.269   6.712
 3900POPC   C3A49925   2.730   1.109   7.127
 3900POPC   C4A49926   2.443   0.881   7.367
 3900POPC   C1B49927   3.058   1.248   6.096
 3900POPC   C2B49928   3.135   1.454   6.499
 3900POPC   C3B49929   3.060   1.576   6.927
 3900POPC   C4B49930   3.132   1.403   7.298
 3901POPC   NC349931  38.399   5.666   5.472
 3901POPC   PO449932  38.514   6.364   5.494
 3901POPC   GL149933  38.474   6.101   5.882
 3901POPC   GL249934  38.240   5.839   5.922
 3901POPC   C1A49935  38.415   6.055   6.343
 3901POPC   D2A49936  38.415   5.802   6.703
 3901POPC   C3A49937  38.489   6.045   7.010
 3901POPC   C4A49938  38.578   6.010   7.417
 3901POPC   C1B49939  38.046   5.515   6.167
 3901POPC   C2B49940  38.154   5.313   6.545
 3901POPC   C3B49941  38.039   5.514   6.927
 3901POPC   C4B49942  38.183   5.725   7.305
 3902POPC   NC349943  39.354   0.212   5.438
 3902POPC   PO449944  39.210   0.898   5.459
 3902POPC   GL149945  39.125   0.563   5.748
 3902POPC   GL249946  39.389   0.631   5.948
 3902POPC   C1A49947  39.203   0.180   6.089
 3902POPC   D2A49948  39.089  44.999   6.491
 3902POPC   C3A49949  39.283   0.134   6.869
 3902POPC   C4A49950  39.144   0.262   7.290
 3902POPC   C1B49951  38.998   0.616   6.230
 3902POPC   C2B49952  38.895   0.485   6.650
 3902POPC   C3B49953  39.172   0.656   6.951
 3902POPC   C4B49954  39.217   0.797   7.358
 3903POPC   NC349955  20.539   4.641   5.465
 3903POPC   PO449956  20.791   5.251   5.231
 3903POPC   GL149957  20.922   5.236   5.695
 3903POPC   GL249958  20.806   5.540   5.878
 3903POPC   C1A49959  20.650   5.065   6.057
 3903POPC   D2A49960  20.531   4.793   6.417
 3903POPC   C3A49961  20.464   4.988   6.820
 3903POPC   C4A49962  20.291   5.006   7.235
 3903POPC   C1B49963  21.014   5.374   6.237
 3903POPC   C2B49964  20.960   5.138   6.631
 3903POPC   C3B49965  21.013   5.353   7.026
 3903POPC   C4B49966  21.044   5.247   7.467
 3904POPC   NC349967  44.332  18.141   5.286
 3904POPC   PO449968  44.918  18.440   5.361
 3904POPC   GL149969  44.718  18.259   5.750
 3904POPC   GL249970  44.367  18.153   5.814
 3904POPC   C1A49971  44.741  18.030   6.160
 3904POPC   D2A49972  44.589  17.938   6.589
 3904POPC   C3A49973  44.614  18.324   6.797
 3904POPC   C4A49974  44.695  18.434   7.200
 3904POPC   C1B49975  44.369  18.352   6.241
 3904POPC   C2B49976  44.157  18.467   6.624
 3904POPC   C3B49977  44.207  18.456   7.095
 3904POPC   C4B49978  44.315  18.307   7.511
 3905POPC   NC349979   3.838  24.077   4.955
 3905POPC   PO449980   3.561  23.613   5.462
 3905POPC   GL149981   3.516  23.753   5.882
 3905POPC   GL249982   3.640  23.434   6.016
 3905POPC   C1A49983   3.474  23.809   6.325
 3905POPC   D2A49984   3.477  23.548   6.690
 3905POPC   C3A49985   3.279  23.871   6.924
 3905POPC   C4A49986   3.479  24.220   7.121
 3905POPC   C1B49987   3.923  23.543   6.367
 3905POPC   C2B49988   4.141  23.764   6.686
 3905POPC   C3B49989   3.810  23.868   6.948
 3905POPC   C4B49990   3.596  23.647   7.255
 3906POPC   NC349991  32.501  14.407   5.365
 3906POPC   PO449992  31.900  14.706   5.469
 3906POPC   GL149993  32.137  14.408   5.792
 3906POPC   GL249994  32.519  14.370   5.876
 3906POPC   C1A49995  32.049  14.271   6.245
 3906POPC   D2A49996  31.858  14.053   6.622
 3906POPC   C3A49997  32.138  14.058   7.017
 3906POPC   C4A49998  32.199  14.145   7.483
 3906POPC   C1B49999  32.569  14.392   6.327
 3906POPC   C2B50000  32.428  14.436   6.766
 3906POPC   C3B50001  32.566  14.330   7.172
 3906POPC   C4B50002  32.683  14.231   7.603
 3907POPC   NC350003  33.137   3.031   5.577
 3907POPC   PO450004  32.850   2.487   5.450
 3907POPC   GL150005  32.983   2.605   5.839
 3907POPC   GL250006  32.768   2.867   5.899
 3907POPC   C1A50007  33.197   2.724   6.201
 3907POPC   D2A50008  33.103   2.545   6.580
 3907POPC   C3A50009  32.967   2.761   6.946
 3907POPC   C4A50010  32.842   2.579   7.349
 3907POPC   C1B50011  32.814   3.074   6.316
 3907POPC   C2B50012  32.710   3.244   6.724
 3907POPC   C3B50013  32.721   3.165   7.158
 3907POPC   C4B50014  33.058   3.024   7.402
 3908POPC   NC350015   7.065  16.812   5.140
 3908POPC   PO450016   7.560  16.552   5.412
 3908POPC   GL150017   7.510  16.746   5.805
 3908POPC   GL250018   7.172  16.839   5.860
 3908POPC   C1A50019   7.669  16.798   6.229
 3908POPC   D2A50020   7.659  16.565   6.591
 3908POPC   C3A50021   7.566  16.823   6.924
 3908POPC   C4A50022   7.547  16.650   7.296
 3908POPC   C1B50023   7.231  16.556   6.225
 3908POPC   C2B50024   7.152  16.633   6.660
 3908POPC   C3B50025   7.065  16.742   7.088
 3908POPC   C4B50026   7.098  16.473   7.430
 3909POPC   NC350027  34.555  39.840   5.431
 3909POPC   PO450028  34.246  40.281   5.058
 3909POPC   GL150029  34.275  40.284   5.581
 3909POPC   GL250030  34.225  39.970   5.805
 3909POPC   C1A50031  34.450  40.351   6.053
 3909POPC   D2A50032  34.428  40.165   6.506
 3909POPC   C3A50033  34.709  40.222   6.901
 3909POPC   C4A50034  35.102  40.142   7.165
 3909POPC   C1B50035  34.155  39.793   6.238
 3909POPC   C2B50036  34.063  39.628   6.662
 3909POPC   C3B50037  34.355  39.489   6.997
 3909POPC   C4B50038  34.578  39.813   7.209
 3910POPC   NC350039  30.790   4.096   5.487
 3910POPC   PO450040  30.512   4.644   5.488
 3910POPC   GL150041  30.838   4.509   5.824
 3910POPC   GL250042  30.987   4.184   5.942
 3910POPC   C1A50043  30.969   4.594   6.240
 3910POPC   D2A50044  30.692   4.561   6.595
 3910POPC   C3A50045  30.914   4.388   6.920
 3910POPC   C4A50046  30.822   4.562   7.293
 3910POPC   C1B50047  30.668   4.151   6.288
 3910POPC   C2B50048  30.615   3.974   6.745
 3910POPC   C3B50049  30.693   4.044   7.243
 3910POPC   C4B50050  30.556   3.911   7.693
 3911POPC   NC350051  40.331  19.007   5.344
 3911POPC   PO450052  39.744  18.694   5.452
 3911POPC   GL150053  40.012  18.928   5.732
 3911POPC   GL250054  40.292  18.678   5.744
 3911POPC   C1A50055  40.051  19.205   6.110
 3911POPC   D2A50056  40.226  19.438   6.500
 3911POPC   C3A50057  40.181  19.221   6.883
 3911POPC   C4A50058  40.114  19.008   7.254
 3911POPC   C1B50059  40.188  18.710   6.185
 3911POPC   C2B50060  39.976  18.911   6.525
 3911POPC   C3B50061  39.754  18.866   6.909
 3911POPC   C4B50062  39.855  18.546   7.212
 3912POPC   NC350063  36.925  14.034   5.493
 3912POPC   PO450064  36.768  14.643   5.273
 3912POPC   GL150065  36.741  14.478   5.690
 3912POPC   GL250066  37.088  14.476   5.798
 3912POPC   C1A50067  36.702  14.339   6.137
 3912POPC   D2A50068  36.522  14.472   6.549
 3912POPC   C3A50069  36.785  14.326   6.904
 3912POPC   C4A50070  36.696  14.078   7.257
 3912POPC   C1B50071  37.253  14.343   6.238
 3912POPC   C2B50072  37.294  14.345   6.714
 3912POPC   C3B50073  37.268  14.426   7.151
 3912POPC   C4B50074  36.916  14.555   7.423
 3913POPC   NC350075  25.223  15.321   5.473
 3913POPC   PO450076  25.617  14.902   5.662
 3913POPC   GL150077  25.472  15.259   5.901
 3913POPC   GL250078  25.104  15.211   5.951
 3913POPC   C1A50079  25.454  15.430   6.297
 3913POPC   D2A50080  25.528  15.217   6.674
 3913POPC   C3A50081  25.376  15.440   7.020
 3913POPC   C4A50082  25.026  15.343   7.269
 3913POPC   C1B50083  25.287  14.948   6.269
 3913POPC   C2B50084  25.318  14.709   6.633
 3913POPC   C3B50085  25.264  14.936   6.997
 3913POPC   C4B50086  25.302  14.936   7.384
 3914POPC   NC350087  17.118  22.107   5.307
 3914POPC   PO450088  17.613  22.570   5.438
 3914POPC   GL150089  17.489  22.198   5.642
 3914POPC   GL250090  17.710  21.933   5.548
 3914POPC   C1A50091  17.423  22.184   6.078
 3914POPC   D2A50092  17.493  22.430   6.425
 3914POPC   C3A50093  17.362  22.231   6.790
 3914POPC   C4A50094  17.480  22.241   7.232
 3914POPC   C1B50095  17.741  21.799   5.991
 3914POPC   C2B50096  17.597  21.860   6.435
 3914POPC   C3B50097  17.608  21.805   6.895
 3914POPC   C4B50098  17.790  21.857   7.300
 3915POPC   NC350099  33.184  44.907   5.174
 3915POPC   PO450100  32.898  44.343   5.463
 3915POPC   GL150101  32.976  44.719   5.773
 3915POPC   GL250102  32.925  44.425   5.995
 3915POPC   C1A50103  32.777  44.862   6.184
 3915POPC   D2A50104  32.817  44.655   6.598
 3915POPC   C3A50105  32.697  44.879   6.982
 3915POPC   C4A50106  32.716   0.173   7.326
 3915POPC   C1B50107  33.222  44.574   6.291
 3915POPC   C2B50108  33.296  44.355   6.671
 3915POPC   C3B50109  33.026  44.401   7.061
 3915POPC   C4B50110  33.029  44.771   7.364
 3916POPC   NC350111   4.770  23.626   5.628
 3916POPC   PO450112   5.357  24.041   5.613
 3916POPC   GL150113   5.194  23.732   5.885
 3916POPC   GL250114   5.237  23.399   5.725
 3916POPC   C1A50115   4.957  23.676   6.253
 3916POPC   D2A50116   4.720  23.650   6.622
 3916POPC   C3A50117   4.990  23.647   6.963
 3916POPC   C4A50118   4.734  23.628   7.288
 3916POPC   C1B50119   5.232  23.223   6.147
 3916POPC   C2B50120   5.210  23.353   6.571
 3916POPC   C3B50121   5.320  23.155   6.929
 3916POPC   C4B50122   5.401  23.297   7.296
 3917POPC   NC350123  25.039  36.778   5.522
 3917POPC   PO450124  24.755  37.352   5.478
 3917POPC   GL150125  25.013  37.141   5.861
 3917POPC   GL250126  25.366  36.936   5.865
 3917POPC   C1A50127  25.246  37.128   6.305
 3917POPC   D2A50128  25.236  36.803   6.632
 3917POPC   C3A50129  25.190  36.890   7.078
 3917POPC   C4A50130  25.011  36.812   7.496
 3917POPC   C1B50131  25.551  36.643   6.159
 3917POPC   C2B50132  25.709  36.651   6.553
 3917POPC   C3B50133  25.548  36.514   6.950
 3917POPC   C4B50134  25.418  36.525   7.377
 3918POPC   NC350135  25.378  32.001   5.467
 3918POPC   PO450136  24.853  32.415   5.324
 3918POPC   GL150137  24.933  32.159   5.691
 3918POPC   GL250138  25.186  32.395   5.791
 3918POPC   C1A50139  25.178  31.987   6.083
 3918POPC   D2A50140  25.233  31.967   6.542
 3918POPC   C3A50141  25.418  32.026   6.957
 3918POPC   C4A50142  25.165  32.123   7.311
 3918POPC   C1B50143  25.180  32.459   6.256
 3918POPC   C2B50144  25.462  32.449   6.631
 3918POPC   C3B50145  25.281  32.533   7.013
 3918POPC   C4B50146  24.844  32.558   7.124
 3919POPC   NC350147   1.664   7.180   5.166
 3919POPC   PO450148   1.106   7.572   5.284
 3919POPC   GL150149   1.202   7.569   5.755
 3919POPC   GL250150   1.029   7.881   5.720
 3919POPC   C1A50151   1.306   7.483   6.247
 3919POPC   D2A50152   1.644   7.414   6.582
 3919POPC   C3A50153   1.535   7.328   7.050
 3919POPC   C4A50154   1.157   7.141   7.240
 3919POPC   C1B50155   1.105   7.968   6.134
 3919POPC   C2B50156   0.983   7.800   6.512
 3919POPC   C3B50157   1.174   7.570   6.791
 3919POPC   C4B50158   1.118   7.645   7.208
 3920POPC   NC350159  13.691  40.923   5.130
 3920POPC   PO450160  13.211  40.770   5.507
 3920POPC   GL150161  13.451  40.708   5.861
 3920POPC   GL250162  13.768  40.784   5.707
 3920POPC   C1A50163  13.507  40.859   6.299
 3920POPC   D2A50164  13.604  41.172   6.618
 3920POPC   C3A50165  13.316  41.070   6.927
 3920POPC   C4A50166  13.467  40.856   7.272
 3920POPC   C1B50167  13.968  40.778   6.120
 3920POPC   C2B50168  14.016  40.856   6.563
 3920POPC   C3B50169  13.868  40.792   6.980
 3920POPC   C4B50170  13.904  40.550   7.379
 3921POPC   NC350171  40.129   0.834   5.547
 3921POPC   PO450172  39.660   1.272   5.160
 3921POPC   GL150173  39.723   1.271   5.665
 3921POPC   GL250174  40.027   1.245   5.833
 3921POPC   C1A50175  39.689   1.360   6.169
 3921POPC   D2A50176  39.830   1.093   6.552
 3921POPC   C3A50177  40.088   1.177   6.914
 3921POPC   C4A50178  40.039   1.243   7.357
 3921POPC   C1B50179  40.227   1.120   6.220
 3921POPC   C2B50180  40.423   1.356   6.554
 3921POPC   C3B50181  40.446   1.524   6.980
 3921POPC   C4B50182  40.550   1.310   7.409
 3922POPC   NC350183  26.320  24.580   5.496
 3922POPC   PO450184  26.976  24.862   5.334
 3922POPC   GL150185  26.881  24.738   5.785
 3922POPC   GL250186  26.658  24.455   5.904
 3922POPC   C1A50187  27.055  24.606   6.208
 3922POPC   D2A50188  26.809  24.462   6.558
 3922POPC   C3A50189  27.037  24.363   6.880
 3922POPC   C4A50190  27.023  24.400   7.312
 3922POPC   C1B50191  26.574  24.801   6.217
 3922POPC   C2B50192  26.841  24.960   6.562
 3922POPC   C3B50193  26.860  24.831   6.973
 3922POPC   C4B50194  27.094  24.890   7.314
 3923POPC   NC350195  33.356  18.825   5.649
 3923POPC   PO450196  32.828  19.194   5.375
 3923POPC   GL150197  32.952  19.067   5.804
 3923POPC   GL250198  32.826  18.750   5.790
 3923POPC   C1A50199  33.092  19.105   6.253
 3923POPC   D2A50200  32.907  19.171   6.651
 3923POPC   C3A50201  33.114  19.098   7.055
 3923POPC   C4A50202  33.262  19.483   7.286
 3923POPC   C1B50203  32.922  18.610   6.224
 3923POPC   C2B50204  33.083  18.678   6.654
 3923POPC   C3B50205  32.938  18.598   7.076
 3923POPC   C4B50206  33.026  18.633   7.530
 3924POPC   NC350207  16.376   8.061   5.314
 3924POPC   PO450208  15.889   8.468   5.320
 3924POPC   GL150209  16.171   8.368   5.679
 3924POPC   GL250210  16.218   8.026   5.835
 3924POPC   C1A50211  16.306   8.447   6.105
 3924POPC   D2A50212  16.067   8.491   6.482
 3924POPC   C3A50213  16.177   8.304   6.861
 3924POPC   C4A50214  15.953   8.381   7.211
 3924POPC   C1B50215  16.181   8.002   6.338
 3924POPC   C2B50216  15.967   7.861   6.760
 3924POPC   C3B50217  15.866   7.876   7.224
 3924POPC   C4B50218  15.940   7.678   7.653
 3925POPC   NC350219   7.748  13.557   5.409
 3925POPC   PO450220   8.181  13.992   5.188
 3925POPC   GL150221   8.202  14.057   5.618
 3925POPC   GL250222   7.899  13.928   5.743
 3925POPC   C1A50223   8.355  13.863   5.967
 3925POPC   D2A50224   8.243  13.824   6.402
 3925POPC   C3A50225   8.484  13.979   6.762
 3925POPC   C4A50226   8.424  13.884   7.217
 3925POPC   C1B50227   7.878  13.640   6.092
 3925POPC   C2B50228   7.886  13.458   6.505
 3925POPC   C3B50229   8.171  13.553   6.832
 3925POPC   C4B50230   8.064  13.532   7.232
 3926POPC   NC350231   2.844   9.414   5.088
 3926POPC   PO450232   2.593   8.972   5.570
 3926POPC   GL150233   2.663   9.075   5.974
 3926POPC   GL250234   2.993   9.080   6.031
 3926POPC   C1A50235   2.485   9.076   6.374
 3926POPC   D2A50236   2.377   9.337   6.741
 3926POPC   C3A50237   2.353   9.097   7.132
 3926POPC   C4A50238   2.541   8.712   7.220
 3926POPC   C1B50239   2.880   8.764   6.323
 3926POPC   C2B50240   2.726   8.819   6.739
 3926POPC   C3B50241   3.018   8.852   7.028
 3926POPC   C4B50242   3.203   8.770   7.365
 3927POPC   NC350243  31.659  24.530   5.248
 3927POPC   PO450244  31.005  24.430   5.238
 3927POPC   GL150245  31.297  24.338   5.635
 3927POPC   GL250246  31.692  24.287   5.701
 3927POPC   C1A50247  31.336  24.456   6.088
 3927POPC   D2A50248  31.480  24.741   6.446
 3927POPC   C3A50249  31.358  24.688   6.903
 3927POPC   C4A50250  31.353  24.372   7.221
 3927POPC   C1B50251  31.831  24.343   6.147
 3927POPC   C2B50252  31.694  24.246   6.585
 3927POPC   C3B50253  31.827  24.365   7.024
 3927POPC   C4B50254  31.913  24.325   7.515
 3928POPC   NC350255   0.276  37.709   5.249
 3928POPC   PO450256   0.939  37.776   5.212
 3928POPC   GL150257   0.613  37.804   5.635
 3928POPC   GL250258   0.266  37.932   5.704
 3928POPC   C1A50259   0.512  37.654   6.091
 3928POPC   D2A50260   0.721  37.711   6.497
 3928POPC   C3A50261   0.509  37.716   6.894
 3928POPC   C4A50262   0.523  38.035   7.145
 3928POPC   C1B50263   0.070  37.920   6.114
 3928POPC   C2B50264   0.196  37.899   6.529
 3928POPC   C3B50265   0.033  38.042   6.933
 3928POPC   C4B50266  44.862  37.983   7.344
 3929POPC   NC350267  25.365  16.253   5.613
 3929POPC   PO450268  25.549  15.652   5.443
 3929POPC   GL150269  25.402  15.777   5.907
 3929POPC   GL250270  25.200  16.040   6.076
 3929POPC   C1A50271  25.587  15.912   6.357
 3929POPC   D2A50272  25.321  15.942   6.732
 3929POPC   C3A50273  25.383  15.911   7.205
 3929POPC   C4A50274  25.102  15.769   7.542
 3929POPC   C1B50275  25.118  16.355   6.422
 3929POPC   C2B50276  25.350  16.464   6.779
 3929POPC   C3B50277  25.076  16.289   7.071
 3929POPC   C4B50278  24.738  16.317   7.313
 3930POPC   NC350279  21.078  42.558   5.453
 3930POPC   PO450280  21.508  42.102   5.361
 3930POPC   GL150281  21.425  42.353   5.761
 3930POPC   GL250282  21.725  42.228   5.847
 3930POPC   C1A50283  21.313  42.452   6.234
 3930POPC   D2A50284  21.324  42.709   6.655
 3930POPC   C3A50285  21.299  42.464   7.069
 3930POPC   C4A50286  21.076  42.189   7.366
 3930POPC   C1B50287  21.746  42.182   6.282
 3930POPC   C2B50288  21.600  42.269   6.689
 3930POPC   C3B50289  21.649  42.090   7.100
 3930POPC   C4B50290  21.933  42.070   7.447
 3931POPC   NC350291  12.648  20.235   5.097
 3931POPC   PO450292  12.922  20.197   5.706
 3931POPC   GL150293  12.625  20.018   5.892
 3931POPC   GL250294  12.696  19.706   5.710
 3931POPC   C1A50295  12.614  19.999   6.302
 3931POPC   D2A50296  12.995  20.077   6.444
 3931POPC   C3A50297  13.015  19.984   6.849
 3931POPC   C4A50298  12.810  20.178   7.166
 3931POPC   C1B50299  12.943  19.653   6.100
 3931POPC   C2B50300  12.825  19.583   6.518
 3931POPC   C3B50301  12.807  19.508   6.942
 3931POPC   C4B50302  13.057  19.688   7.271
 3932POPC   NC350303  24.419  44.310   5.370
 3932POPC   PO450304  24.584  43.696   5.424
 3932POPC   GL150305  24.416  43.859   5.792
 3932POPC   GL250306  24.220  44.145   5.822
 3932POPC   C1A50307  24.517  44.001   6.218
 3932POPC   D2A50308  24.637  44.206   6.591
 3932POPC   C3A50309  24.559  43.816   6.757
 3932POPC   C4A50310  24.624  43.578   7.096
 3932POPC   C1B50311  23.978  44.130   6.178
 3932POPC   C2B50312  24.130  44.097   6.609
 3932POPC   C3B50313  24.168  43.979   7.052
 3932POPC   C4B50314  24.600  44.063   7.199
 3933POPC   NC350315  21.856  15.479   5.511
 3933POPC   PO450316  22.515  15.353   5.549
 3933POPC   GL150317  22.189  15.390   5.897
 3933POPC   GL250318  21.820  15.240   5.960
 3933POPC   C1A50319  22.127  15.424   6.320
 3933POPC   D2A50320  22.104  15.240   6.686
 3933POPC   C3A50321  22.125  15.511   7.021
 3933POPC   C4A50322  22.263  15.364   7.398
 3933POPC   C1B50323  22.039  14.928   6.241
 3933POPC   C2B50324  22.026  14.726   6.657
 3933POPC   C3B50325  22.090  14.906   7.079
 3933POPC   C4B50326  21.818  15.042   7.432
 3934POPC   NC350327  30.827  20.061   5.473
 3934POPC   PO450328  30.706  19.457   5.158
 3934POPC   GL150329  30.590  19.591   5.666
 3934POPC   GL250330  30.810  19.832   5.926
 3934POPC   C1A50331  30.485  19.564   6.166
 3934POPC   D2A50332  30.713  19.781   6.536
 3934POPC   C3A50333  30.591  19.691   6.971
 3934POPC   C4A50334  30.326  19.465   7.254
 3934POPC   C1B50335  31.044  20.059   6.244
 3934POPC   C2B50336  31.232  20.057   6.634
 3934POPC   C3B50337  31.050  20.053   7.009
 3934POPC   C4B50338  30.777  20.014   7.336
 3935POPC   NC350339  37.889  30.113   5.429
 3935POPC   PO450340  37.358  29.730   5.460
 3935POPC   GL150341  37.623  29.839   5.817
 3935POPC   GL250342  37.823  30.152   5.932
 3935POPC   C1A50343  37.789  29.714   6.209
 3935POPC   D2A50344  37.750  30.001   6.515
 3935POPC   C3A50345  37.490  29.813   6.802
 3935POPC   C4A50346  37.622  29.754   7.242
 3935POPC   C1B50347  37.420  30.243   6.131
 3935POPC   C2B50348  37.322  30.290   6.575
 3935POPC   C3B50349  37.597  30.273   6.958
 3935POPC   C4B50350  37.495  30.410   7.355
 3936POPC   NC350351  34.373  23.028   5.354
 3936POPC   PO450352  34.898  23.397   5.660
 3936POPC   GL150353  34.689  23.211   5.976
 3936POPC   GL250354  34.334  23.136   5.843
 3936POPC   C1A50355  34.738  23.082   6.395
 3936POPC   D2A50356  34.834  22.673   6.568
 3936POPC   C3A50357  34.934  22.758   7.027
 3936POPC   C4A50358  34.768  23.111   7.270
 3936POPC   C1B50359  34.450  22.775   6.073
 3936POPC   C2B50360  34.310  22.789   6.480
 3936POPC   C3B50361  34.465  22.864   6.849
 3936POPC   C4B50362  34.380  22.728   7.221
 3937POPC   NC350363   7.195  29.681   5.368
 3937POPC   PO450364   7.632  30.172   5.477
 3937POPC   GL150365   7.512  29.852   5.746
 3937POPC   GL250366   7.150  29.884   5.847
 3937POPC   C1A50367   7.539  29.721   6.170
 3937POPC   D2A50368   7.526  29.927   6.562
 3937POPC   C3A50369   7.354  29.704   6.866
 3937POPC   C4A50370   7.197  29.815   7.253
 3937POPC   C1B50371   7.103  30.101   6.255
 3937POPC   C2B50372   6.993  30.235   6.688
 3937POPC   C3B50373   7.254  30.343   7.063
 3937POPC   C4B50374   7.404  30.327   7.518
 3938POPC   NC350375  41.153  15.583   5.592
 3938POPC   PO450376  40.828  14.964   5.374
 3938POPC   GL150377  40.840  15.160   5.763
 3938POPC   GL250378  40.664  15.467   5.733
 3938POPC   C1A50379  40.657  15.074   6.178
 3938POPC   D2A50380  40.726  15.289   6.562
 3938POPC   C3A50381  40.659  15.182   6.986
 3938POPC   C4A50382  40.998  15.116   7.244
 3938POPC   C1B50383  40.539  15.587   6.160
 3938POPC   C2B50384  40.422  15.676   6.607
 3938POPC   C3B50385  40.762  15.696   6.896
 3938POPC   C4B50386  40.818  15.608   7.339
 3939POPC   NC350387  10.212   5.882   5.417
 3939POPC   PO450388  10.877   5.643   5.316
 3939POPC   GL150389  10.682   5.890   5.734
 3939POPC   GL250390  10.364   6.133   5.841
 3939POPC   C1A50391  10.659   5.949   6.204
 3939POPC   D2A50392  10.712   6.177   6.589
 3939POPC   C3A50393  10.712   5.880   6.921
 3939POPC   C4A50394  10.797   5.941   7.352
 3939POPC   C1B50395  10.180   5.788   6.099
 3939POPC   C2B50396  10.266   5.592   6.521
 3939POPC   C3B50397  10.119   5.651   6.941
 3939POPC   C4B50398  10.287   5.907   7.271
 3940POPC   NC350399   3.512  43.853   5.173
 3940POPC   PO450400   4.003  43.470   5.549
 3940POPC   GL150401   3.651  43.618   5.795
 3940POPC   GL250402   3.599  43.992   5.833
 3940POPC   C1A50403   3.591  43.536   6.235
 3940POPC   D2A50404   3.745  43.667   6.627
 3940POPC   C3A50405   3.493  43.641   6.995
 3940POPC   C4A50406   3.615  43.671   7.427
 3940POPC   C1B50407   3.435  44.027   6.276
 3940POPC   C2B50408   3.432  44.067   6.728
 3940POPC   C3B50409   3.768  44.070   7.045
 3940POPC   C4B50410   3.848  44.156   7.475
 3941POPC   NC350411  20.145  18.605   5.396
 3941POPC   PO450412  19.602  18.156   5.443
 3941POPC   GL150413  19.735  18.287   5.806
 3941POPC   GL250414  19.716  18.640   5.725
 3941POPC   C1A50415  19.869  18.101   6.237
 3941POPC   D2A50416  20.114  18.008   6.628
 3941POPC   C3A50417  19.936  18.050   7.026
 3941POPC   C4A50418  20.246  18.284   7.219
 3941POPC   C1B50419  19.962  18.589   6.117
 3941POPC   C2B50420  20.027  18.528   6.541
 3941POPC   C3B50421  19.913  18.580   6.974
 3941POPC   C4B50422  19.787  18.441   7.383
 3942POPC   NC350423   2.035   4.693   5.430
 3942POPC   PO450424   2.283   5.353   5.425
 3942POPC   GL150425   2.104   5.110   5.775
 3942POPC   GL250426   2.273   4.774   5.853
 3942POPC   C1A50427   1.857   5.212   6.169
 3942POPC   D2A50428   1.663   5.151   6.594
 3942POPC   C3A50429   1.850   5.419   6.916
 3942POPC   C4A50430   1.924   5.247   7.330
 3942POPC   C1B50431   2.025   4.741   6.216
 3942POPC   C2B50432   1.915   4.648   6.662
 3942POPC   C3B50433   2.103   4.817   7.050
 3942POPC   C4B50434   2.130   4.829   7.549
 3943POPC   NC350435  11.326  23.406   5.506
 3943POPC   PO450436  11.618  24.073   5.435
 3943POPC   GL150437  11.499  23.816   5.783
 3943POPC   GL250438  11.114  23.774   5.803
 3943POPC   C1A50439  11.393  23.860   6.231
 3943POPC   D2A50440  11.320  23.625   6.615
 3943POPC   C3A50441  11.454  23.818   7.003
 3943POPC   C4A50442  11.496  23.477   7.240
 3943POPC   C1B50443  11.024  23.451   6.133
 3943POPC   C2B50444  10.883  23.293   6.535
 3943POPC   C3B50445  11.036  23.299   6.947
 3943POPC   C4B50446  10.987  23.601   7.258
 3944POPC   NC350447  28.886   5.801   5.225
 3944POPC   PO450448  29.481   5.792   5.411
 3944POPC   GL150449  29.258   5.661   5.831
 3944POPC   GL250450  28.895   5.699   5.785
 3944POPC   C1A50451  29.274   5.700   6.325
 3944POPC   D2A50452  29.327   5.650   6.805
 3944POPC   C3A50453  29.256   5.969   7.148
 3944POPC   C4A50454  29.184   6.214   7.558
 3944POPC   C1B50455  28.848   5.440   6.162
 3944POPC   C2B50456  28.888   5.439   6.628
 3944POPC   C3B50457  28.754   5.614   7.047
 3944POPC   C4B50458  28.588   5.820   7.446
 3945POPC   NC350459   6.849  44.352   5.566
 3945POPC   PO450460   6.430  43.967   5.240
 3945POPC   GL150461   6.601  43.853   5.629
 3945POPC   GL250462   6.397  44.092   5.813
 3945POPC   C1A50463   6.700  43.664   6.033
 3945POPC   D2A50464   6.819  43.860   6.415
 3945POPC   C3A50465   6.465  43.918   6.690
 3945POPC   C4A50466   6.508  43.738   7.087
 3945POPC   C1B50467   6.581  44.282   6.191
 3945POPC   C2B50468   6.793  44.323   6.598
 3945POPC   C3B50469   6.877  44.120   6.954
 3945POPC   C4B50470   6.525  44.231   7.195
 3946POPC   NC350471  32.047  23.906   5.432
 3946POPC   PO450472  32.181  23.267   5.124
 3946POPC   GL150473  32.182  23.424   5.589
 3946POPC   GL250474  31.857  23.521   5.709
 3946POPC   C1A50475  32.301  23.468   6.061
 3946POPC   D2A50476  32.489  23.781   6.387
 3946POPC   C3A50477  32.379  23.677   6.836
 3946POPC   C4A50478  32.035  23.399   7.045
 3946POPC   C1B50479  31.954  23.838   6.054
 3946POPC   C2B50480  31.975  23.754   6.469
 3946POPC   C3B50481  31.882  23.846   6.866
 3946POPC   C4B50482  32.135  23.989   7.190
 3947POPC   NC350483   6.288  38.557   5.463
 3947POPC   PO450484   6.817  38.096   5.497
 3947POPC   GL150485   6.675  38.385   5.787
 3947POPC   GL250486   6.367  38.220   5.882
 3947POPC   C1A50487   6.601  38.571   6.189
 3947POPC   D2A50488   6.566  38.334   6.572
 3947POPC   C3A50489   6.520  38.527   6.966
 3947POPC   C4A50490   6.846  38.769   7.139
 3947POPC   C1B50491   6.131  38.323   6.266
 3947POPC   C2B50492   6.073  38.411   6.687
 3947POPC   C3B50493   6.105  38.108   6.993
 3947POPC   C4B50494   6.317  38.243   7.356
 3948POPC   NC350495  34.936  29.380   5.277
 3948POPC   PO450496  34.303  29.115   5.364
 3948POPC   GL150497  34.636  29.179   5.741
 3948POPC   GL250498  34.502  29.422   5.994
 3948POPC   C1A50499  34.966  29.283   6.107
 3948POPC   D2A50500  34.946  29.437   6.528
 3948POPC   C3A50501  34.680  29.224   6.816
 3948POPC   C4A50502  34.737  29.109   7.258
 3948POPC   C1B50503  34.375  29.033   6.196
 3948POPC   C2B50504  34.494  28.786   6.546
 3948POPC   C3B50505  34.361  28.772   6.967
 3948POPC   C4B50506  34.112  28.829   7.375
 3949POPC   NC350507  14.300  43.701   5.474
 3949POPC   PO450508  14.824  44.230   5.441
 3949POPC   GL150509  14.643  44.072   5.831
 3949POPC   GL250510  14.274  44.045   5.849
 3949POPC   C1A50511  14.563  44.150   6.252
 3949POPC   D2A50512  14.719  44.142   6.615
 3949POPC   C3A50513  14.644  43.742   6.765
 3949POPC   C4A50514  14.586  43.841   7.184
 3949POPC   C1B50515  14.129  43.839   6.208
 3949POPC   C2B50516  14.150  43.976   6.637
 3949POPC   C3B50517  14.132  44.049   7.088
 3949POPC   C4B50518  14.153  43.834   7.489
 3950POPC   NC350519  41.861   9.148   5.688
 3950POPC   PO450520  42.498   8.926   5.351
 3950POPC   GL150521  42.319   8.950   5.767
 3950POPC   GL250522  42.514   9.244   5.836
 3950POPC   C1A50523  42.090   8.802   6.188
 3950POPC   D2A50524  42.302   8.701   6.594
 3950POPC   C3A50525  42.242   8.748   7.023
 3950POPC   C4A50526  42.655   8.828   7.212
 3950POPC   C1B50527  42.371   9.219   6.263
 3950POPC   C2B50528  42.076   9.153   6.599
 3950POPC   C3B50529  42.354   9.214   6.915
 3950POPC   C4B50530  42.451   9.378   7.263
 3951POPC   NC350531   3.166  23.841   5.521
 3951POPC   PO450532   2.512  24.001   5.286
 3951POPC   GL150533   2.657  23.785   5.748
 3951POPC   GL250534   2.947  23.519   5.824
 3951POPC   C1A50535   2.870  23.874   6.168
 3951POPC   D2A50536   2.920  24.067   6.560
 3951POPC   C3A50537   2.766  23.901   6.968
 3951POPC   C4A50538   2.759  23.601   7.283
 3951POPC   C1B50539   3.135  23.448   6.241
 3951POPC   C2B50540   2.960  23.505   6.671
 3951POPC   C3B50541   3.144  23.394   7.074
 3951POPC   C4B50542   3.191  23.486   7.530
 3952POPC   NC350543  25.469  24.082   5.331
 3952POPC   PO450544  25.119  24.726   5.081
 3952POPC   GL150545  25.270  24.540   5.537
 3952POPC   GL250546  25.610  24.671   5.686
 3952POPC   C1A50547  25.115  24.502   6.000
 3952POPC   D2A50548  25.126  24.633   6.452
 3952POPC   C3A50549  25.331  24.428   6.824
 3952POPC   C4A50550  25.119  24.599   7.202
 3952POPC   C1B50551  25.601  24.417   6.103
 3952POPC   C2B50552  25.779  24.311   6.508
 3952POPC   C3B50553  25.844  24.536   6.889
 3952POPC   C4B50554  25.615  24.646   7.266
 3953POPC   NC350555   1.994   9.756   5.282
 3953POPC   PO450556   1.695   9.153   5.458
 3953POPC   GL150557   1.814   9.499   5.781
 3953POPC   GL250558   2.054   9.793   5.771
 3953POPC   C1A50559   1.776   9.730   6.190
 3953POPC   D2A50560   1.588   9.807   6.592
 3953POPC   C3A50561   1.817   9.842   6.943
 3953POPC   C4A50562   2.019   9.492   7.107
 3953POPC   C1B50563   2.224   9.937   6.155
 3953POPC   C2B50564   2.191   9.796   6.583
 3953POPC   C3B50565   2.313   9.971   6.992
 3953POPC   C4B50566   2.319  10.288   7.323
 3954POPC   NC350567  33.288  17.396   4.892
 3954POPC   PO450568  33.080  17.700   5.472
 3954POPC   GL150569  32.840  17.504   5.800
 3954POPC   GL250570  32.732  17.752   5.913
 3954POPC   C1A50571  32.901  17.293   6.186
 3954POPC   D2A50572  33.238  17.389   6.487
 3954POPC   C3A50573  33.175  17.272   6.900
 3954POPC   C4A50574  32.974  17.325   7.301
 3954POPC   C1B50575  33.023  17.775   6.228
 3954POPC   C2B50576  32.907  17.785   6.654
 3954POPC   C3B50577  32.994  17.758   7.080
 3954POPC   C4B50578  32.750  17.785   7.489
 3955POPC   NC350579   1.435  41.947   5.312
 3955POPC   PO450580   1.089  42.443   5.484
 3955POPC   GL150581   1.413  42.272   5.719
 3955POPC   GL250582   1.365  42.581   5.897
 3955POPC   C1A50583   1.389  42.066   6.121
 3955POPC   D2A50584   1.183  42.332   6.421
 3955POPC   C3A50585   1.257  42.332   6.857
 3955POPC   C4A50586   1.076  42.252   7.277
 3955POPC   C1B50587   1.526  42.830   6.183
 3955POPC   C2B50588   1.540  42.672   6.575
 3955POPC   C3B50589   1.553  42.811   6.972
 3955POPC   C4B50590   1.448  42.759   7.394
 3956POPC   NC350591   4.831   8.451   5.407
 3956POPC   PO450592   5.380   8.101   5.261
 3956POPC   GL150593   5.338   8.123   5.703
 3956POPC   GL250594   4.975   8.172   5.827
 3956POPC   C1A50595   5.369   8.107   6.154
 3956POPC   D2A50596   5.045   8.052   6.479
 3956POPC   C3A50597   5.235   8.036   6.881
 3956POPC   C4A50598   5.021   8.053   7.248
 3956POPC   C1B50599   4.690   8.454   6.080
 3956POPC   C2B50600   4.658   8.603   6.532
 3956POPC   C3B50601   4.854   8.402   6.868
 3956POPC   C4B50602   5.205   8.522   7.120
 3957POPC   NC350603   7.368  11.069   5.260
 3957POPC   PO450604   7.398  11.625   5.553
 3957POPC   GL150605   7.662  11.299   5.662
 3957POPC   GL250606   7.816  11.539   5.834
 3957POPC   C1A50607   7.602  11.057   6.059
 3957POPC   D2A50608   7.321  11.149   6.415
 3957POPC   C3A50609   7.471  11.107   6.841
 3957POPC   C4A50610   7.226  11.061   7.224
 3957POPC   C1B50611   7.559  11.566   6.219
 3957POPC   C2B50612   7.516  11.594   6.669
 3957POPC   C3B50613   7.286  11.559   7.040
 3957POPC   C4B50614   7.561  11.454   7.355
 3958POPC   NC350615  24.830  11.747   5.484
 3958POPC   PO450616  24.338  12.286   5.494
 3958POPC   GL150617  24.596  12.101   5.780
 3958POPC   GL250618  24.347  11.834   5.794
 3958POPC   C1A50619  24.761  11.923   6.184
 3958POPC   D2A50620  24.658  12.051   6.620
 3958POPC   C3A50621  24.750  11.896   7.062
 3958POPC   C4A50622  24.457  12.017   7.405
 3958POPC   C1B50623  24.253  12.006   6.178
 3958POPC   C2B50624  24.220  11.748   6.538
 3958POPC   C3B50625  24.241  11.910   6.934
 3958POPC   C4B50626  23.991  11.894   7.293
 3959POPC   NC350627  44.308  33.195   5.164
 3959POPC   PO450628  44.746  32.889   5.682
 3959POPC   GL150629  44.954  32.942   6.045
 3959POPC   GL250630  44.791  33.281   6.042
 3959POPC   C1A50631   0.053  33.090   6.451
 3959POPC   D2A50632  44.703  33.257   6.681
 3959POPC   C3A50633  44.791  33.293   7.068
 3959POPC   C4A50634  44.594  33.036   7.345
 3959POPC   C1B50635  44.455  33.033   6.286
 3959POPC   C2B50636  44.173  33.214   6.584
 3959POPC   C3B50637  44.207  33.105   7.011
 3959POPC   C4B50638  44.131  33.175   7.433
 3960POPC   NC350639   0.336  43.892   5.508
 3960POPC   PO450640   0.829  43.500   5.657
 3960POPC   GL150641   0.503  43.696   5.939
 3960POPC   GL250642   0.477  44.114   5.950
 3960POPC   C1A50643   0.258  43.813   6.300
 3960POPC   D2A50644   0.491  43.990   6.640
 3960POPC   C3A50645   0.500  43.633   6.909
 3960POPC   C4A50646   0.220  43.505   7.220
 3960POPC   C1B50647   0.138  44.302   6.236
 3960POPC   C2B50648   0.009  44.156   6.686
 3960POPC   C3B50649   0.155  43.984   7.053
 3960POPC   C4B50650   0.256  44.054   7.465
 3961POPC   NC350651   1.487  42.702   5.410
 3961POPC   PO450652   1.225  43.328   5.199
 3961POPC   GL150653   1.211  43.072   5.667
 3961POPC   GL250654   0.910  42.908   5.795
 3961POPC   C1A50655   1.195  43.219   6.137
 3961POPC   D2A50656   1.360  43.153   6.552
 3961POPC   C3A50657   1.196  43.196   6.943
 3961POPC   C4A50658   1.336  43.343   7.344
 3961POPC   C1B50659   0.989  42.764   6.221
 3961POPC   C2B50660   1.015  42.769   6.661
 3961POPC   C3B50661   1.052  42.732   7.084
 3961POPC   C4B50662   0.987  42.987   7.382
 3962POPC   NC350663  27.285  11.381   5.576
 3962POPC   PO450664  27.481  12.098   5.322
 3962POPC   GL150665  27.570  12.063   5.761
 3962POPC   GL250666  27.251  11.881   5.768
 3962POPC   C1A50667  27.458  12.210   6.197
 3962POPC   D2A50668  27.506  12.383   6.641
 3962POPC   C3A50669  27.587  12.095   6.971
 3962POPC   C4A50670  27.946  11.955   7.233
 3962POPC   C1B50671  27.160  11.777   6.198
 3962POPC   C2B50672  27.247  11.793   6.634
 3962POPC   C3B50673  27.212  11.627   7.030
 3962POPC   C4B50674  27.451  11.800   7.353
 3963POPC   NC350675  22.852   7.011   5.035
 3963POPC   PO450676  23.056   6.588   5.534
 3963POPC   GL150677  22.850   6.630   5.878
 3963POPC   GL250678  22.763   6.963   5.766
 3963POPC   C1A50679  23.079   6.656   6.268
 3963POPC   D2A50680  23.193   6.974   6.572
 3963POPC   C3A50681  23.171   6.777   6.988
 3963POPC   C4A50682  22.884   6.541   7.316
 3963POPC   C1B50683  22.735   7.020   6.207
 3963POPC   C2B50684  22.678   6.827   6.626
 3963POPC   C3B50685  22.725   6.993   7.066
 3963POPC   C4B50686  22.674   6.983   7.509
 3964POPC   NC350687  40.099  31.417   5.281
 3964POPC   PO450688  40.373  31.876   5.616
 3964POPC   GL150689  40.131  31.501   5.833
 3964POPC   GL250690  40.185  31.143   5.695
 3964POPC   C1A50691  40.006  31.476   6.317
 3964POPC   D2A50692  40.111  31.406   6.793
 3964POPC   C3A50693  39.753  31.464   7.075
 3964POPC   C4A50694  39.611  31.899   7.235
 3964POPC   C1B50695  40.146  31.043   6.105
 3964POPC   C2B50696  40.359  31.022   6.507
 3964POPC   C3B50697  40.329  30.945   6.947
 3964POPC   C4B50698  40.222  31.150   7.339
 3965POPC   NC350699   4.400  43.752   5.603
 3965POPC   PO450700   3.983  44.351   5.569
 3965POPC   GL150701   4.132  44.115   5.865
 3965POPC   GL250702   4.492  44.206   5.835
 3965POPC   C1A50703   3.956  43.946   6.234
 3965POPC   D2A50704   4.083  44.076   6.645
 3965POPC   C3A50705   4.173  43.726   6.900
 3965POPC   C4A50706   4.082  43.726   7.303
 3965POPC   C1B50707   4.453  44.105   6.275
 3965POPC   C2B50708   4.596  43.905   6.651
 3965POPC   C3B50709   4.634  43.835   7.084
 3965POPC   C4B50710   4.323  44.173   7.226
 3966POPC   NC350711  27.092  39.241   5.482
 3966POPC   PO450712  26.524  39.485   5.218
 3966POPC   GL150713  26.493  39.168   5.688
 3966POPC   GL250714  26.769  38.987   5.816
 3966POPC   C1A50715  26.652  39.273   6.232
 3966POPC   D2A50716  27.023  39.561   6.418
 3966POPC   C3A50717  27.195  39.526   6.868
 3966POPC   C4A50718  27.137  39.447   7.325
 3966POPC   C1B50719  26.972  38.903   6.256
 3966POPC   C2B50720  26.926  39.102   6.647
 3966POPC   C3B50721  26.983  39.026   7.065
 3966POPC   C4B50722  26.708  39.130   7.393
 3967POPC   NC350723   8.279  39.619   5.562
 3967POPC   PO450724   7.873  40.101   5.660
 3967POPC   GL150725   8.300  40.047   5.866
 3967POPC   GL250726   8.225  39.748   6.045
 3967POPC   C1A50727   8.536  40.083   6.282
 3967POPC   D2A50728   8.338  40.203   6.691
 3967POPC   C3A50729   8.256  40.087   7.145
 3967POPC   C4A50730   8.469  39.911   7.508
 3967POPC   C1B50731   7.992  40.018   6.314
 3967POPC   C2B50732   7.875  39.961   6.739
 3967POPC   C3B50733   7.815  40.317   6.990
 3967POPC   C4B50734   7.824  40.273   7.408
 3968POPC   NC350735  41.314  19.731   5.017
 3968POPC   PO450736  41.701  20.279   5.158
 3968POPC   GL150737  41.719  19.994   5.550
 3968POPC   GL250738  41.386  19.900   5.637
 3968POPC   C1A50739  41.699  19.931   6.042
 3968POPC   D2A50740  41.600  19.602   6.371
 3968POPC   C3A50741  41.539  19.698   6.819
 3968POPC   C4A50742  41.526  19.596   7.256
 3968POPC   C1B50743  41.184  19.777   6.038
 3968POPC   C2B50744  41.139  19.815   6.496
 3968POPC   C3B50745  41.050  19.822   6.933
 3968POPC   C4B50746  41.353  20.074   7.144
 3969POPC   NC350747   4.147  18.697   5.103
 3969POPC   PO450748   4.617  18.231   5.327
 3969POPC   GL150749   4.476  18.203   5.822
 3969POPC   GL250750   4.262  17.953   5.936
 3969POPC   C1A50751   4.421  18.403   6.232
 3969POPC   D2A50752   4.300  18.326   6.642
 3969POPC   C3A50753   4.530  18.509   6.958
 3969POPC   C4A50754   4.332  18.315   7.299
 3969POPC   C1B50755   4.361  17.909   6.335
 3969POPC   C2B50756   4.204  17.747   6.670
 3969POPC   C3B50757   4.114  17.899   7.052
 3969POPC   C4B50758   3.891  18.067   7.383
 3970POPC   NC350759  36.637  35.590   5.244
 3970POPC   PO450760  37.160  35.153   5.186
 3970POPC   GL150761  37.042  35.343   5.686
 3970POPC   GL250762  36.747  35.346   5.944
 3970POPC   C1A50763  37.208  35.494   6.110
 3970POPC   D2A50764  36.932  35.330   6.440
 3970POPC   C3A50765  36.899  35.403   6.873
 3970POPC   C4A50766  37.147  35.499   7.225
 3970POPC   C1B50767  36.623  34.991   6.222
 3970POPC   C2B50768  36.650  34.823   6.662
 3970POPC   C3B50769  36.535  35.006   7.065
 3970POPC   C4B50770  36.694  35.312   7.341
 3971POPC   NC350771  35.002  27.841   5.149
 3971POPC   PO450772  34.496  27.535   5.498
 3971POPC   GL150773  34.353  27.606   5.913
 3971POPC   GL250774  34.645  27.800   5.946
 3971POPC   C1A50775  34.452  27.427   6.296
 3971POPC   D2A50776  34.695  27.450   6.649
 3971POPC   C3A50777  34.479  27.643   6.957
 3971POPC   C4A50778  34.315  27.431   7.290
 3971POPC   C1B50779  34.951  27.625   6.227
 3971POPC   C2B50780  35.018  27.843   6.623
 3971POPC   C3B50781  35.009  27.652   7.023
 3971POPC   C4B50782  34.768  27.823   7.339
 3972POPC   NC350783  30.299   1.251   5.487
 3972POPC   PO450784  29.600   1.448   5.576
 3972POPC   GL150785  29.857   1.253   5.911
 3972POPC   GL250786  30.219   1.315   5.972
 3972POPC   C1A50787  29.903   1.286   6.375
 3972POPC   D2A50788  29.808   1.658   6.626
 3972POPC   C3A50789  29.645   1.565   7.025
 3972POPC   C4A50790  29.721   1.246   7.316
 3972POPC   C1B50791  30.304   0.945   6.220
 3972POPC   C2B50792  30.121   0.856   6.602
 3972POPC   C3B50793  30.029   1.164   6.903
 3972POPC   C4B50794  30.259   1.147   7.270
 3973POPC   NC350795  42.802  30.041   5.505
 3973POPC   PO450796  42.999  29.395   5.578
 3973POPC   GL150797  43.161  29.769   5.865
 3973POPC   GL250798  43.094  30.160   5.898
 3973POPC   C1A50799  43.155  29.895   6.322
 3973POPC   D2A50800  42.880  29.883   6.685
 3973POPC   C3A50801  43.171  29.756   7.006
 3973POPC   C4A50802  43.569  29.623   7.165
 3973POPC   C1B50803  42.712  30.123   6.187
 3973POPC   C2B50804  42.644  30.370   6.558
 3973POPC   C3B50805  42.926  30.334   6.905
 3973POPC   C4B50806  42.982  30.183   7.303
 3974POPC   NC350807  41.162  30.272   5.492
 3974POPC   PO450808  40.704  29.745   5.569
 3974POPC   GL150809  40.775  30.084   5.776
 3974POPC   GL250810  40.451  30.201   5.662
 3974POPC   C1A50811  40.923  30.005   6.193
 3974POPC   D2A50812  41.059  30.121   6.605
 3974POPC   C3A50813  40.936  29.767   6.830
 3974POPC   C4A50814  40.718  29.824   7.177
 3974POPC   C1B50815  40.410  30.105   6.113
 3974POPC   C2B50816  40.561  30.205   6.516
 3974POPC   C3B50817  40.415  30.133   6.905
 3974POPC   C4B50818  40.344  30.109   7.330
 3975POPC   NC350819  10.272   0.925   5.539
 3975POPC   PO450820   9.743   1.199   5.331
 3975POPC   GL150821   9.654   1.081   5.763
 3975POPC   GL250822   9.959   1.138   5.919
 3975POPC   C1A50823   9.571   0.941   6.182
 3975POPC   D2A50824   9.802   1.185   6.447
 3975POPC   C3A50825   9.696   1.143   6.873
 3975POPC   C4A50826   9.824   0.802   7.115
 3975POPC   C1B50827  10.046   1.545   6.162
 3975POPC   C2B50828  10.184   1.574   6.598
 3975POPC   C3B50829  10.055   1.494   7.026
 3975POPC   C4B50830   9.895   1.723   7.382
 3976POPC   NC350831  26.127  42.454   5.365
 3976POPC   PO450832  26.564  42.098   5.590
 3976POPC   GL150833  26.223  42.284   5.848
 3976POPC   GL250834  25.875  42.412   5.801
 3976POPC   C1A50835  26.073  42.324   6.281
 3976POPC   D2A50836  26.144  42.041   6.621
 3976POPC   C3A50837  26.111  42.231   7.048
 3976POPC   C4A50838  26.063  42.144   7.532
 3976POPC   C1B50839  25.680  42.626   6.142
 3976POPC   C2B50840  25.808  42.728   6.574
 3976POPC   C3B50841  25.769  42.655   7.026
 3976POPC   C4B50842  26.026  42.629   7.367
 3977POPC   NC350843   5.444   0.929   5.496
 3977POPC   PO450844   5.955   1.357   5.244
 3977POPC   GL150845   5.936   1.271   5.699
 3977POPC   GL250846   5.744   1.537   5.791
 3977POPC   C1A50847   5.821   1.183   6.172
 3977POPC   D2A50848   5.605   1.249   6.594
 3977POPC   C3A50849   5.710   1.055   7.022
 3977POPC   C4A50850   5.828   1.183   7.456
 3977POPC   C1B50851   6.067   1.644   6.107
 3977POPC   C2B50852   6.214   1.538   6.539
 3977POPC   C3B50853   5.950   1.497   6.899
 3977POPC   C4B50854   5.928   1.673   7.261
 3978POPC   NC350855  43.269   2.486   5.260
 3978POPC   PO450856  42.783   2.941   5.420
 3978POPC   GL150857  43.037   2.920   5.784
 3978POPC   GL250858  43.413   2.941   5.797
 3978POPC   C1A50859  42.985   3.013   6.194
 3978POPC   D2A50860  43.022   2.665   6.497
 3978POPC   C3A50861  42.925   2.730   6.899
 3978POPC   C4A50862  42.969   2.983   7.238
 3978POPC   C1B50863  43.401   2.726   6.154
 3978POPC   C2B50864  43.492   2.468   6.492
 3978POPC   C3B50865  43.295   2.368   6.850
 3978POPC   C4B50866  43.290   2.576   7.234
 3979POPC   NC350867   1.081  10.146   5.396
 3979POPC   PO450868   1.415  10.786   5.433
 3979POPC   GL150869   1.567  10.682   5.833
 3979POPC   GL250870   1.342  10.385   5.789
 3979POPC   C1A50871   1.511  10.682   6.288
 3979POPC   D2A50872   1.131  10.765   6.567
 3979POPC   C3A50873   1.184  10.800   7.004
 3979POPC   C4A50874   1.513  10.884   7.306
 3979POPC   C1B50875   1.097  10.414   6.147
 3979POPC   C2B50876   0.851  10.332   6.495
 3979POPC   C3B50877   0.916  10.260   6.896
 3979POPC   C4B50878   1.247  10.307   7.180
 3980POPC   NC350879  16.252   3.919   5.511
 3980POPC   PO450880  16.203   3.217   5.380
 3980POPC   GL150881  16.421   3.341   5.790
 3980POPC   GL250882  16.829   3.339   5.816
 3980POPC   C1A50883  16.574   3.486   6.219
 3980POPC   D2A50884  16.796   3.445   6.629
 3980POPC   C3A50885  16.547   3.524   7.011
 3980POPC   C4A50886  16.537   3.922   7.267
 3980POPC   C1B50887  17.057   3.148   6.159
 3980POPC   C2B50888  17.089   3.029   6.567
 3980POPC   C3B50889  17.141   3.028   7.013
 3980POPC   C4B50890  16.872   3.206   7.336
 3981POPC   NC350891  37.474  17.066   5.341
 3981POPC   PO450892  37.726  17.717   5.431
 3981POPC   GL150893  37.775  17.436   5.791
 3981POPC   GL250894  37.444  17.293   5.817
 3981POPC   C1A50895  37.915  17.534   6.228
 3981POPC   D2A50896  37.887  17.796   6.614
 3981POPC   C3A50897  37.994  17.593   7.029
 3981POPC   C4A50898  37.921  17.568   7.514
 3981POPC   C1B50899  37.182  17.227   6.193
 3981POPC   C2B50900  37.052  17.094   6.625
 3981POPC   C3B50901  37.170  17.211   7.035
 3981POPC   C4B50902  37.587  17.339   7.217
 3982POPC   NC350903  44.918  36.311   5.151
 3982POPC   PO450904  44.515  35.823   5.399
 3982POPC   GL150905  44.622  36.093   5.780
 3982POPC   GL250906  44.465  36.414   5.839
 3982POPC   C1A50907  44.801  36.239   6.198
 3982POPC   D2A50908   0.088  36.136   6.533
 3982POPC   C3A50909  44.892  36.091   6.934
 3982POPC   C4A50910  44.976  36.342   7.265
 3982POPC   C1B50911  44.295  36.181   6.229
 3982POPC   C2B50912  44.429  36.083   6.663
 3982POPC   C3B50913  44.357  36.157   7.105
 3982POPC   C4B50914  44.511  36.438   7.422
 3983POPC   NC350915  18.384  44.584   5.350
 3983POPC   PO450916  17.990   0.070   5.352
 3983POPC   GL150917  18.095  44.805   5.724
 3983POPC   GL250918  18.466  44.725   5.832
 3983POPC   C1A50919  18.089  44.745   6.173
 3983POPC   D2A50920  18.299  44.640   6.570
 3983POPC   C3A50921  18.522  44.865   6.853
 3983POPC   C4A50922  18.336  44.820   7.245
 3983POPC   C1B50923  18.695  44.632   6.240
 3983POPC   C2B50924  18.732  44.344   6.605
 3983POPC   C3B50925  18.597  44.379   7.025
 3983POPC   C4B50926  18.605  44.436   7.477
 3984POPC   NC350927  40.300  29.780   5.369
 3984POPC   PO450928  39.856  30.188   5.248
 3984POPC   GL150929  39.938  30.184   5.694
 3984POPC   GL250930  40.087  29.848   5.812
 3984POPC   C1A50931  39.906  30.222   6.144
 3984POPC   D2A50932  40.077  30.000   6.512
 3984POPC   C3A50933  39.876  30.058   6.924
 3984POPC   C4A50934  39.877  29.906   7.358
 3984POPC   C1B50935  40.331  29.596   6.130
 3984POPC   C2B50936  40.470  29.665   6.558
 3984POPC   C3B50937  40.191  29.648   6.897
 3984POPC   C4B50938  40.283  29.584   7.269
 3985POPC   NC350939   8.286  12.766   5.464
 3985POPC   PO450940   7.761  13.100   5.236
 3985POPC   GL150941   7.968  13.052   5.692
 3985POPC   GL250942   7.908  12.719   5.830
 3985POPC   C1A50943   8.025  13.140   6.134
 3985POPC   D2A50944   8.291  13.131   6.509
 3985POPC   C3A50945   8.024  13.065   6.888
 3985POPC   C4A50946   8.149  13.028   7.324
 3985POPC   C1B50947   8.220  12.673   6.171
 3985POPC   C2B50948   8.170  12.641   6.624
 3985POPC   C3B50949   8.328  12.657   7.037
 3985POPC   C4B50950   8.544  12.420   7.345
 3986POPC   NC350951   3.127   3.530   5.426
 3986POPC   PO450952   2.490   3.518   5.273
 3986POPC   GL150953   2.654   3.570   5.678
 3986POPC   GL250954   2.420   3.786   5.782
 3986POPC   C1A50955   2.855   3.414   6.069
 3986POPC   D2A50956   2.727   3.190   6.436
 3986POPC   C3A50957   2.674   3.397   6.839
 3986POPC   C4A50958   2.975   3.221   7.137
 3986POPC   C1B50959   2.710   3.897   6.088
 3986POPC   C2B50960   2.690   3.759   6.471
 3986POPC   C3B50961   2.705   3.912   6.889
 3986POPC   C4B50962   2.736   3.678   7.290
 3987POPC   NC350963  30.179  36.705   5.004
 3987POPC   PO450964  30.578  37.023   5.488
 3987POPC   GL150965  30.474  36.852   5.858
 3987POPC   GL250966  30.836  36.830   5.899
 3987POPC   C1A50967  30.500  36.789   6.287
 3987POPC   D2A50968  30.671  36.609   6.634
 3987POPC   C3A50969  30.433  36.837   6.896
 3987POPC   C4A50970  30.348  36.920   7.298
 3987POPC   C1B50971  30.904  37.156   6.159
 3987POPC   C2B50972  30.759  37.127   6.601
 3987POPC   C3B50973  30.877  37.059   7.062
 3987POPC   C4B50974  30.946  36.982   7.500
 3988POPC   NC350975  15.521  27.659   5.316
 3988POPC   PO450976  14.762  27.600   5.397
 3988POPC   GL150977  14.911  27.657   5.830
 3988POPC   GL250978  15.102  27.339   5.854
 3988POPC   C1A50979  15.076  27.630   6.279
 3988POPC   D2A50980  15.150  27.381   6.696
 3988POPC   C3A50981  15.172  27.614   7.119
 3988POPC   C4A50982  15.146  27.883   7.501
 3988POPC   C1B50983  15.483  27.312   6.184
 3988POPC   C2B50984  15.635  27.160   6.619
 3988POPC   C3B50985  15.570  27.251   7.072
 3988POPC   C4B50986  15.609  27.269   7.525
 3989POPC   NC350987  37.184   1.561   5.676
 3989POPC   PO450988  37.212   2.077   5.323
 3989POPC   GL150989  36.957   2.015   5.751
 3989POPC   GL250990  36.576   2.107   5.747
 3989POPC   C1A50991  37.048   1.883   6.230
 3989POPC   D2A50992  37.366   1.990   6.570
 3989POPC   C3A50993  37.335   1.821   6.999
 3989POPC   C4A50994  37.038   1.845   7.359
 3989POPC   C1B50995  36.768   2.332   6.109
 3989POPC   C2B50996  36.966   2.320   6.510
 3989POPC   C3B50997  36.944   2.128   6.896
 3989POPC   C4B50998  36.776   2.264   7.270
 3990POPC   NC350999  37.847  18.105   5.211
 3990POPC   PO451000  37.572  18.626   5.466
 3990POPC   GL151001  37.668  18.226   5.691
 3990POPC   GL251002  37.381  18.233   5.906
 3990POPC   C1A51003  37.823  18.074   6.128
 3990POPC   D2A51004  37.728  18.288   6.533
 3990POPC   C3A51005  37.821  18.162   6.948
 3990POPC   C4A51006  37.655  17.904   7.255
 3990POPC   C1B51007  37.671  18.594   6.120
 3990POPC   C2B51008  37.594  18.782   6.545
 3990POPC   C3B51009  37.525  18.575   6.942
 3990POPC   C4B51010  37.677  18.414   7.380
 3991POPC   NC351011  36.205  21.646   5.435
 3991POPC   PO451012  35.838  21.072   5.146
 3991POPC   GL151013  35.954  21.116   5.640
 3991POPC   GL251014  35.930  21.455   5.805
 3991POPC   C1A51015  36.120  21.111   6.119
 3991POPC   D2A51016  36.247  21.283   6.539
 3991POPC   C3A51017  36.213  21.616   6.832
 3991POPC   C4A51018  36.154  21.557   7.226
 3991POPC   C1B51019  36.010  21.646   6.212
 3991POPC   C2B51020  35.773  21.574   6.598
 3991POPC   C3B51021  35.666  21.635   7.037
 3991POPC   C4B51022  35.685  21.703   7.487
 3992POPC   NC351023  24.852  37.088   5.115
 3992POPC   PO451024  24.268  36.978   5.347
 3992POPC   GL151025  24.543  36.873   5.689
 3992POPC   GL251026  24.257  36.917   5.875
 3992POPC   C1A51027  24.713  36.853   6.138
 3992POPC   D2A51028  24.755  36.963   6.576
 3992POPC   C3A51029  24.734  36.690   6.905
 3992POPC   C4A51030  24.546  36.719   7.305
 3992POPC   C1B51031  24.250  36.673   6.235
 3992POPC   C2B51032  24.315  36.721   6.618
 3992POPC   C3B51033  24.252  36.964   6.941
 3992POPC   C4B51034  23.918  36.832   7.188
 3993POPC   NC351035  41.473   0.972   5.376
 3993POPC   PO451036  41.659   1.525   5.616
 3993POPC   GL151037  41.374   1.243   5.805
 3993POPC   GL251038  41.648   1.030   5.876
 3993POPC   C1A51039  41.260   1.105   6.229
 3993POPC   D2A51040  41.330   1.390   6.616
 3993POPC   C3A51041  41.462   1.312   7.057
 3993POPC   C4A51042  41.414   1.106   7.480
 3993POPC   C1B51043  41.709   1.329   6.242
 3993POPC   C2B51044  41.864   1.296   6.655
 3993POPC   C3B51045  41.973   1.451   7.035
 3993POPC   C4B51046  41.901   1.258   7.430
 3994POPC   NC351047  39.517  19.023   5.205
 3994POPC   PO451048  38.810  18.952   5.208
 3994POPC   GL151049  39.056  18.957   5.649
 3994POPC   GL251050  39.434  18.983   5.753
 3994POPC   C1A51051  39.048  19.117   6.095
 3994POPC   D2A51052  39.042  19.284   6.529
 3994POPC   C3A51053  39.237  19.089   6.909
 3994POPC   C4A51054  39.216  19.276   7.342
 3994POPC   C1B51055  39.556  19.001   6.220
 3994POPC   C2B51056  39.616  19.291   6.604
 3994POPC   C3B51057  39.678  19.338   7.079
 3994POPC   C4B51058  39.632  19.007   7.426
 3995POPC   NC351059   3.638  17.883   5.385
 3995POPC   PO451060   3.472  17.240   5.476
 3995POPC   GL151061   3.479  17.521   5.849
 3995POPC   GL251062   3.836  17.683   5.805
 3995POPC   C1A51063   3.276  17.456   6.307
 3995POPC   D2A51064   3.254  17.474   6.767
 3995POPC   C3A51065   3.481  17.239   7.058
 3995POPC   C4A51066   3.349  17.268   7.487
 3995POPC   C1B51067   3.830  17.803   6.216
 3995POPC   C2B51068   3.705  17.616   6.588
 3995POPC   C3B51069   3.614  17.763   6.995
 3995POPC   C4B51070   3.709  17.596   7.390
 3996POPC   NC351071  30.474  11.241   5.579
 3996POPC   PO451072  31.147  11.246   5.559
 3996POPC   GL151073  30.898  11.196   5.865
 3996POPC   GL251074  30.741  11.535   5.920
 3996POPC   C1A51075  30.942  11.214   6.269
 3996POPC   D2A51076  30.782  11.394   6.577
 3996POPC   C3A51077  30.974  11.186   6.880
 3996POPC   C4A51078  30.734  11.003   7.167
 3996POPC   C1B51079  30.561  11.757   6.286
 3996POPC   C2B51080  30.417  11.778   6.722
 3996POPC   C3B51081  30.502  11.428   6.999
 3996POPC   C4B51082  30.892  11.507   7.249
 3997POPC   NC351083  31.048  34.158   5.455
 3997POPC   PO451084  30.695  33.571   5.359
 3997POPC   GL151085  30.690  33.848   5.732
 3997POPC   GL251086  30.680  34.213   5.817
 3997POPC   C1A51087  30.496  33.879   6.151
 3997POPC   D2A51088  30.344  33.721   6.519
 3997POPC   C3A51089  30.575  33.659   6.873
 3997POPC   C4A51090  30.362  33.479   7.220
 3997POPC   C1B51091  30.891  34.198   6.236
 3997POPC   C2B51092  31.063  33.934   6.602
 3997POPC   C3B51093  31.008  33.913   7.051
 3997POPC   C4B51094  30.646  33.920   7.325
 3998POPC   NC351095   7.840  42.616   5.327
 3998POPC   PO451096   8.398  42.359   5.370
 3998POPC   GL151097   8.119  42.432   5.758
 3998POPC   GL251098   7.982  42.089   5.796
 3998POPC   C1A51099   8.233  42.519   6.230
 3998POPC   D2A51100   8.404  42.472   6.686
 3998POPC   C3A51101   8.192  42.561   7.093
 3998POPC   C4A51102   8.364  42.803   7.448
 3998POPC   C1B51103   7.979  41.980   6.246
 3998POPC   C2B51104   8.249  41.984   6.614
 3998POPC   C3B51105   8.370  42.012   7.041
 3998POPC   C4B51106   8.015  42.040   7.317
 3999POPC   NC351107   3.834  27.316   5.373
 3999POPC   PO451108   3.298  27.769   5.394
 3999POPC   GL151109   3.544  27.572   5.723
 3999POPC   GL251110   3.422  27.225   5.688
 3999POPC   C1A51111   3.609  27.671   6.176
 3999POPC   D2A51112   3.335  27.810   6.528
 3999POPC   C3A51113   3.452  27.653   6.939
 3999POPC   C4A51114   3.520  27.816   7.361
 3999POPC   C1B51115   3.222  27.353   6.087
 3999POPC   C2B51116   3.269  27.296   6.530
 3999POPC   C3B51117   3.204  27.166   6.957
 3999POPC   C4B51118   3.367  27.332   7.335
 4000POPC   NC351119  16.379  33.591   5.369
 4000POPC   PO451120  15.709  33.389   5.473
 4000POPC   GL151121  15.996  33.586   5.781
 4000POPC   GL251122  16.157  33.884   5.762
 4000POPC   C1A51123  15.831  33.695   6.174
 4000POPC   D2A51124  15.936  33.506   6.550
 4000POPC   C3A51125  15.749  33.581   6.891
 4000POPC   C4A51126  15.868  33.643   7.291
 4000POPC   C1B51127  16.322  33.838   6.179
 4000POPC   C2B51128  16.189  33.974   6.580
 4000POPC   C3B51129  16.265  33.885   7.011
 4000POPC   C4B51130  16.172  34.020   7.445
 4001POPC   NC351131  17.589  40.669   5.403
 4001POPC   PO451132  17.628  41.245   5.716
 4001POPC   GL151133  17.502  40.867   5.902
 4001POPC   GL251134  17.866  40.786   5.817
 4001POPC   C1A51135  17.173  40.775   6.246
 4001POPC   D2A51136  17.065  40.491   6.600
 4001POPC   C3A51137  17.340  40.581   6.966
 4001POPC   C4A51138  17.322  40.832   7.320
 4001POPC   C1B51139  17.872  40.665   6.225
 4001POPC   C2B51140  17.704  40.723   6.623
 4001POPC   C3B51141  17.779  40.848   7.030
 4001POPC   C4B51142  17.777  40.601   7.395
 4002POPC   NC351143  24.018  18.503   5.386
 4002POPC   PO451144  23.522  18.090   5.653
 4002POPC   GL151145  23.689  18.446   5.822
 4002POPC   GL251146  24.024  18.262   5.828
 4002POPC   C1A51147  23.508  18.514   6.230
 4002POPC   D2A51148  23.408  18.254   6.591
 4002POPC   C3A51149  23.509  18.455   6.945
 4002POPC   C4A51150  23.651  18.441   7.369
 4002POPC   C1B51151  23.965  18.318   6.247
 4002POPC   C2B51152  23.922  18.181   6.659
 4002POPC   C3B51153  24.024  18.387   7.007
 4002POPC   C4B51154  24.130  18.211   7.358
 4003POPC   NC351155  33.183  41.515   5.340
 4003POPC   PO451156  32.775  41.980   5.514
 4003POPC   GL151157  33.004  41.730   5.803
 4003POPC   GL251158  33.385  41.759   5.758
 4003POPC   C1A51159  32.846  41.658   6.234
 4003POPC   D2A51160  32.874  41.923   6.609
 4003POPC   C3A51161  33.135  41.735   6.904
 4003POPC   C4A51162  32.986  41.501   7.258
 4003POPC   C1B51163  33.330  41.460   6.122
 4003POPC   C2B51164  33.152  41.363   6.544
 4003POPC   C3B51165  33.301  41.253   6.960
 4003POPC   C4B51166  33.446  41.350   7.403
 4004POPC   NC351167  16.140   0.727   5.352
 4004POPC   PO451168  16.267   0.084   5.476
 4004POPC   GL151169  15.896   0.333   5.672
 4004POPC   GL251170  16.001   0.615   5.865
 4004POPC   C1A51171  15.668   0.247   6.083
 4004POPC   D2A51172  15.825   0.084   6.477
 4004POPC   C3A51173  15.774   0.330   6.855
 4004POPC   C4A51174  15.816   0.205   7.261
 4004POPC   C1B51175  16.224   0.294   6.146
 4004POPC   C2B51176  16.340   0.222   6.602
 4004POPC   C3B51177  16.296   0.328   7.066
 4004POPC   C4B51178  16.144   0.643   7.376
 4005POPC   NC351179  41.151   4.135   5.455
 4005POPC   PO451180  40.562   3.858   5.271
 4005POPC   GL151181  40.613   3.714   5.673
 4005POPC   GL251182  40.974   3.640   5.761
 4005POPC   C1A51183  40.558   3.748   6.109
 4005POPC   D2A51184  40.468   3.919   6.539
 4005POPC   C3A51185  40.589   3.728   6.906
 4005POPC   C4A51186  40.725   3.959   7.245
 4005POPC   C1B51187  41.021   3.583   6.221
 4005POPC   C2B51188  41.241   3.625   6.604
 4005POPC   C3B51189  41.089   3.713   6.998
 4005POPC   C4B51190  40.892   3.380   7.196
 4006POPC   NC351191  19.088  35.878   5.163
 4006POPC   PO451192  19.236  36.502   5.429
 4006POPC   GL151193  19.173  36.442   5.851
 4006POPC   GL251194  18.967  36.117   5.854
 4006POPC   C1A51195  19.259  36.279   6.227
 4006POPC   D2A51196  19.041  36.069   6.497
 4006POPC   C3A51197  19.178  36.245   6.847
 4006POPC   C4A51198  19.318  36.197   7.246
 4006POPC   C1B51199  18.738  35.824   6.125
 4006POPC   C2B51200  18.593  35.793   6.555
 4006POPC   C3B51201  18.790  35.919   6.936
 4006POPC   C4B51202  18.799  35.685   7.288
 4007POPC   NC351203  34.325   8.964   5.342
 4007POPC   PO451204  33.634   8.837   5.394
 4007POPC   GL151205  33.924   8.912   5.698
 4007POPC   GL251206  33.776   8.593   5.837
 4007POPC   C1A51207  34.116   8.855   6.115
 4007POPC   D2A51208  33.905   8.867   6.506
 4007POPC   C3A51209  34.039   9.045   6.897
 4007POPC   C4A51210  33.811   9.294   7.210
 4007POPC   C1B51211  33.749   8.414   6.238
 4007POPC   C2B51212  33.564   8.488   6.636
 4007POPC   C3B51213  33.538   8.896   6.879
 4007POPC   C4B51214  33.714   8.758   7.264
 4008POPC   NC351215  18.693  39.528   5.415
 4008POPC   PO451216  18.053  39.373   5.144
 4008POPC   GL151217  18.237  39.283   5.607
 4008POPC   GL251218  18.342  39.578   5.784
 4008POPC   C1A51219  18.268  39.159   6.083
 4008POPC   D2A51220  18.314  39.329   6.527
 4008POPC   C3A51221  18.319  39.106   6.950
 4008POPC   C4A51222  18.543  39.030   7.336
 4008POPC   C1B51223  18.001  39.605   6.098
 4008POPC   C2B51224  17.811  39.520   6.504
 4008POPC   C3B51225  18.003  39.524   6.909
 4008POPC   C4B51226  17.976  39.806   7.230
 4009POPC   NC351227  15.238  44.049   5.499
 4009POPC   PO451228  14.715  43.585   5.600
 4009POPC   GL151229  15.031  43.735   5.860
 4009POPC   GL251230  15.376  43.604   5.753
 4009POPC   C1A51231  14.942  43.793   6.300
 4009POPC   D2A51232  15.169  43.877   6.650
 4009POPC   C3A51233  15.080  43.743   7.053
 4009POPC   C4A51234  15.000  43.903   7.488
 4009POPC   C1B51235  15.452  43.827   6.158
 4009POPC   C2B51236  15.642  44.034   6.516
 4009POPC   C3B51237  15.547  44.124   6.925
 4009POPC   C4B51238  15.489  43.908   7.309
 4010POPC   NC351239  26.537  30.443   5.401
 4010POPC   PO451240  27.006  29.952   5.422
 4010POPC   GL151241  26.911  29.894   5.830
 4010POPC   GL251242  26.557  29.957   5.830
 4010POPC   C1A51243  26.819  29.812   6.266
 4010POPC   D2A51244  26.697  29.983   6.671
 4010POPC   C3A51245  26.910  29.863   7.047
 4010POPC   C4A51246  26.813  29.691   7.460
 4010POPC   C1B51247  26.556  30.230   6.203
 4010POPC   C2B51248  26.368  30.393   6.605
 4010POPC   C3B51249  26.404  30.252   7.036
 4010POPC   C4B51250  26.675  30.173   7.380
 4011POPC   NC351251  38.709  30.392   5.208
 4011POPC   PO451252  38.296  30.036   5.666
 4011POPC   GL151253  38.597  30.032   5.924
 4011POPC   GL251254  38.879  30.197   5.735
 4011POPC   C1A51255  38.542  29.984   6.377
 4011POPC   D2A51256  38.241  30.113   6.696
 4011POPC   C3A51257  38.020  29.774   6.919
 4011POPC   C4A51258  38.090  29.569   7.327
 4011POPC   C1B51259  38.920  30.290   6.197
 4011POPC   C2B51260  38.964  30.154   6.626
 4011POPC   C3B51261  38.745  30.225   6.998
 4011POPC   C4B51262  38.434  29.961   7.162
 4012POPC   NC351263  39.723  18.247   5.573
 4012POPC   PO451264  39.149  18.159   5.195
 4012POPC   GL151265  39.198  18.150   5.618
 4012POPC   GL251266  39.283  18.496   5.619
 4012POPC   C1A51267  39.260  18.039   6.058
 4012POPC   D2A51268  39.219  18.227   6.461
 4012POPC   C3A51269  39.224  17.988   6.830
 4012POPC   C4A51270  39.126  17.883   7.247
 4012POPC   C1B51271  39.204  18.598   6.056
 4012POPC   C2B51272  39.159  18.753   6.481
 4012POPC   C3B51273  39.353  18.555   6.839
 4012POPC   C4B51274  39.427  18.288   7.190
 4013POPC   NC351275  30.694  43.988   5.403
 4013POPC   PO451276  31.007  43.354   5.304
 4013POPC   GL151277  30.948  43.617   5.788
 4013POPC   GL251278  30.767  43.947   5.889
 4013POPC   C1A51279  30.763  43.659   6.288
 4013POPC   D2A51280  30.750  43.810   6.738
 4013POPC   C3A51281  31.022  43.942   7.086
 4013POPC   C4A51282  31.075  43.806   7.524
 4013POPC   C1B51283  30.605  44.190   6.238
 4013POPC   C2B51284  30.760  44.322   6.625
 4013POPC   C3B51285  30.638  44.244   7.039
 4013POPC   C4B51286  30.373  44.256   7.391
 4014POPC   NC351287  22.711  19.964   5.346
 4014POPC   PO451288  23.278  19.592   5.407
 4014POPC   GL151289  23.124  19.848   5.769
 4014POPC   GL251290  23.025  20.194   5.658
 4014POPC   C1A51291  23.048  19.838   6.224
 4014POPC   D2A51292  22.902  19.693   6.629
 4014POPC   C3A51293  22.962  19.789   7.076
 4014POPC   C4A51294  23.191  19.673   7.439
 4014POPC   C1B51295  22.766  20.255   6.042
 4014POPC   C2B51296  22.807  20.198   6.512
 4014POPC   C3B51297  22.738  20.262   6.954
 4014POPC   C4B51298  22.618  20.172   7.377
 4015POPC   NC351299  34.264  15.771   5.410
 4015POPC   PO451300  34.829  16.283   5.368
 4015POPC   GL151301  34.659  16.010   5.631
 4015POPC   GL251302  34.378  16.219   5.652
 4015POPC   C1A51303  34.613  15.834   6.012
 4015POPC   D2A51304  34.677  16.048   6.406
 4015POPC   C3A51305  34.504  15.968   6.815
 4015POPC   C4A51306  34.487  15.757   7.236
 4015POPC   C1B51307  34.331  16.293   6.088
 4015POPC   C2B51308  34.139  16.288   6.493
 4015POPC   C3B51309  34.170  16.410   6.909
 4015POPC   C4B51310  34.420  16.267   7.240
 4016POPC   NC351311  26.654  13.060   5.456
 4016POPC   PO451312  27.299  12.710   5.459
 4016POPC   GL151313  27.018  12.860   5.776
 4016POPC   GL251314  27.118  13.197   5.681
 4016POPC   C1A51315  26.658  12.929   6.100
 4016POPC   D2A51316  26.700  13.064   6.532
 4016POPC   C3A51317  26.944  12.744   6.789
 4016POPC   C4A51318  26.826  12.597   7.192
 4016POPC   C1B51319  27.013  13.299   6.100
 4016POPC   C2B51320  27.158  13.273   6.499
 4016POPC   C3B51321  27.017  13.247   6.915
 4016POPC   C4B51322  27.144  12.981   7.228
 4017POPC   NC351323  33.048  36.023   5.235
 4017POPC   PO451324  33.351  35.710   5.635
 4017POPC   GL151325  33.051  35.856   5.868
 4017POPC   GL251326  32.790  36.068   5.718
 4017POPC   C1A51327  33.090  35.907   6.299
 4017POPC   D2A51328  32.933  36.102   6.657
 4017POPC   C3A51329  33.199  36.166   7.002
 4017POPC   C4A51330  32.887  36.241   7.254
 4017POPC   C1B51331  33.030  36.335   6.034
 4017POPC   C2B51332  33.060  36.536   6.423
 4017POPC   C3B51333  33.019  36.594   6.838
 4017POPC   C4B51334  33.217  36.641   7.232
 4018POPC   NC351335  39.751  19.794   5.554
 4018POPC   PO451336  40.401  19.470   5.454
 4018POPC   GL151337  40.136  19.598   5.812
 4018POPC   GL251338  40.157  19.921   5.934
 4018POPC   C1A51339  39.853  19.663   6.238
 4018POPC   D2A51340  39.792  19.773   6.697
 4018POPC   C3A51341  40.146  19.742   6.953
 4018POPC   C4A51342  40.104  19.514   7.317
 4018POPC   C1B51343  40.276  20.216   6.258
 4018POPC   C2B51344  40.122  20.398   6.647
 4018POPC   C3B51345  39.956  20.215   7.029
 4018POPC   C4B51346  39.957  20.001   7.409
 4019POPC   NC351347  21.164  11.195   5.379
 4019POPC   PO451348  21.753  11.563   5.210
 4019POPC   GL151349  21.541  11.409   5.647
 4019POPC   GL251350  21.543  11.042   5.735
 4019POPC   C1A51351  21.530  11.476   6.151
 4019POPC   D2A51352  21.665  11.704   6.583
 4019POPC   C3A51353  21.556  11.491   6.992
 4019POPC   C4A51354  21.448  11.055   7.148
 4019POPC   C1B51355  21.340  10.997   6.150
 4019POPC   C2B51356  21.239  11.149   6.570
 4019POPC   C3B51357  20.991  10.956   6.883
 4019POPC   C4B51358  20.739  11.046   7.216
 4020POPC   NC351359  20.351   3.167   5.242
 4020POPC   PO451360  20.864   3.669   5.382
 4020POPC   GL151361  21.004   3.559   5.761
 4020POPC   GL251362  20.771   3.290   5.771
 4020POPC   C1A51363  20.949   3.523   6.213
 4020POPC   D2A51364  20.779   3.221   6.504
 4020POPC   C3A51365  20.609   3.374   6.881
 4020POPC   C4A51366  20.820   3.558   7.196
 4020POPC   C1B51367  20.465   3.246   6.109
 4020POPC   C2B51368  20.259   3.217   6.525
 4020POPC   C3B51369  20.136   3.154   6.976
 4020POPC   C4B51370  20.323   3.346   7.352
 4021POPC   NC351371  35.497  12.632   5.494
 4021POPC   PO451372  35.221  13.133   5.352
 4021POPC   GL151373  35.324  13.024   5.777
 4021POPC   GL251374  35.026  13.036   5.987
 4021POPC   C1A51375  35.561  13.070   6.171
 4021POPC   D2A51376  35.482  12.937   6.614
 4021POPC   C3A51377  35.613  12.877   7.044
 4021POPC   C4A51378  35.427  12.606   7.306
 4021POPC   C1B51379  35.196  12.676   6.212
 4021POPC   C2B51380  35.006  12.492   6.597
 4021POPC   C3B51381  35.117  12.749   6.933
 4021POPC   C4B51382  35.203  13.205   7.014
 4022POPC   NC351383   7.985  40.560   5.610
 4022POPC   PO451384   7.296  40.660   5.389
 4022POPC   GL151385   7.429  40.753   5.811
 4022POPC   GL251386   7.594  40.457   5.939
 4022POPC   C1A51387   7.347  40.739   6.287
 4022POPC   D2A51388   7.516  40.667   6.696
 4022POPC   C3A51389   7.243  40.784   7.040
 4022POPC   C4A51390   7.258  40.549   7.414
 4022POPC   C1B51391   7.817  40.858   6.165
 4022POPC   C2B51392   7.784  41.091   6.564
 4022POPC   C3B51393   7.764  40.984   7.031
 4022POPC   C4B51394   7.940  41.147   7.430
 4023POPC   NC351395  35.427  43.089   5.386
 4023POPC   PO451396  34.740  43.100   5.331
 4023POPC   GL151397  34.992  43.014   5.732
 4023POPC   GL251398  35.344  43.131   5.883
 4023POPC   C1A51399  35.067  42.827   6.173
 4023POPC   D2A51400  35.063  42.970   6.579
 4023POPC   C3A51401  35.379  42.903   6.854
 4023POPC   C4A51402  35.235  43.025   7.250
 4023POPC   C1B51403  35.625  42.919   6.200
 4023POPC   C2B51404  35.839  42.953   6.599
 4023POPC   C3B51405  35.803  43.158   6.979
 4023POPC   C4B51406  35.707  43.012   7.367
 4024POPC   NC351407  38.456  35.627   5.161
 4024POPC   PO451408  38.239  36.265   5.291
 4024POPC   GL151409  38.496  36.169   5.621
 4024POPC   GL251410  38.264  36.313   5.851
 4024POPC   C1A51411  38.625  35.988   6.037
 4024POPC   D2A51412  38.820  36.119   6.438
 4024POPC   C3A51413  38.704  35.972   6.853
 4024POPC   C4A51414  38.571  36.211   7.198
 4024POPC   C1B51415  38.371  36.349   6.308
 4024POPC   C2B51416  38.439  36.431   6.754
 4024POPC   C3B51417  38.277  36.639   7.162
 4024POPC   C4B51418  38.119  36.544   7.609
 4025POPC   NC351419   3.308  41.409   5.065
 4025POPC   PO451420   3.637  41.890   5.368
 4025POPC   GL151421   3.436  41.677   5.718
 4025POPC   GL251422   3.179  41.883   5.885
 4025POPC   C1A51423   3.562  41.535   6.129
 4025POPC   D2A51424   3.653  41.628   6.573
 4025POPC   C3A51425   3.609  41.344   6.909
 4025POPC   C4A51426   3.726  41.513   7.295
 4025POPC   C1B51427   3.140  41.756   6.324
 4025POPC   C2B51428   3.214  41.951   6.725
 4025POPC   C3B51429   3.354  41.761   7.068
 4025POPC   C4B51430   3.224  41.629   7.473
 4026POPC   NC351431  12.238   3.359   5.600
 4026POPC   PO451432  11.819   3.795   5.313
 4026POPC   GL151433  11.899   3.805   5.749
 4026POPC   GL251434  12.263   3.835   5.834
 4026POPC   C1A51435  11.681   3.798   6.148
 4026POPC   D2A51436  11.764   3.464   6.457
 4026POPC   C3A51437  11.962   3.535   6.892
 4026POPC   C4A51438  12.085   3.311   7.320
 4026POPC   C1B51439  12.509   3.649   6.162
 4026POPC   C2B51440  12.504   3.491   6.574
 4026POPC   C3B51441  12.438   3.392   6.974
 4026POPC   C4B51442  12.312   3.757   7.216
 4027POPC   NC351443  33.671  13.394   5.213
 4027POPC   PO451444  34.210  13.807   5.434
 4027POPC   GL151445  33.935  13.749   5.788
 4027POPC   GL251446  33.673  13.503   5.712
 4027POPC   C1A51447  33.989  13.831   6.248
 4027POPC   D2A51448  33.663  13.859   6.577
 4027POPC   C3A51449  33.843  13.679   6.963
 4027POPC   C4A51450  34.277  13.798   7.109
 4027POPC   C1B51451  33.692  13.440   6.163
 4027POPC   C2B51452  33.472  13.392   6.548
 4027POPC   C3B51453  33.404  13.388   6.979
 4027POPC   C4B51454  33.607  13.421   7.371
 4028POPC   NC351455  33.641  21.842   5.428
 4028POPC   PO451456  34.068  21.242   5.573
 4028POPC   GL151457  34.121  21.420   5.941
 4028POPC   GL251458  33.926  21.681   5.853
 4028POPC   C1A51459  33.996  21.251   6.312
 4028POPC   D2A51460  33.747  21.152   6.658
 4028POPC   C3A51461  33.995  21.164   7.023
 4028POPC   C4A51462  34.064  21.569   7.174
 4028POPC   C1B51463  33.610  21.550   6.178
 4028POPC   C2B51464  33.392  21.586   6.583
 4028POPC   C3B51465  33.548  21.517   6.954
 4028POPC   C4B51466  33.547  21.257   7.260
 4029POPC   NC351467  13.987  31.208   5.070
 4029POPC   PO451468  13.526  31.527   5.437
 4029POPC   GL151469  13.678  31.553   5.820
 4029POPC   GL251470  13.409  31.808   5.891
 4029POPC   C1A51471  13.803  31.306   6.221
 4029POPC   D2A51472  13.929  31.402   6.650
 4029POPC   C3A51473  13.665  31.314   7.011
 4029POPC   C4A51474  13.330  31.557   7.105
 4029POPC   C1B51475  13.745  31.815   6.235
 4029POPC   C2B51476  13.973  31.921   6.613
 4029POPC   C3B51477  13.813  31.811   6.996
 4029POPC   C4B51478  13.647  31.844   7.398
 4030POPC   NC351479  27.998   2.921   5.437
 4030POPC   PO451480  27.484   2.457   5.521
 4030POPC   GL151481  27.549   2.705   5.885
 4030POPC   GL251482  27.713   3.020   5.849
 4030POPC   C1A51483  27.405   2.658   6.302
 4030POPC   D2A51484  27.195   2.384   6.590
 4030POPC   C3A51485  27.301   2.506   6.992
 4030POPC   C4A51486  27.646   2.592   7.219
 4030POPC   C1B51487  27.845   2.962   6.269
 4030POPC   C2B51488  27.632   2.992   6.653
 4030POPC   C3B51489  27.827   2.999   7.024
 4030POPC   C4B51490  28.003   2.859   7.460
 4031POPC   NC351491  13.221  20.340   5.399
 4031POPC   PO451492  13.717  20.560   5.157
 4031POPC   GL151493  13.719  20.593   5.611
 4031POPC   GL251494  13.411  20.671   5.740
 4031POPC   C1A51495  13.827  20.542   6.048
 4031POPC   D2A51496  13.712  20.437   6.470
 4031POPC   C3A51497  13.654  20.725   6.806
 4031POPC   C4A51498  13.774  20.577   7.213
 4031POPC   C1B51499  13.315  20.474   6.136
 4031POPC   C2B51500  13.225  20.507   6.575
 4031POPC   C3B51501  13.442  20.263   6.899
 4031POPC   C4B51502  13.316  20.263   7.309
 4032POPC   NC351503   0.497   9.335   5.411
 4032POPC   PO451504   0.096   8.801   5.493
 4032POPC   GL151505   0.225   9.032   5.807
 4032POPC   GL251506   0.577   9.078   5.849
 4032POPC   C1A51507   0.280   8.865   6.236
 4032POPC   D2A51508   0.478   9.031   6.600
 4032POPC   C3A51509   0.351   8.865   7.002
 4032POPC   C4A51510   0.339   8.917   7.451
 4032POPC   C1B51511   0.848   9.336   6.122
 4032POPC   C2B51512   0.822   9.459   6.559
 4032POPC   C3B51513   0.812   9.333   7.003
 4032POPC   C4B51514   0.714   9.340   7.473
 4033POPC   NC351515  40.544  35.453   5.404
 4033POPC   PO451516  41.257  35.577   5.517
 4033POPC   GL151517  40.880  35.562   5.804
 4033POPC   GL251518  40.887  35.232   5.913
 4033POPC   C1A51519  40.669  35.512   6.256
 4033POPC   D2A51520  40.723  35.172   6.566
 4033POPC   C3A51521  40.626  35.313   6.988
 4033POPC   C4A51522  40.451  35.675   7.181
 4033POPC   C1B51523  41.121  34.981   6.209
 4033POPC   C2B51524  41.088  34.793   6.621
 4033POPC   C3B51525  41.057  35.046   7.000
 4033POPC   C4B51526  40.902  35.193   7.415
 4034POPC   NC351527  31.353  38.794   5.412
 4034POPC   PO451528  31.601  38.189   5.299
 4034POPC   GL151529  31.664  38.208   5.804
 4034POPC   GL251530  32.028  38.226   5.963
 4034POPC   C1A51531  31.509  38.426   6.229
 4034POPC   D2A51532  31.565  38.587   6.679
 4034POPC   C3A51533  31.282  38.402   7.046
 4034POPC   C4A51534  31.220  38.360   7.538
 4034POPC   C1B51535  31.787  38.007   6.281
 4034POPC   C2B51536  31.578  38.080   6.658
 4034POPC   C3B51537  31.786  38.252   7.014
 4034POPC   C4B51538  31.695  38.637   7.257
 4035POPC   NC351539  39.185  33.861   5.430
 4035POPC   PO451540  39.411  33.341   5.246
 4035POPC   GL151541  39.198  33.506   5.764
 4035POPC   GL251542  39.372  33.862   5.895
 4035POPC   C1A51543  39.344  33.493   6.232
 4035POPC   D2A51544  39.293  33.752   6.601
 4035POPC   C3A51545  39.185  33.581   7.000
 4035POPC   C4A51546  38.899  33.590   7.333
 4035POPC   C1B51547  39.177  34.087   6.209
 4035POPC   C2B51548  39.206  34.269   6.607
 4035POPC   C3B51549  39.305  34.088   7.011
 4035POPC   C4B51550  39.266  33.945   7.456
 4036POPC   NC351551  33.719   9.925   5.507
 4036POPC   PO451552  34.120   9.398   5.416
 4036POPC   GL151553  33.832   9.465   5.781
 4036POPC   GL251554  33.512   9.605   5.825
 4036POPC   C1A51555  33.845   9.735   6.189
 4036POPC   D2A51556  33.975   9.936   6.573
 4036POPC   C3A51557  33.866   9.754   6.986
 4036POPC   C4A51558  33.992   9.892   7.425
 4036POPC   C1B51559  33.341   9.769   6.222
 4036POPC   C2B51560  33.466   9.915   6.646
 4036POPC   C3B51561  33.409   9.992   7.088
 4036POPC   C4B51562  33.535   9.712   7.428
 4037POPC   NC351563  12.389  33.212   5.614
 4037POPC   PO451564  13.000  32.925   5.536
 4037POPC   GL151565  12.878  32.984   5.947
 4037POPC   GL251566  12.561  33.124   6.079
 4037POPC   C1A51567  12.963  32.929   6.379
 4037POPC   D2A51568  13.121  32.920   6.797
 4037POPC   C3A51569  12.829  33.047   7.099
 4037POPC   C4A51570  13.002  33.259   7.450
 4037POPC   C1B51571  12.564  32.666   6.238
 4037POPC   C2B51572  12.625  32.522   6.680
 4037POPC   C3B51573  12.508  32.557   7.144
 4037POPC   C4B51574  12.590  32.813   7.546
 4038POPC   NC351575  44.389   1.639   5.351
 4038POPC   PO451576  44.800   2.085   5.161
 4038POPC   GL151577  44.692   1.898   5.660
 4038POPC   GL251578  44.543   2.117   5.887
 4038POPC   C1A51579  44.773   1.695   6.114
 4038POPC   D2A51580  44.939   1.682   6.574
 4038POPC   C3A51581  44.797   1.950   6.960
 4038POPC   C4A51582  44.427   1.905   7.246
 4038POPC   C1B51583  44.820   2.209   6.251
 4038POPC   C2B51584  44.585   2.312   6.628
 4038POPC   C3B51585  44.392   2.420   6.990
 4038POPC   C4B51586  44.678   2.463   7.295
 4039POPC   NC351587  19.388  35.117   5.634
 4039POPC   PO451588  18.785  35.160   5.307
 4039POPC   GL151589  18.879  35.232   5.747
 4039POPC   GL251590  19.020  35.581   5.766
 4039POPC   C1A51591  18.687  35.305   6.167
 4039POPC   D2A51592  18.571  35.253   6.626
 4039POPC   C3A51593  18.971  35.189   6.866
 4039POPC   C4A51594  19.124  35.311   7.258
 4039POPC   C1B51595  19.239  35.737   6.146
 4039POPC   C2B51596  19.204  35.589   6.588
 4039POPC   C3B51597  19.310  35.741   6.990
 4039POPC   C4B51598  19.333  35.735   7.442
 4040POPC   NC351599   6.169  16.782   5.467
 4040POPC   PO451600   5.560  16.613   5.401
 4040POPC   GL151601   5.701  16.671   5.836
 4040POPC   GL251602   5.984  16.878   5.920
 4040POPC   C1A51603   5.817  16.512   6.259
 4040POPC   D2A51604   6.147  16.487   6.557
 4040POPC   C3A51605   5.935  16.405   6.929
 4040POPC   C4A51606   5.698  16.702   7.166
 4040POPC   C1B51607   5.830  17.032   6.289
 4040POPC   C2B51608   5.810  16.859   6.678
 4040POPC   C3B51609   5.852  17.155   6.964
 4040POPC   C4B51610   5.782  17.190   7.323
 4041POPC   NC351611  32.132   2.211   5.149
 4041POPC   PO451612  32.290   1.721   5.570
 4041POPC   GL151613  32.269   1.988   5.880
 4041POPC   GL251614  31.997   2.227   5.859
 4041POPC   C1A51615  32.291   1.914   6.300
 4041POPC   D2A51616  32.218   2.155   6.650
 4041POPC   C3A51617  32.455   1.953   6.954
 4041POPC   C4A51618  32.365   1.881   7.366
 4041POPC   C1B51619  31.819   1.835   6.081
 4041POPC   C2B51620  31.858   1.747   6.540
 4041POPC   C3B51621  31.896   1.876   6.975
 4041POPC   C4B51622  32.049   2.247   7.139
 4042POPC   NC351623  24.789  21.932   5.632
 4042POPC   PO451624  25.269  22.282   5.442
 4042POPC   GL151625  25.237  22.085   5.850
 4042POPC   GL251626  24.937  22.233   6.016
 4042POPC   C1A51627  25.253  21.841   6.248
 4042POPC   D2A51628  25.571  21.835   6.591
 4042POPC   C3A51629  25.491  21.925   7.029
 4042POPC   C4A51630  25.440  22.351   7.226
 4042POPC   C1B51631  25.305  22.374   6.292
 4042POPC   C2B51632  25.308  22.332   6.733
 4042POPC   C3B51633  25.026  22.098   7.014
 4042POPC   C4B51634  24.717  22.174   7.294
 4043POPC   NC351635  44.874  37.236   5.529
 4043POPC   PO451636  44.845  37.844   5.255
 4043POPC   GL151637  44.800  37.697   5.720
 4043POPC   GL251638   0.070  37.468   5.913
 4043POPC   C1A51639  44.614  37.683   6.139
 4043POPC   D2A51640  44.694  37.792   6.582
 4043POPC   C3A51641  44.524  37.701   7.012
 4043POPC   C4A51642  44.323  37.869   7.417
 4043POPC   C1B51643  44.880  37.283   6.295
 4043POPC   C2B51644  44.820  37.302   6.736
 4043POPC   C3B51645  44.886  37.357   7.173
 4043POPC   C4B51646  44.665  37.529   7.522
 4044POPC   NC351647   5.580  14.163   5.481
 4044POPC   PO451648   6.070  13.689   5.501
 4044POPC   GL151649   6.064  13.626   5.931
 4044POPC   GL251650   5.793  13.876   5.926
 4044POPC   C1A51651   6.288  13.437   6.313
 4044POPC   D2A51652   6.399  13.397   6.758
 4044POPC   C3A51653   6.062  13.471   7.023
 4044POPC   C4A51654   6.004  13.444   7.457
 4044POPC   C1B51655   5.738  13.717   6.335
 4044POPC   C2B51656   5.646  13.535   6.720
 4044POPC   C3B51657   5.593  13.646   7.153
 4044POPC   C4B51658   5.643  14.035   7.348
 4045POPC   NC351659  29.081  38.867   5.363
 4045POPC   PO451660  29.349  38.245   5.420
 4045POPC   GL151661  29.147  38.495   5.733
 4045POPC   GL251662  29.325  38.826   5.796
 4045POPC   C1A51663  28.960  38.315   6.106
 4045POPC   D2A51664  29.204  38.162   6.434
 4045POPC   C3A51665  29.053  38.236   6.825
 4045POPC   C4A51666  29.171  38.385   7.210
 4045POPC   C1B51667  29.108  38.808   6.156
 4045POPC   C2B51668  28.928  38.644   6.519
 4045POPC   C3B51669  29.064  38.772   6.916
 4045POPC   C4B51670  29.413  38.879   7.177
 4046POPC   NC351671  24.939  26.825   5.585
 4046POPC   PO451672  25.440  26.437   5.417
 4046POPC   GL151673  25.397  26.687   5.810
 4046POPC   GL251674  25.506  27.047   5.818
 4046POPC   C1A51675  25.180  26.894   6.202
 4046POPC   D2A51676  24.946  26.811   6.601
 4046POPC   C3A51677  25.031  26.997   7.008
 4046POPC   C4A51678  25.052  26.812   7.415
 4046POPC   C1B51679  25.693  26.804   6.207
 4046POPC   C2B51680  25.753  26.818   6.693
 4046POPC   C3B51681  25.494  26.779   7.118
 4046POPC   C4B51682  25.499  27.019   7.522
 4047POPC   NC351683  21.251  13.858   5.414
 4047POPC   PO451684  21.458  13.279   5.320
 4047POPC   GL151685  21.612  13.543   5.670
 4047POPC   GL251686  21.346  13.636   5.886
 4047POPC   C1A51687  21.784  13.833   6.031
 4047POPC   D2A51688  21.622  13.867   6.468
 4047POPC   C3A51689  21.585  13.514   6.734
 4047POPC   C4A51690  21.627  13.543   7.168
 4047POPC   C1B51691  21.209  13.609   6.317
 4047POPC   C2B51692  21.137  13.778   6.731
 4047POPC   C3B51693  21.134  13.744   7.173
 4047POPC   C4B51694  20.852  13.647   7.527
 4048POPC   NC351695  43.809  17.841   5.300
 4048POPC   PO451696  43.928  18.503   5.234
 4048POPC   GL151697  43.894  18.270   5.629
 4048POPC   GL251698  43.574  18.392   5.774
 4048POPC   C1A51699  43.888  18.207   6.115
 4048POPC   D2A51700  43.718  18.104   6.530
 4048POPC   C3A51701  43.992  18.067   6.881
 4048POPC   C4A51702  43.994  17.967   7.299
 4048POPC   C1B51703  43.439  18.547   6.172
 4048POPC   C2B51704  43.401  18.502   6.604
 4048POPC   C3B51705  43.719  18.522   6.919
 4048POPC   C4B51706  43.774  18.428   7.341
 4049POPC   NC351707  26.483  11.501   5.529
 4049POPC   PO451708  27.059  10.940   5.494
 4049POPC   GL151709  26.764  11.113   5.770
 4049POPC   GL251710  26.881  11.442   5.907
 4049POPC   C1A51711  26.809  11.022   6.192
 4049POPC   D2A51712  27.017  11.097   6.554
 4049POPC   C3A51713  26.759  11.245   6.853
 4049POPC   C4A51714  26.879  11.197   7.255
 4049POPC   C1B51715  26.739  11.511   6.361
 4049POPC   C2B51716  26.738  11.772   6.752
 4049POPC   C3B51717  26.696  11.657   7.197
 4049POPC   C4B51718  27.033  11.596   7.525
 4050POPC   NC351719  10.065   1.526   5.265
 4050POPC   PO451720   9.958   2.173   5.436
 4050POPC   GL151721   9.844   1.925   5.805
 4050POPC   GL251722   9.771   1.586   5.705
 4050POPC   C1A51723   9.794   2.030   6.248
 4050POPC   D2A51724   9.601   2.129   6.654
 4050POPC   C3A51725   9.920   2.076   6.948
 4050POPC   C4A51726   9.981   2.263   7.350
 4050POPC   C1B51727   9.544   1.576   6.110
 4050POPC   C2B51728   9.649   1.635   6.562
 4050POPC   C3B51729   9.555   1.628   6.991
 4050POPC   C4B51730   9.493   1.988   7.205
 4051POPC   NC351731  12.529  22.002   5.445
 4051POPC   PO451732  12.103  22.500   5.435
 4051POPC   GL151733  12.338  22.341   5.801
 4051POPC   GL251734  12.285  21.957   5.904
 4051POPC   C1A51735  12.418  22.333   6.237
 4051POPC   D2A51736  12.294  22.065   6.559
 4051POPC   C3A51737  12.359  22.093   7.011
 4051POPC   C4A51738  12.189  22.428   7.279
 4051POPC   C1B51739  11.918  22.002   6.217
 4051POPC   C2B51740  11.777  21.997   6.665
 4051POPC   C3B51741  11.801  22.098   7.109
 4051POPC   C4B51742  11.580  21.891   7.458
 4052POPC   NC351743  31.543   6.901   5.391
 4052POPC   PO451744  31.226   6.441   5.289
 4052POPC   GL151745  31.233   6.455   5.743
 4052POPC   GL251746  31.278   6.800   5.817
 4052POPC   C1A51747  31.371   6.445   6.187
 4052POPC   D2A51748  31.528   6.747   6.538
 4052POPC   C3A51749  31.485   6.621   6.985
 4052POPC   C4A51750  31.395   6.556   7.462
 4052POPC   C1B51751  31.116   6.897   6.226
 4052POPC   C2B51752  30.978   7.003   6.608
 4052POPC   C3B51753  31.134   7.007   7.001
 4052POPC   C4B51754  31.369   7.032   7.368
 4053POPC   NC351755  35.075  11.140   5.620
 4053POPC   PO451756  35.527  10.627   5.589
 4053POPC   GL151757  35.638  10.568   5.973
 4053POPC   GL251758  35.280  10.548   6.046
 4053POPC   C1A51759  35.657  10.639   6.390
 4053POPC   D2A51760  35.307  10.569   6.661
 4053POPC   C3A51761  35.522  10.447   7.036
 4053POPC   C4A51762  35.599  10.549   7.449
 4053POPC   C1B51763  34.951  10.347   6.241
 4053POPC   C2B51764  34.823  10.152   6.589
 4053POPC   C3B51765  35.041  10.239   6.953
 4053POPC   C4B51766  34.856  10.207   7.304
 4054POPC   NC351767  36.760   9.390   5.182
 4054POPC   PO451768  36.899  10.010   5.480
 4054POPC   GL151769  36.873   9.879   5.920
 4054POPC   GL251770  37.147   9.738   6.088
 4054POPC   C1A51771  36.695   9.602   6.243
 4054POPC   D2A51772  36.929   9.507   6.586
 4054POPC   C3A51773  36.788   9.802   6.879
 4054POPC   C4A51774  36.934   9.802   7.272
 4054POPC   C1B51775  36.969  10.015   6.411
 4054POPC   C2B51776  37.144  10.212   6.767
 4054POPC   C3B51777  37.406  10.173   7.107
 4054POPC   C4B51778  37.227  10.134   7.517
 4055POPC   NC351779  18.181  32.431   5.082
 4055POPC   PO451780  18.466  32.142   5.541
 4055POPC   GL151781  18.261  32.298   5.884
 4055POPC   GL251782  18.017  32.577   5.770
 4055POPC   C1A51783  18.376  32.276   6.356
 4055POPC   D2A51784  18.544  32.456   6.777
 4055POPC   C3A51785  18.402  32.238   7.137
 4055POPC   C4A51786  18.385  32.323   7.554
 4055POPC   C1B51787  17.933  32.505   6.214
 4055POPC   C2B51788  17.897  32.269   6.587
 4055POPC   C3B51789  17.931  32.435   6.994
 4055POPC   C4B51790  17.888  32.249   7.380
 4056POPC   NC351791   5.941   1.790   5.390
 4056POPC   PO451792   5.484   2.228   5.376
 4056POPC   GL151793   5.618   2.052   5.748
 4056POPC   GL251794   5.351   1.865   5.873
 4056POPC   C1A51795   5.817   2.121   6.150
 4056POPC   D2A51796   6.202   2.052   6.397
 4056POPC   C3A51797   6.136   2.000   6.844
 4056POPC   C4A51798   5.941   2.160   7.215
 4056POPC   C1B51799   5.521   1.638   6.227
 4056POPC   C2B51800   5.740   1.800   6.550
 4056POPC   C3B51801   5.588   2.092   6.849
 4056POPC   C4B51802   5.469   1.963   7.263
 4057POPC   NC351803   3.406  39.872   5.598
 4057POPC   PO451804   2.732  39.739   5.419
 4057POPC   GL151805   2.908  39.887   5.823
 4057POPC   GL251806   3.153  39.682   6.002
 4057POPC   C1A51807   2.765  39.915   6.263
 4057POPC   D2A51808   2.470  39.737   6.576
 4057POPC   C3A51809   2.568  39.888   7.007
 4057POPC   C4A51810   2.661  40.264   7.255
 4057POPC   C1B51811   3.263  40.083   6.247
 4057POPC   C2B51812   3.072  40.365   6.530
 4057POPC   C3B51813   3.036  40.182   6.931
 4057POPC   C4B51814   3.015  39.834   7.229
 4058POPC   NC351815  30.848   3.117   5.333
 4058POPC   PO451816  31.056   2.425   5.461
 4058POPC   GL151817  31.014   2.660   5.829
 4058POPC   GL251818  30.710   2.856   5.764
 4058POPC   C1A51819  31.012   2.672   6.294
 4058POPC   D2A51820  31.030   3.008   6.617
 4058POPC   C3A51821  30.876   2.849   6.988
 4058POPC   C4A51822  30.796   2.405   7.050
 4058POPC   C1B51823  30.515   2.722   6.132
 4058POPC   C2B51824  30.556   2.647   6.591
 4058POPC   C3B51825  30.382   2.741   7.002
 4058POPC   C4B51826  30.379   2.559   7.429
 4059POPC   NC351827   6.657  10.265   5.412
 4059POPC   PO451828   6.242  10.728   5.321
 4059POPC   GL151829   6.475  10.647   5.715
 4059POPC   GL251830   6.326  10.392   5.927
 4059POPC   C1A51831   6.493  10.819   6.153
 4059POPC   D2A51832   6.337  10.743   6.581
 4059POPC   C3A51833   6.560  10.528   6.903
 4059POPC   C4A51834   6.584  10.122   7.123
 4059POPC   C1B51835   6.769  10.357   6.075
 4059POPC   C2B51836   6.965  10.278   6.471
 4059POPC   C3B51837   7.041  10.279   6.898
 4059POPC   C4B51838   6.940  10.585   7.236
 4060POPC   NC351839  15.603  22.448   5.509
 4060POPC   PO451840  15.134  21.991   5.375
 4060POPC   GL151841  15.213  22.171   5.728
 4060POPC   GL251842  15.450  21.919   5.836
 4060POPC   C1A51843  15.054  22.133   6.121
 4060POPC   D2A51844  15.241  22.184   6.503
 4060POPC   C3A51845  15.032  22.311   6.848
 4060POPC   C4A51846  15.327  22.332   7.143
 4060POPC   C1B51847  15.275  21.672   6.180
 4060POPC   C2B51848  15.389  21.681   6.601
 4060POPC   C3B51849  15.175  21.826   6.948
 4060POPC   C4B51850  15.120  21.917   7.365
 4061POPC   NC351851  39.901  37.952   5.350
 4061POPC   PO451852  40.098  37.335   5.496
 4061POPC   GL151853  39.917  37.495   5.849
 4061POPC   GL251854  40.045  37.816   5.826
 4061POPC   C1A51855  39.982  37.570   6.284
 4061POPC   D2A51856  40.168  37.648   6.674
 4061POPC   C3A51857  40.001  37.605   7.080
 4061POPC   C4A51858  40.227  37.899   7.369
 4061POPC   C1B51859  39.858  38.060   6.136
 4061POPC   C2B51860  39.762  37.945   6.569
 4061POPC   C3B51861  39.938  38.080   6.940
 4061POPC   C4B51862  39.762  38.109   7.314
 4062POPC   NC351863  25.135  42.505   5.329
 4062POPC   PO451864  25.634  41.998   5.238
 4062POPC   GL151865  25.406  42.266   5.668
 4062POPC   GL251866  25.366  42.092   5.971
 4062POPC   C1A51867  25.180  42.536   6.058
 4062POPC   D2A51868  25.319  42.556   6.520
 4062POPC   C3A51869  25.055  42.510   6.889
 4062POPC   C4A51870  24.841  42.187   7.081
 4062POPC   C1B51871  25.601  42.137   6.318
 4062POPC   C2B51872  25.686  42.249   6.719
 4062POPC   C3B51873  25.462  42.234   7.091
 4062POPC   C4B51874  25.595  41.947   7.440
 4063POPC   NC351875  10.588   8.568   5.559
 4063POPC   PO451876  10.216   7.976   5.418
 4063POPC   GL151877  10.425   7.971   5.900
 4063POPC   GL251878  10.798   7.896   6.010
 4063POPC   C1A51879  10.437   7.902   6.375
 4063POPC   D2A51880  10.254   7.926   6.780
 4063POPC   C3A51881  10.274   8.323   6.995
 4063POPC   C4A51882  10.413   8.267   7.419
 4063POPC   C1B51883  10.726   8.290   6.233
 4063POPC   C2B51884  10.690   8.262   6.660
 4063POPC   C3B51885  10.705   8.062   7.027
 4063POPC   C4B51886  10.940   8.368   7.216
 4064POPC   NC351887  11.805  41.892   5.465
 4064POPC   PO451888  12.280  41.458   5.324
 4064POPC   GL151889  12.124  41.606   5.753
 4064POPC   GL251890  12.365  41.872   5.796
 4064POPC   C1A51891  11.909  41.631   6.199
 4064POPC   D2A51892  12.108  41.435   6.582
 4064POPC   C3A51893  11.950  41.549   6.993
 4064POPC   C4A51894  11.759  41.524   7.455
 4064POPC   C1B51895  12.410  41.653   6.202
 4064POPC   C2B51896  12.578  41.677   6.614
 4064POPC   C3B51897  12.453  41.803   7.010
 4064POPC   C4B51898  12.232  41.666   7.389
 4065POPC   NC351899  34.743   7.009   5.089
 4065POPC   PO451900  34.264   6.557   5.356
 4065POPC   GL151901  34.194   6.693   5.774
 4065POPC   GL251902  34.538   6.677   5.835
 4065POPC   C1A51903  34.225   6.779   6.226
 4065POPC   D2A51904  34.428   6.538   6.557
 4065POPC   C3A51905  34.356   6.623   6.990
 4065POPC   C4A51906  34.510   6.463   7.372
 4065POPC   C1B51907  34.732   6.462   6.133
 4065POPC   C2B51908  34.926   6.566   6.498
 4065POPC   C3B51909  34.829   6.441   6.907
 4065POPC   C4B51910  34.972   6.627   7.273
 4066POPC   NC351911  39.996  40.376   5.361
 4066POPC   PO451912  39.987  41.027   5.407
 4066POPC   GL151913  39.771  40.823   5.783
 4066POPC   GL251914  39.625  40.483   5.720
 4066POPC   C1A51915  39.775  40.944   6.231
 4066POPC   D2A51916  39.885  41.147   6.605
 4066POPC   C3A51917  39.948  40.899   6.958
 4066POPC   C4A51918  40.060  40.945   7.362
 4066POPC   C1B51919  39.812  40.446   6.145
 4066POPC   C2B51920  39.911  40.510   6.585
 4066POPC   C3B51921  40.000  40.382   7.004
 4066POPC   C4B51922  39.707  40.582   7.301
 4067POPC   NC351923   6.062  40.253   5.143
 4067POPC   PO451924   5.992  40.861   5.158
 4067POPC   GL151925   6.002  40.763   5.625
 4067POPC   GL251926   6.046  41.078   5.765
 4067POPC   C1A51927   5.894  40.713   6.122
 4067POPC   D2A51928   5.607  40.654   6.529
 4067POPC   C3A51929   5.709  40.784   6.981
 4067POPC   C4A51930   6.138  40.775   7.146
 4067POPC   C1B51931   5.960  41.206   6.217
 4067POPC   C2B51932   5.924  41.105   6.650
 4067POPC   C3B51933   6.073  41.260   7.058
 4067POPC   C4B51934   5.916  41.459   7.430
 4068POPC   NC351935  19.263  44.245   5.605
 4068POPC   PO451936  18.799  43.997   5.193
 4068POPC   GL151937  18.933  43.844   5.628
 4068POPC   GL251938  18.631  43.705   5.694
 4068POPC   C1A51939  19.171  43.746   6.057
 4068POPC   D2A51940  19.140  43.857   6.518
 4068POPC   C3A51941  19.169  43.627   6.921
 4068POPC   C4A51942  19.212  43.851   7.332
 4068POPC   C1B51943  18.670  43.909   6.098
 4068POPC   C2B51944  18.612  43.836   6.537
 4068POPC   C3B51945  18.726  43.871   6.955
 4068POPC   C4B51946  18.712  43.969   7.374
 4069POPC   NC351947   0.260   4.269   5.227
 4069POPC   PO451948   0.685   4.508   5.677
 4069POPC   GL151949   0.433   4.480   6.033
 4069POPC   GL251950   0.134   4.379   5.864
 4069POPC   C1A51951   0.432   4.277   6.454
 4069POPC   D2A51952   0.561   4.007   6.784
 4069POPC   C3A51953   0.552   4.245   7.172
 4069POPC   C4A51954   0.664   4.344   7.604
 4069POPC   C1B51955   0.101   4.015   6.194
 4069POPC   C2B51956   0.100   3.806   6.572
 4069POPC   C3B51957   0.086   3.977   6.980
 4069POPC   C4B51958   0.057   4.301   7.294
 4070POPC   NC351959  20.322  27.704   5.278
 4070POPC   PO451960  21.024  27.801   5.387
 4070POPC   GL151961  20.670  27.829   5.667
 4070POPC   GL251962  20.793  27.550   5.882
 4070POPC   C1A51963  20.463  27.906   6.088
 4070POPC   D2A51964  20.653  27.816   6.509
 4070POPC   C3A51965  20.520  27.877   6.940
 4070POPC   C4A51966  20.671  27.744   7.350
 4070POPC   C1B51967  20.469  27.410   6.221
 4070POPC   C2B51968  20.374  27.400   6.697
 4070POPC   C3B51969  20.666  27.322   7.058
 4070POPC   C4B51970  21.044  27.394   7.333
 4071POPC   NC351971  35.466   6.672   5.244
 4071POPC   PO451972  34.817   6.674   5.422
 4071POPC   GL151973  35.172   6.735   5.712
 4071POPC   GL251974  35.489   6.542   5.730
 4071POPC   C1A51975  35.188   6.864   6.138
 4071POPC   D2A51976  35.444   6.691   6.473
 4071POPC   C3A51977  35.282   6.716   6.854
 4071POPC   C4A51978  35.480   6.689   7.229
 4071POPC   C1B51979  35.780   6.479   6.072
 4071POPC   C2B51980  35.772   6.272   6.471
 4071POPC   C3B51981  35.752   6.423   6.870
 4071POPC   C4B51982  35.755   6.263   7.276
 4072POPC   NC351983  36.844  19.372   5.435
 4072POPC   PO451984  37.129  20.081   5.535
 4072POPC   GL151985  36.875  19.748   5.766
 4072POPC   GL251986  37.098  19.502   5.873
 4072POPC   C1A51987  36.705  19.540   6.175
 4072POPC   D2A51988  36.593  19.866   6.482
 4072POPC   C3A51989  36.680  19.821   6.910
 4072POPC   C4A51990  36.603  20.133   7.201
 4072POPC   C1B51991  37.015  19.937   6.190
 4072POPC   C2B51992  37.105  19.800   6.595
 4072POPC   C3B51993  37.168  19.661   6.996
 4072POPC   C4B51994  37.245  19.350   7.298
 4073POPC   NC351995  44.482   5.279   5.223
 4073POPC   PO451996  44.888   4.660   5.421
 4073POPC   GL151997  44.891   4.849   5.882
 4073POPC   GL251998  44.732   5.150   5.941
 4073POPC   C1A51999  44.533   4.797   6.243
 4073POPC   D2A52000  44.652   4.798   6.670
 4073POPC   C3A52001  44.382   4.914   6.984
 4073POPC   C4A52002  44.560   5.003   7.347
 4073POPC   C1B52003  44.929   5.118   6.336
 4073POPC   C2B52004  44.809   5.327   6.717
 4073POPC   C3B52005  44.774   5.413   7.141
 4073POPC   C4B52006  44.664   5.459   7.580
 4074POPC   NC352007  28.986  21.126   5.278
 4074POPC   PO452008  29.342  21.618   5.469
 4074POPC   GL152009  29.210  21.328   5.783
 4074POPC   GL252010  28.887  21.222   5.769
 4074POPC   C1A52011  29.082  21.390   6.232
 4074POPC   D2A52012  29.023  21.243   6.656
 4074POPC   C3A52013  29.124  21.461   7.056
 4074POPC   C4A52014  29.148  21.287   7.473
 4074POPC   C1B52015  28.642  21.073   6.080
 4074POPC   C2B52016  28.518  21.145   6.470
 4074POPC   C3B52017  28.625  20.973   6.822
 4074POPC   C4B52018  28.745  21.088   7.212
 4075POPC   NC352019  19.970  35.318   5.285
 4075POPC   PO452020  19.400  35.635   5.430
 4075POPC   GL152021  19.623  35.555   5.826
 4075POPC   GL252022  19.852  35.272   5.798
 4075POPC   C1A52023  19.573  35.367   6.254
 4075POPC   D2A52024  19.734  35.502   6.641
 4075POPC   C3A52025  19.566  35.272   6.966
 4075POPC   C4A52026  19.611  35.295   7.391
 4075POPC   C1B52027  20.055  35.411   6.149
 4075POPC   C2B52028  20.248  35.378   6.567
 4075POPC   C3B52029  20.094  35.325   6.969
 4075POPC   C4B52030  20.012  35.035   7.226
 4076POPC   NC352031   9.828  32.870   5.141
 4076POPC   PO452032   9.453  33.317   5.457
 4076POPC   GL152033   9.738  33.056   5.700
 4076POPC   GL252034   9.806  32.707   5.691
 4076POPC   C1A52035   9.956  33.100   6.083
 4076POPC   D2A52036   9.805  33.325   6.426
 4076POPC   C3A52037   9.869  33.276   6.898
 4076POPC   C4A52038   9.768  33.272   7.355
 4076POPC   C1B52039   9.693  32.671   6.170
 4076POPC   C2B52040   9.808  32.809   6.615
 4076POPC   C3B52041   9.931  32.800   7.070
 4076POPC   C4B52042   9.856  32.797   7.492
 4077POPC   NC352043  22.054  31.126   5.479
 4077POPC   PO452044  22.472  31.634   5.253
 4077POPC   GL152045  22.385  31.735   5.707
 4077POPC   GL252046  22.052  31.584   5.737
 4077POPC   C1A52047  22.377  31.653   6.179
 4077POPC   D2A52048  22.344  31.339   6.538
 4077POPC   C3A52049  22.295  31.546   6.953
 4077POPC   C4A52050  22.382  31.588   7.395
 4077POPC   C1B52051  21.970  31.329   6.137
 4077POPC   C2B52052  21.804  31.213   6.557
 4077POPC   C3B52053  21.987  31.118   6.957
 4077POPC   C4B52054  21.941  31.301   7.367
 4078POPC   NC352055  11.550  18.340   5.403
 4078POPC   PO452056  10.895  18.147   5.457
 4078POPC   GL152057  11.201  18.183   5.765
 4078POPC   GL252058  11.125  18.486   5.932
 4078POPC   C1A52059  11.374  18.042   6.169
 4078POPC   D2A52060  11.344  18.176   6.598
 4078POPC   C3A52061  11.525  18.152   7.019
 4078POPC   C4A52062  11.230  18.369   7.307
 4078POPC   C1B52063  11.569  18.507   6.104
 4078POPC   C2B52064  11.686  18.553   6.546
 4078POPC   C3B52065  11.523  18.671   6.972
 4078POPC   C4B52066  11.642  18.653   7.433
 4079POPC   NC352067   2.431  32.700   5.714
 4079POPC   PO452068   2.853  32.296   5.369
 4079POPC   GL152069   2.715  32.270   5.787
 4079POPC   GL252070   2.960  32.528   5.844
 4079POPC   C1A52071   2.770  32.247   6.255
 4079POPC   D2A52072   3.031  32.158   6.649
 4079POPC   C3A52073   2.782  32.038   7.028
 4079POPC   C4A52074   2.383  32.211   7.200
 4079POPC   C1B52075   3.328  32.499   6.123
 4079POPC   C2B52076   3.504  32.398   6.538
 4079POPC   C3B52077   3.344  32.465   6.961
 4079POPC   C4B52078   3.033  32.432   7.274
 4080POPC   NC352079  15.015  44.952   5.448
 4080POPC   PO452080  15.484  44.465   5.528
 4080POPC   GL152081  15.137  44.510   5.788
 4080POPC   GL252082  15.194  44.862   5.903
 4080POPC   C1A52083  15.074  44.270   6.160
 4080POPC   D2A52084  15.243  44.365   6.557
 4080POPC   C3A52085  15.063  44.284   6.955
 4080POPC   C4A52086  15.234  44.343   7.319
 4080POPC   C1B52087  15.309  44.818   6.311
 4080POPC   C2B52088  15.060  44.818   6.685
 4080POPC   C3B52089  15.104  44.794   7.112
 4080POPC   C4B52090  15.386  44.944   7.419
 4081POPC   NC352091   8.004  26.599   4.858
 4081POPC   PO452092   8.313  26.796   5.394
 4081POPC   GL152093   8.254  26.770   5.810
 4081POPC   GL252094   8.593  26.705   5.832
 4081POPC   C1A52095   8.057  26.718   6.219
 4081POPC   D2A52096   8.168  26.857   6.633
 4081POPC   C3A52097   8.039  26.629   7.006
 4081POPC   C4A52098   8.183  26.689   7.446
 4081POPC   C1B52099   8.571  26.752   6.271
 4081POPC   C2B52100   8.547  26.499   6.623
 4081POPC   C3B52101   8.542  26.621   7.051
 4081POPC   C4B52102   8.529  27.022   7.238
 4082POPC   NC352103  21.175  15.483   5.233
 4082POPC   PO452104  21.588  14.992   5.445
 4082POPC   GL152105  21.319  15.102   5.825
 4082POPC   GL252106  21.150  15.424   5.785
 4082POPC   C1A52107  21.377  15.225   6.271
 4082POPC   D2A52108  21.644  15.465   6.559
 4082POPC   C3A52109  21.665  15.259   6.962
 4082POPC   C4A52110  21.251  15.173   7.092
 4082POPC   C1B52111  20.907  15.434   6.205
 4082POPC   C2B52112  20.983  15.357   6.668
 4082POPC   C3B52113  20.907  15.534   7.098
 4082POPC   C4B52114  21.219  15.540   7.467
 4083POPC   NC352115  33.942   2.571   5.410
 4083POPC   PO452116  33.552   3.209   5.471
 4083POPC   GL152117  33.581   2.913   5.847
 4083POPC   GL252118  33.522   2.559   5.764
 4083POPC   C1A52119  33.824   2.908   6.245
 4083POPC   D2A52120  33.960   3.021   6.672
 4083POPC   C3A52121  33.715   2.918   7.033
 4083POPC   C4A52122  33.983   2.798   7.376
 4083POPC   C1B52123  33.624   2.436   6.197
 4083POPC   C2B52124  33.614   2.602   6.609
 4083POPC   C3B52125  33.444   2.456   6.985
 4083POPC   C4B52126  33.351   2.604   7.342
 4084POPC   NC352127  25.619   2.242   5.423
 4084POPC   PO452128  26.238   1.942   5.442
 4084POPC   GL152129  26.204   1.670   5.818
 4084POPC   GL252130  25.880   1.769   5.891
 4084POPC   C1A52131  26.202   1.500   6.234
 4084POPC   D2A52132  26.280   1.742   6.620
 4084POPC   C3A52133  26.053   1.905   6.978
 4084POPC   C4A52134  26.388   2.114   7.162
 4084POPC   C1B52135  26.148   2.025   6.183
 4084POPC   C2B52136  26.050   2.219   6.562
 4084POPC   C3B52137  26.105   2.457   6.902
 4084POPC   C4B52138  25.918   2.373   7.277
 4085POPC   NC352139  16.052  40.323   5.526
 4085POPC   PO452140  16.098  41.012   5.587
 4085POPC   GL152141  16.158  40.720   5.913
 4085POPC   GL252142  15.797  40.631   5.919
 4085POPC   C1A52143  16.169  40.913   6.329
 4085POPC   D2A52144  15.806  41.066   6.570
 4085POPC   C3A52145  15.878  40.934   6.974
 4085POPC   C4A52146  16.245  40.962   7.231
 4085POPC   C1B52147  15.804  40.539   6.371
 4085POPC   C2B52148  16.102  40.530   6.727
 4085POPC   C3B52149  16.051  40.485   7.181
 4085POPC   C4B52150  15.617  40.598   7.293
 4086POPC   NC352151  25.019  13.355   5.240
 4086POPC   PO452152  25.100  13.930   5.585
 4086POPC   GL152153  25.302  13.645   5.884
 4086POPC   GL252154  25.352  13.285   5.753
 4086POPC   C1A52155  25.440  13.721   6.341
 4086POPC   D2A52156  25.571  13.790   6.798
 4086POPC   C3A52157  25.292  13.769   7.132
 4086POPC   C4A52158  24.938  13.918   7.336
 4086POPC   C1B52159  25.197  13.228   6.192
 4086POPC   C2B52160  25.301  13.306   6.628
 4086POPC   C3B52161  25.125  13.254   7.042
 4086POPC   C4B52162  25.497  13.093   7.204
 4087POPC   NC352163  37.119   4.154   5.332
 4087POPC   PO452164  36.584   4.487   5.514
 4087POPC   GL152165  36.842   4.189   5.757
 4087POPC   GL252166  36.940   4.478   5.939
 4087POPC   C1A52167  37.087   4.018   6.135
 4087POPC   D2A52168  37.181   4.243   6.541
 4087POPC   C3A52169  37.022   4.057   6.924
 4087POPC   C4A52170  36.676   4.134   7.222
 4087POPC   C1B52171  36.545   4.589   6.175
 4087POPC   C2B52172  36.400   4.592   6.615
 4087POPC   C3B52173  36.750   4.509   6.888
 4087POPC   C4B52174  37.114   4.509   7.166
 4088POPC   NC352175  14.142  16.688   5.505
 4088POPC   PO452176  14.854  16.851   5.458
 4088POPC   GL152177  14.573  16.631   5.780
 4088POPC   GL252178  14.438  16.946   5.858
 4088POPC   C1A52179  14.427  16.550   6.244
 4088POPC   D2A52180  14.525  16.781   6.659
 4088POPC   C3A52181  14.445  16.572   7.052
 4088POPC   C4A52182  14.557  16.492   7.500
 4088POPC   C1B52183  14.291  17.046   6.264
 4088POPC   C2B52184  14.067  17.040   6.616
 4088POPC   C3B52185  14.246  17.122   6.982
 4088POPC   C4B52186  14.192  16.913   7.331
 4089POPC   NC352187   7.897  23.854   5.104
 4089POPC   PO452188   7.406  23.635   5.505
 4089POPC   GL152189   7.404  23.567   5.930
 4089POPC   GL252190   7.655  23.300   5.948
 4089POPC   C1A52191   7.171  23.735   6.292
 4089POPC   D2A52192   7.073  23.551   6.723
 4089POPC   C3A52193   7.178  23.854   7.048
 4089POPC   C4A52194   7.337  24.139   7.370
 4089POPC   C1B52195   7.746  23.595   6.317
 4089POPC   C2B52196   7.608  23.607   6.765
 4089POPC   C3B52197   7.669  23.624   7.235
 4089POPC   C4B52198   7.734  23.878   7.645
 4090POPC   NC352199  25.453  34.715   5.361
 4090POPC   PO452200  24.794  34.562   5.317
 4090POPC   GL152201  24.957  34.591   5.728
 4090POPC   GL252202  25.236  34.395   5.740
 4090POPC   C1A52203  24.949  34.875   6.094
 4090POPC   D2A52204  25.174  35.040   6.465
 4090POPC   C3A52205  25.128  34.816   6.856
 4090POPC   C4A52206  24.985  34.832   7.287
 4090POPC   C1B52207  25.382  34.600   6.135
 4090POPC   C2B52208  25.543  34.649   6.581
 4090POPC   C3B52209  25.486  34.435   6.988
 4090POPC   C4B52210  25.669  34.450   7.397
 4091POPC   NC352211  12.694  10.887   5.263
 4091POPC   PO452212  12.689  10.254   5.311
 4091POPC   GL152213  12.837  10.487   5.725
 4091POPC   GL252214  12.555  10.448   5.994
 4091POPC   C1A52215  12.967  10.739   6.119
 4091POPC   D2A52216  12.912  10.919   6.568
 4091POPC   C3A52217  13.228  10.841   6.931
 4091POPC   C4A52218  13.147  10.503   7.252
 4091POPC   C1B52219  12.624  10.439   6.457
 4091POPC   C2B52220  12.731  10.364   6.908
 4091POPC   C3B52221  12.565  10.429   7.329
 4091POPC   C4B52222  12.537  10.226   7.731
 4092POPC   NC352223  35.184   0.147   5.447
 4092POPC   PO452224  35.786   0.409   5.456
 4092POPC   GL152225  35.534   0.337   5.844
 4092POPC   GL252226  35.199   0.505   5.843
 4092POPC   C1A52227  35.500   0.356   6.308
 4092POPC   D2A52228  35.223   0.459   6.658
 4092POPC   C3A52229  35.386   0.440   7.049
 4092POPC   C4A52230  35.461   0.433   7.493
 4092POPC   C1B52231  35.215   0.783   6.228
 4092POPC   C2B52232  35.033   0.920   6.633
 4092POPC   C3B52233  34.968   0.746   7.056
 4092POPC   C4B52234  35.014   0.742   7.536
 4093POPC   NC352235   5.221  24.162   5.188
 4093POPC   PO452236   4.950  24.733   5.345
 4093POPC   GL152237   5.056  24.488   5.728
 4093POPC   GL252238   4.873  24.157   5.681
 4093POPC   C1A52239   5.083  24.630   6.186
 4093POPC   D2A52240   4.828  24.576   6.566
 4093POPC   C3A52241   4.953  24.755   6.970
 4093POPC   C4A52242   5.253  24.653   7.276
 4093POPC   C1B52243   4.836  24.166   6.156
 4093POPC   C2B52244   5.021  24.083   6.594
 4093POPC   C3B52245   5.074  24.228   7.032
 4093POPC   C4B52246   4.927  24.064   7.435
 4094POPC   NC352247   7.832  29.015   5.374
 4094POPC   PO452248   8.344  29.485   5.332
 4094POPC   GL152249   8.171  29.366   5.760
 4094POPC   GL252250   8.070  29.019   5.845
 4094POPC   C1A52251   8.201  29.341   6.239
 4094POPC   D2A52252   8.444  29.338   6.650
 4094POPC   C3A52253   8.161  29.221   6.997
 4094POPC   C4A52254   8.123  29.350   7.457
 4094POPC   C1B52255   8.284  28.828   6.239
 4094POPC   C2B52256   8.357  28.817   6.717
 4094POPC   C3B52257   8.326  28.740   7.197
 4094POPC   C4B52258   8.651  28.590   7.517
 4095POPC   NC352259  40.716   6.698   5.408
 4095POPC   PO452260  41.187   6.293   5.375
 4095POPC   GL152261  41.142   6.519   5.757
 4095POPC   GL252262  41.080   6.890   5.747
 4095POPC   C1A52263  40.867   6.512   6.090
 4095POPC   D2A52264  41.013   6.462   6.487
 4095POPC   C3A52265  40.756   6.449   6.841
 4095POPC   C4A52266  40.742   6.521   7.279
 4095POPC   C1B52267  40.824   7.018   6.125
 4095POPC   C2B52268  40.676   6.867   6.541
 4095POPC   C3B52269  40.763   6.982   6.987
 4095POPC   C4B52270  40.562   6.961   7.411
 4096POPC   NC352271  12.645  35.152   5.538
 4096POPC   PO452272  13.296  34.907   5.542
 4096POPC   GL152273  13.044  35.279   5.864
 4096POPC   GL252274  12.679  35.416   5.949
 4096POPC   C1A52275  13.053  35.444   6.297
 4096POPC   D2A52276  12.921  35.215   6.680
 4096POPC   C3A52277  12.963  35.316   7.133
 4096POPC   C4A52278  13.028  35.209   7.632
 4096POPC   C1B52279  12.557  35.248   6.290
 4096POPC   C2B52280  12.431  35.494   6.602
 4096POPC   C3B52281  12.481  35.669   7.003
 4096POPC   C4B52282  12.546  35.446   7.373
 4097POPC   NC352283  21.104  44.563   5.406
 4097POPC   PO452284  20.478  44.805   5.444
 4097POPC   GL152285  20.626  44.672   5.827
 4097POPC   GL252286  20.976  44.804   5.844
 4097POPC   C1A52287  20.420  44.586   6.253
 4097POPC   D2A52288  20.578  44.400   6.635
 4097POPC   C3A52289  20.315  44.413   7.045
 4097POPC   C4A52290  20.311  44.235   7.496
 4097POPC   C1B52291  20.933  44.580   6.221
 4097POPC   C2B52292  20.911  44.801   6.587
 4097POPC   C3B52293  20.639  44.802   6.927
 4097POPC   C4B52294  20.754  44.601   7.253
 4098POPC   NC352295  14.787  36.001   5.237
 4098POPC   PO452296  14.214  36.129   5.558
 4098POPC   GL152297  14.454  36.035   5.874
 4098POPC   GL252298  14.769  35.942   5.775
 4098POPC   C1A52299  14.482  36.231   6.265
 4098POPC   D2A52300  14.696  36.264   6.639
 4098POPC   C3A52301  14.471  36.192   7.012
 4098POPC   C4A52302  14.178  35.877   7.166
 4098POPC   C1B52303  14.825  35.808   6.223
 4098POPC   C2B52304  14.635  35.757   6.660
 4098POPC   C3B52305  14.739  35.766   7.111
 4098POPC   C4B52306  14.538  35.696   7.527
 4099POPC   NC352307  23.842  24.050   5.347
 4099POPC   PO452308  23.984  23.417   5.430
 4099POPC   GL152309  23.852  23.712   5.745
 4099POPC   GL252310  24.045  24.016   5.803
 4099POPC   C1A52311  23.773  23.639   6.153
 4099POPC   D2A52312  23.505  23.707   6.486
 4099POPC   C3A52313  23.650  23.649   6.879
 4099POPC   C4A52314  23.600  23.878   7.220
 4099POPC   C1B52315  24.218  23.913   6.170
 4099POPC   C2B52316  24.046  23.826   6.566
 4099POPC   C3B52317  24.108  23.873   6.998
 4099POPC   C4B52318  23.992  23.542   7.253
 4100POPC   NC352319  41.620  18.849   5.379
 4100POPC   PO452320  41.435  19.463   5.371
 4100POPC   GL152321  41.413  19.230   5.724
 4100POPC   GL252322  41.167  18.976   5.616
 4100POPC   C1A52323  41.650  19.157   6.111
 4100POPC   D2A52324  41.527  19.095   6.539
 4100POPC   C3A52325  41.593  19.196   6.952
 4100POPC   C4A52326  41.907  19.016   7.193
 4100POPC   C1B52327  41.214  18.877   6.054
 4100POPC   C2B52328  41.087  18.746   6.461
 4100POPC   C3B52329  41.172  18.869   6.885
 4100POPC   C4B52330  41.356  18.904   7.296
 4101POPC   NC352331  31.654  31.803   5.416
 4101POPC   PO452332  31.156  31.317   5.280
 4101POPC   GL152333  31.391  31.442   5.663
 4101POPC   GL252334  31.481  31.124   5.784
 4101POPC   C1A52335  31.536  31.593   6.089
 4101POPC   D2A52336  31.336  31.632   6.502
 4101POPC   C3A52337  31.411  31.588   6.952
 4101POPC   C4A52338  31.015  31.744   7.171
 4101POPC   C1B52339  31.387  31.114   6.225
 4101POPC   C2B52340  31.422  31.142   6.665
 4101POPC   C3B52341  31.657  31.158   7.017
 4101POPC   C4B52342  31.489  31.237   7.403
 4102POPC   NC352343  27.290  16.391   5.568
 4102POPC   PO452344  26.714  16.701   5.324
 4102POPC   GL152345  26.668  16.821   5.758
 4102POPC   GL252346  26.680  16.479   5.914
 4102POPC   C1A52347  26.632  16.931   6.202
 4102POPC   D2A52348  26.709  16.668   6.569
 4102POPC   C3A52349  26.776  16.881   6.928
 4102POPC   C4A52350  26.804  16.839   7.336
 4102POPC   C1B52351  27.050  16.576   6.205
 4102POPC   C2B52352  27.186  16.486   6.656
 4102POPC   C3B52353  27.164  16.560   7.122
 4102POPC   C4B52354  27.140  16.581   7.602
 4103POPC   NC352355  31.965  28.800   5.383
 4103POPC   PO452356  32.475  29.255   5.278
 4103POPC   GL152357  32.278  29.114   5.677
 4103POPC   GL252358  31.929  29.238   5.697
 4103POPC   C1A52359  32.469  29.055   6.093
 4103POPC   D2A52360  32.467  29.261   6.483
 4103POPC   C3A52361  32.424  29.270   6.908
 4103POPC   C4A52362  32.617  29.208   7.297
 4103POPC   C1B52363  31.961  28.930   6.059
 4103POPC   C2B52364  32.160  28.848   6.452
 4103POPC   C3B52365  32.029  28.943   6.856
 4103POPC   C4B52366  32.143  29.008   7.262
 4104POPC   NC352367  40.403  43.904   5.410
 4104POPC   PO452368  41.066  44.054   5.463
 4104POPC   GL152369  40.778  43.915   5.783
 4104POPC   GL252370  40.788  44.246   5.885
 4104POPC   C1A52371  40.670  43.762   6.214
 4104POPC   D2A52372  40.981  43.640   6.557
 4104POPC   C3A52373  40.966  43.820   6.985
 4104POPC   C4A52374  40.563  43.850   7.122
 4104POPC   C1B52375  41.017  44.132   6.247
 4104POPC   C2B52376  40.793  44.131   6.613
 4104POPC   C3B52377  40.727  44.341   6.967
 4104POPC   C4B52378  40.831  44.235   7.346
 4105POPC   NC352379  13.997  22.599   5.372
 4105POPC   PO452380  13.598  23.124   5.591
 4105POPC   GL152381  13.706  22.757   5.809
 4105POPC   GL252382  14.038  22.883   5.804
 4105POPC   C1A52383  13.529  22.669   6.228
 4105POPC   D2A52384  13.394  22.860   6.632
 4105POPC   C3A52385  13.608  22.718   7.021
 4105POPC   C4A52386  13.468  22.639   7.511
 4105POPC   C1B52387  13.874  23.061   6.213
 4105POPC   C2B52388  13.910  22.971   6.655
 4105POPC   C3B52389  13.909  23.122   7.081
 4105POPC   C4B52390  13.943  22.817   7.396
 4106POPC   NC352391  26.407  36.068   5.282
 4106POPC   PO452392  26.937  36.429   5.477
 4106POPC   GL152393  26.938  36.352   5.932
 4106POPC   GL252394  26.641  36.548   5.930
 4106POPC   C1A52395  26.882  36.042   6.312
 4106POPC   D2A52396  26.797  35.877   6.741
 4106POPC   C3A52397  26.993  36.100   7.129
 4106POPC   C4A52398  27.066  36.279   7.562
 4106POPC   C1B52399  26.493  36.356   6.274
 4106POPC   C2B52400  26.633  36.346   6.696
 4106POPC   C3B52401  26.485  36.161   7.064
 4106POPC   C4B52402  26.552  36.142   7.530
 4107POPC   NC352403  18.725  16.594   5.520
 4107POPC   PO452404  19.203  16.996   5.328
 4107POPC   GL152405  18.964  17.036   5.745
 4107POPC   GL252406  18.773  16.786   5.976
 4107POPC   C1A52407  19.112  17.104   6.170
 4107POPC   D2A52408  18.921  16.918   6.496
 4107POPC   C3A52409  19.061  16.920   6.898
 4107POPC   C4A52410  18.889  16.726   7.240
 4107POPC   C1B52411  19.103  16.546   6.193
 4107POPC   C2B52412  19.120  16.472   6.648
 4107POPC   C3B52413  19.244  16.396   7.053
 4107POPC   C4B52414  19.200  16.251   7.486
 4108POPC   NC352415  39.361  42.715   5.552
 4108POPC   PO452416  38.822  42.216   5.358
 4108POPC   GL152417  39.024  42.134   5.787
 4108POPC   GL252418  39.393  42.204   5.774
 4108POPC   C1A52419  39.126  42.123   6.245
 4108POPC   D2A52420  38.977  42.057   6.682
 4108POPC   C3A52421  39.206  41.975   7.060
 4108POPC   C4A52422  39.111  42.044   7.503
 4108POPC   C1B52423  39.567  42.456   6.122
 4108POPC   C2B52424  39.431  42.416   6.540
 4108POPC   C3B52425  39.590  42.513   6.945
 4108POPC   C4B52426  39.533  42.292   7.287
 4109POPC   NC352427   4.630  22.653   5.447
 4109POPC   PO452428   4.718  21.989   5.343
 4109POPC   GL152429   4.459  22.208   5.664
 4109POPC   GL252430   4.114  22.105   5.743
 4109POPC   C1A52431   4.416  22.377   6.081
 4109POPC   D2A52432   4.435  22.206   6.495
 4109POPC   C3A52433   4.679  22.356   6.837
 4109POPC   C4A52434   4.517  22.194   7.222
 4109POPC   C1B52435   3.898  22.324   6.120
 4109POPC   C2B52436   3.904  22.468   6.581
 4109POPC   C3B52437   4.070  22.482   7.027
 4109POPC   C4B52438   3.845  22.296   7.395
 4110POPC   NC352439  16.915  42.139   5.498
 4110POPC   PO452440  16.275  42.412   5.545
 4110POPC   GL152441  16.538  42.305   5.814
 4110POPC   GL252442  16.722  42.591   5.809
 4110POPC   C1A52443  16.676  42.135   6.186
 4110POPC   D2A52444  16.537  42.226   6.604
 4110POPC   C3A52445  16.820  42.143   6.901
 4110POPC   C4A52446  16.660  42.183   7.306
 4110POPC   C1B52447  16.528  42.613   6.243
 4110POPC   C2B52448  16.750  42.685   6.624
 4110POPC   C3B52449  16.660  42.607   7.037
 4110POPC   C4B52450  16.934  42.607   7.407
 4111POPC   NC352451  27.338  22.478   5.494
 4111POPC   PO452452  27.693  21.909   5.327
 4111POPC   GL152453  27.606  22.023   5.736
 4111POPC   GL252454  27.538  21.696   5.827
 4111POPC   C1A52455  27.625  22.223   6.156
 4111POPC   D2A52456  27.376  22.401   6.526
 4111POPC   C3A52457  27.428  22.192   6.921
 4111POPC   C4A52458  27.732  22.303   7.237
 4111POPC   C1B52459  27.758  21.687   6.201
 4111POPC   C2B52460  27.768  21.929   6.579
 4111POPC   C3B52461  27.886  21.903   7.007
 4111POPC   C4B52462  28.001  21.855   7.442
 4112POPC   NC352463   9.327  39.314   5.250
 4112POPC   PO452464   8.718  39.615   5.432
 4112POPC   GL152465   9.051  39.414   5.737
 4112POPC   GL252466   8.994  39.048   5.867
 4112POPC   C1A52467   9.267  39.435   6.127
 4112POPC   D2A52468   9.110  39.338   6.525
 4112POPC   C3A52469   9.171  39.568   6.901
 4112POPC   C4A52470   9.099  39.414   7.307
 4112POPC   C1B52471   8.739  39.055   6.240
 4112POPC   C2B52472   8.649  39.186   6.681
 4112POPC   C3B52473   8.869  39.089   7.030
 4112POPC   C4B52474   8.650  39.050   7.437
 4113POPC   NC352475  12.373  34.925   5.068
 4113POPC   PO452476  11.872  34.444   5.268
 4113POPC   GL152477  12.003  34.373   5.737
 4113POPC   GL252478  12.316  34.367   5.806
 4113POPC   C1A52479  12.002  34.544   6.186
 4113POPC   D2A52480  12.112  34.864   6.526
 4113POPC   C3A52481  12.036  34.699   6.964
 4113POPC   C4A52482  11.714  34.401   7.160
 4113POPC   C1B52483  12.418  34.219   6.197
 4113POPC   C2B52484  12.272  34.347   6.572
 4113POPC   C3B52485  12.100  34.158   6.912
 4113POPC   C4B52486  12.218  34.318   7.279
 4114POPC   NC352487  17.444   9.921   5.481
 4114POPC   PO452488  17.788   9.310   5.692
 4114POPC   GL152489  17.521   9.600   5.887
 4114POPC   GL252490  17.219   9.445   5.988
 4114POPC   C1A52491  17.602   9.921   6.202
 4114POPC   D2A52492  17.629  10.137   6.594
 4114POPC   C3A52493  17.626   9.911   6.989
 4114POPC   C4A52494  17.595   9.627   7.329
 4114POPC   C1B52495  17.105   9.801   6.213
 4114POPC   C2B52496  17.217   9.836   6.637
 4114POPC   C3B52497  17.100   9.867   7.039
 4114POPC   C4B52498  17.059   9.565   7.323
 4115POPC   NC352499   8.913  21.585   5.135
 4115POPC   PO452500   9.338  21.240   5.511
 4115POPC   GL152501   9.136  21.446   5.815
 4115POPC   GL252502   9.308  21.212   6.024
 4115POPC   C1A52503   8.983  21.553   6.217
 4115POPC   D2A52504   8.970  21.789   6.595
 4115POPC   C3A52505   9.011  21.609   7.019
 4115POPC   C4A52506   8.804  21.542   7.447
 4115POPC   C1B52507   9.043  20.994   6.297
 4115POPC   C2B52508   9.018  20.890   6.710
 4115POPC   C3B52509   9.188  21.118   7.027
 4115POPC   C4B52510   9.072  21.080   7.442
 4116POPC   NC352511  19.032  43.426   5.296
 4116POPC   PO452512  19.605  43.039   5.378
 4116POPC   GL152513  19.223  43.058   5.710
 4116POPC   GL252514  18.995  43.341   5.782
 4116POPC   C1A52515  19.220  43.134   6.174
 4116POPC   D2A52516  19.417  43.428   6.436
 4116POPC   C3A52517  19.450  43.198   6.806
 4116POPC   C4A52518  19.213  43.158   7.182
 4116POPC   C1B52519  18.781  43.420   6.156
 4116POPC   C2B52520  18.902  43.393   6.553
 4116POPC   C3B52521  18.755  43.323   6.960
 4116POPC   C4B52522  18.863  43.501   7.333
 4117POPC   NC352523  21.644  11.978   5.394
 4117POPC   PO452524  21.054  11.638   5.489
 4117POPC   GL152525  21.364  11.851   5.822
 4117POPC   GL252526  21.768  11.820   5.858
 4117POPC   C1A52527  21.343  11.968   6.272
 4117POPC   D2A52528  21.113  12.193   6.623
 4117POPC   C3A52529  20.943  12.020   7.023
 4117POPC   C4A52530  21.028  12.228   7.435
 4117POPC   C1B52531  21.857  12.074   6.232
 4117POPC   C2B52532  21.636  12.232   6.615
 4117POPC   C3B52533  21.445  12.010   6.983
 4117POPC   C4B52534  21.285  11.791   7.365
 4118POPC   NC352535  13.418  32.681   5.375
 4118POPC   PO452536  13.579  33.336   5.456
 4118POPC   GL152537  13.386  33.132   5.800
 4118POPC   GL252538  13.359  32.761   5.880
 4118POPC   C1A52539  13.368  33.188   6.198
 4118POPC   D2A52540  13.678  33.244   6.471
 4118POPC   C3A52541  13.529  33.238   6.874
 4118POPC   C4A52542  13.738  33.265   7.253
 4118POPC   C1B52543  13.673  32.768   6.214
 4118POPC   C2B52544  13.720  32.743   6.663
 4118POPC   C3B52545  13.732  32.760   7.100
 4118POPC   C4B52546  13.361  32.933   7.279
 4119POPC   NC352547   8.723  14.864   5.433
 4119POPC   PO452548   9.299  15.254   5.315
 4119POPC   GL152549   9.119  15.041   5.724
 4119POPC   GL252550   8.762  15.180   5.849
 4119POPC   C1A52551   9.104  15.064   6.211
 4119POPC   D2A52552   8.787  14.967   6.524
 4119POPC   C3A52553   8.973  14.993   6.902
 4119POPC   C4A52554   9.261  15.249   7.121
 4119POPC   C1B52555   8.782  15.469   6.247
 4119POPC   C2B52556   8.865  15.473   6.718
 4119POPC   C3B52557   8.765  15.374   7.177
 4119POPC   C4B52558   8.736  15.431   7.643
 4120POPC   NC352559  11.136  41.160   5.201
 4120POPC   PO452560  11.352  41.777   5.524
 4120POPC   GL152561  11.215  41.752   5.922
 4120POPC   GL252562  11.468  41.476   5.956
 4120POPC   C1A52563  11.267  41.715   6.368
 4120POPC   D2A52564  11.592  41.452   6.592
 4120POPC   C3A52565  11.498  41.340   7.002
 4120POPC   C4A52566  11.266  41.469   7.328
 4120POPC   C1B52567  11.266  41.223   6.269
 4120POPC   C2B52568  11.076  41.283   6.663
 4120POPC   C3B52569  11.059  41.089   7.055
 4120POPC   C4B52570  11.076  41.034   7.493
 4121POPC   NC352571  33.802  20.873   5.615
 4121POPC   PO452572  33.752  20.249   5.643
 4121POPC   GL152573  33.899  20.484   5.961
 4121POPC   GL252574  33.625  20.347   6.143
 4121POPC   C1A52575  33.786  20.790   6.287
 4121POPC   D2A52576  33.479  20.713   6.594
 4121POPC   C3A52577  33.660  20.769   7.014
 4121POPC   C4A52578  33.825  20.888   7.461
 4121POPC   C1B52579  33.927  20.312   6.465
 4121POPC   C2B52580  33.855  20.261   6.910
 4121POPC   C3B52581  33.623  20.351   7.328
 4121POPC   C4B52582  33.534  20.238   7.776
 4122POPC   NC352583  10.184  34.920   5.406
 4122POPC   PO452584  10.815  34.691   5.329
 4122POPC   GL152585  10.833  34.652   5.762
 4122POPC   GL252586  10.552  34.795   5.850
 4122POPC   C1A52587  10.851  34.649   6.221
 4122POPC   D2A52588  10.751  34.303   6.474
 4122POPC   C3A52589  10.700  34.393   6.879
 4122POPC   C4A52590  10.712  34.711   7.144
 4122POPC   C1B52591  10.348  34.529   6.195
 4122POPC   C2B52592  10.233  34.554   6.612
 4122POPC   C3B52593  10.232  34.490   7.045
 4122POPC   C4B52594  10.146  34.111   7.260
 4123POPC   NC352595  16.730  16.162   5.626
 4123POPC   PO452596  16.693  16.844   5.452
 4123POPC   GL152597  16.433  16.919   5.828
 4123POPC   GL252598  16.326  16.583   5.848
 4123POPC   C1A52599  16.505  17.004   6.286
 4123POPC   D2A52600  16.815  16.823   6.555
 4123POPC   C3A52601  16.707  16.740   6.947
 4123POPC   C4A52602  16.974  16.928   7.268
 4123POPC   C1B52603  16.711  16.556   6.133
 4123POPC   C2B52604  16.947  16.317   6.460
 4123POPC   C3B52605  17.043  16.271   6.914
 4123POPC   C4B52606  16.821  16.398   7.300
 4124POPC   NC352607  10.594  28.626   5.504
 4124POPC   PO452608  10.528  28.004   5.421
 4124POPC   GL152609  10.474  28.166   5.794
 4124POPC   GL252610  10.823  28.286   5.825
 4124POPC   C1A52611  10.356  28.456   6.144
 4124POPC   D2A52612  10.365  28.289   6.575
 4124POPC   C3A52613  10.228  28.489   6.949
 4124POPC   C4A52614  10.341  28.473   7.364
 4124POPC   C1B52615  10.730  28.116   6.229
 4124POPC   C2B52616  10.869  28.249   6.624
 4124POPC   C3B52617  10.742  28.369   7.055
 4124POPC   C4B52618  10.721  28.152   7.489
 4125POPC   NC352619  11.138  34.881   5.058
 4125POPC   PO452620  11.289  35.397   5.425
 4125POPC   GL152621  11.374  35.560   5.821
 4125POPC   GL252622  11.393  35.237   5.943
 4125POPC   C1A52623  11.195  35.630   6.250
 4125POPC   D2A52624  11.213  35.428   6.648
 4125POPC   C3A52625  11.125  35.627   7.022
 4125POPC   C4A52626  11.369  35.381   7.262
 4125POPC   C1B52627  11.142  35.074   6.252
 4125POPC   C2B52628  10.858  35.070   6.583
 4125POPC   C3B52629  11.062  35.064   6.982
 4125POPC   C4B52630  10.960  35.078   7.390
 4126POPC   NC352631   5.566  11.305   5.406
 4126POPC   PO452632   4.945  11.596   5.389
 4126POPC   GL152633   5.057  11.508   5.791
 4126POPC   GL252634   5.031  11.827   5.932
 4126POPC   C1A52635   4.896  11.386   6.211
 4126POPC   D2A52636   5.039  11.385   6.635
 4126POPC   C3A52637   4.918  11.133   6.991
 4126POPC   C4A52638   5.244  11.081   7.344
 4126POPC   C1B52639   5.100  11.841   6.383
 4126POPC   C2B52640   5.067  11.870   6.819
 4126POPC   C3B52641   4.967  11.601   7.143
 4126POPC   C4B52642   5.106  11.587   7.549
 4127POPC   NC352643  23.139  37.239   5.441
 4127POPC   PO452644  23.353  36.638   5.404
 4127POPC   GL152645  23.135  36.853   5.762
 4127POPC   GL252646  23.297  37.129   5.925
 4127POPC   C1A52647  22.882  36.837   6.127
 4127POPC   D2A52648  22.741  37.010   6.522
 4127POPC   C3A52649  22.743  36.775   6.853
 4127POPC   C4A52650  22.783  36.887   7.264
 4127POPC   C1B52651  22.974  37.349   6.200
 4127POPC   C2B52652  22.815  37.495   6.634
 4127POPC   C3B52653  22.950  37.274   6.999
 4127POPC   C4B52654  23.180  37.273   7.393
 4128POPC   NC352655  44.007   7.870   5.401
 4128POPC   PO452656  43.700   8.469   5.145
 4128POPC   GL152657  43.737   8.296   5.633
 4128POPC   GL252658  44.082   8.305   5.740
 4128POPC   C1A52659  43.793   8.130   6.110
 4128POPC   D2A52660  44.056   7.984   6.491
 4128POPC   C3A52661  43.952   8.149   6.915
 4128POPC   C4A52662  43.782   7.990   7.303
 4128POPC   C1B52663  44.261   8.391   6.149
 4128POPC   C2B52664  44.243   8.457   6.599
 4128POPC   C3B52665  44.445   8.306   6.987
 4128POPC   C4B52666  44.228   8.211   7.382
 4129POPC   NC352667  37.356  31.697   5.363
 4129POPC   PO452668  37.668  31.137   5.598
 4129POPC   GL152669  37.703  31.461   5.854
 4129POPC   GL252670  37.367  31.531   5.827
 4129POPC   C1A52671  37.734  31.612   6.262
 4129POPC   D2A52672  37.851  31.759   6.642
 4129POPC   C3A52673  37.676  31.595   6.966
 4129POPC   C4A52674  37.852  31.606   7.344
 4129POPC   C1B52675  37.297  31.314   6.185
 4129POPC   C2B52676  37.427  31.333   6.587
 4129POPC   C3B52677  37.279  31.269   6.980
 4129POPC   C4B52678  37.390  31.325   7.380
 4130POPC   NC352679   5.434  22.977   5.432
 4130POPC   PO452680   4.838  23.209   5.413
 4130POPC   GL152681   4.942  22.957   5.741
 4130POPC   GL252682   4.773  23.198   5.927
 4130POPC   C1A52683   4.950  22.728   6.135
 4130POPC   D2A52684   5.147  22.830   6.522
 4130POPC   C3A52685   5.053  22.718   6.955
 4130POPC   C4A52686   5.235  22.814   7.374
 4130POPC   C1B52687   4.764  23.219   6.343
 4130POPC   C2B52688   4.776  23.117   6.731
 4130POPC   C3B52689   4.854  23.156   7.136
 4130POPC   C4B52690   4.844  23.129   7.531
 4131POPC   NC352691  11.917   2.730   5.498
 4131POPC   PO452692  11.836   3.284   5.807
 4131POPC   GL152693  12.110   2.942   5.938
 4131POPC   GL252694  12.060   2.564   5.939
 4131POPC   C1A52695  12.189   2.855   6.350
 4131POPC   D2A52696  12.470   2.984   6.666
 4131POPC   C3A52697  12.229   2.892   7.003
 4131POPC   C4A52698  12.175   2.777   7.399
 4131POPC   C1B52699  11.854   2.452   6.291
 4131POPC   C2B52700  11.919   2.550   6.708
 4131POPC   C3B52701  11.807   2.515   7.127
 4131POPC   C4B52702  11.712   2.603   7.546
 4132POPC   NC352703  25.840  29.775   5.443
 4132POPC   PO452704  26.127  30.358   5.172
 4132POPC   GL152705  26.041  30.246   5.664
 4132POPC   GL252706  26.045  29.899   5.892
 4132POPC   C1A52707  26.060  30.336   6.136
 4132POPC   D2A52708  26.036  30.021   6.462
 4132POPC   C3A52709  25.931  30.169   6.866
 4132POPC   C4A52710  25.883  30.026   7.253
 4132POPC   C1B52711  26.289  29.645   6.219
 4132POPC   C2B52712  26.556  29.469   6.553
 4132POPC   C3B52713  26.534  29.482   7.019
 4132POPC   C4B52714  26.333  29.797   7.245
 4133POPC   NC352715  42.575  36.283   5.167
 4133POPC   PO452716  42.212  36.797   5.391
 4133POPC   GL152717  42.401  36.823   5.787
 4133POPC   GL252718  42.087  36.949   5.916
 4133POPC   C1A52719  42.569  36.717   6.212
 4133POPC   D2A52720  42.305  36.845   6.570
 4133POPC   C3A52721  42.500  36.713   6.948
 4133POPC   C4A52722  42.445  36.838   7.342
 4133POPC   C1B52723  42.422  37.188   6.161
 4133POPC   C2B52724  42.697  37.169   6.526
 4133POPC   C3B52725  42.576  37.204   6.939
 4133POPC   C4B52726  42.543  37.331   7.319
 4134POPC   NC352727  25.759  41.542   5.184
 4134POPC   PO452728  25.880  41.874   5.751
 4134POPC   GL152729  25.876  41.461   5.783
 4134POPC   GL252730  25.611  41.262   5.611
 4134POPC   C1A52731  26.008  41.340   6.200
 4134POPC   D2A52732  26.292  41.386   6.542
 4134POPC   C3A52733  26.096  41.589   6.848
 4134POPC   C4A52734  26.029  41.490   7.252
 4134POPC   C1B52735  25.521  41.240   6.062
 4134POPC   C2B52736  25.480  41.158   6.511
 4134POPC   C3B52737  25.678  41.271   6.903
 4134POPC   C4B52738  25.541  41.421   7.332
 4135POPC   NC352739   1.318  31.687   5.196
 4135POPC   PO452740   0.961  31.169   5.411
 4135POPC   GL152741   1.254  31.365   5.697
 4135POPC   GL252742   1.242  31.740   5.785
 4135POPC   C1A52743   1.389  31.198   6.103
 4135POPC   D2A52744   1.456  31.116   6.528
 4135POPC   C3A52745   1.489  31.431   6.820
 4135POPC   C4A52746   1.291  31.193   7.198
 4135POPC   C1B52747   1.061  31.577   6.140
 4135POPC   C2B52748   0.867  31.272   6.383
 4135POPC   C3B52749   0.984  31.382   6.774
 4135POPC   C4B52750   1.126  31.671   7.084
 4136POPC   NC352751  33.413   9.243   5.407
 4136POPC   PO452752  32.714   9.215   5.391
 4136POPC   GL152753  32.919   8.917   5.732
 4136POPC   GL252754  33.296   8.896   5.781
 4136POPC   C1A52755  32.922   9.010   6.186
 4136POPC   D2A52756  33.068   9.272   6.550
 4136POPC   C3A52757  33.025   9.084   6.961
 4136POPC   C4A52758  32.772   8.819   7.228
 4136POPC   C1B52759  33.359   8.750   6.213
 4136POPC   C2B52760  33.111   8.712   6.607
 4136POPC   C3B52761  33.190   8.584   7.066
 4136POPC   C4B52762  33.241   8.801   7.484
 4137POPC   NC352763   0.331  15.864   5.288
 4137POPC   PO452764   0.454  16.603   5.339
 4137POPC   GL152765   0.445  16.355   5.752
 4137POPC   GL252766   0.487  15.987   5.742
 4137POPC   C1A52767   0.485  16.189   6.189
 4137POPC   D2A52768   0.631  16.035   6.578
 4137POPC   C3A52769   0.453  16.177   7.008
 4137POPC   C4A52770   0.217  16.103   7.415
 4137POPC   C1B52771   0.432  15.678   6.089
 4137POPC   C2B52772   0.442  15.542   6.522
 4137POPC   C3B52773   0.547  15.678   6.939
 4137POPC   C4B52774   0.277  15.602   7.295
 4138POPC   NC352775  14.543  33.693   5.201
 4138POPC   PO452776  14.095  34.094   5.477
 4138POPC   GL152777  14.281  33.842   5.794
 4138POPC   GL252778  14.639  33.830   5.745
 4138POPC   C1A52779  14.273  33.794   6.248
 4138POPC   D2A52780  14.129  33.496   6.530
 4138POPC   C3A52781  14.339  33.533   6.907
 4138POPC   C4A52782  14.355  33.938   6.995
 4138POPC   C1B52783  14.723  33.591   6.133
 4138POPC   C2B52784  14.698  33.708   6.594
 4138POPC   C3B52785  14.827  33.677   7.042
 4138POPC   C4B52786  14.591  33.569   7.415
 4139POPC   NC352787  22.647  30.860   5.455
 4139POPC   PO452788  23.124  30.412   5.271
 4139POPC   GL152789  23.015  30.540   5.747
 4139POPC   GL252790  22.806  30.785   5.910
 4139POPC   C1A52791  23.050  30.489   6.236
 4139POPC   D2A52792  22.816  30.469   6.645
 4139POPC   C3A52793  23.051  30.573   7.010
 4139POPC   C4A52794  23.328  30.906   7.065
 4139POPC   C1B52795  22.777  30.950   6.284
 4139POPC   C2B52796  22.964  30.992   6.675
 4139POPC   C3B52797  22.900  31.177   7.070
 4139POPC   C4B52798  22.830  30.969   7.473
 4140POPC   NC352799  24.846  18.480   5.270
 4140POPC   PO452800  24.289  18.102   5.253
 4140POPC   GL152801  24.505  18.279   5.631
 4140POPC   GL252802  24.777  18.044   5.703
 4140POPC   C1A52803  24.556  18.373   6.105
 4140POPC   D2A52804  24.364  18.418   6.541
 4140POPC   C3A52805  24.533  18.368   6.956
 4140POPC   C4A52806  24.510  18.587   7.356
 4140POPC   C1B52807  24.832  17.919   6.146
 4140POPC   C2B52808  24.668  17.857   6.565
 4140POPC   C3B52809  24.601  17.878   7.017
 4140POPC   C4B52810  24.624  18.109   7.440
 4141POPC   NC352811  29.459   0.951   5.643
 4141POPC   PO452812  28.856   0.899   5.351
 4141POPC   GL152813  28.986   0.952   5.820
 4141POPC   GL252814  29.106   1.297   5.817
 4141POPC   C1A52815  29.249   1.029   6.239
 4141POPC   D2A52816  29.419   1.291   6.588
 4141POPC   C3A52817  29.231   1.245   6.985
 4141POPC   C4A52818  29.116   0.897   7.256
 4141POPC   C1B52819  29.049   1.510   6.211
 4141POPC   C2B52820  28.792   1.451   6.564
 4141POPC   C3B52821  28.831   1.652   6.915
 4141POPC   C4B52822  29.134   1.687   7.225
 4142POPC   NC352823  28.871  18.778   5.317
 4142POPC   PO452824  29.250  18.240   5.145
 4142POPC   GL152825  29.174  18.269   5.627
 4142POPC   GL252826  29.206  18.607   5.718
 4142POPC   C1A52827  29.048  18.302   6.099
 4142POPC   D2A52828  29.168  18.265   6.562
 4142POPC   C3A52829  28.969  18.288   6.981
 4142POPC   C4A52830  29.252  18.184   7.323
 4142POPC   C1B52831  29.355  18.711   6.156
 4142POPC   C2B52832  29.592  18.551   6.515
 4142POPC   C3B52833  29.519  18.418   6.954
 4142POPC   C4B52834  29.658  18.621   7.355
 4143POPC   NC352835  10.544  14.209   5.176
 4143POPC   PO452836  10.695  14.649   5.704
 4143POPC   GL152837  10.421  14.435   5.909
 4143POPC   GL252838  10.152  14.348   5.692
 4143POPC   C1A52839  10.491  14.171   6.292
 4143POPC   D2A52840  10.389  14.033   6.683
 4143POPC   C3A52841  10.644  14.195   7.003
 4143POPC   C4A52842  10.684  14.311   7.403
 4143POPC   C1B52843  10.021  14.206   6.115
 4143POPC   C2B52844  10.014  14.416   6.549
 4143POPC   C3B52845  10.115  14.322   7.002
 4143POPC   C4B52846  10.054  14.269   7.481
 4144POPC   NC352847  43.241   6.413   5.386
 4144POPC   PO452848  43.360   7.005   5.132
 4144POPC   GL152849  43.256   6.923   5.639
 4144POPC   GL252850  42.952   6.705   5.792
 4144POPC   C1A52851  43.400   6.693   6.064
 4144POPC   D2A52852  43.293   6.415   6.428
 4144POPC   C3A52853  43.079   6.574   6.787
 4144POPC   C4A52854  43.227   6.502   7.171
 4144POPC   C1B52855  42.866   6.413   6.178
 4144POPC   C2B52856  42.618   6.396   6.584
 4144POPC   C3B52857  42.653   6.407   7.070
 4144POPC   C4B52858  42.714   6.757   7.356
 4145POPC   NC352859  12.321  39.304   5.384
 4145POPC   PO452860  11.681  39.500   5.421
 4145POPC   GL152861  12.037  39.440   5.797
 4145POPC   GL252862  12.345  39.163   5.867
 4145POPC   C1A52863  11.995  39.349   6.231
 4145POPC   D2A52864  11.665  39.346   6.546
 4145POPC   C3A52865  11.807  39.268   6.975
 4145POPC   C4A52866  12.051  39.550   7.205
 4145POPC   C1B52867  12.504  39.214   6.266
 4145POPC   C2B52868  12.399  39.496   6.594
 4145POPC   C3B52869  12.503  39.486   6.994
 4145POPC   C4B52870  12.311  39.106   7.168
 4146POPC   NC352871  33.721   1.541   5.415
 4146POPC   PO452872  33.944   2.127   5.322
 4146POPC   GL152873  33.962   2.189   5.801
 4146POPC   GL252874  34.036   2.559   5.905
 4146POPC   C1A52875  33.779   1.952   6.216
 4146POPC   D2A52876  33.759   1.734   6.655
 4146POPC   C3A52877  33.746   2.009   7.018
 4146POPC   C4A52878  33.561   2.129   7.409
 4146POPC   C1B52879  34.151   2.342   6.244
 4146POPC   C2B52880  33.972   2.232   6.611
 4146POPC   C3B52881  33.967   2.465   6.977
 4146POPC   C4B52882  34.032   2.294   7.350
 4147POPC   NC352883  42.510   0.038   5.390
 4147POPC   PO452884  42.058   0.617   5.439
 4147POPC   GL152885  42.286   0.364   5.706
 4147POPC   GL252886  42.623   0.513   5.650
 4147POPC   C1A52887  42.220   0.222   6.135
 4147POPC   D2A52888  41.911   0.289   6.481
 4147POPC   C3A52889  42.176   0.335   6.834
 4147POPC   C4A52890  42.499   0.308   7.126
 4147POPC   C1B52891  42.462   0.687   6.045
 4147POPC   C2B52892  42.527   0.819   6.443
 4147POPC   C3B52893  42.545   0.718   6.831
 4147POPC   C4B52894  42.610   0.791   7.243
 4148POPC   NC352895  12.118  40.995   5.287
 4148POPC   PO452896  11.966  40.348   5.434
 4148POPC   GL152897  11.920  40.722   5.683
 4148POPC   GL252898  12.226  40.926   5.769
 4148POPC   C1A52899  11.873  40.634   6.110
 4148POPC   D2A52900  11.910  40.327   6.448
 4148POPC   C3A52901  12.006  40.515   6.861
 4148POPC   C4A52902  12.320  40.521   7.208
 4148POPC   C1B52903  11.993  41.131   6.109
 4148POPC   C2B52904  11.966  40.944   6.524
 4148POPC   C3B52905  11.931  41.033   6.953
 4148POPC   C4B52906  12.094  41.157   7.330
 4149POPC   NC352907   6.936   7.492   5.454
 4149POPC   PO452908   6.278   7.278   5.469
 4149POPC   GL152909   6.606   7.328   5.801
 4149POPC   GL252910   6.958   7.150   5.818
 4149POPC   C1A52911   6.534   7.234   6.208
 4149POPC   D2A52912   6.369   7.346   6.582
 4149POPC   C3A52913   6.550   7.159   6.944
 4149POPC   C4A52914   6.456   7.406   7.265
 4149POPC   C1B52915   7.014   7.387   6.186
 4149POPC   C2B52916   6.902   7.232   6.568
 4149POPC   C3B52917   7.046   7.311   6.957
 4149POPC   C4B52918   6.900   7.216   7.379
 4150POPC   NC352919   1.864  44.336   5.342
 4150POPC   PO452920   1.975  44.995   5.531
 4150POPC   GL152921   1.932  44.698   5.882
 4150POPC   GL252922   2.139  44.378   5.908
 4150POPC   C1A52923   1.867  44.583   6.324
 4150POPC   D2A52924   2.159  44.552   6.673
 4150POPC   C3A52925   2.069  44.222   6.939
 4150POPC   C4A52926   1.714  44.412   7.149
 4150POPC   C1B52927   2.348  44.711   6.204
 4150POPC   C2B52928   2.407  44.999   6.591
 4150POPC   C3B52929   2.524  44.779   6.979
 4150POPC   C4B52930   2.212  44.606   7.244
 4151POPC   NC352931  16.492  35.981   5.118
 4151POPC   PO452932  16.914  36.358   5.429
 4151POPC   GL152933  16.860  36.138   5.808
 4151POPC   GL252934  16.547  35.952   5.670
 4151POPC   C1A52935  17.051  36.310   6.193
 4151POPC   D2A52936  17.239  36.321   6.592
 4151POPC   C3A52937  16.946  36.338   6.896
 4151POPC   C4A52938  16.775  36.152   7.288
 4151POPC   C1B52939  16.429  36.089   6.091
 4151POPC   C2B52940  16.644  36.105   6.484
 4151POPC   C3B52941  16.483  36.086   6.872
 4151POPC   C4B52942  16.340  35.868   7.235
 4152POPC   NC352943   9.620   6.565   5.286
 4152POPC   PO452944  10.032   7.086   5.435
 4152POPC   GL152945   9.817   6.802   5.741
 4152POPC   GL252946   9.981   6.483   5.760
 4152POPC   C1A52947   9.672   6.673   6.189
 4152POPC   D2A52948   9.713   6.457   6.606
 4152POPC   C3A52949   9.554   6.541   7.042
 4152POPC   C4A52950   9.387   6.744   7.398
 4152POPC   C1B52951  10.170   6.499   6.213
 4152POPC   C2B52952  10.237   6.413   6.668
 4152POPC   C3B52953  10.063   6.476   7.087
 4152POPC   C4B52954  10.238   6.344   7.501
 4153POPC   NC352955  24.107   5.049   5.461
 4153POPC   PO452956  24.727   4.705   5.526
 4153POPC   GL152957  24.460   4.921   5.812
 4153POPC   GL252958  24.188   4.706   5.856
 4153POPC   C1A52959  24.247   5.235   6.099
 4153POPC   D2A52960  24.148   5.285   6.541
 4153POPC   C3A52961  24.398   5.382   6.926
 4153POPC   C4A52962  24.382   5.218   7.358
 4153POPC   C1B52963  24.404   4.745   6.279
 4153POPC   C2B52964  24.567   4.986   6.634
 4153POPC   C3B52965  24.630   4.878   7.064
 4153POPC   C4B52966  24.413   4.597   7.352
 4154POPC   NC352967  30.730   9.445   5.449
 4154POPC   PO452968  30.718   8.713   5.270
 4154POPC   GL152969  30.681   8.958   5.680
 4154POPC   GL252970  30.513   9.264   5.877
 4154POPC   C1A52971  30.932   8.954   6.072
 4154POPC   D2A52972  31.041   9.128   6.496
 4154POPC   C3A52973  30.754   8.989   6.802
 4154POPC   C4A52974  30.810   8.979   7.239
 4154POPC   C1B52975  30.560   9.191   6.336
 4154POPC   C2B52976  30.414   9.371   6.712
 4154POPC   C3B52977  30.352   9.122   7.097
 4154POPC   C4B52978  30.413   9.073   7.547
 4155POPC   NC352979  25.113   7.430   5.440
 4155POPC   PO452980  25.771   7.618   5.379
 4155POPC   GL152981  25.507   7.518   5.758
 4155POPC   GL252982  25.309   7.230   5.872
 4155POPC   C1A52983  25.267   7.685   6.140
 4155POPC   D2A52984  25.129   7.594   6.578
 4155POPC   C3A52985  25.348   7.729   6.978
 4155POPC   C4A52986  25.566   7.524   7.320
 4155POPC   C1B52987  25.178   6.977   6.214
 4155POPC   C2B52988  25.335   6.952   6.621
 4155POPC   C3B52989  25.233   7.237   6.957
 4155POPC   C4B52990  25.127   7.179   7.369
 4156POPC   NC352991  41.959  32.356   5.506
 4156POPC   PO452992  42.547  32.573   5.515
 4156POPC   GL152993  42.333  32.440   5.854
 4156POPC   GL252994  42.271  32.107   5.851
 4156POPC   C1A52995  42.335  32.340   6.288
 4156POPC   D2A52996  42.343  32.584   6.618
 4156POPC   C3A52997  42.249  32.349   6.958
 4156POPC   C4A52998  42.326  32.137   7.313
 4156POPC   C1B52999  42.667  32.007   6.099
 4156POPC   C2B53000  42.736  31.868   6.512
 4156POPC   C3B53001  42.704  32.068   6.908
 4156POPC   C4B53002  42.787  31.933   7.316
 4157POPC   NC353003  24.096  32.860   5.464
 4157POPC   PO453004  23.646  33.279   5.209
 4157POPC   GL153005  23.794  33.233   5.645
 4157POPC   GL253006  24.117  33.377   5.666
 4157POPC   C1A53007  23.846  33.106   6.093
 4157POPC   D2A53008  23.569  33.090   6.471
 4157POPC   C3A53009  23.693  32.787   6.762
 4157POPC   C4A53010  23.738  32.846   7.186
 4157POPC   C1B53011  24.125  33.547   6.082
 4157POPC   C2B53012  24.136  33.344   6.480
 4157POPC   C3B53013  24.041  33.172   6.867
 4157POPC   C4B53014  24.040  33.325   7.266
 4158POPC   NC353015  12.945  37.868   5.368
 4158POPC   PO453016  12.522  37.270   5.449
 4158POPC   GL153017  12.775  37.539   5.720
 4158POPC   GL253018  13.001  37.350   5.845
 4158POPC   C1A53019  12.883  37.865   6.084
 4158POPC   D2A53020  13.052  38.051   6.508
 4158POPC   C3A53021  12.893  37.907   6.933
 4158POPC   C4A53022  12.977  37.885   7.390
 4158POPC   C1B53023  13.187  37.462   6.199
 4158POPC   C2B53024  12.982  37.526   6.562
 4158POPC   C3B53025  12.677  37.417   6.837
 4158POPC   C4B53026  12.794  37.438   7.250
 4159POPC   NC353027  41.738  36.834   5.467
 4159POPC   PO453028  41.048  37.073   5.477
 4159POPC   GL153029  41.224  36.835   5.821
 4159POPC   GL253030  41.569  36.772   5.931
 4159POPC   C1A53031  41.264  36.987   6.265
 4159POPC   D2A53032  41.352  36.736   6.608
 4159POPC   C3A53033  41.576  36.877   6.945
 4159POPC   C4A53034  41.558  36.509   7.131
 4159POPC   C1B53035  41.782  36.795   6.337
 4159POPC   C2B53036  41.905  36.531   6.699
 4159POPC   C3B53037  42.032  36.641   7.115
 4159POPC   C4B53038  42.027  37.091   7.199
 4160POPC   NC353039  26.405   2.438   5.384
 4160POPC   PO453040  25.733   2.761   5.334
 4160POPC   GL153041  26.009   2.663   5.696
 4160POPC   GL253042  26.023   2.290   5.762
 4160POPC   C1A53043  26.148   2.903   6.087
 4160POPC   D2A53044  26.425   3.031   6.451
 4160POPC   C3A53045  26.279   2.968   6.895
 4160POPC   C4A53046  26.053   2.847   7.261
 4160POPC   C1B53047  25.860   2.480   6.155
 4160POPC   C2B53048  25.852   2.740   6.554
 4160POPC   C3B53049  25.623   2.699   6.990
 4160POPC   C4B53050  25.600   2.731   7.475
 4161POPC   NC353051   1.923  40.821   5.287
 4161POPC   PO453052   2.410  40.487   5.575
 4161POPC   GL153053   2.084  40.726   5.822
 4161POPC   GL253054   1.852  41.004   5.755
 4161POPC   C1A53055   1.853  40.754   6.219
 4161POPC   D2A53056   1.927  40.947   6.624
 4161POPC   C3A53057   1.919  40.613   6.919
 4161POPC   C4A53058   1.674  40.358   7.216
 4161POPC   C1B53059   2.055  41.208   6.133
 4161POPC   C2B53060   2.334  41.262   6.476
 4161POPC   C3B53061   2.349  41.151   6.908
 4161POPC   C4B53062   1.978  41.078   7.152
 4162POPC   NC353063  30.857  41.507   5.252
 4162POPC   PO453064  30.344  41.206   5.517
 4162POPC   GL153065  30.566  41.521   5.766
 4162POPC   GL253066  30.952  41.496   5.853
 4162POPC   C1A53067  30.593  41.788   6.131
 4162POPC   D2A53068  30.791  41.690   6.517
 4162POPC   C3A53069  30.527  41.540   6.853
 4162POPC   C4A53070  30.566  41.564   7.283
 4162POPC   C1B53071  31.074  41.272   6.239
 4162POPC   C2B53072  31.140  41.323   6.680
 4162POPC   C3B53073  31.019  41.609   7.006
 4162POPC   C4B53074  31.051  41.334   7.331
 4163POPC   NC353075   5.972  36.737   5.282
 4163POPC   PO453076   5.516  37.218   5.394
 4163POPC   GL153077   5.636  36.845   5.679
 4163POPC   GL253078   5.957  36.952   5.790
 4163POPC   C1A53079   5.763  36.563   6.058
 4163POPC   D2A53080   5.707  36.594   6.522
 4163POPC   C3A53081   5.989  36.513   6.869
 4163POPC   C4A53082   5.812  36.491   7.261
 4163POPC   C1B53083   5.768  37.025   6.228
 4163POPC   C2B53084   5.996  37.018   6.645
 4163POPC   C3B53085   5.977  36.981   7.093
 4163POPC   C4B53086   6.051  37.154   7.516
 4164POPC   NC353087  24.506   7.871   5.546
 4164POPC   PO453088  24.331   8.525   5.307
 4164POPC   GL153089  24.537   8.524   5.784
 4164POPC   GL253090  24.703   8.215   5.873
 4164POPC   C1A53091  24.545   8.425   6.293
 4164POPC   D2A53092  24.792   8.336   6.693
 4164POPC   C3A53093  24.580   8.408   7.113
 4164POPC   C4A53094  24.119   8.478   7.149
 4164POPC   C1B53095  24.831   7.961   6.280
 4164POPC   C2B53096  24.713   7.831   6.731
 4164POPC   C3B53097  24.515   7.910   7.125
 4164POPC   C4B53098  24.724   7.910   7.556
 4165POPC   NC353099  12.156  30.914   5.462
 4165POPC   PO453100  11.680  31.277   5.543
 4165POPC   GL153101  11.856  31.010   5.897
 4165POPC   GL253102  12.062  30.732   5.917
 4165POPC   C1A53103  11.782  30.773   6.330
 4165POPC   D2A53104  12.038  30.832   6.648
 4165POPC   C3A53105  12.063  30.892   7.054
 4165POPC   C4A53106  12.398  30.622   7.167
 4165POPC   C1B53107  12.252  30.558   6.270
 4165POPC   C2B53108  12.138  30.303   6.634
 4165POPC   C3B53109  11.881  30.423   6.985
 4165POPC   C4B53110  11.725  30.200   7.320
 4166POPC   NC353111  40.112  17.693   5.402
 4166POPC   PO453112  39.515  17.258   5.428
 4166POPC   GL153113  39.861  17.396   5.762
 4166POPC   GL253114  40.093  17.698   5.890
 4166POPC   C1A53115  39.939  17.337   6.201
 4166POPC   D2A53116  40.141  17.532   6.529
 4166POPC   C3A53117  39.942  17.386   6.900
 4166POPC   C4A53118  40.056  17.563   7.240
 4166POPC   C1B53119  39.754  17.860   6.098
 4166POPC   C2B53120  39.652  17.964   6.480
 4166POPC   C3B53121  39.888  17.895   6.810
 4166POPC   C4B53122  39.660  17.849   7.140
 4167POPC   NC353123  35.992  10.740   5.612
 4167POPC   PO453124  35.852  10.080   5.641
 4167POPC   GL153125  36.070  10.293   5.988
 4167POPC   GL253126  36.355  10.528   5.908
 4167POPC   C1A53127  36.088  10.287   6.450
 4167POPC   D2A53128  35.991  10.580   6.780
 4167POPC   C3A53129  36.049  10.442   7.192
 4167POPC   C4A53130  35.846  10.070   7.262
 4167POPC   C1B53131  36.190  10.749   6.259
 4167POPC   C2B53132  36.418  10.788   6.612
 4167POPC   C3B53133  36.465  10.686   7.007
 4167POPC   C4B53134  36.321  10.920   7.326
 4168POPC   NC353135  30.084   9.629   5.403
 4168POPC   PO453136  29.855  10.247   5.381
 4168POPC   GL153137  29.816   9.914   5.735
 4168POPC   GL253138  30.172   9.834   5.885
 4168POPC   C1A53139  29.714   9.726   6.163
 4168POPC   D2A53140  29.903   9.798   6.576
 4168POPC   C3A53141  29.750   9.976   6.918
 4168POPC   C4A53142  29.939   9.881   7.277
 4168POPC   C1B53143  30.178   9.515   6.235
 4168POPC   C2B53144  29.932   9.304   6.583
 4168POPC   C3B53145  29.984   9.450   7.027
 4168POPC   C4B53146  30.350   9.554   7.359
 4169POPC   NC353147  10.337   6.840   5.674
 4169POPC   PO453148  10.497   6.274   5.374
 4169POPC   GL153149  10.745   6.488   5.704
 4169POPC   GL253150  10.855   6.848   5.881
 4169POPC   C1A53151  10.685   6.470   6.148
 4169POPC   D2A53152  10.905   6.709   6.456
 4169POPC   C3A53153  10.673   6.668   6.823
 4169POPC   C4A53154  10.558   6.332   7.086
 4169POPC   C1B53155  10.560   7.009   6.224
 4169POPC   C2B53156  10.286   6.904   6.534
 4169POPC   C3B53157  10.257   6.971   6.950
 4169POPC   C4B53158  10.414   6.789   7.304
 4170POPC   NC353159  29.295  14.931   5.443
 4170POPC   PO453160  29.011  15.484   5.138
 4170POPC   GL153161  29.078  15.375   5.630
 4170POPC   GL253162  29.444  15.279   5.785
 4170POPC   C1A53163  29.049  15.200   6.085
 4170POPC   D2A53164  29.214  15.184   6.519
 4170POPC   C3A53165  29.011  15.263   6.930
 4170POPC   C4A53166  29.197  15.599   7.185
 4170POPC   C1B53167  29.491  14.925   6.129
 4170POPC   C2B53168  29.527  14.777   6.575
 4170POPC   C3B53169  29.478  15.034   6.941
 4170POPC   C4B53170  29.337  14.892   7.345
 4171POPC   NC353171  44.773   2.383   5.499
 4171POPC   PO453172  44.537   3.026   5.373
 4171POPC   GL153173  44.535   2.865   5.772
 4171POPC   GL253174  44.343   2.582   5.771
 4171POPC   C1A53175  44.877   2.759   6.048
 4171POPC   D2A53176   0.163   2.800   6.400
 4171POPC   C3A53177   0.027   2.584   6.792
 4171POPC   C4A53178   0.041   2.797   7.208
 4171POPC   C1B53179  44.429   2.532   6.190
 4171POPC   C2B53180  44.659   2.813   6.492
 4171POPC   C3B53181  44.649   2.927   6.905
 4171POPC   C4B53182  44.494   3.108   7.269
 4172POPC   NC353183  18.392   9.960   5.446
 4172POPC   PO453184  18.247   9.325   5.230
 4172POPC   GL153185  18.274   9.510   5.687
 4172POPC   GL253186  18.576   9.464   5.903
 4172POPC   C1A53187  18.110   9.769   6.064
 4172POPC   D2A53188  18.139   9.976   6.491
 4172POPC   C3A53189  18.104   9.737   6.874
 4172POPC   C4A53190  18.046   9.850   7.302
 4172POPC   C1B53191  18.610   9.875   6.137
 4172POPC   C2B53192  18.654  10.021   6.577
 4172POPC   C3B53193  18.493  10.058   7.000
 4172POPC   C4B53194  18.519   9.645   7.197
 4173POPC   NC353195  18.017  38.085   5.326
 4173POPC   PO453196  18.625  38.048   5.562
 4173POPC   GL153197  18.469  37.661   5.725
 4173POPC   GL253198  18.128  37.701   5.658
 4173POPC   C1A53199  18.269  37.431   6.089
 4173POPC   D2A53200  18.293  37.633   6.507
 4173POPC   C3A53201  18.368  37.534   6.940
 4173POPC   C4A53202  18.662  37.789   7.199
 4173POPC   C1B53203  18.080  37.930   6.093
 4173POPC   C2B53204  18.114  38.114   6.545
 4173POPC   C3B53205  18.104  38.009   6.988
 4173POPC   C4B53206  17.717  37.979   7.211
 4174POPC   NC353207  23.714   7.427   5.127
 4174POPC   PO453208  23.410   7.774   5.622
 4174POPC   GL153209  23.587   7.388   5.794
 4174POPC   GL253210  23.945   7.296   5.713
 4174POPC   C1A53211  23.696   7.408   6.233
 4174POPC   D2A53212  23.809   7.630   6.644
 4174POPC   C3A53213  23.547   7.630   7.030
 4174POPC   C4A53214  23.483   7.561   7.464
 4174POPC   C1B53215  24.070   7.055   6.115
 4174POPC   C2B53216  23.937   7.101   6.568
 4174POPC   C3B53217  23.706   7.143   6.966
 4174POPC   C4B53218  23.421   7.078   7.325
 4175POPC   NC353219  18.916  36.850   5.329
 4175POPC   PO453220  19.442  37.248   5.562
 4175POPC   GL153221  19.154  36.949   5.766
 4175POPC   GL253222  18.779  36.764   5.796
 4175POPC   C1A53223  19.080  36.876   6.183
 4175POPC   D2A53224  19.125  36.655   6.535
 4175POPC   C3A53225  19.146  36.945   6.843
 4175POPC   C4A53226  19.134  36.828   7.233
 4175POPC   C1B53227  18.754  36.477   6.155
 4175POPC   C2B53228  18.666  36.390   6.574
 4175POPC   C3B53229  18.782  36.590   6.919
 4175POPC   C4B53230  18.859  36.389   7.240
 4176POPC   NC353231  38.029  32.450   5.374
 4176POPC   PO453232  37.389  32.251   5.309
 4176POPC   GL153233  37.654  32.338   5.710
 4176POPC   GL253234  37.651  31.995   5.880
 4176POPC   C1A53235  37.824  32.416   6.146
 4176POPC   D2A53236  37.752  32.253   6.552
 4176POPC   C3A53237  37.744  32.456   6.944
 4176POPC   C4A53238  37.918  32.079   7.151
 4176POPC   C1B53239  37.307  31.859   6.185
 4176POPC   C2B53240  37.349  31.860   6.584
 4176POPC   C3B53241  37.444  32.049   6.935
 4176POPC   C4B53242  37.436  31.860   7.329
 4177POPC   NC353243  14.880  12.260   5.435
 4177POPC   PO453244  14.185  12.207   5.446
 4177POPC   GL153245  14.484  12.232   5.762
 4177POPC   GL253246  14.571  11.931   5.784
 4177POPC   C1A53247  14.555  12.255   6.207
 4177POPC   D2A53248  14.424  12.018   6.567
 4177POPC   C3A53249  14.348  12.179   6.950
 4177POPC   C4A53250  14.581  12.077   7.324
 4177POPC   C1B53251  14.304  11.763   6.143
 4177POPC   C2B53252  14.208  11.558   6.528
 4177POPC   C3B53253  14.307  11.647   6.923
 4177POPC   C4B53254  14.167  11.816   7.257
 4178POPC   NC353255   2.428   0.089   5.418
 4178POPC   PO453256   2.822  44.523   5.287
 4178POPC   GL153257   2.976  44.510   5.678
 4178POPC   GL253258   2.652  44.418   5.795
 4178POPC   C1A53259   3.026  44.659   6.099
 4178POPC   D2A53260   3.164  44.460   6.485
 4178POPC   C3A53261   3.032  44.647   6.894
 4178POPC   C4A53262   2.974  44.565   7.329
 4178POPC   C1B53263   2.654  44.308   6.224
 4178POPC   C2B53264   2.652  44.436   6.625
 4178POPC   C3B53265   2.606  44.279   7.056
 4178POPC   C4B53266   2.354  44.111   7.416
 4179POPC   NC353267   3.312  18.402   5.451
 4179POPC   PO453268   4.027  18.101   5.508
 4179POPC   GL153269   3.848  18.269   5.849
 4179POPC   GL253270   3.531  18.129   5.815
 4179POPC   C1A53271   3.682  18.278   6.275
 4179POPC   D2A53272   3.836  18.110   6.646
 4179POPC   C3A53273   3.682  18.281   6.986
 4179POPC   C4A53274   3.323  18.385   7.081
 4179POPC   C1B53275   3.335  17.922   6.141
 4179POPC   C2B53276   3.293  17.990   6.605
 4179POPC   C3B53277   3.107  17.930   7.024
 4179POPC   C4B53278   3.358  17.971   7.404
 4180POPC   NC353279   9.325  27.231   5.373
 4180POPC   PO453280   9.667  27.791   5.594
 4180POPC   GL153281   9.832  27.704   5.970
 4180POPC   GL253282   9.976  27.400   5.902
 4180POPC   C1A53283   9.601  27.807   6.334
 4180POPC   D2A53284   9.399  27.926   6.678
 4180POPC   C3A53285   9.623  27.792   7.036
 4180POPC   C4A53286  10.025  27.636   7.109
 4180POPC   C1B53287   9.697  27.311   6.290
 4180POPC   C2B53288   9.719  27.365   6.750
 4180POPC   C3B53289   9.935  27.107   7.073
 4180POPC   C4B53290   9.920  27.052   7.522
 4181POPC   NC353291  31.404  32.515   5.153
 4181POPC   PO453292  31.216  32.006   5.518
 4181POPC   GL153293  31.497  32.256   5.760
 4181POPC   GL253294  31.495  32.613   5.649
 4181POPC   C1A53295  31.676  32.101   6.138
 4181POPC   D2A53296  31.720  31.974   6.569
 4181POPC   C3A53297  31.334  32.055   6.808
 4181POPC   C4A53298  31.447  32.013   7.234
 4181POPC   C1B53299  31.445  32.660   6.099
 4181POPC   C2B53300  31.504  32.455   6.496
 4181POPC   C3B53301  31.535  32.490   6.945
 4181POPC   C4B53302  31.199  32.443   7.264
 4182POPC   NC353303   5.936  28.056   4.984
 4182POPC   PO453304   5.758  28.661   5.253
 4182POPC   GL153305   5.713  28.478   5.733
 4182POPC   GL253306   5.955  28.171   5.792
 4182POPC   C1A53307   5.865  28.457   6.203
 4182POPC   D2A53308   6.056  28.344   6.623
 4182POPC   C3A53309   5.882  28.490   7.021
 4182POPC   C4A53310   5.633  28.423   7.385
 4182POPC   C1B53311   6.118  27.962   6.203
 4182POPC   C2B53312   6.263  27.880   6.668
 4182POPC   C3B53313   6.105  28.031   7.108
 4182POPC   C4B53314   6.137  28.367   7.473
 4183POPC   NC353315  36.078  15.647   5.061
 4183POPC   PO453316  36.085  15.091   5.410
 4183POPC   GL153317  36.258  15.009   5.802
 4183POPC   GL253318  36.015  14.740   5.842
 4183POPC   C1A53319  36.325  15.329   6.121
 4183POPC   D2A53320  36.125  15.369   6.514
 4183POPC   C3A53321  36.266  15.161   6.864
 4183POPC   C4A53322  36.160  15.318   7.247
 4183POPC   C1B53323  35.927  14.952   6.229
 4183POPC   C2B53324  35.769  14.979   6.646
 4183POPC   C3B53325  35.744  15.089   7.062
 4183POPC   C4B53326  35.889  14.956   7.469
 4184POPC   NC353327  29.426  28.968   5.094
 4184POPC   PO453328  29.093  29.224   5.649
 4184POPC   GL153329  29.201  29.125   6.015
 4184POPC   GL253330  29.055  28.797   5.937
 4184POPC   C1A53331  29.291  29.229   6.435
 4184POPC   D2A53332  29.447  29.143   6.843
 4184POPC   C3A53333  29.191  29.230   7.160
 4184POPC   C4A53334  29.402  29.529   7.397
 4184POPC   C1B53335  29.324  28.727   6.299
 4184POPC   C2B53336  29.287  28.677   6.712
 4184POPC   C3B53337  29.312  28.707   7.141
 4184POPC   C4B53338  29.058  28.790   7.489
 4185POPC   NC353339  27.839  26.510   5.559
 4185POPC   PO453340  27.175  26.406   5.325
 4185POPC   GL153341  27.326  26.566   5.731
 4185POPC   GL253342  27.609  26.486   6.012
 4185POPC   C1A53343  27.222  26.828   6.071
 4185POPC   D2A53344  27.385  26.778   6.463
 4185POPC   C3A53345  27.264  26.907   6.890
 4185POPC   C4A53346  27.490  27.066   7.270
 4185POPC   C1B53347  27.880  26.752   6.313
 4185POPC   C2B53348  27.795  26.831   6.738
 4185POPC   C3B53349  27.645  26.578   7.046
 4185POPC   C4B53350  27.857  26.690   7.404
 4186POPC   NC353351   6.044  26.540   5.549
 4186POPC   PO453352   5.457  27.050   5.469
 4186POPC   GL153353   5.700  26.860   5.800
 4186POPC   GL253354   6.025  26.989   5.836
 4186POPC   C1A53355   5.718  27.033   6.231
 4186POPC   D2A53356   5.944  26.954   6.620
 4186POPC   C3A53357   5.776  27.025   7.018
 4186POPC   C4A53358   5.653  26.710   7.304
 4186POPC   C1B53359   6.201  26.783   6.187
 4186POPC   C2B53360   6.225  26.502   6.541
 4186POPC   C3B53361   6.368  26.568   6.924
 4186POPC   C4B53362   6.228  26.875   7.180
 4187POPC   NC353363   0.171  10.784   5.512
 4187POPC   PO453364   0.745  10.470   5.394
 4187POPC   GL153365   0.531  10.520   5.755
 4187POPC   GL253366   0.678  10.260   5.928
 4187POPC   C1A53367   0.226  10.418   6.121
 4187POPC   D2A53368   0.142  10.207   6.528
 4187POPC   C3A53369   0.355  10.370   6.896
 4187POPC   C4A53370   0.172  10.685   7.154
 4187POPC   C1B53371   0.678  10.681   6.195
 4187POPC   C2B53372   0.592  10.759   6.651
 4187POPC   C3B53373   0.695  10.690   7.095
 4187POPC   C4B53374   0.665  10.277   7.337
 4188POPC   NC353375   2.851  40.488   5.453
 4188POPC   PO453376   2.982  41.164   5.277
 4188POPC   GL153377   2.975  40.933   5.686
 4188POPC   GL253378   2.637  41.029   5.836
 4188POPC   C1A53379   3.033  40.767   6.132
 4188POPC   D2A53380   2.860  40.899   6.529
 4188POPC   C3A53381   2.884  40.684   6.943
 4188POPC   C4A53382   2.873  40.812   7.406
 4188POPC   C1B53383   2.426  40.826   6.207
 4188POPC   C2B53384   2.395  40.707   6.652
 4188POPC   C3B53385   2.393  40.682   7.113
 4188POPC   C4B53386   2.056  40.630   7.433
 4189POPC   NC353387   0.677  42.152   5.494
 4189POPC   PO453388   0.578  42.746   5.218
 4189POPC   GL153389   0.493  42.647   5.628
 4189POPC   GL253390   0.146  42.529   5.684
 4189POPC   C1A53391   0.498  42.674   6.088
 4189POPC   D2A53392   0.633  42.408   6.457
 4189POPC   C3A53393   0.676  42.448   6.917
 4189POPC   C4A53394   0.616  42.635   7.346
 4189POPC   C1B53395   0.112  42.352   6.125
 4189POPC   C2B53396   0.090  42.580   6.555
 4189POPC   C3B53397   0.162  42.503   6.995
 4189POPC   C4B53398   0.363  42.174   7.232
 4190POPC   NC353399  27.985  30.803   5.383
 4190POPC   PO453400  28.639  30.589   5.319
 4190POPC   GL153401  28.585  30.633   5.804
 4190POPC   GL253402  28.728  30.961   5.919
 4190POPC   C1A53403  28.217  30.575   6.141
 4190POPC   D2A53404  27.946  30.440   6.513
 4190POPC   C3A53405  28.133  30.567   6.919
 4190POPC   C4A53406  28.505  30.412   7.090
 4190POPC   C1B53407  28.536  30.928   6.301
 4190POPC   C2B53408  28.585  30.788   6.717
 4190POPC   C3B53409  28.533  30.914   7.131
 4190POPC   C4B53410  28.409  31.217   7.433
 4191POPC   NC353411  30.372  22.024   5.455
 4191POPC   PO453412  31.002  22.176   5.404
 4191POPC   GL153413  30.947  22.261   5.808
 4191POPC   GL253414  30.685  22.035   5.855
 4191POPC   C1A53415  30.848  22.275   6.255
 4191POPC   D2A53416  30.610  22.051   6.544
 4191POPC   C3A53417  30.876  22.059   6.913
 4191POPC   C4A53418  30.814  22.396   7.211
 4191POPC   C1B53419  30.825  21.737   6.184
 4191POPC   C2B53420  30.692  21.564   6.624
 4191POPC   C3B53421  30.415  21.756   6.921
 4191POPC   C4B53422  30.517  21.984   7.277
 4192POPC   NC353423  43.088  16.987   5.241
 4192POPC   PO453424  42.905  16.396   5.510
 4192POPC   GL153425  43.070  16.650   5.809
 4192POPC   GL253426  43.343  16.377   5.822
 4192POPC   C1A53427  42.959  16.938   6.172
 4192POPC   D2A53428  42.690  16.969   6.555
 4192POPC   C3A53429  42.901  17.001   6.980
 4192POPC   C4A53430  42.970  16.891   7.441
 4192POPC   C1B53431  43.165  16.382   6.227
 4192POPC   C2B53432  43.160  16.631   6.574
 4192POPC   C3B53433  43.168  16.372   6.942
 4192POPC   C4B53434  43.211  16.442   7.368
 4193POPC   NC353435  21.259  22.072   5.469
 4193POPC   PO453436  21.841  21.644   5.569
 4193POPC   GL153437  21.583  21.936   5.860
 4193POPC   GL253438  21.484  22.328   5.863
 4193POPC   C1A53439  21.488  22.071   6.283
 4193POPC   D2A53440  21.686  22.002   6.621
 4193POPC   C3A53441  21.407  22.017   6.919
 4193POPC   C4A53442  21.487  22.067   7.307
 4193POPC   C1B53443  21.694  22.532   6.272
 4193POPC   C2B53444  21.589  22.498   6.722
 4193POPC   C3B53445  21.317  22.497   7.106
 4193POPC   C4B53446  21.067  22.742   7.407
 4194POPC   NC353447  24.965   1.817   5.457
 4194POPC   PO453448  25.589   1.780   5.448
 4194POPC   GL153449  25.354   1.869   5.799
 4194POPC   GL253450  25.501   2.144   5.897
 4194POPC   C1A53451  25.146   1.800   6.207
 4194POPC   D2A53452  25.286   1.899   6.640
 4194POPC   C3A53453  25.068   1.908   7.040
 4194POPC   C4A53454  25.061   1.586   7.366
 4194POPC   C1B53455  25.620   2.044   6.270
 4194POPC   C2B53456  25.530   2.343   6.575
 4194POPC   C3B53457  25.573   2.182   6.964
 4194POPC   C4B53458  25.397   2.281   7.340
 4195POPC   NC353459  20.144  41.573   5.492
 4195POPC   PO453460  20.760  41.442   5.424
 4195POPC   GL153461  20.824  41.711   5.796
 4195POPC   GL253462  20.938  41.514   6.046
 4195POPC   C1A53463  20.640  41.902   6.193
 4195POPC   D2A53464  20.474  41.836   6.624
 4195POPC   C3A53465  20.670  41.840   7.045
 4195POPC   C4A53466  20.550  41.692   7.470
 4195POPC   C1B53467  20.550  41.406   6.267
 4195POPC   C2B53468  20.410  41.308   6.687
 4195POPC   C3B53469  20.653  41.321   7.101
 4195POPC   C4B53470  20.818  41.258   7.527
 4196POPC   NC353471  25.818  36.876   5.267
 4196POPC   PO453472  26.289  37.191   5.487
 4196POPC   GL153473  25.872  37.132   5.706
 4196POPC   GL253474  25.880  36.779   5.780
 4196POPC   C1A53475  25.760  37.148   6.139
 4196POPC   D2A53476  25.964  37.076   6.528
 4196POPC   C3A53477  25.687  37.046   6.891
 4196POPC   C4A53478  25.846  36.824   7.227
 4196POPC   C1B53479  26.164  36.753   6.152
 4196POPC   C2B53480  26.426  36.794   6.546
 4196POPC   C3B53481  26.310  36.749   6.989
 4196POPC   C4B53482  26.200  36.469   7.353
 4197POPC   NC353483  23.501  12.186   5.364
 4197POPC   PO453484  22.824  12.097   5.197
 4197POPC   GL153485  22.870  12.058   5.666
 4197POPC   GL253486  23.204  12.200   5.789
 4197POPC   C1A53487  22.780  12.170   6.113
 4197POPC   D2A53488  22.886  11.965   6.513
 4197POPC   C3A53489  22.645  11.998   6.905
 4197POPC   C4A53490  22.959  11.876   7.204
 4197POPC   C1B53491  23.292  11.952   6.167
 4197POPC   C2B53492  23.419  12.067   6.587
 4197POPC   C3B53493  23.390  12.165   7.043
 4197POPC   C4B53494  23.134  12.374   7.340
 4198POPC   NC353495  34.032  26.138   5.459
 4198POPC   PO453496  33.440  25.719   5.287
 4198POPC   GL153497  33.535  25.754   5.732
 4198POPC   GL253498  33.269  25.963   5.809
 4198POPC   C1A53499  33.829  25.895   6.088
 4198POPC   D2A53500  34.090  25.997   6.449
 4198POPC   C3A53501  33.898  25.912   6.857
 4198POPC   C4A53502  33.921  25.948   7.338
 4198POPC   C1B53503  33.338  26.007   6.237
 4198POPC   C2B53504  33.437  25.783   6.616
 4198POPC   C3B53505  33.414  25.816   7.066
 4198POPC   C4B53506  33.469  25.735   7.514
 4199POPC   NC353507   6.034  25.308   5.394
 4199POPC   PO453508   5.428  25.582   5.307
 4199POPC   GL153509   5.626  25.396   5.729
 4199POPC   GL253510   5.851  25.084   5.803
 4199POPC   C1A53511   5.757  25.388   6.201
 4199POPC   D2A53512   5.582  25.417   6.621
 4199POPC   C3A53513   5.818  25.284   6.973
 4199POPC   C4A53514   5.773  25.386   7.386
 4199POPC   C1B53515   6.135  25.009   6.157
 4199POPC   C2B53516   6.114  25.079   6.606
 4199POPC   C3B53517   6.232  24.919   7.018
 4199POPC   C4B53518   6.502  25.110   7.309
 4200POPC   NC353519   2.268  36.054   5.461
 4200POPC   PO453520   1.632  36.262   5.391
 4200POPC   GL153521   1.761  36.256   5.817
 4200POPC   GL253522   2.118  36.324   5.878
 4200POPC   C1A53523   1.800  35.929   6.147
 4200POPC   D2A53524   1.942  35.871   6.587
 4200POPC   C3A53525   1.900  36.271   6.834
 4200POPC   C4A53526   1.604  36.469   7.140
 4200POPC   C1B53527   2.294  35.993   6.190
 4200POPC   C2B53528   2.442  35.819   6.607
 4200POPC   C3B53529   2.257  35.960   7.025
 4200POPC   C4B53530   2.128  35.835   7.457
 4201POPC   NC353531  12.428  36.800   5.462
 4201POPC   PO453532  11.903  37.045   5.383
 4201POPC   GL153533  12.040  36.903   5.786
 4201POPC   GL253534  12.070  37.188   5.959
 4201POPC   C1A53535  12.013  36.647   6.167
 4201POPC   D2A53536  11.880  36.537   6.590
 4201POPC   C3A53537  11.917  36.922   6.828
 4201POPC   C4A53538  12.028  36.967   7.238
 4201POPC   C1B53539  12.154  37.163   6.403
 4201POPC   C2B53540  12.031  37.440   6.753
 4201POPC   C3B53541  11.792  37.419   7.133
 4201POPC   C4B53542  11.906  37.378   7.570
 4202POPC   NC353543  37.479  29.202   5.483
 4202POPC   PO453544  38.137  29.316   5.417
 4202POPC   GL153545  38.033  29.130   5.821
 4202POPC   GL253546  37.768  29.339   5.867
 4202POPC   C1A53547  37.804  28.955   6.211
 4202POPC   D2A53548  37.484  28.748   6.491
 4202POPC   C3A53549  37.580  28.860   6.939
 4202POPC   C4A53550  37.866  29.015   7.259
 4202POPC   C1B53551  37.414  29.306   6.159
 4202POPC   C2B53552  37.545  29.256   6.569
 4202POPC   C3B53553  37.689  29.362   6.940
 4202POPC   C4B53554  37.403  29.259   7.261
 4203POPC   NC353555   1.615   3.130   5.628
 4203POPC   PO453556   1.165   2.556   5.537
 4203POPC   GL153557   1.311   2.787   5.898
 4203POPC   GL253558   1.334   2.471   6.002
 4203POPC   C1A53559   1.332   2.840   6.373
 4203POPC   D2A53560   1.226   2.998   6.798
 4203POPC   C3A53561   1.026   2.828   7.194
 4203POPC   C4A53562   1.472   2.900   7.289
 4203POPC   C1B53563   1.030   2.428   6.319
 4203POPC   C2B53564   0.990   2.532   6.757
 4203POPC   C3B53565   0.809   2.326   7.134
 4203POPC   C4B53566   0.916   2.412   7.603
 4204POPC   NC353567  35.955  16.502   5.525
 4204POPC   PO453568  36.436  16.821   5.259
 4204POPC   GL153569  36.351  17.040   5.773
 4204POPC   GL253570  35.990  17.007   5.830
 4204POPC   C1A53571  36.234  16.917   6.274
 4204POPC   D2A53572  36.070  16.939   6.734
 4204POPC   C3A53573  36.221  16.620   7.067
 4204POPC   C4A53574  36.405  16.175   7.086
 4204POPC   C1B53575  35.730  16.876   6.193
 4204POPC   C2B53576  35.612  16.680   6.569
 4204POPC   C3B53577  35.686  16.621   6.985
 4204POPC   C4B53578  35.838  16.703   7.395
 4205POPC   NC353579   7.620  27.306   5.299
 4205POPC   PO453580   6.989  27.561   5.443
 4205POPC   GL153581   7.320  27.511   5.761
 4205POPC   GL253582   7.665  27.580   5.754
 4205POPC   C1A53583   7.325  27.342   6.207
 4205POPC   D2A53584   7.642  27.453   6.566
 4205POPC   C3A53585   7.435  27.414   6.975
 4205POPC   C4A53586   7.043  27.491   7.171
 4205POPC   C1B53587   7.547  27.792   6.163
 4205POPC   C2B53588   7.252  27.792   6.544
 4205POPC   C3B53589   7.366  27.911   6.969
 4205POPC   C4B53590   7.494  27.762   7.384
 4206POPC   NC353591  29.772  37.610   5.124
 4206POPC   PO453592  30.216  37.918   5.578
 4206POPC   GL153593  30.018  37.627   5.813
 4206POPC   GL253594  29.711  37.734   5.676
 4206POPC   C1A53595  30.057  37.675   6.248
 4206POPC   D2A53596  29.832  37.578   6.567
 4206POPC   C3A53597  30.047  37.606   6.902
 4206POPC   C4A53598  30.051  37.332   7.238
 4206POPC   C1B53599  29.783  38.048   6.048
 4206POPC   C2B53600  29.715  38.125   6.493
 4206POPC   C3B53601  29.626  37.938   6.882
 4206POPC   C4B53602  29.771  37.774   7.276
 4207POPC   NC353603  10.120  36.735   5.496
 4207POPC   PO453604   9.547  37.128   5.304
 4207POPC   GL153605   9.798  37.117   5.672
 4207POPC   GL253606   9.696  36.792   5.824
 4207POPC   C1A53607   9.924  37.168   6.114
 4207POPC   D2A53608   9.809  36.874   6.452
 4207POPC   C3A53609   9.785  37.007   6.895
 4207POPC   C4A53610   9.500  36.992   7.224
 4207POPC   C1B53611   9.457  36.566   6.203
 4207POPC   C2B53612   9.294  36.409   6.609
 4207POPC   C3B53613   9.307  36.541   7.040
 4207POPC   C4B53614   9.333  36.478   7.479
 4208POPC   NC353615  17.181  35.985   5.429
 4208POPC   PO453616  17.830  35.957   5.458
 4208POPC   GL153617  17.550  35.899   5.812
 4208POPC   GL253618  17.415  36.246   5.832
 4208POPC   C1A53619  17.278  35.825   6.174
 4208POPC   D2A53620  17.406  35.746   6.618
 4208POPC   C3A53621  17.301  35.946   7.020
 4208POPC   C4A53622  17.308  36.306   7.280
 4208POPC   C1B53623  17.615  36.217   6.248
 4208POPC   C2B53624  17.702  36.161   6.699
 4208POPC   C3B53625  17.832  36.030   7.091
 4208POPC   C4B53626  17.846  35.636   7.255
 4209POPC   NC353627  38.553  27.799   5.327
 4209POPC   PO453628  38.045  27.425   5.303
 4209POPC   GL153629  38.301  27.499   5.702
 4209POPC   GL253630  38.358  27.878   5.805
 4209POPC   C1A53631  38.216  27.542   6.171
 4209POPC   D2A53632  38.332  27.590   6.618
 4209POPC   C3A53633  38.498  27.314   6.945
 4209POPC   C4A53634  38.347  27.452   7.357
 4209POPC   C1B53635  38.457  27.998   6.249
 4209POPC   C2B53636  38.695  27.997   6.643
 4209POPC   C3B53637  38.509  27.846   7.048
 4209POPC   C4B53638  38.572  27.893   7.505
 4210POPC   NC353639  35.823   5.251   4.983
 4210POPC   PO453640  36.258   5.149   5.481
 4210POPC   GL153641  36.130   5.091   5.889
 4210POPC   GL253642  35.820   4.967   5.836
 4210POPC   C1A53643  36.116   4.890   6.273
 4210POPC   D2A53644  36.204   5.074   6.640
 4210POPC   C3A53645  35.999   4.916   6.990
 4210POPC   C4A53646  36.214   4.944   7.375
 4210POPC   C1B53647  35.717   5.239   6.197
 4210POPC   C2B53648  35.699   5.266   6.660
 4210POPC   C3B53649  35.671   5.364   7.098
 4210POPC   C4B53650  35.695   5.045   7.413
 4211POPC   NC353651  36.060  24.258   5.401
 4211POPC   PO453652  35.871  24.914   5.367
 4211POPC   GL153653  36.060  24.698   5.733
 4211POPC   GL253654  36.374  24.483   5.727
 4211POPC   C1A53655  36.053  24.580   6.183
 4211POPC   D2A53656  36.329  24.642   6.540
 4211POPC   C3A53657  36.087  24.853   6.856
 4211POPC   C4A53658  35.910  24.627   7.202
 4211POPC   C1B53659  36.308  24.159   6.066
 4211POPC   C2B53660  36.101  24.123   6.485
 4211POPC   C3B53661  36.224  24.277   6.884
 4211POPC   C4B53662  36.218  24.203   7.310
 4212POPC   NC353663  30.366  23.618   5.553
 4212POPC   PO453664  29.974  23.171   5.214
 4212POPC   GL153665  29.798  23.434   5.657
 4212POPC   GL253666  29.555  23.707   5.724
 4212POPC   C1A53667  29.932  23.657   6.084
 4212POPC   D2A53668  30.127  23.876   6.463
 4212POPC   C3A53669  30.028  23.764   6.907
 4212POPC   C4A53670  30.167  23.968   7.290
 4212POPC   C1B53671  29.566  23.996   6.109
 4212POPC   C2B53672  29.622  23.811   6.527
 4212POPC   C3B53673  29.578  24.049   6.905
 4212POPC   C4B53674  29.647  23.943   7.307
 4213POPC   NC353675  34.292  14.150   5.120
 4213POPC   PO453676  33.780  14.595   5.167
 4213POPC   GL153677  33.925  14.410   5.550
 4213POPC   GL253678  33.935  14.710   5.775
 4213POPC   C1A53679  33.841  14.246   5.968
 4213POPC   D2A53680  34.103  14.325   6.336
 4213POPC   C3A53681  34.051  14.145   6.741
 4213POPC   C4A53682  33.886  14.155   7.149
 4213POPC   C1B53683  33.896  14.785   6.237
 4213POPC   C2B53684  33.930  14.664   6.700
 4213POPC   C3B53685  33.808  14.673   7.143
 4213POPC   C4B53686  34.015  14.613   7.550
 4214POPC   NC353687  14.852  34.207   5.455
 4214POPC   PO453688  15.497  34.301   5.594
 4214POPC   GL153689  15.232  34.585   5.803
 4214POPC   GL253690  15.478  34.541   6.060
 4214POPC   C1A53691  14.983  34.594   6.189
 4214POPC   D2A53692  15.192  34.458   6.590
 4214POPC   C3A53693  15.049  34.622   6.963
 4214POPC   C4A53694  14.682  34.616   7.154
 4214POPC   C1B53695  15.421  34.859   6.340
 4214POPC   C2B53696  15.329  35.001   6.747
 4214POPC   C3B53697  15.247  35.040   7.175
 4214POPC   C4B53698  15.016  34.858   7.480
 4215POPC   NC353699  41.316  26.217   4.958
 4215POPC   PO453700  41.773  25.861   5.315
 4215POPC   GL153701  41.629  25.911   5.719
 4215POPC   GL253702  41.844  25.653   5.795
 4215POPC   C1A53703  41.459  25.966   6.141
 4215POPC   D2A53704  41.485  26.288   6.460
 4215POPC   C3A53705  41.344  26.331   6.903
 4215POPC   C4A53706  41.624  26.276   7.262
 4215POPC   C1B53707  41.978  25.918   6.085
 4215POPC   C2B53708  41.859  25.842   6.448
 4215POPC   C3B53709  41.722  25.976   6.835
 4215POPC   C4B53710  41.570  25.748   7.198
 4216POPC   NC353711  22.934  26.070   5.309
 4216POPC   PO453712  22.643  25.571   5.686
 4216POPC   GL153713  23.052  25.789   5.824
 4216POPC   GL253714  23.053  26.141   5.942
 4216POPC   C1A53715  23.335  25.815   6.213
 4216POPC   D2A53716  23.325  26.037   6.567
 4216POPC   C3A53717  23.054  25.846   6.837
 4216POPC   C4A53718  23.211  25.870   7.225
 4216POPC   C1B53719  22.830  25.961   6.325
 4216POPC   C2B53720  22.465  26.116   6.602
 4216POPC   C3B53721  22.476  26.355   6.994
 4216POPC   C4B53722  22.771  26.098   7.186
 4217POPC   NC353723   2.906   9.325   5.594
 4217POPC   PO453724   2.481   9.718   5.205
 4217POPC   GL153725   2.541   9.644   5.734
 4217POPC   GL253726   2.865   9.756   5.893
 4217POPC   C1A53727   2.574   9.572   6.247
 4217POPC   D2A53728   2.845   9.801   6.577
 4217POPC   C3A53729   2.801   9.801   7.025
 4217POPC   C4A53730   2.478   9.590   7.285
 4217POPC   C1B53731   3.111   9.534   6.223
 4217POPC   C2B53732   2.932   9.278   6.566
 4217POPC   C3B53733   2.810   9.298   7.008
 4217POPC   C4B53734   2.804   9.115   7.429
 4218POPC   NC353735  30.196  31.608   5.460
 4218POPC   PO453736  30.027  31.023   5.153
 4218POPC   GL153737  29.974  31.157   5.675
 4218POPC   GL253738  29.891  31.477   5.855
 4218POPC   C1A53739  30.152  31.226   6.164
 4218POPC   D2A53740  29.944  31.465   6.545
 4218POPC   C3A53741  30.076  31.249   6.963
 4218POPC   C4A53742  30.387  31.149   7.314
 4218POPC   C1B53743  29.617  31.725   6.161
 4218POPC   C2B53744  29.480  31.937   6.567
 4218POPC   C3B53745  29.610  31.921   6.993
 4218POPC   C4B53746  29.977  31.717   7.189
 4219POPC   NC353747  27.705  32.623   5.306
 4219POPC   PO453748  27.421  32.024   5.443
 4219POPC   GL153749  27.632  32.259   5.684
 4219POPC   GL253750  27.273  32.420   5.758
 4219POPC   C1A53751  27.903  32.202   6.072
 4219POPC   D2A53752  27.767  31.942   6.455
 4219POPC   C3A53753  27.968  32.008   6.859
 4219POPC   C4A53754  27.826  32.066   7.263
 4219POPC   C1B53755  27.415  32.227   6.147
 4219POPC   C2B53756  27.630  32.426   6.494
 4219POPC   C3B53757  27.518  32.332   6.953
 4219POPC   C4B53758  27.249  32.391   7.359
 4220POPC   NC353759  29.679  21.939   5.489
 4220POPC   PO453760  30.142  22.427   5.388
 4220POPC   GL153761  29.994  22.256   5.782
 4220POPC   GL253762  30.060  21.893   5.819
 4220POPC   C1A53763  29.884  22.301   6.227
 4220POPC   D2A53764  29.962  22.432   6.659
 4220POPC   C3A53765  30.162  22.240   6.992
 4220POPC   C4A53766  29.779  22.277   7.216
 4220POPC   C1B53767  29.903  21.798   6.182
 4220POPC   C2B53768  30.073  21.910   6.558
 4220POPC   C3B53769  29.855  21.844   6.919
 4220POPC   C4B53770  30.034  21.815   7.297
 4221POPC   NC353771   2.369  14.075   5.459
 4221POPC   PO453772   3.051  13.944   5.319
 4221POPC   GL153773   2.719  13.693   5.575
 4221POPC   GL253774   2.775  13.825   5.869
 4221POPC   C1A53775   2.568  13.393   5.963
 4221POPC   D2A53776   2.650  13.404   6.431
 4221POPC   C3A53777   2.405  13.269   6.825
 4221POPC   C4A53778   2.488  13.448   7.260
 4221POPC   C1B53779   2.892  14.022   6.240
 4221POPC   C2B53780   2.874  14.184   6.638
 4221POPC   C3B53781   2.896  14.068   7.037
 4221POPC   C4B53782   2.680  14.161   7.376
 4222POPC   NC353783  15.560  25.440   5.542
 4222POPC   PO453784  15.919  24.936   5.177
 4222POPC   GL153785  16.040  25.170   5.593
 4222POPC   GL253786  16.307  24.993   5.809
 4222POPC   C1A53787  16.079  25.432   6.000
 4222POPC   D2A53788  15.748  25.351   6.340
 4222POPC   C3A53789  15.700  25.394   6.820
 4222POPC   C4A53790  15.710  25.098   7.136
 4222POPC   C1B53791  16.132  24.997   6.250
 4222POPC   C2B53792  16.119  25.133   6.685
 4222POPC   C3B53793  16.212  25.231   7.123
 4222POPC   C4B53794  16.338  24.923   7.438
 4223POPC   NC353795  17.130  38.373   5.158
 4223POPC   PO453796  16.622  38.686   5.410
 4223POPC   GL153797  16.876  38.501   5.699
 4223POPC   GL253798  16.659  38.186   5.682
 4223POPC   C1A53799  16.989  38.608   6.138
 4223POPC   D2A53800  17.112  38.360   6.518
 4223POPC   C3A53801  16.915  38.523   6.903
 4223POPC   C4A53802  16.951  38.728   7.305
 4223POPC   C1B53803  16.743  38.155   6.137
 4223POPC   C2B53804  16.586  38.244   6.558
 4223POPC   C3B53805  16.645  38.070   6.951
 4223POPC   C4B53806  16.528  38.065   7.363
 4224POPC   NC353807  34.134  41.242   5.486
 4224POPC   PO453808  33.758  41.810   5.396
 4224POPC   GL153809  33.900  41.597   5.781
 4224POPC   GL253810  34.239  41.662   5.775
 4224POPC   C1A53811  33.850  41.401   6.198
 4224POPC   D2A53812  33.611  41.587   6.565
 4224POPC   C3A53813  33.755  41.470   6.968
 4224POPC   C4A53814  33.872  41.631   7.366
 4224POPC   C1B53815  34.201  41.815   6.190
 4224POPC   C2B53816  34.123  41.640   6.580
 4224POPC   C3B53817  34.111  41.829   6.955
 4224POPC   C4B53818  34.267  41.965   7.308
 4225POPC   NC353819  22.128   3.501   5.395
 4225POPC   PO453820  21.750   4.031   5.672
 4225POPC   GL153821  21.913   3.620   5.864
 4225POPC   GL253822  22.157   3.299   5.880
 4225POPC   C1A53823  22.091   3.626   6.274
 4225POPC   D2A53824  22.372   3.711   6.615
 4225POPC   C3A53825  22.221   3.556   6.984
 4225POPC   C4A53826  21.846   3.568   7.216
 4225POPC   C1B53827  22.508   3.175   6.192
 4225POPC   C2B53828  22.629   3.278   6.652
 4225POPC   C3B53829  22.592   3.220   7.096
 4225POPC   C4B53830  22.254   3.234   7.398
 4226POPC   NC353831  33.925  22.540   5.329
 4226POPC   PO453832  34.093  21.953   5.405
 4226POPC   GL153833  33.884  22.178   5.762
 4226POPC   GL253834  34.058  22.479   5.809
 4226POPC   C1A53835  33.825  22.010   6.222
 4226POPC   D2A53836  33.913  21.726   6.595
 4226POPC   C3A53837  33.812  21.959   6.982
 4226POPC   C4A53838  33.653  22.380   7.159
 4226POPC   C1B53839  34.129  22.398   6.219
 4226POPC   C2B53840  33.945  22.342   6.649
 4226POPC   C3B53841  34.148  22.317   7.076
 4226POPC   C4B53842  34.038  22.475   7.528
 4227POPC   NC353843   2.044  38.430   5.384
 4227POPC   PO453844   1.540  38.783   5.694
 4227POPC   GL153845   1.826  38.575   5.999
 4227POPC   GL253846   2.029  38.279   5.932
 4227POPC   C1A53847   1.984  38.439   6.416
 4227POPC   D2A53848   2.304  38.503   6.730
 4227POPC   C3A53849   2.083  38.577   7.105
 4227POPC   C4A53850   1.604  38.622   7.115
 4227POPC   C1B53851   2.339  38.059   6.247
 4227POPC   C2B53852   2.433  38.005   6.722
 4227POPC   C3B53853   2.130  38.069   7.062
 4227POPC   C4B53854   1.771  38.206   7.317
 4228POPC   NC353855  38.973  40.236   5.540
 4228POPC   PO453856  38.700  39.753   5.188
 4228POPC   GL153857  39.065  39.726   5.532
 4228POPC   GL253858  39.357  39.879   5.676
 4228POPC   C1A53859  39.131  39.712   6.079
 4228POPC   D2A53860  39.420  39.696   6.488
 4228POPC   C3A53861  39.236  39.856   6.889
 4228POPC   C4A53862  39.057  39.782   7.306
 4228POPC   C1B53863  39.358  40.186   6.058
 4228POPC   C2B53864  39.497  40.207   6.500
 4228POPC   C3B53865  39.487  40.324   6.914
 4228POPC   C4B53866  39.375  40.187   7.318
 4229POPC   NC353867  15.156  24.070   5.270
 4229POPC   PO453868  15.359  23.450   5.222
 4229POPC   GL153869  15.099  23.525   5.636
 4229POPC   GL253870  14.905  23.850   5.714
 4229POPC   C1A53871  14.969  23.476   6.082
 4229POPC   D2A53872  14.792  23.675   6.440
 4229POPC   C3A53873  15.035  23.713   6.846
 4229POPC   C4A53874  15.305  23.513   7.150
 4229POPC   C1B53875  15.092  23.984   6.159
 4229POPC   C2B53876  14.952  24.154   6.598
 4229POPC   C3B53877  14.817  24.146   7.037
 4229POPC   C4B53878  14.947  24.049   7.486
 4230POPC   NC353879  34.638  43.586   5.398
 4230POPC   PO453880  34.395  44.206   5.364
 4230POPC   GL153881  34.370  43.946   5.750
 4230POPC   GL253882  34.111  43.684   5.731
 4230POPC   C1A53883  34.530  43.844   6.184
 4230POPC   D2A53884  34.464  43.982   6.637
 4230POPC   C3A53885  34.804  43.995   6.980
 4230POPC   C4A53886  34.656  44.001   7.422
 4230POPC   C1B53887  34.125  43.514   6.148
 4230POPC   C2B53888  34.340  43.480   6.558
 4230POPC   C3B53889  34.504  43.570   6.991
 4230POPC   C4B53890  34.905  43.569   7.273
 4231POPC   NC353891   3.515  19.090   5.227
 4231POPC   PO453892   3.779  18.533   5.367
 4231POPC   GL153893   3.548  18.680   5.779
 4231POPC   GL253894   3.473  19.026   5.785
 4231POPC   C1A53895   3.397  18.695   6.199
 4231POPC   D2A53896   3.579  18.647   6.612
 4231POPC   C3A53897   3.334  18.871   6.911
 4231POPC   C4A53898   3.580  18.818   7.219
 4231POPC   C1B53899   3.713  19.117   6.213
 4231POPC   C2B53900   3.742  19.129   6.712
 4231POPC   C3B53901   3.581  19.324   7.097
 4231POPC   C4B53902   3.217  19.219   7.322
 4232POPC   NC353903   6.493   3.924   5.504
 4232POPC   PO453904   6.266   3.307   5.504
 4232POPC   GL153905   6.517   3.505   5.790
 4232POPC   GL253906   6.859   3.587   5.704
 4232POPC   C1A53907   6.479   3.579   6.195
 4232POPC   D2A53908   6.261   3.401   6.510
 4232POPC   C3A53909   6.169   3.694   6.819
 4232POPC   C4A53910   6.528   3.603   7.091
 4232POPC   C1B53911   6.945   3.350   6.089
 4232POPC   C2B53912   6.805   3.295   6.519
 4232POPC   C3B53913   6.968   3.391   6.925
 4232POPC   C4B53914   7.011   3.771   7.171
 4233POPC   NC353915  22.557  12.507   5.288
 4233POPC   PO453916  22.097  12.013   5.501
 4233POPC   GL153917  22.265  12.021   5.899
 4233POPC   GL253918  22.391  11.682   5.903
 4233POPC   C1A53919  22.311  12.359   6.243
 4233POPC   D2A53920  22.572  12.420   6.605
 4233POPC   C3A53921  22.358  12.461   7.024
 4233POPC   C4A53922  22.285  12.163   7.370
 4233POPC   C1B53923  22.408  11.880   6.356
 4233POPC   C2B53924  22.154  12.116   6.673
 4233POPC   C3B53925  21.906  12.206   7.050
 4233POPC   C4B53926  21.787  11.883   7.368
 4234POPC   NC353927  40.327  32.330   5.628
 4234POPC   PO453928  39.917  32.003   5.141
 4234POPC   GL153929  39.883  32.021   5.668
 4234POPC   GL253930  40.098  31.978   6.006
 4234POPC   C1A53931  39.615  31.992   6.078
 4234POPC   D2A53932  39.831  31.934   6.510
 4234POPC   C3A53933  39.757  32.251   6.847
 4234POPC   C4A53934  39.858  32.549   7.167
 4234POPC   C1B53935  40.170  32.289   6.278
 4234POPC   C2B53936  40.478  32.383   6.552
 4234POPC   C3B53937  40.344  32.248   6.951
 4234POPC   C4B53938  40.093  32.105   7.253
 4235POPC   NC353939  31.457  23.257   5.384
 4235POPC   PO453940  31.538  23.956   5.326
 4235POPC   GL153941  31.441  23.832   5.738
 4235POPC   GL253942  31.361  23.493   5.861
 4235POPC   C1A53943  31.480  23.966   6.155
 4235POPC   D2A53944  31.465  23.757   6.530
 4235POPC   C3A53945  31.391  23.940   6.923
 4235POPC   C4A53946  31.646  23.967   7.302
 4235POPC   C1B53947  31.700  23.410   6.186
 4235POPC   C2B53948  31.705  23.290   6.616
 4235POPC   C3B53949  31.368  23.403   6.876
 4235POPC   C4B53950  31.534  23.495   7.229
 4236POPC   NC353951  21.976  17.807   4.994
 4236POPC   PO453952  21.969  18.394   5.346
 4236POPC   GL153953  22.132  18.197   5.713
 4236POPC   GL253954  22.352  18.431   5.884
 4236POPC   C1A53955  22.024  18.130   6.153
 4236POPC   D2A53956  21.876  18.269   6.547
 4236POPC   C3A53957  21.892  18.139   6.971
 4236POPC   C4A53958  21.994  18.471   7.266
 4236POPC   C1B53959  22.533  18.070   6.128
 4236POPC   C2B53960  22.356  18.034   6.552
 4236POPC   C3B53961  22.357  18.352   6.881
 4236POPC   C4B53962  22.618  18.421   7.230
 4237POPC   NC353963  25.991  12.350   5.303
 4237POPC   PO453964  25.984  11.786   5.053
 4237POPC   GL153965  26.107  11.970   5.591
 4237POPC   GL253966  26.054  12.318   5.798
 4237POPC   C1A53967  26.226  11.925   6.045
 4237POPC   D2A53968  26.196  12.209   6.403
 4237POPC   C3A53969  26.245  11.939   6.744
 4237POPC   C4A53970  26.164  11.920   7.172
 4237POPC   C1B53971  25.756  12.405   6.136
 4237POPC   C2B53972  25.623  12.432   6.554
 4237POPC   C3B53973  25.892  12.296   6.884
 4237POPC   C4B53974  25.871  12.306   7.332
 4238POPC   NC353975  31.916  15.154   5.683
 4238POPC   PO453976  31.339  14.902   5.370
 4238POPC   GL153977  31.352  15.210   5.725
 4238POPC   GL253978  31.150  15.511   5.803
 4238POPC   C1A53979  31.398  15.232   6.190
 4238POPC   D2A53980  31.692  15.070   6.500
 4238POPC   C3A53981  31.745  15.141   6.931
 4238POPC   C4A53982  31.515  15.211   7.320
 4238POPC   C1B53983  31.182  15.696   6.210
 4238POPC   C2B53984  31.318  15.568   6.606
 4238POPC   C3B53985  31.232  15.274   6.908
 4238POPC   C4B53986  30.963  15.241   7.270
 4239POPC   NC353987  24.615  16.695   5.310
 4239POPC   PO453988  24.922  16.341   5.807
 4239POPC   GL153989  24.717  16.712   5.807
 4239POPC   GL253990  24.345  16.640   5.740
 4239POPC   C1A53991  24.554  16.975   6.116
 4239POPC   D2A53992  24.337  16.881   6.499
 4239POPC   C3A53993  24.539  16.613   6.817
 4239POPC   C4A53994  24.561  16.803   7.233
 4239POPC   C1B53995  24.243  16.478   6.161
 4239POPC   C2B53996  23.975  16.518   6.550
 4239POPC   C3B53997  24.071  16.772   6.929
 4239POPC   C4B53998  24.219  16.434   7.191
 4240POPC   NC353999   0.718  39.590   5.450
 4240POPC   PO454000   0.684  38.894   5.369
 4240POPC   GL154001   0.495  39.176   5.706
 4240POPC   GL254002   0.208  38.990   5.840
 4240POPC   C1A54003   0.558  39.425   6.123
 4240POPC   D2A54004   0.638  39.271   6.561
 4240POPC   C3A54005   0.459  39.427   6.966
 4240POPC   C4A54006   0.572  39.339   7.396
 4240POPC   C1B54007   0.305  38.949   6.284
 4240POPC   C2B54008   0.175  39.050   6.709
 4240POPC   C3B54009   0.126  38.906   7.124
 4240POPC   C4B54010   0.242  38.923   7.536
 4241POPC   NC354011   7.812  15.168   5.351
 4241POPC   PO454012   7.255  15.489   5.091
 4241POPC   GL154013   7.303  15.425   5.573
 4241POPC   GL254014   7.549  15.582   5.768
 4241POPC   C1A54015   7.248  15.284   6.050
 4241POPC   D2A54016   7.131  15.218   6.530
 4241POPC   C3A54017   7.434  15.155   6.854
 4241POPC   C4A54018   7.397  14.933   7.243
 4241POPC   C1B54019   7.749  15.579   6.188
 4241POPC   C2B54020   7.892  15.392   6.604
 4241POPC   C3B54021   7.820  15.568   7.016
 4241POPC   C4B54022   7.456  15.475   7.250
 4242POPC   NC354023  37.432  12.919   5.462
 4242POPC   PO454024  37.989  12.513   5.468
 4242POPC   GL154025  37.750  12.699   5.809
 4242POPC   GL254026  37.590  13.032   5.939
 4242POPC   C1A54027  37.744  12.611   6.230
 4242POPC   D2A54028  37.607  12.874   6.544
 4242POPC   C3A54029  37.555  12.693   6.927
 4242POPC   C4A54030  37.357  12.926   7.208
 4242POPC   C1B54031  37.961  13.106   6.201
 4242POPC   C2B54032  38.139  13.244   6.636
 4242POPC   C3B54033  37.955  13.183   7.080
 4242POPC   C4B54034  37.955  13.250   7.553
 4243POPC   NC354035  26.816  44.941   5.427
 4243POPC   PO454036  26.376  44.412   5.465
 4243POPC   GL154037  26.581  44.672   5.787
 4243POPC   GL254038  26.948  44.594   5.769
 4243POPC   C1A54039  26.576  44.559   6.231
 4243POPC   D2A54040  26.681  44.233   6.574
 4243POPC   C3A54041  26.474  44.395   6.965
 4243POPC   C4A54042  26.604  44.832   6.987
 4243POPC   C1B54043  27.070  44.484   6.183
 4243POPC   C2B54044  26.996  44.685   6.553
 4243POPC   C3B54045  26.976  44.510   6.946
 4243POPC   C4B54046  27.026  44.595   7.378
 4244POPC   NC354047  44.733  24.589   5.373
 4244POPC   PO454048  44.509  24.007   5.447
 4244POPC   GL154049  44.672  24.305   5.800
 4244POPC   GL254050  44.933  24.602   5.840
 4244POPC   C1A54051  44.737  24.365   6.267
 4244POPC   D2A54052  44.970  24.205   6.642
 4244POPC   C3A54053  44.797  24.343   7.053
 4244POPC   C4A54054  44.501  24.691   7.145
 4244POPC   C1B54055   0.013  24.789   6.263
 4244POPC   C2B54056  44.875  24.704   6.692
 4244POPC   C3B54057   0.011  24.805   7.112
 4244POPC   C4B54058   0.297  24.632   7.435
 4245POPC   NC354059   3.615  36.517   5.569
 4245POPC   PO454060   3.348  36.003   5.145
 4245POPC   GL154061   3.389  36.067   5.605
 4245POPC   GL254062   3.753  36.052   5.732
 4245POPC   C1A54063   3.323  36.080   6.069
 4245POPC   D2A54064   3.399  36.240   6.487
 4245POPC   C3A54065   3.318  36.043   6.861
 4245POPC   C4A54066   3.135  36.167   7.240
 4245POPC   C1B54067   3.821  36.239   6.154
 4245POPC   C2B54068   3.868  36.458   6.547
 4245POPC   C3B54069   3.711  36.391   6.963
 4245POPC   C4B54070   3.618  36.066   7.273
 4246POPC   NC354071  32.487   8.823   5.476
 4246POPC   PO454072  32.147   9.460   5.354
 4246POPC   GL154073  32.148   9.294   5.758
 4246POPC   GL254074  32.478   9.183   5.861
 4246POPC   C1A54075  32.055   9.068   6.161
 4246POPC   D2A54076  31.812   8.951   6.534
 4246POPC   C3A54077  32.084   8.938   6.864
 4246POPC   C4A54078  32.265   8.819   7.227
 4246POPC   C1B54079  32.501   9.271   6.295
 4246POPC   C2B54080  32.597   9.036   6.642
 4246POPC   C3B54081  32.516   9.226   6.999
 4246POPC   C4B54082  32.497   9.234   7.417
 4247POPC   NC354083   4.811  38.031   5.423
 4247POPC   PO454084   5.072  38.698   5.483
 4247POPC   GL154085   4.908  38.661   5.864
 4247POPC   GL254086   4.947  38.316   5.829
 4247POPC   C1A54087   5.126  38.629   6.261
 4247POPC   D2A54088   5.196  38.865   6.623
 4247POPC   C3A54089   5.185  38.609   6.973
 4247POPC   C4A54090   5.000  38.575   7.339
 4247POPC   C1B54091   5.090  38.065   6.173
 4247POPC   C2B54092   5.219  38.108   6.602
 4247POPC   C3B54093   5.036  38.135   7.006
 4247POPC   C4B54094   5.228  38.130   7.403
 4248POPC   NC354095  34.476   9.668   5.293
 4248POPC   PO454096  34.926  10.075   5.606
 4248POPC   GL154097  34.610   9.910   5.905
 4248POPC   GL254098  34.338   9.675   5.809
 4248POPC   C1A54099  34.493   9.792   6.328
 4248POPC   D2A54100  34.784   9.560   6.565
 4248POPC   C3A54101  34.989   9.743   6.875
 4248POPC   C4A54102  34.808   9.699   7.243
 4248POPC   C1B54103  34.197   9.372   6.115
 4248POPC   C2B54104  34.128   9.447   6.550
 4248POPC   C3B54105  34.362   9.706   6.830
 4248POPC   C4B54106  34.301   9.560   7.217
 4249POPC   NC354107  39.571  30.546   5.340
 4249POPC   PO454108  39.061  30.818   5.624
 4249POPC   GL154109  39.400  30.728   5.818
 4249POPC   GL254110  39.555  31.066   5.899
 4249POPC   C1A54111  39.383  30.484   6.181
 4249POPC   D2A54112  39.130  30.619   6.538
 4249POPC   C3A54113  39.265  30.592   6.954
 4249POPC   C4A54114  38.956  30.687   7.260
 4249POPC   C1B54115  39.264  31.021   6.252
 4249POPC   C2B54116  39.339  31.067   6.708
 4249POPC   C3B54117  39.315  31.066   7.159
 4249POPC   C4B54118  39.463  30.822   7.490
 4250POPC   NC354119  31.239  27.035   5.534
 4250POPC   PO454120  31.784  26.814   5.301
 4250POPC   GL154121  31.687  26.823   5.796
 4250POPC   GL254122  31.354  26.708   5.883
 4250POPC   C1A54123  31.678  26.585   6.241
 4250POPC   D2A54124  32.017  26.448   6.516
 4250POPC   C3A54125  31.956  26.666   6.908
 4250POPC   C4A54126  31.660  26.793   7.238
 4250POPC   C1B54127  31.374  27.019   6.202
 4250POPC   C2B54128  31.493  26.919   6.613
 4250POPC   C3B54129  31.556  27.188   6.932
 4250POPC   C4B54130  31.311  27.196   7.308
 4251POPC   NC354131  11.213   9.131   5.329
 4251POPC   PO454132  11.684   8.625   5.354
 4251POPC   GL154133  11.482   8.846   5.722
 4251POPC   GL254134  11.104   8.852   5.763
 4251POPC   C1A54135  11.445   8.865   6.189
 4251POPC   D2A54136  11.321   9.071   6.600
 4251POPC   C3A54137  11.604   8.998   6.932
 4251POPC   C4A54138  11.616   8.707   7.268
 4251POPC   C1B54139  10.979   9.021   6.175
 4251POPC   C2B54140  10.928   8.746   6.548
 4251POPC   C3B54141  11.056   8.859   7.010
 4251POPC   C4B54142  11.216   9.252   7.191
 4252POPC   NC354143  34.845  14.968   5.279
 4252POPC   PO454144  34.388  15.390   5.193
 4252POPC   GL154145  34.617  15.436   5.659
 4252POPC   GL254146  34.770  15.064   5.771
 4252POPC   C1A54147  34.548  15.340   6.142
 4252POPC   D2A54148  34.631  15.539   6.550
 4252POPC   C3A54149  34.459  15.347   6.938
 4252POPC   C4A54150  34.301  14.972   7.132
 4252POPC   C1B54151  34.869  14.922   6.183
 4252POPC   C2B54152  34.700  15.003   6.603
 4252POPC   C3B54153  34.766  14.802   7.004
 4252POPC   C4B54154  34.842  14.996   7.420
 4253POPC   NC354155  11.772   6.489   5.674
 4253POPC   PO454156  12.097   6.978   5.256
 4253POPC   GL154157  12.219   6.952   5.713
 4253POPC   GL254158  12.236   6.627   5.815
 4253POPC   C1A54159  12.038   6.882   6.186
 4253POPC   D2A54160  11.889   6.589   6.519
 4253POPC   C3A54161  11.898   6.683   6.975
 4253POPC   C4A54162  12.285   6.777   7.171
 4253POPC   C1B54163  12.247   6.381   6.177
 4253POPC   C2B54164  12.159   6.158   6.571
 4253POPC   C3B54165  12.268   6.311   6.947
 4253POPC   C4B54166  12.163   6.258   7.325
 4254POPC   NC354167   6.664  20.092   5.608
 4254POPC   PO454168   6.668  19.515   5.383
 4254POPC   GL154169   6.391  19.690   5.727
 4254POPC   GL254170   6.712  19.654   5.893
 4254POPC   C1A54171   6.409  19.928   6.167
 4254POPC   D2A54172   6.556  20.149   6.541
 4254POPC   C3A54173   6.569  19.946   6.913
 4254POPC   C4A54174   6.429  19.801   7.297
 4254POPC   C1B54175   6.880  19.774   6.315
 4254POPC   C2B54176   6.858  19.542   6.709
 4254POPC   C3B54177   6.921  19.652   7.148
 4254POPC   C4B54178   6.945  20.070   7.252
 4255POPC   NC354179  20.784   7.536   5.507
 4255POPC   PO454180  20.631   8.261   5.326
 4255POPC   GL154181  20.492   8.241   5.762
 4255POPC   GL254182  20.263   7.931   5.743
 4255POPC   C1A54183  20.519   8.372   6.209
 4255POPC   D2A54184  20.477   8.543   6.636
 4255POPC   C3A54185  20.622   8.294   7.003
 4255POPC   C4A54186  20.668   8.358   7.477
 4255POPC   C1B54187  20.503   7.848   6.113
 4255POPC   C2B54188  20.556   7.946   6.545
 4255POPC   C3B54189  20.519   7.765   6.944
 4255POPC   C4B54190  20.704   7.881   7.330
 4256POPC   NC354191   0.890  37.410   5.494
 4256POPC   PO454192   1.420  36.913   5.368
 4256POPC   GL154193   1.349  36.714   5.764
 4256POPC   GL254194   1.095  36.990   5.791
 4256POPC   C1A54195   1.322  36.813   6.214
 4256POPC   D2A54196   1.099  36.575   6.542
 4256POPC   C3A54197   1.117  36.817   6.910
 4256POPC   C4A54198   1.123  36.602   7.283
 4256POPC   C1B54199   1.047  37.280   6.138
 4256POPC   C2B54200   0.913  37.249   6.567
 4256POPC   C3B54201   0.740  37.268   6.993
 4256POPC   C4B54202   0.961  37.160   7.376
 4257POPC   NC354203  17.866   0.936   5.489
 4257POPC   PO454204  18.441   1.387   5.456
 4257POPC   GL154205  18.229   1.254   5.818
 4257POPC   GL254206  17.964   1.466   5.904
 4257POPC   C1A54207  18.411   1.208   6.236
 4257POPC   D2A54208  18.382   1.428   6.655
 4257POPC   C3A54209  18.600   1.214   6.965
 4257POPC   C4A54210  18.588   0.840   7.208
 4257POPC   C1B54211  18.031   1.525   6.300
 4257POPC   C2B54212  17.974   1.117   6.507
 4257POPC   C3B54213  18.142   0.997   6.906
 4257POPC   C4B54214  18.173   1.272   7.266
 4258POPC   NC354215   1.434   4.051   5.428
 4258POPC   PO454216   0.711   4.104   5.306
 4258POPC   GL154217   0.970   4.096   5.754
 4258POPC   GL254218   1.204   4.365   5.760
 4258POPC   C1A54219   0.906   4.271   6.241
 4258POPC   D2A54220   0.904   4.390   6.713
 4258POPC   C3A54221   1.057   4.213   7.074
 4258POPC   C4A54222   1.203   4.517   7.326
 4258POPC   C1B54223   1.391   4.178   6.115
 4258POPC   C2B54224   1.420   4.341   6.534
 4258POPC   C3B54225   1.515   4.443   6.936
 4258POPC   C4B54226   1.622   4.229   7.329
 4259POPC   NC354227  10.281  15.678   5.451
 4259POPC   PO454228  10.427  16.333   5.440
 4259POPC   GL154229  10.438  16.061   5.836
 4259POPC   GL254230  10.274  15.754   5.948
 4259POPC   C1A54231  10.460  16.082   6.305
 4259POPC   D2A54232  10.295  16.320   6.660
 4259POPC   C3A54233  10.476  16.129   7.013
 4259POPC   C4A54234  10.349  16.019   7.438
 4259POPC   C1B54235  10.687  15.632   6.137
 4259POPC   C2B54236  10.681  15.661   6.548
 4259POPC   C3B54237  10.334  15.694   6.788
 4259POPC   C4B54238  10.508  15.642   7.172
 4260POPC   NC354239  41.627  31.937   5.210
 4260POPC   PO454240  41.549  32.571   5.581
 4260POPC   GL154241  41.559  32.106   5.702
 4260POPC   GL254242  41.271  31.876   5.703
 4260POPC   C1A54243  41.759  31.949   6.067
 4260POPC   D2A54244  41.648  32.189   6.455
 4260POPC   C3A54245  41.847  32.039   6.830
 4260POPC   C4A54246  41.808  32.201   7.230
 4260POPC   C1B54247  41.241  32.008   6.145
 4260POPC   C2B54248  41.129  32.082   6.569
 4260POPC   C3B54249  41.346  32.260   6.919
 4260POPC   C4B54250  41.278  32.035   7.273
 4261POPC   NC354251   2.556  10.897   5.509
 4261POPC   PO454252   3.125  11.305   5.433
 4261POPC   GL154253   2.813  11.312   5.773
 4261POPC   GL254254   2.815  10.980   5.943
 4261POPC   C1A54255   2.666  11.393   6.197
 4261POPC   D2A54256   2.663  11.150   6.566
 4261POPC   C3A54257   2.697  11.405   6.945
 4261POPC   C4A54258   2.815  11.470   7.376
 4261POPC   C1B54259   2.370  10.950   6.144
 4261POPC   C2B54260   2.232  10.820   6.556
 4261POPC   C3B54261   2.359  10.981   6.960
 4261POPC   C4B54262   2.358  11.147   7.376
 4262POPC   NC354263  12.872   5.618   5.555
 4262POPC   PO454264  12.539   6.124   5.531
 4262POPC   GL154265  12.660   5.939   5.907
 4262POPC   GL254266  12.566   5.549   5.957
 4262POPC   C1A54267  12.689   6.131   6.309
 4262POPC   D2A54268  12.628   6.030   6.725
 4262POPC   C3A54269  12.865   6.034   7.091
 4262POPC   C4A54270  12.709   5.667   7.259
 4262POPC   C1B54271  12.839   5.650   6.317
 4262POPC   C2B54272  13.087   5.777   6.710
 4262POPC   C3B54273  13.263   5.612   7.117
 4262POPC   C4B54274  13.587   5.756   7.444
 4263POPC   NC354275  39.089   9.952   5.462
 4263POPC   PO454276  39.306   9.314   5.428
 4263POPC   GL154277  39.256   9.545   5.805
 4263POPC   GL254278  38.963   9.378   5.890
 4263POPC   C1A54279  39.188   9.871   6.140
 4263POPC   D2A54280  39.173  10.172   6.502
 4263POPC   C3A54281  39.264   9.973   6.917
 4263POPC   C4A54282  39.570   9.912   7.260
 4263POPC   C1B54283  39.152   9.318   6.310
 4263POPC   C2B54284  39.204   9.295   6.794
 4263POPC   C3B54285  39.258   9.469   7.240
 4263POPC   C4B54286  39.080   9.330   7.690
 4264POPC   NC354287  10.811  23.010   5.258
 4264POPC   PO454288  10.487  22.498   5.562
 4264POPC   GL154289  10.465  22.841   5.826
 4264POPC   GL254290  10.417  23.171   5.679
 4264POPC   C1A54291  10.401  22.757   6.267
 4264POPC   D2A54292  10.632  22.715   6.639
 4264POPC   C3A54293  10.398  22.743   7.024
 4264POPC   C4A54294  10.362  22.711   7.470
 4264POPC   C1B54295  10.540  23.236   6.131
 4264POPC   C2B54296  10.380  23.171   6.562
 4264POPC   C3B54297  10.526  23.221   6.979
 4264POPC   C4B54298  10.319  23.221   7.376
 4265POPC   NC354299  19.496  19.317   5.128
 4265POPC   PO454300  20.016  19.048   5.472
 4265POPC   GL154301  20.028  19.054   5.882
 4265POPC   GL254302  19.683  19.145   5.859
 4265POPC   C1A54303  20.128  19.025   6.320
 4265POPC   D2A54304  20.101  19.288   6.646
 4265POPC   C3A54305  20.033  19.135   7.011
 4265POPC   C4A54306  20.166  19.438   7.315
 4265POPC   C1B54307  19.628  18.938   6.223
 4265POPC   C2B54308  19.718  18.932   6.656
 4265POPC   C3B54309  19.542  18.905   7.092
 4265POPC   C4B54310  19.779  19.120   7.438
 4266POPC   NC354311  37.974  24.584   5.236
 4266POPC   PO454312  37.408  24.254   5.324
 4266POPC   GL154313  37.538  24.342   5.753
 4266POPC   GL254314  37.863  24.526   5.742
 4266POPC   C1A54315  37.710  24.356   6.180
 4266POPC   D2A54316  37.635  24.599   6.518
 4266POPC   C3A54317  37.459  24.445   6.881
 4266POPC   C4A54318  37.699  24.377   7.253
 4266POPC   C1B54319  37.870  24.834   6.102
 4266POPC   C2B54320  37.921  25.018   6.523
 4266POPC   C3B54321  37.828  24.855   6.956
 4266POPC   C4B54322  38.042  24.745   7.367
 4267POPC   NC354323  27.697  33.281   5.517
 4267POPC   PO454324  27.653  33.961   5.439
 4267POPC   GL154325  27.611  33.892   5.878
 4267POPC   GL254326  27.536  33.548   5.916
 4267POPC   C1A54327  27.826  34.042   6.285
 4267POPC   D2A54328  27.863  33.972   6.707
 4267POPC   C3A54329  27.552  33.711   6.930
 4267POPC   C4A54330  27.384  33.596   7.353
 4267POPC   C1B54331  27.894  33.551   6.168
 4267POPC   C2B54332  27.886  33.405   6.573
 4267POPC   C3B54333  28.025  33.547   6.948
 4267POPC   C4B54334  27.874  33.550   7.341
 4268POPC   NC354335   8.113  17.888   5.568
 4268POPC   PO454336   7.916  18.412   5.181
 4268POPC   GL154337   8.159  18.391   5.642
 4268POPC   GL254338   8.513  18.401   5.685
 4268POPC   C1A54339   8.089  18.394   6.095
 4268POPC   D2A54340   7.946  18.527   6.509
 4268POPC   C3A54341   8.107  18.610   6.936
 4268POPC   C4A54342   8.013  18.351   7.322
 4268POPC   C1B54343   8.566  18.236   6.139
 4268POPC   C2B54344   8.474  18.337   6.597
 4268POPC   C3B54345   8.322  18.135   6.987
 4268POPC   C4B54346   8.423  18.072   7.464
 4269POPC   NC354347  11.829   1.040   5.586
 4269POPC   PO454348  12.384   0.602   5.599
 4269POPC   GL154349  12.302   1.040   5.823
 4269POPC   GL254350  12.084   1.398   5.826
 4269POPC   C1A54351  12.104   1.072   6.237
 4269POPC   D2A54352  11.901   1.131   6.639
 4269POPC   C3A54353  12.068   1.087   7.028
 4269POPC   C4A54354  11.820   0.970   7.383
 4269POPC   C1B54355  12.287   1.546   6.192
 4269POPC   C2B54356  12.249   1.515   6.621
 4269POPC   C3B54357  12.029   1.590   6.964
 4269POPC   C4B54358  11.831   1.472   7.316
 4270POPC   NC354359  44.909  30.176   5.459
 4270POPC   PO454360  44.617  29.636   5.257
 4270POPC   GL154361  44.583  29.806   5.677
 4270POPC   GL254362  44.905  29.797   5.790
 4270POPC   C1A54363  44.502  30.116   6.035
 4270POPC   D2A54364  44.648  30.248   6.471
 4270POPC   C3A54365  44.393  30.118   6.784
 4270POPC   C4A54366  44.389  30.018   7.193
 4270POPC   C1B54367  44.784  29.725   6.209
 4270POPC   C2B54368  44.720  29.736   6.655
 4270POPC   C3B54369  44.875  29.910   7.031
 4270POPC   C4B54370   0.041  29.691   7.389
 4271POPC   NC354371   2.491  11.698   5.543
 4271POPC   PO454372   2.872  12.273   5.434
 4271POPC   GL154373   2.825  12.037   5.781
 4271POPC   GL254374   3.048  11.774   5.675
 4271POPC   C1A54375   2.696  11.900   6.180
 4271POPC   D2A54376   2.559  11.785   6.573
 4271POPC   C3A54377   2.493  12.170   6.789
 4271POPC   C4A54378   2.585  12.218   7.204
 4271POPC   C1B54379   3.134  11.674   6.088
 4271POPC   C2B54380   3.087  11.771   6.526
 4271POPC   C3B54381   2.918  11.880   6.930
 4271POPC   C4B54382   3.035  11.952   7.345
 4272POPC   NC354383  19.733  34.245   5.507
 4272POPC   PO454384  19.752  34.933   5.421
 4272POPC   GL154385  19.975  34.754   5.778
 4272POPC   GL254386  20.003  34.387   5.899
 4272POPC   C1A54387  19.830  34.881   6.175
 4272POPC   D2A54388  19.923  34.998   6.592
 4272POPC   C3A54389  19.716  34.766   6.903
 4272POPC   C4A54390  19.744  34.617   7.318
 4272POPC   C1B54391  20.197  34.528   6.250
 4272POPC   C2B54392  20.039  34.469   6.635
 4272POPC   C3B54393  19.910  34.238   6.992
 4272POPC   C4B54394  20.118  34.253   7.379
 4273POPC   NC354395  19.433  22.355   5.403
 4273POPC   PO454396  19.830  21.821   5.448
 4273POPC   GL154397  19.849  21.947   5.860
 4273POPC   GL254398  20.067  21.691   5.994
 4273POPC   C1A54399  19.620  22.043   6.245
 4273POPC   D2A54400  19.406  21.957   6.637
 4273POPC   C3A54401  19.648  22.006   7.019
 4273POPC   C4A54402  19.818  22.414   7.181
 4273POPC   C1B54403  20.122  22.057   6.278
 4273POPC   C2B54404  19.969  22.186   6.663
 4273POPC   C3B54405  20.169  22.059   7.038
 4273POPC   C4B54406  20.282  22.352   7.366
 4274POPC   NC354407  38.009  25.127   5.475
 4274POPC   PO454408  38.555  25.448   5.357
 4274POPC   GL154409  38.438  25.210   5.729
 4274POPC   GL254410  38.662  24.985   5.920
 4274POPC   C1A54411  38.233  25.174   6.129
 4274POPC   D2A54412  38.474  25.072   6.480
 4274POPC   C3A54413  38.302  25.101   6.873
 4274POPC   C4A54414  38.493  24.953   7.236
 4274POPC   C1B54415  38.667  25.430   6.125
 4274POPC   C2B54416  38.766  25.538   6.541
 4274POPC   C3B54417  38.748  25.350   6.931
 4274POPC   C4B54418  38.547  25.465   7.328
 4275POPC   NC354419  11.328  30.960   5.481
 4275POPC   PO454420  11.895  30.455   5.511
 4275POPC   GL154421  11.543  30.618   5.862
 4275POPC   GL254422  11.184  30.708   5.893
 4275POPC   C1A54423  11.436  31.056   6.135
 4275POPC   D2A54424  11.439  31.130   6.576
 4275POPC   C3A54425  11.568  30.836   6.891
 4275POPC   C4A54426  11.535  30.703   7.327
 4275POPC   C1B54427  11.205  30.673   6.346
 4275POPC   C2B54428  11.070  30.782   6.745
 4275POPC   C3B54429  11.027  30.774   7.191
 4275POPC   C4B54430  11.111  30.664   7.634
 4276POPC   NC354431  25.573  21.533   5.381
 4276POPC   PO454432  24.903  21.481   5.591
 4276POPC   GL154433  25.284  21.528   5.799
 4276POPC   GL254434  25.404  21.164   5.727
 4276POPC   C1A54435  25.598  21.463   6.096
 4276POPC   D2A54436  25.571  21.182   6.435
 4276POPC   C3A54437  25.578  21.372   6.855
 4276POPC   C4A54438  25.412  21.404   7.279
 4276POPC   C1B54439  25.154  21.147   6.141
 4276POPC   C2B54440  25.105  21.308   6.587
 4276POPC   C3B54441  25.081  21.130   7.008
 4276POPC   C4B54442  24.907  21.229   7.424
 4277POPC   NC354443  13.872   3.227   5.522
 4277POPC   PO454444  13.358   3.595   5.416
 4277POPC   GL154445  13.454   3.392   5.807
 4277POPC   GL254446  13.453   3.046   5.783
 4277POPC   C1A54447  13.460   3.422   6.261
 4277POPC   D2A54448  13.291   3.494   6.670
 4277POPC   C3A54449  13.602   3.531   6.985
 4277POPC   C4A54450  13.525   3.718   7.385
 4277POPC   C1B54451  13.789   3.070   6.133
 4277POPC   C2B54452  13.857   3.169   6.564
 4277POPC   C3B54453  13.825   3.055   6.990
 4277POPC   C4B54454  13.911   3.180   7.401
 4278POPC   NC354455  32.295   3.706   5.609
 4278POPC   PO454456  32.797   3.284   5.405
 4278POPC   GL154457  32.566   3.327   5.837
 4278POPC   GL254458  32.186   3.258   5.868
 4278POPC   C1A54459  32.440   3.465   6.251
 4278POPC   D2A54460  32.407   3.718   6.596
 4278POPC   C3A54461  32.318   3.497   6.988
 4278POPC   C4A54462  32.411   3.469   7.429
 4278POPC   C1B54463  31.909   3.235   6.195
 4278POPC   C2B54464  31.930   3.459   6.589
 4278POPC   C3B54465  31.854   3.254   6.972
 4278POPC   C4B54466  31.897   3.496   7.338
 4279POPC   NC354467  10.659  34.243   5.490
 4279POPC   PO454468  10.369  33.574   5.439
 4279POPC   GL154469  10.683  33.692   5.723
 4279POPC   GL254470  10.609  33.399   5.889
 4279POPC   C1A54471  10.647  33.906   6.129
 4279POPC   D2A54472  10.306  34.049   6.412
 4279POPC   C3A54473  10.418  33.981   6.852
 4279POPC   C4A54474  10.778  33.749   7.049
 4279POPC   C1B54475  10.296  33.519   6.195
 4279POPC   C2B54476  10.504  33.566   6.572
 4279POPC   C3B54477  10.367  33.459   6.976
 4279POPC   C4B54478  10.164  33.613   7.336
 4280POPC   NC354479  18.898  34.087   5.407
 4280POPC   PO454480  19.490  33.752   5.311
 4280POPC   GL154481  19.257  33.830   5.711
 4280POPC   GL254482  19.278  34.160   5.796
 4280POPC   C1A54483  19.080  33.646   6.098
 4280POPC   D2A54484  19.115  33.399   6.484
 4280POPC   C3A54485  18.989  33.673   6.836
 4280POPC   C4A54486  18.792  33.670   7.261
 4280POPC   C1B54487  18.958  34.146   6.128
 4280POPC   C2B54488  18.734  34.079   6.546
 4280POPC   C3B54489  18.801  34.136   7.008
 4280POPC   C4B54490  19.114  34.096   7.327
 4281POPC   NC354491  37.190   7.795   5.173
 4281POPC   PO454492  36.753   7.299   5.452
 4281POPC   GL154493  36.918   7.445   5.829
 4281POPC   GL254494  36.701   7.687   5.831
 4281POPC   C1A54495  36.891   7.590   6.283
 4281POPC   D2A54496  37.020   7.428   6.649
 4281POPC   C3A54497  36.924   7.669   6.996
 4281POPC   C4A54498  36.826   7.549   7.393
 4281POPC   C1B54499  36.525   7.292   6.129
 4281POPC   C2B54500  36.619   7.100   6.554
 4281POPC   C3B54501  36.657   7.246   6.995
 4281POPC   C4B54502  36.433   7.215   7.434
 4282POPC   NC354503  21.120  28.973   5.251
 4282POPC   PO454504  21.544  29.528   5.250
 4282POPC   GL154505  21.647  29.242   5.610
 4282POPC   GL254506  21.651  28.874   5.680
 4282POPC   C1A54507  21.722  29.251   6.070
 4282POPC   D2A54508  21.666  29.464   6.493
 4282POPC   C3A54509  21.339  29.314   6.767
 4282POPC   C4A54510  21.259  29.122   7.154
 4282POPC   C1B54511  21.338  28.892   6.074
 4282POPC   C2B54512  21.275  28.790   6.555
 4282POPC   C3B54513  21.528  28.710   6.963
 4282POPC   C4B54514  21.538  28.807   7.437
 4283POPC   NC354515  26.328  33.447   5.511
 4283POPC   PO454516  25.979  33.997   5.175
 4283POPC   GL154517  26.085  33.920   5.620
 4283POPC   GL254518  26.473  33.997   5.667
 4283POPC   C1A54519  25.816  33.877   6.035
 4283POPC   D2A54520  25.642  33.582   6.398
 4283POPC   C3A54521  25.723  33.627   6.875
 4283POPC   C4A54522  25.734  33.999   7.162
 4283POPC   C1B54523  26.262  34.159   6.055
 4283POPC   C2B54524  26.083  33.949   6.453
 4283POPC   C3B54525  26.201  33.959   6.880
 4283POPC   C4B54526  26.132  33.693   7.208
 4284POPC   NC354527   3.066  37.871   5.389
 4284POPC   PO454528   3.648  37.554   5.347
 4284POPC   GL154529   3.610  37.436   5.764
 4284POPC   GL254530   3.239  37.471   5.809
 4284POPC   C1A54531   3.586  37.472   6.223
 4284POPC   D2A54532   3.686  37.800   6.522
 4284POPC   C3A54533   3.475  37.800   6.894
 4284POPC   C4A54534   3.442  37.909   7.329
 4284POPC   C1B54535   3.059  37.447   6.225
 4284POPC   C2B54536   3.174  37.440   6.680
 4284POPC   C3B54537   3.112  37.546   7.129
 4284POPC   C4B54538   3.218  37.520   7.611
 4285POPC   NC354539   7.619  31.567   5.573
 4285POPC   PO454540   6.936  31.444   5.633
 4285POPC   GL154541   7.205  31.579   5.898
 4285POPC   GL254542   7.391  31.254   5.898
 4285POPC   C1A54543   7.253  31.490   6.317
 4285POPC   D2A54544   7.452  31.469   6.693
 4285POPC   C3A54545   7.260  31.470   7.093
 4285POPC   C4A54546   7.396  31.759   7.450
 4285POPC   C1B54547   7.744  31.313   6.221
 4285POPC   C2B54548   7.927  31.315   6.646
 4285POPC   C3B54549   7.793  31.395   7.082
 4285POPC   C4B54550   7.561  31.184   7.399
 4286POPC   NC354551  12.273  26.196   5.372
 4286POPC   PO454552  11.741  25.793   5.309
 4286POPC   GL154553  11.887  26.029   5.698
 4286POPC   GL254554  11.571  25.858   5.787
 4286POPC   C1A54555  12.039  26.233   6.126
 4286POPC   D2A54556  11.993  26.151   6.618
 4286POPC   C3A54557  12.347  26.200   6.935
 4286POPC   C4A54558  12.462  25.941   7.336
 4286POPC   C1B54559  11.763  25.815   6.174
 4286POPC   C2B54560  11.565  25.860   6.551
 4286POPC   C3B54561  11.627  25.897   6.949
 4286POPC   C4B54562  11.991  25.903   7.163
 4287POPC   NC354563  12.407  15.849   5.566
 4287POPC   PO454564  11.928  16.217   5.791
 4287POPC   GL154565  12.187  15.894   6.029
 4287POPC   GL254566  12.341  15.568   5.967
 4287POPC   C1A54567  12.115  15.728   6.418
 4287POPC   D2A54568  11.977  16.094   6.632
 4287POPC   C3A54569  11.795  16.069   7.032
 4287POPC   C4A54570  12.135  16.156   7.293
 4287POPC   C1B54571  12.565  15.408   6.290
 4287POPC   C2B54572  12.497  15.463   6.700
 4287POPC   C3B54573  12.229  15.732   6.941
 4287POPC   C4B54574  12.394  15.741   7.333
 4288POPC   NC354575  24.272  37.419   5.494
 4288POPC   PO454576  24.656  37.965   5.399
 4288POPC   GL154577  24.616  37.716   5.826
 4288POPC   GL254578  24.541  37.347   5.932
 4288POPC   C1A54579  24.448  37.711   6.270
 4288POPC   D2A54580  24.424  37.398   6.635
 4288POPC   C3A54581  24.525  37.652   6.993
 4288POPC   C4A54582  24.469  37.978   7.300
 4288POPC   C1B54583  24.813  37.370   6.290
 4288POPC   C2B54584  24.931  37.401   6.749
 4288POPC   C3B54585  24.712  37.192   7.107
 4288POPC   C4B54586  24.632  37.478   7.472
 4289POPC   NC354587  43.711  27.175   5.312
 4289POPC   PO454588  44.211  26.748   5.384
 4289POPC   GL154589  44.151  26.766   5.844
 4289POPC   GL254590  43.776  26.827   5.898
 4289POPC   C1A54591  44.147  26.775   6.317
 4289POPC   D2A54592  43.929  26.522   6.655
 4289POPC   C3A54593  44.081  26.599   7.055
 4289POPC   C4A54594  43.967  27.017   7.181
 4289POPC   C1B54595  43.538  27.091   6.221
 4289POPC   C2B54596  43.311  27.220   6.628
 4289POPC   C3B54597  43.440  27.092   7.038
 4289POPC   C4B54598  43.584  26.658   7.091
 4290POPC   NC354599  11.507  13.455   5.583
 4290POPC   PO454600  11.261  14.086   5.545
 4290POPC   GL154601  11.427  13.852   5.894
 4290POPC   GL254602  11.171  13.582   5.954
 4290POPC   C1A54603  11.646  13.635   6.258
 4290POPC   D2A54604  11.675  13.510   6.702
 4290POPC   C3A54605  11.654  13.730   7.091
 4290POPC   C4A54606  11.623  13.667   7.565
 4290POPC   C1B54607  11.152  13.872   6.312
 4290POPC   C2B54608  11.213  13.752   6.725
 4290POPC   C3B54609  11.173  13.537   7.093
 4290POPC   C4B54610  11.234  13.873   7.344
 4291POPC   NC354611  15.156   2.249   5.274
 4291POPC   PO454612  15.266   1.595   5.371
 4291POPC   GL154613  15.354   1.950   5.675
 4291POPC   GL254614  15.046   2.152   5.799
 4291POPC   C1A54615  15.437   2.009   6.138
 4291POPC   D2A54616  15.204   1.820   6.502
 4291POPC   C3A54617  15.331   1.881   6.925
 4291POPC   C4A54618  15.460   2.220   7.168
 4291POPC   C1B54619  14.926   2.212   6.269
 4291POPC   C2B54620  14.999   2.240   6.750
 4291POPC   C3B54621  14.942   2.229   7.221
 4291POPC   C4B54622  14.837   2.532   7.571
 4292POPC   NC354623  39.429  35.564   5.386
 4292POPC   PO454624  40.098  35.337   5.355
 4292POPC   GL154625  39.990  35.353   5.807
 4292POPC   GL254626  40.357  35.334   5.879
 4292POPC   C1A54627  39.995  35.484   6.265
 4292POPC   D2A54628  40.224  35.377   6.660
 4292POPC   C3A54629  39.991  35.492   7.039
 4292POPC   C4A54630  40.059  35.586   7.500
 4292POPC   C1B54631  40.313  35.052   6.230
 4292POPC   C2B54632  40.337  34.848   6.630
 4292POPC   C3B54633  40.231  34.988   7.050
 4292POPC   C4B54634  39.951  35.115   7.377
 4293POPC   NC354635  41.068  44.524   5.486
 4293POPC   PO454636  40.534  44.899   5.423
 4293POPC   GL154637  40.674  44.726   5.777
 4293POPC   GL254638  40.955  44.843   5.866
 4293POPC   C1A54639  40.543  44.732   6.206
 4293POPC   D2A54640  40.680  44.731   6.631
 4293POPC   C3A54641  40.393  44.758   6.977
 4293POPC   C4A54642  40.503  44.639   7.381
 4293POPC   C1B54643  41.072  44.647   6.256
 4293POPC   C2B54644  41.176  44.527   6.675
 4293POPC   C3B54645  41.071  44.716   7.062
 4293POPC   C4B54646  40.991  44.736   7.493
 4294POPC   NC354647  34.154  17.468   5.387
 4294POPC   PO454648  33.538  17.688   5.149
 4294POPC   GL154649  33.582  17.588   5.621
 4294POPC   GL254650  33.894  17.485   5.818
 4294POPC   C1A54651  33.506  17.675   6.091
 4294POPC   D2A54652  33.702  17.592   6.501
 4294POPC   C3A54653  33.476  17.687   6.875
 4294POPC   C4A54654  33.577  17.887   7.239
 4294POPC   C1B54655  34.101  17.311   6.179
 4294POPC   C2B54656  34.139  17.335   6.603
 4294POPC   C3B54657  33.868  17.347   6.942
 4294POPC   C4B54658  34.056  17.389   7.328
 4295POPC   NC354659  31.135  10.142   5.419
 4295POPC   PO454660  30.487   9.858   5.447
 4295POPC   GL154661  30.691   9.901   5.811
 4295POPC   GL254662  30.582  10.241   5.840
 4295POPC   C1A54663  30.682   9.667   6.187
 4295POPC   D2A54664  30.888   9.623   6.585
 4295POPC   C3A54665  30.815   9.462   7.000
 4295POPC   C4A54666  30.863   9.797   7.236
 4295POPC   C1B54667  30.463  10.273   6.244
 4295POPC   C2B54668  30.381   9.928   6.502
 4295POPC   C3B54669  30.330   9.843   6.920
 4295POPC   C4B54670  30.425  10.049   7.295
 4296POPC   NC354671  37.070  24.967   5.172
 4296POPC   PO454672  36.716  25.419   5.553
 4296POPC   GL154673  36.899  25.551   5.910
 4296POPC   GL254674  37.094  25.228   5.878
 4296POPC   C1A54675  37.004  25.605   6.327
 4296POPC   D2A54676  36.960  25.333   6.659
 4296POPC   C3A54677  36.946  25.418   7.111
 4296POPC   C4A54678  37.117  25.165   7.469
 4296POPC   C1B54679  36.882  25.026   6.183
 4296POPC   C2B54680  36.794  24.851   6.554
 4296POPC   C3B54681  36.840  24.946   6.971
 4296POPC   C4B54682  37.106  24.724   7.160
 4297POPC   NC354683   6.431  22.949   5.499
 4297POPC   PO454684   5.840  23.192   5.398
 4297POPC   GL154685   5.851  22.921   5.764
 4297POPC   GL254686   5.668  23.168   5.908
 4297POPC   C1A54687   5.702  22.732   6.186
 4297POPC   D2A54688   5.634  22.927   6.603
 4297POPC   C3A54689   5.645  22.720   7.030
 4297POPC   C4A54690   6.041  22.736   7.286
 4297POPC   C1B54691   6.009  23.152   6.226
 4297POPC   C2B54692   6.125  23.063   6.672
 4297POPC   C3B54693   5.884  23.184   7.049
 4297POPC   C4B54694   6.042  23.310   7.456
 4298POPC   NC354695  42.801  16.017   5.288
 4298POPC   PO454696  43.327  15.759   5.064
 4298POPC   GL154697  43.250  15.911   5.587
 4298POPC   GL254698  42.942  15.945   5.766
 4298POPC   C1A54699  43.271  15.851   6.122
 4298POPC   D2A54700  43.474  15.844   6.558
 4298POPC   C3A54701  43.285  15.823   6.990
 4298POPC   C4A54702  43.114  15.912   7.398
 4298POPC   C1B54703  42.781  16.029   6.178
 4298POPC   C2B54704  42.951  16.060   6.584
 4298POPC   C3B54705  42.796  16.016   7.004
 4298POPC   C4B54706  42.560  16.089   7.381
 4299POPC   NC354707  31.723  16.002   5.404
 4299POPC   PO454708  31.071  15.873   5.421
 4299POPC   GL154709  31.168  16.046   5.805
 4299POPC   GL254710  31.491  15.887   5.851
 4299POPC   C1A54711  31.310  16.192   6.203
 4299POPC   D2A54712  31.566  16.072   6.540
 4299POPC   C3A54713  31.311  16.012   6.897
 4299POPC   C4A54714  31.293  15.889   7.325
 4299POPC   C1B54715  31.699  15.671   6.216
 4299POPC   C2B54716  31.814  15.617   6.651
 4299POPC   C3B54717  31.645  15.646   7.043
 4299POPC   C4B54718  31.824  15.926   7.340
 4300POPC   NC354719  21.086  19.688   5.334
 4300POPC   PO454720  21.609  19.952   5.044
 4300POPC   GL154721  21.644  20.027   5.574
 4300POPC   GL254722  21.383  19.816   5.771
 4300POPC   C1A54723  21.673  20.063   6.085
 4300POPC   D2A54724  21.368  19.900   6.418
 4300POPC   C3A54725  21.408  19.783   6.876
 4300POPC   C4A54726  21.210  19.864   7.280
 4300POPC   C1B54727  21.517  19.527   6.123
 4300POPC   C2B54728  21.619  19.428   6.558
 4300POPC   C3B54729  21.689  19.342   6.983
 4300POPC   C4B54730  21.446  19.393   7.352
 4301POPC   NC354731   4.328   2.319   5.176
 4301POPC   PO454732   4.158   1.710   5.629
 4301POPC   GL154733   4.352   1.772   5.995
 4301POPC   GL254734   4.545   1.507   5.994
 4301POPC   C1A54735   4.627   2.080   6.221
 4301POPC   D2A54736   4.685   2.185   6.650
 4301POPC   C3A54737   4.278   2.179   6.856
 4301POPC   C4A54738   4.142   2.273   7.267
 4301POPC   C1B54739   4.534   1.583   6.437
 4301POPC   C2B54740   4.711   1.669   6.827
 4301POPC   C3B54741   4.515   1.860   7.180
 4301POPC   C4B54742   4.335   1.899   7.580
 4302POPC   NC354743  27.108  16.007   5.001
 4302POPC   PO454744  26.511  15.916   5.374
 4302POPC   GL154745  26.638  15.903   5.763
 4302POPC   GL254746  27.009  15.869   5.677
 4302POPC   C1A54747  26.413  15.830   6.144
 4302POPC   D2A54748  26.424  15.613   6.560
 4302POPC   C3A54749  26.516  15.851   6.912
 4302POPC   C4A54750  26.871  15.791   7.210
 4302POPC   C1B54751  27.004  16.072   6.098
 4302POPC   C2B54752  26.978  16.010   6.560
 4302POPC   C3B54753  26.788  16.272   6.899
 4302POPC   C4B54754  26.783  16.295   7.320
 4303POPC   NC354755  42.884   4.139   5.418
 4303POPC   PO454756  43.537   4.310   5.312
 4303POPC   GL154757  43.371   4.103   5.667
 4303POPC   GL254758  43.203   4.406   5.731
 4303POPC   C1A54759  43.225   4.062   6.124
 4303POPC   D2A54760  43.309   4.341   6.497
 4303POPC   C3A54761  43.150   4.173   6.904
 4303POPC   C4A54762  43.282   4.082   7.306
 4303POPC   C1B54763  42.952   4.516   6.088
 4303POPC   C2B54764  42.893   4.711   6.477
 4303POPC   C3B54765  43.037   4.671   6.872
 4303POPC   C4B54766  42.895   4.577   7.265
 4304POPC   NC354767  18.742  20.916   5.626
 4304POPC   PO454768  19.080  20.412   5.193
 4304POPC   GL154769  19.150  20.624   5.646
 4304POPC   GL254770  19.473  20.722   5.743
 4304POPC   C1A54771  19.178  20.603   6.156
 4304POPC   D2A54772  19.121  20.839   6.602
 4304POPC   C3A54773  18.812  20.704   6.904
 4304POPC   C4A54774  18.629  20.359   7.132
 4304POPC   C1B54775  19.687  20.735   6.140
 4304POPC   C2B54776  19.545  20.537   6.513
 4304POPC   C3B54777  19.493  20.642   6.925
 4304POPC   C4B54778  19.189  20.775   7.226
 4305POPC   NC354779  18.860   2.478   5.476
 4305POPC   PO454780  19.340   2.934   5.517
 4305POPC   GL154781  19.170   2.669   5.832
 4305POPC   GL254782  18.853   2.841   5.869
 4305POPC   C1A54783  19.035   2.514   6.250
 4305POPC   D2A54784  18.978   2.414   6.698
 4305POPC   C3A54785  19.298   2.598   6.962
 4305POPC   C4A54786  19.355   2.784   7.385
 4305POPC   C1B54787  19.029   3.044   6.245
 4305POPC   C2B54788  18.929   2.941   6.685
 4305POPC   C3B54789  18.982   2.992   7.124
 4305POPC   C4B54790  18.859   3.239   7.499
 4306POPC   NC354791  30.636  26.319   5.607
 4306POPC   PO454792  30.861  25.719   5.496
 4306POPC   GL154793  30.916  25.978   5.838
 4306POPC   GL254794  31.138  26.248   5.827
 4306POPC   C1A54795  30.975  25.961   6.235
 4306POPC   D2A54796  30.694  25.845   6.523
 4306POPC   C3A54797  30.870  25.881   6.898
 4306POPC   C4A54798  30.659  25.982   7.253
 4306POPC   C1B54799  31.157  26.443   6.264
 4306POPC   C2B54800  31.197  26.246   6.691
 4306POPC   C3B54801  30.929  26.386   7.048
 4306POPC   C4B54802  30.552  26.645   6.992
 4307POPC   NC354803  14.439  41.191   5.345
 4307POPC   PO454804  14.617  40.554   5.452
 4307POPC   GL154805  14.375  40.768   5.760
 4307POPC   GL254806  14.186  40.459   5.804
 4307POPC   C1A54807  14.431  40.975   6.176
 4307POPC   D2A54808  14.538  40.760   6.559
 4307POPC   C3A54809  14.385  40.796   6.979
 4307POPC   C4A54810  14.736  40.793   7.286
 4307POPC   C1B54811  14.540  40.357   6.090
 4307POPC   C2B54812  14.660  40.264   6.520
 4307POPC   C3B54813  14.656  40.382   6.949
 4307POPC   C4B54814  14.409  40.397   7.330
 4308POPC   NC354815   7.855  36.319   5.568
 4308POPC   PO454816   7.204  36.241   5.364
 4308POPC   GL154817   7.402  36.066   5.786
 4308POPC   GL254818   7.422  35.720   5.846
 4308POPC   C1A54819   7.442  36.017   6.256
 4308POPC   D2A54820   7.291  36.219   6.618
 4308POPC   C3A54821   7.522  36.302   6.978
 4308POPC   C4A54822   7.448  36.141   7.410
 4308POPC   C1B54823   7.187  35.583   6.186
 4308POPC   C2B54824   7.288  35.591   6.628
 4308POPC   C3B54825   7.248  35.870   6.984
 4308POPC   C4B54826   6.983  35.816   7.334
 4309POPC   NC354827  38.725  16.080   5.519
 4309POPC   PO454828  38.095  15.762   5.545
 4309POPC   GL154829  38.415  15.823   5.838
 4309POPC   GL254830  38.356  16.168   5.893
 4309POPC   C1A54831  38.621  15.824   6.243
 4309POPC   D2A54832  38.386  15.896   6.628
 4309POPC   C3A54833  38.592  15.818   7.038
 4309POPC   C4A54834  38.546  15.690   7.518
 4309POPC   C1B54835  38.639  16.342   6.239
 4309POPC   C2B54836  38.686  16.317   6.690
 4309POPC   C3B54837  38.334  16.267   6.995
 4309POPC   C4B54838  38.281  16.097   7.401
 4310POPC   NC354839  24.453  10.897   5.358
 4310POPC   PO454840  24.301  11.508   5.384
 4310POPC   GL154841  24.516  11.353   5.776
 4310POPC   GL254842  24.453  11.018   5.841
 4310POPC   C1A54843  24.512  11.410   6.266
 4310POPC   D2A54844  24.635  11.509   6.740
 4310POPC   C3A54845  24.427  11.518   7.196
 4310POPC   C4A54846  24.281  11.586   7.613
 4310POPC   C1B54847  24.711  10.905   6.180
 4310POPC   C2B54848  24.608  10.975   6.576
 4310POPC   C3B54849  24.493  11.079   6.973
 4310POPC   C4B54850  24.646  10.888   7.276
 4311POPC   NC354851  13.856  31.127   5.602
 4311POPC   PO454852  13.391  30.535   5.575
 4311POPC   GL154853  13.552  30.798   5.822
 4311POPC   GL254854  13.362  31.120   5.740
 4311POPC   C1A54855  13.730  30.741   6.207
 4311POPC   D2A54856  13.516  30.478   6.512
 4311POPC   C3A54857  13.590  30.605   6.920
 4311POPC   C4A54858  13.876  30.857   7.138
 4311POPC   C1B54859  13.302  31.069   6.181
 4311POPC   C2B54860  13.496  31.031   6.570
 4311POPC   C3B54861  13.259  31.016   6.899
 4311POPC   C4B54862  13.336  30.995   7.282
 4312POPC   NC354863  35.438   1.618   5.363
 4312POPC   PO454864  35.584   2.299   5.311
 4312POPC   GL154865  35.488   2.077   5.744
 4312POPC   GL254866  35.162   2.152   5.864
 4312POPC   C1A54867  35.495   2.119   6.245
 4312POPC   D2A54868  35.159   2.152   6.570
 4312POPC   C3A54869  35.295   2.083   7.013
 4312POPC   C4A54870  35.707   2.026   7.261
 4312POPC   C1B54871  35.218   1.724   6.068
 4312POPC   C2B54872  35.335   1.660   6.516
 4312POPC   C3B54873  35.583   1.669   6.918
 4312POPC   C4B54874  35.323   1.659   7.290
 4313POPC   NC354875   2.512  25.951   5.475
 4313POPC   PO454876   3.094  26.306   5.443
 4313POPC   GL154877   2.822  26.212   5.791
 4313POPC   GL254878   2.830  25.866   5.889
 4313POPC   C1A54879   2.711  26.354   6.196
 4313POPC   D2A54880   2.947  26.358   6.570
 4313POPC   C3A54881   2.768  26.268   6.985
 4313POPC   C4A54882   2.718  26.455   7.396
 4313POPC   C1B54883   2.972  25.907   6.281
 4313POPC   C2B54884   2.845  25.866   6.683
 4313POPC   C3B54885   3.064  25.704   7.015
 4313POPC   C4B54886   2.919  25.727   7.363
 4314POPC   NC354887  31.231  39.687   5.266
 4314POPC   PO454888  31.626  39.165   5.324
 4314POPC   GL154889  31.381  39.241   5.690
 4314POPC   GL254890  31.391  39.590   5.749
 4314POPC   C1A54891  31.528  39.154   6.143
 4314POPC   D2A54892  31.631  39.155   6.609
 4314POPC   C3A54893  31.369  38.958   6.947
 4314POPC   C4A54894  31.245  38.817   7.359
 4314POPC   C1B54895  31.536  39.672   6.172
 4314POPC   C2B54896  31.621  39.701   6.608
 4314POPC   C3B54897  31.419  39.493   6.950
 4314POPC   C4B54898  31.241  39.299   7.296
 4315POPC   NC354899  32.733  38.854   5.455
 4315POPC   PO454900  33.070  38.288   5.316
 4315POPC   GL154901  32.973  38.505   5.739
 4315POPC   GL254902  33.267  38.497   5.910
 4315POPC   C1A54903  32.861  38.661   6.185
 4315POPC   D2A54904  33.015  38.715   6.644
 4315POPC   C3A54905  32.887  38.445   6.981
 4315POPC   C4A54906  32.599  38.672   7.223
 4315POPC   C1B54907  33.380  38.520   6.358
 4315POPC   C2B54908  33.385  38.403   6.815
 4315POPC   C3B54909  33.485  38.389   7.253
 4315POPC   C4B54910  33.412  38.159   7.649
 4316POPC   NC354911  24.143  43.588   5.359
 4316POPC   PO454912  23.661  43.124   5.371
 4316POPC   GL154913  23.599  43.329   5.780
 4316POPC   GL254914  23.295  43.512   5.859
 4316POPC   C1A54915  23.770  43.238   6.184
 4316POPC   D2A54916  23.658  42.931   6.475
 4316POPC   C3A54917  23.739  43.155   6.833
 4316POPC   C4A54918  23.711  43.155   7.251
 4316POPC   C1B54919  23.257  43.129   6.129
 4316POPC   C2B54920  23.136  42.902   6.527
 4316POPC   C3B54921  23.344  42.807   6.926
 4316POPC   C4B54922  23.283  42.888   7.357
 4317POPC   NC354923  17.617  27.874   5.518
 4317POPC   PO454924  17.173  28.344   5.239
 4317POPC   GL154925  17.256  28.205   5.706
 4317POPC   GL254926  17.319  27.908   5.948
 4317POPC   C1A54927  17.345  28.386   6.132
 4317POPC   D2A54928  17.258  28.187   6.520
 4317POPC   C3A54929  17.445  28.343   6.893
 4317POPC   C4A54930  17.299  28.507   7.268
 4317POPC   C1B54931  17.702  28.003   6.178
 4317POPC   C2B54932  17.823  28.218   6.546
 4317POPC   C3B54933  17.856  28.037   6.958
 4317POPC   C4B54934  17.712  28.195   7.334
 4318POPC   NC354935  15.409  28.651   5.250
 4318POPC   PO454936  15.420  28.034   5.611
 4318POPC   GL154937  15.104  28.206   5.906
 4318POPC   GL254938  15.207  28.543   5.808
 4318POPC   C1A54939  14.869  28.117   6.293
 4318POPC   D2A54940  15.064  28.318   6.663
 4318POPC   C3A54941  15.270  28.148   7.036
 4318POPC   C4A54942  15.114  28.376   7.383
 4318POPC   C1B54943  15.398  28.458   6.247
 4318POPC   C2B54944  15.559  28.466   6.688
 4318POPC   C3B54945  15.481  28.646   7.099
 4318POPC   C4B54946  15.442  28.706   7.564
 4319POPC   NC354947  43.624  30.273   5.407
 4319POPC   PO454948  43.896  29.726   5.285
 4319POPC   GL154949  43.883  29.815   5.766
 4319POPC   GL254950  43.606  30.038   5.869
 4319POPC   C1A54951  44.005  30.054   6.188
 4319POPC   D2A54952  43.913  30.265   6.601
 4319POPC   C3A54953  43.917  30.017   6.998
 4319POPC   C4A54954  44.058  29.655   7.299
 4319POPC   C1B54955  43.526  30.267   6.262
 4319POPC   C2B54956  43.389  30.179   6.715
 4319POPC   C3B54957  43.460  30.158   7.176
 4319POPC   C4B54958  43.754  30.034   7.483
 4320POPC   NC354959  15.858  17.600   5.145
 4320POPC   PO454960  15.227  17.505   5.378
 4320POPC   GL154961  15.141  17.494   5.822
 4320POPC   GL254962  14.905  17.768   5.889
 4320POPC   C1A54963  15.231  17.481   6.284
 4320POPC   D2A54964  15.094  17.511   6.721
 4320POPC   C3A54965  15.306  17.378   7.121
 4320POPC   C4A54966  15.433  17.346   7.573
 4320POPC   C1B54967  14.797  17.779   6.352
 4320POPC   C2B54968  14.756  17.887   6.801
 4320POPC   C3B54969  14.836  17.620   7.151
 4320POPC   C4B54970  14.924  17.359   7.523
 4321POPC   NC354971  22.745  23.242   5.379
 4321POPC   PO454972  23.218  22.795   5.267
 4321POPC   GL154973  22.955  22.833   5.631
 4321POPC   GL254974  23.046  23.145   5.800
 4321POPC   C1A54975  22.823  22.655   6.025
 4321POPC   D2A54976  22.903  22.663   6.474
 4321POPC   C3A54977  22.692  22.653   6.862
 4321POPC   C4A54978  22.710  22.709   7.307
 4321POPC   C1B54979  22.773  23.147   6.184
 4321POPC   C2B54980  22.682  23.116   6.643
 4321POPC   C3B54981  22.921  23.230   7.019
 4321POPC   C4B54982  22.773  23.592   7.302
 4322POPC   NC354983  29.714  19.299   5.453
 4322POPC   PO454984  30.179  18.794   5.363
 4322POPC   GL154985  30.035  19.014   5.737
 4322POPC   GL254986  29.693  18.856   5.737
 4322POPC   C1A54987  30.106  19.215   6.156
 4322POPC   D2A54988  30.221  19.393   6.596
 4322POPC   C3A54989  30.000  19.233   6.943
 4322POPC   C4A54990  30.050  18.814   7.106
 4322POPC   C1B54991  29.608  19.139   6.078
 4322POPC   C2B54992  29.742  19.061   6.484
 4322POPC   C3B54993  29.605  18.918   6.875
 4322POPC   C4B54994  29.588  19.119   7.255
 4323POPC   NC354995  32.043   6.091   5.312
 4323POPC   PO454996  32.350   5.451   5.277
 4323POPC   GL154997  32.343   5.674   5.707
 4323POPC   GL254998  32.091   5.934   5.820
 4323POPC   C1A54999  32.491   5.806   6.124
 4323POPC   D2A55000  32.265   5.778   6.475
 4323POPC   C3A55001  32.560   5.727   6.790
 4323POPC   C4A55002  32.422   5.848   7.169
 4323POPC   C1B55003  32.268   6.279   6.126
 4323POPC   C2B55004  32.451   6.274   6.545
 4323POPC   C3B55005  32.158   6.136   6.832
 4323POPC   C4B55006  32.055   6.261   7.209
 4324POPC   NC355007  24.050  35.070   5.304
 4324POPC   PO455008  23.661  35.561   5.535
 4324POPC   GL155009  23.644  35.283   5.869
 4324POPC   GL255010  23.948  35.110   5.830
 4324POPC   C1A55011  23.718  35.355   6.307
 4324POPC   D2A55012  23.820  35.400   6.751
 4324POPC   C3A55013  23.580  35.487   7.114
 4324POPC   C4A55014  23.402  35.310   7.478
 4324POPC   C1B55015  23.947  34.886   6.216
 4324POPC   C2B55016  24.157  34.836   6.629
 4324POPC   C3B55017  24.100  35.066   7.014
 4324POPC   C4B55018  24.133  35.518   7.129
 4325POPC   NC355019  24.804  27.770   5.527
 4325POPC   PO455020  24.290  27.395   5.355
 4325POPC   GL155021  24.447  27.480   5.760
 4325POPC   GL255022  24.282  27.799   5.815
 4325POPC   C1A55023  24.653  27.568   6.178
 4325POPC   D2A55024  24.560  27.699   6.628
 4325POPC   C3A55025  24.715  27.395   6.936
 4325POPC   C4A55026  24.632  27.154   7.319
 4325POPC   C1B55027  24.353  27.974   6.224
 4325POPC   C2B55028  24.309  28.206   6.574
 4325POPC   C3B55029  24.330  28.043   6.965
 4325POPC   C4B55030  24.548  27.746   7.236
 4326POPC   NC355031  37.926  18.929   5.508
 4326POPC   PO455032  37.284  19.194   5.458
 4326POPC   GL155033  37.538  19.084   5.865
 4326POPC   GL255034  37.895  19.159   5.944
 4326POPC   C1A55035  37.592  19.240   6.319
 4326POPC   D2A55036  37.860  19.212   6.717
 4326POPC   C3A55037  37.549  19.099   6.980
 4326POPC   C4A55038  37.462  18.883   7.345
 4326POPC   C1B55039  38.063  18.926   6.324
 4326POPC   C2B55040  38.077  18.657   6.694
 4326POPC   C3B55041  37.973  18.795   7.112
 4326POPC   C4B55042  37.932  19.240   7.276
 4327POPC   NC355043  22.115  27.505   5.149
 4327POPC   PO455044  22.196  26.904   5.321
 4327POPC   GL155045  22.175  26.926   5.742
 4327POPC   GL255046  22.330  27.227   5.824
 4327POPC   C1A55047  22.166  26.765   6.175
 4327POPC   D2A55048  22.220  26.590   6.602
 4327POPC   C3A55049  22.074  26.739   7.013
 4327POPC   C4A55050  22.093  26.471   7.397
 4327POPC   C1B55051  22.534  27.134   6.237
 4327POPC   C2B55052  22.651  27.230   6.683
 4327POPC   C3B55053  22.549  26.908   6.998
 4327POPC   C4B55054  22.371  26.905   7.413
 4328POPC   NC355055  13.877  30.429   5.562
 4328POPC   PO455056  13.699  29.743   5.458
 4328POPC   GL155057  13.517  29.845   5.907
 4328POPC   GL255058  13.592  30.204   5.920
 4328POPC   C1A55059  13.534  29.884   6.371
 4328POPC   D2A55060  13.724  29.659   6.691
 4328POPC   C3A55061  13.661  29.744   7.119
 4328POPC   C4A55062  13.605  29.766   7.584
 4328POPC   C1B55063  13.899  30.243   6.253
 4328POPC   C2B55064  13.868  30.162   6.709
 4328POPC   C3B55065  13.847  30.232   7.182
 4328POPC   C4B55066  13.991  30.285   7.637
 4329POPC   NC355067  25.325   0.072   5.368
 4329POPC   PO455068  24.876  44.507   5.435
 4329POPC   GL155069  25.153  44.563   5.809
 4329POPC   GL255070  25.336  44.892   5.844
 4329POPC   C1A55071  25.357  44.524   6.208
 4329POPC   D2A55072  25.328  44.780   6.574
 4329POPC   C3A55073  25.187  44.630   7.036
 4329POPC   C4A55074  25.107  44.300   7.412
 4329POPC   C1B55075  25.609   0.040   6.182
 4329POPC   C2B55076  25.810  44.974   6.574
 4329POPC   C3B55077  25.625  44.920   6.944
 4329POPC   C4B55078  25.439   0.084   7.205
 4330POPC   NC355079  41.703  42.678   5.423
 4330POPC   PO455080  41.367  43.257   5.433
 4330POPC   GL155081  41.653  43.390   5.763
 4330POPC   GL255082  41.750  43.043   5.835
 4330POPC   C1A55083  41.783  43.395   6.196
 4330POPC   D2A55084  41.899  43.126   6.533
 4330POPC   C3A55085  41.922  43.323   6.911
 4330POPC   C4A55086  41.591  43.113   7.111
 4330POPC   C1B55087  41.530  42.930   6.232
 4330POPC   C2B55088  41.351  42.918   6.647
 4330POPC   C3B55089  41.414  42.661   7.000
 4330POPC   C4B55090  41.775  42.634   7.274
 4331POPC   NC355091   0.813  31.701   5.531
 4331POPC   PO455092   0.241  31.365   5.417
 4331POPC   GL155093   0.342  31.238   5.838
 4331POPC   GL255094   0.705  31.324   5.863
 4331POPC   C1A55095   0.351  31.244   6.312
 4331POPC   D2A55096   0.455  31.241   6.776
 4331POPC   C3A55097   0.290  31.299   7.207
 4331POPC   C4A55098   0.333  31.700   7.389
 4331POPC   C1B55099   0.551  31.674   6.144
 4331POPC   C2B55100   0.443  31.766   6.581
 4331POPC   C3B55101   0.630  31.698   6.982
 4331POPC   C4B55102   0.791  31.341   7.238
 4332POPC   NC355103  40.839   1.238   5.322
 4332POPC   PO455104  40.139   1.248   5.339
 4332POPC   GL155105  40.515   1.276   5.720
 4332POPC   GL255106  40.876   1.432   5.779
 4332POPC   C1A55107  40.726   1.055   6.104
 4332POPC   D2A55108  40.876   1.100   6.546
 4332POPC   C3A55109  40.670   1.066   6.927
 4332POPC   C4A55110  40.975   1.099   7.251
 4332POPC   C1B55111  40.681   1.569   6.148
 4332POPC   C2B55112  40.863   1.624   6.538
 4332POPC   C3B55113  40.960   1.532   6.957
 4332POPC   C4B55114  40.765   1.777   7.277
 4333POPC   NC355115  23.679   5.648   5.357
 4333POPC   PO455116  23.939   6.243   5.495
 4333POPC   GL155117  23.714   5.961   5.795
 4333POPC   GL255118  23.870   5.651   5.832
 4333POPC   C1A55119  23.515   5.824   6.222
 4333POPC   D2A55120  23.407   5.965   6.667
 4333POPC   C3A55121  23.593   5.824   7.075
 4333POPC   C4A55122  23.548   5.998   7.518
 4333POPC   C1B55123  24.033   5.717   6.239
 4333POPC   C2B55124  23.878   5.714   6.638
 4333POPC   C3B55125  24.097   5.797   7.042
 4333POPC   C4B55126  23.940   5.593   7.405
 4334POPC   NC355127  12.715   9.040   5.391
 4334POPC   PO455128  13.319   8.833   5.674
 4334POPC   GL155129  12.937   8.760   5.799
 4334POPC   GL255130  12.914   9.109   5.879
 4334POPC   C1A55131  12.886   8.760   6.233
 4334POPC   D2A55132  12.809   8.985   6.622
 4334POPC   C3A55133  12.770   8.867   7.062
 4334POPC   C4A55134  13.115   8.934   7.360
 4334POPC   C1B55135  12.625   9.265   6.216
 4334POPC   C2B55136  12.450   9.346   6.653
 4334POPC   C3B55137  12.533   9.445   7.092
 4334POPC   C4B55138  12.772   9.279   7.432
 4335POPC   NC355139   9.722  31.014   5.549
 4335POPC   PO455140  10.112  30.439   5.382
 4335POPC   GL155141   9.898  30.578   5.773
 4335POPC   GL255142  10.124  30.861   5.790
 4335POPC   C1A55143   9.571  30.692   6.131
 4335POPC   D2A55144   9.367  30.787   6.541
 4335POPC   C3A55145   9.596  30.787   6.889
 4335POPC   C4A55146   9.449  30.810   7.280
 4335POPC   C1B55147   9.982  30.987   6.158
 4335POPC   C2B55148   9.958  30.796   6.513
 4335POPC   C3B55149  10.114  30.866   6.899
 4335POPC   C4B55150   9.965  30.687   7.262
 4336POPC   NC355151  22.585  10.756   5.567
 4336POPC   PO455152  23.104  10.318   5.373
 4336POPC   GL155153  22.907  10.414   5.783
 4336POPC   GL255154  22.989  10.773   5.862
 4336POPC   C1A55155  22.977  10.424   6.234
 4336POPC   D2A55156  22.861  10.322   6.641
 4336POPC   C3A55157  23.237  10.379   6.853
 4336POPC   C4A55158  23.336  10.414   7.260
 4336POPC   C1B55159  22.686  10.860   6.205
 4336POPC   C2B55160  22.664  10.970   6.629
 4336POPC   C3B55161  22.876  10.753   6.926
 4336POPC   C4B55162  23.054  10.843   7.272
 4337POPC   NC355163  34.191   0.994   5.597
 4337POPC   PO455164  33.655   1.133   5.201
 4337POPC   GL155165  33.682   1.104   5.688
 4337POPC   GL255166  33.925   1.299   5.915
 4337POPC   C1A55167  33.497   1.102   6.126
 4337POPC   D2A55168  33.330   1.027   6.568
 4337POPC   C3A55169  33.609   1.184   6.923
 4337POPC   C4A55170  33.613   1.532   7.234
 4337POPC   C1B55171  33.985   0.976   6.274
 4337POPC   C2B55172  34.068   1.000   6.732
 4337POPC   C3B55173  34.125   1.254   7.106
 4337POPC   C4B55174  34.099   1.685   7.173
 4338POPC   NC355175  44.066  35.668   5.402
 4338POPC   PO455176  43.782  36.332   5.419
 4338POPC   GL155177  43.955  36.321   5.812
 4338POPC   GL255178  44.115  35.993   5.794
 4338POPC   C1A55179  43.778  36.170   6.198
 4338POPC   D2A55180  43.913  36.041   6.615
 4338POPC   C3A55181  43.898  36.361   6.945
 4338POPC   C4A55182  43.598  36.584   7.179
 4338POPC   C1B55183  44.050  35.700   6.143
 4338POPC   C2B55184  44.221  35.622   6.551
 4338POPC   C3B55185  44.051  35.685   6.966
 4338POPC   C4B55186  43.846  35.957   7.249
 4339POPC   NC355187  24.413  26.054   5.570
 4339POPC   PO455188  24.852  26.059   5.091
 4339POPC   GL155189  24.907  26.068   5.665
 4339POPC   GL255190  24.765  25.791   5.846
 4339POPC   C1A55191  24.826  26.132   6.194
 4339POPC   D2A55192  24.654  25.921   6.622
 4339POPC   C3A55193  24.544  26.141   6.983
 4339POPC   C4A55194  24.173  26.443   7.044
 4339POPC   C1B55195  24.645  25.613   6.227
 4339POPC   C2B55196  24.275  25.586   6.529
 4339POPC   C3B55197  24.157  25.790   6.925
 4339POPC   C4B55198  24.268  25.738   7.371
 4340POPC   NC355199   3.166  35.636   5.396
 4340POPC   PO455200   3.711  35.251   5.457
 4340POPC   GL155201   3.404  35.295   5.728
 4340POPC   GL255202   3.514  35.610   5.799
 4340POPC   C1A55203   3.423  35.276   6.173
 4340POPC   D2A55204   3.392  35.062   6.527
 4340POPC   C3A55205   3.417  35.283   6.876
 4340POPC   C4A55206   3.184  35.179   7.188
 4340POPC   C1B55207   3.734  35.712   6.179
 4340POPC   C2B55208   3.775  35.912   6.580
 4340POPC   C3B55209   3.699  35.699   6.947
 4340POPC   C4B55210   3.703  35.474   7.320
 4341POPC   NC355211  33.050  35.028   5.333
 4341POPC   PO455212  32.895  34.379   5.362
 4341POPC   GL155213  33.006  34.513   5.761
 4341POPC   GL255214  32.827  34.812   5.776
 4341POPC   C1A55215  32.880  34.457   6.207
 4341POPC   D2A55216  32.882  34.590   6.643
 4341POPC   C3A55217  33.046  34.314   6.991
 4341POPC   C4A55218  33.038  34.073   7.373
 4341POPC   C1B55219  33.141  34.884   6.128
 4341POPC   C2B55220  33.257  34.944   6.565
 4341POPC   C3B55221  33.265  34.815   6.964
 4341POPC   C4B55222  32.875  34.794   7.107
 4342POPC   NC355223  20.453  32.045   5.559
 4342POPC   PO455224  20.887  32.527   5.624
 4342POPC   GL155225  20.737  32.282   5.966
 4342POPC   GL255226  20.742  31.908   5.971
 4342POPC   C1A55227  20.822  32.333   6.398
 4342POPC   D2A55228  20.947  32.560   6.766
 4342POPC   C3A55229  20.783  32.298   7.043
 4342POPC   C4A55230  20.512  32.268   7.367
 4342POPC   C1B55231  20.433  31.998   6.292
 4342POPC   C2B55232  20.459  32.048   6.731
 4342POPC   C3B55233  20.225  31.941   7.096
 4342POPC   C4B55234  20.341  31.802   7.507
 4343POPC   NC355235  33.330  11.813   5.169
 4343POPC   PO455236  32.893  12.302   5.180
 4343POPC   GL155237  33.016  12.225   5.702
 4343POPC   GL255238  32.754  12.054   5.920
 4343POPC   C1A55239  33.203  12.068   6.156
 4343POPC   D2A55240  33.077  12.108   6.584
 4343POPC   C3A55241  33.123  11.854   6.920
 4343POPC   C4A55242  33.242  12.036   7.280
 4343POPC   C1B55243  32.749  12.349   6.261
 4343POPC   C2B55244  32.564  12.250   6.635
 4343POPC   C3B55245  32.766  12.213   6.980
 4343POPC   C4B55246  32.726  11.991   7.347
 4344POPC   NC355247  14.954  33.215   5.389
 4344POPC   PO455248  15.346  32.700   5.412
 4344POPC   GL155249  15.151  32.904   5.774
 4344POPC   GL255250  15.269  33.274   5.782
 4344POPC   C1A55251  15.175  32.915   6.230
 4344POPC   D2A55252  15.019  32.889   6.655
 4344POPC   C3A55253  15.302  32.898   6.992
 4344POPC   C4A55254  15.295  32.798   7.415
 4344POPC   C1B55255  15.526  33.269   6.145
 4344POPC   C2B55256  15.548  33.081   6.550
 4344POPC   C3B55257  15.796  33.062   6.898
 4344POPC   C4B55258  15.647  33.180   7.280
 4345POPC   NC355259   4.405  17.846   5.458
 4345POPC   PO455260   4.514  17.238   5.374
 4345POPC   GL155261   4.369  17.427   5.765
 4345POPC   GL255262   4.640  17.599   5.844
 4345POPC   C1A55263   4.194  17.464   6.180
 4345POPC   D2A55264   4.074  17.233   6.552
 4345POPC   C3A55265   3.994  17.392   6.983
 4345POPC   C4A55266   4.151  17.371   7.418
 4345POPC   C1B55267   4.711  17.506   6.287
 4345POPC   C2B55268   4.567  17.396   6.701
 4345POPC   C3B55269   4.578  17.545   7.150
 4345POPC   C4B55270   4.397  17.828   7.468
 4346POPC   NC355271  40.147  32.407   5.149
 4346POPC   PO455272  40.768  32.317   5.425
 4346POPC   GL155273  40.943  32.265   5.787
 4346POPC   GL255274  40.789  31.974   5.902
 4346POPC   C1A55275  40.892  32.440   6.198
 4346POPC   D2A55276  41.056  32.597   6.586
 4346POPC   C3A55277  40.841  32.394   6.906
 4346POPC   C4A55278  40.778  32.118   7.206
 4346POPC   C1B55279  40.661  31.983   6.305
 4346POPC   C2B55280  40.649  31.902   6.744
 4346POPC   C3B55281  40.460  31.730   7.150
 4346POPC   C4B55282  40.451  31.937   7.581
 4347POPC   NC355283   4.062  37.334   5.423
 4347POPC   PO455284   4.571  37.688   5.595
 4347POPC   GL155285   4.251  37.646   5.879
 4347POPC   GL255286   4.026  37.945   5.805
 4347POPC   C1A55287   4.461  37.627   6.304
 4347POPC   D2A55288   4.680  37.952   6.541
 4347POPC   C3A55289   4.621  37.849   6.961
 4347POPC   C4A55290   4.396  37.596   7.239
 4347POPC   C1B55291   4.108  38.000   6.267
 4347POPC   C2B55292   4.173  37.888   6.697
 4347POPC   C3B55293   3.965  37.611   6.942
 4347POPC   C4B55294   4.037  37.232   7.148
 4348POPC   NC355295  25.288  23.342   5.335
 4348POPC   PO455296  25.006  23.961   5.406
 4348POPC   GL155297  25.291  23.902   5.792
 4348POPC   GL255298  25.427  23.543   5.806
 4348POPC   C1A55299  25.230  24.021   6.242
 4348POPC   D2A55300  25.073  23.783   6.627
 4348POPC   C3A55301  25.219  23.945   7.042
 4348POPC   C4A55302  25.566  23.778   7.313
 4348POPC   C1B55303  25.232  23.499   6.209
 4348POPC   C2B55304  25.362  23.283   6.586
 4348POPC   C3B55305  25.378  23.475   6.945
 4348POPC   C4B55306  24.978  23.478   7.170
 4349POPC   NC355307  37.250  17.870   5.479
 4349POPC   PO455308  37.051  17.214   5.491
 4349POPC   GL155309  36.792  17.342   5.827
 4349POPC   GL255310  37.020  17.619   5.861
 4349POPC   C1A55311  36.748  17.482   6.264
 4349POPC   D2A55312  36.966  17.624   6.614
 4349POPC   C3A55313  36.752  17.608   6.980
 4349POPC   C4A55314  36.724  17.513   7.404
 4349POPC   C1B55315  37.411  17.718   6.096
 4349POPC   C2B55316  37.460  17.558   6.481
 4349POPC   C3B55317  37.412  17.680   6.880
 4349POPC   C4B55318  37.182  17.665   7.259
 4350POPC   NC355319  36.430  12.720   5.145
 4350POPC   PO455320  37.009  12.710   5.441
 4350POPC   GL155321  37.149  12.753   5.866
 4350POPC   GL255322  36.791  12.816   5.963
 4350POPC   C1A55323  37.155  12.785   6.313
 4350POPC   D2A55324  36.887  13.022   6.571
 4350POPC   C3A55325  36.888  12.882   6.980
 4350POPC   C4A55326  36.697  12.742   7.351
 4350POPC   C1B55327  36.582  13.209   6.086
 4350POPC   C2B55328  36.609  13.455   6.466
 4350POPC   C3B55329  36.606  13.313   6.906
 4350POPC   C4B55330  36.378  13.229   7.261
 4351POPC   NC355331  26.678  10.599   5.435
 4351POPC   PO455332  26.693  10.009   5.534
 4351POPC   GL155333  26.615  10.341   5.867
 4351POPC   GL255334  26.910  10.606   5.888
 4351POPC   C1A55335  26.565  10.571   6.256
 4351POPC   D2A55336  26.751  10.666   6.672
 4351POPC   C3A55337  26.597  10.450   7.048
 4351POPC   C4A55338  26.790  10.084   7.238
 4351POPC   C1B55339  27.129  10.640   6.293
 4351POPC   C2B55340  27.276  10.664   6.718
 4351POPC   C3B55341  27.035  10.732   7.087
 4351POPC   C4B55342  27.098  10.809   7.503
 4352POPC   NC355343   3.022  31.126   5.368
 4352POPC   PO455344   2.600  30.636   5.126
 4352POPC   GL155345   2.778  30.627   5.605
 4352POPC   GL255346   3.000  30.896   5.809
 4352POPC   C1A55347   2.872  30.483   6.066
 4352POPC   D2A55348   3.096  30.673   6.447
 4352POPC   C3A55349   3.091  30.423   6.838
 4352POPC   C4A55350   2.832  30.495   7.215
 4352POPC   C1B55351   2.721  30.998   6.159
 4352POPC   C2B55352   2.794  31.122   6.564
 4352POPC   C3B55353   2.795  30.907   6.929
 4352POPC   C4B55354   2.509  30.919   7.264
 4353POPC   NC355355  24.535  25.344   5.386
 4353POPC   PO455356  24.031  25.791   5.595
 4353POPC   GL155357  24.343  25.510   5.829
 4353POPC   GL255358  24.704  25.269   5.856
 4353POPC   C1A55359  24.294  25.232   6.163
 4353POPC   D2A55360  24.308  25.032   6.584
 4353POPC   C3A55361  24.297  25.296   6.970
 4353POPC   C4A55362  24.136  25.258   7.394
 4353POPC   C1B55363  24.763  25.111   6.313
 4353POPC   C2B55364  24.745  25.396   6.681
 4353POPC   C3B55365  24.686  25.628   7.084
 4353POPC   C4B55366  24.617  25.419   7.519
 4354POPC   NC355367  29.788  13.864   5.123
 4354POPC   PO455368  29.113  13.662   5.248
 4354POPC   GL155369  29.173  13.665   5.724
 4354POPC   GL255370  29.233  13.338   5.887
 4354POPC   C1A55371  29.215  13.841   6.153
 4354POPC   D2A55372  29.461  13.760   6.535
 4354POPC   C3A55373  29.313  13.760   6.957
 4354POPC   C4A55374  29.325  13.506   7.346
 4354POPC   C1B55375  29.029  13.331   6.284
 4354POPC   C2B55376  28.962  13.526   6.672
 4354POPC   C3B55377  28.837  13.617   7.096
 4354POPC   C4B55378  28.865  13.550   7.595
 4355POPC   NC355379  35.379  10.192   5.711
 4355POPC   PO455380  35.385   9.730   5.172
 4355POPC   GL155381  35.377   9.694   5.647
 4355POPC   GL255382  35.059   9.598   5.801
 4355POPC   C1A55383  35.518   9.649   6.116
 4355POPC   D2A55384  35.321   9.546   6.530
 4355POPC   C3A55385  35.520   9.427   6.879
 4355POPC   C4A55386  35.337   9.525   7.217
 4355POPC   C1B55387  35.034   9.830   6.210
 4355POPC   C2B55388  35.327  10.056   6.501
 4355POPC   C3B55389  35.470   9.947   6.917
 4355POPC   C4B55390  35.340  10.045   7.332
 4356POPC   NC355391  30.552  16.915   5.436
 4356POPC   PO455392  30.688  17.535   5.384
 4356POPC   GL155393  30.548  17.432   5.787
 4356POPC   GL255394  30.303  17.191   5.774
 4356POPC   C1A55395  30.712  17.560   6.175
 4356POPC   D2A55396  30.718  17.778   6.559
 4356POPC   C3A55397  30.956  17.597   6.891
 4356POPC   C4A55398  30.868  17.621   7.316
 4356POPC   C1B55399  30.297  17.175   6.196
 4356POPC   C2B55400  30.587  17.210   6.561
 4356POPC   C3B55401  30.385  17.102   6.932
 4356POPC   C4B55402  30.333  17.313   7.294
 4357POPC   NC355403  30.977   0.520   5.551
 4357POPC   PO455404  30.500   0.077   5.441
 4357POPC   GL155405  30.494   0.246   5.838
 4357POPC   GL255406  30.572   0.609   5.906
 4357POPC   C1A55407  30.656   0.246   6.248
 4357POPC   D2A55408  30.517   0.500   6.574
 4357POPC   C3A55409  30.764   0.326   6.884
 4357POPC   C4A55410  30.683   0.129   7.249
 4357POPC   C1B55411  30.797   0.825   6.262
 4357POPC   C2B55412  30.719   0.943   6.723
 4357POPC   C3B55413  30.485   0.727   7.081
 4357POPC   C4B55414  30.478   0.749   7.558
 4358POPC   NC355415  40.038  44.852   5.381
 4358POPC   PO455416  39.967  44.093   5.434
 4358POPC   GL155417  39.901  44.448   5.735
 4358POPC   GL255418  40.180  44.667   5.831
 4358POPC   C1A55419  39.927  44.460   6.208
 4358POPC   D2A55420  40.115  44.694   6.549
 4358POPC   C3A55421  39.899  44.550   6.938
 4358POPC   C4A55422  39.891  44.497   7.389
 4358POPC   C1B55423  39.941  44.974   6.108
 4358POPC   C2B55424  39.963   0.208   6.513
 4358POPC   C3B55425  39.910   0.066   6.932
 4358POPC   C4B55426  39.588  44.895   7.208
 4359POPC   NC355427  14.093  17.626   5.484
 4359POPC   PO455428  13.420  17.591   5.357
 4359POPC   GL155429  13.630  17.451   5.759
 4359POPC   GL255430  13.513  17.102   5.821
 4359POPC   C1A55431  13.761  17.535   6.220
 4359POPC   D2A55432  13.935  17.547   6.654
 4359POPC   C3A55433  13.608  17.631   6.908
 4359POPC   C4A55434  13.440  17.905   7.194
 4359POPC   C1B55435  13.723  17.038   6.201
 4359POPC   C2B55436  13.569  17.166   6.611
 4359POPC   C3B55437  13.702  17.154   7.026
 4359POPC   C4B55438  13.478  17.422   7.352
 4360POPC   NC355439  30.985   4.771   5.414
 4360POPC   PO455440  30.846   5.518   5.346
 4360POPC   GL155441  30.582   5.373   5.710
 4360POPC   GL255442  30.686   5.030   5.764
 4360POPC   C1A55443  30.706   5.328   6.168
 4360POPC   D2A55444  30.887   5.048   6.489
 4360POPC   C3A55445  30.819   5.208   6.899
 4360POPC   C4A55446  30.760   5.083   7.353
 4360POPC   C1B55447  30.529   4.843   6.159
 4360POPC   C2B55448  30.390   4.998   6.557
 4360POPC   C3B55449  30.462   4.863   6.969
 4360POPC   C4B55450  30.294   4.709   7.335
 4361POPC   NC355451  29.818  26.328   5.129
 4361POPC   PO455452  30.036  25.718   5.288
 4361POPC   GL155453  29.945  25.911   5.694
 4361POPC   GL255454  29.938  26.284   5.709
 4361POPC   C1A55455  30.162  25.999   6.092
 4361POPC   D2A55456  30.039  26.032   6.516
 4361POPC   C3A55457  30.300  25.991   6.867
 4361POPC   C4A55458  30.098  25.852   7.231
 4361POPC   C1B55459  29.770  26.353   6.153
 4361POPC   C2B55460  29.576  26.206   6.548
 4361POPC   C3B55461  29.816  26.259   6.938
 4361POPC   C4B55462  29.681  26.133   7.335
 4362POPC   NC355463  35.384  40.348   5.515
 4362POPC   PO455464  35.327  40.966   5.234
 4362POPC   GL155465  35.228  40.849   5.638
 4362POPC   GL255466  35.552  40.757   5.801
 4362POPC   C1A55467  35.170  41.032   6.057
 4362POPC   D2A55468  35.066  40.957   6.515
 4362POPC   C3A55469  35.312  41.048   6.920
 4362POPC   C4A55470  35.514  40.984   7.332
 4362POPC   C1B55471  35.456  40.659   6.258
 4362POPC   C2B55472  35.347  40.570   6.715
 4362POPC   C3B55473  35.465  40.508   7.144
 4362POPC   C4B55474  35.665  40.157   7.407
 4363POPC   NC355475  31.343  41.979   5.525
 4363POPC   PO455476  31.406  42.712   5.355
 4363POPC   GL155477  31.584  42.472   5.729
 4363POPC   GL255478  31.454  42.236   5.952
 4363POPC   C1A55479  31.737  42.584   6.180
 4363POPC   D2A55480  31.428  42.533   6.531
 4363POPC   C3A55481  31.566  42.621   6.977
 4363POPC   C4A55482  31.672  42.450   7.386
 4363POPC   C1B55483  31.666  42.092   6.340
 4363POPC   C2B55484  31.612  42.137   6.808
 4363POPC   C3B55485  31.326  42.087   7.142
 4363POPC   C4B55486  31.352  42.116   7.591
 4364POPC   NC355487  21.979   6.555   5.344
 4364POPC   PO455488  22.554   6.794   5.303
 4364POPC   GL155489  22.353   6.639   5.705
 4364POPC   GL255490  21.991   6.687   5.830
 4364POPC   C1A55491  22.393   6.641   6.164
 4364POPC   D2A55492  22.155   6.683   6.550
 4364POPC   C3A55493  22.307   6.557   6.950
 4364POPC   C4A55494  21.949   6.569   7.211
 4364POPC   C1B55495  21.883   6.292   6.029
 4364POPC   C2B55496  22.016   6.161   6.426
 4364POPC   C3B55497  21.866   6.263   6.825
 4364POPC   C4B55498  21.972   5.998   7.167
 4365POPC   NC355499  30.762  24.821   5.305
 4365POPC   PO455500  30.562  24.120   5.474
 4365POPC   GL155501  30.772  24.405   5.734
 4365POPC   GL255502  30.577  24.685   5.770
 4365POPC   C1A55503  30.861  24.303   6.191
 4365POPC   D2A55504  31.161  24.205   6.541
 4365POPC   C3A55505  30.947  24.228   6.949
 4365POPC   C4A55506  30.883  24.623   7.173
 4365POPC   C1B55507  30.451  24.625   6.214
 4365POPC   C2B55508  30.495  24.488   6.687
 4365POPC   C3B55509  30.407  24.456   7.147
 4365POPC   C4B55510  30.416  24.352   7.592
 4366POPC   NC355511  42.472   0.928   5.380
 4366POPC   PO455512  42.344   1.566   5.308
 4366POPC   GL155513  42.473   1.314   5.705
 4366POPC   GL255514  42.193   1.052   5.800
 4366POPC   C1A55515  42.582   1.243   6.152
 4366POPC   D2A55516  42.382   1.295   6.576
 4366POPC   C3A55517  42.605   1.238   6.960
 4366POPC   C4A55518  42.438   1.351   7.379
 4366POPC   C1B55519  42.086   0.984   6.245
 4366POPC   C2B55520  42.047   0.817   6.680
 4366POPC   C3B55521  42.188   1.002   7.086
 4366POPC   C4B55522  42.248   0.913   7.586
 4367POPC   NC355523   7.054  36.717   5.337
 4367POPC   PO455524   7.723  36.773   5.502
 4367POPC   GL155525   7.421  36.829   5.792
 4367POPC   GL255526   7.250  36.536   5.788
 4367POPC   C1A55527   7.292  37.040   6.156
 4367POPC   D2A55528   7.355  37.231   6.542
 4367POPC   C3A55529   7.062  37.166   6.892
 4367POPC   C4A55530   7.151  37.014   7.297
 4367POPC   C1B55531   7.281  36.525   6.212
 4367POPC   C2B55532   7.183  36.736   6.595
 4367POPC   C3B55533   7.470  36.857   6.920
 4367POPC   C4B55534   7.571  36.678   7.308
 4368POPC   NC355535   9.181  18.159   5.319
 4368POPC   PO455536   8.513  18.010   5.338
 4368POPC   GL155537   8.807  17.991   5.722
 4368POPC   GL255538   9.012  18.302   5.759
 4368POPC   C1A55539   9.032  17.986   6.139
 4368POPC   D2A55540   8.994  18.339   6.418
 4368POPC   C3A55541   8.948  18.281   6.838
 4368POPC   C4A55542   8.699  18.389   7.193
 4368POPC   C1B55543   9.319  18.501   6.041
 4368POPC   C2B55544   9.468  18.528   6.502
 4368POPC   C3B55545   9.353  18.585   6.938
 4368POPC   C4B55546   9.184  18.378   7.310
 4369POPC   NC355547  12.458  26.974   5.252
 4369POPC   PO455548  11.930  26.513   5.367
 4369POPC   GL155549  11.976  26.623   5.755
 4369POPC   GL255550  12.197  26.891   5.696
 4369POPC   C1A55551  11.913  26.726   6.175
 4369POPC   D2A55552  12.131  26.644   6.541
 4369POPC   C3A55553  12.005  26.653   6.966
 4369POPC   C4A55554  12.371  26.762   7.176
 4369POPC   C1B55555  12.110  27.179   6.033
 4369POPC   C2B55556  12.065  27.193   6.453
 4369POPC   C3B55557  12.213  27.156   6.853
 4369POPC   C4B55558  12.036  27.110   7.232
 4370POPC   NC355559  41.852  24.024   5.421
 4370POPC   PO455560  42.062  24.556   5.389
 4370POPC   GL155561  42.056  24.555   5.828
 4370POPC   GL255562  42.373  24.553   5.964
 4370POPC   C1A55563  41.989  24.242   6.186
 4370POPC   D2A55564  41.829  24.388   6.618
 4370POPC   C3A55565  42.104  24.265   6.991
 4370POPC   C4A55566  42.422  24.118   7.299
 4370POPC   C1B55567  42.324  24.535   6.449
 4370POPC   C2B55568  42.510  24.567   6.885
 4370POPC   C3B55569  42.810  24.442   7.215
 4370POPC   C4B55570  42.923  24.008   7.355
 4371POPC   NC355571  22.669  21.702   5.185
 4371POPC   PO455572  23.198  21.293   5.117
 4371POPC   GL155573  23.101  21.309   5.593
 4371POPC   GL255574  22.840  21.581   5.673
 4371POPC   C1A55575  23.030  21.284   6.074
 4371POPC   D2A55576  22.831  21.177   6.490
 4371POPC   C3A55577  23.072  21.317   6.849
 4371POPC   C4A55578  23.027  21.142   7.245
 4371POPC   C1B55579  22.740  21.741   6.087
 4371POPC   C2B55580  22.888  21.689   6.480
 4371POPC   C3B55581  22.720  21.699   6.853
 4371POPC   C4B55582  22.771  21.584   7.258
 4372POPC   NC355583   6.034  43.579   5.150
 4372POPC   PO455584   5.595  44.099   5.263
 4372POPC   GL155585   5.877  43.957   5.718
 4372POPC   GL255586   6.134  43.656   5.767
 4372POPC   C1A55587   6.055  43.939   6.206
 4372POPC   D2A55588   5.811  44.172   6.535
 4372POPC   C3A55589   5.631  44.050   6.927
 4372POPC   C4A55590   5.633  44.230   7.339
 4372POPC   C1B55591   5.903  43.478   6.132
 4372POPC   C2B55592   6.118  43.463   6.534
 4372POPC   C3B55593   6.023  43.701   6.888
 4372POPC   C4B55594   6.045  43.922   7.258
 4373POPC   NC355595  30.887  15.457   5.376
 4373POPC   PO455596  30.319  15.807   5.450
 4373POPC   GL155597  30.392  15.775   5.895
 4373POPC   GL255598  30.724  15.810   5.816
 4373POPC   C1A55599  30.327  15.881   6.351
 4373POPC   D2A55600  30.507  16.154   6.675
 4373POPC   C3A55601  30.508  16.003   7.102
 4373POPC   C4A55602  30.612  16.220   7.474
 4373POPC   C1B55603  30.800  16.038   6.209
 4373POPC   C2B55604  30.903  15.864   6.621
 4373POPC   C3B55605  30.924  15.701   7.049
 4373POPC   C4B55606  30.823  15.761   7.524
 4374POPC   NC355607  30.967  35.874   5.613
 4374POPC   PO455608  31.483  35.396   5.424
 4374POPC   GL155609  31.349  35.535   5.783
 4374POPC   GL255610  31.534  35.241   5.928
 4374POPC   C1A55611  31.177  35.495   6.199
 4374POPC   D2A55612  31.221  35.169   6.506
 4374POPC   C3A55613  31.151  35.348   6.915
 4374POPC   C4A55614  31.286  35.285   7.317
 4374POPC   C1B55615  31.652  34.974   6.276
 4374POPC   C2B55616  31.719  35.015   6.715
 4374POPC   C3B55617  31.724  35.074   7.159
 4374POPC   C4B55618  31.716  35.233   7.603
 4375POPC   NC355619  15.350  30.425   5.321
 4375POPC   PO455620  14.986  31.013   5.339
 4375POPC   GL155621  15.042  30.722   5.682
 4375POPC   GL255622  15.383  30.723   5.721
 4375POPC   C1A55623  14.919  30.699   6.123
 4375POPC   D2A55624  15.097  30.799   6.533
 4375POPC   C3A55625  14.867  30.817   6.897
 4375POPC   C4A55626  14.765  30.518   7.209
 4375POPC   C1B55627  15.467  30.775   6.130
 4375POPC   C2B55628  15.625  30.816   6.521
 4375POPC   C3B55629  15.479  30.764   6.903
 4375POPC   C4B55630  15.243  30.685   7.269
 4376POPC   NC355631  15.660  33.858   5.515
 4376POPC   PO455632  14.977  33.684   5.366
 4376POPC   GL155633  15.180  33.815   5.739
 4376POPC   GL255634  15.065  34.115   5.909
 4376POPC   C1A55635  15.238  33.683   6.167
 4376POPC   D2A55636  15.072  33.367   6.453
 4376POPC   C3A55637  15.232  33.381   6.857
 4376POPC   C4A55638  15.343  33.672   7.163
 4376POPC   C1B55639  14.945  34.067   6.332
 4376POPC   C2B55640  15.173  33.899   6.694
 4376POPC   C3B55641  15.280  34.164   7.052
 4376POPC   C4B55642  15.101  34.366   7.420
 4377POPC   NC355643  29.283  17.824   5.331
 4377POPC   PO455644  28.959  17.289   5.247
 4377POPC   GL155645  29.295  17.414   5.674
 4377POPC   GL255646  29.227  17.755   5.840
 4377POPC   C1A55647  29.301  17.376   6.211
 4377POPC   D2A55648  29.147  17.253   6.677
 4377POPC   C3A55649  29.311  17.376   7.122
 4377POPC   C4A55650  29.007  17.555   7.509
 4377POPC   C1B55651  29.084  17.826   6.269
 4377POPC   C2B55652  29.231  17.767   6.688
 4377POPC   C3B55653  29.017  17.789   7.066
 4377POPC   C4B55654  28.761  17.984   7.401
 4378POPC   NC355655  34.333  29.587   5.551
 4378POPC   PO455656  34.785  29.956   5.143
 4378POPC   GL155657  34.675  29.956   5.679
 4378POPC   GL255658  34.314  30.043   5.768
 4378POPC   C1A55659  34.784  29.809   6.139
 4378POPC   D2A55660  34.486  29.651   6.461
 4378POPC   C3A55661  34.607  29.841   6.826
 4378POPC   C4A55662  34.588  29.615   7.192
 4378POPC   C1B55663  34.370  30.097   6.218
 4378POPC   C2B55664  34.045  29.945   6.516
 4378POPC   C3B55665  34.105  29.749   6.915
 4378POPC   C4B55666  34.301  30.056   7.192
 4379POPC   NC355667  35.947  44.501   5.433
 4379POPC   PO455668  36.520  44.761   5.458
 4379POPC   GL155669  36.205  44.886   5.841
 4379POPC   GL255670  35.827  44.886   5.789
 4379POPC   C1A55671  36.010  44.901   6.294
 4379POPC   D2A55672  35.959   0.011   6.754
 4379POPC   C3A55673  36.163  44.772   7.104
 4379POPC   C4A55674  36.523  44.465   7.136
 4379POPC   C1B55675  35.825  44.474   6.061
 4379POPC   C2B55676  35.889  44.287   6.481
 4379POPC   C3B55677  36.033  44.231   6.907
 4379POPC   C4B55678  35.749  44.438   7.163
 4380POPC   NC355679  17.362   9.139   5.618
 4380POPC   PO455680  17.704   8.626   5.250
 4380POPC   GL155681  17.653   8.647   5.719
 4380POPC   GL255682  17.938   8.422   5.929
 4380POPC   C1A55683  17.401   8.713   6.120
 4380POPC   D2A55684  17.170   8.737   6.490
 4380POPC   C3A55685  17.212   9.082   6.723
 4380POPC   C4A55686  17.366   9.413   6.943
 4380POPC   C1B55687  17.883   8.756   6.245
 4380POPC   C2B55688  17.713   9.087   6.500
 4380POPC   C3B55689  17.699   9.007   6.938
 4380POPC   C4B55690  17.388   8.690   7.041
 4381POPC   NC355691  27.113  20.300   5.642
 4381POPC   PO455692  26.793  19.766   5.429
 4381POPC   GL155693  26.829  19.632   5.803
 4381POPC   GL255694  26.782  19.956   5.911
 4381POPC   C1A55695  26.995  19.606   6.216
 4381POPC   D2A55696  26.726  19.585   6.535
 4381POPC   C3A55697  26.991  19.551   6.860
 4381POPC   C4A55698  26.955  19.788   7.187
 4381POPC   C1B55699  26.950  20.131   6.262
 4381POPC   C2B55700  26.961  20.023   6.666
 4381POPC   C3B55701  26.948  20.264   7.000
 4381POPC   C4B55702  27.240  20.267   7.294
 4382POPC   NC355703   8.645  36.902   5.378
 4382POPC   PO455704   8.956  36.330   5.419
 4382POPC   GL155705   9.197  36.620   5.734
 4382POPC   GL255706   9.243  37.021   5.715
 4382POPC   C1A55707   8.993  36.781   6.127
 4382POPC   D2A55708   8.809  36.917   6.520
 4382POPC   C3A55709   8.754  36.585   6.836
 4382POPC   C4A55710   8.695  36.720   7.280
 4382POPC   C1B55711   9.416  37.076   6.146
 4382POPC   C2B55712   9.316  36.924   6.596
 4382POPC   C3B55713   9.046  36.984   6.996
 4382POPC   C4B55714   9.079  36.950   7.501
 4383POPC   NC355715  31.828  28.082   5.421
 4383POPC   PO455716  32.306  28.494   5.310
 4383POPC   GL155717  32.176  28.354   5.762
 4383POPC   GL255718  31.906  28.072   5.905
 4383POPC   C1A55719  32.421  28.487   6.155
 4383POPC   D2A55720  32.681  28.716   6.467
 4383POPC   C3A55721  32.506  28.744   6.889
 4383POPC   C4A55722  32.192  28.508   7.121
 4383POPC   C1B55723  31.913  28.410   6.217
 4383POPC   C2B55724  32.093  28.384   6.641
 4383POPC   C3B55725  31.950  28.078   6.971
 4383POPC   C4B55726  31.760  28.055   7.382
 4384POPC   NC355727  35.009   3.487   5.438
 4384POPC   PO455728  35.656   3.544   5.447
 4384POPC   GL155729  35.511   3.446   5.821
 4384POPC   GL255730  35.245   3.677   5.859
 4384POPC   C1A55731  35.569   3.635   6.235
 4384POPC   D2A55732  35.608   3.450   6.612
 4384POPC   C3A55733  35.642   3.650   6.998
 4384POPC   C4A55734  35.565   3.364   7.309
 4384POPC   C1B55735  35.093   3.408   6.155
 4384POPC   C2B55736  35.096   3.556   6.563
 4384POPC   C3B55737  35.174   3.421   6.960
 4384POPC   C4B55738  35.003   3.333   7.332
 4385POPC   NC355739   6.540  18.235   5.439
 4385POPC   PO455740   7.063  18.650   5.449
 4385POPC   GL155741   6.763  18.466   5.810
 4385POPC   GL255742   6.425  18.567   5.842
 4385POPC   C1A55743   6.509  18.205   6.192
 4385POPC   D2A55744   6.552  18.041   6.659
 4385POPC   C3A55745   6.302  18.068   7.071
 4385POPC   C4A55746   6.391  17.950   7.495
 4385POPC   C1B55747   6.777  18.622   6.266
 4385POPC   C2B55748   6.887  18.563   6.678
 4385POPC   C3B55749   6.696  18.401   7.039
 4385POPC   C4B55750   6.794  17.991   7.179
 4386POPC   NC355751  43.492  27.876   5.377
 4386POPC   PO455752  44.113  27.500   5.340
 4386POPC   GL155753  44.016  27.257   5.697
 4386POPC   GL255754  43.709  27.421   5.765
 4386POPC   C1A55755  44.069  27.219   6.105
 4386POPC   D2A55756  44.250  27.454   6.413
 4386POPC   C3A55757  44.170  27.392   6.850
 4386POPC   C4A55758  44.107  27.500   7.271
 4386POPC   C1B55759  43.831  27.662   6.135
 4386POPC   C2B55760  43.750  27.487   6.546
 4386POPC   C3B55761  43.661  27.565   6.977
 4386POPC   C4B55762  43.770  27.873   7.290
 4387POPC   NC355763  32.522  18.755   5.354
 4387POPC   PO455764  32.185  19.272   5.334
 4387POPC   GL155765  32.180  19.118   5.707
 4387POPC   GL255766  32.479  19.258   5.805
 4387POPC   C1A55767  32.088  19.140   6.126
 4387POPC   D2A55768  32.263  19.220   6.521
 4387POPC   C3A55769  32.055  18.939   6.801
 4387POPC   C4A55770  32.066  18.937   7.230
 4387POPC   C1B55771  32.573  18.982   6.159
 4387POPC   C2B55772  32.566  18.800   6.569
 4387POPC   C3B55773  32.567  18.979   6.991
 4387POPC   C4B55774  32.572  18.793   7.386
 4388POPC   NC355775  32.147  17.055   5.468
 4388POPC   PO455776  31.894  16.441   5.443
 4388POPC   GL155777  31.878  16.770   5.795
 4388POPC   GL255778  32.203  16.676   5.911
 4388POPC   C1A55779  31.914  16.942   6.234
 4388POPC   D2A55780  32.203  16.824   6.580
 4388POPC   C3A55781  32.191  17.005   7.011
 4388POPC   C4A55782  32.188  16.780   7.431
 4388POPC   C1B55783  32.440  17.013   6.135
 4388POPC   C2B55784  32.694  16.974   6.515
 4388POPC   C3B55785  32.689  17.126   6.910
 4388POPC   C4B55786  32.629  16.960   7.287
 4389POPC   NC355787   3.581  34.137   5.213
 4389POPC   PO455788   3.540  33.489   5.349
 4389POPC   GL155789   3.581  33.819   5.661
 4389POPC   GL255790   3.439  33.574   5.888
 4389POPC   C1A55791   3.669  33.983   6.091
 4389POPC   D2A55792   3.515  33.805   6.430
 4389POPC   C3A55793   3.535  33.984   6.829
 4389POPC   C4A55794   3.871  33.889   7.132
 4389POPC   C1B55795   3.647  33.337   6.220
 4389POPC   C2B55796   3.839  33.233   6.604
 4389POPC   C3B55797   3.757  33.386   7.029
 4389POPC   C4B55798   3.566  33.319   7.441
 4390POPC   NC355799  35.547  44.109   5.300
 4390POPC   PO455800  35.016  43.869   5.459
 4390POPC   GL155801  35.330  44.071   5.764
 4390POPC   GL255802  35.662  43.869   5.754
 4390POPC   C1A55803  35.517  44.063   6.193
 4390POPC   D2A55804  35.665  43.818   6.559
 4390POPC   C3A55805  35.593  43.962   6.985
 4390POPC   C4A55806  35.245  43.983   7.279
 4390POPC   C1B55807  35.623  43.537   6.098
 4390POPC   C2B55808  35.490  43.324   6.513
 4390POPC   C3B55809  35.364  43.440   6.947
 4390POPC   C4B55810  35.621  43.552   7.291
 4391POPC   NC355811  13.043  38.627   5.303
 4391POPC   PO455812  12.545  38.161   5.344
 4391POPC   GL155813  12.826  38.338   5.690
 4391POPC   GL255814  12.780  38.712   5.746
 4391POPC   C1A55815  13.085  38.406   6.090
 4391POPC   D2A55816  13.202  38.597   6.503
 4391POPC   C3A55817  13.076  38.413   6.915
 4391POPC   C4A55818  13.111  38.401   7.373
 4391POPC   C1B55819  12.641  38.665   6.173
 4391POPC   C2B55820  12.688  38.454   6.559
 4391POPC   C3B55821  12.543  38.685   6.915
 4391POPC   C4B55822  12.682  38.661   7.291
 4392POPC   NC355823   1.143  38.861   5.429
 4392POPC   PO455824   1.219  39.502   5.464
 4392POPC   GL155825   1.273  39.467   5.895
 4392POPC   GL255826   1.248  39.104   5.932
 4392POPC   C1A55827   1.096  39.367   6.322
 4392POPC   D2A55828   1.104  39.077   6.648
 4392POPC   C3A55829   0.954  39.268   7.018
 4392POPC   C4A55830   1.124  39.600   7.260
 4392POPC   C1B55831   1.514  38.999   6.318
 4392POPC   C2B55832   1.585  38.985   6.774
 4392POPC   C3B55833   1.408  39.122   7.184
 4392POPC   C4B55834   1.516  39.015   7.636
 4393POPC   NC355835  23.901   2.063   5.596
 4393POPC   PO455836  24.518   1.949   5.370
 4393POPC   GL155837  24.408   2.148   5.784
 4393POPC   GL255838  24.182   2.432   5.850
 4393POPC   C1A55839  24.620   2.258   6.180
 4393POPC   D2A55840  24.785   2.009   6.536
 4393POPC   C3A55841  24.547   2.002   6.916
 4393POPC   C4A55842  24.615   1.831   7.339
 4393POPC   C1B55843  24.086   2.164   6.239
 4393POPC   C2B55844  24.059   2.136   6.711
 4393POPC   C3B55845  24.224   2.381   7.076
 4393POPC   C4B55846  24.376   2.246   7.510
 4394POPC   NC355847  35.498  11.845   5.551
 4394POPC   PO455848  35.081  12.440   5.562
 4394POPC   GL155849  35.362  12.258   5.900
 4394POPC   GL255850  35.218  11.930   5.998
 4394POPC   C1A55851  35.399  12.232   6.385
 4394POPC   D2A55852  35.483  12.405   6.797
 4394POPC   C3A55853  35.146  12.248   7.041
 4394POPC   C4A55854  35.065  11.849   7.170
 4394POPC   C1B55855  35.620  11.832   6.191
 4394POPC   C2B55856  35.723  11.637   6.604
 4394POPC   C3B55857  35.566  11.872   6.954
 4394POPC   C4B55858  35.785  11.792   7.283
 4395POPC   NC355859  16.118  20.881   5.507
 4395POPC   PO455860  15.610  20.382   5.482
 4395POPC   GL155861  15.805  20.602   5.792
 4395POPC   GL255862  16.110  20.418   5.777
 4395POPC   C1A55863  15.832  20.893   6.146
 4395POPC   D2A55864  16.001  20.836   6.551
 4395POPC   C3A55865  15.738  20.841   6.922
 4395POPC   C4A55866  15.983  20.754   7.239
 4395POPC   C1B55867  16.001  20.391   6.240
 4395POPC   C2B55868  16.042  20.336   6.698
 4395POPC   C3B55869  16.055  20.271   7.153
 4395POPC   C4B55870  15.920  20.390   7.604
 4396POPC   NC355871  43.579  35.050   5.474
 4396POPC   PO455872  44.269  35.231   5.374
 4396POPC   GL155873  44.051  35.113   5.744
 4396POPC   GL255874  43.814  35.364   5.812
 4396POPC   C1A55875  43.975  35.127   6.212
 4396POPC   D2A55876  44.104  35.136   6.619
 4396POPC   C3A55877  43.839  35.212   6.956
 4396POPC   C4A55878  44.198  35.212   7.180
 4396POPC   C1B55879  43.574  35.441   6.196
 4396POPC   C2B55880  43.673  35.565   6.618
 4396POPC   C3B55881  43.508  35.610   7.060
 4396POPC   C4B55882  43.439  35.511   7.516
 4397POPC   NC355883  44.860   0.300   5.314
 4397POPC   PO455884  44.204   0.439   5.366
 4397POPC   GL155885  44.546   0.414   5.673
 4397POPC   GL255886  44.528   0.749   5.750
 4397POPC   C1A55887  44.767   0.189   6.016
 4397POPC   D2A55888  44.820   0.139   6.463
 4397POPC   C3A55889  44.777   0.381   6.870
 4397POPC   C4A55890  44.813   0.267   7.347
 4397POPC   C1B55891  44.822   0.701   6.073
 4397POPC   C2B55892  44.749   0.747   6.482
 4397POPC   C3B55893  44.611   0.907   6.839
 4397POPC   C4B55894  44.631   0.783   7.257
 4398POPC   NC355895  28.920  37.882   5.434
 4398POPC   PO455896  29.357  37.486   5.302
 4398POPC   GL155897  29.214  37.630   5.767
 4398POPC   GL255898  29.311  37.999   5.874
 4398POPC   C1A55899  28.949  37.780   6.143
 4398POPC   D2A55900  28.951  37.769   6.606
 4398POPC   C3A55901  29.184  37.717   6.981
 4398POPC   C4A55902  29.139  37.366   7.279
 4398POPC   C1B55903  29.440  37.719   6.252
 4398POPC   C2B55904  29.352  37.409   6.606
 4398POPC   C3B55905  29.587  37.366   7.017
 4398POPC   C4B55906  29.600  37.351   7.509
 4399POPC   NC355907   8.741  43.206   5.275
 4399POPC   PO455908   8.135  42.979   5.433
 4399POPC   GL155909   8.127  43.253   5.782
 4399POPC   GL255910   8.477  43.406   5.731
 4399POPC   C1A55911   7.994  43.033   6.182
 4399POPC   D2A55912   8.153  42.922   6.574
 4399POPC   C3A55913   8.109  43.213   6.916
 4399POPC   C4A55914   7.877  43.001   7.223
 4399POPC   C1B55915   8.478  43.147   6.140
 4399POPC   C2B55916   8.636  43.098   6.549
 4399POPC   C3B55917   8.535  42.919   6.931
 4399POPC   C4B55918   8.656  43.149   7.249
 4400POPC   NC355919  37.589   5.228   5.431
 4400POPC   PO455920  37.859   4.585   5.299
 4400POPC   GL155921  37.808   4.815   5.721
 4400POPC   GL255922  37.456   4.941   5.840
 4400POPC   C1A55923  37.882   5.001   6.171
 4400POPC   D2A55924  37.622   4.976   6.581
 4400POPC   C3A55925  37.753   4.998   7.028
 4400POPC   C4A55926  37.895   5.286   7.354
 4400POPC   C1B55927  37.523   5.348   6.104
 4400POPC   C2B55928  37.668   5.498   6.519
 4400POPC   C3B55929  37.517   5.575   6.936
 4400POPC   C4B55930  37.392   5.314   7.291
 4401POPC   NC355931  10.191  11.095   5.241
 4401POPC   PO455932  10.758  11.439   5.365
 4401POPC   GL155933  10.664  11.123   5.732
 4401POPC   GL255934  10.270  11.018   5.759
 4401POPC   C1A55935  10.873  11.056   6.163
 4401POPC   D2A55936  10.757  11.250   6.565
 4401POPC   C3A55937  10.839  11.299   7.014
 4401POPC   C4A55938  10.571  11.625   7.235
 4401POPC   C1B55939  10.064  10.828   6.128
 4401POPC   C2B55940  10.304  10.952   6.510
 4401POPC   C3B55941  10.337  11.237   6.877
 4401POPC   C4B55942  10.445  11.133   7.291
 4402POPC   NC355943  26.930  23.545   5.463
 4402POPC   PO455944  26.638  24.186   5.463
 4402POPC   GL155945  26.722  23.910   5.808
 4402POPC   GL255946  27.077  24.006   5.840
 4402POPC   C1A55947  26.780  23.622   6.184
 4402POPC   D2A55948  26.982  23.420   6.569
 4402POPC   C3A55949  26.811  23.544   6.962
 4402POPC   C4A55950  26.518  23.612   7.296
 4402POPC   C1B55951  26.966  24.082   6.274
 4402POPC   C2B55952  26.706  23.957   6.637
 4402POPC   C3B55953  26.701  24.040   7.067
 4402POPC   C4B55954  26.950  23.867   7.377
 4403POPC   NC355955  42.184  25.646   5.430
 4403POPC   PO455956  42.501  26.316   5.438
 4403POPC   GL155957  42.304  26.148   5.761
 4403POPC   GL255958  42.456  25.841   5.870
 4403POPC   C1A55959  42.307  26.283   6.179
 4403POPC   D2A55960  42.089  26.267   6.559
 4403POPC   C3A55961  42.336  26.271   6.914
 4403POPC   C4A55962  42.079  26.051   7.191
 4403POPC   C1B55963  42.453  25.812   6.315
 4403POPC   C2B55964  42.285  25.808   6.721
 4403POPC   C3B55965  42.482  25.757   7.104
 4403POPC   C4B55966  42.552  25.554   7.524
 4404POPC   NC355967   9.219  32.899   5.544
 4404POPC   PO455968   8.624  33.106   5.514
 4404POPC   GL155969   8.867  33.038   5.901
 4404POPC   GL255970   9.132  33.297   5.866
 4404POPC   C1A55971   8.941  33.187   6.339
 4404POPC   D2A55972   8.926  33.313   6.762
 4404POPC   C3A55973   8.981  32.901   6.898
 4404POPC   C4A55974   8.834  32.614   7.204
 4404POPC   C1B55975   9.412  33.079   6.167
 4404POPC   C2B55976   9.395  33.137   6.628
 4404POPC   C3B55977   9.464  32.963   7.017
 4404POPC   C4B55978   9.197  33.089   7.320
 4405POPC   NC355979  29.608  21.176   5.459
 4405POPC   PO455980  30.148  21.620   5.332
 4405POPC   GL155981  30.022  21.346   5.705
 4405POPC   GL255982  29.711  21.502   5.830
 4405POPC   C1A55983  30.052  21.169   6.147
 4405POPC   D2A55984  29.891  21.404   6.517
 4405POPC   C3A55985  30.060  21.387   6.921
 4405POPC   C4A55986  29.994  21.131   7.257
 4405POPC   C1B55987  29.549  21.222   6.149
 4405POPC   C2B55988  29.485  21.038   6.544
 4405POPC   C3B55989  29.563  21.240   6.912
 4405POPC   C4B55990  29.610  21.505   7.274
 4406POPC   NC355991  33.292  16.259   5.341
 4406POPC   PO455992  32.830  15.875   5.480
 4406POPC   GL155993  33.072  16.130   5.834
 4406POPC   GL255994  33.454  16.083   5.834
 4406POPC   C1A55995  33.023  16.220   6.316
 4406POPC   D2A55996  32.974  16.269   6.792
 4406POPC   C3A55997  32.649  16.049   7.066
 4406POPC   C4A55998  32.712  16.069   7.554
 4406POPC   C1B55999  33.275  15.788   6.184
 4406POPC   C2B56000  33.037  15.769   6.608
 4406POPC   C3B56001  33.096  15.818   7.067
 4406POPC   C4B56002  33.332  15.530   7.311
 4407POPC   NC356003  13.299  16.299   5.593
 4407POPC   PO456004  13.631  15.742   5.303
 4407POPC   GL156005  13.646  15.894   5.772
 4407POPC   GL256006  13.327  15.968   5.974
 4407POPC   C1A56007  13.687  15.732   6.235
 4407POPC   D2A56008  13.486  15.806   6.642
 4407POPC   C3A56009  13.597  15.706   7.078
 4407POPC   C4A56010  13.857  15.873   7.431
 4407POPC   C1B56011  13.505  16.209   6.299
 4407POPC   C2B56012  13.575  16.332   6.718
 4407POPC   C3B56013  13.663  16.220   7.107
 4407POPC   C4B56014  13.445  16.164   7.488
 4408POPC   NC356015  32.110  21.926   5.062
 4408POPC   PO456016  32.447  22.383   5.478
 4408POPC   GL156017  32.199  22.536   5.834
 4408POPC   GL256018  32.304  22.237   6.011
 4408POPC   C1A56019  32.115  22.601   6.303
 4408POPC   D2A56020  32.258  22.275   6.586
 4408POPC   C3A56021  32.242  22.398   7.003
 4408POPC   C4A56022  32.367  22.078   7.256
 4408POPC   C1B56023  32.044  21.939   6.242
 4408POPC   C2B56024  32.002  21.783   6.659
 4408POPC   C3B56025  31.925  21.992   7.033
 4408POPC   C4B56026  31.957  21.846   7.476
 4409POPC   NC356027   5.397  18.146   5.741
 4409POPC   PO456028   6.063  18.224   5.518
 4409POPC   GL156029   5.874  18.269   5.898
 4409POPC   GL256030   5.703  18.593   5.966
 4409POPC   C1A56031   5.793  18.024   6.282
 4409POPC   D2A56032   6.030  17.935   6.660
 4409POPC   C3A56033   5.798  18.013   7.061
 4409POPC   C4A56034   5.920  18.156   7.482
 4409POPC   C1B56035   5.944  18.535   6.323
 4409POPC   C2B56036   5.707  18.378   6.671
 4409POPC   C3B56037   5.724  18.521   7.062
 4409POPC   C4B56038   6.113  18.563   7.245
 4410POPC   NC356039   3.812   3.891   5.406
 4410POPC   PO456040   3.554   3.329   5.320
 4410POPC   GL156041   3.543   3.569   5.739
 4410POPC   GL256042   3.917   3.597   5.812
 4410POPC   C1A56043   3.243   3.781   6.107
 4410POPC   D2A56044   3.138   3.962   6.533
 4410POPC   C3A56045   3.134   3.665   6.899
 4410POPC   C4A56046   3.252   3.596   7.338
 4410POPC   C1B56047   3.717   3.641   6.212
 4410POPC   C2B56048   3.552   3.655   6.597
 4410POPC   C3B56049   3.625   3.654   7.019
 4410POPC   C4B56050   3.807   3.619   7.429
 4411POPC   NC356051  22.097  31.897   5.300
 4411POPC   PO456052  22.304  32.602   5.352
 4411POPC   GL156053  22.335  32.272   5.700
 4411POPC   GL256054  22.012  32.117   5.760
 4411POPC   C1A56055  22.310  32.232   6.182
 4411POPC   D2A56056  22.090  32.447   6.575
 4411POPC   C3A56057  22.382  32.444   6.941
 4411POPC   C4A56058  22.425  32.036   7.149
 4411POPC   C1B56059  21.913  31.874   6.125
 4411POPC   C2B56060  21.908  31.729   6.552
 4411POPC   C3B56061  21.729  32.027   6.847
 4411POPC   C4B56062  21.936  32.309   7.130
 4412POPC   NC356063  23.374  12.997   5.594
 4412POPC   PO456064  22.660  12.830   5.630
 4412POPC   GL156065  23.033  12.724   5.899
 4412POPC   GL256066  22.877  13.006   6.084
 4412POPC   C1A56067  23.191  12.466   6.287
 4412POPC   D2A56068  23.055  12.403   6.749
 4412POPC   C3A56069  22.812  12.716   6.998
 4412POPC   C4A56070  22.861  13.022   7.344
 4412POPC   C1B56071  23.257  12.979   6.309
 4412POPC   C2B56072  23.389  13.070   6.706
 4412POPC   C3B56073  23.290  12.886   7.099
 4412POPC   C4B56074  23.337  13.111   7.467
 4413POPC   NC356075  35.931  23.266   5.388
 4413POPC   PO456076  36.393  22.798   5.384
 4413POPC   GL156077  36.126  22.918   5.737
 4413POPC   GL256078  36.055  22.568   5.784
 4413POPC   C1A56079  36.153  23.152   6.151
 4413POPC   D2A56080  36.050  23.019   6.578
 4413POPC   C3A56081  36.135  23.205   6.981
 4413POPC   C4A56082  35.821  23.164   7.289
 4413POPC   C1B56083  36.323  22.665   6.153
 4413POPC   C2B56084  36.251  22.556   6.592
 4413POPC   C3B56085  36.184  22.699   7.027
 4413POPC   C4B56086  35.838  22.595   7.297
 4414POPC   NC356087   4.754  39.809   5.508
 4414POPC   PO456088   5.377  40.125   5.441
 4414POPC   GL156089   5.142  40.002   5.781
 4414POPC   GL256090   4.878  40.248   5.832
 4414POPC   C1A56091   5.211  39.975   6.202
 4414POPC   D2A56092   5.077  40.232   6.525
 4414POPC   C3A56093   5.236  40.022   6.875
 4414POPC   C4A56094   5.226  39.834   7.284
 4414POPC   C1B56095   4.695  39.999   6.168
 4414POPC   C2B56096   4.724  39.846   6.606
 4414POPC   C3B56097   4.773  39.903   7.054
 4414POPC   C4B56098   4.799  39.756   7.522
 4415POPC   NC356099  30.368  19.224   5.363
 4415POPC   PO456100  30.801  18.781   5.662
 4415POPC   GL156101  30.581  19.099   5.869
 4415POPC   GL256102  30.876  19.296   5.972
 4415POPC   C1A56103  30.560  19.082   6.330
 4415POPC   D2A56104  30.731  19.280   6.682
 4415POPC   C3A56105  30.495  19.066   6.972
 4415POPC   C4A56106  30.484  18.924   7.383
 4415POPC   C1B56107  31.059  18.998   6.280
 4415POPC   C2B56108  30.895  18.796   6.693
 4415POPC   C3B56109  31.002  19.007   7.071
 4415POPC   C4B56110  30.797  19.331   7.330
 4416POPC   NC356111  24.780  41.682   5.356
 4416POPC   PO456112  24.129  41.502   5.346
 4416POPC   GL156113  24.311  41.413   5.745
 4416POPC   GL256114  24.513  41.702   5.807
 4416POPC   C1A56115  24.212  41.511   6.193
 4416POPC   D2A56116  24.390  41.616   6.591
 4416POPC   C3A56117  24.269  41.501   7.007
 4416POPC   C4A56118  24.580  41.267   7.226
 4416POPC   C1B56119  24.726  41.606   6.191
 4416POPC   C2B56120  24.870  41.807   6.558
 4416POPC   C3B56121  24.755  41.678   6.958
 4416POPC   C4B56122  24.806  41.751   7.368
 4417POPC   NC356123  20.959  21.119   5.561
 4417POPC   PO456124  20.336  21.396   5.642
 4417POPC   GL156125  20.712  21.444   5.924
 4417POPC   GL256126  20.636  21.127   6.024
 4417POPC   C1A56127  20.886  21.473   6.376
 4417POPC   D2A56128  20.951  21.162   6.711
 4417POPC   C3A56129  20.707  21.309   7.069
 4417POPC   C4A56130  20.692  21.467   7.514
 4417POPC   C1B56131  20.352  21.388   6.315
 4417POPC   C2B56132  20.330  21.625   6.718
 4417POPC   C3B56133  20.270  21.552   7.175
 4417POPC   C4B56134  20.205  21.465   7.635
 4418POPC   NC356135  31.939  11.414   5.337
 4418POPC   PO456136  32.607  11.551   5.360
 4418POPC   GL156137  32.429  11.664   5.772
 4418POPC   GL256138  32.082  11.593   5.781
 4418POPC   C1A56139  32.331  11.543   6.207
 4418POPC   D2A56140  32.427  11.327   6.565
 4418POPC   C3A56141  32.107  11.375   6.838
 4418POPC   C4A56142  32.237  11.533   7.214
 4418POPC   C1B56143  31.969  11.217   6.045
 4418POPC   C2B56144  31.868  11.083   6.472
 4418POPC   C3B56145  31.802  10.891   6.873
 4418POPC   C4B56146  31.935  11.112   7.232
 4419POPC   NC356147  34.806  13.022   5.517
 4419POPC   PO456148  34.183  12.879   5.528
 4419POPC   GL156149  34.413  12.935   5.875
 4419POPC   GL256150  34.682  12.652   5.845
 4419POPC   C1A56151  34.191  12.840   6.258
 4419POPC   D2A56152  34.355  12.937   6.608
 4419POPC   C3A56153  34.210  12.780   6.956
 4419POPC   C4A56154  34.302  12.900   7.352
 4419POPC   C1B56155  34.690  12.725   6.266
 4419POPC   C2B56156  34.864  13.013   6.567
 4419POPC   C3B56157  34.693  13.016   6.980
 4419POPC   C4B56158  34.671  12.598   7.156
 4420POPC   NC356159  28.076  34.035   5.663
 4420POPC   PO456160  28.529  33.556   5.248
 4420POPC   GL156161  28.462  33.705   5.646
 4420POPC   GL256162  28.652  33.995   5.681
 4420POPC   C1A56163  28.437  33.569   6.092
 4420POPC   D2A56164  28.278  33.718   6.500
 4420POPC   C3A56165  28.510  33.556   6.880
 4420POPC   C4A56166  28.393  33.707   7.286
 4420POPC   C1B56167  28.546  34.093   6.130
 4420POPC   C2B56168  28.300  34.238   6.505
 4420POPC   C3B56169  28.289  34.132   6.945
 4420POPC   C4B56170  27.961  34.015   7.210
 4421POPC   NC356171  26.970  33.097   5.324
 4421POPC   PO456172  26.292  33.010   5.323
 4421POPC   GL156173  26.580  32.980   5.752
 4421POPC   GL256174  26.951  33.015   5.817
 4421POPC   C1A56175  26.737  32.789   6.208
 4421POPC   D2A56176  26.700  32.516   6.602
 4421POPC   C3A56177  26.799  32.711   7.005
 4421POPC   C4A56178  26.727  33.127   7.147
 4421POPC   C1B56179  27.151  33.270   6.141
 4421POPC   C2B56180  27.353  33.381   6.551
 4421POPC   C3B56181  27.167  33.345   6.959
 4421POPC   C4B56182  27.167  33.155   7.371
 4422POPC   NC356183  17.126   0.820   5.489
 4422POPC   PO456184  17.674   1.354   5.486
 4422POPC   GL156185  17.463   1.083   5.787
 4422POPC   GL256186  17.771   0.973   5.989
 4422POPC   C1A56187  17.271   0.909   6.195
 4422POPC   D2A56188  17.458   1.003   6.629
 4422POPC   C3A56189  17.208   1.072   7.013
 4422POPC   C4A56190  17.268   0.903   7.421
 4422POPC   C1B56191  17.576   1.320   6.208
 4422POPC   C2B56192  17.588   1.541   6.556
 4422POPC   C3B56193  17.791   1.406   6.885
 4422POPC   C4B56194  17.617   1.334   7.237
 4423POPC   NC356195  32.797  32.895   5.424
 4423POPC   PO456196  33.389  32.563   5.533
 4423POPC   GL156197  33.089  32.828   5.816
 4423POPC   GL256198  32.973  33.218   5.778
 4423POPC   C1A56199  32.771  32.900   6.126
 4423POPC   D2A56200  32.978  32.942   6.499
 4423POPC   C3A56201  32.771  32.962   6.844
 4423POPC   C4A56202  32.873  32.835   7.230
 4423POPC   C1B56203  32.886  33.412   6.196
 4423POPC   C2B56204  32.974  33.424   6.658
 4423POPC   C3B56205  33.176  33.242   7.037
 4423POPC   C4B56206  33.092  33.217   7.488
 4424POPC   NC356207   7.462   7.815   5.402
 4424POPC   PO456208   7.269   7.179   5.403
 4424POPC   GL156209   7.454   7.383   5.730
 4424POPC   GL256210   7.263   7.620   5.835
 4424POPC   C1A56211   7.568   7.256   6.140
 4424POPC   D2A56212   7.404   7.339   6.543
 4424POPC   C3A56213   7.556   7.174   6.919
 4424POPC   C4A56214   7.401   7.266   7.334
 4424POPC   C1B56215   7.403   7.749   6.209
 4424POPC   C2B56216   7.581   7.833   6.592
 4424POPC   C3B56217   7.421   7.700   6.935
 4424POPC   C4B56218   7.586   7.716   7.315
 4425POPC   NC356219  39.823  28.901   5.397
 4425POPC   PO456220  40.366  29.327   5.246
 4425POPC   GL156221  40.105  29.312   5.646
 4425POPC   GL256222  40.236  28.980   5.755
 4425POPC   C1A56223  39.955  29.246   6.109
 4425POPC   D2A56224  40.119  29.268   6.550
 4425POPC   C3A56225  39.876  29.182   6.982
 4425POPC   C4A56226  39.834  29.397   7.425
 4425POPC   C1B56227  40.391  28.982   6.196
 4425POPC   C2B56228  40.361  28.832   6.632
 4425POPC   C3B56229  40.367  29.124   6.986
 4425POPC   C4B56230  40.233  29.105   7.400
 4426POPC   NC356231   1.268   1.166   5.445
 4426POPC   PO456232   0.712   1.451   5.616
 4426POPC   GL156233   1.049   1.239   5.884
 4426POPC   GL256234   1.464   1.381   5.841
 4426POPC   C1A56235   1.075   0.998   6.260
 4426POPC   D2A56236   0.940   0.912   6.687
 4426POPC   C3A56237   1.093   1.152   7.036
 4426POPC   C4A56238   0.885   1.463   7.271
 4426POPC   C1B56239   1.577   1.160   6.195
 4426POPC   C2B56240   1.442   1.035   6.612
 4426POPC   C3B56241   1.610   1.208   6.980
 4426POPC   C4B56242   1.490   1.137   7.374
 4427POPC   NC356243  14.618  11.615   5.045
 4427POPC   PO456244  14.388  11.244   5.522
 4427POPC   GL156245  14.549  11.421   5.876
 4427POPC   GL256246  14.887  11.561   5.902
 4427POPC   C1A56247  14.561  11.269   6.268
 4427POPC   D2A56248  14.393  11.092   6.625
 4427POPC   C3A56249  14.467  11.183   7.025
 4427POPC   C4A56250  14.250  10.908   7.243
 4427POPC   C1B56251  14.783  11.755   6.251
 4427POPC   C2B56252  14.730  11.592   6.627
 4427POPC   C3B56253  14.805  11.779   6.970
 4427POPC   C4B56254  14.660  11.576   7.298
 4428POPC   NC356255  24.876   3.441   5.368
 4428POPC   PO456256  24.305   3.825   5.307
 4428POPC   GL156257  24.262   3.681   5.802
 4428POPC   GL256258  24.447   3.336   5.879
 4428POPC   C1A56259  24.157   3.588   6.260
 4428POPC   D2A56260  23.941   3.671   6.674
 4428POPC   C3A56261  24.236   3.754   7.028
 4428POPC   C4A56262  24.400   3.653   7.452
 4428POPC   C1B56263  24.591   3.320   6.277
 4428POPC   C2B56264  24.384   3.340   6.667
 4428POPC   C3B56265  24.599   3.383   7.020
 4428POPC   C4B56266  24.600   3.201   7.364
 4429POPC   NC356267  25.624   4.738   5.229
 4429POPC   PO456268  25.162   4.317   5.463
 4429POPC   GL156269  25.276   4.395   5.859
 4429POPC   GL256270  25.576   4.558   5.760
 4429POPC   C1A56271  25.160   4.456   6.268
 4429POPC   D2A56272  25.332   4.193   6.579
 4429POPC   C3A56273  25.281   4.293   6.974
 4429POPC   C4A56274  25.181   4.165   7.382
 4429POPC   C1B56275  25.529   4.793   6.165
 4429POPC   C2B56276  25.631   4.634   6.552
 4429POPC   C3B56277  25.579   4.753   6.963
 4429POPC   C4B56278  25.205   4.775   7.200
 4430POPC   NC356279  26.441  40.822   5.309
 4430POPC   PO456280  27.117  40.926   5.401
 4430POPC   GL156281  26.967  41.061   5.828
 4430POPC   GL256282  26.612  41.062   5.793
 4430POPC   C1A56283  26.906  40.939   6.271
 4430POPC   D2A56284  27.045  40.855   6.692
 4430POPC   C3A56285  26.806  40.961   7.044
 4430POPC   C4A56286  26.726  40.785   7.438
 4430POPC   C1B56287  26.410  41.015   6.209
 4430POPC   C2B56288  26.481  40.917   6.658
 4430POPC   C3B56289  26.299  41.071   7.077
 4430POPC   C4B56290  26.251  40.937   7.540
 4431POPC   NC356291  41.311   5.677   5.342
 4431POPC   PO456292  41.980   5.660   5.424
 4431POPC   GL156293  41.779   5.992   5.689
 4431POPC   GL256294  41.385   6.032   5.787
 4431POPC   C1A56295  41.770   5.946   6.136
 4431POPC   D2A56296  41.487   5.671   6.351
 4431POPC   C3A56297  41.549   5.594   6.773
 4431POPC   C4A56298  41.278   5.762   7.088
 4431POPC   C1B56299  41.079   6.025   6.177
 4431POPC   C2B56300  41.005   5.965   6.626
 4431POPC   C3B56301  41.253   6.248   6.885
 4431POPC   C4B56302  41.417   6.263   7.288
 4432POPC   NC356303  31.902  17.714   5.419
 4432POPC   PO456304  32.518  17.328   5.416
 4432POPC   GL156305  32.313  17.450   5.800
 4432POPC   GL256306  31.972  17.553   5.890
 4432POPC   C1A56307  32.405  17.541   6.232
 4432POPC   D2A56308  32.335  17.378   6.633
 4432POPC   C3A56309  32.477  17.597   7.018
 4432POPC   C4A56310  32.434  17.400   7.419
 4432POPC   C1B56311  31.742  17.781   6.209
 4432POPC   C2B56312  31.888  17.756   6.590
 4432POPC   C3B56313  31.910  17.494   6.922
 4432POPC   C4B56314  31.995  17.607   7.307
 4433POPC   NC356315  21.275  30.798   5.297
 4433POPC   PO456316  21.457  30.176   5.237
 4433POPC   GL156317  21.392  30.447   5.658
 4433POPC   GL256318  21.090  30.720   5.771
 4433POPC   C1A56319  21.474  30.590   6.102
 4433POPC   D2A56320  21.421  30.467   6.547
 4433POPC   C3A56321  21.652  30.744   6.823
 4433POPC   C4A56322  21.754  30.755   7.264
 4433POPC   C1B56323  21.282  31.090   6.044
 4433POPC   C2B56324  21.276  31.159   6.522
 4433POPC   C3B56325  21.158  30.850   6.848
 4433POPC   C4B56326  21.235  30.752   7.302
 4434POPC   NC356327  40.376  30.777   5.348
 4434POPC   PO456328  39.780  31.059   5.377
 4434POPC   GL156329  39.895  30.717   5.740
 4434POPC   GL256330  40.216  30.624   5.814
 4434POPC   C1A56331  39.816  30.713   6.239
 4434POPC   D2A56332  39.855  30.992   6.628
 4434POPC   C3A56333  39.812  30.925   7.106
 4434POPC   C4A56334  39.966  30.748   7.535
 4434POPC   C1B56335  40.346  30.588   6.236
 4434POPC   C2B56336  40.123  30.512   6.633
 4434POPC   C3B56337  40.090  30.497   7.084
 4434POPC   C4B56338  40.418  30.618   7.335
 4435POPC   NC356339  40.371  10.195   5.472
 4435POPC   PO456340  40.825   9.671   5.439
 4435POPC   GL156341  40.699   9.848   5.812
 4435POPC   GL256342  41.034   9.746   5.944
 4435POPC   C1A56343  40.569   9.728   6.224
 4435POPC   D2A56344  40.770   9.713   6.616
 4435POPC   C3A56345  40.473   9.651   6.927
 4435POPC   C4A56346  40.585   9.689   7.320
 4435POPC   C1B56347  40.925  10.118   6.201
 4435POPC   C2B56348  40.861  10.233   6.610
 4435POPC   C3B56349  41.059  10.113   6.922
 4435POPC   C4B56350  41.068   9.704   7.064
 4436POPC   NC356351   7.547  40.278   5.393
 4436POPC   PO456352   7.087  39.759   5.335
 4436POPC   GL156353   7.285  40.029   5.728
 4436POPC   GL256354   7.100  40.319   5.705
 4436POPC   C1A56355   7.475  39.966   6.183
 4436POPC   D2A56356   7.425  39.694   6.581
 4436POPC   C3A56357   7.399  39.917   6.969
 4436POPC   C4A56358   7.357  40.052   7.376
 4436POPC   C1B56359   7.081  40.302   6.162
 4436POPC   C2B56360   7.111  40.328   6.629
 4436POPC   C3B56361   6.982  40.231   7.058
 4436POPC   C4B56362   6.863  40.238   7.503
 4437POPC   NC356363   7.845   6.787   5.500
 4437POPC   PO456364   8.368   6.396   5.247
 4437POPC   GL156365   8.219   6.530   5.684
 4437POPC   GL256366   7.930   6.393   5.853
 4437POPC   C1A56367   8.248   6.710   6.132
 4437POPC   D2A56368   8.150   6.653   6.596
 4437POPC   C3A56369   8.088   6.986   6.937
 4437POPC   C4A56370   8.147   6.912   7.401
 4437POPC   C1B56371   8.007   6.234   6.259
 4437POPC   C2B56372   8.097   6.112   6.652
 4437POPC   C3B56373   8.267   6.294   7.005
 4437POPC   C4B56374   8.072   6.410   7.391
 4438POPC   NC356375  36.772  16.825   5.575
 4438POPC   PO456376  37.284  16.327   5.449
 4438POPC   GL156377  37.203  16.619   5.842
 4438POPC   GL256378  36.837  16.547   5.991
 4438POPC   C1A56379  37.172  16.678   6.324
 4438POPC   D2A56380  36.754  16.541   6.510
 4438POPC   C3A56381  36.711  16.626   6.930
 4438POPC   C4A56382  37.039  16.733   7.178
 4438POPC   C1B56383  36.734  16.970   6.218
 4438POPC   C2B56384  36.546  17.171   6.624
 4438POPC   C3B56385  36.637  17.111   7.084
 4438POPC   C4B56386  36.771  17.012   7.522
 4439POPC   NC356387  25.020  30.345   5.492
 4439POPC   PO456388  25.336  30.799   5.211
 4439POPC   GL156389  25.256  30.772   5.671
 4439POPC   GL256390  25.408  30.477   5.815
 4439POPC   C1A56391  25.029  30.770   6.093
 4439POPC   D2A56392  25.259  30.779   6.474
 4439POPC   C3A56393  25.096  30.775   6.874
 4439POPC   C4A56394  25.334  30.654   7.199
 4439POPC   C1B56395  25.277  30.302   6.226
 4439POPC   C2B56396  25.180  30.296   6.688
 4439POPC   C3B56397  24.942  30.324   7.071
 4439POPC   C4B56398  25.091  30.319   7.525
 4440POPC   NC356399  37.910   1.041   5.334
 4440POPC   PO456400  37.233   1.249   5.327
 4440POPC   GL156401  37.535   1.191   5.652
 4440POPC   GL256402  37.727   1.501   5.746
 4440POPC   C1A56403  37.555   1.051   6.057
 4440POPC   D2A56404  37.577   1.133   6.504
 4440POPC   C3A56405  37.746   0.920   6.866
 4440POPC   C4A56406  37.557   1.013   7.265
 4440POPC   C1B56407  37.579   1.598   6.181
 4440POPC   C2B56408  37.719   1.632   6.592
 4440POPC   C3B56409  37.654   1.410   6.958
 4440POPC   C4B56410  37.965   1.313   7.294
 4441POPC   NC356411  35.075  20.167   5.423
 4441POPC   PO456412  35.258  20.840   5.468
 4441POPC   GL156413  35.474  20.697   5.853
 4441POPC   GL256414  35.583  20.351   5.813
 4441POPC   C1A56415  35.320  20.565   6.258
 4441POPC   D2A56416  35.232  20.797   6.648
 4441POPC   C3A56417  35.243  20.679   7.097
 4441POPC   C4A56418  35.366  20.906   7.476
 4441POPC   C1B56419  35.725  20.234   6.226
 4441POPC   C2B56420  35.809  20.355   6.668
 4441POPC   C3B56421  35.609  20.305   7.069
 4441POPC   C4B56422  35.435  20.422   7.510
 4442POPC   NC356423   5.580  12.625   5.233
 4442POPC   PO456424   4.971  12.595   5.403
 4442POPC   GL156425   5.122  12.800   5.788
 4442POPC   GL256426   5.209  13.125   5.919
 4442POPC   C1A56427   5.131  12.750   6.247
 4442POPC   D2A56428   5.001  13.010   6.605
 4442POPC   C3A56429   5.129  12.884   7.033
 4442POPC   C4A56430   4.994  12.560   7.306
 4442POPC   C1B56431   5.451  13.180   6.294
 4442POPC   C2B56432   5.502  12.961   6.670
 4442POPC   C3B56433   5.650  13.133   7.054
 4442POPC   C4B56434   5.536  13.198   7.472
 4443POPC   NC356435  41.758  32.880   5.270
 4443POPC   PO456436  41.136  33.201   5.375
 4443POPC   GL156437  41.457  33.087   5.710
 4443POPC   GL256438  41.724  33.328   5.797
 4443POPC   C1A56439  41.593  33.006   6.183
 4443POPC   D2A56440  41.628  33.092   6.654
 4443POPC   C3A56441  41.425  32.797   6.973
 4443POPC   C4A56442  41.561  32.629   7.381
 4443POPC   C1B56443  41.694  33.510   6.238
 4443POPC   C2B56444  41.949  33.510   6.641
 4443POPC   C3B56445  41.922  33.281   7.046
 4443POPC   C4B56446  41.724  33.224   7.459
 4444POPC   NC356447  30.178  44.760   5.387
 4444POPC   PO456448  29.636  44.574   5.564
 4444POPC   GL156449  29.779  44.395   5.942
 4444POPC   GL256450  30.096  44.549   5.860
 4444POPC   C1A56451  30.045  44.317   6.298
 4444POPC   D2A56452  30.303  44.530   6.574
 4444POPC   C3A56453  30.170  44.445   6.963
 4444POPC   C4A56454  29.860  44.586   7.268
 4444POPC   C1B56455  30.121  44.922   6.150
 4444POPC   C2B56456  30.299   0.040   6.565
 4444POPC   C3B56457  30.182  44.951   6.991
 4444POPC   C4B56458  30.328  44.770   7.365
 4445POPC   NC356459  15.522  13.755   5.351
 4445POPC   PO456460  16.066  14.178   5.400
 4445POPC   GL156461  15.977  14.388   5.797
 4445POPC   GL256462  15.622  14.271   5.886
 4445POPC   C1A56463  15.975  14.329   6.254
 4445POPC   D2A56464  15.721  14.207   6.592
 4445POPC   C3A56465  15.883  14.172   7.001
 4445POPC   C4A56466  16.204  14.457   7.187
 4445POPC   C1B56467  15.478  14.537   6.248
 4445POPC   C2B56468  15.520  14.756   6.663
 4445POPC   C3B56469  15.705  14.638   7.084
 4445POPC   C4B56470  15.664  14.605   7.553
 4446POPC   NC356471  21.810  14.535   5.423
 4446POPC   PO456472  22.459  14.502   5.478
 4446POPC   GL156473  22.251  14.311   5.826
 4446POPC   GL256474  22.360  13.968   5.896
 4446POPC   C1A56475  22.045  14.388   6.232
 4446POPC   D2A56476  21.961  14.193   6.626
 4446POPC   C3A56477  21.708  14.404   6.923
 4446POPC   C4A56478  21.789  14.542   7.359
 4446POPC   C1B56479  22.526  14.170   6.267
 4446POPC   C2B56480  22.430  14.393   6.628
 4446POPC   C3B56481  22.207  14.391   7.037
 4446POPC   C4B56482  21.933  14.058   7.224
 4447POPC   NC356483   9.322  19.992   5.597
 4447POPC   PO456484   9.058  19.386   5.749
 4447POPC   GL156485   8.826  19.814   5.867
 4447POPC   GL256486   9.071  20.080   6.017
 4447POPC   C1A56487   8.645  20.071   6.252
 4447POPC   D2A56488   8.986  20.145   6.618
 4447POPC   C3A56489   9.001  19.905   6.991
 4447POPC   C4A56490   8.722  19.750   7.275
 4447POPC   C1B56491   9.103  19.749   6.315
 4447POPC   C2B56492   9.356  19.686   6.667
 4447POPC   C3B56493   9.429  19.448   7.007
 4447POPC   C4B56494   9.155  19.500   7.309
 4448POPC   NC356495   9.351   3.127   5.535
 4448POPC   PO456496   8.665   3.004   5.481
 4448POPC   GL156497   8.909   2.721   5.782
 4448POPC   GL256498   8.705   2.472   5.934
 4448POPC   C1A56499   9.155   2.613   6.200
 4448POPC   D2A56500   9.221   2.470   6.631
 4448POPC   C3A56501   9.116   2.683   7.013
 4448POPC   C4A56502   9.340   2.881   7.323
 4448POPC   C1B56503   8.716   2.873   6.207
 4448POPC   C2B56504   8.886   2.923   6.599
 4448POPC   C3B56505   8.710   3.027   6.994
 4448POPC   C4B56506   8.615   2.659   7.212
 4449POPC   NC356507  17.671  33.117   5.192
 4449POPC   PO456508  17.195  32.852   5.555
 4449POPC   GL156509  17.571  32.930   5.809
 4449POPC   GL256510  17.882  33.139   5.678
 4449POPC   C1A56511  17.531  32.836   6.250
 4449POPC   D2A56512  17.600  32.680   6.653
 4449POPC   C3A56513  17.561  32.995   6.967
 4449POPC   C4A56514  17.394  33.100   7.381
 4449POPC   C1B56515  17.994  33.003   6.104
 4449POPC   C2B56516  17.897  33.090   6.550
 4449POPC   C3B56517  18.063  32.957   6.965
 4449POPC   C4B56518  17.913  33.186   7.329
 4450POPC   NC356519   7.547  20.485   5.381
 4450POPC   PO456520   7.097  21.037   5.379
 4450POPC   GL156521   7.392  20.855   5.701
 4450POPC   GL256522   7.193  20.542   5.779
 4450POPC   C1A56523   7.645  20.601   6.036
 4450POPC   D2A56524   7.503  20.354   6.405
 4450POPC   C3A56525   7.581  20.470   6.855
 4450POPC   C4A56526   7.353  20.358   7.233
 4450POPC   C1B56527   7.137  20.685   6.210
 4450POPC   C2B56528   7.219  20.856   6.637
 4450POPC   C3B56529   7.244  20.853   7.103
 4450POPC   C4B56530   7.119  21.059   7.497
 4451POPC   NC356531  23.893  27.359   5.570
 4451POPC   PO456532  23.452  27.777   5.149
 4451POPC   GL156533  23.481  27.827   5.644
 4451POPC   GL256534  23.764  28.035   5.810
 4451POPC   C1A56535  23.426  27.635   6.082
 4451POPC   D2A56536  23.436  27.766   6.508
 4451POPC   C3A56537  23.629  27.621   6.893
 4451POPC   C4A56538  23.459  27.642   7.321
 4451POPC   C1B56539  23.891  27.775   6.202
 4451POPC   C2B56540  24.106  27.474   6.503
 4451POPC   C3B56541  24.173  27.544   6.949
 4451POPC   C4B56542  23.940  27.839   7.251
 4452POPC   NC356543  23.975  12.889   5.131
 4452POPC   PO456544  23.582  12.587   5.628
 4452POPC   GL156545  23.588  12.745   5.984
 4452POPC   GL256546  23.821  12.980   5.920
 4452POPC   C1A56547  23.678  12.687   6.372
 4452POPC   D2A56548  23.542  12.573   6.741
 4452POPC   C3A56549  23.764  12.732   7.097
 4452POPC   C4A56550  23.576  12.648   7.490
 4452POPC   C1B56551  23.731  13.197   6.297
 4452POPC   C2B56552  23.893  13.135   6.719
 4452POPC   C3B56553  23.708  13.223   7.120
 4452POPC   C4B56554  23.829  13.089   7.525
 4453POPC   NC356555   1.514  35.729   5.457
 4453POPC   PO456556   0.895  35.283   5.479
 4453POPC   GL156557   1.164  35.440   5.743
 4453POPC   GL256558   1.350  35.152   5.733
 4453POPC   C1A56559   1.246  35.449   6.172
 4453POPC   D2A56560   1.545  35.560   6.449
 4453POPC   C3A56561   1.395  35.438   6.854
 4453POPC   C4A56562   1.292  35.595   7.258
 4453POPC   C1B56563   1.120  34.968   6.089
 4453POPC   C2B56564   1.182  34.853   6.542
 4453POPC   C3B56565   1.327  34.925   6.990
 4453POPC   C4B56566   1.154  34.997   7.415
 4454POPC   NC356567  21.659  21.212   5.600
 4454POPC   PO456568  22.239  21.561   5.212
 4454POPC   GL156569  22.331  21.409   5.659
 4454POPC   GL256570  22.051  21.301   5.892
 4454POPC   C1A56571  22.499  21.282   6.100
 4454POPC   D2A56572  22.398  21.506   6.486
 4454POPC   C3A56573  22.318  21.385   6.918
 4454POPC   C4A56574  22.472  21.181   7.290
 4454POPC   C1B56575  21.915  21.578   6.232
 4454POPC   C2B56576  21.902  21.553   6.663
 4454POPC   C3B56577  21.823  21.732   7.054
 4454POPC   C4B56578  22.073  21.544   7.339
 4455POPC   NC356579  18.390  34.911   5.424
 4455POPC   PO456580  18.482  34.281   5.320
 4455POPC   GL156581  18.641  34.523   5.724
 4455POPC   GL256582  18.526  34.867   5.905
 4455POPC   C1A56583  18.529  34.437   6.187
 4455POPC   D2A56584  18.171  34.341   6.474
 4455POPC   C3A56585  18.316  34.293   6.898
 4455POPC   C4A56586  18.435  34.340   7.339
 4455POPC   C1B56587  18.201  34.857   6.252
 4455POPC   C2B56588  18.275  34.791   6.700
 4455POPC   C3B56589  18.290  34.759   7.134
 4455POPC   C4B56590  18.507  34.778   7.571
 4456POPC   NC356591  40.768  38.287   5.316
 4456POPC   PO456592  41.414  38.212   5.520
 4456POPC   GL156593  41.090  38.088   5.842
 4456POPC   GL256594  41.158  38.397   6.029
 4456POPC   C1A56595  40.849  38.095   6.279
 4456POPC   D2A56596  40.729  38.369   6.640
 4456POPC   C3A56597  40.947  38.468   7.030
 4456POPC   C4A56598  40.692  38.673   7.306
 4456POPC   C1B56599  40.958  38.703   6.338
 4456POPC   C2B56600  40.831  38.890   6.772
 4456POPC   C3B56601  41.081  38.968   7.151
 4456POPC   C4B56602  41.161  38.679   7.517
 4457POPC   NC356603   1.611   0.615   5.173
 4457POPC   PO456604   0.998   0.796   5.342
 4457POPC   GL156605   1.193   0.563   5.682
 4457POPC   GL256606   1.373   0.828   5.841
 4457POPC   C1A56607   1.163   0.297   6.095
 4457POPC   D2A56608   1.149   0.455   6.528
 4457POPC   C3A56609   1.214   0.366   6.963
 4457POPC   C4A56610   1.128   0.694   7.264
 4457POPC   C1B56611   1.515   0.656   6.240
 4457POPC   C2B56612   1.638   0.538   6.669
 4457POPC   C3B56613   1.606   0.706   7.090
 4457POPC   C4B56614   1.560   0.668   7.569
 4458POPC   NC356615   6.639   4.652   5.557
 4458POPC   PO456616   6.940   4.040   5.409
 4458POPC   GL156617   6.840   4.080   5.855
 4458POPC   GL256618   6.673   4.363   6.009
 4458POPC   C1A56619   6.875   3.888   6.246
 4458POPC   D2A56620   6.641   3.819   6.639
 4458POPC   C3A56621   6.680   4.113   7.003
 4458POPC   C4A56622   6.502   4.291   7.408
 4458POPC   C1B56623   6.630   4.319   6.452
 4458POPC   C2B56624   6.858   4.556   6.747
 4458POPC   C3B56625   6.808   4.583   7.160
 4458POPC   C4B56626   6.868   4.603   7.611
 4459POPC   NC356627  34.725   3.020   5.538
 4459POPC   PO456628  34.377   2.446   5.529
 4459POPC   GL156629  34.558   2.664   5.869
 4459POPC   GL256630  34.919   2.619   5.795
 4459POPC   C1A56631  34.393   2.818   6.255
 4459POPC   D2A56632  34.312   2.626   6.635
 4459POPC   C3A56633  34.355   2.815   7.001
 4459POPC   C4A56634  34.501   2.514   7.268
 4459POPC   C1B56635  34.916   2.916   6.172
 4459POPC   C2B56636  34.792   2.852   6.614
 4459POPC   C3B56637  34.862   2.854   7.054
 4459POPC   C4B56638  35.006   2.529   7.316
 4460POPC   NC356639   8.928  41.066   5.475
 4460POPC   PO456640   9.136  40.521   5.372
 4460POPC   GL156641   8.961  40.637   5.748
 4460POPC   GL256642   9.217  40.813   5.851
 4460POPC   C1A56643   8.757  40.713   6.148
 4460POPC   D2A56644   8.637  40.610   6.541
 4460POPC   C3A56645   8.774  40.900   6.848
 4460POPC   C4A56646   8.905  40.706   7.197
 4460POPC   C1B56647   9.213  40.873   6.279
 4460POPC   C2B56648   9.464  40.990   6.583
 4460POPC   C3B56649   9.393  40.763   6.942
 4460POPC   C4B56650   9.368  40.864   7.348
 4461POPC   NC356651  16.406  37.606   5.192
 4461POPC   PO456652  16.929  37.969   5.256
 4461POPC   GL156653  16.772  37.675   5.615
 4461POPC   GL256654  16.405  37.593   5.716
 4461POPC   C1A56655  16.823  37.625   6.086
 4461POPC   D2A56656  16.909  37.836   6.522
 4461POPC   C3A56657  16.886  37.587   6.904
 4461POPC   C4A56658  16.909  37.731   7.298
 4461POPC   C1B56659  16.319  37.471   6.174
 4461POPC   C2B56660  16.457  37.480   6.632
 4461POPC   C3B56661  16.405  37.639   7.085
 4461POPC   C4B56662  16.468  37.612   7.552
 4462POPC   NC356663  12.917  17.655   5.430
 4462POPC   PO456664  12.966  17.017   5.329
 4462POPC   GL156665  12.865  17.253   5.753
 4462POPC   GL256666  13.120  17.462   5.846
 4462POPC   C1A56667  12.722  17.452   6.213
 4462POPC   D2A56668  12.748  17.820   6.550
 4462POPC   C3A56669  12.590  17.734   6.989
 4462POPC   C4A56670  12.537  17.318   7.167
 4462POPC   C1B56671  13.261  17.413   6.248
 4462POPC   C2B56672  13.278  17.759   6.544
 4462POPC   C3B56673  13.092  17.650   6.930
 4462POPC   C4B56674  13.142  17.228   7.005
 4463POPC   NC356675   6.727  25.870   5.417
 4463POPC   PO456676   6.018  25.927   5.396
 4463POPC   GL156677   6.267  26.033   5.821
 4463POPC   GL256678   6.577  25.876   5.891
 4463POPC   C1A56679   6.359  26.058   6.321
 4463POPC   D2A56680   6.307  26.004   6.819
 4463POPC   C3A56681   6.541  26.174   7.201
 4463POPC   C4A56682   6.512  26.364   7.614
 4463POPC   C1B56683   6.883  26.056   6.150
 4463POPC   C2B56684   6.883  26.166   6.562
 4463POPC   C3B56685   6.817  25.878   6.863
 4463POPC   C4B56686   7.020  25.754   7.197
 4464POPC   NC356687  10.747  18.587   5.525
 4464POPC   PO456688  10.479  18.053   5.132
 4464POPC   GL156689  10.407  18.121   5.653
 4464POPC   GL256690  10.687  18.189   5.902
 4464POPC   C1A56691  10.255  18.219   6.127
 4464POPC   D2A56692  10.347  18.485   6.514
 4464POPC   C3A56693  10.307  18.279   6.932
 4464POPC   C4A56694  10.246  18.397   7.361
 4464POPC   C1B56695  10.808  18.300   6.330
 4464POPC   C2B56696  10.848  18.223   6.801
 4464POPC   C3B56697  10.726  18.295   7.237
 4464POPC   C4B56698  10.807  18.521   7.620
 4465POPC   NC356699   3.274   6.119   5.438
 4465POPC   PO456700   4.003   5.909   5.495
 4465POPC   GL156701   3.657   5.977   5.805
 4465POPC   GL256702   3.322   5.846   5.857
 4465POPC   C1A56703   3.641   6.051   6.250
 4465POPC   D2A56704   3.460   6.015   6.663
 4465POPC   C3A56705   3.744   6.118   6.985
 4465POPC   C4A56706   4.050   5.891   7.192
 4465POPC   C1B56707   3.335   5.642   6.243
 4465POPC   C2B56708   3.667   5.508   6.516
 4465POPC   C3B56709   3.647   5.605   6.939
 4465POPC   C4B56710   3.248   5.646   7.108
 4466POPC   NC356711  42.539   7.858   5.560
 4466POPC   PO456712  42.468   7.278   5.490
 4466POPC   GL156713  42.227   7.284   5.869
 4466POPC   GL256714  42.393   7.572   5.975
 4466POPC   C1A56715  42.268   7.218   6.329
 4466POPC   D2A56716  42.557   7.322   6.661
 4466POPC   C3A56717  42.430   7.291   7.064
 4466POPC   C4A56718  42.059   7.421   7.092
 4466POPC   C1B56719  42.444   7.853   6.323
 4466POPC   C2B56720  42.539   7.829   6.749
 4466POPC   C3B56721  42.530   7.771   7.188
 4466POPC   C4B56722  42.683   7.471   7.501
 4467POPC   NC356723   4.516  41.155   5.467
 4467POPC   PO456724   3.925  40.945   5.524
 4467POPC   GL156725   4.263  40.798   5.759
 4467POPC   GL256726   4.617  40.680   5.614
 4467POPC   C1A56727   4.274  40.985   6.174
 4467POPC   D2A56728   4.569  40.951   6.496
 4467POPC   C3A56729   4.404  40.856   6.897
 4467POPC   C4A56730   4.156  40.780   7.259
 4467POPC   C1B56731   4.678  40.672   6.055
 4467POPC   C2B56732   4.605  40.441   6.421
 4467POPC   C3B56733   4.697  40.412   6.835
 4467POPC   C4B56734   4.523  40.449   7.224
 4468POPC   NC356735  43.651  43.228   5.444
 4468POPC   PO456736  44.314  43.245   5.493
 4468POPC   GL156737  44.044  43.103   5.773
 4468POPC   GL256738  44.125  43.398   5.974
 4468POPC   C1A56739  43.717  43.055   6.103
 4468POPC   D2A56740  43.793  43.167   6.512
 4468POPC   C3A56741  43.763  42.929   6.867
 4468POPC   C4A56742  43.856  42.941   7.333
 4468POPC   C1B56743  44.244  43.071   6.251
 4468POPC   C2B56744  44.249  43.002   6.683
 4468POPC   C3B56745  44.274  43.154   7.092
 4468POPC   C4B56746  44.387  42.953   7.483
 4469POPC   NC356747  30.525  27.814   5.539
 4469POPC   PO456748  30.918  27.313   5.338
 4469POPC   GL156749  30.769  27.427   5.760
 4469POPC   GL256750  30.411  27.331   5.765
 4469POPC   C1A56751  30.656  27.600   6.177
 4469POPC   D2A56752  30.799  27.663   6.597
 4469POPC   C3A56753  30.644  27.536   6.996
 4469POPC   C4A56754  30.548  27.852   7.334
 4469POPC   C1B56755  30.298  27.248   6.204
 4469POPC   C2B56756  30.238  27.485   6.635
 4469POPC   C3B56757  30.160  27.577   7.112
 4469POPC   C4B56758  30.361  27.380   7.471
 4470POPC   NC356759  39.653  11.501   5.437
 4470POPC   PO456760  40.061  11.049   5.251
 4470POPC   GL156761  40.017  11.156   5.718
 4470POPC   GL256762  39.674  11.177   5.813
 4470POPC   C1A56763  40.004  11.291   6.197
 4470POPC   D2A56764  40.018  11.540   6.626
 4470POPC   C3A56765  40.307  11.370   6.949
 4470POPC   C4A56766  40.331  10.974   7.086
 4470POPC   C1B56767  39.499  11.267   6.204
 4470POPC   C2B56768  39.652  11.130   6.586
 4470POPC   C3B56769  39.837  11.165   6.988
 4470POPC   C4B56770  39.877  11.558   7.151
 4471POPC   NC356771   1.033  25.445   5.404
 4471POPC   PO456772   1.515  25.085   5.583
 4471POPC   GL156773   1.164  25.147   5.815
 4471POPC   GL256774   1.294  25.482   5.841
 4471POPC   C1A56775   1.141  25.168   6.254
 4471POPC   D2A56776   1.421  25.053   6.578
 4471POPC   C3A56777   1.285  24.946   7.020
 4471POPC   C4A56778   1.438  25.247   7.332
 4471POPC   C1B56779   1.522  25.520   6.213
 4471POPC   C2B56780   1.265  25.544   6.581
 4471POPC   C3B56781   1.121  25.428   6.960
 4471POPC   C4B56782   0.918  25.311   7.324
 4472POPC   NC356783   8.309  15.771   5.509
 4472POPC   PO456784   8.309  15.126   5.362
 4472POPC   GL156785   8.241  15.076   5.765
 4472POPC   GL256786   8.037  15.393   5.776
 4472POPC   C1A56787   8.429  14.906   6.149
 4472POPC   D2A56788   8.288  14.788   6.564
 4472POPC   C3A56789   8.436  14.986   6.952
 4472POPC   C4A56790   8.063  15.129   7.187
 4472POPC   C1B56791   8.265  15.410   6.159
 4472POPC   C2B56792   8.399  15.311   6.550
 4472POPC   C3B56793   8.332  15.495   6.920
 4472POPC   C4B56794   8.322  15.550   7.337
 4473POPC   NC356795  21.990   5.396   5.728
 4473POPC   PO456796  22.542   5.218   5.385
 4473POPC   GL156797  22.358   4.993   5.781
 4473POPC   GL256798  22.017   4.855   5.701
 4473POPC   C1A56799  22.279   5.133   6.256
 4473POPC   D2A56800  22.386   5.354   6.678
 4473POPC   C3A56801  22.369   5.093   7.050
 4473POPC   C4A56802  22.027   5.020   7.328
 4473POPC   C1B56803  21.953   4.728   6.130
 4473POPC   C2B56804  21.719   4.801   6.515
 4473POPC   C3B56805  21.750   4.789   6.960
 4473POPC   C4B56806  21.673   4.628   7.385
 4474POPC   NC356807  18.548   3.322   5.468
 4474POPC   PO456808  17.940   3.613   5.568
 4474POPC   GL156809  18.259   3.680   5.891
 4474POPC   GL256810  18.133   3.943   6.056
 4474POPC   C1A56811  18.228   3.527   6.347
 4474POPC   D2A56812  18.024   3.576   6.750
 4474POPC   C3A56813  18.233   3.471   7.126
 4474POPC   C4A56814  18.649   3.571   7.201
 4474POPC   C1B56815  18.534   3.932   6.272
 4474POPC   C2B56816  18.575   3.745   6.686
 4474POPC   C3B56817  18.363   3.952   7.011
 4474POPC   C4B56818  17.933   3.904   7.136
 4475POPC   NC356819  44.547  43.613   5.666
 4475POPC   PO456820  44.692  43.072   5.162
 4475POPC   GL156821  44.750  42.910   5.635
 4475POPC   GL256822  44.608  43.151   5.887
 4475POPC   C1A56823  44.882  42.822   6.124
 4475POPC   D2A56824  44.761  43.020   6.523
 4475POPC   C3A56825  44.680  42.839   6.922
 4475POPC   C4A56826  44.753  42.648   7.272
 4475POPC   C1B56827  44.608  43.428   6.261
 4475POPC   C2B56828  44.710  43.709   6.559
 4475POPC   C3B56829  44.791  43.588   6.966
 4475POPC   C4B56830  44.773  43.229   7.263
 4476POPC   NC356831  11.942  17.422   5.351
 4476POPC   PO456832  12.487  17.724   5.597
 4476POPC   GL156833  12.208  17.490   5.862
 4476POPC   GL256834  11.848  17.514   5.850
 4476POPC   C1A56835  12.132  17.358   6.263
 4476POPC   D2A56836  12.298  17.495   6.641
 4476POPC   C3A56837  12.044  17.380   6.984
 4476POPC   C4A56838  12.087  17.372   7.418
 4476POPC   C1B56839  11.820  17.784   6.217
 4476POPC   C2B56840  11.726  17.719   6.642
 4476POPC   C3B56841  11.606  17.642   7.051
 4476POPC   C4B56842  11.345  17.818   7.370
 4477POPC   NC356843  32.522   0.523   5.128
 4477POPC   PO456844  33.108   0.318   5.395
 4477POPC   GL156845  33.125   0.372   5.810
 4477POPC   GL256846  33.367   0.109   5.850
 4477POPC   C1A56847  32.883   0.363   6.197
 4477POPC   D2A56848  32.685   0.209   6.574
 4477POPC   C3A56849  32.766   0.496   6.885
 4477POPC   C4A56850  32.976   0.626   7.237
 4477POPC   C1B56851  33.313   0.097   6.288
 4477POPC   C2B56852  33.192   0.359   6.634
 4477POPC   C3B56853  33.162   0.193   7.036
 4477POPC   C4B56854  33.475   0.001   7.255
 4478POPC   NC356855  27.398  18.774   5.383
 4478POPC   PO456856  27.737  19.423   5.455
 4478POPC   GL156857  27.497  19.196   5.715
 4478POPC   GL256858  27.813  19.131   5.883
 4478POPC   C1A56859  27.273  19.170   6.111
 4478POPC   D2A56860  27.328  19.346   6.538
 4478POPC   C3A56861  27.271  19.051   6.867
 4478POPC   C4A56862  27.371  18.943   7.290
 4478POPC   C1B56863  27.812  18.876   6.249
 4478POPC   C2B56864  27.764  18.846   6.696
 4478POPC   C3B56865  27.837  18.996   7.099
 4478POPC   C4B56866  27.854  18.986   7.556
 4479POPC   NC356867   3.909  33.207   5.382
 4479POPC   PO456868   4.464  32.864   5.310
 4479POPC   GL156869   4.295  33.065   5.705
 4479POPC   GL256870   4.580  33.267   5.791
 4479POPC   C1A56871   4.146  33.136   6.145
 4479POPC   D2A56872   4.353  33.214   6.541
 4479POPC   C3A56873   4.201  33.039   6.938
 4479POPC   C4A56874   4.402  33.058   7.334
 4479POPC   C1B56875   4.504  33.544   6.132
 4479POPC   C2B56876   4.677  33.613   6.540
 4479POPC   C3B56877   4.730  33.358   6.910
 4479POPC   C4B56878   4.652  33.492   7.296
 4480POPC   NC356879  37.058  11.995   5.386
 4480POPC   PO456880  36.433  12.262   5.295
 4480POPC   GL156881  36.653  12.071   5.650
 4480POPC   GL256882  36.865  12.321   5.782
 4480POPC   C1A56883  36.759  11.920   6.084
 4480POPC   D2A56884  37.108  11.916   6.404
 4480POPC   C3A56885  37.057  11.961   6.874
 4480POPC   C4A56886  36.749  11.993   7.191
 4480POPC   C1B56887  37.231  12.302   6.083
 4480POPC   C2B56888  37.380  12.373   6.500
 4480POPC   C3B56889  37.120  12.476   6.766
 4480POPC   C4B56890  37.110  12.458   7.177
 4481POPC   NC356891  23.121  24.727   5.193
 4481POPC   PO456892  22.621  24.374   5.467
 4481POPC   GL156893  22.846  24.554   5.814
 4481POPC   GL256894  23.206  24.610   5.770
 4481POPC   C1A56895  22.868  24.630   6.276
 4481POPC   D2A56896  23.089  24.596   6.676
 4481POPC   C3A56897  22.856  24.606   7.071
 4481POPC   C4A56898  22.709  24.833   7.463
 4481POPC   C1B56899  23.219  24.280   6.145
 4481POPC   C2B56900  23.197  24.100   6.593
 4481POPC   C3B56901  23.304  24.261   7.037
 4481POPC   C4B56902  23.141  24.450   7.448
 4482POPC   NC356903  15.245  32.254   5.359
 4482POPC   PO456904  15.863  32.407   5.362
 4482POPC   GL156905  15.535  32.393   5.767
 4482POPC   GL256906  15.381  32.063   5.844
 4482POPC   C1A56907  15.165  32.429   6.115
 4482POPC   D2A56908  14.951  32.366   6.537
 4482POPC   C3A56909  15.118  32.413   7.007
 4482POPC   C4A56910  14.976  32.393   7.497
 4482POPC   C1B56911  15.530  32.111   6.261
 4482POPC   C2B56912  15.341  32.058   6.670
 4482POPC   C3B56913  15.486  31.995   7.078
 4482POPC   C4B56914  15.460  32.289   7.377
 4483POPC   NC356915   2.448  12.476   5.412
 4483POPC   PO456916   2.916  12.960   5.315
 4483POPC   GL156917   2.722  12.823   5.702
 4483POPC   GL256918   2.938  12.591   5.837
 4483POPC   C1A56919   2.562  12.893   6.141
 4483POPC   D2A56920   2.807  12.781   6.530
 4483POPC   C3A56921   2.616  12.664   6.924
 4483POPC   C4A56922   2.501  12.923   7.256
 4483POPC   C1B56923   2.714  12.406   6.169
 4483POPC   C2B56924   2.915  12.259   6.545
 4483POPC   C3B56925   3.033  12.376   6.973
 4483POPC   C4B56926   3.045  12.805   7.144
 4484POPC   NC356927  32.985   6.398   5.554
 4484POPC   PO456928  32.798   7.060   5.466
 4484POPC   GL156929  32.743   6.829   5.823
 4484POPC   GL256930  33.100   6.785   5.866
 4484POPC   C1A56931  32.789   6.750   6.268
 4484POPC   D2A56932  32.912   6.531   6.628
 4484POPC   C3A56933  33.008   6.723   7.003
 4484POPC   C4A56934  32.810   6.671   7.412
 4484POPC   C1B56935  33.239   6.516   6.222
 4484POPC   C2B56936  33.405   6.336   6.584
 4484POPC   C3B56937  33.477   6.416   7.000
 4484POPC   C4B56938  33.277   6.524   7.392
 4485POPC   NC356939  19.259  18.447   5.283
 4485POPC   PO456940  18.882  17.903   5.251
 4485POPC   GL156941  19.103  18.026   5.687
 4485POPC   GL256942  19.228  18.389   5.785
 4485POPC   C1A56943  19.030  18.113   6.164
 4485POPC   D2A56944  18.957  18.448   6.503
 4485POPC   C3A56945  18.884  18.309   6.947
 4485POPC   C4A56946  19.062  18.047   7.262
 4485POPC   C1B56947  19.452  18.448   6.195
 4485POPC   C2B56948  19.515  18.459   6.634
 4485POPC   C3B56949  19.399  18.395   7.056
 4485POPC   C4B56950  19.143  18.597   7.357
 4486POPC   NC356951   4.770  33.697   5.510
 4486POPC   PO456952   5.255  33.334   5.255
 4486POPC   GL156953   5.247  33.787   5.594
 4486POPC   GL256954   5.000  33.620   5.937
 4486POPC   C1A56955   5.264  34.025   6.021
 4486POPC   D2A56956   5.162  33.795   6.415
 4486POPC   C3A56957   5.324  33.825   6.823
 4486POPC   C4A56958   5.216  33.759   7.241
 4486POPC   C1B56959   4.775  33.989   6.151
 4486POPC   C2B56960   4.813  34.137   6.594
 4486POPC   C3B56961   4.800  33.891   6.975
 4486POPC   C4B56962   4.813  33.941   7.448
 4487POPC   NC356963   9.586  41.701   5.122
 4487POPC   PO456964   9.336  41.238   5.594
 4487POPC   GL156965   9.593  41.489   5.865
 4487POPC   GL256966   9.747  41.729   5.681
 4487POPC   C1A56967   9.628  41.583   6.268
 4487POPC   D2A56968   9.491  41.501   6.658
 4487POPC   C3A56969   9.742  41.500   6.979
 4487POPC   C4A56970   9.630  41.299   7.342
 4487POPC   C1B56971   9.930  41.954   6.074
 4487POPC   C2B56972   9.912  41.885   6.558
 4487POPC   C3B56973  10.031  41.941   6.997
 4487POPC   C4B56974   9.946  41.738   7.374
 4488POPC   NC356975  25.250   0.793   5.290
 4488POPC   PO456976  24.780   1.286   5.403
 4488POPC   GL156977  25.224   1.389   5.612
 4488POPC   GL256978  25.330   1.081   5.721
 4488POPC   C1A56979  25.501   1.433   6.042
 4488POPC   D2A56980  25.367   1.227   6.461
 4488POPC   C3A56981  25.225   1.428   6.848
 4488POPC   C4A56982  25.533   1.677   7.074
 4488POPC   C1B56983  25.027   1.248   6.071
 4488POPC   C2B56984  24.906   1.008   6.435
 4488POPC   C3B56985  25.104   0.905   6.817
 4488POPC   C4B56986  25.067   1.097   7.231
 4489POPC   NC356987  21.335  32.514   5.497
 4489POPC   PO456988  21.650  31.924   5.392
 4489POPC   GL156989  21.503  32.005   5.813
 4489POPC   GL256990  21.165  32.086   5.738
 4489POPC   C1A56991  21.589  32.287   6.222
 4489POPC   D2A56992  21.558  32.572   6.624
 4489POPC   C3A56993  21.429  32.417   7.053
 4489POPC   C4A56994  21.521  32.042   7.332
 4489POPC   C1B56995  21.177  31.994   6.207
 4489POPC   C2B56996  21.244  32.151   6.632
 4489POPC   C3B56997  21.153  31.947   7.015
 4489POPC   C4B56998  20.808  31.838   7.294
 4490POPC   NC356999  18.568  35.567   5.494
 4490POPC   PO457000  18.015  35.165   5.458
 4490POPC   GL157001  18.219  35.335   5.819
 4490POPC   GL257002  18.051  35.666   5.848
 4490POPC   C1A57003  18.189  35.388   6.270
 4490POPC   D2A57004  17.990  35.204   6.615
 4490POPC   C3A57005  18.188  35.245   7.006
 4490POPC   C4A57006  18.609  35.158   7.228
 4490POPC   C1B57007  17.950  35.842   6.267
 4490POPC   C2B57008  17.952  35.701   6.700
 4490POPC   C3B57009  18.287  35.753   7.008
 4490POPC   C4B57010  18.323  35.543   7.396
 4491POPC   NC357011  22.978  27.926   5.426
 4491POPC   PO457012  22.530  27.438   5.397
 4491POPC   GL157013  22.684  27.611   5.839
 4491POPC   GL257014  23.003  27.791   5.887
 4491POPC   C1A57015  22.906  27.466   6.264
 4491POPC   D2A57016  23.149  27.368   6.649
 4491POPC   C3A57017  22.986  27.527   7.036
 4491POPC   C4A57018  22.603  27.357   7.261
 4491POPC   C1B57019  23.013  27.951   6.265
 4491POPC   C2B57020  22.858  27.842   6.641
 4491POPC   C3B57021  22.755  28.084   6.982
 4491POPC   C4B57022  22.685  27.858   7.277
 4492POPC   NC357023  27.779  39.674   5.080
 4492POPC   PO457024  27.285  40.133   5.182
 4492POPC   GL157025  27.386  39.976   5.626
 4492POPC   GL257026  27.685  40.151   5.791
 4492POPC   C1A57027  27.383  39.833   6.084
 4492POPC   D2A57028  27.623  40.086   6.398
 4492POPC   C3A57029  27.603  39.955   6.839
 4492POPC   C4A57030  27.688  40.109   7.262
 4492POPC   C1B57031  27.336  40.337   6.018
 4492POPC   C2B57032  27.275  40.495   6.427
 4492POPC   C3B57033  27.370  40.474   6.872
 4492POPC   C4B57034  27.211  40.212   7.190
 4493POPC   NC357035  28.140  43.917   5.638
 4493POPC   PO457036  28.694  43.663   5.364
 4493POPC   GL157037  28.586  43.696   5.784
 4493POPC   GL257038  28.624  44.055   5.777
 4493POPC   C1A57039  28.425  43.630   6.209
 4493POPC   D2A57040  28.438  43.592   6.655
 4493POPC   C3A57041  28.114  43.681   6.927
 4493POPC   C4A57042  28.112  43.712   7.367
 4493POPC   C1B57043  28.639  44.105   6.216
 4493POPC   C2B57044  28.516  44.170   6.655
 4493POPC   C3B57045  28.657  43.912   6.981
 4493POPC   C4B57046  28.562  43.510   7.147
 4494POPC   NC357047  30.935  19.204   5.467
 4494POPC   PO457048  31.550  18.903   5.482
 4494POPC   GL157049  31.637  19.055   5.867
 4494POPC   GL257050  31.372  19.301   5.833
 4494POPC   C1A57051  31.589  18.849   6.281
 4494POPC   D2A57052  31.385  18.959   6.679
 4494POPC   C3A57053  31.567  18.889   7.086
 4494POPC   C4A57054  31.338  18.729   7.416
 4494POPC   C1B57055  31.250  19.574   6.189
 4494POPC   C2B57056  31.187  19.537   6.613
 4494POPC   C3B57057  31.149  19.524   7.040
 4494POPC   C4B57058  31.295  19.250   7.403
 4495POPC   NC357059   6.147  28.619   5.524
 4495POPC   PO457060   6.503  28.068   5.405
 4495POPC   GL157061   6.489  28.196   5.836
 4495POPC   GL257062   6.638  28.529   5.814
 4495POPC   C1A57063   6.440  28.354   6.268
 4495POPC   D2A57064   6.578  28.591   6.614
 4495POPC   C3A57065   6.409  28.503   7.004
 4495POPC   C4A57066   6.567  28.205   7.249
 4495POPC   C1B57067   6.926  28.322   6.102
 4495POPC   C2B57068   7.069  28.375   6.517
 4495POPC   C3B57069   7.103  28.400   6.942
 4495POPC   C4B57070   6.964  28.503   7.346
 4496POPC   NC357071   3.836  29.014   5.387
 4496POPC   PO457072   3.296  29.383   5.540
 4496POPC   GL157073   3.586  29.207   5.815
 4496POPC   GL257074   3.821  29.464   5.737
 4496POPC   C1A57075   3.515  29.165   6.252
 4496POPC   D2A57076   3.417  29.409   6.635
 4496POPC   C3A57077   3.247  29.096   6.903
 4496POPC   C4A57078   3.203  28.870   7.264
 4496POPC   C1B57079   3.920  29.484   6.167
 4496POPC   C2B57080   3.911  29.253   6.551
 4496POPC   C3B57081   3.771  29.179   6.930
 4496POPC   C4B57082   4.056  29.142   7.219
 4497POPC   NC357083  40.664  37.306   5.360
 4497POPC   PO457084  40.948  37.865   5.331
 4497POPC   GL157085  40.758  37.691   5.715
 4497POPC   GL257086  40.547  37.961   5.835
 4497POPC   C1A57087  40.882  37.507   6.123
 4497POPC   D2A57088  41.016  37.648   6.547
 4497POPC   C3A57089  40.839  37.481   6.956
 4497POPC   C4A57090  40.908  37.283   7.373
 4497POPC   C1B57091  40.455  37.780   6.261
 4497POPC   C2B57092  40.605  37.886   6.717
 4497POPC   C3B57093  40.593  38.124   7.110
 4497POPC   C4B57094  40.563  38.264   7.566
 4498POPC   NC357095  43.023  37.974   5.431
 4498POPC   PO457096  43.669  37.917   5.469
 4498POPC   GL157097  43.414  37.694   5.814
 4498POPC   GL257098  43.071  37.549   5.769
 4498POPC   C1A57099  43.228  37.832   6.225
 4498POPC   D2A57100  43.301  38.106   6.590
 4498POPC   C3A57101  43.205  37.944   6.997
 4498POPC   C4A57102  43.041  37.885   7.399
 4498POPC   C1B57103  43.011  37.378   6.184
 4498POPC   C2B57104  43.099  37.508   6.638
 4498POPC   C3B57105  43.002  37.463   7.086
 4498POPC   C4B57106  42.991  37.422   7.556
 4499POPC   NC357107   8.609  19.293   5.667
 4499POPC   PO457108   7.976  19.055   5.504
 4499POPC   GL157109   8.050  18.927   5.913
 4499POPC   GL257110   8.369  18.855   5.838
 4499POPC   C1A57111   8.194  19.211   6.263
 4499POPC   D2A57112   8.222  19.401   6.685
 4499POPC   C3A57113   8.163  19.181   7.054
 4499POPC   C4A57114   7.871  19.343   7.331
 4499POPC   C1B57115   8.392  18.744   6.281
 4499POPC   C2B57116   8.443  18.935   6.659
 4499POPC   C3B57117   8.567  18.853   7.044
 4499POPC   C4B57118   8.390  18.842   7.445
 4500POPC   NC357119   1.933  27.879   5.367
 4500POPC   PO457120   1.701  27.281   5.736
 4500POPC   GL157121   2.025  27.586   5.785
 4500POPC   GL257122   1.840  27.891   5.852
 4500POPC   C1A57123   2.122  27.656   6.203
 4500POPC   D2A57124   1.844  27.719   6.558
 4500POPC   C3A57125   1.992  27.594   6.932
 4500POPC   C4A57126   2.150  27.215   7.088
 4500POPC   C1B57127   1.838  28.101   6.212
 4500POPC   C2B57128   1.700  28.193   6.645
 4500POPC   C3B57129   1.831  28.082   7.077
 4500POPC   C4B57130   1.794  28.084   7.542
 4501POPC   NC357131   7.080  37.703   5.499
 4501POPC   PO457132   7.741  37.602   5.401
 4501POPC   GL157133   7.519  37.768   5.794
 4501POPC   GL257134   7.235  37.532   5.955
 4501POPC   C1A57135   7.415  37.916   6.241
 4501POPC   D2A57136   7.430  37.786   6.674
 4501POPC   C3A57137   7.444  37.996   7.084
 4501POPC   C4A57138   7.162  37.942   7.425
 4501POPC   C1B57139   7.645  37.434   6.158
 4501POPC   C2B57140   7.818  37.474   6.571
 4501POPC   C3B57141   7.592  37.395   6.950
 4501POPC   C4B57142   7.381  37.457   7.289
 4502POPC   NC357143  40.519  14.168   5.150
 4502POPC   PO457144  41.124  14.009   5.435
 4502POPC   GL157145  40.957  14.119   5.847
 4502POPC   GL257146  40.595  14.219   5.778
 4502POPC   C1A57147  40.924  14.227   6.299
 4502POPC   D2A57148  40.779  14.638   6.477
 4502POPC   C3A57149  40.914  14.723   6.901
 4502POPC   C4A57150  41.203  14.646   7.231
 4502POPC   C1B57151  40.418  14.226   6.217
 4502POPC   C2B57152  40.347  14.370   6.644
 4502POPC   C3B57153  40.371  14.235   7.105
 4502POPC   C4B57154  40.742  14.080   7.356
 4503POPC   NC357155  12.089  37.456   5.406
 4503POPC   PO457156  11.783  38.033   5.479
 4503POPC   GL157157  11.900  37.692   5.817
 4503POPC   GL257158  12.285  37.630   5.834
 4503POPC   C1A57159  11.989  37.670   6.273
 4503POPC   D2A57160  12.039  37.979   6.617
 4503POPC   C3A57161  11.853  37.915   7.030
 4503POPC   C4A57162  12.140  37.856   7.408
 4503POPC   C1B57163  12.520  37.513   6.207
 4503POPC   C2B57164  12.546  37.825   6.545
 4503POPC   C3B57165  12.377  37.795   6.971
 4503POPC   C4B57166  12.297  37.399   7.223
 4504POPC   NC357167  28.072  42.049   5.582
 4504POPC   PO457168  27.468  42.519   5.528
 4504POPC   GL157169  27.669  42.361   5.865
 4504POPC   GL257170  27.518  42.536   6.122
 4504POPC   C1A57171  27.892  42.234   6.263
 4504POPC   D2A57172  27.617  42.261   6.618
 4504POPC   C3A57173  27.754  42.304   7.001
 4504POPC   C4A57174  27.543  42.546   7.241
 4504POPC   C1B57175  27.403  42.050   6.198
 4504POPC   C2B57176  27.294  41.812   6.595
 4504POPC   C3B57177  27.302  41.992   7.000
 4504POPC   C4B57178  27.126  42.156   7.398
 4505POPC   NC357179  18.377   6.899   5.409
 4505POPC   PO457180  17.742   6.612   5.598
 4505POPC   GL157181  18.137   6.561   5.843
 4505POPC   GL257182  18.439   6.759   5.878
 4505POPC   C1A57183  18.213   6.532   6.264
 4505POPC   D2A57184  18.048   6.643   6.649
 4505POPC   C3A57185  18.308   6.455   6.952
 4505POPC   C4A57186  18.308   6.544   7.360
 4505POPC   C1B57187  18.627   6.862   6.253
 4505POPC   C2B57188  18.528   6.859   6.676
 4505POPC   C3B57189  18.628   6.849   7.100
 4505POPC   C4B57190  18.678   6.821   7.555
 4506POPC   NC357191  32.467   6.980   5.137
 4506POPC   PO457192  31.898   7.197   5.421
 4506POPC   GL157193  31.949   7.456   5.778
 4506POPC   GL257194  32.188   7.695   5.646
 4506POPC   C1A57195  32.072   7.311   6.179
 4506POPC   D2A57196  31.944   7.063   6.511
 4506POPC   C3A57197  32.111   7.279   6.847
 4506POPC   C4A57198  32.330   7.157   7.183
 4506POPC   C1B57199  32.425   7.708   6.049
 4506POPC   C2B57200  32.568   7.534   6.439
 4506POPC   C3B57201  32.523   7.604   6.877
 4506POPC   C4B57202  32.629   7.515   7.320
 4507POPC   NC357203  16.219  38.427   5.419
 4507POPC   PO457204  15.596  38.277   5.211
 4507POPC   GL157205  15.830  38.222   5.691
 4507POPC   GL257206  16.134  38.022   5.744
 4507POPC   C1A57207  15.747  38.386   6.138
 4507POPC   D2A57208  15.629  38.705   6.483
 4507POPC   C3A57209  15.774  38.612   6.911
 4507POPC   C4A57210  15.743  38.434   7.346
 4507POPC   C1B57211  16.213  38.139   6.188
 4507POPC   C2B57212  15.981  38.206   6.604
 4507POPC   C3B57213  16.143  38.254   7.043
 4507POPC   C4B57214  16.460  38.538   7.183
 4508POPC   NC357215   8.746  29.698   5.490
 4508POPC   PO457216   9.256  30.149   5.295
 4508POPC   GL157217   9.130  29.972   5.725
 4508POPC   GL257218   9.266  29.633   5.798
 4508POPC   C1A57219   8.944  29.837   6.149
 4508POPC   D2A57220   8.846  29.702   6.560
 4508POPC   C3A57221   8.890  29.985   6.895
 4508POPC   C4A57222   8.844  29.855   7.287
 4508POPC   C1B57223   9.447  29.799   6.233
 4508POPC   C2B57224   9.371  29.946   6.692
 4508POPC   C3B57225   9.359  29.927   7.181
 4508POPC   C4B57226   9.333  30.051   7.654
 4509POPC   NC357227  41.828  34.437   5.475
 4509POPC   PO457228  41.177  34.579   5.414
 4509POPC   GL157229  41.451  34.685   5.802
 4509POPC   GL257230  41.626  34.368   5.930
 4509POPC   C1A57231  41.603  34.782   6.241
 4509POPC   D2A57232  41.558  34.539   6.618
 4509POPC   C3A57233  41.385  34.644   7.033
 4509POPC   C4A57234  41.334  34.950   7.401
 4509POPC   C1B57235  41.979  34.389   6.237
 4509POPC   C2B57236  42.042  34.442   6.680
 4509POPC   C3B57237  41.912  34.780   6.944
 4509POPC   C4B57238  41.774  34.725   7.346
 4510POPC   NC357239   5.788  17.706   5.514
 4510POPC   PO457240   6.195  17.234   5.566
 4510POPC   GL157241   5.975  17.390   5.891
 4510POPC   GL257242   5.608  17.247   5.872
 4510POPC   C1A57243   6.130  17.620   6.230
 4510POPC   D2A57244   6.023  17.424   6.589
 4510POPC   C3A57245   6.215  17.533   6.995
 4510POPC   C4A57246   5.995  17.649   7.384
 4510POPC   C1B57247   5.618  17.520   6.249
 4510POPC   C2B57248   5.579  17.695   6.690
 4510POPC   C3B57249   5.537  17.577   7.129
 4510POPC   C4B57250   5.426  17.441   7.572
 4511POPC   NC357251  39.692  10.494   5.581
 4511POPC   PO457252  40.359  10.652   5.429
 4511POPC   GL157253  40.204  10.635   5.850
 4511POPC   GL257254  39.870  10.745   5.995
 4511POPC   C1A57255  40.310  10.870   6.230
 4511POPC   D2A57256  40.146  11.011   6.604
 4511POPC   C3A57257  39.981  10.688   6.870
 4511POPC   C4A57258  40.203  10.481   7.156
 4511POPC   C1B57259  39.903  10.360   6.234
 4511POPC   C2B57260  39.720  10.118   6.568
 4511POPC   C3B57261  39.671  10.287   6.958
 4511POPC   C4B57262  39.767  10.364   7.359
 4512POPC   NC357263  13.983  28.357   5.619
 4512POPC   PO457264  13.313  28.109   5.528
 4512POPC   GL157265  13.481  28.445   5.804
 4512POPC   GL257266  13.532  28.784   5.679
 4512POPC   C1A57267  13.638  28.567   6.209
 4512POPC   D2A57268  13.544  28.331   6.581
 4512POPC   C3A57269  13.731  28.374   6.956
 4512POPC   C4A57270  13.775  28.247   7.373
 4512POPC   C1B57271  13.297  28.929   6.050
 4512POPC   C2B57272  13.206  28.772   6.465
 4512POPC   C3B57273  13.404  28.759   6.875
 4512POPC   C4B57274  13.595  28.728   7.299
 4513POPC   NC357275  11.370  32.551   5.480
 4513POPC   PO457276  10.926  32.094   5.300
 4513POPC   GL157277  11.012  32.112   5.734
 4513POPC   GL257278  11.223  31.834   5.851
 4513POPC   C1A57279  11.107  32.222   6.166
 4513POPC   D2A57280  10.939  32.363   6.534
 4513POPC   C3A57281  11.225  32.239   6.873
 4513POPC   C4A57282  11.150  32.429   7.283
 4513POPC   C1B57283  11.536  31.935   6.209
 4513POPC   C2B57284  11.671  32.177   6.536
 4513POPC   C3B57285  11.797  32.064   6.930
 4513POPC   C4B57286  11.529  32.082   7.262
 4514POPC   NC357287  30.944  44.740   5.507
 4514POPC   PO457288  30.348  44.330   5.427
 4514POPC   GL157289  30.595  44.452   5.788
 4514POPC   GL257290  30.936  44.430   5.928
 4514POPC   C1A57291  30.577  44.709   6.175
 4514POPC   D2A57292  30.767  44.838   6.568
 4514POPC   C3A57293  30.646  44.731   6.944
 4514POPC   C4A57294  30.810  44.610   7.352
 4514POPC   C1B57295  31.082  44.829   6.159
 4514POPC   C2B57296  31.177   0.108   6.508
 4514POPC   C3B57297  31.156  44.985   6.965
 4514POPC   C4B57298  31.304  44.786   7.356
 4515POPC   NC357299  32.756  29.608   5.121
 4515POPC   PO457300  33.185  30.133   5.349
 4515POPC   GL157301  33.049  30.089   5.785
 4515POPC   GL257302  32.708  29.996   5.894
 4515POPC   C1A57303  33.116  29.894   6.200
 4515POPC   D2A57304  32.978  30.066   6.609
 4515POPC   C3A57305  33.200  29.865   6.918
 4515POPC   C4A57306  33.086  29.762   7.311
 4515POPC   C1B57307  32.660  29.676   6.243
 4515POPC   C2B57308  32.791  29.596   6.695
 4515POPC   C3B57309  32.634  29.703   7.099
 4515POPC   C4B57310  32.659  29.643   7.558
 4516POPC   NC357311  34.850   1.088   5.388
 4516POPC   PO457312  34.241   1.456   5.530
 4516POPC   GL157313  34.487   1.452   5.891
 4516POPC   GL257314  34.850   1.393   5.797
 4516POPC   C1A57315  34.432   1.380   6.324
 4516POPC   D2A57316  34.529   0.992   6.509
 4516POPC   C3A57317  34.574   1.047   6.937
 4516POPC   C4A57318  34.539   0.844   7.339
 4516POPC   C1B57319  34.914   1.222   6.198
 4516POPC   C2B57320  34.894   1.410   6.595
 4516POPC   C3B57321  34.782   1.770   6.812
 4516POPC   C4B57322  34.595   1.600   7.174
 4517POPC   NC357323  30.211  14.735   5.375
 4517POPC   PO457324  29.754  14.253   5.358
 4517POPC   GL157325  29.821  14.506   5.756
 4517POPC   GL257326  30.137  14.462   5.893
 4517POPC   C1A57327  29.765  14.472   6.234
 4517POPC   D2A57328  29.653  14.252   6.634
 4517POPC   C3A57329  29.925  14.298   7.059
 4517POPC   C4A57330  29.794  14.497   7.455
 4517POPC   C1B57331  30.304  14.252   6.303
 4517POPC   C2B57332  30.355  14.079   6.754
 4517POPC   C3B57333  30.300  13.966   7.185
 4517POPC   C4B57334  30.054  13.998   7.557
 4518POPC   NC357335  33.411  40.699   5.571
 4518POPC   PO457336  34.071  40.795   5.436
 4518POPC   GL157337  33.824  40.946   5.787
 4518POPC   GL257338  33.810  40.622   5.868
 4518POPC   C1A57339  33.596  40.926   6.212
 4518POPC   D2A57340  33.642  41.081   6.622
 4518POPC   C3A57341  33.690  40.932   7.051
 4518POPC   C4A57342  34.013  41.147   7.275
 4518POPC   C1B57343  33.500  40.410   6.157
 4518POPC   C2B57344  33.498  40.465   6.601
 4518POPC   C3B57345  33.669  40.411   7.006
 4518POPC   C4B57346  33.522  40.521   7.407
 4519POPC   NC357347   3.434   2.922   5.136
 4519POPC   PO457348   3.965   2.601   5.337
 4519POPC   GL157349   3.735   2.679   5.748
 4519POPC   GL257350   3.618   3.035   5.833
 4519POPC   C1A57351   3.585   2.540   6.191
 4519POPC   D2A57352   3.619   2.288   6.584
 4519POPC   C3A57353   3.455   2.530   6.922
 4519POPC   C4A57354   3.306   2.777   7.249
 4519POPC   C1B57355   3.628   3.111   6.324
 4519POPC   C2B57356   3.482   3.190   6.802
 4519POPC   C3B57357   3.595   3.186   7.278
 4519POPC   C4B57358   3.812   3.077   7.709
 4520POPC   NC357359  31.053  28.467   5.621
 4520POPC   PO457360  31.422  28.059   5.138
 4520POPC   GL157361  31.398  28.047   5.681
 4520POPC   GL257362  31.507  28.373   5.858
 4520POPC   C1A57363  31.492  27.979   6.188
 4520POPC   D2A57364  31.613  28.227   6.596
 4520POPC   C3A57365  31.418  28.171   7.025
 4520POPC   C4A57366  31.386  28.356   7.490
 4520POPC   C1B57367  31.308  28.460   6.257
 4520POPC   C2B57368  31.216  28.545   6.700
 4520POPC   C3B57369  31.105  28.581   7.122
 4520POPC   C4B57370  31.018  28.701   7.561
 4521POPC   NC357371  20.212  39.049   5.358
 4521POPC   PO457372  19.519  39.289   5.241
 4521POPC   GL157373  19.597  39.130   5.663
 4521POPC   GL257374  19.901  39.249   5.685
 4521POPC   C1A57375  19.614  39.330   6.091
 4521POPC   D2A57376  19.537  39.336   6.520
 4521POPC   C3A57377  19.756  39.232   6.880
 4521POPC   C4A57378  19.732  39.388   7.247
 4521POPC   C1B57379  20.126  39.341   6.054
 4521POPC   C2B57380  20.077  39.312   6.498
 4521POPC   C3B57381  20.262  39.352   6.910
 4521POPC   C4B57382  20.222  39.270   7.342
 4522POPC   NC357383  19.906  21.371   5.512
 4522POPC   PO457384  19.340  21.086   5.285
 4522POPC   GL157385  19.489  21.216   5.755
 4522POPC   GL257386  19.555  21.535   5.838
 4522POPC   C1A57387  19.824  21.264   6.151
 4522POPC   D2A57388  19.854  21.611   6.454
 4522POPC   C3A57389  19.844  21.462   6.853
 4522POPC   C4A57390  19.788  21.473   7.271
 4522POPC   C1B57391  19.374  21.600   6.228
 4522POPC   C2B57392  19.335  21.461   6.659
 4522POPC   C3B57393  19.320  21.627   7.078
 4522POPC   C4B57394  19.435  21.734   7.519
 4523POPC   NC357395  26.164  17.428   5.505
 4523POPC   PO457396  25.935  18.086   5.478
 4523POPC   GL157397  25.940  17.790   5.787
 4523POPC   GL257398  26.299  17.753   5.895
 4523POPC   C1A57399  25.868  17.578   6.139
 4523POPC   D2A57400  26.120  17.360   6.433
 4523POPC   C3A57401  25.884  17.198   6.790
 4523POPC   C4A57402  25.819  17.526   7.069
 4523POPC   C1B57403  26.249  17.882   6.334
 4523POPC   C2B57404  26.186  17.768   6.783
 4523POPC   C3B57405  26.196  17.826   7.262
 4523POPC   C4B57406  26.139  17.816   7.746
 4524POPC   NC357407   7.988   6.126   5.416
 4524POPC   PO457408   8.495   6.161   5.837
 4524POPC   GL157409   8.114   5.907   5.865
 4524POPC   GL257410   8.235   5.579   5.862
 4524POPC   C1A57411   7.810   5.736   6.180
 4524POPC   D2A57412   7.888   5.619   6.602
 4524POPC   C3A57413   7.906   5.866   7.059
 4524POPC   C4A57414   8.045   5.855   7.534
 4524POPC   C1B57415   8.302   5.755   6.323
 4524POPC   C2B57416   8.388   5.669   6.755
 4524POPC   C3B57417   8.395   5.714   7.177
 4524POPC   C4B57418   8.471   6.095   7.422
 4525POPC   NC357419  26.336  16.410   5.431
 4525POPC   PO457420  26.194  16.994   5.631
 4525POPC   GL157421  26.177  16.614   5.882
 4525POPC   GL257422  25.843  16.580   5.921
 4525POPC   C1A57423  26.259  16.551   6.341
 4525POPC   D2A57424  26.276  16.918   6.624
 4525POPC   C3A57425  26.281  16.983   7.060
 4525POPC   C4A57426  26.393  16.599   7.209
 4525POPC   C1B57427  25.906  16.913   6.256
 4525POPC   C2B57428  25.829  16.682   6.664
 4525POPC   C3B57429  25.892  16.633   7.100
 4525POPC   C4B57430  25.820  16.924   7.410
 4526POPC   NC357431  31.013  14.725   5.673
 4526POPC   PO457432  30.506  15.134   5.451
 4526POPC   GL157433  30.655  15.307   5.827
 4526POPC   GL257434  30.908  15.104   5.997
 4526POPC   C1A57435  30.706  15.526   6.224
 4526POPC   D2A57436  30.814  15.367   6.608
 4526POPC   C3A57437  30.499  15.523   6.850
 4526POPC   C4A57438  30.490  15.474   7.271
 4526POPC   C1B57439  30.576  15.048   6.271
 4526POPC   C2B57440  30.402  15.038   6.668
 4526POPC   C3B57441  30.545  14.995   7.092
 4526POPC   C4B57442  30.646  14.808   7.506
 4527POPC   NC357443   3.396  15.199   5.261
 4527POPC   PO457444   3.787  14.616   5.403
 4527POPC   GL157445   3.786  14.886   5.808
 4527POPC   GL257446   3.476  15.092   5.759
 4527POPC   C1A57447   3.728  15.139   6.201
 4527POPC   D2A57448   3.574  15.334   6.576
 4527POPC   C3A57449   3.777  15.221   6.953
 4527POPC   C4A57450   3.596  15.193   7.340
 4527POPC   C1B57451   3.276  14.918   6.135
 4527POPC   C2B57452   3.402  14.850   6.550
 4527POPC   C3B57453   3.307  14.991   6.964
 4527POPC   C4B57454   3.298  14.783   7.375
 4528POPC   NC357455  42.947  35.355   5.193
 4528POPC   PO457456  43.554  35.561   5.437
 4528POPC   GL157457  43.263  35.477   5.785
 4528POPC   GL257458  43.229  35.155   5.823
 4528POPC   C1A57459  43.065  35.387   6.244
 4528POPC   D2A57460  43.145  35.558   6.668
 4528POPC   C3A57461  42.933  35.719   7.034
 4528POPC   C4A57462  43.079  35.355   7.207
 4528POPC   C1B57463  42.876  34.946   6.026
 4528POPC   C2B57464  42.889  34.831   6.445
 4528POPC   C3B57465  42.977  35.014   6.835
 4528POPC   C4B57466  42.830  34.923   7.241
 4529POPC   NC357467  11.735  16.589   5.557
 4529POPC   PO457468  12.216  16.892   5.112
 4529POPC   GL157469  12.203  16.837   5.600
 4529POPC   GL257470  12.394  17.126   5.567
 4529POPC   C1A57471  12.056  16.803   6.099
 4529POPC   D2A57472  11.774  16.581   6.415
 4529POPC   C3A57473  11.941  16.563   6.840
 4529POPC   C4A57474  11.814  16.540   7.257
 4529POPC   C1B57475  12.479  17.058   6.005
 4529POPC   C2B57476  12.480  17.015   6.445
 4529POPC   C3B57477  12.472  16.885   6.872
 4529POPC   C4B57478  12.150  16.903   7.170
 4530POPC   NC357479  41.176  33.686   5.382
 4530POPC   PO457480  41.777  33.966   5.440
 4530POPC   GL157481  41.542  33.844   5.819
 4530POPC   GL257482  41.268  33.599   5.892
 4530POPC   C1A57483  41.473  33.995   6.236
 4530POPC   D2A57484  41.714  34.041   6.580
 4530POPC   C3A57485  41.490  34.109   6.932
 4530POPC   C4A57486  41.634  34.197   7.289
 4530POPC   C1B57487  41.190  33.593   6.366
 4530POPC   C2B57488  41.459  33.611   6.701
 4530POPC   C3B57489  41.539  33.644   7.144
 4530POPC   C4B57490  41.378  33.561   7.561
 4531POPC   NC357491  13.986  26.922   5.593
 4531POPC   PO457492  14.696  26.658   5.650
 4531POPC   GL157493  14.385  26.797   5.887
 4531POPC   GL257494  14.037  26.725   6.056
 4531POPC   C1A57495  14.482  26.832   6.301
 4531POPC   D2A57496  14.277  26.704   6.647
 4531POPC   C3A57497  14.592  26.757   6.968
 4531POPC   C4A57498  14.537  26.716   7.404
 4531POPC   C1B57499  14.143  27.188   6.133
 4531POPC   C2B57500  14.252  27.265   6.537
 4531POPC   C3B57501  14.079  27.077   6.923
 4531POPC   C4B57502  14.115  26.947   7.358
 4532POPC   NC357503  39.504  32.122   5.352
 4532POPC   PO457504  39.140  32.735   5.430
 4532POPC   GL157505  39.122  32.381   5.788
 4532POPC   GL257506  38.829  32.101   5.756
 4532POPC   C1A57507  39.173  32.400   6.279
 4532POPC   D2A57508  39.160  32.696   6.679
 4532POPC   C3A57509  39.349  32.537   7.082
 4532POPC   C4A57510  39.148  32.363   7.449
 4532POPC   C1B57511  39.099  31.899   6.088
 4532POPC   C2B57512  39.315  31.933   6.511
 4532POPC   C3B57513  39.203  32.067   6.930
 4532POPC   C4B57514  39.067  31.881   7.312
 4533POPC   NC357515   8.458  27.821   5.476
 4533POPC   PO457516   8.852  27.289   5.303
 4533POPC   GL157517   8.996  27.539   5.711
 4533POPC   GL257518   8.702  27.640   5.889
 4533POPC   C1A57519   9.117  27.616   6.201
 4533POPC   D2A57520   9.194  27.412   6.645
 4533POPC   C3A57521   9.140  27.657   7.052
 4533POPC   C4A57522   9.306  27.919   7.409
 4533POPC   C1B57523   8.558  27.885   6.233
 4533POPC   C2B57524   8.479  27.763   6.657
 4533POPC   C3B57525   8.655  27.876   7.026
 4533POPC   C4B57526   8.742  27.619   7.377
 4534POPC   NC357527   2.468  24.556   5.502
 4534POPC   PO457528   1.836  24.155   5.404
 4534POPC   GL157529   2.032  24.389   5.716
 4534POPC   GL257530   2.273  24.122   5.750
 4534POPC   C1A57531   2.079  24.627   6.115
 4534POPC   D2A57532   1.964  24.499   6.534
 4534POPC   C3A57533   1.795  24.655   6.895
 4534POPC   C4A57534   2.048  24.609   7.242
 4534POPC   C1B57535   2.053  24.126   6.154
 4534POPC   C2B57536   1.968  23.999   6.565
 4534POPC   C3B57537   1.978  24.160   6.977
 4534POPC   C4B57538   2.123  23.924   7.315
 4535POPC   NC357539  35.603  14.894   5.516
 4535POPC   PO457540  35.058  15.365   5.407
 4535POPC   GL157541  35.121  15.413   5.853
 4535POPC   GL257542  35.272  15.067   5.885
 4535POPC   C1A57543  35.098  15.378   6.319
 4535POPC   D2A57544  35.465  15.417   6.615
 4535POPC   C3A57545  35.369  15.444   7.056
 4535POPC   C4A57546  35.461  15.279   7.460
 4535POPC   C1B57547  35.385  14.947   6.293
 4535POPC   C2B57548  35.224  14.970   6.721
 4535POPC   C3B57549  35.269  14.908   7.156
 4535POPC   C4B57550  35.500  14.661   7.470
 4536POPC   NC357551  33.221   1.238   5.123
 4536POPC   PO457552  32.676   0.941   5.261
 4536POPC   GL157553  32.871   1.123   5.637
 4536POPC   GL257554  33.189   0.921   5.612
 4536POPC   C1A57555  32.818   1.276   6.097
 4536POPC   D2A57556  32.737   1.641   6.413
 4536POPC   C3A57557  32.831   1.582   6.882
 4536POPC   C4A57558  32.839   1.503   7.340
 4536POPC   C1B57559  33.076   0.827   6.063
 4536POPC   C2B57560  32.871   0.795   6.480
 4536POPC   C3B57561  32.861   1.011   6.901
 4536POPC   C4B57562  33.179   1.122   7.205
 4537POPC   NC357563  24.603  23.582   5.321
 4537POPC   PO457564  24.279  24.235   5.310
 4537POPC   GL157565  24.529  23.946   5.664
 4537POPC   GL257566  24.359  23.622   5.746
 4537POPC   C1A57567  24.730  23.737   6.075
 4537POPC   D2A57568  24.562  23.744   6.510
 4537POPC   C3A57569  24.653  23.799   6.938
 4537POPC   C4A57570  24.483  23.853   7.353
 4537POPC   C1B57571  24.218  23.384   6.067
 4537POPC   C2B57572  24.353  23.286   6.444
 4537POPC   C3B57573  24.291  23.423   6.836
 4537POPC   C4B57574  24.469  23.392   7.203
 4538POPC   NC357575  24.949  19.173   5.605
 4538POPC   PO457576  25.530  19.367   5.622
 4538POPC   GL157577  25.344  19.038   5.907
 4538POPC   GL257578  25.189  18.708   5.782
 4538POPC   C1A57579  24.995  18.993   6.219
 4538POPC   D2A57580  24.839  19.171   6.593
 4538POPC   C3A57581  25.239  19.227   6.824
 4538POPC   C4A57582  25.325  19.320   7.245
 4538POPC   C1B57583  25.078  18.483   6.201
 4538POPC   C2B57584  24.833  18.642   6.585
 4538POPC   C3B57585  24.934  18.654   7.042
 4538POPC   C4B57586  25.204  18.834   7.258
 4539POPC   NC357587  36.237  26.590   5.439
 4539POPC   PO457588  35.942  27.188   5.401
 4539POPC   GL157589  36.082  27.033   5.829
 4539POPC   GL257590  36.356  26.777   5.906
 4539POPC   C1A57591  36.016  27.026   6.279
 4539POPC   D2A57592  36.301  27.041   6.583
 4539POPC   C3A57593  36.233  26.802   6.908
 4539POPC   C4A57594  36.373  26.656   7.280
 4539POPC   C1B57595  36.011  26.554   6.061
 4539POPC   C2B57596  35.848  26.529   6.438
 4539POPC   C3B57597  35.954  26.393   6.815
 4539POPC   C4B57598  35.909  26.508   7.203
 4540POPC   NC357599   5.732  33.546   5.503
 4540POPC   PO457600   5.750  34.233   5.458
 4540POPC   GL157601   5.953  33.981   5.805
 4540POPC   GL257602   5.689  33.799   5.944
 4540POPC   C1A57603   6.139  33.655   6.124
 4540POPC   D2A57604   6.347  33.512   6.550
 4540POPC   C3A57605   6.117  33.625   6.939
 4540POPC   C4A57606   5.688  33.591   7.111
 4540POPC   C1B57607   5.728  34.239   6.176
 4540POPC   C2B57608   5.900  34.301   6.599
 4540POPC   C3B57609   5.715  34.239   7.005
 4540POPC   C4B57610   5.496  34.137   7.366
 4541POPC   NC357611  14.185   8.719   5.504
 4541POPC   PO457612  14.074   9.415   5.388
 4541POPC   GL157613  14.299   9.149   5.742
 4541POPC   GL257614  14.642   9.178   5.842
 4541POPC   C1A57615  14.302   8.922   6.165
 4541POPC   D2A57616  14.094   9.067   6.572
 4541POPC   C3A57617  14.237   8.909   6.993
 4541POPC   C4A57618  14.408   8.965   7.396
 4541POPC   C1B57619  14.697   9.311   6.246
 4541POPC   C2B57620  14.582   9.239   6.658
 4541POPC   C3B57621  14.778   9.056   7.010
 4541POPC   C4B57622  14.862   9.208   7.420
 4542POPC   NC357623  38.453  15.479   5.439
 4542POPC   PO457624  38.428  14.820   5.510
 4542POPC   GL157625  38.503  15.120   5.838
 4542POPC   GL257626  38.224  15.336   5.866
 4542POPC   C1A57627  38.547  15.048   6.287
 4542POPC   D2A57628  38.510  14.762   6.653
 4542POPC   C3A57629  38.421  15.043   7.005
 4542POPC   C4A57630  38.668  15.335   7.187
 4542POPC   C1B57631  38.235  15.484   6.263
 4542POPC   C2B57632  38.219  15.414   6.709
 4542POPC   C3B57633  38.145  15.573   7.130
 4542POPC   C4B57634  37.997  15.697   7.542
 4543POPC   NC357635  18.675  21.684   5.521
 4543POPC   PO457636  18.346  21.063   5.394
 4543POPC   GL157637  18.374  21.330   5.738
 4543POPC   GL257638  18.080  21.157   5.826
 4543POPC   C1A57639  18.466  21.542   6.148
 4543POPC   D2A57640  18.386  21.335   6.555
 4543POPC   C3A57641  18.438  21.188   6.982
 4543POPC   C4A57642  18.505  21.436   7.348
 4543POPC   C1B57643  17.979  21.388   6.197
 4543POPC   C2B57644  17.909  21.490   6.626
 4543POPC   C3B57645  18.111  21.601   6.986
 4543POPC   C4B57646  18.008  21.414   7.359
 4544POPC   NC357647  28.827   4.560   5.444
 4544POPC   PO457648  29.297   4.028   5.352
 4544POPC   GL157649  29.336   4.164   5.788
 4544POPC   GL257650  29.214   4.502   5.777
 4544POPC   C1A57651  29.071   4.239   6.192
 4544POPC   D2A57652  28.982   4.509   6.561
 4544POPC   C3A57653  28.765   4.473   6.949
 4544POPC   C4A57654  28.921   4.438   7.364
 4544POPC   C1B57655  29.318   4.699   6.187
 4544POPC   C2B57656  29.463   4.727   6.640
 4544POPC   C3B57657  29.299   4.646   7.077
 4544POPC   C4B57658  29.333   4.677   7.556
 4545POPC   NC357659  30.440  25.517   5.390
 4545POPC   PO457660  30.916  25.239   5.158
 4545POPC   GL157661  30.783  25.247   5.656
 4545POPC   GL257662  30.475  25.181   5.803
 4545POPC   C1A57663  30.718  25.512   6.091
 4545POPC   D2A57664  30.726  25.328   6.499
 4545POPC   C3A57665  30.533  25.506   6.879
 4545POPC   C4A57666  30.683  25.469   7.287
 4545POPC   C1B57667  30.240  25.101   6.200
 4545POPC   C2B57668  30.288  25.119   6.652
 4545POPC   C3B57669  30.566  24.981   6.934
 4545POPC   C4B57670  30.538  24.983   7.343
 4546POPC   NC357671  14.530  42.133   5.373
 4546POPC   PO457672  13.800  42.079   5.553
 4546POPC   GL157673  14.111  42.236   5.853
 4546POPC   GL257674  14.477  42.262   5.870
 4546POPC   C1A57675  14.204  42.547   6.189
 4546POPC   D2A57676  14.244  42.278   6.524
 4546POPC   C3A57677  14.222  42.448   6.920
 4546POPC   C4A57678  14.147  42.178   7.280
 4546POPC   C1B57679  14.705  42.420   6.254
 4546POPC   C2B57680  14.708  42.361   6.712
 4546POPC   C3B57681  14.591  42.136   7.074
 4546POPC   C4B57682  14.594  42.207   7.559
 4547POPC   NC357683  27.480  38.580   5.206
 4547POPC   PO457684  27.513  39.319   5.243
 4547POPC   GL157685  27.551  39.101   5.640
 4547POPC   GL257686  27.833  39.239   5.848
 4547POPC   C1A57687  27.387  39.147   6.065
 4547POPC   D2A57688  27.514  39.373   6.425
 4547POPC   C3A57689  27.435  39.077   6.749
 4547POPC   C4A57690  27.481  39.107   7.166
 4547POPC   C1B57691  27.854  39.637   6.075
 4547POPC   C2B57692  27.949  39.685   6.514
 4547POPC   C3B57693  27.839  39.415   6.856
 4547POPC   C4B57694  27.651  39.580   7.200
 4548POPC   NC357695  10.243  16.819   5.417
 4548POPC   PO457696  10.763  17.248   5.391
 4548POPC   GL157697  10.609  16.931   5.760
 4548POPC   GL257698  10.266  17.053   5.842
 4548POPC   C1A57699  10.498  16.581   6.127
 4548POPC   D2A57700  10.766  16.455   6.524
 4548POPC   C3A57701  10.642  16.618   6.952
 4548POPC   C4A57702  10.312  16.543   7.269
 4548POPC   C1B57703  10.410  17.068   6.231
 4548POPC   C2B57704  10.336  16.858   6.599
 4548POPC   C3B57705  10.360  17.063   6.993
 4548POPC   C4B57706  10.298  17.087   7.420
 4549POPC   NC357707  37.423   8.426   5.423
 4549POPC   PO457708  36.870   8.154   5.260
 4549POPC   GL157709  36.893   8.150   5.707
 4549POPC   GL257710  37.162   7.931   5.693
 4549POPC   C1A57711  36.794   8.094   6.161
 4549POPC   D2A57712  36.617   8.032   6.572
 4549POPC   C3A57713  36.814   8.170   6.944
 4549POPC   C4A57714  37.033   8.423   7.258
 4549POPC   C1B57715  37.273   7.893   6.128
 4549POPC   C2B57716  37.137   7.932   6.582
 4549POPC   C3B57717  37.285   8.010   7.027
 4549POPC   C4B57718  37.121   7.963   7.442
 4550POPC   NC357719  10.219  22.360   5.197
 4550POPC   PO457720  10.697  21.819   5.281
 4550POPC   GL157721  10.573  22.005   5.686
 4550POPC   GL257722  10.261  22.072   5.773
 4550POPC   C1A57723  10.724  22.186   6.110
 4550POPC   D2A57724  10.769  22.037   6.567
 4550POPC   C3A57725  10.683  22.290   6.932
 4550POPC   C4A57726  10.335  22.277   7.184
 4550POPC   C1B57727  10.332  21.865   6.144
 4550POPC   C2B57728  10.233  21.841   6.578
 4550POPC   C3B57729  10.415  21.809   6.975
 4550POPC   C4B57730  10.302  21.802   7.394
 4551POPC   NC357731   9.092  24.806   5.474
 4551POPC   PO457732   9.056  25.443   5.302
 4551POPC   GL157733   9.038  25.353   5.774
 4551POPC   GL257734   9.175  25.039   5.902
 4551POPC   C1A57735   8.945  25.531   6.193
 4551POPC   D2A57736   9.164  25.449   6.590
 4551POPC   C3A57737   8.924  25.483   6.971
 4551POPC   C4A57738   8.657  25.801   7.125
 4551POPC   C1B57739   8.947  25.021   6.256
 4551POPC   C2B57740   8.721  24.836   6.577
 4551POPC   C3B57741   8.924  24.943   6.951
 4551POPC   C4B57742   9.171  25.117   7.273
 4552POPC   NC357743   7.741  22.197   5.426
 4552POPC   PO457744   7.020  22.031   5.444
 4552POPC   GL157745   7.335  22.247   5.705
 4552POPC   GL257746   7.473  21.918   5.788
 4552POPC   C1A57747   7.623  22.345   6.080
 4552POPC   D2A57748   7.591  22.477   6.545
 4552POPC   C3A57749   7.637  22.246   6.942
 4552POPC   C4A57750   7.482  22.271   7.383
 4552POPC   C1B57751   7.290  21.972   6.198
 4552POPC   C2B57752   7.257  22.018   6.641
 4552POPC   C3B57753   7.154  22.078   7.058
 4552POPC   C4B57754   7.131  21.947   7.518
 4553POPC   NC357755  39.579  22.013   5.251
 4553POPC   PO457756  39.330  22.432   5.685
 4553POPC   GL157757  39.354  22.196   6.008
 4553POPC   GL257758  39.622  22.458   6.124
 4553POPC   C1A57759  38.999  22.062   6.245
 4553POPC   D2A57760  38.788  22.337   6.528
 4553POPC   C3A57761  38.933  22.339   6.983
 4553POPC   C4A57762  38.886  22.183   7.434
 4553POPC   C1B57763  39.334  22.373   6.492
 4553POPC   C2B57764  39.213  21.986   6.714
 4553POPC   C3B57765  39.244  21.931   7.142
 4553POPC   C4B57766  39.358  22.329   7.381
 4554POPC   NC357767  13.397  12.050   5.107
 4554POPC   PO457768  13.313  11.796   5.708
 4554POPC   GL157769  13.617  12.101   5.954
 4554POPC   GL257770  13.988  12.097   5.915
 4554POPC   C1A57771  13.455  12.202   6.345
 4554POPC   D2A57772  13.324  11.974   6.687
 4554POPC   C3A57773  13.478  12.182   7.058
 4554POPC   C4A57774  13.898  12.250   7.175
 4554POPC   C1B57775  13.877  11.919   6.354
 4554POPC   C2B57776  13.862  11.883   6.803
 4554POPC   C3B57777  13.671  11.742   7.186
 4554POPC   C4B57778  13.376  11.718   7.531
 4555POPC   NC357779   0.193  11.505   4.978
 4555POPC   PO457780   0.462  11.138   5.389
 4555POPC   GL157781   0.592  11.068   5.829
 4555POPC   GL257782   0.828  11.347   5.839
 4555POPC   C1A57783   0.423  11.097   6.264
 4555POPC   D2A57784   0.224  11.141   6.659
 4555POPC   C3A57785   0.420  11.127   7.051
 4555POPC   C4A57786   0.247  11.147   7.475
 4555POPC   C1B57787   0.650  11.542   6.256
 4555POPC   C2B57788   0.505  11.590   6.735
 4555POPC   C3B57789   0.582  11.604   7.201
 4555POPC   C4B57790   0.901  11.608   7.514
 4556POPC   NC357791  18.050  15.245   5.459
 4556POPC   PO457792  18.648  15.531   5.335
 4556POPC   GL157793  18.439  15.447   5.764
 4556POPC   GL257794  18.377  15.091   5.850
 4556POPC   C1A57795  18.429  15.407   6.246
 4556POPC   D2A57796  18.156  15.555   6.597
 4556POPC   C3A57797  18.200  15.302   6.969
 4556POPC   C4A57798  18.092  15.228   7.418
 4556POPC   C1B57799  18.386  14.873   6.278
 4556POPC   C2B57800  18.285  14.829   6.728
 4556POPC   C3B57801  18.359  14.856   7.179
 4556POPC   C4B57802  18.391  14.890   7.636
 4557POPC   NC357803  10.984  44.602   5.548
 4557POPC   PO457804  10.591  44.145   5.362
 4557POPC   GL157805  10.521  44.421   5.770
 4557POPC   GL257806  10.476  44.804   5.726
 4557POPC   C1A57807  10.665  44.642   6.174
 4557POPC   D2A57808  10.871  44.601   6.583
 4557POPC   C3A57809  10.619  44.476   6.938
 4557POPC   C4A57810  10.767  44.426   7.353
 4557POPC   C1B57811  10.208   0.056   6.047
 4557POPC   C2B57812  10.180   0.078   6.529
 4557POPC   C3B57813  10.262  44.979   7.001
 4557POPC   C4B57814  10.519  44.862   7.398
 4558POPC   NC357815  28.379  28.714   5.354
 4558POPC   PO457816  28.570  27.984   5.394
 4558POPC   GL157817  28.373  28.303   5.716
 4558POPC   GL257818  28.448  28.127   6.016
 4558POPC   C1A57819  28.239  28.567   6.112
 4558POPC   D2A57820  28.347  28.316   6.490
 4558POPC   C3A57821  28.345  28.445   6.910
 4558POPC   C4A57822  28.149  28.346   7.306
 4558POPC   C1B57823  28.718  27.986   6.351
 4558POPC   C2B57824  28.725  28.017   6.802
 4558POPC   C3B57825  28.632  28.140   7.222
 4558POPC   C4B57826  28.435  28.034   7.618
 4559POPC   NC357827  30.138   3.430   5.497
 4559POPC   PO457828  30.855   3.621   5.482
 4559POPC   GL157829  30.650   3.771   5.876
 4559POPC   GL257830  30.288   3.713   5.913
 4559POPC   C1A57831  30.721   3.652   6.309
 4559POPC   D2A57832  31.050   3.550   6.561
 4559POPC   C3A57833  30.976   3.671   6.970
 4559POPC   C4A57834  30.884   3.328   7.191
 4559POPC   C1B57835  30.492   3.300   6.028
 4559POPC   C2B57836  30.592   3.147   6.412
 4559POPC   C3B57837  30.565   3.309   6.801
 4559POPC   C4B57838  30.354   3.225   7.184
 4560POPC   NC357839   4.293  20.628   5.309
 4560POPC   PO457840   4.620  20.901   5.793
 4560POPC   GL157841   4.589  20.490   5.927
 4560POPC   GL257842   4.269  20.351   5.872
 4560POPC   C1A57843   4.725  20.391   6.328
 4560POPC   D2A57844   4.566  20.196   6.684
 4560POPC   C3A57845   4.522  20.428   7.040
 4560POPC   C4A57846   4.534  20.786   7.303
 4560POPC   C1B57847   4.201  20.358   6.349
 4560POPC   C2B57848   4.057  20.334   6.821
 4560POPC   C3B57849   4.079  20.339   7.295
 4560POPC   C4B57850   4.081  20.325   7.768
 4561POPC   NC357851  14.083  15.691   5.463
 4561POPC   PO457852  14.669  16.023   5.489
 4561POPC   GL157853  14.455  15.875   5.877
 4561POPC   GL257854  14.135  15.694   5.958
 4561POPC   C1A57855  14.425  15.960   6.328
 4561POPC   D2A57856  14.532  16.237   6.664
 4561POPC   C3A57857  14.647  16.071   7.061
 4561POPC   C4A57858  14.397  15.834   7.348
 4561POPC   C1B57859  13.999  16.112   6.088
 4561POPC   C2B57860  13.954  16.063   6.531
 4561POPC   C3B57861  14.118  16.031   6.953
 4561POPC   C4B57862  14.125  16.293   7.334
 4562POPC   NC357863  10.658   5.153   5.302
 4562POPC   PO457864  10.001   5.397   5.499
 4562POPC   GL157865  10.359   5.214   5.763
 4562POPC   GL257866  10.664   4.976   5.759
 4562POPC   C1A57867  10.541   5.360   6.155
 4562POPC   D2A57868  10.523   5.138   6.570
 4562POPC   C3A57869  10.677   5.104   6.993
 4562POPC   C4A57870  10.542   5.466   7.170
 4562POPC   C1B57871  10.596   4.843   6.158
 4562POPC   C2B57872  10.662   4.615   6.504
 4562POPC   C3B57873  10.914   4.673   6.828
 4562POPC   C4B57874  10.910   4.695   7.264
 4563POPC   NC357875  13.800  44.788   5.378
 4563POPC   PO457876  13.279  44.441   5.387
 4563POPC   GL157877  13.536  44.575   5.793
 4563POPC   GL257878  13.917  44.613   5.842
 4563POPC   C1A57879  13.623  44.653   6.263
 4563POPC   D2A57880  13.498  44.759   6.694
 4563POPC   C3A57881  13.537  44.449   7.036
 4563POPC   C4A57882  13.803  44.434   7.401
 4563POPC   C1B57883  14.102  44.868   6.209
 4563POPC   C2B57884  13.994  44.970   6.657
 4563POPC   C3B57885  13.811  44.904   7.083
 4563POPC   C4B57886  14.062  44.881   7.480
 4564POPC   NC357887  20.576  16.952   5.314
 4564POPC   PO457888  20.897  16.402   5.437
 4564POPC   GL157889  20.609  16.639   5.721
 4564POPC   GL257890  20.708  16.966   5.807
 4564POPC   C1A57891  20.435  16.594   6.138
 4564POPC   D2A57892  20.501  16.600   6.592
 4564POPC   C3A57893  20.493  16.562   7.050
 4564POPC   C4A57894  20.710  16.384   7.410
 4564POPC   C1B57895  20.749  16.967   6.233
 4564POPC   C2B57896  20.561  17.101   6.557
 4564POPC   C3B57897  20.670  17.218   6.922
 4564POPC   C4B57898  20.754  16.967   7.277
 4565POPC   NC357899  25.798  16.839   5.452
 4565POPC   PO457900  25.092  16.583   5.368
 4565POPC   GL157901  25.264  16.702   5.814
 4565POPC   GL257902  25.491  16.938   5.849
 4565POPC   C1A57903  25.066  16.936   6.174
 4565POPC   D2A57904  24.853  16.940   6.557
 4565POPC   C3A57905  25.000  16.797   6.940
 4565POPC   C4A57906  25.032  17.082   7.220
 4565POPC   C1B57907  25.475  16.680   6.266
 4565POPC   C2B57908  25.390  16.964   6.607
 4565POPC   C3B57909  25.491  16.933   7.016
 4565POPC   C4B57910  25.400  16.633   7.301
 4566POPC   NC357911  15.032  24.745   5.607
 4566POPC   PO457912  15.416  24.447   5.164
 4566POPC   GL157913  15.453  24.441   5.621
 4566POPC   GL257914  15.184  24.289   5.775
 4566POPC   C1A57915  15.503  24.559   6.102
 4566POPC   D2A57916  15.385  24.383   6.494
 4566POPC   C3A57917  15.494  24.479   6.915
 4566POPC   C4A57918  15.295  24.347   7.278
 4566POPC   C1B57919  14.990  24.486   6.168
 4566POPC   C2B57920  14.761  24.686   6.474
 4566POPC   C3B57921  14.943  24.623   6.860
 4566POPC   C4B57922  14.848  24.594   7.287
 4567POPC   NC357923   4.174  30.590   5.524
 4567POPC   PO457924   4.824  30.745   5.594
 4567POPC   GL157925   4.490  30.939   5.874
 4567POPC   GL257926   4.088  30.935   5.899
 4567POPC   C1A57927   4.456  30.830   6.309
 4567POPC   D2A57928   4.560  30.511   6.652
 4567POPC   C3A57929   4.487  30.634   7.084
 4567POPC   C4A57930   4.545  30.504   7.533
 4567POPC   C1B57931   3.970  30.672   6.268
 4567POPC   C2B57932   4.080  30.703   6.720
 4567POPC   C3B57933   3.871  30.822   7.108
 4567POPC   C4B57934   3.750  30.796   7.565
 4568POPC   NC357935  29.034   2.691   5.554
 4568POPC   PO457936  29.420   3.053   5.168
 4568POPC   GL157937  29.488   2.796   5.706
 4568POPC   GL257938  29.232   2.853   6.005
 4568POPC   C1A57939  29.518   2.473   6.107
 4568POPC   D2A57940  29.229   2.527   6.453
 4568POPC   C3A57941  29.395   2.558   6.864
 4568POPC   C4A57942  29.434   2.744   7.262
 4568POPC   C1B57943  28.844   2.885   6.244
 4568POPC   C2B57944  28.788   3.080   6.627
 4568POPC   C3B57945  29.005   2.904   6.972
 4568POPC   C4B57946  28.771   2.997   7.306
 4569POPC   NC357947  32.751   5.427   5.509
 4569POPC   PO457948  33.107   5.970   5.482
 4569POPC   GL157949  32.842   5.886   5.781
 4569POPC   GL257950  32.583   6.154   5.757
 4569POPC   C1A57951  33.026   5.745   6.172
 4569POPC   D2A57952  33.323   5.605   6.506
 4569POPC   C3A57953  33.061   5.507   6.864
 4569POPC   C4A57954  32.934   5.725   7.199
 4569POPC   C1B57955  32.812   6.215   6.188
 4569POPC   C2B57956  32.990   6.016   6.606
 4569POPC   C3B57957  33.003   6.193   7.014
 4569POPC   C4B57958  32.590   6.319   7.079
 4570POPC   NC357959  10.069  22.544   5.741
 4570POPC   PO457960   9.946  21.974   5.402
 4570POPC   GL157961   9.729  22.148   5.785
 4570POPC   GL257962   9.434  22.395   5.823
 4570POPC   C1A57963   9.846  22.073   6.219
 4570POPC   D2A57964   9.711  21.879   6.615
 4570POPC   C3A57965   9.915  21.979   6.996
 4570POPC   C4A57966   9.921  22.126   7.405
 4570POPC   C1B57967   9.579  22.587   6.197
 4570POPC   C2B57968   9.739  22.430   6.586
 4570POPC   C3B57969   9.893  22.530   6.985
 4570POPC   C4B57970   9.586  22.504   7.283
 4571POPC   NC357971  17.810  39.059   5.414
 4571POPC   PO457972  17.531  39.702   5.434
 4571POPC   GL157973  17.604  39.435   5.801
 4571POPC   GL257974  17.508  39.052   5.837
 4571POPC   C1A57975  17.364  39.393   6.179
 4571POPC   D2A57976  17.318  39.114   6.518
 4571POPC   C3A57977  17.384  39.217   6.941
 4571POPC   C4A57978  17.661  39.351   7.254
 4571POPC   C1B57979  17.785  39.090   6.237
 4571POPC   C2B57980  17.861  39.055   6.710
 4571POPC   C3B57981  17.768  38.867   7.130
 4571POPC   C4B57982  17.419  38.901   7.420
 4572POPC   NC357983  27.452   3.803   5.388
 4572POPC   PO457984  28.030   3.389   5.516
 4572POPC   GL157985  27.677   3.522   5.789
 4572POPC   GL257986  27.708   3.848   5.898
 4572POPC   C1A57987  27.484   3.355   6.203
 4572POPC   D2A57988  27.324   3.419   6.654
 4572POPC   C3A57989  27.343   3.197   7.062
 4572POPC   C4A57990  27.534   3.061   7.450
 4572POPC   C1B57991  27.894   3.906   6.305
 4572POPC   C2B57992  28.155   4.057   6.644
 4572POPC   C3B57993  27.991   3.946   7.046
 4572POPC   C4B57994  27.574   3.693   7.018
 4573POPC   NC357995  13.191  37.076   5.458
 4573POPC   PO457996  12.775  36.491   5.477
 4573POPC   GL157997  12.834  36.857   5.771
 4573POPC   GL257998  12.565  37.071   5.905
 4573POPC   C1A57999  13.027  36.959   6.170
 4573POPC   D2A58000  13.090  36.756   6.562
 4573POPC   C3A58001  12.992  37.031   6.912
 4573POPC   C4A58002  13.153  37.100   7.341
 4573POPC   C1B58003  12.549  36.745   6.191
 4573POPC   C2B58004  12.371  36.704   6.570
 4573POPC   C3B58005  12.429  36.974   6.907
 4573POPC   C4B58006  12.640  36.933   7.276
 4574POPC   NC358007   3.991   6.342   5.655
 4574POPC   PO458008   4.437   6.603   5.247
 4574POPC   GL158009   4.316   6.838   5.615
 4574POPC   GL258010   3.951   6.872   5.748
 4574POPC   C1A58011   4.338   6.820   6.068
 4574POPC   D2A58012   4.478   6.743   6.492
 4574POPC   C3A58013   4.322   6.803   6.924
 4574POPC   C4A58014   4.363   6.862   7.379
 4574POPC   C1B58015   3.791   6.728   6.186
 4574POPC   C2B58016   3.825   6.433   6.554
 4574POPC   C3B58017   4.189   6.296   6.816
 4574POPC   C4B58018   4.192   6.382   7.227
 4575POPC   NC358019  38.342  44.270   5.146
 4575POPC   PO458020  38.123  44.748   5.504
 4575POPC   GL158021  38.356  44.799   5.868
 4575POPC   GL258022  38.386  44.431   5.837
 4575POPC   C1A58023  38.410  44.673   6.288
 4575POPC   D2A58024  38.269  44.309   6.522
 4575POPC   C3A58025  38.452  44.388   6.888
 4575POPC   C4A58026  38.456  44.706   7.188
 4575POPC   C1B58027  38.591  44.182   6.141
 4575POPC   C2B58028  38.737  44.036   6.536
 4575POPC   C3B58029  38.944  44.221   6.880
 4575POPC   C4B58030  38.831  44.352   7.241
 4576POPC   NC358031   5.305  43.542   5.403
 4576POPC   PO458032   4.804  44.058   5.436
 4576POPC   GL158033   4.956  43.935   5.826
 4576POPC   GL258034   5.322  43.822   5.865
 4576POPC   C1A58035   4.786  43.719   6.189
 4576POPC   D2A58036   5.012  43.628   6.558
 4576POPC   C3A58037   5.115  43.942   6.809
 4576POPC   C4A58038   5.262  43.840   7.204
 4576POPC   C1B58039   5.192  44.054   6.269
 4576POPC   C2B58040   4.876  44.303   6.506
 4576POPC   C3B58041   4.770  44.308   6.939
 4576POPC   C4B58042   5.152  44.326   7.156
 4577POPC   NC358043   1.446  39.905   5.434
 4577POPC   PO458044   0.791  40.132   5.414
 4577POPC   GL158045   0.997  39.911   5.751
 4577POPC   GL258046   1.331  40.010   5.920
 4577POPC   C1A58047   0.922  39.820   6.164
 4577POPC   D2A58048   1.091  40.038   6.499
 4577POPC   C3A58049   0.905  39.938   6.884
 4577POPC   C4A58050   0.833  40.033   7.281
 4577POPC   C1B58051   1.450  39.742   6.283
 4577POPC   C2B58052   1.305  39.638   6.721
 4577POPC   C3B58053   1.372  39.975   7.031
 4577POPC   C4B58054   1.386  40.000   7.454
 4578POPC   NC358055   0.961  13.585   5.598
 4578POPC   PO458056   1.010  13.882   4.951
 4578POPC   GL158057   1.269  13.931   5.425
 4578POPC   GL258058   1.082  14.087   5.743
 4578POPC   C1A58059   1.473  13.834   5.935
 4578POPC   D2A58060   1.460  14.062   6.407
 4578POPC   C3A58061   1.514  13.819   6.842
 4578POPC   C4A58062   1.292  13.667   7.256
 4578POPC   C1B58063   1.026  13.853   6.181
 4578POPC   C2B58064   1.037  13.897   6.635
 4578POPC   C3B58065   1.041  14.051   7.044
 4578POPC   C4B58066   0.805  13.859   7.412
 4579POPC   NC358067  11.973  44.215   5.043
 4579POPC   PO458068  11.845  44.764   5.520
 4579POPC   GL158069  12.156  44.662   5.819
 4579POPC   GL258070  11.872  44.565   6.003
 4579POPC   C1A58071  12.293  44.709   6.254
 4579POPC   D2A58072  12.139  44.567   6.656
 4579POPC   C3A58073  12.201  44.704   7.070
 4579POPC   C4A58074  12.030  44.639   7.462
 4579POPC   C1B58075  11.794  44.878   6.327
 4579POPC   C2B58076  11.860  44.991   6.761
 4579POPC   C3B58077  11.697  44.912   7.176
 4579POPC   C4B58078  11.522  44.676   7.539
 4580POPC   NC358079  21.335  20.528   5.280
 4580POPC   PO458080  21.334  20.916   5.729
 4580POPC   GL158081  21.495  20.528   5.849
 4580POPC   GL258082  21.235  20.308   5.742
 4580POPC   C1A58083  21.580  20.545   6.296
 4580POPC   D2A58084  21.284  20.790   6.549
 4580POPC   C3A58085  21.350  20.882   6.982
 4580POPC   C4A58086  21.234  21.257   7.157
 4580POPC   C1B58087  21.123  20.325   6.194
 4580POPC   C2B58088  21.195  20.302   6.663
 4580POPC   C3B58089  21.250  20.382   7.085
 4580POPC   C4B58090  21.612  20.174   7.138
 4581POPC   NC358091  19.859  42.709   5.115
 4581POPC   PO458092  19.977  42.062   5.483
 4581POPC   GL158093  19.865  42.290   5.824
 4581POPC   GL258094  19.520  42.186   5.833
 4581POPC   C1A58095  19.833  42.413   6.263
 4581POPC   D2A58096  19.716  42.162   6.627
 4581POPC   C3A58097  19.941  42.160   7.028
 4581POPC   C4A58098  20.055  42.549   7.227
 4581POPC   C1B58099  19.343  42.233   6.233
 4581POPC   C2B58100  19.208  42.217   6.657
 4581POPC   C3B58101  19.417  42.147   7.045
 4581POPC   C4B58102  19.549  42.408   7.355
 4582POPC   NC358103  20.868  35.684   5.565
 4582POPC   PO458104  20.416  35.372   5.232
 4582POPC   GL158105  20.367  35.464   5.688
 4582POPC   GL258106  20.350  35.143   5.811
 4582POPC   C1A58107  20.545  35.528   6.146
 4582POPC   D2A58108  20.583  35.750   6.578
 4582POPC   C3A58109  20.570  35.527   7.012
 4582POPC   C4A58110  20.668  35.641   7.472
 4582POPC   C1B58111  20.339  35.005   6.223
 4582POPC   C2B58112  20.446  34.823   6.597
 4582POPC   C3B58113  20.489  35.006   6.985
 4582POPC   C4B58114  20.500  35.134   7.393
 4583POPC   NC358115  44.939  18.928   5.316
 4583POPC   PO458116   0.569  18.948   5.371
 4583POPC   GL158117   0.291  18.909   5.765
 4583POPC   GL258118   0.016  18.690   5.791
 4583POPC   C1A58119   0.265  18.969   6.249
 4583POPC   D2A58120   0.309  19.019   6.726
 4583POPC   C3A58121   0.595  19.215   7.056
 4583POPC   C4A58122   0.697  19.505   7.425
 4583POPC   C1B58123  44.911  18.523   6.186
 4583POPC   C2B58124  44.848  18.715   6.579
 4583POPC   C3B58125   0.072  18.624   6.939
 4583POPC   C4B58126   0.366  18.807   7.220
 4584POPC   NC358127  33.060  32.163   5.543
 4584POPC   PO458128  32.507  32.526   5.371
 4584POPC   GL158129  32.720  32.464   5.750
 4584POPC   GL258130  32.651  32.098   5.854
 4584POPC   C1A58131  32.992  32.448   6.132
 4584POPC   D2A58132  32.828  32.464   6.535
 4584POPC   C3A58133  33.053  32.492   6.892
 4584POPC   C4A58134  33.173  32.387   7.302
 4584POPC   C1B58135  32.810  32.000   6.258
 4584POPC   C2B58136  32.967  31.995   6.675
 4584POPC   C3B58137  33.042  31.940   7.088
 4584POPC   C4B58138  33.195  31.902   7.492
 4585POPC   NC358139  10.723  31.699   5.440
 4585POPC   PO458140  10.108  31.232   5.387
 4585POPC   GL158141  10.406  31.306   5.762
 4585POPC   GL258142  10.418  31.676   5.846
 4585POPC   C1A58143  10.553  31.375   6.220
 4585POPC   D2A58144  10.581  31.580   6.609
 4585POPC   C3A58145  10.515  31.269   6.923
 4585POPC   C4A58146  10.309  31.228   7.282
 4585POPC   C1B58147  10.809  31.792   6.129
 4585POPC   C2B58148  11.023  31.856   6.549
 4585POPC   C3B58149  10.902  31.803   6.989
 4585POPC   C4B58150  10.590  31.655   7.294
 4586POPC   NC358151  25.969  14.656   5.498
 4586POPC   PO458152  26.332  15.267   5.344
 4586POPC   GL158153  26.289  15.427   5.771
 4586POPC   GL258154  25.976  15.254   5.835
 4586POPC   C1A58155  26.381  15.275   6.192
 4586POPC   D2A58156  26.250  15.067   6.599
 4586POPC   C3A58157  26.193  15.273   7.000
 4586POPC   C4A58158  26.339  15.588   7.319
 4586POPC   C1B58159  25.846  15.079   6.271
 4586POPC   C2B58160  25.833  14.776   6.650
 4586POPC   C3B58161  25.764  14.788   7.076
 4586POPC   C4B58162  25.755  15.168   7.241
 4587POPC   NC358163   0.112  28.589   5.635
 4587POPC   PO458164   0.592  28.047   5.485
 4587POPC   GL158165   0.566  28.283   5.876
 4587POPC   GL258166   0.240  28.168   5.930
 4587POPC   C1A58167   0.730  28.663   6.120
 4587POPC   D2A58168   0.803  28.796   6.555
 4587POPC   C3A58169   0.590  28.479   6.821
 4587POPC   C4A58170   0.510  28.147   7.147
 4587POPC   C1B58171   0.334  28.343   6.350
 4587POPC   C2B58172   0.093  28.480   6.723
 4587POPC   C3B58173   0.085  28.426   7.131
 4587POPC   C4B58174   0.027  28.408   7.560
 4588POPC   NC358175  26.975   4.385   5.072
 4588POPC   PO458176  26.848   4.238   5.711
 4588POPC   GL158177  26.904   4.129   6.108
 4588POPC   GL258178  26.677   4.390   6.204
 4588POPC   C1A58179  26.994   4.225   6.555
 4588POPC   D2A58180  26.754   4.603   6.690
 4588POPC   C3A58181  26.528   4.424   6.997
 4588POPC   C4A58182  26.700   4.382   7.378
 4588POPC   C1B58183  27.071   4.636   6.272
 4588POPC   C2B58184  27.323   4.597   6.676
 4588POPC   C3B58185  27.269   4.640   7.144
 4588POPC   C4B58186  27.074   4.684   7.591
 4589POPC   NC358187  14.259  29.699   5.458
 4589POPC   PO458188  14.316  30.356   5.684
 4589POPC   GL158189  14.365  29.982   5.883
 4589POPC   GL258190  14.019  29.919   5.839
 4589POPC   C1A58191  14.607  29.746   6.182
 4589POPC   D2A58192  14.686  29.563   6.572
 4589POPC   C3A58193  14.665  29.866   6.892
 4589POPC   C4A58194  14.545  29.749   7.305
 4589POPC   C1B58195  14.022  29.747   6.229
 4589POPC   C2B58196  14.222  29.768   6.603
 4589POPC   C3B58197  14.155  29.873   7.007
 4589POPC   C4B58198  14.074  29.799   7.447
 4590POPC   NC358199  32.334  36.458   4.995
 4590POPC   PO458200  32.261  36.837   5.482
 4590POPC   GL158201  32.079  36.726   5.853
 4590POPC   GL258202  32.241  36.981   5.990
 4590POPC   C1A58203  32.160  36.563   6.261
 4590POPC   D2A58204  32.121  36.832   6.573
 4590POPC   C3A58205  32.287  36.744   6.948
 4590POPC   C4A58206  32.159  36.928   7.285
 4590POPC   C1B58207  32.559  37.215   6.221
 4590POPC   C2B58208  32.602  37.369   6.638
 4590POPC   C3B58209  32.418  37.329   7.051
 4590POPC   C4B58210  32.555  37.160   7.472
 4591POPC   NC358211  12.005   5.764   5.443
 4591POPC   PO458212  12.026   6.366   5.321
 4591POPC   GL158213  12.097   6.122   5.779
 4591POPC   GL258214  11.782   5.999   5.942
 4591POPC   C1A58215  12.246   5.868   6.172
 4591POPC   D2A58216  12.308   5.623   6.582
 4591POPC   C3A58217  12.241   5.799   7.054
 4591POPC   C4A58218  12.264   5.804   7.562
 4591POPC   C1B58219  11.802   5.667   6.272
 4591POPC   C2B58220  11.832   5.756   6.701
 4591POPC   C3B58221  11.761   6.063   7.003
 4591POPC   C4B58222  11.810   5.889   7.387
 4592POPC   NC358223  34.374   0.161   5.542
 4592POPC   PO458224  34.813   0.637   5.475
 4592POPC   GL158225  34.632   0.482   5.837
 4592POPC   GL258226  34.804   0.175   5.834
 4592POPC   C1A58227  34.383   0.317   6.206
 4592POPC   D2A58228  34.158   0.537   6.538
 4592POPC   C3A58229  34.339   0.559   6.949
 4592POPC   C4A58230  34.412   0.174   7.193
 4592POPC   C1B58231  34.901   0.379   6.238
 4592POPC   C2B58232  34.705   0.511   6.580
 4592POPC   C3B58233  34.799   0.281   6.893
 4592POPC   C4B58234  34.972   0.281   7.280
 4593POPC   NC358235  24.470  36.177   4.960
 4593POPC   PO458236  24.527  35.826   5.541
 4593POPC   GL158237  24.597  35.977   5.923
 4593POPC   GL258238  24.567  36.358   5.969
 4593POPC   C1A58239  24.785  36.025   6.318
 4593POPC   D2A58240  24.572  36.265   6.634
 4593POPC   C3A58241  24.343  35.961   6.874
 4593POPC   C4A58242  24.527  36.088   7.237
 4593POPC   C1B58243  24.256  36.170   6.253
 4593POPC   C2B58244  24.034  36.301   6.639
 4593POPC   C3B58245  24.186  36.428   7.036
 4593POPC   C4B58246  24.137  36.468   7.479
 4594POPC   NC358247   3.113   4.426   5.537
 4594POPC   PO458248   2.431   4.446   5.423
 4594POPC   GL158249   2.680   4.271   5.758
 4594POPC   GL258250   2.744   4.590   5.842
 4594POPC   C1A58251   2.986   4.313   6.178
 4594POPC   D2A58252   2.824   4.393   6.595
 4594POPC   C3A58253   2.984   4.377   7.007
 4594POPC   C4A58254   3.094   4.068   7.311
 4594POPC   C1B58255   2.480   4.451   6.192
 4594POPC   C2B58256   2.412   4.682   6.547
 4594POPC   C3B58257   2.615   4.805   6.894
 4594POPC   C4B58258   2.540   4.685   7.291
 4595POPC   NC358259   2.365  17.563   5.470
 4595POPC   PO458260   1.708  17.587   5.647
 4595POPC   GL158261   1.895  17.541   5.984
 4595POPC   GL258262   2.238  17.468   5.950
 4595POPC   C1A58263   1.890  17.717   6.342
 4595POPC   D2A58264   2.165  17.522   6.602
 4595POPC   C3A58265   1.841  17.371   6.841
 4595POPC   C4A58266   1.865  17.484   7.258
 4595POPC   C1B58267   2.314  17.152   6.223
 4595POPC   C2B58268   2.484  17.103   6.629
 4595POPC   C3B58269   2.257  17.136   6.995
 4595POPC   C4B58270   2.406  17.161   7.374
 4596POPC   NC358271  18.767  26.667   5.451
 4596POPC   PO458272  19.254  27.138   5.409
 4596POPC   GL158273  19.149  27.076   5.829
 4596POPC   GL258274  18.822  27.056   5.781
 4596POPC   C1A58275  19.213  27.021   6.284
 4596POPC   D2A58276  19.056  26.742   6.601
 4596POPC   C3A58277  19.163  26.778   7.043
 4596POPC   C4A58278  19.536  26.879   7.290
 4596POPC   C1B58279  18.763  26.799   6.151
 4596POPC   C2B58280  18.544  26.783   6.534
 4596POPC   C3B58281  18.670  26.605   6.897
 4596POPC   C4B58282  18.695  26.794   7.272
 4597POPC   NC358283  38.339   8.527   5.492
 4597POPC   PO458284  38.608   7.954   5.327
 4597POPC   GL158285  38.767   7.982   5.763
 4597POPC   GL258286  38.837   8.362   5.819
 4597POPC   C1A58287  38.598   7.970   6.194
 4597POPC   D2A58288  38.675   8.155   6.606
 4597POPC   C3A58289  38.341   8.109   6.898
 4597POPC   C4A58290  38.288   7.989   7.320
 4597POPC   C1B58291  38.627   8.493   6.177
 4597POPC   C2B58292  38.589   8.704   6.562
 4597POPC   C3B58293  38.625   8.539   6.978
 4597POPC   C4B58294  38.763   8.179   7.194
 4598POPC   NC358295  29.478  34.221   5.645
 4598POPC   PO458296  29.214  34.729   5.278
 4598POPC   GL158297  29.128  34.674   5.759
 4598POPC   GL258298  29.434  34.648   5.955
 4598POPC   C1A58299  29.032  34.839   6.211
 4598POPC   D2A58300  29.173  34.713   6.639
 4598POPC   C3A58301  29.105  34.914   7.022
 4598POPC   C4A58302  28.923  34.763   7.398
 4598POPC   C1B58303  29.251  34.344   6.274
 4598POPC   C2B58304  29.121  34.211   6.700
 4598POPC   C3B58305  29.087  34.382   7.116
 4598POPC   C4B58306  29.169  34.273   7.582
 4599POPC   NC358307  10.818  27.677   5.282
 4599POPC   PO458308  11.339  27.309   5.498
 4599POPC   GL158309  11.256  27.623   5.804
 4599POPC   GL258310  10.928  27.787   5.770
 4599POPC   C1A58311  11.389  27.573   6.236
 4599POPC   D2A58312  11.304  27.299   6.626
 4599POPC   C3A58313  11.380  27.551   7.018
 4599POPC   C4A58314  11.587  27.972   7.085
 4599POPC   C1B58315  10.889  27.632   6.188
 4599POPC   C2B58316  11.058  27.754   6.592
 4599POPC   C3B58317  10.960  27.907   6.984
 4599POPC   C4B58318  11.039  27.758   7.355
 4600POPC   NC358319  34.285  19.946   5.182
 4600POPC   PO458320  34.938  19.707   5.368
 4600POPC   GL158321  34.816  19.836   5.787
 4600POPC   GL258322  34.479  19.736   5.903
 4600POPC   C1A58323  34.822  19.808   6.245
 4600POPC   D2A58324  34.793  20.068   6.605
 4600POPC   C3A58325  34.797  19.871   7.002
 4600POPC   C4A58326  34.739  19.911   7.447
 4600POPC   C1B58327  34.383  20.071   6.236
 4600POPC   C2B58328  34.253  19.938   6.627
 4600POPC   C3B58329  34.311  19.954   7.038
 4600POPC   C4B58330  34.081  20.118   7.350
 4601POPC   NC358331   6.693  39.572   5.510
 4601POPC   PO458332   6.482  38.963   5.317
 4601POPC   GL158333   6.591  39.101   5.735
 4601POPC   GL258334   6.261  39.109   5.844
 4601POPC   C1A58335   6.831  39.040   6.134
 4601POPC   D2A58336   6.792  38.878   6.577
 4601POPC   C3A58337   6.844  39.211   6.873
 4601POPC   C4A58338   6.839  39.262   7.322
 4601POPC   C1B58339   6.422  39.438   6.154
 4601POPC   C2B58340   6.420  39.621   6.601
 4601POPC   C3B58341   6.454  39.494   7.043
 4601POPC   C4B58342   6.390  39.048   7.123
 4602POPC   NC358343  26.598  37.538   5.420
 4602POPC   PO458344  26.933  38.091   5.617
 4602POPC   GL158345  26.915  37.706   5.812
 4602POPC   GL258346  26.556  37.806   5.835
 4602POPC   C1A58347  26.985  37.478   6.220
 4602POPC   D2A58348  26.850  37.546   6.656
 4602POPC   C3A58349  27.099  37.718   6.980
 4602POPC   C4A58350  26.888  37.609   7.350
 4602POPC   C1B58351  26.523  37.702   6.254
 4602POPC   C2B58352  26.378  37.779   6.653
 4602POPC   C3B58353  26.469  37.742   7.083
 4602POPC   C4B58354  26.484  37.866   7.540
 4603POPC   NC358355   7.781  19.515   5.436
 4603POPC   PO458356   8.510  19.774   5.446
 4603POPC   GL158357   8.188  19.904   5.757
 4603POPC   GL258358   7.951  20.225   5.675
 4603POPC   C1A58359   8.254  19.717   6.165
 4603POPC   D2A58360   8.602  19.619   6.449
 4603POPC   C3A58361   8.500  19.835   6.824
 4603POPC   C4A58362   8.232  19.693   7.194
 4603POPC   C1B58363   7.908  20.139   6.125
 4603POPC   C2B58364   8.100  20.047   6.531
 4603POPC   C3B58365   8.117  20.154   6.963
 4603POPC   C4B58366   8.109  20.196   7.411
 4604POPC   NC358367   3.341  32.353   5.397
 4604POPC   PO458368   3.915  32.040   5.170
 4604POPC   GL158369   3.775  32.293   5.632
 4604POPC   GL258370   3.519  32.102   5.840
 4604POPC   C1A58371   3.868  32.374   6.108
 4604POPC   D2A58372   4.006  32.269   6.565
 4604POPC   C3A58373   3.777  32.160   6.968
 4604POPC   C4A58374   3.667  32.346   7.393
 4604POPC   C1B58375   3.610  31.949   6.285
 4604POPC   C2B58376   3.887  31.710   6.570
 4604POPC   C3B58377   4.009  31.685   7.005
 4604POPC   C4B58378   3.740  31.767   7.372
 4605POPC   NC358379   1.847  13.274   5.466
 4605POPC   PO458380   1.972  12.643   5.406
 4605POPC   GL158381   2.190  12.760   5.746
 4605POPC   GL258382   2.288  13.100   5.657
 4605POPC   C1A58383   2.088  12.630   6.161
 4605POPC   D2A58384   2.316  12.586   6.526
 4605POPC   C3A58385   2.122  12.763   6.888
 4605POPC   C4A58386   1.701  12.734   7.047
 4605POPC   C1B58387   2.106  13.127   6.063
 4605POPC   C2B58388   2.030  13.068   6.479
 4605POPC   C3B58389   1.844  13.185   6.861
 4605POPC   C4B58390   2.029  13.153   7.237
 4606POPC   NC358391  40.121  42.072   5.461
 4606POPC   PO458392  39.785  42.633   5.400
 4606POPC   GL158393  40.012  42.466   5.774
 4606POPC   GL258394  39.882  42.105   5.903
 4606POPC   C1A58395  40.172  42.389   6.198
 4606POPC   D2A58396  39.995  42.253   6.556
 4606POPC   C3A58397  40.205  42.278   6.904
 4606POPC   C4A58398  40.038  42.410   7.253
 4606POPC   C1B58399  39.652  41.990   6.297
 4606POPC   C2B58400  39.608  42.010   6.772
 4606POPC   C3B58401  39.908  41.928   7.084
 4606POPC   C4B58402  40.352  41.798   7.095
 4607POPC   NC358403  13.500  16.166   5.142
 4607POPC   PO458404  12.801  16.031   5.339
 4607POPC   GL158405  12.872  15.949   5.752
 4607POPC   GL258406  12.870  16.270   5.844
 4607POPC   C1A58407  12.692  15.924   6.167
 4607POPC   D2A58408  12.514  16.005   6.534
 4607POPC   C3A58409  12.719  15.897   6.885
 4607POPC   C4A58410  12.768  16.070   7.257
 4607POPC   C1B58411  13.001  16.403   6.241
 4607POPC   C2B58412  13.079  16.173   6.610
 4607POPC   C3B58413  13.205  16.035   7.011
 4607POPC   C4B58414  13.178  15.751   7.379
 4608POPC   NC358415   7.766  34.791   5.138
 4608POPC   PO458416   8.215  34.506   5.432
 4608POPC   GL158417   8.034  34.611   5.798
 4608POPC   GL258418   7.882  34.926   5.759
 4608POPC   C1A58419   8.286  34.672   6.163
 4608POPC   D2A58420   8.426  34.785   6.562
 4608POPC   C3A58421   8.338  34.454   6.791
 4608POPC   C4A58422   8.356  34.462   7.174
 4608POPC   C1B58423   7.815  34.868   6.208
 4608POPC   C2B58424   7.912  34.578   6.548
 4608POPC   C3B58425   7.998  34.813   6.966
 4608POPC   C4B58426   7.729  35.004   7.300
 4609POPC   NC358427  39.528  16.120   5.514
 4609POPC   PO458428  39.006  15.633   5.446
 4609POPC   GL158429  39.144  15.896   5.782
 4609POPC   GL258430  39.432  15.710   5.840
 4609POPC   C1A58431  39.090  16.068   6.221
 4609POPC   D2A58432  39.028  15.845   6.616
 4609POPC   C3A58433  39.064  16.094   6.973
 4609POPC   C4A58434  38.907  16.023   7.370
 4609POPC   C1B58435  39.571  15.922   6.208
 4609POPC   C2B58436  39.500  16.089   6.632
 4609POPC   C3B58437  39.545  15.921   7.051
 4609POPC   C4B58438  39.454  15.937   7.488
 4610POPC   NC358439  31.254  13.162   5.342
 4610POPC   PO458440  31.596  13.754   5.430
 4610POPC   GL158441  31.427  13.536   5.781
 4610POPC   GL258442  31.076  13.444   5.753
 4610POPC   C1A58443  31.325  13.550   6.230
 4610POPC   D2A58444  31.334  13.806   6.627
 4610POPC   C3A58445  31.644  13.722   6.966
 4610POPC   C4A58446  31.828  13.323   7.145
 4610POPC   C1B58447  30.912  13.237   6.150
 4610POPC   C2B58448  31.073  13.201   6.619
 4610POPC   C3B58449  31.206  13.432   7.008
 4610POPC   C4B58450  31.097  13.409   7.473
 4611POPC   NC358451  30.071  40.822   5.375
 4611POPC   PO458452  29.554  40.341   5.441
 4611POPC   GL158453  29.716  40.660   5.744
 4611POPC   GL258454  30.070  40.543   5.808
 4611POPC   C1A58455  29.827  40.905   6.132
 4611POPC   D2A58456  30.189  40.915   6.433
 4611POPC   C3A58457  30.168  40.904   6.901
 4611POPC   C4A58458  30.141  40.516   7.147
 4611POPC   C1B58459  29.921  40.425   6.227
 4611POPC   C2B58460  29.676  40.591   6.540
 4611POPC   C3B58461  29.688  40.685   6.956
 4611POPC   C4B58462  29.698  41.041   7.199
 4612POPC   NC358463  38.246   6.753   5.497
 4612POPC   PO458464  38.924   7.013   5.452
 4612POPC   GL158465  38.711   6.754   5.784
 4612POPC   GL258466  38.862   6.435   5.896
 4612POPC   C1A58467  38.435   6.761   6.158
 4612POPC   D2A58468  38.210   6.529   6.480
 4612POPC   C3A58469  38.277   6.616   6.919
 4612POPC   C4A58470  38.189   6.350   7.284
 4612POPC   C1B58471  38.786   6.423   6.347
 4612POPC   C2B58472  38.858   6.359   6.799
 4612POPC   C3B58473  38.695   6.486   7.213
 4612POPC   C4B58474  38.430   6.812   7.393
 4613POPC   NC358475  28.278   5.312   5.400
 4613POPC   PO458476  28.412   4.644   5.224
 4613POPC   GL158477  28.465   4.864   5.676
 4613POPC   GL258478  28.499   5.228   5.838
 4613POPC   C1A58479  28.414   4.858   6.175
 4613POPC   D2A58480  28.094   4.993   6.530
 4613POPC   C3A58481  28.204   4.971   7.001
 4613POPC   C4A58482  28.328   5.066   7.466
 4613POPC   C1B58483  28.343   5.364   6.266
 4613POPC   C2B58484  28.372   5.385   6.745
 4613POPC   C3B58485  28.260   5.498   7.194
 4613POPC   C4B58486  27.940   5.670   7.516
 4614POPC   NC358487  11.033  41.294   5.680
 4614POPC   PO458488  11.534  40.903   5.314
 4614POPC   GL158489  11.390  40.887   5.808
 4614POPC   GL258490  11.115  40.640   5.904
 4614POPC   C1A58491  11.408  40.733   6.289
 4614POPC   D2A58492  11.468  40.948   6.662
 4614POPC   C3A58493  11.485  40.807   7.057
 4614POPC   C4A58494  11.589  41.053   7.431
 4614POPC   C1B58495  10.896  40.869   6.265
 4614POPC   C2B58496  10.975  40.719   6.700
 4614POPC   C3B58497  11.041  40.578   7.153
 4614POPC   C4B58498  11.340  40.617   7.516
 4615POPC   NC358499  27.047  13.991   5.429
 4615POPC   PO458500  26.734  13.514   5.461
 4615POPC   GL158501  26.790  13.732   5.831
 4615POPC   GL258502  27.145  13.693   5.815
 4615POPC   C1A58503  26.661  13.642   6.271
 4615POPC   D2A58504  26.377  13.502   6.582
 4615POPC   C3A58505  26.558  13.492   6.986
 4615POPC   C4A58506  26.574  13.563   7.431
 4615POPC   C1B58507  27.127  13.802   6.241
 4615POPC   C2B58508  26.988  13.723   6.664
 4615POPC   C3B58509  27.162  13.733   7.054
 4615POPC   C4B58510  27.059  13.478   7.389
 4616POPC   NC358511   7.715   3.406   5.140
 4616POPC   PO458512   8.358   3.319   5.125
 4616POPC   GL158513   8.134   3.462   5.550
 4616POPC   GL258514   7.788   3.627   5.596
 4616POPC   C1A58515   8.121   3.344   6.028
 4616POPC   D2A58516   8.407   3.252   6.429
 4616POPC   C3A58517   8.394   3.441   6.866
 4616POPC   C4A58518   8.331   3.778   7.181
 4616POPC   C1B58519   7.816   3.770   6.010
 4616POPC   C2B58520   7.835   3.583   6.423
 4616POPC   C3B58521   7.934   3.660   6.830
 4616POPC   C4B58522   7.848   3.595   7.225
 4617POPC   NC358523  39.738  12.223   5.133
 4617POPC   PO458524  40.172  12.082   5.597
 4617POPC   GL158525  39.927  12.032   5.880
 4617POPC   GL258526  39.924  11.666   5.867
 4617POPC   C1A58527  39.888  12.247   6.263
 4617POPC   D2A58528  39.650  12.186   6.636
 4617POPC   C3A58529  39.816  12.340   7.043
 4617POPC   C4A58530  39.856  12.508   7.483
 4617POPC   C1B58531  40.210  11.831   6.233
 4617POPC   C2B58532  40.225  12.090   6.614
 4617POPC   C3B58533  40.185  11.964   7.024
 4617POPC   C4B58534  40.298  11.742   7.380
 4618POPC   NC358535  10.405  43.718   5.442
 4618POPC   PO458536  10.093  44.085   5.862
 4618POPC   GL158537  10.455  43.853   5.937
 4618POPC   GL258538  10.788  43.979   5.829
 4618POPC   C1A58539  10.449  43.668   6.336
 4618POPC   D2A58540  10.383  43.954   6.696
 4618POPC   C3A58541  10.082  43.889   7.038
 4618POPC   C4A58542  10.140  43.969   7.500
 4618POPC   C1B58543  10.735  44.106   6.296
 4618POPC   C2B58544  10.872  43.766   6.617
 4618POPC   C3B58545  10.652  43.616   6.977
 4618POPC   C4B58546  10.542  44.004   7.199
 4619POPC   NC358547  23.920  16.763   5.304
 4619POPC   PO458548  23.602  16.220   5.073
 4619POPC   GL158549  23.643  16.464   5.574
 4619POPC   GL258550  23.413  16.759   5.749
 4619POPC   C1A58551  23.728  16.534   6.065
 4619POPC   D2A58552  23.485  16.353   6.441
 4619POPC   C3A58553  23.436  16.570   6.842
 4619POPC   C4A58554  23.701  16.595   7.200
 4619POPC   C1B58555  23.250  16.756   6.238
 4619POPC   C2B58556  23.050  16.913   6.653
 4619POPC   C3B58557  23.301  17.056   7.022
 4619POPC   C4B58558  23.599  17.050   7.359
 4620POPC   NC358559   8.631  25.351   5.454
 4620POPC   PO458560   8.069  25.584   5.381
 4620POPC   GL158561   7.976  25.240   5.649
 4620POPC   GL258562   8.275  25.081   5.746
 4620POPC   C1A58563   7.945  25.150   6.110
 4620POPC   D2A58564   8.139  25.253   6.501
 4620POPC   C3A58565   7.941  25.268   6.925
 4620POPC   C4A58566   8.141  25.207   7.338
 4620POPC   C1B58567   8.502  25.240   6.118
 4620POPC   C2B58568   8.644  25.332   6.557
 4620POPC   C3B58569   8.455  25.148   6.931
 4620POPC   C4B58570   8.537  24.894   7.300
 4621POPC   NC358571  16.555  11.380   5.240
 4621POPC   PO458572  17.032  10.964   5.377
 4621POPC   GL158573  16.710  11.093   5.642
 4621POPC   GL258574  16.821  11.407   5.709
 4621POPC   C1A58575  16.474  11.151   6.027
 4621POPC   D2A58576  16.592  11.163   6.464
 4621POPC   C3A58577  16.409  11.276   6.841
 4621POPC   C4A58578  16.467  11.149   7.245
 4621POPC   C1B58579  16.989  11.237   6.115
 4621POPC   C2B58580  16.998  11.462   6.531
 4621POPC   C3B58581  16.922  11.269   6.915
 4621POPC   C4B58582  16.969  11.241   7.334
 4622POPC   NC358583  11.372  36.022   5.444
 4622POPC   PO458584  11.178  36.617   5.167
 4622POPC   GL158585  11.292  36.488   5.669
 4622POPC   GL258586  11.592  36.328   5.881
 4622POPC   C1A58587  11.145  36.305   6.116
 4622POPC   D2A58588  11.132  36.420   6.573
 4622POPC   C3A58589  11.144  36.156   6.962
 4622POPC   C4A58590  11.290  36.212   7.393
 4622POPC   C1B58591  11.606  35.989   6.240
 4622POPC   C2B58592  11.488  35.866   6.690
 4622POPC   C3B58593  11.570  35.853   7.166
 4622POPC   C4B58594  11.727  35.750   7.600
 4623POPC   NC358595  25.121  10.808   5.187
 4623POPC   PO458596  25.173  11.429   5.394
 4623POPC   GL158597  25.296  11.079   5.682
 4623POPC   GL258598  24.960  10.912   5.720
 4623POPC   C1A58599  25.404  11.079   6.151
 4623POPC   D2A58600  25.565  11.229   6.552
 4623POPC   C3A58601  25.425  11.381   6.944
 4623POPC   C4A58602  25.467  11.160   7.316
 4623POPC   C1B58603  24.965  11.303   6.021
 4623POPC   C2B58604  25.030  11.282   6.479
 4623POPC   C3B58605  24.997  11.103   6.902
 4623POPC   C4B58606  24.944  11.363   7.242
 4624POPC   NC358607  13.572  41.922   5.173
 4624POPC   PO458608  13.937  41.265   5.302
 4624POPC   GL158609  13.561  41.327   5.679
 4624POPC   GL258610  13.547  41.731   5.864
 4624POPC   C1A58611  13.435  41.350   6.153
 4624POPC   D2A58612  13.590  41.676   6.474
 4624POPC   C3A58613  13.484  41.640   6.913
 4624POPC   C4A58614  13.552  41.362   7.271
 4624POPC   C1B58615  13.939  41.860   6.163
 4624POPC   C2B58616  14.158  41.737   6.533
 4624POPC   C3B58617  13.976  41.515   6.862
 4624POPC   C4B58618  13.900  41.728   7.225
 4625POPC   NC358619  43.417  42.568   5.612
 4625POPC   PO458620  42.858  42.378   5.342
 4625POPC   GL158621  42.963  42.452   5.789
 4625POPC   GL258622  43.196  42.239   5.946
 4625POPC   C1A58623  43.136  42.751   6.134
 4625POPC   D2A58624  43.447  42.660   6.449
 4625POPC   C3A58625  43.202  42.701   6.819
 4625POPC   C4A58626  43.221  42.462   7.214
 4625POPC   C1B58627  43.003  42.316   6.357
 4625POPC   C2B58628  42.966  42.232   6.800
 4625POPC   C3B58629  43.024  41.985   7.181
 4625POPC   C4B58630  43.058  41.709   7.530
 4626POPC   NC358631   4.607   1.473   5.505
 4626POPC   PO458632   4.268   0.960   5.278
 4626POPC   GL158633   4.283   1.123   5.737
 4626POPC   GL258634   3.972   1.269   5.850
 4626POPC   C1A58635   4.280   1.160   6.239
 4626POPC   D2A58636   4.009   1.366   6.527
 4626POPC   C3A58637   4.204   1.464   6.927
 4626POPC   C4A58638   4.535   1.350   7.209
 4626POPC   C1B58639   3.981   0.823   6.033
 4626POPC   C2B58640   3.994   0.758   6.489
 4626POPC   C3B58641   3.896   0.978   6.871
 4626POPC   C4B58642   4.113   1.063   7.257
 4627POPC   NC358643  11.419   0.662   5.176
 4627POPC   PO458644  11.053   0.150   5.048
 4627POPC   GL158645  11.232   0.437   5.568
 4627POPC   GL258646  11.155   0.782   5.714
 4627POPC   C1A58647  11.430   0.296   6.066
 4627POPC   D2A58648  11.495   0.306   6.564
 4627POPC   C3A58649  11.295   0.254   7.014
 4627POPC   C4A58650  11.367   0.162   7.483
 4627POPC   C1B58651  11.411   0.792   6.125
 4627POPC   C2B58652  11.459   0.841   6.603
 4627POPC   C3B58653  11.530   0.709   7.034
 4627POPC   C4B58654  11.232   0.640   7.372
 4628POPC   NC358655  40.187  21.544   5.481
 4628POPC   PO458656  39.799  21.021   5.421
 4628POPC   GL158657  39.986  21.187   5.801
 4628POPC   GL258658  39.875  21.538   5.892
 4628POPC   C1A58659  40.053  21.192   6.245
 4628POPC   D2A58660  39.884  21.382   6.615
 4628POPC   C3A58661  40.126  21.467   6.992
 4628POPC   C4A58662  40.024  21.091   7.186
 4628POPC   C1B58663  40.162  21.680   6.194
 4628POPC   C2B58664  40.105  21.846   6.602
 4628POPC   C3B58665  39.722  21.825   6.817
 4628POPC   C4B58666  39.627  21.505   7.103
 4629POPC   NC358667  15.382  19.995   5.565
 4629POPC   PO458668  14.868  19.634   5.418
 4629POPC   GL158669  15.083  19.617   5.781
 4629POPC   GL258670  14.974  19.936   5.837
 4629POPC   C1A58671  15.087  19.636   6.249
 4629POPC   D2A58672  14.993  19.408   6.635
 4629POPC   C3A58673  15.098  19.620   7.030
 4629POPC   C4A58674  15.187  19.658   7.475
 4629POPC   C1B58675  15.121  20.149   6.150
 4629POPC   C2B58676  15.144  20.236   6.539
 4629POPC   C3B58677  14.963  20.106   6.900
 4629POPC   C4B58678  15.192  20.130   7.278
 4630POPC   NC358679  38.183  20.003   5.531
 4630POPC   PO458680  38.692  19.726   5.208
 4630POPC   GL158681  38.510  19.685   5.758
 4630POPC   GL258682  38.160  19.584   5.860
 4630POPC   C1A58683  38.427  19.802   6.231
 4630POPC   D2A58684  38.370  20.182   6.489
 4630POPC   C3A58685  38.354  20.227   6.969
 4630POPC   C4A58686  38.552  20.056   7.375
 4630POPC   C1B58687  38.066  19.453   6.316
 4630POPC   C2B58688  38.122  19.732   6.689
 4630POPC   C3B58689  38.353  19.714   7.064
 4630POPC   C4B58690  38.331  19.512   7.483
 4631POPC   NC358691   6.933  42.760   5.368
 4631POPC   PO458692   6.847  42.119   5.609
 4631POPC   GL158693   6.545  42.349   5.842
 4631POPC   GL258694   6.414  42.697   5.759
 4631POPC   C1A58695   6.698  42.290   6.247
 4631POPC   D2A58696   6.937  42.397   6.564
 4631POPC   C3A58697   6.818  42.204   6.928
 4631POPC   C4A58698   6.761  42.035   7.327
 4631POPC   C1B58699   6.379  42.668   6.248
 4631POPC   C2B58700   6.430  42.497   6.706
 4631POPC   C3B58701   6.470  42.466   7.211
 4631POPC   C4B58702   6.334  42.560   7.669
 4632POPC   NC358703  37.302  14.744   5.217
 4632POPC   PO458704  37.649  14.197   5.432
 4632POPC   GL158705  37.612  14.417   5.766
 4632POPC   GL258706  37.542  14.711   5.654
 4632POPC   C1A58707  37.832  14.512   6.131
 4632POPC   D2A58708  37.793  14.316   6.521
 4632POPC   C3A58709  37.804  14.566   6.891
 4632POPC   C4A58710  37.830  14.421   7.294
 4632POPC   C1B58711  37.410  14.795   6.052
 4632POPC   C2B58712  37.489  14.755   6.474
 4632POPC   C3B58713  37.412  14.892   6.890
 4632POPC   C4B58714  37.565  14.858   7.318
 4633POPC   NC358715   9.247  35.259   5.488
 4633POPC   PO458716   8.589  35.415   5.505
 4633POPC   GL158717   8.923  35.540   5.794
 4633POPC   GL258718   8.752  35.757   5.999
 4633POPC   C1A58719   9.198  35.551   6.184
 4633POPC   D2A58720   9.137  35.377   6.625
 4633POPC   C3A58721   9.124  35.354   7.073
 4633POPC   C4A58722   9.141  34.913   7.122
 4633POPC   C1B58723   8.721  35.629   6.422
 4633POPC   C2B58724   8.577  35.285   6.699
 4633POPC   C3B58725   8.667  35.052   7.090
 4633POPC   C4B58726   8.805  35.152   7.544
 4634POPC   NC358727  32.086  10.380   5.373
 4634POPC   PO458728  32.097  10.971   5.416
 4634POPC   GL158729  32.002  10.678   5.786
 4634POPC   GL258730  32.245  10.386   5.856
 4634POPC   C1A58731  31.998  10.630   6.243
 4634POPC   D2A58732  32.332  10.821   6.485
 4634POPC   C3A58733  32.305  10.874   6.923
 4634POPC   C4A58734  32.063  10.580   7.196
 4634POPC   C1B58735  32.513  10.392   6.229
 4634POPC   C2B58736  32.550  10.106   6.578
 4634POPC   C3B58737  32.421  10.186   6.999
 4634POPC   C4B58738  32.571  10.537   7.200
 4635POPC   NC358739  31.078  12.674   5.307
 4635POPC   PO458740  31.653  13.099   5.096
 4635POPC   GL158741  31.681  13.100   5.637
 4635POPC   GL258742  31.366  13.002   5.809
 4635POPC   C1A58743  31.778  12.853   6.061
 4635POPC   D2A58744  31.738  12.967   6.538
 4635POPC   C3A58745  31.788  12.734   6.953
 4635POPC   C4A58746  31.907  12.855   7.386
 4635POPC   C1B58747  31.309  12.919   6.243
 4635POPC   C2B58748  31.305  12.631   6.592
 4635POPC   C3B58749  31.291  12.723   6.981
 4635POPC   C4B58750  31.436  13.032   7.233
 4636POPC   NC358751  33.632  15.029   5.186
 4636POPC   PO458752  34.083  15.398   5.630
 4636POPC   GL158753  33.867  15.214   5.889
 4636POPC   GL258754  33.596  15.106   5.701
 4636POPC   C1A58755  33.911  15.291   6.309
 4636POPC   D2A58756  34.168  15.103   6.593
 4636POPC   C3A58757  33.883  15.167   6.923
 4636POPC   C4A58758  33.834  15.518   7.202
 4636POPC   C1B58759  33.439  15.108   6.128
 4636POPC   C2B58760  33.486  14.871   6.527
 4636POPC   C3B58761  33.289  14.805   6.917
 4636POPC   C4B58762  33.460  15.054   7.203
 4637POPC   NC358763  37.114   7.019   5.512
 4637POPC   PO458764  37.548   6.499   5.276
 4637POPC   GL158765  37.463   6.563   5.686
 4637POPC   GL258766  37.158   6.408   5.665
 4637POPC   C1A58767  37.730   6.563   6.074
 4637POPC   D2A58768  37.686   6.473   6.521
 4637POPC   C3A58769  37.749   6.819   6.814
 4637POPC   C4A58770  37.854   6.734   7.251
 4637POPC   C1B58771  37.294   6.290   6.110
 4637POPC   C2B58772  37.168   6.436   6.523
 4637POPC   C3B58773  37.339   6.549   6.929
 4637POPC   C4B58774  37.339   6.661   7.364
 4638POPC   NC358775  39.500   3.211   5.325
 4638POPC   PO458776  39.037   3.725   5.240
 4638POPC   GL158777  39.184   3.782   5.665
 4638POPC   GL258778  39.437   3.525   5.748
 4638POPC   C1A58779  39.093   3.699   6.116
 4638POPC   D2A58780  39.325   3.562   6.486
 4638POPC   C3A58781  39.147   3.520   6.905
 4638POPC   C4A58782  39.107   3.729   7.281
 4638POPC   C1B58783  39.372   3.179   6.036
 4638POPC   C2B58784  39.521   3.095   6.476
 4638POPC   C3B58785  39.627   3.287   6.854
 4638POPC   C4B58786  39.510   3.374   7.272
 4639POPC   NC358787   7.243  26.272   5.380
 4639POPC   PO458788   7.330  26.950   5.297
 4639POPC   GL158789   7.380  27.006   5.741
 4639POPC   GL258790   7.770  27.048   5.716
 4639POPC   C1A58791   7.190  26.812   6.140
 4639POPC   D2A58792   7.325  26.489   6.469
 4639POPC   C3A58793   7.358  26.670   6.876
 4639POPC   C4A58794   7.172  26.974   7.152
 4639POPC   C1B58795   7.799  27.174   6.126
 4639POPC   C2B58796   7.640  26.945   6.475
 4639POPC   C3B58797   7.733  27.018   6.890
 4639POPC   C4B58798   7.666  26.850   7.291
 4640POPC   NC358799  17.839  40.025   5.572
 4640POPC   PO458800  18.455  39.981   5.435
 4640POPC   GL158801  18.450  40.100   5.841
 4640POPC   GL258802  18.209  40.391   5.815
 4640POPC   C1A58803  18.467  39.842   6.204
 4640POPC   D2A58804  18.204  39.835   6.544
 4640POPC   C3A58805  18.357  39.967   6.922
 4640POPC   C4A58806  18.531  39.708   7.234
 4640POPC   C1B58807  18.043  40.174   6.189
 4640POPC   C2B58808  17.966  40.280   6.618
 4640POPC   C3B58809  18.101  40.456   7.000
 4640POPC   C4B58810  18.237  40.232   7.357
 4641POPC   NC358811  28.174  41.281   5.569
 4641POPC   PO458812  28.733  41.549   5.271
 4641POPC   GL158813  28.640  41.456   5.740
 4641POPC   GL258814  28.715  41.696   6.017
 4641POPC   C1A58815  28.471  41.295   6.173
 4641POPC   D2A58816  28.565  41.465   6.582
 4641POPC   C3A58817  28.269  41.559   6.912
 4641POPC   C4A58818  28.343  41.433   7.339
 4641POPC   C1B58819  28.318  41.856   6.279
 4641POPC   C2B58820  28.216  42.096   6.682
 4641POPC   C3B58821  28.204  42.107   7.119
 4641POPC   C4B58822  28.223  41.901   7.494
 4642POPC   NC358823  17.902   9.043   5.338
 4642POPC   PO458824  18.530   8.740   5.494
 4642POPC   GL158825  18.358   9.009   5.765
 4642POPC   GL258826  18.085   8.899   5.806
 4642POPC   C1A58827  18.277   9.159   6.198
 4642POPC   D2A58828  18.207   8.972   6.603
 4642POPC   C3A58829  18.325   9.172   6.999
 4642POPC   C4A58830  18.030   9.351   7.237
 4642POPC   C1B58831  18.359   8.646   6.138
 4642POPC   C2B58832  18.343   8.470   6.580
 4642POPC   C3B58833  18.200   8.649   6.991
 4642POPC   C4B58834  17.863   8.677   7.310
 4643POPC   NC358835  15.545  18.672   5.515
 4643POPC   PO458836  15.721  18.042   5.340
 4643POPC   GL158837  15.846  18.233   5.716
 4643POPC   GL258838  16.125  18.038   5.889
 4643POPC   C1A58839  15.683  18.266   6.138
 4643POPC   D2A58840  15.823  18.244   6.547
 4643POPC   C3A58841  15.722  18.126   6.937
 4643POPC   C4A58842  15.808  18.391   7.276
 4643POPC   C1B58843  16.239  17.884   6.325
 4643POPC   C2B58844  16.233  18.013   6.789
 4643POPC   C3B58845  16.093  17.958   7.246
 4643POPC   C4B58846  16.215  17.830   7.711
 4644POPC   NC358847  26.849  25.306   5.203
 4644POPC   PO458848  26.970  25.843   5.531
 4644POPC   GL158849  26.845  25.413   5.712
 4644POPC   GL258850  26.571  25.132   5.584
 4644POPC   C1A58851  26.949  25.230   6.126
 4644POPC   D2A58852  26.999  25.450   6.517
 4644POPC   C3A58853  27.146  25.260   6.895
 4644POPC   C4A58854  26.981  25.369   7.281
 4644POPC   C1B58855  26.451  25.259   5.998
 4644POPC   C2B58856  26.471  25.275   6.446
 4644POPC   C3B58857  26.629  25.340   6.868
 4644POPC   C4B58858  26.534  25.126   7.230
 4645POPC   NC358859  15.140   0.703   5.387
 4645POPC   PO458860  15.453   0.131   5.456
 4645POPC   GL158861  15.270   0.379   5.773
 4645POPC   GL258862  15.451   0.693   5.817
 4645POPC   C1A58863  15.124   0.302   6.196
 4645POPC   D2A58864  15.345   0.272   6.552
 4645POPC   C3A58865  15.134   0.281   6.909
 4645POPC   C4A58866  15.364   0.430   7.241
 4645POPC   C1B58867  15.143   0.814   6.160
 4645POPC   C2B58868  15.053   0.782   6.640
 4645POPC   C3B58869  15.288   0.921   7.022
 4645POPC   C4B58870  15.697   0.823   7.195
 4646POPC   NC358871  10.674  24.822   5.361
 4646POPC   PO458872  10.277  24.334   5.451
 4646POPC   GL158873  10.345  24.608   5.834
 4646POPC   GL258874  10.197  24.960   5.858
 4646POPC   C1A58875  10.643  24.557   6.197
 4646POPC   D2A58876  10.909  24.596   6.573
 4646POPC   C3A58877  10.778  24.369   6.936
 4646POPC   C4A58878  10.695  24.433   7.380
 4646POPC   C1B58879  10.089  24.898   6.308
 4646POPC   C2B58880  10.370  24.700   6.633
 4646POPC   C3B58881  10.306  24.587   7.062
 4646POPC   C4B58882  10.373  24.815   7.440
 4647POPC   NC358883  40.895   5.093   5.295
 4647POPC   PO458884  40.989   5.634   5.667
 4647POPC   GL158885  40.781   5.220   5.808
 4647POPC   GL258886  40.650   4.866   5.696
 4647POPC   C1A58887  40.810   5.152   6.248
 4647POPC   D2A58888  41.123   5.331   6.546
 4647POPC   C3A58889  41.024   5.244   6.963
 4647POPC   C4A58890  40.589   5.199   7.127
 4647POPC   C1B58891  40.860   4.640   6.068
 4647POPC   C2B58892  40.943   4.741   6.513
 4647POPC   C3B58893  40.742   4.727   6.913
 4647POPC   C4B58894  40.944   4.831   7.270
 4648POPC   NC358895  27.365  11.671   5.161
 4648POPC   PO458896  27.777  11.144   5.351
 4648POPC   GL158897  27.672  11.168   5.819
 4648POPC   GL258898  27.550  11.519   5.986
 4648POPC   C1A58899  27.379  11.097   6.177
 4648POPC   D2A58900  27.479  11.334   6.570
 4648POPC   C3A58901  27.356  11.132   6.955
 4648POPC   C4A58902  27.368  11.228   7.384
 4648POPC   C1B58903  27.681  11.776   6.359
 4648POPC   C2B58904  27.865  11.723   6.762
 4648POPC   C3B58905  27.748  11.456   7.116
 4648POPC   C4B58906  27.747  11.481   7.597
 4649POPC   NC358907  10.795  22.282   5.292
 4649POPC   PO458908  11.371  22.057   5.379
 4649POPC   GL158909  11.084  22.100   5.725
 4649POPC   GL258910  10.971  21.752   5.855
 4649POPC   C1A58911  11.207  22.387   6.081
 4649POPC   D2A58912  11.498  22.388   6.432
 4649POPC   C3A58913  11.259  22.377   6.815
 4649POPC   C4A58914  11.352  22.490   7.207
 4649POPC   C1B58915  11.323  21.856   6.128
 4649POPC   C2B58916  11.273  21.943   6.545
 4649POPC   C3B58917  11.341  21.890   6.978
 4649POPC   C4B58918  11.044  22.096   7.224
 4650POPC   NC358919  39.366  24.097   5.638
 4650POPC   PO458920  39.263  24.831   5.631
 4650POPC   GL158921  39.279  24.768   6.053
 4650POPC   GL258922  39.149  24.424   5.970
 4650POPC   C1A58923  39.398  24.445   6.383
 4650POPC   D2A58924  39.079  24.292   6.662
 4650POPC   C3A58925  39.250  24.430   7.023
 4650POPC   C4A58926  39.608  24.595   7.144
 4650POPC   C1B58927  38.841  24.625   6.227
 4650POPC   C2B58928  38.681  24.628   6.592
 4650POPC   C3B58929  38.801  24.675   6.955
 4650POPC   C4B58930  38.890  24.647   7.363
 4651POPC   NC358931   1.640  26.255   5.510
 4651POPC   PO458932   1.417  25.685   5.327
 4651POPC   GL158933   1.244  25.955   5.664
 4651POPC   GL258934   1.545  25.955   5.920
 4651POPC   C1A58935   1.049  25.881   6.078
 4651POPC   D2A58936   1.186  26.025   6.473
 4651POPC   C3A58937   1.025  25.928   6.881
 4651POPC   C4A58938   0.903  26.170   7.232
 4651POPC   C1B58939   1.618  26.281   6.290
 4651POPC   C2B58940   1.508  26.328   6.715
 4651POPC   C3B58941   1.472  26.156   7.087
 4651POPC   C4B58942   1.728  26.431   7.321
 4652POPC   NC358943  29.922  15.682   5.239
 4652POPC   PO458944  29.855  15.065   5.473
 4652POPC   GL158945  29.941  15.022   5.895
 4652POPC   GL258946  30.271  14.955   5.877
 4652POPC   C1A58947  30.086  15.247   6.272
 4652POPC   D2A58948  29.898  15.139   6.642
 4652POPC   C3A58949  30.096  15.239   7.015
 4652POPC   C4A58950  29.778  15.275   7.260
 4652POPC   C1B58951  30.183  14.750   6.292
 4652POPC   C2B58952  30.029  14.620   6.672
 4652POPC   C3B58953  29.908  14.791   7.058
 4652POPC   C4B58954  30.144  14.897   7.426
 4653POPC   NC358955  28.569  15.564   5.029
 4653POPC   PO458956  28.301  16.160   5.284
 4653POPC   GL158957  28.376  16.053   5.747
 4653POPC   GL258958  28.717  15.972   5.839
 4653POPC   C1A58959  28.339  15.970   6.207
 4653POPC   D2A58960  28.024  15.908   6.565
 4653POPC   C3A58961  28.156  16.145   6.936
 4653POPC   C4A58962  28.428  15.961   7.234
 4653POPC   C1B58963  28.801  15.644   6.132
 4653POPC   C2B58964  28.945  15.643   6.550
 4653POPC   C3B58965  28.671  15.663   6.888
 4653POPC   C4B58966  28.704  15.539   7.285
 4654POPC   NC358967  11.574   1.944   5.487
 4654POPC   PO458968  10.952   2.215   5.338
 4654POPC   GL158969  11.138   2.065   5.756
 4654POPC   GL258970  11.232   1.712   5.822
 4654POPC   C1A58971  11.295   2.079   6.200
 4654POPC   D2A58972  11.513   2.183   6.577
 4654POPC   C3A58973  11.298   2.170   6.947
 4654POPC   C4A58974  11.386   2.265   7.334
 4654POPC   C1B58975  11.633   1.705   6.092
 4654POPC   C2B58976  11.742   1.691   6.543
 4654POPC   C3B58977  11.530   1.723   6.960
 4654POPC   C4B58978  11.436   1.756   7.428
 4655POPC   NC358979  39.463  38.902   5.642
 4655POPC   PO458980  39.578  38.268   5.455
 4655POPC   GL158981  39.405  38.258   5.864
 4655POPC   GL258982  39.259  38.564   5.943
 4655POPC   C1A58983  39.395  38.212   6.310
 4655POPC   D2A58984  39.283  38.419   6.641
 4655POPC   C3A58985  39.376  38.174   6.964
 4655POPC   C4A58986  39.314  38.420   7.332
 4655POPC   C1B58987  38.957  38.482   6.235
 4655POPC   C2B58988  38.797  38.573   6.633
 4655POPC   C3B58989  38.915  38.402   7.007
 4655POPC   C4B58990  38.688  38.558   7.304
 4656POPC   NC358991   1.671  18.021   5.430
 4656POPC   PO458992   2.235  18.274   5.146
 4656POPC   GL158993   2.167  18.244   5.649
 4656POPC   GL258994   2.108  17.925   5.737
 4656POPC   C1A58995   1.903  18.225   6.100
 4656POPC   D2A58996   1.671  18.185   6.532
 4656POPC   C3A58997   1.856  18.389   6.932
 4656POPC   C4A58998   1.896  18.555   7.379
 4656POPC   C1B58999   2.315  17.939   6.151
 4656POPC   C2B59000   2.184  18.060   6.566
 4656POPC   C3B59001   1.925  17.882   6.888
 4656POPC   C4B59002   1.989  18.034   7.282
 4657POPC   NC359003  43.621  19.857   5.294
 4657POPC   PO459004  44.163  20.059   5.533
 4657POPC   GL159005  43.823  19.853   5.806
 4657POPC   GL259006  43.489  19.992   5.747
 4657POPC   C1A59007  43.774  19.722   6.271
 4657POPC   D2A59008  43.959  19.947   6.662
 4657POPC   C3A59009  43.954  19.804   7.089
 4657POPC   C4A59010  43.891  19.390   7.208
 4657POPC   C1B59011  43.541  20.165   6.157
 4657POPC   C2B59012  43.463  20.014   6.577
 4657POPC   C3B59013  43.539  20.121   6.998
 4657POPC   C4B59014  43.630  20.158   7.458
 4658POPC   NC359015  29.225  13.230   5.387
 4658POPC   PO459016  28.883  12.652   5.331
 4658POPC   GL159017  29.081  12.825   5.730
 4658POPC   GL259018  28.829  12.977   5.948
 4658POPC   C1A59019  29.125  12.623   6.170
 4658POPC   D2A59020  28.921  12.474   6.570
 4658POPC   C3A59021  29.190  12.564   6.924
 4658POPC   C4A59022  29.340  12.560   7.367
 4658POPC   C1B59023  28.725  12.896   6.371
 4658POPC   C2B59024  28.908  12.974   6.735
 4658POPC   C3B59025  29.010  13.133   7.110
 4658POPC   C4B59026  28.801  13.080   7.493
 4659POPC   NC359027  34.356   1.973   5.478
 4659POPC   PO459028  35.032   1.884   5.409
 4659POPC   GL159029  34.748   1.884   5.804
 4659POPC   GL259030  34.540   2.157   5.929
 4659POPC   C1A59031  34.767   1.835   6.277
 4659POPC   D2A59032  34.588   2.198   6.501
 4659POPC   C3A59033  34.788   2.348   6.871
 4659POPC   C4A59034  34.823   2.074   7.230
 4659POPC   C1B59035  34.278   1.857   6.164
 4659POPC   C2B59036  34.275   1.806   6.632
 4659POPC   C3B59037  34.356   2.079   7.005
 4659POPC   C4B59038  34.404   1.979   7.502
 4660POPC   NC359039  36.440  33.126   5.368
 4660POPC   PO459040  35.817  32.809   5.380
 4660POPC   GL159041  36.080  32.864   5.763
 4660POPC   GL259042  36.382  32.659   5.726
 4660POPC   C1A59043  36.077  33.120   6.172
 4660POPC   D2A59044  36.061  33.391   6.575
 4660POPC   C3A59045  36.013  33.214   6.996
 4660POPC   C4A59046  35.885  32.803   7.168
 4660POPC   C1B59047  36.544  32.905   6.073
 4660POPC   C2B59048  36.480  33.040   6.502
 4660POPC   C3B59049  36.344  32.855   6.872
 4660POPC   C4B59050  36.428  32.995   7.274
 4661POPC   NC359051   8.604  11.402   5.347
 4661POPC   PO459052   9.288  11.166   5.515
 4661POPC   GL159053   9.147  11.420   5.839
 4661POPC   GL259054   8.801  11.539   5.809
 4661POPC   C1A59055   9.033  11.247   6.233
 4661POPC   D2A59056   8.851  11.253   6.650
 4661POPC   C3A59057   8.989  11.537   6.944
 4661POPC   C4A59058   8.786  11.466   7.315
 4661POPC   C1B59059   8.543  11.780   6.115
 4661POPC   C2B59060   8.436  11.728   6.552
 4661POPC   C3B59061   8.435  11.470   6.923
 4661POPC   C4B59062   8.268  11.396   7.331
 4662POPC   NC359063  38.110   8.504   5.014
 4662POPC   PO459064  37.614   8.034   5.249
 4662POPC   GL159065  37.657   8.061   5.732
 4662POPC   GL259066  37.462   8.339   5.916
 4662POPC   C1A59067  37.772   7.998   6.201
 4662POPC   D2A59068  37.617   8.080   6.641
 4662POPC   C3A59069  37.834   8.052   7.052
 4662POPC   C4A59070  38.034   8.465   7.138
 4662POPC   C1B59071  37.212   8.391   6.297
 4662POPC   C2B59072  37.197   8.425   6.732
 4662POPC   C3B59073  37.506   8.452   7.025
 4662POPC   C4B59074  37.511   8.307   7.466
 4663POPC   NC359075  38.001  12.030   5.519
 4663POPC   PO459076  37.397  11.806   5.622
 4663POPC   GL159077  37.664  12.161   5.866
 4663POPC   GL259078  38.058  12.298   5.939
 4663POPC   C1A59079  37.708  12.066   6.279
 4663POPC   D2A59080  37.533  11.920   6.671
 4663POPC   C3A59081  37.512  12.148   7.050
 4663POPC   C4A59082  37.771  11.986   7.411
 4663POPC   C1B59083  38.151  12.300   6.373
 4663POPC   C2B59084  37.861  12.321   6.718
 4663POPC   C3B59085  37.918  12.430   7.167
 4663POPC   C4B59086  38.068  12.397   7.608
 4664POPC   NC359087   8.926  30.412   5.477
 4664POPC   PO459088   8.851  31.037   5.514
 4664POPC   GL159089   9.145  30.771   5.773
 4664POPC   GL259090   9.360  30.443   5.745
 4664POPC   C1A59091   9.019  30.726   6.186
 4664POPC   D2A59092   8.866  30.966   6.570
 4664POPC   C3A59093   8.987  30.883   7.025
 4664POPC   C4A59094   9.027  30.952   7.498
 4664POPC   C1B59095   9.250  30.266   6.141
 4664POPC   C2B59096   9.061  30.345   6.542
 4664POPC   C3B59097   9.225  30.409   6.947
 4664POPC   C4B59098   9.039  30.326   7.337
 4665POPC   NC359099  29.049  10.744   5.298
 4665POPC   PO459100  28.857  10.199   5.426
 4665POPC   GL159101  29.141  10.418   5.702
 4665POPC   GL259102  29.515  10.366   5.756
 4665POPC   C1A59103  29.141  10.650   6.061
 4665POPC   D2A59104  29.111  10.751   6.501
 4665POPC   C3A59105  29.122  10.471   6.850
 4665POPC   C4A59106  29.067  10.503   7.292
 4665POPC   C1B59107  29.644  10.587   6.156
 4665POPC   C2B59108  29.606  10.577   6.622
 4665POPC   C3B59109  29.591  10.479   7.060
 4665POPC   C4B59110  29.459  10.149   7.313
 4666POPC   NC359111  12.989  30.752   5.631
 4666POPC   PO459112  12.571  31.165   5.447
 4666POPC   GL159113  12.536  30.930   5.841
 4666POPC   GL259114  12.552  30.547   5.853
 4666POPC   C1A59115  12.690  30.904   6.270
 4666POPC   D2A59116  12.539  30.711   6.660
 4666POPC   C3A59117  12.781  30.883   6.972
 4666POPC   C4A59118  12.839  30.833   7.414
 4666POPC   C1B59119  12.737  30.403   6.276
 4666POPC   C2B59120  13.037  30.609   6.618
 4666POPC   C3B59121  13.121  30.522   7.099
 4666POPC   C4B59122  13.041  30.395   7.560
 4667POPC   NC359123   0.733  28.487   5.434
 4667POPC   PO459124   1.241  28.809   5.497
 4667POPC   GL159125   1.428  28.564   5.803
 4667POPC   GL259126   1.096  28.426   5.826
 4667POPC   C1A59127   1.432  28.395   6.234
 4667POPC   D2A59128   1.209  28.463   6.622
 4667POPC   C3A59129   1.462  28.483   6.998
 4667POPC   C4A59130   1.361  28.103   7.207
 4667POPC   C1B59131   1.008  28.091   6.087
 4667POPC   C2B59132   0.817  28.122   6.474
 4667POPC   C3B59133   0.948  28.088   6.895
 4667POPC   C4B59134   0.975  28.461   7.138
 4668POPC   NC359135  20.840   4.096   5.165
 4668POPC   PO459136  20.986   4.646   5.564
 4668POPC   GL159137  20.813   4.364   5.829
 4668POPC   GL259138  20.748   4.009   5.793
 4668POPC   C1A59139  20.478   4.348   6.112
 4668POPC   D2A59140  20.390   4.233   6.533
 4668POPC   C3A59141  20.586   4.479   6.842
 4668POPC   C4A59142  20.517   4.513   7.265
 4668POPC   C1B59143  20.540   3.842   6.176
 4668POPC   C2B59144  20.712   3.781   6.576
 4668POPC   C3B59145  20.582   3.951   6.930
 4668POPC   C4B59146  20.686   4.037   7.298
 4669POPC   NC359147  16.515  15.451   5.451
 4669POPC   PO459148  16.686  14.819   5.263
 4669POPC   GL159149  16.768  15.054   5.702
 4669POPC   GL259150  16.507  15.189   5.927
 4669POPC   C1A59151  16.993  15.303   6.091
 4669POPC   D2A59152  17.121  15.465   6.533
 4669POPC   C3A59153  16.909  15.297   6.919
 4669POPC   C4A59154  16.940  15.345   7.375
 4669POPC   C1B59155  16.249  15.242   6.293
 4669POPC   C2B59156  16.413  15.212   6.725
 4669POPC   C3B59157  16.439  15.313   7.192
 4669POPC   C4B59158  16.573  15.097   7.603
 4670POPC   NC359159   0.340  40.348   5.353
 4670POPC   PO459160   0.230  39.648   5.458
 4670POPC   GL159161   0.456  39.936   5.767
 4670POPC   GL259162   0.526  40.313   5.820
 4670POPC   C1A59163   0.438  39.985   6.208
 4670POPC   D2A59164   0.559  39.776   6.567
 4670POPC   C3A59165   0.409  39.957   6.979
 4670POPC   C4A59166   0.346  39.784   7.396
 4670POPC   C1B59167   0.811  40.336   6.163
 4670POPC   C2B59168   0.664  40.289   6.585
 4670POPC   C3B59169   0.651  40.421   6.988
 4670POPC   C4B59170   0.632  40.542   7.393
 4671POPC   NC359171  44.701  26.242   5.427
 4671POPC   PO459172  44.831  25.610   5.354
 4671POPC   GL159173  44.869  25.875   5.745
 4671POPC   GL259174  44.526  25.955   5.881
 4671POPC   C1A59175  44.917  26.105   6.149
 4671POPC   D2A59176  44.692  26.041   6.510
 4671POPC   C3A59177  44.921  26.102   6.863
 4671POPC   C4A59178  44.787  25.987   7.272
 4671POPC   C1B59179  44.456  26.367   6.140
 4671POPC   C2B59180  44.451  26.496   6.609
 4671POPC   C3B59181  44.548  26.396   7.038
 4671POPC   C4B59182  44.431  26.379   7.473
 4672POPC   NC359183  17.868  29.522   5.029
 4672POPC   PO459184  17.324  29.830   5.395
 4672POPC   GL159185  17.414  30.095   5.758
 4672POPC   GL259186  17.781  30.199   5.752
 4672POPC   C1A59187  17.234  29.973   6.165
 4672POPC   D2A59188  17.158  29.795   6.591
 4672POPC   C3A59189  17.255  30.040   6.966
 4672POPC   C4A59190  17.435  29.937   7.368
 4672POPC   C1B59191  17.767  30.025   6.202
 4672POPC   C2B59192  17.675  29.948   6.669
 4672POPC   C3B59193  17.796  30.170   7.082
 4672POPC   C4B59194  17.767  30.248   7.580
 4673POPC   NC359195  32.981  17.251   5.398
 4673POPC   PO459196  33.316  16.720   5.256
 4673POPC   GL159197  33.174  16.649   5.700
 4673POPC   GL259198  32.924  16.927   5.817
 4673POPC   C1A59199  33.264  16.647   6.152
 4673POPC   D2A59200  33.207  16.881   6.534
 4673POPC   C3A59201  33.064  16.767   6.960
 4673POPC   C4A59202  33.100  16.852   7.420
 4673POPC   C1B59203  32.737  16.591   6.079
 4673POPC   C2B59204  32.592  16.467   6.495
 4673POPC   C3B59205  32.555  16.602   6.916
 4673POPC   C4B59206  32.770  16.481   7.275
 4674POPC   NC359207   6.029  23.617   5.400
 4674POPC   PO459208   5.704  24.189   5.179
 4674POPC   GL159209   5.865  24.041   5.623
 4674POPC   GL259210   5.697  23.694   5.758
 4674POPC   C1A59211   5.926  24.038   6.066
 4674POPC   D2A59212   5.750  23.986   6.489
 4674POPC   C3A59213   6.050  23.920   6.810
 4674POPC   C4A59214   6.065  24.139   7.174
 4674POPC   C1B59215   5.597  23.595   6.174
 4674POPC   C2B59216   5.715  23.435   6.557
 4674POPC   C3B59217   5.563  23.611   6.894
 4674POPC   C4B59218   5.813  23.680   7.211
 4675POPC   NC359219   5.054  37.261   5.324
 4675POPC   PO459220   4.852  36.571   5.282
 4675POPC   GL159221   4.893  36.796   5.630
 4675POPC   GL259222   5.161  36.595   5.768
 4675POPC   C1A59223   4.742  36.865   6.039
 4675POPC   D2A59224   4.904  36.775   6.424
 4675POPC   C3A59225   4.917  36.987   6.807
 4675POPC   C4A59226   4.997  36.903   7.250
 4675POPC   C1B59227   5.269  36.945   6.052
 4675POPC   C2B59228   5.348  36.997   6.507
 4675POPC   C3B59229   5.421  36.795   6.909
 4675POPC   C4B59230   5.528  36.920   7.310
 4676POPC   NC359231  18.247   4.985   5.423
 4676POPC   PO459232  18.846   4.668   5.556
 4676POPC   GL159233  18.569   4.874   5.822
 4676POPC   GL259234  18.533   5.265   5.827
 4676POPC   C1A59235  18.427   4.892   6.226
 4676POPC   D2A59236  18.663   4.998   6.585
 4676POPC   C3A59237  18.412   4.967   6.912
 4676POPC   C4A59238  18.518   4.983   7.284
 4676POPC   C1B59239  18.509   5.397   6.295
 4676POPC   C2B59240  18.436   5.480   6.765
 4676POPC   C3B59241  18.254   5.420   7.216
 4676POPC   C4B59242  17.921   5.487   7.566
 4677POPC   NC359243   9.515  14.792   5.331
 4677POPC   PO459244  10.029  15.292   5.326
 4677POPC   GL159245   9.999  15.140   5.762
 4677POPC   GL259246   9.892  14.801   5.702
 4677POPC   C1A59247   9.766  15.175   6.184
 4677POPC   D2A59248   9.552  15.247   6.623
 4677POPC   C3A59249   9.752  15.169   7.060
 4677POPC   C4A59250   9.546  14.980   7.441
 4677POPC   C1B59251  10.063  14.741   6.114
 4677POPC   C2B59252  10.115  14.925   6.514
 4677POPC   C3B59253  10.132  14.862   6.925
 4677POPC   C4B59254  10.192  15.139   7.315
 4678POPC   NC359255   4.005  42.977   5.568
 4678POPC   PO459256   4.618  43.340   5.519
 4678POPC   GL159257   4.341  43.298   5.873
 4678POPC   GL259258   4.314  42.960   6.018
 4678POPC   C1A59259   4.158  43.393   6.292
 4678POPC   D2A59260   4.210  43.015   6.556
 4678POPC   C3A59261   4.305  43.041   6.998
 4678POPC   C4A59262   4.440  43.382   7.271
 4678POPC   C1B59263   4.657  43.183   6.243
 4678POPC   C2B59264   4.558  43.404   6.610
 4678POPC   C3B59265   4.792  43.333   6.921
 4678POPC   C4B59266   4.791  42.973   7.163
 4679POPC   NC359267  15.415  42.498   5.399
 4679POPC   PO459268  14.654  42.592   5.502
 4679POPC   GL159269  14.965  42.258   5.689
 4679POPC   GL259270  15.242  42.411   5.853
 4679POPC   C1A59271  15.048  42.050   6.127
 4679POPC   D2A59272  15.160  42.250   6.515
 4679POPC   C3A59273  15.098  42.121   6.936
 4679POPC   C4A59274  14.956  42.402   7.254
 4679POPC   C1B59275  15.485  42.458   6.197
 4679POPC   C2B59276  15.679  42.215   6.512
 4679POPC   C3B59277  15.517  42.411   6.872
 4679POPC   C4B59278  15.451  42.441   7.281
 4680POPC   NC359279  26.312  34.370   5.336
 4680POPC   PO459280  25.916  34.953   5.386
 4680POPC   GL159281  26.133  34.674   5.715
 4680POPC   GL259282  25.883  34.383   5.780
 4680POPC   C1A59283  26.234  34.680   6.170
 4680POPC   D2A59284  26.032  34.917   6.514
 4680POPC   C3A59285  26.224  34.840   6.916
 4680POPC   C4A59286  25.979  34.870   7.294
 4680POPC   C1B59287  25.826  34.359   6.250
 4680POPC   C2B59288  26.074  34.424   6.636
 4680POPC   C3B59289  26.064  34.400   7.086
 4680POPC   C4B59290  26.189  34.173   7.427
 4681POPC   NC359291   7.504  10.085   5.374
 4681POPC   PO459292   7.752  10.707   5.376
 4681POPC   GL159293   7.540  10.635   5.769
 4681POPC   GL259294   7.596  10.296   5.835
 4681POPC   C1A59295   7.281  10.639   6.210
 4681POPC   D2A59296   7.128  10.741   6.666
 4681POPC   C3A59297   7.410  10.628   7.020
 4681POPC   C4A59298   7.396  10.639   7.486
 4681POPC   C1B59299   7.773  10.519   6.196
 4681POPC   C2B59300   7.736  10.639   6.598
 4681POPC   C3B59301   7.758  10.277   6.845
 4681POPC   C4B59302   7.665  10.263   7.258
 4682POPC   NC359303   3.372   7.753   5.517
 4682POPC   PO459304   3.709   7.174   5.409
 4682POPC   GL159305   3.579   7.226   5.866
 4682POPC   GL259306   3.577   7.559   5.926
 4682POPC   C1A59307   3.275   7.332   6.240
 4682POPC   D2A59308   3.123   7.499   6.636
 4682POPC   C3A59309   3.313   7.465   7.036
 4682POPC   C4A59310   3.624   7.179   7.187
 4682POPC   C1B59311   3.813   7.619   6.272
 4682POPC   C2B59312   3.647   7.644   6.685
 4682POPC   C3B59313   3.810   7.629   7.095
 4682POPC   C4B59314   3.976   7.480   7.521
 4683POPC   NC359315  18.806  32.515   5.437
 4683POPC   PO459316  19.447  32.243   5.523
 4683POPC   GL159317  19.079  32.298   5.795
 4683POPC   GL259318  19.165  32.617   5.940
 4683POPC   C1A59319  18.891  32.201   6.241
 4683POPC   D2A59320  18.727  31.995   6.649
 4683POPC   C3A59321  18.877  32.033   7.095
 4683POPC   C4A59322  18.855  32.398   7.376
 4683POPC   C1B59323  19.405  32.265   6.163
 4683POPC   C2B59324  19.347  32.072   6.539
 4683POPC   C3B59325  19.252  32.315   6.883
 4683POPC   C4B59326  19.353  32.368   7.298
 4684POPC   NC359327   7.935   5.173   5.357
 4684POPC   PO459328   7.319   4.900   5.154
 4684POPC   GL159329   7.476   5.134   5.611
 4684POPC   GL259330   7.502   4.860   5.873
 4684POPC   C1A59331   7.513   5.301   6.099
 4684POPC   D2A59332   7.687   5.082   6.491
 4684POPC   C3A59333   7.650   5.048   6.939
 4684POPC   C4A59334   7.329   5.236   7.236
 4684POPC   C1B59335   7.240   4.885   6.277
 4684POPC   C2B59336   7.198   4.964   6.733
 4684POPC   C3B59337   7.272   4.753   7.114
 4684POPC   C4B59338   7.360   4.531   7.479
 4685POPC   NC359339  34.829   7.101   5.609
 4685POPC   PO459340  34.344   7.554   5.373
 4685POPC   GL159341  34.465   7.483   5.797
 4685POPC   GL259342  34.398   7.166   5.898
 4685POPC   C1A59343  34.801   7.545   6.119
 4685POPC   D2A59344  35.029   7.499   6.521
 4685POPC   C3A59345  34.685   7.430   6.805
 4685POPC   C4A59346  34.522   7.581   7.190
 4685POPC   C1B59347  34.662   7.036   6.265
 4685POPC   C2B59348  34.390   7.040   6.631
 4685POPC   C3B59349  34.301   7.138   7.013
 4685POPC   C4B59350  34.606   7.000   7.223
 4686POPC   NC359351  11.511   8.190   5.488
 4686POPC   PO459352  10.845   8.175   5.602
 4686POPC   GL159353  11.139   8.325   5.893
 4686POPC   GL259354  11.288   8.009   5.901
 4686POPC   C1A59355  11.219   8.392   6.348
 4686POPC   D2A59356  11.383   8.560   6.742
 4686POPC   C3A59357  11.434   8.245   7.073
 4686POPC   C4A59358  11.163   7.878   7.167
 4686POPC   C1B59359  11.613   8.180   6.137
 4686POPC   C2B59360  11.629   8.118   6.565
 4686POPC   C3B59361  11.877   8.042   6.894
 4686POPC   C4B59362  11.921   8.292   7.273
 4687POPC   NC359363   2.538  41.301   5.348
 4687POPC   PO459364   2.537  42.060   5.336
 4687POPC   GL159365   2.687  41.770   5.717
 4687POPC   GL259366   2.906  41.474   5.689
 4687POPC   C1A59367   2.689  41.516   6.153
 4687POPC   D2A59368   2.812  41.412   6.591
 4687POPC   C3A59369   2.874  41.557   7.022
 4687POPC   C4A59370   2.807  41.334   7.419
 4687POPC   C1B59371   3.130  41.275   6.046
 4687POPC   C2B59372   3.287  41.264   6.475
 4687POPC   C3B59373   3.147  41.130   6.890
 4687POPC   C4B59374   3.249  41.151   7.295
 4688POPC   NC359375  38.387  13.673   5.376
 4688POPC   PO459376  38.527  13.030   5.271
 4688POPC   GL159377  38.289  13.363   5.764
 4688POPC   GL259378  38.369  13.719   5.876
 4688POPC   C1A59379  38.429  13.332   6.214
 4688POPC   D2A59380  38.458  13.715   6.462
 4688POPC   C3A59381  38.628  13.705   6.872
 4688POPC   C4A59382  38.617  13.852   7.255
 4688POPC   C1B59383  38.017  13.630   6.156
 4688POPC   C2B59384  37.963  13.814   6.547
 4688POPC   C3B59385  38.118  13.666   6.919
 4688POPC   C4B59386  37.941  13.680   7.275
 4689POPC   NC359387   6.969  23.792   5.471
 4689POPC   PO459388   6.342  23.964   5.458
 4689POPC   GL159389   6.522  23.633   5.792
 4689POPC   GL259390   6.891  23.530   5.894
 4689POPC   C1A59391   6.608  23.792   6.242
 4689POPC   D2A59392   6.824  23.989   6.606
 4689POPC   C3A59393   6.605  23.945   7.002
 4689POPC   C4A59394   6.328  23.705   7.262
 4689POPC   C1B59395   6.838  23.337   6.292
 4689POPC   C2B59396   6.533  23.406   6.584
 4689POPC   C3B59397   6.625  23.412   6.972
 4689POPC   C4B59398   6.885  23.502   7.276
 4690POPC   NC359399  17.087  39.806   5.458
 4690POPC   PO459400  16.528  40.151   5.314
 4690POPC   GL159401  16.489  40.116   5.769
 4690POPC   GL259402  16.850  40.071   5.824
 4690POPC   C1A59403  16.525  39.939   6.206
 4690POPC   D2A59404  16.446  39.644   6.527
 4690POPC   C3A59405  16.494  39.867   6.901
 4690POPC   C4A59406  16.483  40.158   7.230
 4690POPC   C1B59407  17.056  40.042   6.255
 4690POPC   C2B59408  16.957  40.003   6.699
 4690POPC   C3B59409  16.998  40.009   7.161
 4690POPC   C4B59410  16.982  39.727   7.531
 4691POPC   NC359411   6.191  39.262   5.125
 4691POPC   PO459412   5.636  39.098   5.424
 4691POPC   GL159413   5.710  39.142   5.855
 4691POPC   GL259414   5.867  39.449   5.828
 4691POPC   C1A59415   5.970  39.197   6.249
 4691POPC   D2A59416   6.245  39.135   6.588
 4691POPC   C3A59417   6.007  39.382   6.851
 4691POPC   C4A59418   5.849  39.269   7.216
 4691POPC   C1B59419   5.559  39.543   6.170
 4691POPC   C2B59420   5.541  39.642   6.609
 4691POPC   C3B59421   5.638  39.713   7.047
 4691POPC   C4B59422   5.608  39.582   7.527
 4692POPC   NC359423  23.672  13.918   5.546
 4692POPC   PO459424  23.795  13.176   5.445
 4692POPC   GL159425  23.788  13.481   5.823
 4692POPC   GL259426  24.121  13.423   5.973
 4692POPC   C1A59427  23.682  13.706   6.238
 4692POPC   D2A59428  23.617  13.574   6.709
 4692POPC   C3A59429  23.936  13.663   7.066
 4692POPC   C4A59430  23.922  13.570   7.556
 4692POPC   C1B59431  24.117  13.533   6.423
 4692POPC   C2B59432  24.005  13.937   6.620
 4692POPC   C3B59433  24.149  14.141   6.998
 4692POPC   C4B59434  24.072  14.010   7.421
 4693POPC   NC359435  36.698  43.933   5.634
 4693POPC   PO459436  35.999  44.030   5.372
 4693POPC   GL159437  36.179  43.919   5.766
 4693POPC   GL259438  36.251  43.568   5.880
 4693POPC   C1A59439  36.022  43.879   6.191
 4693POPC   D2A59440  36.233  43.689   6.545
 4693POPC   C3A59441  35.996  43.620   6.888
 4693POPC   C4A59442  36.090  43.814   7.230
 4693POPC   C1B59443  36.557  43.389   6.240
 4693POPC   C2B59444  36.748  43.449   6.654
 4693POPC   C3B59445  36.565  43.668   7.012
 4693POPC   C4B59446  36.484  43.589   7.461
 4694POPC   NC359447   5.259  19.049   5.492
 4694POPC   PO459448   4.576  19.097   5.538
 4694POPC   GL159449   4.876  18.911   5.817
 4694POPC   GL259450   4.591  18.716   5.887
 4694POPC   C1A59451   5.241  18.887   6.144
 4694POPC   D2A59452   5.562  18.860   6.493
 4694POPC   C3A59453   5.356  18.850   6.898
 4694POPC   C4A59454   5.197  18.732   7.290
 4694POPC   C1B59455   4.723  18.853   6.296
 4694POPC   C2B59456   4.863  18.828   6.687
 4694POPC   C3B59457   4.897  19.097   6.994
 4694POPC   C4B59458   4.806  19.105   7.398
 4695POPC   NC359459  20.837   5.683   5.390
 4695POPC   PO459460  20.098   5.758   5.468
 4695POPC   GL159461  20.384   5.971   5.811
 4695POPC   GL259462  20.768   6.057   5.805
 4695POPC   C1A59463  20.464   5.755   6.222
 4695POPC   D2A59464  20.534   5.394   6.494
 4695POPC   C3A59465  20.506   5.492   6.946
 4695POPC   C4A59466  20.453   5.798   7.268
 4695POPC   C1B59467  20.950   5.912   6.215
 4695POPC   C2B59468  20.803   5.850   6.657
 4695POPC   C3B59469  20.723   6.146   7.009
 4695POPC   C4B59470  20.662   6.187   7.508
 4696POPC   NC359471  18.062  31.135   5.474
 4696POPC   PO459472  17.605  30.654   5.220
 4696POPC   GL159473  17.529  30.669   5.661
 4696POPC   GL259474  17.367  31.019   5.712
 4696POPC   C1A59475  17.498  30.471   6.093
 4696POPC   D2A59476  17.340  30.338   6.497
 4696POPC   C3A59477  17.452  30.500   6.867
 4696POPC   C4A59478  17.449  30.526   7.293
 4696POPC   C1B59479  17.687  30.954   6.053
 4696POPC   C2B59480  17.605  30.819   6.470
 4696POPC   C3B59481  17.450  31.006   6.837
 4696POPC   C4B59482  17.642  30.995   7.234
 4697POPC   NC359483  13.444  14.991   5.198
 4697POPC   PO459484  13.747  14.866   5.769
 4697POPC   GL159485  13.475  14.904   6.108
 4697POPC   GL259486  13.482  15.273   6.119
 4697POPC   C1A59487  13.554  14.985   6.535
 4697POPC   D2A59488  13.708  15.285   6.774
 4697POPC   C3A59489  13.617  15.182   7.149
 4697POPC   C4A59490  13.228  15.236   7.334
 4697POPC   C1B59491  13.939  15.301   6.304
 4697POPC   C2B59492  14.087  15.586   6.658
 4697POPC   C3B59493  14.050  15.506   7.141
 4697POPC   C4B59494  14.141  15.517   7.640
 4698POPC   NC359495  14.125  20.668   5.329
 4698POPC   PO459496  14.740  20.573   5.403
 4698POPC   GL159497  14.434  20.487   5.715
 4698POPC   GL259498  14.200  20.752   5.801
 4698POPC   C1A59499  14.363  20.397   6.162
 4698POPC   D2A59500  14.655  20.375   6.531
 4698POPC   C3A59501  14.604  20.526   6.964
 4698POPC   C4A59502  14.298  20.430   7.318
 4698POPC   C1B59503  14.194  20.895   6.207
 4698POPC   C2B59504  14.164  20.641   6.573
 4698POPC   C3B59505  14.163  20.788   6.957
 4698POPC   C4B59506  14.252  20.984   7.303
 4699POPC   NC359507  18.112  43.116   5.536
 4699POPC   PO459508  18.807  43.021   5.412
 4699POPC   GL159509  18.566  43.041   5.830
 4699POPC   GL259510  18.330  43.355   5.927
 4699POPC   C1A59511  18.492  43.019   6.287
 4699POPC   D2A59512  18.389  43.347   6.568
 4699POPC   C3A59513  18.282  43.127   6.929
 4699POPC   C4A59514  18.270  43.067   7.361
 4699POPC   C1B59515  18.000  43.244   6.243
 4699POPC   C2B59516  17.810  43.200   6.687
 4699POPC   C3B59517  17.893  43.394   7.125
 4699POPC   C4B59518  18.008  43.477   7.559
 4700POPC   NC359519  19.351   6.675   5.437
 4700POPC   PO459520  18.625   6.508   5.457
 4700POPC   GL159521  18.943   6.705   5.823
 4700POPC   GL259522  19.194   6.509   5.899
 4700POPC   C1A59523  19.074   6.603   6.353
 4700POPC   D2A59524  19.457   6.565   6.610
 4700POPC   C3A59525  19.321   6.454   7.011
 4700POPC   C4A59526  19.069   6.676   7.251
 4700POPC   C1B59527  18.719   6.353   6.084
 4700POPC   C2B59528  18.627   6.379   6.506
 4700POPC   C3B59529  18.832   6.438   6.865
 4700POPC   C4B59530  18.755   6.289   7.296
 4701POPC   NC359531  24.767  16.060   5.483
 4701POPC   PO459532  24.132  16.303   5.367
 4701POPC   GL159533  24.339  16.103   5.803
 4701POPC   GL259534  24.664  15.861   5.915
 4701POPC   C1A59535  24.364  15.982   6.277
 4701POPC   D2A59536  24.742  15.957   6.541
 4701POPC   C3A59537  24.540  16.088   6.907
 4701POPC   C4A59538  24.190  15.943   7.158
 4701POPC   C1B59539  24.952  15.619   6.187
 4701POPC   C2B59540  25.030  15.500   6.620
 4701POPC   C3B59541  24.929  15.750   6.995
 4701POPC   C4B59542  24.654  15.817   7.327
 4702POPC   NC359543  25.083   9.424   5.491
 4702POPC   PO459544  25.288   8.805   5.383
 4702POPC   GL159545  25.251   8.652   5.809
 4702POPC   GL259546  24.982   8.773   5.885
 4702POPC   C1A59547  25.441   8.777   6.213
 4702POPC   D2A59548  25.676   8.949   6.589
 4702POPC   C3A59549  25.496   9.002   7.022
 4702POPC   C4A59550  25.552   9.239   7.444
 4702POPC   C1B59551  25.077   9.135   6.159
 4702POPC   C2B59552  25.197   9.170   6.593
 4702POPC   C3B59553  24.954   9.040   6.938
 4702POPC   C4B59554  24.733   9.332   7.182
 4703POPC   NC359555  31.804  15.104   5.193
 4703POPC   PO459556  32.313  15.439   5.557
 4703POPC   GL159557  32.567  15.172   5.787
 4703POPC   GL259558  32.435  14.849   5.707
 4703POPC   C1A59559  32.504  15.219   6.210
 4703POPC   D2A59560  32.135  15.323   6.404
 4703POPC   C3A59561  32.217  15.353   6.845
 4703POPC   C4A59562  32.029  15.400   7.260
 4703POPC   C1B59563  32.259  14.770   6.144
 4703POPC   C2B59564  32.165  14.864   6.587
 4703POPC   C3B59565  32.213  14.879   7.019
 4703POPC   C4B59566  32.097  14.549   7.224
 4704POPC   NC359567  23.248   9.886   5.248
 4704POPC   PO459568  23.902  10.003   5.317
 4704POPC   GL159569  23.923   9.844   5.761
 4704POPC   GL259570  24.176   9.591   5.910
 4704POPC   C1A59571  23.818   9.928   6.186
 4704POPC   D2A59572  23.681   9.742   6.541
 4704POPC   C3A59573  23.649   9.993   6.870
 4704POPC   C4A59574  23.500   9.908   7.253
 4704POPC   C1B59575  24.138   9.552   6.383
 4704POPC   C2B59576  24.142   9.728   6.803
 4704POPC   C3B59577  23.992   9.812   7.227
 4704POPC   C4B59578  24.083   9.674   7.669
 4705POPC   NC359579  12.441  24.304   5.378
 4705POPC   PO459580  12.968  24.650   5.342
 4705POPC   GL159581  12.902  24.410   5.734
 4705POPC   GL259582  12.675  24.102   5.782
 4705POPC   C1A59583  13.005  24.674   6.107
 4705POPC   D2A59584  13.029  24.937   6.464
 4705POPC   C3A59585  13.022  24.778   6.855
 4705POPC   C4A59586  12.753  24.657   7.169
 4705POPC   C1B59587  12.726  24.268   6.216
 4705POPC   C2B59588  12.963  24.255   6.606
 4705POPC   C3B59589  12.807  24.158   7.017
 4705POPC   C4B59590  12.920  24.222   7.431
 4706POPC   NC359591  27.533  28.216   5.163
 4706POPC   PO459592  27.940  28.708   5.149
 4706POPC   GL159593  27.749  28.554   5.600
 4706POPC   GL259594  27.633  28.167   5.670
 4706POPC   C1A59595  27.695  28.578   6.089
 4706POPC   D2A59596  27.900  28.603   6.519
 4706POPC   C3A59597  27.844  28.328   6.878
 4706POPC   C4A59598  27.652  28.211   7.251
 4706POPC   C1B59599  27.431  28.110   6.114
 4706POPC   C2B59600  27.429  28.267   6.565
 4706POPC   C3B59601  27.423  28.625   6.884
 4706POPC   C4B59602  27.521  28.744   7.335
 4707POPC   NC359603  29.795  16.415   5.554
 4707POPC   PO459604  29.890  17.139   5.437
 4707POPC   GL159605  29.887  16.916   5.809
 4707POPC   GL259606  29.638  16.751   5.918
 4707POPC   C1A59607  30.053  16.707   6.186
 4707POPC   D2A59608  30.154  16.492   6.539
 4707POPC   C3A59609  30.096  16.676   6.927
 4707POPC   C4A59610  30.439  16.631   7.205
 4707POPC   C1B59611  29.729  17.100   6.226
 4707POPC   C2B59612  29.908  17.026   6.583
 4707POPC   C3B59613  29.544  16.953   6.837
 4707POPC   C4B59614  29.556  16.900   7.250
 4708POPC   NC359615  42.757  10.677   5.263
 4708POPC   PO459616  42.168  10.481   5.320
 4708POPC   GL159617  42.259  10.344   5.748
 4708POPC   GL259618  42.606  10.212   5.705
 4708POPC   C1A59619  42.254  10.499   6.207
 4708POPC   D2A59620  42.074  10.450   6.635
 4708POPC   C3A59621  42.329  10.518   7.058
 4708POPC   C4A59622  42.188  10.864   7.352
 4708POPC   C1B59623  42.617  10.140   6.160
 4708POPC   C2B59624  42.604  10.271   6.632
 4708POPC   C3B59625  42.753  10.172   7.064
 4708POPC   C4B59626  42.649  10.205   7.496
 4709POPC   NC359627  34.204  33.769   5.479
 4709POPC   PO459628  34.842  33.967   5.494
 4709POPC   GL159629  34.686  33.893   5.883
 4709POPC   GL259630  34.308  33.861   5.961
 4709POPC   C1A59631  34.689  33.772   6.313
 4709POPC   D2A59632  34.550  33.763   6.733
 4709POPC   C3A59633  34.806  33.836   7.070
 4709POPC   C4A59634  34.880  33.421   7.235
 4709POPC   C1B59635  34.225  34.003   6.399
 4709POPC   C2B59636  34.094  33.971   6.822
 4709POPC   C3B59637  34.308  33.793   7.203
 4709POPC   C4B59638  34.327  33.979   7.616
 4710POPC   NC359639  32.313  41.887   5.593
 4710POPC   PO459640  32.038  41.373   5.217
 4710POPC   GL159641  32.051  41.458   5.686
 4710POPC   GL259642  32.398  41.407   5.747
 4710POPC   C1A59643  32.105  41.567   6.151
 4710POPC   D2A59644  32.358  41.665   6.527
 4710POPC   C3A59645  32.115  41.666   6.927
 4710POPC   C4A59646  32.322  41.573   7.303
 4710POPC   C1B59647  32.642  41.210   6.042
 4710POPC   C2B59648  32.662  41.211   6.492
 4710POPC   C3B59649  32.614  41.379   6.922
 4710POPC   C4B59650  32.638  41.163   7.374
 4711POPC   NC359651  22.504   0.736   5.149
 4711POPC   PO459652  22.551   0.248   5.582
 4711POPC   GL159653  22.876   0.350   5.860
 4711POPC   GL259654  22.997   0.639   5.795
 4711POPC   C1A59655  22.952   0.238   6.274
 4711POPC   D2A59656  22.848   0.396   6.708
 4711POPC   C3A59657  22.981   0.290   7.148
 4711POPC   C4A59658  22.882  44.935   7.425
 4711POPC   C1B59659  22.895   0.751   6.226
 4711POPC   C2B59660  22.952   0.897   6.635
 4711POPC   C3B59661  22.868   0.792   7.053
 4711POPC   C4B59662  23.048   0.718   7.461
 4712POPC   NC359663  43.624  17.396   5.588
 4712POPC   PO459664  44.206  17.755   5.514
 4712POPC   GL159665  43.968  17.690   5.839
 4712POPC   GL259666  43.654  17.863   5.821
 4712POPC   C1A59667  43.997  17.339   6.170
 4712POPC   D2A59668  44.045  17.129   6.607
 4712POPC   C3A59669  43.862  17.329   7.000
 4712POPC   C4A59670  44.087  17.465   7.392
 4712POPC   C1B59671  43.611  17.663   6.201
 4712POPC   C2B59672  43.422  17.635   6.557
 4712POPC   C3B59673  43.593  17.769   6.927
 4712POPC   C4B59674  43.612  17.652   7.341
 4713POPC   NC359675   8.733  42.222   5.098
 4713POPC   PO459676   9.338  42.044   5.338
 4713POPC   GL159677   9.051  42.211   5.686
 4713POPC   GL259678   9.082  42.578   5.750
 4713POPC   C1A59679   8.954  42.277   6.156
 4713POPC   D2A59680   8.740  42.112   6.519
 4713POPC   C3A59681   8.845  42.274   6.906
 4713POPC   C4A59682   8.651  42.409   7.256
 4713POPC   C1B59683   9.361  42.578   6.116
 4713POPC   C2B59684   9.424  42.676   6.564
 4713POPC   C3B59685   9.347  42.438   6.949
 4713POPC   C4B59686   9.209  42.418   7.384
 4714POPC   NC359687   5.679   4.372   5.520
 4714POPC   PO459688   6.325   4.319   5.652
 4714POPC   GL159689   6.024   4.338   5.993
 4714POPC   GL259690   5.681   4.522   6.004
 4714POPC   C1A59691   6.110   4.364   6.436
 4714POPC   D2A59692   6.318   4.487   6.838
 4714POPC   C3A59693   6.184   4.159   7.036
 4714POPC   C4A59694   5.826   4.066   7.179
 4714POPC   C1B59695   5.620   4.098   6.220
 4714POPC   C2B59696   5.759   4.036   6.653
 4714POPC   C3B59697   5.785   4.451   6.850
 4714POPC   C4B59698   5.536   4.719   7.124
 4715POPC   NC359699   5.879  18.678   5.494
 4715POPC   PO459700   5.612  19.341   5.358
 4715POPC   GL159701   5.771  19.148   5.713
 4715POPC   GL259702   5.919  19.466   5.816
 4715POPC   C1A59703   5.894  19.043   6.138
 4715POPC   D2A59704   6.101  19.152   6.559
 4715POPC   C3A59705   5.823  19.089   6.888
 4715POPC   C4A59706   5.764  18.969   7.290
 4715POPC   C1B59707   6.193  19.468   6.155
 4715POPC   C2B59708   6.363  19.616   6.553
 4715POPC   C3B59709   6.392  19.449   6.925
 4715POPC   C4B59710   6.054  19.438   7.182
 4716POPC   NC359711  25.679  37.544   5.443
 4716POPC   PO459712  26.267  37.942   5.365
 4716POPC   GL159713  26.028  37.821   5.741
 4716POPC   GL259714  26.139  37.516   5.908
 4716POPC   C1A59715  25.914  38.023   6.149
 4716POPC   D2A59716  25.755  37.953   6.582
 4716POPC   C3A59717  26.005  37.980   6.935
 4716POPC   C4A59718  26.019  37.773   7.356
 4716POPC   C1B59719  26.029  37.559   6.356
 4716POPC   C2B59720  25.936  37.499   6.804
 4716POPC   C3B59721  26.128  37.255   7.129
 4716POPC   C4B59722  26.369  37.394   7.457
 4717POPC   NC359723   7.313  24.696   5.248
 4717POPC   PO459724   7.867  24.304   5.195
 4717POPC   GL159725   7.726  24.274   5.692
 4717POPC   GL259726   7.399  24.484   5.764
 4717POPC   C1A59727   7.572  24.187   6.173
 4717POPC   D2A59728   7.370  24.089   6.607
 4717POPC   C3A59729   7.647  24.093   6.979
 4717POPC   C4A59730   7.814  24.330   7.348
 4717POPC   C1B59731   7.325  24.670   6.197
 4717POPC   C2B59732   7.508  24.587   6.629
 4717POPC   C3B59733   7.412  24.560   7.087
 4717POPC   C4B59734   7.416  24.610   7.563
 4718POPC   NC359735  11.920  43.484   5.419
 4718POPC   PO459736  12.281  42.918   5.426
 4718POPC   GL159737  12.048  42.968   5.834
 4718POPC   GL259738  11.937  43.372   5.918
 4718POPC   C1A59739  11.783  42.989   6.214
 4718POPC   D2A59740  11.987  42.939   6.583
 4718POPC   C3A59741  11.788  42.911   6.956
 4718POPC   C4A59742  12.151  42.948   7.171
 4718POPC   C1B59743  12.373  43.313   6.006
 4718POPC   C2B59744  12.381  43.269   6.430
 4718POPC   C3B59745  12.229  43.349   6.820
 4718POPC   C4B59746  12.415  43.398   7.195
 4719POPC   NC359747   0.376  26.945   5.384
 4719POPC   PO459748   0.924  26.493   5.650
 4719POPC   GL159749   0.586  26.679   5.767
 4719POPC   GL259750   0.724  27.002   5.799
 4719POPC   C1A59751   0.392  26.809   6.135
 4719POPC   D2A59752   0.223  26.942   6.513
 4719POPC   C3A59753   0.374  26.653   6.826
 4719POPC   C4A59754   0.437  26.756   7.267
 4719POPC   C1B59755   0.876  27.058   6.195
 4719POPC   C2B59756   0.761  26.837   6.535
 4719POPC   C3B59757   0.805  26.886   6.950
 4719POPC   C4B59758   0.947  27.074   7.281
 4720POPC   NC359759  30.787  41.072   5.622
 4720POPC   PO459760  30.448  40.531   5.418
 4720POPC   GL159761  30.587  40.649   5.838
 4720POPC   GL259762  30.391  40.942   5.949
 4720POPC   C1A59763  30.801  40.768   6.254
 4720POPC   D2A59764  31.027  40.665   6.660
 4720POPC   C3A59765  30.818  40.555   7.064
 4720POPC   C4A59766  30.963  40.450   7.494
 4720POPC   C1B59767  30.553  41.247   6.270
 4720POPC   C2B59768  30.681  41.075   6.694
 4720POPC   C3B59769  30.636  41.053   7.164
 4720POPC   C4B59770  30.407  41.118   7.566
 4721POPC   NC359771  29.426   3.664   5.614
 4721POPC   PO459772  29.772   3.171   5.554
 4721POPC   GL159773  29.760   3.404   5.891
 4721POPC   GL259774  29.644   3.140   6.067
 4721POPC   C1A59775  29.900   3.621   6.221
 4721POPC   D2A59776  30.244   3.610   6.489
 4721POPC   C3A59777  30.119   3.593   6.906
 4721POPC   C4A59778  30.293   3.743   7.264
 4721POPC   C1B59779  29.566   3.121   6.481
 4721POPC   C2B59780  29.684   3.499   6.661
 4721POPC   C3B59781  29.561   3.778   6.961
 4721POPC   C4B59782  29.404   3.615   7.281
 4722POPC   NC359783  43.968  34.129   5.484
 4722POPC   PO459784  44.073  33.467   5.464
 4722POPC   GL159785  43.801  33.551   5.808
 4722POPC   GL259786  43.811  33.915   5.908
 4722POPC   C1A59787  43.661  33.559   6.238
 4722POPC   D2A59788  43.662  33.892   6.553
 4722POPC   C3A59789  43.562  33.729   6.960
 4722POPC   C4A59790  43.881  33.559   7.251
 4722POPC   C1B59791  44.030  34.136   6.220
 4722POPC   C2B59792  44.066  34.275   6.650
 4722POPC   C3B59793  44.000  33.984   6.988
 4722POPC   C4B59794  44.158  33.954   7.427
 4723POPC   NC359795  24.673  31.206   5.530
 4723POPC   PO459796  24.022  31.364   5.589
 4723POPC   GL159797  24.334  31.509   5.889
 4723POPC   GL259798  24.702  31.629   5.853
 4723POPC   C1A59799  24.426  31.672   6.287
 4723POPC   D2A59800  24.763  31.719   6.571
 4723POPC   C3A59801  24.563  31.612   6.954
 4723POPC   C4A59802  24.352  31.391   7.276
 4723POPC   C1B59803  24.861  31.331   6.179
 4723POPC   C2B59804  25.058  31.243   6.595
 4723POPC   C3B59805  24.856  31.198   7.008
 4723POPC   C4B59806  24.871  31.492   7.337
 4724POPC   NC359807  22.251  20.425   5.308
 4724POPC   PO459808  21.789  20.873   5.267
 4724POPC   GL159809  21.937  20.775   5.717
 4724POPC   GL259810  22.135  20.456   5.840
 4724POPC   C1A59811  22.002  20.859   6.172
 4724POPC   D2A59812  22.241  21.033   6.527
 4724POPC   C3A59813  22.138  20.899   6.963
 4724POPC   C4A59814  22.364  20.613   7.188
 4724POPC   C1B59815  22.077  20.340   6.312
 4724POPC   C2B59816  22.238  20.215   6.766
 4724POPC   C3B59817  22.105  20.187   7.231
 4724POPC   C4B59818  21.868  20.124   7.650
 4725POPC   NC359819  13.785  38.678   5.004
 4725POPC   PO459820  13.350  38.248   5.307
 4725POPC   GL159821  13.554  38.560   5.651
 4725POPC   GL259822  13.854  38.435   5.881
 4725POPC   C1A59823  13.539  38.759   6.112
 4725POPC   D2A59824  13.763  38.884   6.530
 4725POPC   C3A59825  13.548  38.696   6.884
 4725POPC   C4A59826  13.700  38.399   7.193
 4725POPC   C1B59827  13.861  38.398   6.376
 4725POPC   C2B59828  13.536  38.219   6.688
 4725POPC   C3B59829  13.389  38.000   7.076
 4725POPC   C4B59830  13.439  38.058   7.546
 4726POPC   NC359831   0.542  31.035   5.296
 4726POPC   PO459832   0.206  30.472   5.260
 4726POPC   GL159833   0.364  30.727   5.649
 4726POPC   GL259834   0.378  30.484   5.875
 4726POPC   C1A59835   0.643  30.866   6.050
 4726POPC   D2A59836   0.551  30.799   6.481
 4726POPC   C3A59837   0.835  30.902   6.806
 4726POPC   C4A59838   0.626  30.869   7.196
 4726POPC   C1B59839   0.135  30.811   6.136
 4726POPC   C2B59840   0.031  30.932   6.583
 4726POPC   C3B59841   0.085  30.872   7.036
 4726POPC   C4B59842  44.831  31.021   7.387
 4727POPC   NC359843   2.439  28.456   5.395
 4727POPC   PO459844   3.152  28.592   5.570
 4727POPC   GL159845   3.038  28.299   5.867
 4727POPC   GL259846   2.700  28.392   5.847
 4727POPC   C1A59847   2.944  28.315   6.314
 4727POPC   D2A59848   2.687  28.382   6.682
 4727POPC   C3A59849   2.769  28.103   7.028
 4727POPC   C4A59850   3.073  28.087   7.318
 4727POPC   C1B59851   2.502  28.582   6.228
 4727POPC   C2B59852   2.293  28.749   6.555
 4727POPC   C3B59853   2.442  28.727   6.960
 4727POPC   C4B59854   2.786  28.589   7.181
 4728POPC   NC359855   8.642   3.528   5.469
 4728POPC   PO459856   9.363   3.701   5.489
 4728POPC   GL159857   9.149   3.571   5.844
 4728POPC   GL259858   9.011   3.232   5.902
 4728POPC   C1A59859   9.041   3.643   6.280
 4728POPC   D2A59860   8.871   3.432   6.655
 4728POPC   C3A59861   8.829   3.592   7.092
 4728POPC   C4A59862   8.949   3.814   7.511
 4728POPC   C1B59863   9.350   3.087   6.198
 4728POPC   C2B59864   9.400   2.943   6.635
 4728POPC   C3B59865   9.198   3.186   6.952
 4728POPC   C4B59866   9.221   3.393   7.323
 4729POPC   NC359867  34.825  19.200   5.465
 4729POPC   PO459868  34.267  19.542   5.479
 4729POPC   GL159869  34.482  19.213   5.829
 4729POPC   GL259870  34.815  19.332   5.960
 4729POPC   C1A59871  34.663  18.925   6.219
 4729POPC   D2A59872  34.880  19.091   6.615
 4729POPC   C3A59873  34.785  18.993   7.057
 4729POPC   C4A59874  34.439  18.773   7.187
 4729POPC   C1B59875  34.510  19.400   6.308
 4729POPC   C2B59876  34.562  19.536   6.703
 4729POPC   C3B59877  34.510  19.441   7.118
 4729POPC   C4B59878  34.729  19.415   7.508
 4730POPC   NC359879  42.270  17.388   4.910
 4730POPC   PO459880  42.575  17.152   5.505
 4730POPC   GL159881  42.624  17.343   5.879
 4730POPC   GL259882  42.335  17.579   5.823
 4730POPC   C1A59883  42.373  17.279   6.235
 4730POPC   D2A59884  42.197  17.221   6.619
 4730POPC   C3A59885  42.481  17.336   6.934
 4730POPC   C4A59886  42.297  17.459   7.290
 4730POPC   C1B59887  42.542  17.770   6.194
 4730POPC   C2B59888  42.465  17.764   6.660
 4730POPC   C3B59889  42.611  17.835   7.122
 4730POPC   C4B59890  42.572  17.783   7.594
 4731POPC   NC359891  37.274  30.895   5.527
 4731POPC   PO459892  36.663  30.446   5.395
 4731POPC   GL159893  36.919  30.516   5.769
 4731POPC   GL259894  36.701  30.236   5.857
 4731POPC   C1A59895  37.048  30.689   6.199
 4731POPC   D2A59896  36.999  31.033   6.507
 4731POPC   C3A59897  36.915  30.932   6.928
 4731POPC   C4A59898  37.135  30.804   7.329
 4731POPC   C1B59899  36.910  30.202   6.217
 4731POPC   C2B59900  36.785  30.431   6.575
 4731POPC   C3B59901  36.879  30.442   6.995
 4731POPC   C4B59902  36.620  30.692   7.277
 4732POPC   NC359903  24.973  40.872   5.355
 4732POPC   PO459904  25.473  40.398   5.365
 4732POPC   GL159905  25.306  40.659   5.706
 4732POPC   GL259906  24.940  40.584   5.784
 4732POPC   C1A59907  25.352  40.762   6.156
 4732POPC   D2A59908  25.570  40.649   6.541
 4732POPC   C3A59909  25.429  40.826   6.940
 4732POPC   C4A59910  25.512  40.563   7.260
 4732POPC   C1B59911  24.847  40.713   6.232
 4732POPC   C2B59912  25.008  40.811   6.667
 4732POPC   C3B59913  24.950  40.837   7.156
 4732POPC   C4B59914  24.790  40.925   7.596
 4733POPC   NC359915  39.966  33.215   5.582
 4733POPC   PO459916  39.819  32.546   5.467
 4733POPC   GL159917  39.921  32.817   5.895
 4733POPC   GL259918  40.253  33.035   5.948
 4733POPC   C1A59919  39.899  33.179   6.269
 4733POPC   D2A59920  40.297  33.276   6.509
 4733POPC   C3A59921  40.291  33.169   6.941
 4733POPC   C4A59922  39.921  33.041   7.088
 4733POPC   C1B59923  40.208  32.789   6.336
 4733POPC   C2B59924  40.134  32.687   6.764
 4733POPC   C3B59925  40.382  32.707   7.156
 4733POPC   C4B59926  40.300  32.988   7.474
 4734POPC   NC359927   3.025  43.228   5.125
 4734POPC   PO459928   2.639  43.266   5.676
 4734POPC   GL159929   2.761  43.096   6.018
 4734POPC   GL259930   2.835  42.799   5.824
 4734POPC   C1A59931   2.698  43.314   6.372
 4734POPC   D2A59932   2.742  43.562   6.697
 4734POPC   C3A59933   3.041  43.371   6.904
 4734POPC   C4A59934   2.838  43.175   7.257
 4734POPC   C1B59935   2.536  42.671   6.139
 4734POPC   C2B59936   2.467  42.878   6.521
 4734POPC   C3B59937   2.608  42.819   6.935
 4734POPC   C4B59938   2.401  42.909   7.296
 4735POPC   NC359939  27.815  24.008   5.531
 4735POPC   PO459940  27.399  23.539   5.424
 4735POPC   GL159941  27.502  23.677   5.843
 4735POPC   GL259942  27.843  23.577   5.843
 4735POPC   C1A59943  27.344  23.715   6.291
 4735POPC   D2A59944  27.200  23.857   6.725
 4735POPC   C3A59945  27.299  23.589   7.104
 4735POPC   C4A59946  27.340  23.601   7.580
 4735POPC   C1B59947  27.855  23.876   6.200
 4735POPC   C2B59948  28.073  23.905   6.610
 4735POPC   C3B59949  27.862  23.978   6.978
 4735POPC   C4B59950  27.735  23.757   7.321
 4736POPC   NC359951  13.227  11.359   5.443
 4736POPC   PO459952  12.557  11.349   5.319
 4736POPC   GL159953  12.757  11.177   5.687
 4736POPC   GL259954  12.527  10.924   5.773
 4736POPC   C1A59955  12.970  11.260   6.097
 4736POPC   D2A59956  13.058  11.547   6.452
 4736POPC   C3A59957  12.994  11.347   6.846
 4736POPC   C4A59958  12.904  11.354   7.272
 4736POPC   C1B59959  12.429  11.260   6.091
 4736POPC   C2B59960  12.369  11.345   6.540
 4736POPC   C3B59961  12.510  11.191   6.966
 4736POPC   C4B59962  12.774  10.865   7.170
 4737POPC   NC359963  40.891  16.359   5.554
 4737POPC   PO459964  41.023  16.912   5.374
 4737POPC   GL159965  40.875  16.859   5.801
 4737POPC   GL259966  40.554  16.786   5.672
 4737POPC   C1A59967  40.857  16.750   6.274
 4737POPC   D2A59968  40.802  16.862   6.753
 4737POPC   C3A59969  40.839  16.600   7.166
 4737POPC   C4A59970  40.758  16.422   7.615
 4737POPC   C1B59971  40.447  16.544   6.048
 4737POPC   C2B59972  40.427  16.584   6.495
 4737POPC   C3B59973  40.376  16.573   6.938
 4737POPC   C4B59974  40.284  16.434   7.354
 4738POPC   NC359975  15.713   9.177   5.551
 4738POPC   PO459976  16.260   9.141   5.123
 4738POPC   GL159977  16.112   8.889   5.608
 4738POPC   GL259978  15.998   9.171   5.958
 4738POPC   C1A59979  15.888   8.715   6.034
 4738POPC   D2A59980  15.906   8.983   6.465
 4738POPC   C3A59981  16.041   8.817   6.901
 4738POPC   C4A59982  16.048   8.862   7.382
 4738POPC   C1B59983  15.657   9.389   6.233
 4738POPC   C2B59984  15.612   9.437   6.705
 4738POPC   C3B59985  15.777   9.242   7.103
 4738POPC   C4B59986  15.733   9.230   7.572
 4739POPC   NC359987  16.866  10.588   5.010
 4739POPC   PO459988  16.497  10.098   5.290
 4739POPC   GL159989  16.610  10.305   5.703
 4739POPC   GL259990  16.495  10.649   5.807
 4739POPC   C1A59991  16.849  10.241   6.101
 4739POPC   D2A59992  17.093  10.304   6.478
 4739POPC   C3A59993  16.915  10.292   6.849
 4739POPC   C4A59994  16.959  10.332   7.269
 4739POPC   C1B59995  16.740  10.739   6.197
 4739POPC   C2B59996  16.710  10.700   6.650
 4739POPC   C3B59997  16.624  10.680   7.085
 4739POPC   C4B59998  16.511  10.421   7.482
 4740POPC   NC359999  43.705   9.345   5.400
 4740POPC   PO460000  44.035  10.059   5.445
 4740POPC   GL160001  43.890   9.891   5.822
 4740POPC   GL260002  43.993   9.568   5.789
 4740POPC   C1A60003  44.004   9.748   6.265
 4740POPC   D2A60004  44.300   9.754   6.613
 4740POPC   C3A60005  44.155   9.977   6.978
 4740POPC   C4A60006  43.799  10.034   7.238
 4740POPC   C1B60007  43.586   9.514   6.055
 4740POPC   C2B60008  43.616   9.400   6.512
 4740POPC   C3B60009  43.517   9.363   6.942
 4740POPC   C4B60010  43.826   9.531   7.185
 4741POPC   NC360011  34.229   5.365   5.154
 4741POPC   PO460012  33.908   4.828   5.462
 4741POPC   GL160013  33.800   4.850   5.867
 4741POPC   GL260014  33.691   5.201   5.899
 4741POPC   C1A60015  33.949   4.940   6.286
 4741POPC   D2A60016  33.756   4.938   6.690
 4741POPC   C3A60017  33.852   5.039   7.101
 4741POPC   C4A60018  33.498   4.948   7.379
 4741POPC   C1B60019  33.807   5.431   6.283
 4741POPC   C2B60020  33.868   5.466   6.734
 4741POPC   C3B60021  33.882   5.589   7.152
 4741POPC   C4B60022  33.846   5.320   7.540
 4742POPC   NC360023  13.366  34.809   5.089
 4742POPC   PO460024  13.557  34.195   5.289
 4742POPC   GL160025  13.666  34.244   5.761
 4742POPC   GL260026  13.657  34.615   5.789
 4742POPC   C1A60027  13.417  34.320   6.191
 4742POPC   D2A60028  13.404  34.216   6.639
 4742POPC   C3A60029  13.460  34.518   6.978
 4742POPC   C4A60030  13.772  34.546   7.290
 4742POPC   C1B60031  13.885  34.528   6.152
 4742POPC   C2B60032  13.699  34.685   6.531
 4742POPC   C3B60033  13.869  35.034   6.766
 4742POPC   C4B60034  13.844  35.040   7.227
 4743POPC   NC360035  11.852   7.470   5.450
 4743POPC   PO460036  11.647   6.910   5.553
 4743POPC   GL160037  11.794   7.188   5.867
 4743POPC   GL260038  12.093   7.428   5.893
 4743POPC   C1A60039  11.743   7.292   6.271
 4743POPC   D2A60040  11.954   7.161   6.621
 4743POPC   C3A60041  11.715   7.177   6.960
 4743POPC   C4A60042  11.978   7.145   7.287
 4743POPC   C1B60043  12.332   7.308   6.284
 4743POPC   C2B60044  12.478   7.264   6.765
 4743POPC   C3B60045  12.454   7.401   7.244
 4743POPC   C4B60046  12.535   7.737   7.573
 4744POPC   NC360047  25.702  22.447   5.501
 4744POPC   PO460048  26.050  21.835   5.323
 4744POPC   GL160049  25.847  21.908   5.715
 4744POPC   GL260050  26.152  22.019   5.890
 4744POPC   C1A60051  25.693  22.075   6.124
 4744POPC   D2A60052  25.785  22.332   6.524
 4744POPC   C3A60053  25.948  22.101   6.888
 4744POPC   C4A60054  25.901  22.144   7.329
 4744POPC   C1B60055  26.136  21.991   6.358
 4744POPC   C2B60056  26.360  22.272   6.643
 4744POPC   C3B60057  26.387  22.375   7.088
 4744POPC   C4B60058  26.358  22.277   7.534
 4745POPC   NC360059  39.050   2.342   5.449
 4745POPC   PO460060  39.458   1.843   5.433
 4745POPC   GL160061  39.395   2.007   5.835
 4745POPC   GL260062  39.031   2.068   5.894
 4745POPC   C1A60063  39.364   1.820   6.253
 4745POPC   D2A60064  39.083   1.697   6.609
 4745POPC   C3A60065  39.102   2.015   6.917
 4745POPC   C4A60066  39.408   2.003   7.230
 4745POPC   C1B60067  39.086   2.275   6.297
 4745POPC   C2B60068  38.978   2.489   6.701
 4745POPC   C3B60069  38.775   2.369   7.103
 4745POPC   C4B60070  38.974   2.170   7.442
 4746POPC   NC360071   0.912   6.553   5.469
 4746POPC   PO460072   1.485   6.859   5.457
 4746POPC   GL160073   1.232   6.726   5.831
 4746POPC   GL260074   0.907   6.885   5.901
 4746POPC   C1A60075   1.268   6.912   6.267
 4746POPC   D2A60076   1.278   7.058   6.690
 4746POPC   C3A60077   1.264   6.705   6.950
 4746POPC   C4A60078   1.124   6.611   7.353
 4746POPC   C1B60079   0.932   6.499   6.197
 4746POPC   C2B60080   1.085   6.330   6.615
 4746POPC   C3B60081   0.863   6.366   7.011
 4746POPC   C4B60082   0.616   6.471   7.377
 4747POPC   NC360083  26.394  13.848   5.401
 4747POPC   PO460084  26.023  14.271   5.764
 4747POPC   GL160085  25.979  14.668   5.995
 4747POPC   GL260086  26.292  14.859   5.883
 4747POPC   C1A60087  25.634  14.579   6.234
 4747POPC   D2A60088  25.627  14.225   6.494
 4747POPC   C3A60089  25.817  14.296   6.888
 4747POPC   C4A60090  25.736  14.067   7.249
 4747POPC   C1B60091  26.439  14.582   6.223
 4747POPC   C2B60092  26.284  14.481   6.612
 4747POPC   C3B60093  26.259  14.699   6.988
 4747POPC   C4B60094  26.163  14.387   7.280
 4748POPC   NC360095  42.269   6.041   5.483
 4748POPC   PO460096  42.513   5.368   5.464
 4748POPC   GL160097  42.546   5.706   5.756
 4748POPC   GL260098  42.189   5.734   5.887
 4748POPC   C1A60099  42.545   5.998   6.119
 4748POPC   D2A60100  42.320   5.934   6.495
 4748POPC   C3A60101  42.523   5.950   6.893
 4748POPC   C4A60102  42.270   6.016   7.243
 4748POPC   C1B60103  41.952   5.464   6.167
 4748POPC   C2B60104  42.060   5.429   6.581
 4748POPC   C3B60105  42.054   5.710   6.892
 4748POPC   C4B60106  41.767   5.923   7.141
 4749POPC   NC360107  10.062  20.056   5.414
 4749POPC   PO460108   9.488  19.571   5.400
 4749POPC   GL160109   9.747  19.757   5.764
 4749POPC   GL260110  10.094  19.658   5.719
 4749POPC   C1A60111   9.647  19.847   6.236
 4749POPC   D2A60112   9.590  20.142   6.601
 4749POPC   C3A60113   9.497  20.055   7.036
 4749POPC   C4A60114   9.602  19.777   7.381
 4749POPC   C1B60115  10.143  19.868   6.092
 4749POPC   C2B60116  10.169  19.894   6.532
 4749POPC   C3B60117  10.133  20.148   6.889
 4749POPC   C4B60118   9.959  20.126   7.295
 4750POPC   NC360119  16.365  24.917   5.290
 4750POPC   PO460120  17.014  25.187   5.428
 4750POPC   GL160121  16.771  25.219   5.819
 4750POPC   GL260122  16.578  25.505   5.820
 4750POPC   C1A60123  16.565  25.296   6.270
 4750POPC   D2A60124  16.522  25.476   6.728
 4750POPC   C3A60125  16.738  25.281   7.098
 4750POPC   C4A60126  16.809  25.235   7.554
 4750POPC   C1B60127  16.925  25.675   6.128
 4750POPC   C2B60128  16.993  25.884   6.525
 4750POPC   C3B60129  16.910  25.770   6.951
 4750POPC   C4B60130  17.112  25.580   7.307
 4751POPC   NC360131  35.798  25.354   5.262
 4751POPC   PO460132  36.378  25.413   5.083
 4751POPC   GL160133  36.200  25.482   5.558
 4751POPC   GL260134  36.391  25.633   5.851
 4751POPC   C1A60135  36.012  25.350   6.009
 4751POPC   D2A60136  36.078  25.495   6.480
 4751POPC   C3A60137  35.991  25.384   6.908
 4751POPC   C4A60138  35.887  25.154   7.266
 4751POPC   C1B60139  36.523  25.385   6.250
 4751POPC   C2B60140  36.454  25.208   6.695
 4751POPC   C3B60141  36.434  25.189   7.151
 4751POPC   C4B60142  36.644  25.367   7.527
 4752POPC   NC360143  33.343  29.728   5.567
 4752POPC   PO460144  34.027  29.867   5.319
 4752POPC   GL160145  33.799  29.980   5.697
 4752POPC   GL260146  33.788  29.633   5.804
 4752POPC   C1A60147  33.637  29.984   6.137
 4752POPC   D2A60148  33.467  30.099   6.513
 4752POPC   C3A60149  33.683  30.037   6.885
 4752POPC   C4A60150  33.793  29.979   7.281
 4752POPC   C1B60151  33.529  29.479   6.185
 4752POPC   C2B60152  33.636  29.612   6.597
 4752POPC   C3B60153  33.586  29.548   7.035
 4752POPC   C4B60154  33.897  29.502   7.325
 4753POPC   NC360155  31.165  14.517   5.181
 4753POPC   PO460156  30.504  14.310   5.375
 4753POPC   GL160157  30.607  14.246   5.834
 4753POPC   GL260158  30.625  14.590   5.964
 4753POPC   C1A60159  30.921  14.143   6.193
 4753POPC   D2A60160  30.894  14.126   6.661
 4753POPC   C3A60161  30.963  14.411   6.990
 4753POPC   C4A60162  30.741  14.211   7.306
 4753POPC   C1B60163  30.743  14.579   6.383
 4753POPC   C2B60164  30.539  14.554   6.740
 4753POPC   C3B60165  30.367  14.520   7.119
 4753POPC   C4B60166  30.309  14.418   7.526
 4754POPC   NC360167  34.618  34.960   5.365
 4754POPC   PO460168  34.847  35.590   5.271
 4754POPC   GL160169  34.686  35.429   5.684
 4754POPC   GL260170  34.809  35.137   5.884
 4754POPC   C1A60171  34.473  35.457   6.110
 4754POPC   D2A60172  34.628  35.291   6.510
 4754POPC   C3A60173  34.546  35.513   6.868
 4754POPC   C4A60174  34.466  35.513   7.240
 4754POPC   C1B60175  34.452  34.940   6.175
 4754POPC   C2B60176  34.240  34.939   6.619
 4754POPC   C3B60177  34.332  34.968   7.071
 4754POPC   C4B60178  34.341  35.117   7.516
 4755POPC   NC360179  17.164  38.087   5.634
 4755POPC   PO460180  17.358  38.718   5.400
 4755POPC   GL160181  17.401  38.534   5.828
 4755POPC   GL260182  17.341  38.243   6.058
 4755POPC   C1A60183  17.491  38.679   6.256
 4755POPC   D2A60184  17.508  38.681   6.688
 4755POPC   C3A60185  17.679  38.379   6.887
 4755POPC   C4A60186  17.472  38.411   7.274
 4755POPC   C1B60187  17.632  38.175   6.365
 4755POPC   C2B60188  17.446  37.984   6.684
 4755POPC   C3B60189  17.156  38.077   6.972
 4755POPC   C4B60190  16.998  38.228   7.338
 4756POPC   NC360191  35.834  42.650   5.607
 4756POPC   PO460192  36.277  42.198   5.385
 4756POPC   GL160193  36.114  42.240   5.770
 4756POPC   GL260194  36.305  42.550   5.809
 4756POPC   C1A60195  35.909  42.269   6.212
 4756POPC   D2A60196  35.784  42.454   6.612
 4756POPC   C3A60197  35.919  42.329   7.035
 4756POPC   C4A60198  35.894  42.410   7.487
 4756POPC   C1B60199  36.399  42.329   6.176
 4756POPC   C2B60200  36.339  42.091   6.525
 4756POPC   C3B60201  36.416  42.192   6.926
 4756POPC   C4B60202  36.370  42.409   7.278
 4757POPC   NC360203  31.175  42.989   5.052
 4757POPC   PO460204  31.602  43.220   5.499
 4757POPC   GL160205  31.626  42.986   5.865
 4757POPC   GL260206  31.318  42.801   6.011
 4757POPC   C1A60207  31.552  43.178   6.269
 4757POPC   D2A60208  31.475  43.027   6.663
 4757POPC   C3A60209  31.571  43.276   6.990
 4757POPC   C4A60210  31.951  43.316   7.145
 4757POPC   C1B60211  30.990  42.681   6.283
 4757POPC   C2B60212  30.978  42.910   6.666
 4757POPC   C3B60213  31.177  42.961   7.076
 4757POPC   C4B60214  31.492  42.935   7.404
 4758POPC   NC360215  38.051  10.711   5.129
 4758POPC   PO460216  37.422  10.862   5.452
 4758POPC   GL160217  37.461  10.570   5.833
 4758POPC   GL260218  37.752  10.329   5.818
 4758POPC   C1A60219  37.695  10.582   6.262
 4758POPC   D2A60220  37.662  10.373   6.672
 4758POPC   C3A60221  37.562  10.673   7.026
 4758POPC   C4A60222  37.695  10.952   7.462
 4758POPC   C1B60223  37.977  10.154   6.193
 4758POPC   C2B60224  38.010   9.969   6.616
 4758POPC   C3B60225  37.927  10.125   7.054
 4758POPC   C4B60226  38.121  10.224   7.466
 4759POPC   NC360227  22.703  28.669   5.458
 4759POPC   PO460228  23.237  28.291   5.525
 4759POPC   GL160229  22.914  28.325   5.815
 4759POPC   GL260230  22.635  28.132   5.986
 4759POPC   C1A60231  22.983  28.463   6.207
 4759POPC   D2A60232  22.755  28.338   6.536
 4759POPC   C3A60233  22.962  28.548   6.874
 4759POPC   C4A60234  23.075  28.402   7.260
 4759POPC   C1B60235  22.502  28.571   6.115
 4759POPC   C2B60236  22.638  28.820   6.473
 4759POPC   C3B60237  22.658  28.941   6.930
 4759POPC   C4B60238  22.627  28.634   7.285
 4760POPC   NC360239  26.158  24.665   4.869
 4760POPC   PO460240  25.956  24.272   5.386
 4760POPC   GL160241  25.993  24.322   5.804
 4760POPC   GL260242  26.250  24.144   5.868
 4760POPC   C1A60243  26.111  24.553   6.174
 4760POPC   D2A60244  26.308  24.463   6.567
 4760POPC   C3A60245  26.353  24.704   6.946
 4760POPC   C4A60246  26.113  24.648   7.312
 4760POPC   C1B60247  26.429  24.088   6.228
 4760POPC   C2B60248  26.185  23.967   6.582
 4760POPC   C3B60249  26.207  24.177   6.983
 4760POPC   C4B60250  26.307  24.055   7.386
 4761POPC   NC360251  12.537  18.164   5.659
 4761POPC   PO460252  12.154  18.596   5.406
 4761POPC   GL160253  11.990  18.345   5.780
 4761POPC   GL260254  12.085  17.989   5.830
 4761POPC   C1A60255  12.070  18.314   6.244
 4761POPC   D2A60256  12.231  18.529   6.634
 4761POPC   C3A60257  11.979  18.412   6.953
 4761POPC   C4A60258  12.004  18.307   7.358
 4761POPC   C1B60259  12.323  17.854   6.231
 4761POPC   C2B60260  12.268  18.013   6.650
 4761POPC   C3B60261  12.042  17.901   7.017
 4761POPC   C4B60262  11.850  17.827   7.440
 4762POPC   NC360263  29.656   1.931   5.605
 4762POPC   PO460264  30.127   2.265   5.338
 4762POPC   GL160265  30.103   2.180   5.786
 4762POPC   GL260266  30.192   1.830   5.840
 4762POPC   C1A60267  29.879   2.091   6.209
 4762POPC   D2A60268  29.639   2.160   6.593
 4762POPC   C3A60269  29.844   2.049   6.988
 4762POPC   C4A60270  29.707   2.326   7.341
 4762POPC   C1B60271  30.236   1.725   6.287
 4762POPC   C2B60272  30.288   1.797   6.731
 4762POPC   C3B60273  30.227   1.717   7.166
 4762POPC   C4B60274  30.092   1.527   7.532
 4763POPC   NC360275  37.038  24.143   5.575
 4763POPC   PO460276  36.729  24.674   5.312
 4763POPC   GL160277  36.775  24.798   5.733
 4763POPC   GL260278  37.067  24.639   5.798
 4763POPC   C1A60279  36.685  24.539   6.142
 4763POPC   D2A60280  36.855  24.337   6.529
 4763POPC   C3A60281  36.716  24.465   6.914
 4763POPC   C4A60282  36.423  24.672   7.178
 4763POPC   C1B60283  37.215  24.500   6.197
 4763POPC   C2B60284  37.279  24.079   6.386
 4763POPC   C3B60285  37.108  23.892   6.770
 4763POPC   C4B60286  37.133  24.134   7.148
 4764POPC   NC360287  22.946  16.558   5.405
 4764POPC   PO460288  22.220  16.603   5.360
 4764POPC   GL160289  22.613  16.653   5.787
 4764POPC   GL260290  22.911  16.785   5.872
 4764POPC   C1A60291  22.707  16.511   6.248
 4764POPC   D2A60292  22.986  16.390   6.600
 4764POPC   C3A60293  22.934  16.555   7.032
 4764POPC   C4A60294  23.223  16.677   7.351
 4764POPC   C1B60295  22.583  16.993   6.162
 4764POPC   C2B60296  22.421  16.920   6.557
 4764POPC   C3B60297  22.563  17.098   6.912
 4764POPC   C4B60298  22.844  17.037   7.239
 4765POPC   NC360299   6.843  22.478   5.425
 4765POPC   PO460300   6.831  23.185   5.529
 4765POPC   GL160301   6.672  23.044   5.916
 4765POPC   GL260302   6.794  22.706   5.915
 4765POPC   C1A60303   6.490  22.952   6.302
 4765POPC   D2A60304   6.734  22.939   6.666
 4765POPC   C3A60305   6.492  22.931   7.045
 4765POPC   C4A60306   6.530  23.161   7.422
 4765POPC   C1B60307   6.637  22.464   6.303
 4765POPC   C2B60308   6.401  22.555   6.693
 4765POPC   C3B60309   6.414  22.415   7.124
 4765POPC   C4B60310   6.519  22.656   7.481
 4766POPC   NC360311  23.362  43.912   5.529
 4766POPC   PO460312  23.976  44.073   5.397
 4766POPC   GL160313  23.842  43.793   5.750
 4766POPC   GL260314  24.072  43.498   5.852
 4766POPC   C1A60315  23.610  43.763   6.137
 4766POPC   D2A60316  23.702  43.855   6.516
 4766POPC   C3A60317  23.567  43.722   6.875
 4766POPC   C4A60318  23.655  44.128   7.041
 4766POPC   C1B60319  24.127  43.648   6.261
 4766POPC   C2B60320  24.083  43.558   6.704
 4766POPC   C3B60321  24.085  43.480   7.124
 4766POPC   C4B60322  23.724  43.642   7.348
 4767POPC   NC360323   6.180   7.737   5.547
 4767POPC   PO460324   5.634   7.451   5.279
 4767POPC   GL160325   5.803   7.376   5.708
 4767POPC   GL260326   6.100   7.303   5.917
 4767POPC   C1A60327   5.661   7.307   6.146
 4767POPC   D2A60328   5.853   7.231   6.532
 4767POPC   C3A60329   5.602   7.305   6.912
 4767POPC   C4A60330   5.734   7.567   7.286
 4767POPC   C1B60331   6.130   7.623   6.200
 4767POPC   C2B60332   5.902   7.748   6.523
 4767POPC   C3B60333   6.031   7.598   6.880
 4767POPC   C4B60334   6.160   7.813   7.188
 4768POPC   NC360335  27.269  41.344   5.512
 4768POPC   PO460336  27.856  41.634   5.619
 4768POPC   GL160337  27.572  41.478   5.887
 4768POPC   GL260338  27.708  41.173   5.807
 4768POPC   C1A60339  27.574  41.548   6.277
 4768POPC   D2A60340  27.833  41.806   6.523
 4768POPC   C3A60341  27.795  41.780   6.956
 4768POPC   C4A60342  27.491  41.528   7.137
 4768POPC   C1B60343  27.908  41.152   6.218
 4768POPC   C2B60344  27.858  41.320   6.655
 4768POPC   C3B60345  27.896  41.236   7.073
 4768POPC   C4B60346  28.042  41.030   7.424
 4769POPC   NC360347  40.393  15.110   5.459
 4769POPC   PO460348  39.928  14.750   5.395
 4769POPC   GL160349  39.992  15.061   5.754
 4769POPC   GL260350  39.769  15.318   5.798
 4769POPC   C1A60351  40.127  15.201   6.171
 4769POPC   D2A60352  39.979  15.315   6.582
 4769POPC   C3A60353  39.979  15.054   6.955
 4769POPC   C4A60354  40.237  15.095   7.312
 4769POPC   C1B60355  39.633  15.413   6.219
 4769POPC   C2B60356  39.505  15.566   6.634
 4769POPC   C3B60357  39.591  15.388   7.042
 4769POPC   C4B60358  39.887  15.458   7.341
 4770POPC   NC360359   6.435  33.446   5.191
 4770POPC   PO460360   6.924  33.047   5.523
 4770POPC   GL160361   6.730  32.914   5.894
 4770POPC   GL260362   6.475  32.620   5.828
 4770POPC   C1A60363   6.779  33.125   6.305
 4770POPC   D2A60364   7.003  33.212   6.696
 4770POPC   C3A60365   6.728  33.354   7.007
 4770POPC   C4A60366   6.565  33.291   7.429
 4770POPC   C1B60367   6.628  32.549   6.243
 4770POPC   C2B60368   6.815  32.704   6.620
 4770POPC   C3B60369   6.709  32.845   7.022
 4770POPC   C4B60370   6.704  32.629   7.393
 4771POPC   NC360371  11.813  44.287   5.548
 4771POPC   PO460372  12.234  43.881   5.263
 4771POPC   GL160373  12.164  43.824   5.741
 4771POPC   GL260374  12.170  44.142   5.891
 4771POPC   C1A60375  12.200  43.735   6.222
 4771POPC   D2A60376  12.364  43.831   6.635
 4771POPC   C3A60377  12.133  43.796   7.060
 4771POPC   C4A60378  12.213  43.809   7.511
 4771POPC   C1B60379  12.042  44.209   6.308
 4771POPC   C2B60380  11.882  44.006   6.658
 4771POPC   C3B60381  11.924  44.254   7.025
 4771POPC   C4B60382  11.765  44.165   7.418
 4772POPC   NC360383  36.187   4.693   5.592
 4772POPC   PO460384  35.921   4.133   5.458
 4772POPC   GL160385  36.028   4.256   5.846
 4772POPC   GL260386  36.332   4.133   5.816
 4772POPC   C1A60387  36.092   4.352   6.268
 4772POPC   D2A60388  35.775   4.339   6.563
 4772POPC   C3A60389  35.850   4.418   6.959
 4772POPC   C4A60390  35.934   4.105   7.221
 4772POPC   C1B60391  36.561   4.048   6.175
 4772POPC   C2B60392  36.601   4.012   6.611
 4772POPC   C3B60393  36.309   4.176   6.879
 4772POPC   C4B60394  36.311   4.491   7.178
 4773POPC   NC360395  37.808  44.413   5.488
 4773POPC   PO460396  37.318  44.855   5.336
 4773POPC   GL160397  37.417  44.666   5.743
 4773POPC   GL260398  37.740  44.809   5.857
 4773POPC   C1A60399  37.456  44.553   6.208
 4773POPC   D2A60400  37.510  44.866   6.581
 4773POPC   C3A60401  37.566  44.714   7.002
 4773POPC   C4A60402  37.652  44.724   7.482
 4773POPC   C1B60403  37.921  44.783   6.285
 4773POPC   C2B60404  38.077  44.769   6.753
 4773POPC   C3B60405  37.995  44.497   7.140
 4773POPC   C4B60406  38.027  44.439   7.639
 4774POPC   NC360407   4.064  10.807   5.489
 4774POPC   PO460408   4.631  10.400   5.298
 4774POPC   GL160409   4.494  10.413   5.736
 4774POPC   GL260410   4.147  10.465   5.860
 4774POPC   C1A60411   4.592  10.572   6.150
 4774POPC   D2A60412   4.415  10.507   6.552
 4774POPC   C3A60413   4.632  10.589   6.945
 4774POPC   C4A60414   4.608  10.321   7.324
 4774POPC   C1B60415   4.069  10.745   6.234
 4774POPC   C2B60416   3.951  10.652   6.687
 4774POPC   C3B60417   4.094  10.626   7.138
 4774POPC   C4B60418   4.000  10.861   7.529
 4775POPC   NC360419  34.984  13.428   5.103
 4775POPC   PO460420  35.509  13.802   5.127
 4775POPC   GL160421  35.366  13.602   5.517
 4775POPC   GL260422  35.639  13.704   5.690
 4775POPC   C1A60423  35.269  13.497   5.992
 4775POPC   D2A60424  35.225  13.358   6.449
 4775POPC   C3A60425  35.177  13.672   6.795
 4775POPC   C4A60426  35.366  13.696   7.201
 4775POPC   C1B60427  35.759  13.689   6.090
 4775POPC   C2B60428  35.583  13.719   6.469
 4775POPC   C3B60429  35.718  13.613   6.856
 4775POPC   C4B60430  35.861  13.845   7.214
 4776POPC   NC360431  19.582  36.806   5.493
 4776POPC   PO460432  20.176  37.071   5.280
 4776POPC   GL160433  19.996  37.105   5.699
 4776POPC   GL260434  19.933  36.800   5.863
 4776POPC   C1A60435  19.974  37.225   6.142
 4776POPC   D2A60436  20.215  37.213   6.541
 4776POPC   C3A60437  19.995  37.067   6.923
 4776POPC   C4A60438  20.017  36.648   7.077
 4776POPC   C1B60439  19.600  36.673   6.150
 4776POPC   C2B60440  19.618  36.509   6.574
 4776POPC   C3B60441  19.520  36.604   6.993
 4776POPC   C4B60442  19.570  36.590   7.436
 4777POPC   NC360443  19.897   0.853   5.476
 4777POPC   PO460444  19.659   0.262   5.502
 4777POPC   GL160445  19.944   0.467   5.858
 4777POPC   GL260446  20.102   0.826   5.932
 4777POPC   C1A60447  19.855   0.538   6.319
 4777POPC   D2A60448  20.002   0.300   6.670
 4777POPC   C3A60449  19.792   0.362   7.050
 4777POPC   C4A60450  19.459   0.624   7.202
 4777POPC   C1B60451  20.087   0.992   6.369
 4777POPC   C2B60452  19.979   0.885   6.844
 4777POPC   C3B60453  20.053   0.742   7.283
 4777POPC   C4B60454  20.167   0.738   7.735
 4778POPC   NC360455  42.671  30.480   5.187
 4778POPC   PO460456  42.200  30.924   5.388
 4778POPC   GL160457  42.416  30.745   5.747
 4778POPC   GL260458  42.630  31.051   5.813
 4778POPC   C1A60459  42.310  30.491   6.156
 4778POPC   D2A60460  42.109  30.401   6.596
 4778POPC   C3A60461  42.329  30.581   6.923
 4778POPC   C4A60462  42.595  30.516   7.247
 4778POPC   C1B60463  42.331  31.087   6.134
 4778POPC   C2B60464  42.203  30.883   6.486
 4778POPC   C3B60465  42.087  31.016   6.873
 4778POPC   C4B60466  42.335  31.247   7.122
 4779POPC   NC360467  17.327  16.543   5.241
 4779POPC   PO460468  17.660  17.037   5.281
 4779POPC   GL160469  17.811  17.061   5.704
 4779POPC   GL260470  17.647  17.359   5.868
 4779POPC   C1A60471  17.807  16.716   6.056
 4779POPC   D2A60472  17.560  16.462   6.409
 4779POPC   C3A60473  17.601  16.481   6.882
 4779POPC   C4A60474  17.327  16.529   7.273
 4779POPC   C1B60475  17.566  17.134   6.219
 4779POPC   C2B60476  17.493  16.967   6.600
 4779POPC   C3B60477  17.413  16.956   7.010
 4779POPC   C4B60478  17.653  16.945   7.379
 4780POPC   NC360479  21.973   5.551   5.083
 4780POPC   PO460480  22.152   6.138   5.408
 4780POPC   GL160481  22.307   6.126   5.805
 4780POPC   GL260482  22.308   5.764   5.915
 4780POPC   C1A60483  22.489   6.140   6.193
 4780POPC   D2A60484  22.593   5.816   6.479
 4780POPC   C3A60485  22.361   5.830   6.869
 4780POPC   C4A60486  22.493   5.565   7.210
 4780POPC   C1B60487  22.122   5.634   6.328
 4780POPC   C2B60488  21.894   5.306   6.596
 4780POPC   C3B60489  21.991   5.449   7.037
 4780POPC   C4B60490  22.054   5.589   7.462
 4781POPC   NC360491  32.606  12.038   5.433
 4781POPC   PO460492  31.901  11.951   5.461
 4781POPC   GL160493  32.172  12.111   5.815
 4781POPC   GL260494  31.980  12.365   6.018
 4781POPC   C1A60495  32.318  12.053   6.225
 4781POPC   D2A60496  32.198  11.851   6.628
 4781POPC   C3A60497  32.281  12.019   7.073
 4781POPC   C4A60498  32.110  11.914   7.525
 4781POPC   C1B60499  31.849  12.180   6.387
 4781POPC   C2B60500  31.902  12.252   6.813
 4781POPC   C3B60501  31.950  12.352   7.263
 4781POPC   C4B60502  31.923  12.365   7.707
 4782POPC   NC360503  36.271   3.782   5.402
 4782POPC   PO460504  36.133   3.128   5.200
 4782POPC   GL160505  36.083   3.359   5.666
 4782POPC   GL260506  35.972   3.720   5.800
 4782POPC   C1A60507  35.940   3.315   6.110
 4782POPC   D2A60508  36.102   3.391   6.530
 4782POPC   C3A60509  35.985   3.251   6.929
 4782POPC   C4A60510  36.410   3.259   7.130
 4782POPC   C1B60511  36.058   3.842   6.208
 4782POPC   C2B60512  35.946   3.870   6.637
 4782POPC   C3B60513  36.167   3.706   6.975
 4782POPC   C4B60514  36.301   3.761   7.357
 4783POPC   NC360515  25.868  38.214   5.363
 4783POPC   PO460516  26.201  38.695   5.301
 4783POPC   GL160517  26.269  38.662   5.722
 4783POPC   GL260518  26.223  38.300   5.741
 4783POPC   C1A60519  26.020  38.572   6.110
 4783POPC   D2A60520  25.816  38.455   6.486
 4783POPC   C3A60521  26.016  38.510   6.890
 4783POPC   C4A60522  25.934  38.734   7.261
 4783POPC   C1B60523  26.399  38.185   6.118
 4783POPC   C2B60524  26.296  38.271   6.500
 4783POPC   C3B60525  26.451  38.225   6.879
 4783POPC   C4B60526  26.288  38.256   7.265
 4784POPC   NC360527  10.726  11.918   5.431
 4784POPC   PO460528  10.163  12.193   5.358
 4784POPC   GL160529  10.360  12.123   5.760
 4784POPC   GL260530  10.657  12.300   5.855
 4784POPC   C1A60531  10.367  11.803   6.100
 4784POPC   D2A60532  10.540  11.718   6.523
 4784POPC   C3A60533  10.380  11.938   6.876
 4784POPC   C4A60534  10.136  11.976   7.254
 4784POPC   C1B60535  10.645  12.182   6.302
 4784POPC   C2B60536  10.784  12.240   6.748
 4784POPC   C3B60537  10.594  12.286   7.184
 4784POPC   C4B60538  10.802  12.393   7.606
 4785POPC   NC360539  32.421  29.594   5.580
 4785POPC   PO460540  32.191  30.135   5.233
 4785POPC   GL160541  32.229  30.044   5.717
 4785POPC   GL260542  31.998  29.754   5.800
 4785POPC   C1A60543  32.231  29.963   6.196
 4785POPC   D2A60544  32.276  29.731   6.606
 4785POPC   C3A60545  32.265  30.047   6.931
 4785POPC   C4A60546  32.442  30.117   7.341
 4785POPC   C1B60547  32.103  29.458   6.142
 4785POPC   C2B60548  31.946  29.322   6.523
 4785POPC   C3B60549  31.943  29.458   6.941
 4785POPC   C4B60550  32.132  29.692   7.276
 4786POPC   NC360551   8.967  10.171   5.103
 4786POPC   PO460552   9.018   9.539   5.419
 4786POPC   GL160553   9.008   9.669   5.854
 4786POPC   GL260554   8.821   9.933   5.740
 4786POPC   C1A60555   9.092   9.879   6.255
 4786POPC   D2A60556   8.953   9.596   6.581
 4786POPC   C3A60557   9.026   9.555   7.048
 4786POPC   C4A60558   9.131   9.656   7.503
 4786POPC   C1B60559   8.673  10.156   6.098
 4786POPC   C2B60560   8.743  10.149   6.529
 4786POPC   C3B60561   9.053  10.018   6.850
 4786POPC   C4B60562   8.890  10.030   7.258
 4787POPC   NC360563  34.985  23.550   5.233
 4787POPC   PO460564  35.263  24.103   5.473
 4787POPC   GL160565  35.299  23.949   5.943
 4787POPC   GL260566  35.295  23.606   5.889
 4787POPC   C1A60567  35.138  23.984   6.341
 4787POPC   D2A60568  35.350  24.042   6.719
 4787POPC   C3A60569  35.106  24.018   7.067
 4787POPC   C4A60570  35.192  23.953   7.476
 4787POPC   C1B60571  35.166  23.425   6.249
 4787POPC   C2B60572  35.229  23.542   6.627
 4787POPC   C3B60573  35.105  23.508   7.018
 4787POPC   C4B60574  35.490  23.604   7.178
 4788POPC   NC360575  30.115  29.668   5.282
 4788POPC   PO460576  29.865  30.239   5.438
 4788POPC   GL160577  29.959  29.883   5.769
 4788POPC   GL260578  30.246  29.608   5.767
 4788POPC   C1A60579  29.767  29.805   6.207
 4788POPC   D2A60580  29.787  30.017   6.624
 4788POPC   C3A60581  29.681  29.784   6.999
 4788POPC   C4A60582  29.851  29.821   7.443
 4788POPC   C1B60583  30.286  29.822   6.164
 4788POPC   C2B60584  30.177  29.697   6.591
 4788POPC   C3B60585  30.175  29.686   7.038
 4788POPC   C4B60586  30.299  29.537   7.435
 4789POPC   NC360587   4.193   5.476   5.640
 4789POPC   PO460588   4.602   5.073   5.262
 4789POPC   GL160589   4.491   5.026   5.761
 4789POPC   GL260590   4.224   4.754   5.844
 4789POPC   C1A60591   4.622   5.105   6.250
 4789POPC   D2A60592   4.758   5.017   6.724
 4789POPC   C3A60593   4.577   5.264   7.090
 4789POPC   C4A60594   4.351   5.231   7.498
 4789POPC   C1B60595   4.123   4.968   6.240
 4789POPC   C2B60596   4.299   4.790   6.593
 4789POPC   C3B60597   4.297   4.839   7.024
 4789POPC   C4B60598   4.249   4.756   7.454
 4790POPC   NC360599  16.300  42.877   5.433
 4790POPC   PO460600  16.929  43.021   5.212
 4790POPC   GL160601  16.793  43.081   5.659
 4790POPC   GL260602  17.076  43.191   5.914
 4790POPC   C1A60603  16.624  43.063   6.066
 4790POPC   D2A60604  16.648  43.171   6.488
 4790POPC   C3A60605  16.398  43.005   6.829
 4790POPC   C4A60606  16.689  43.086   7.198
 4790POPC   C1B60607  17.004  43.493   6.253
 4790POPC   C2B60608  16.972  43.510   6.717
 4790POPC   C3B60609  16.910  43.575   7.144
 4790POPC   C4B60610  17.025  43.379   7.520
 4791POPC   NC360611   2.907  38.648   5.348
 4791POPC   PO460612   2.396  38.206   5.582
 4791POPC   GL160613   2.457  38.597   5.786
 4791POPC   GL260614   2.832  38.663   5.855
 4791POPC   C1A60615   2.454  38.556   6.210
 4791POPC   D2A60616   2.762  38.306   6.442
 4791POPC   C3A60617   2.802  38.410   6.861
 4791POPC   C4A60618   2.553  38.356   7.178
 4791POPC   C1B60619   3.046  38.844   6.207
 4791POPC   C2B60620   3.152  39.015   6.621
 4791POPC   C3B60621   3.087  38.810   7.009
 4791POPC   C4B60622   3.039  38.509   7.330
 4792POPC   NC360623   6.054  42.916   5.227
 4792POPC   PO460624   5.750  43.493   5.499
 4792POPC   GL160625   5.919  43.115   5.767
 4792POPC   GL260626   5.736  42.802   5.642
 4792POPC   C1A60627   6.015  43.016   6.247
 4792POPC   D2A60628   6.236  42.972   6.644
 4792POPC   C3A60629   6.001  43.155   6.977
 4792POPC   C4A60630   6.164  43.415   7.300
 4792POPC   C1B60631   5.952  42.608   5.979
 4792POPC   C2B60632   5.925  42.549   6.442
 4792POPC   C3B60633   5.915  42.632   6.876
 4792POPC   C4B60634   6.005  42.705   7.285
 4793POPC   NC360635   8.383   7.619   5.364
 4793POPC   PO460636   8.249   6.997   5.481
 4793POPC   GL160637   8.230   7.329   5.788
 4793POPC   GL260638   7.948   7.533   5.669
 4793POPC   C1A60639   8.452   7.544   6.141
 4793POPC   D2A60640   8.647   7.621   6.563
 4793POPC   C3A60641   8.405   7.405   6.858
 4793POPC   C4A60642   8.418   7.322   7.268
 4793POPC   C1B60643   7.903   7.644   6.095
 4793POPC   C2B60644   7.949   7.466   6.510
 4793POPC   C3B60645   7.913   7.557   6.938
 4793POPC   C4B60646   7.893   7.317   7.282
 4794POPC   NC360647  23.450   6.322   5.446
 4794POPC   PO460648  23.667   7.008   5.342
 4794POPC   GL160649  23.740   6.830   5.772
 4794POPC   GL260650  23.688   6.478   5.895
 4794POPC   C1A60651  23.593   6.885   6.213
 4794POPC   D2A60652  23.664   6.637   6.587
 4794POPC   C3A60653  24.002   6.696   6.905
 4794POPC   C4A60654  23.840   6.791   7.336
 4794POPC   C1B60655  23.841   6.213   6.256
 4794POPC   C2B60656  23.929   6.209   6.713
 4794POPC   C3B60657  23.831   6.274   7.158
 4794POPC   C4B60658  24.045   6.086   7.497
 4795POPC   NC360659   5.459  19.849   5.298
 4795POPC   PO460660   4.795  19.774   5.408
 4795POPC   GL160661   5.021  19.804   5.786
 4795POPC   GL260662   4.930  20.068   5.998
 4795POPC   C1A60663   4.999  19.526   6.164
 4795POPC   D2A60664   5.072  19.409   6.615
 4795POPC   C3A60665   5.122  19.772   6.916
 4795POPC   C4A60666   5.303  20.113   7.181
 4795POPC   C1B60667   4.937  19.945   6.446
 4795POPC   C2B60668   4.642  19.683   6.667
 4795POPC   C3B60669   4.677  19.569   7.075
 4795POPC   C4B60670   4.785  19.970   7.272
 4796POPC   NC360671  17.701  35.510   5.479
 4796POPC   PO460672  17.223  35.163   5.500
 4796POPC   GL160673  17.438  35.346   5.866
 4796POPC   GL260674  17.730  35.100   5.898
 4796POPC   C1A60675  17.634  35.437   6.264
 4796POPC   D2A60676  17.486  35.237   6.624
 4796POPC   C3A60677  17.420  35.414   7.019
 4796POPC   C4A60678  17.694  35.168   7.229
 4796POPC   C1B60679  17.379  34.944   6.179
 4796POPC   C2B60680  17.173  34.845   6.565
 4796POPC   C3B60681  17.328  34.892   6.992
 4796POPC   C4B60682  17.210  35.088   7.412
 4797POPC   NC360683   2.128   8.952   5.469
 4797POPC   PO460684   2.433   8.376   5.633
 4797POPC   GL160685   2.255   8.731   5.926
 4797POPC   GL260686   2.163   9.126   5.931
 4797POPC   C1A60687   2.042   8.823   6.331
 4797POPC   D2A60688   2.184   8.825   6.740
 4797POPC   C3A60689   2.051   8.570   7.105
 4797POPC   C4A60690   2.068   8.826   7.489
 4797POPC   C1B60691   2.082   9.358   6.298
 4797POPC   C2B60692   1.862   9.249   6.666
 4797POPC   C3B60693   1.811   9.028   7.069
 4797POPC   C4B60694   1.710   9.257   7.466
 4798POPC   NC360695   7.922  16.313   5.152
 4798POPC   PO460696   7.852  15.669   5.366
 4798POPC   GL160697   7.913  15.932   5.771
 4798POPC   GL260698   7.864  16.279   5.729
 4798POPC   C1A60699   8.159  15.913   6.169
 4798POPC   D2A60700   7.961  15.894   6.577
 4798POPC   C3A60701   8.174  15.979   6.956
 4798POPC   C4A60702   8.173  16.016   7.368
 4798POPC   C1B60703   7.944  16.364   6.198
 4798POPC   C2B60704   8.143  16.390   6.639
 4798POPC   C3B60705   7.985  16.441   7.095
 4798POPC   C4B60706   7.881  16.356   7.551
 4799POPC   NC360707  17.239   8.483   5.183
 4799POPC   PO460708  17.719   8.156   5.542
 4799POPC   GL160709  17.481   8.214   5.929
 4799POPC   GL260710  17.149   8.375   5.861
 4799POPC   C1A60711  17.625   8.281   6.337
 4799POPC   D2A60712  17.495   8.059   6.693
 4799POPC   C3A60713  17.709   8.277   7.037
 4799POPC   C4A60714  17.735   8.201   7.490
 4799POPC   C1B60715  17.121   8.252   6.308
 4799POPC   C2B60716  17.065   8.338   6.763
 4799POPC   C3B60717  17.210   8.211   7.131
 4799POPC   C4B60718  17.282   8.461   7.489
 4800POPC   NC360719  31.803  20.275   5.456
 4800POPC   PO460720  31.122  20.438   5.399
 4800POPC   GL160721  31.449  20.544   5.740
 4800POPC   GL260722  31.631  20.862   5.672
 4800POPC   C1A60723  31.598  20.499   6.195
 4800POPC   D2A60724  31.712  20.322   6.620
 4800POPC   C3A60725  31.499  20.382   7.027
 4800POPC   C4A60726  31.269  20.273   7.419
 4800POPC   C1B60727  31.576  21.013   6.077
 4800POPC   C2B60728  31.583  20.904   6.518
 4800POPC   C3B60729  31.642  20.894   6.969
 4800POPC   C4B60730  31.512  20.757   7.409
 4801POPC   NC360731  13.483   8.409   5.508
 4801POPC   PO460732  14.150   8.256   5.468
 4801POPC   GL160733  13.881   8.405   5.837
 4801POPC   GL260734  13.479   8.354   5.992
 4801POPC   C1A60735  13.886   8.324   6.283
 4801POPC   D2A60736  13.587   8.247   6.626
 4801POPC   C3A60737  13.781   8.051   7.017
 4801POPC   C4A60738  13.820   8.294   7.378
 4801POPC   C1B60739  13.107   8.242   6.268
 4801POPC   C2B60740  13.104   8.051   6.684
 4801POPC   C3B60741  13.305   8.223   7.063
 4801POPC   C4B60742  13.337   8.098   7.501
 4802POPC   NC360743   6.535   0.098   5.003
 4802POPC   PO460744   6.840  44.834   5.525
 4802POPC   GL160745   6.745  44.742   5.882
 4802POPC   GL260746   6.423  44.600   5.791
 4802POPC   C1A60747   6.930  44.681   6.256
 4802POPC   D2A60748   6.780  44.815   6.630
 4802POPC   C3A60749   6.889  44.664   7.025
 4802POPC   C4A60750   6.972  44.427   7.372
 4802POPC   C1B60751   6.392  44.795   6.228
 4802POPC   C2B60752   6.312   0.004   6.596
 4802POPC   C3B60753   6.385  44.736   6.975
 4802POPC   C4B60754   6.512  44.717   7.388
 4803POPC   NC360755  10.619  32.447   5.275
 4803POPC   PO460756  10.210  31.910   5.377
 4803POPC   GL160757  10.475  32.150   5.669
 4803POPC   GL260758  10.263  32.432   5.660
 4803POPC   C1A60759  10.576  32.253   6.137
 4803POPC   D2A60760  10.521  32.100   6.602
 4803POPC   C3A60761  10.726  32.288   7.003
 4803POPC   C4A60762  10.492  32.148   7.357
 4803POPC   C1B60763  10.188  32.600   6.071
 4803POPC   C2B60764  10.282  32.588   6.522
 4803POPC   C3B60765  10.254  32.437   6.954
 4803POPC   C4B60766  10.331  32.620   7.390
 4804POPC   NC360767  23.850  36.722   5.326
 4804POPC   PO460768  23.588  37.384   5.458
 4804POPC   GL160769  23.774  37.040   5.733
 4804POPC   GL260770  23.625  36.711   5.821
 4804POPC   C1A60771  23.834  36.963   6.202
 4804POPC   D2A60772  23.788  36.802   6.644
 4804POPC   C3A60773  23.645  37.158   6.930
 4804POPC   C4A60774  23.709  37.252   7.392
 4804POPC   C1B60775  23.367  36.724   6.234
 4804POPC   C2B60776  23.249  36.883   6.667
 4804POPC   C3B60777  23.299  36.842   7.133
 4804POPC   C4B60778  23.111  36.583   7.448
 4805POPC   NC360779   3.217  39.589   5.215
 4805POPC   PO460780   3.613  40.156   5.294
 4805POPC   GL160781   3.820  40.103   5.738
 4805POPC   GL260782   3.834  39.741   5.833
 4805POPC   C1A60783   3.774  40.157   6.173
 4805POPC   D2A60784   3.743  40.237   6.617
 4805POPC   C3A60785   3.560  39.950   6.907
 4805POPC   C4A60786   3.409  40.105   7.265
 4805POPC   C1B60787   3.601  39.692   6.249
 4805POPC   C2B60788   3.276  39.648   6.552
 4805POPC   C3B60789   3.296  39.482   6.960
 4805POPC   C4B60790   3.474  39.613   7.381
 4806POPC   NC360791   5.965   8.655   5.360
 4806POPC   PO460792   5.690   9.230   5.464
 4806POPC   GL160793   5.720   9.001   5.823
 4806POPC   GL260794   6.074   8.922   5.791
 4806POPC   C1A60795   5.856   9.015   6.244
 4806POPC   D2A60796   5.597   9.000   6.563
 4806POPC   C3A60797   5.844   9.138   6.862
 4806POPC   C4A60798   5.762   9.122   7.261
 4806POPC   C1B60799   6.124   8.594   6.135
 4806POPC   C2B60800   6.019   8.645   6.606
 4806POPC   C3B60801   6.166   8.769   7.026
 4806POPC   C4B60802   6.330   9.176   7.153
 4807POPC   NC360803  13.084   3.198   5.399
 4807POPC   PO460804  12.599   3.692   5.460
 4807POPC   GL160805  12.889   3.523   5.759
 4807POPC   GL260806  12.731   3.164   5.760
 4807POPC   C1A60807  13.020   3.645   6.184
 4807POPC   D2A60808  12.895   3.836   6.580
 4807POPC   C3A60809  12.855   3.675   7.028
 4807POPC   C4A60810  12.731   3.411   7.380
 4807POPC   C1B60811  13.045   3.125   6.075
 4807POPC   C2B60812  12.913   3.206   6.465
 4807POPC   C3B60813  12.906   3.192   6.883
 4807POPC   C4B60814  13.200   3.324   7.210
 4808POPC   NC360815  27.896  35.243   5.339
 4808POPC   PO460816  27.735  35.896   5.318
 4808POPC   GL160817  27.691  35.546   5.689
 4808POPC   GL260818  27.422  35.270   5.680
 4808POPC   C1A60819  27.616  35.379   6.142
 4808POPC   D2A60820  27.330  35.496   6.495
 4808POPC   C3A60821  27.524  35.484   6.909
 4808POPC   C4A60822  27.766  35.195   7.138
 4808POPC   C1B60823  27.260  35.016   6.078
 4808POPC   C2B60824  27.449  34.982   6.525
 4808POPC   C3B60825  27.298  35.028   6.968
 4808POPC   C4B60826  27.366  35.028   7.405
 4809POPC   NC360827  38.927  22.650   5.662
 4809POPC   PO460828  38.455  22.262   5.292
 4809POPC   GL160829  38.483  22.366   5.710
 4809POPC   GL260830  38.678  22.077   5.809
 4809POPC   C1A60831  38.410  22.396   6.147
 4809POPC   D2A60832  38.247  22.212   6.507
 4809POPC   C3A60833  38.408  22.379   6.881
 4809POPC   C4A60834  38.411  22.179   7.267
 4809POPC   C1B60835  38.512  21.864   6.195
 4809POPC   C2B60836  38.637  21.876   6.628
 4809POPC   C3B60837  38.720  21.827   7.036
 4809POPC   C4B60838  38.417  21.681   7.337
 4810POPC   NC360839  14.999  13.054   5.456
 4810POPC   PO460840  15.291  12.475   5.445
 4810POPC   GL160841  15.008  12.605   5.795
 4810POPC   GL260842  15.247  12.836   5.866
 4810POPC   C1A60843  14.851  12.730   6.229
 4810POPC   D2A60844  14.727  12.791   6.686
 4810POPC   C3A60845  15.042  12.835   7.026
 4810POPC   C4A60846  15.242  12.811   7.427
 4810POPC   C1B60847  15.374  12.702   6.278
 4810POPC   C2B60848  15.232  12.537   6.659
 4810POPC   C3B60849  15.436  12.486   7.063
 4810POPC   C4B60850  15.644  12.489   7.470
 4811POPC   NC360851   4.568  23.409   5.100
 4811POPC   PO460852   4.233  22.877   5.382
 4811POPC   GL160853   4.334  22.950   5.778
 4811POPC   GL260854   4.082  22.730   5.880
 4811POPC   C1A60855   4.447  22.867   6.203
 4811POPC   D2A60856   4.342  22.707   6.600
 4811POPC   C3A60857   4.488  22.804   6.995
 4811POPC   C4A60858   4.390  22.975   7.372
 4811POPC   C1B60859   3.924  23.024   6.178
 4811POPC   C2B60860   3.769  23.062   6.588
 4811POPC   C3B60861   4.033  23.017   6.940
 4811POPC   C4B60862   4.016  23.295   7.272
 4812POPC   NC360863   4.467   9.252   5.350
 4812POPC   PO460864   4.011   8.714   5.430
 4812POPC   GL160865   4.185   9.000   5.693
 4812POPC   GL260866   4.477   8.833   5.774
 4812POPC   C1A60867   4.126   9.123   6.121
 4812POPC   D2A60868   3.848   9.034   6.468
 4812POPC   C3A60869   4.072   8.973   6.853
 4812POPC   C4A60870   4.090   9.001   7.321
 4812POPC   C1B60871   4.652   8.975   6.180
 4812POPC   C2B60872   4.563   9.141   6.606
 4812POPC   C3B60873   4.445   9.262   7.051
 4812POPC   C4B60874   4.612   9.107   7.455
 4813POPC   NC360875   6.954  28.030   5.480
 4813POPC   PO460876   7.421  28.451   5.301
 4813POPC   GL160877   7.317  28.321   5.714
 4813POPC   GL260878   7.204  28.637   5.811
 4813POPC   C1A60879   7.437  28.300   6.164
 4813POPC   D2A60880   7.600  28.155   6.554
 4813POPC   C3A60881   7.654  28.322   6.939
 4813POPC   C4A60882   7.433  28.299   7.324
 4813POPC   C1B60883   7.307  28.793   6.224
 4813POPC   C2B60884   7.455  28.696   6.650
 4813POPC   C3B60885   7.353  28.813   7.099
 4813POPC   C4B60886   7.396  28.794   7.574
 4814POPC   NC360887   8.188  17.976   5.010
 4814POPC   PO460888   7.994  17.452   5.448
 4814POPC   GL160889   8.218  17.336   5.793
 4814POPC   GL260890   8.433  17.036   5.737
 4814POPC   C1A60891   8.104  17.556   6.157
 4814POPC   D2A60892   8.197  17.899   6.455
 4814POPC   C3A60893   8.016  17.760   6.844
 4814POPC   C4A60894   8.157  17.647   7.253
 4814POPC   C1B60895   8.594  17.208   6.150
 4814POPC   C2B60896   8.406  17.410   6.531
 4814POPC   C3B60897   8.374  17.236   6.942
 4814POPC   C4B60898   8.391  17.185   7.373
 4815POPC   NC360899  18.733  20.069   5.165
 4815POPC   PO460900  19.140  19.533   5.390
 4815POPC   GL160901  19.067  19.772   5.731
 4815POPC   GL260902  19.043  20.131   5.730
 4815POPC   C1A60903  19.169  19.841   6.155
 4815POPC   D2A60904  19.045  19.668   6.541
 4815POPC   C3A60905  18.857  19.880   6.886
 4815POPC   C4A60906  18.957  19.598   7.251
 4815POPC   C1B60907  18.834  20.225   6.175
 4815POPC   C2B60908  19.032  20.312   6.584
 4815POPC   C3B60909  19.139  20.301   7.006
 4815POPC   C4B60910  19.001  20.082   7.331
 4816POPC   NC360911   1.885   5.571   5.556
 4816POPC   PO460912   2.146   6.238   5.415
 4816POPC   GL160913   2.063   6.035   5.788
 4816POPC   GL260914   2.335   5.792   5.732
 4816POPC   C1A60915   1.923   6.062   6.235
 4816POPC   D2A60916   2.040   5.868   6.640
 4816POPC   C3A60917   2.028   6.110   7.005
 4816POPC   C4A60918   1.956   6.211   7.442
 4816POPC   C1B60919   2.209   5.634   6.140
 4816POPC   C2B60920   2.424   5.566   6.509
 4816POPC   C3B60921   2.526   5.714   6.926
 4816POPC   C4B60922   2.221   5.648   7.226
 4817POPC   NC360923  21.350   3.934   5.458
 4817POPC   PO460924  21.347   4.523   5.191
 4817POPC   GL160925  21.361   4.376   5.723
 4817POPC   GL260926  21.242   4.067   5.925
 4817POPC   C1A60927  21.457   4.461   6.179
 4817POPC   D2A60928  21.582   4.275   6.590
 4817POPC   C3A60929  21.428   4.381   6.996
 4817POPC   C4A60930  21.000   4.438   7.151
 4817POPC   C1B60931  20.962   4.164   6.279
 4817POPC   C2B60932  21.027   4.163   6.723
 4817POPC   C3B60933  21.149   3.965   7.120
 4817POPC   C4B60934  21.058   3.835   7.571
 4818POPC   NC360935  39.695   7.904   5.440
 4818POPC   PO460936  40.362   8.081   5.367
 4818POPC   GL160937  40.158   8.167   5.782
 4818POPC   GL260938  39.798   8.233   5.871
 4818POPC   C1A60939  40.132   8.094   6.235
 4818POPC   D2A60940  40.282   8.017   6.651
 4818POPC   C3A60941  40.017   8.173   6.970
 4818POPC   C4A60942  40.044   8.032   7.391
 4818POPC   C1B60943  39.601   7.994   6.226
 4818POPC   C2B60944  39.626   7.926   6.694
 4818POPC   C3B60945  39.595   7.945   7.155
 4818POPC   C4B60946  39.625   7.870   7.619
 4819POPC   NC360947  21.950  44.190   5.062
 4819POPC   PO460948  22.028  43.586   5.453
 4819POPC   GL160949  22.126  43.841   5.850
 4819POPC   GL260950  22.234  44.164   5.683
 4819POPC   C1A60951  21.957  43.798   6.242
 4819POPC   D2A60952  21.917  43.579   6.633
 4819POPC   C3A60953  21.933  43.850   7.002
 4819POPC   C4A60954  22.164  43.679   7.332
 4819POPC   C1B60955  22.211  44.299   6.105
 4819POPC   C2B60956  22.241  44.122   6.516
 4819POPC   C3B60957  22.226  44.297   6.896
 4819POPC   C4B60958  22.151  44.224   7.294
 4820POPC   NC360959   9.523  38.342   5.376
 4820POPC   PO460960  10.088  38.631   5.456
 4820POPC   GL160961   9.842  38.415   5.765
 4820POPC   GL260962   9.646  38.675   5.742
 4820POPC   C1A60963   9.602  38.413   6.168
 4820POPC   D2A60964   9.469  38.583   6.565
 4820POPC   C3A60965   9.568  38.424   6.969
 4820POPC   C4A60966   9.842  38.521   7.343
 4820POPC   C1B60967   9.925  38.810   6.102
 4820POPC   C2B60968  10.041  38.712   6.512
 4820POPC   C3B60969   9.843  38.836   6.875
 4820POPC   C4B60970   9.956  39.008   7.253
 4821POPC   NC360971  35.313  28.615   5.310
 4821POPC   PO460972  35.415  27.928   5.382
 4821POPC   GL160973  35.470  28.277   5.731
 4821POPC   GL260974  35.158  28.492   5.794
 4821POPC   C1A60975  35.572  28.405   6.172
 4821POPC   D2A60976  35.577  28.703   6.541
 4821POPC   C3A60977  35.465  28.595   6.980
 4821POPC   C4A60978  35.505  28.308   7.336
 4821POPC   C1B60979  35.067  28.343   6.221
 4821POPC   C2B60980  35.252  28.302   6.617
 4821POPC   C3B60981  35.109  28.167   7.028
 4821POPC   C4B60982  34.976  28.276   7.451
 4822POPC   NC360983  27.425  43.533   5.301
 4822POPC   PO460984  28.059  43.449   5.599
 4822POPC   GL160985  27.617  43.552   5.793
 4822POPC   GL260986  27.533  43.909   5.798
 4822POPC   C1A60987  27.393  43.621   6.211
 4822POPC   D2A60988  27.618  43.760   6.621
 4822POPC   C3A60989  27.638  43.806   7.094
 4822POPC   C4A60990  27.809  44.162   7.367
 4822POPC   C1B60991  27.466  44.139   6.216
 4822POPC   C2B60992  27.283  44.232   6.636
 4822POPC   C3B60993  27.374  44.259   7.108
 4822POPC   C4B60994  27.349  43.986   7.476
 4823POPC   NC360995  20.571   1.020   5.447
 4823POPC   PO460996  20.841   1.651   5.586
 4823POPC   GL160997  20.640   1.321   5.845
 4823POPC   GL260998  20.314   1.315   5.912
 4823POPC   C1A60999  20.570   0.967   6.150
 4823POPC   D2A61000  20.693   1.014   6.578
 4823POPC   C3A61001  20.853   1.326   6.861
 4823POPC   C4A61002  20.867   1.359   7.316
 4823POPC   C1B61003  20.390   1.428   6.334
 4823POPC   C2B61004  20.295   1.286   6.742
 4823POPC   C3B61005  20.467   1.009   7.066
 4823POPC   C4B61006  20.444   1.097   7.515
 4824POPC   NC361007   9.301   4.172   5.550
 4824POPC   PO461008   8.603   3.996   5.591
 4824POPC   GL161009   8.953   4.067   5.911
 4824POPC   GL261010   9.014   4.437   5.880
 4824POPC   C1A61011   9.126   4.169   6.338
 4824POPC   D2A61012   8.836   4.304   6.687
 4824POPC   C3A61013   8.933   4.092   7.083
 4824POPC   C4A61014   9.355   4.037   7.273
 4824POPC   C1B61015   8.899   4.630   6.271
 4824POPC   C2B61016   9.181   4.740   6.619
 4824POPC   C3B61017   9.177   4.540   7.017
 4824POPC   C4B61018   8.734   4.552   7.127
 4825POPC   NC361019  39.942   2.662   5.311
 4825POPC   PO461020  39.921   3.273   5.168
 4825POPC   GL161021  39.810   3.017   5.662
 4825POPC   GL261022  40.096   2.741   5.774
 4825POPC   C1A61023  39.797   2.890   6.126
 4825POPC   D2A61024  39.964   2.703   6.527
 4825POPC   C3A61025  40.033   2.943   6.894
 4825POPC   C4A61026  39.776   2.924   7.230
 4825POPC   C1B61027  40.163   2.462   6.117
 4825POPC   C2B61028  40.433   2.438   6.477
 4825POPC   C3B61029  40.384   2.550   6.886
 4825POPC   C4B61030  40.153   2.544   7.256
 4826POPC   NC361031  36.285  15.955   5.499
 4826POPC   PO461032  36.374  16.545   5.748
 4826POPC   GL161033  36.293  16.206   5.979
 4826POPC   GL261034  35.969  16.150   5.898
 4826POPC   C1A61035  36.149  15.878   6.299
 4826POPC   D2A61036  35.841  15.778   6.612
 4826POPC   C3A61037  35.967  15.734   7.026
 4826POPC   C4A61038  36.131  15.832   7.430
 4826POPC   C1B61039  35.934  16.366   6.315
 4826POPC   C2B61040  35.997  16.251   6.770
 4826POPC   C3B61041  35.834  16.198   7.206
 4826POPC   C4B61042  35.648  16.281   7.634
 4827POPC   NC361043  22.396  43.223   5.407
 4827POPC   PO461044  21.828  42.843   5.297
 4827POPC   GL161045  22.021  43.113   5.722
 4827POPC   GL261046  22.284  43.366   5.868
 4827POPC   C1A61047  22.195  42.977   6.160
 4827POPC   D2A61048  22.189  43.112   6.590
 4827POPC   C3A61049  22.260  42.824   6.926
 4827POPC   C4A61050  22.130  42.884   7.365
 4827POPC   C1B61051  22.411  43.464   6.288
 4827POPC   C2B61052  22.648  43.344   6.668
 4827POPC   C3B61053  22.427  43.278   7.071
 4827POPC   C4B61054  22.449  43.267   7.520
 4828POPC   NC361055  24.754  39.258   5.266
 4828POPC   PO461056  24.849  39.710   5.734
 4828POPC   GL161057  24.725  39.261   5.834
 4828POPC   GL261058  24.752  38.867   5.931
 4828POPC   C1A61059  24.615  39.199   6.299
 4828POPC   D2A61060  24.733  39.101   6.743
 4828POPC   C3A61061  24.488  39.269   7.115
 4828POPC   C4A61062  24.206  39.379   7.463
 4828POPC   C1B61063  24.562  38.700   6.353
 4828POPC   C2B61064  24.415  38.706   6.806
 4828POPC   C3B61065  24.660  38.788   7.163
 4828POPC   C4B61066  24.552  38.972   7.548
 4829POPC   NC361067  31.888   9.857   5.409
 4829POPC   PO461068  31.239   9.609   5.414
 4829POPC   GL161069  31.403   9.815   5.773
 4829POPC   GL261070  31.717   9.634   5.829
 4829POPC   C1A61071  31.182   9.858   6.193
 4829POPC   D2A61072  31.290  10.032   6.615
 4829POPC   C3A61073  31.273   9.722   6.922
 4829POPC   C4A61074  31.287   9.505   7.303
 4829POPC   C1B61075  31.678   9.833   6.235
 4829POPC   C2B61076  31.757   9.842   6.678
 4829POPC   C3B61077  31.764   9.615   7.064
 4829POPC   C4B61078  32.057   9.322   7.202
 4830POPC   NC361079  32.874  29.018   5.131
 4830POPC   PO461080  32.877  29.634   5.562
 4830POPC   GL161081  33.089  29.406   5.898
 4830POPC   GL261082  33.094  29.037   5.839
 4830POPC   C1A61083  32.970  29.263   6.321
 4830POPC   D2A61084  32.912  29.079   6.749
 4830POPC   C3A61085  33.110  29.293   7.092
 4830POPC   C4A61086  33.073  29.322   7.546
 4830POPC   C1B61087  33.350  28.932   6.214
 4830POPC   C2B61088  33.462  28.632   6.546
 4830POPC   C3B61089  33.309  28.753   6.956
 4830POPC   C4B61090  32.917  28.805   7.211
 4831POPC   NC361091   3.060  17.478   5.498
 4831POPC   PO461092   2.600  17.945   5.563
 4831POPC   GL161093   2.719  17.717   5.906
 4831POPC   GL261094   2.758  17.364   5.889
 4831POPC   C1A61095   2.618  17.566   6.325
 4831POPC   D2A61096   2.808  17.670   6.679
 4831POPC   C3A61097   2.679  17.450   7.017
 4831POPC   C4A61098   2.328  17.649   7.192
 4831POPC   C1B61099   2.881  17.105   6.264
 4831POPC   C2B61100   3.003  17.037   6.705
 4831POPC   C3B61101   2.973  17.037   7.160
 4831POPC   C4B61102   2.868  17.123   7.592
 4832POPC   NC361103  42.562  36.196   5.677
 4832POPC   PO461104  42.009  35.843   5.517
 4832POPC   GL161105  42.109  36.053   5.888
 4832POPC   GL261106  42.078  36.422   5.757
 4832POPC   C1A61107  42.364  35.932   6.268
 4832POPC   D2A61108  42.535  35.794   6.681
 4832POPC   C3A61109  42.310  35.742   7.115
 4832POPC   C4A61110  42.479  35.841   7.552
 4832POPC   C1B61111  42.142  36.455   6.212
 4832POPC   C2B61112  42.395  36.337   6.579
 4832POPC   C3B61113  42.528  36.206   6.990
 4832POPC   C4B61114  42.370  36.309   7.392
 4833POPC   NC361115  29.667  42.519   5.252
 4833POPC   PO461116  30.171  42.084   5.071
 4833POPC   GL161117  30.014  42.148   5.556
 4833POPC   GL261118  29.737  42.371   5.725
 4833POPC   C1A61119  30.046  42.123   6.050
 4833POPC   D2A61120  29.815  42.110   6.477
 4833POPC   C3A61121  29.965  42.270   6.917
 4833POPC   C4A61122  30.238  42.391   7.309
 4833POPC   C1B61123  29.732  42.571   6.134
 4833POPC   C2B61124  29.541  42.541   6.527
 4833POPC   C3B61125  29.471  42.425   6.921
 4833POPC   C4B61126  29.656  42.557   7.295
 4834POPC   NC361127  36.257  11.826   5.376
 4834POPC   PO461128  35.806  12.299   5.577
 4834POPC   GL161129  35.939  11.935   5.815
 4834POPC   GL261130  36.217  12.041   5.858
 4834POPC   C1A61131  36.098  11.863   6.292
 4834POPC   D2A61132  35.905  12.119   6.612
 4834POPC   C3A61133  36.133  12.007   6.974
 4834POPC   C4A61134  36.292  11.806   7.355
 4834POPC   C1B61135  36.407  12.298   6.209
 4834POPC   C2B61136  36.627  12.568   6.512
 4834POPC   C3B61137  36.646  12.415   6.932
 4834POPC   C4B61138  36.354  12.374   7.252
 4835POPC   NC361139  18.040   1.648   5.449
 4835POPC   PO461140  18.499   2.149   5.486
 4835POPC   GL161141  18.285   1.893   5.820
 4835POPC   GL261142  17.930   1.984   5.851
 4835POPC   C1A61143  18.253   2.017   6.264
 4835POPC   D2A61144  18.547   2.094   6.621
 4835POPC   C3A61145  18.319   2.129   7.015
 4835POPC   C4A61146  18.202   2.159   7.459
 4835POPC   C1B61147  17.739   1.947   6.281
 4835POPC   C2B61148  17.985   1.861   6.709
 4835POPC   C3B61149  18.014   1.746   7.189
 4835POPC   C4B61150  17.865   1.578   7.608
 4836POPC   NC361151   2.872  16.015   5.504
 4836POPC   PO461152   2.995  15.398   5.408
 4836POPC   GL161153   2.823  15.593   5.764
 4836POPC   GL261154   2.526  15.755   5.782
 4836POPC   C1A61155   2.874  15.874   6.155
 4836POPC   D2A61156   2.738  15.901   6.605
 4836POPC   C3A61157   2.885  16.052   7.014
 4836POPC   C4A61158   2.647  16.213   7.399
 4836POPC   C1B61159   2.506  15.519   6.177
 4836POPC   C2B61160   2.559  15.402   6.592
 4836POPC   C3B61161   2.482  15.548   6.994
 4836POPC   C4B61162   2.672  15.705   7.332
 4837POPC   NC361163  40.596  22.793   5.424
 4837POPC   PO461164  40.706  23.469   5.448
 4837POPC   GL161165  40.700  23.205   5.770
 4837POPC   GL261166  40.420  23.334   5.862
 4837POPC   C1A61167  40.624  22.941   6.148
 4837POPC   D2A61168  40.664  22.719   6.543
 4837POPC   C3A61169  40.553  22.906   6.939
 4837POPC   C4A61170  40.820  22.842   7.321
 4837POPC   C1B61171  40.623  23.439   6.245
 4837POPC   C2B61172  40.827  23.235   6.592
 4837POPC   C3B61173  40.874  23.305   7.015
 4837POPC   C4B61174  40.505  23.348   7.187
 4838POPC   NC361175  31.571  18.458   5.271
 4838POPC   PO461176  32.332  18.304   5.308
 4838POPC   GL161177  32.280  18.323   5.742
 4838POPC   GL261178  32.307  17.973   5.773
 4838POPC   C1A61179  32.376  18.513   6.149
 4838POPC   D2A61180  32.204  18.410   6.558
 4838POPC   C3A61181  32.352  18.522   6.943
 4838POPC   C4A61182  32.212  18.455   7.300
 4838POPC   C1B61183  32.204  18.013   6.200
 4838POPC   C2B61184  32.373  17.922   6.609
 4838POPC   C3B61185  32.159  18.020   6.969
 4838POPC   C4B61186  32.311  17.974   7.366
 4839POPC   NC361187  17.788  26.270   5.474
 4839POPC   PO461188  17.372  25.774   5.438
 4839POPC   GL161189  17.250  25.956   5.817
 4839POPC   GL261190  17.595  26.049   5.906
 4839POPC   C1A61191  17.225  26.237   6.186
 4839POPC   D2A61192  17.463  26.225   6.567
 4839POPC   C3A61193  17.328  26.090   6.961
 4839POPC   C4A61194  17.420  26.297   7.345
 4839POPC   C1B61195  17.463  25.793   6.266
 4839POPC   C2B61196  17.640  25.756   6.687
 4839POPC   C3B61197  17.735  25.837   7.135
 4839POPC   C4B61198  17.927  25.824   7.556
 4840POPC   NC361199  23.416   0.480   5.471
 4840POPC   PO461200  23.992   0.677   5.171
 4840POPC   GL161201  23.950   0.557   5.616
 4840POPC   GL261202  23.761   0.783   5.774
 4840POPC   C1A61203  23.786   0.340   6.036
 4840POPC   D2A61204  23.723   0.091   6.451
 4840POPC   C3A61205  23.785   0.349   6.835
 4840POPC   C4A61206  24.015   0.411   7.228
 4840POPC   C1B61207  23.425   0.742   6.109
 4840POPC   C2B61208  23.333   0.512   6.480
 4840POPC   C3B61209  23.307   0.579   6.897
 4840POPC   C4B61210  23.511   0.551   7.247
 4841POPC   NC361211   9.042  10.790   5.419
 4841POPC   PO461212   8.566  10.198   5.337
 4841POPC   GL161213   8.838  10.432   5.691
 4841POPC   GL261214   8.845  10.798   5.871
 4841POPC   C1A61215   9.109  10.406   6.079
 4841POPC   D2A61216   9.239  10.350   6.502
 4841POPC   C3A61217   8.948  10.509   6.851
 4841POPC   C4A61218   9.109  10.510   7.272
 4841POPC   C1B61219   8.793  10.783   6.312
 4841POPC   C2B61220   9.168  10.855   6.563
 4841POPC   C3B61221   9.126  10.975   7.001
 4841POPC   C4B61222   8.829  10.945   7.312
 4842POPC   NC361223  44.246  28.712   5.484
 4842POPC   PO461224  43.631  28.373   5.443
 4842POPC   GL161225  43.803  28.501   5.877
 4842POPC   GL261226  44.061  28.777   5.940
 4842POPC   C1A61227  43.947  28.168   6.181
 4842POPC   D2A61228  44.036  27.924   6.564
 4842POPC   C3A61229  43.707  28.062   6.816
 4842POPC   C4A61230  43.704  28.361   7.138
 4842POPC   C1B61231  44.295  28.533   6.233
 4842POPC   C2B61232  44.079  28.461   6.609
 4842POPC   C3B61233  44.130  28.647   6.982
 4842POPC   C4B61234  44.198  28.310   7.185
 4843POPC   NC361235   5.693  41.159   5.351
 4843POPC   PO461236   6.242  41.467   5.468
 4843POPC   GL161237   5.942  41.639   5.759
 4843POPC   GL261238   5.679  41.406   5.845
 4843POPC   C1A61239   5.994  41.705   6.208
 4843POPC   D2A61240   6.165  41.563   6.620
 4843POPC   C3A61241   5.945  41.739   7.005
 4843POPC   C4A61242   5.640  41.874   7.323
 4843POPC   C1B61243   5.497  41.545   6.239
 4843POPC   C2B61244   5.606  41.587   6.670
 4843POPC   C3B61245   5.577  41.365   7.079
 4843POPC   C4B61246   5.496  41.200   7.544
 4844POPC   NC361247   6.887  27.033   5.435
 4844POPC   PO461248   6.805  26.326   5.543
 4844POPC   GL161249   6.515  26.499   5.827
 4844POPC   GL261250   6.687  26.809   5.847
 4844POPC   C1A61251   6.643  26.515   6.262
 4844POPC   D2A61252   6.885  26.708   6.579
 4844POPC   C3A61253   6.882  26.502   6.965
 4844POPC   C4A61254   6.808  26.678   7.368
 4844POPC   C1B61255   6.642  27.037   6.234
 4844POPC   C2B61256   6.461  26.992   6.621
 4844POPC   C3B61257   6.686  26.986   6.970
 4844POPC   C4B61258   6.614  27.210   7.297
 4845POPC   NC361259  25.035  37.727   5.499
 4845POPC   PO461260  25.406  37.142   5.402
 4845POPC   GL161261  25.403  37.447   5.828
 4845POPC   GL261262  25.110  37.622   5.980
 4845POPC   C1A61263  25.552  37.636   6.207
 4845POPC   D2A61264  25.390  37.580   6.614
 4845POPC   C3A61265  25.527  37.733   7.027
 4845POPC   C4A61266  25.673  37.398   7.306
 4845POPC   C1B61267  25.001  37.843   6.360
 4845POPC   C2B61268  25.083  37.970   6.790
 4845POPC   C3B61269  24.975  37.799   7.198
 4845POPC   C4B61270  24.864  37.926   7.630
 4846POPC   NC361271   5.564  24.440   5.552
 4846POPC   PO461272   6.083  24.834   5.410
 4846POPC   GL161273   6.165  24.503   5.735
 4846POPC   GL261274   5.870  24.579   5.928
 4846POPC   C1A61275   6.258  24.414   6.189
 4846POPC   D2A61276   5.959  24.606   6.461
 4846POPC   C3A61277   5.900  24.537   6.887
 4846POPC   C4A61278   5.745  24.794   7.209
 4846POPC   C1B61279   5.556  24.391   6.206
 4846POPC   C2B61280   5.433  24.399   6.627
 4846POPC   C3B61281   5.579  24.144   6.963
 4846POPC   C4B61282   5.585  24.285   7.378
 4847POPC   NC361283  30.242  34.536   5.519
 4847POPC   PO461284  30.877  34.610   5.547
 4847POPC   GL161285  30.771  34.685   5.987
 4847POPC   GL261286  30.445  34.705   5.962
 4847POPC   C1A61287  30.669  34.610   6.434
 4847POPC   D2A61288  30.600  34.197   6.660
 4847POPC   C3A61289  30.595  34.354   7.060
 4847POPC   C4A61290  30.796  34.476   7.426
 4847POPC   C1B61291  30.211  34.892   6.305
 4847POPC   C2B61292  30.245  35.066   6.721
 4847POPC   C3B61293  30.451  34.866   7.062
 4847POPC   C4B61294  30.332  34.765   7.434
 4848POPC   NC361295  29.065  11.542   5.317
 4848POPC   PO461296  29.377  10.990   5.103
 4848POPC   GL161297  29.092  11.123   5.609
 4848POPC   GL261298  29.231  11.429   5.786
 4848POPC   C1A61299  28.966  11.125   6.115
 4848POPC   D2A61300  28.883  11.184   6.607
 4848POPC   C3A61301  29.072  10.959   7.012
 4848POPC   C4A61302  28.963  10.995   7.515
 4848POPC   C1B61303  28.890  11.635   6.032
 4848POPC   C2B61304  28.818  11.695   6.486
 4848POPC   C3B61305  29.052  11.597   6.854
 4848POPC   C4B61306  29.075  11.411   7.238
 4849POPC   NC361307   6.544  24.745   5.433
 4849POPC   PO461308   6.735  25.360   5.297
 4849POPC   GL161309   6.670  25.179   5.717
 4849POPC   GL261310   6.381  25.370   5.784
 4849POPC   C1A61311   6.627  25.175   6.201
 4849POPC   D2A61312   6.602  25.484   6.560
 4849POPC   C3A61313   6.819  25.324   6.951
 4849POPC   C4A61314   6.909  24.859   7.063
 4849POPC   C1B61315   6.251  25.565   6.163
 4849POPC   C2B61316   6.081  25.597   6.580
 4849POPC   C3B61317   6.287  25.459   6.961
 4849POPC   C4B61318   6.523  25.664   7.238
 4850POPC   NC361319   5.700   3.385   5.358
 4850POPC   PO461320   5.673   4.050   5.192
 4850POPC   GL161321   5.895   3.930   5.682
 4850POPC   GL261322   5.915   3.571   5.767
 4850POPC   C1A61323   6.011   3.797   6.193
 4850POPC   D2A61324   5.752   3.517   6.515
 4850POPC   C3A61325   5.650   3.622   6.979
 4850POPC   C4A61326   5.731   3.565   7.440
 4850POPC   C1B61327   5.977   3.253   6.090
 4850POPC   C2B61328   5.959   2.983   6.447
 4850POPC   C3B61329   6.130   3.030   6.846
 4850POPC   C4B61330   6.051   3.328   7.134
 4851POPC   NC361331  11.518  24.624   5.163
 4851POPC   PO461332  12.081  24.575   5.453
 4851POPC   GL161333  12.172  24.512   5.854
 4851POPC   GL261334  12.480  24.688   5.828
 4851POPC   C1A61335  11.916  24.424   6.222
 4851POPC   D2A61336  12.063  24.494   6.588
 4851POPC   C3A61337  11.840  24.326   6.928
 4851POPC   C4A61338  11.928  24.349   7.354
 4851POPC   C1B61339  12.519  24.794   6.272
 4851POPC   C2B61340  12.569  24.588   6.667
 4851POPC   C3B61341  12.347  24.401   7.008
 4851POPC   C4B61342  12.308  24.673   7.389
 4852POPC   NC361343  14.771  17.395   5.444
 4852POPC   PO461344  14.102  17.160   5.506
 4852POPC   GL161345  14.125  17.357   5.908
 4852POPC   GL261346  14.455  17.492   5.836
 4852POPC   C1A61347  14.291  17.566   6.289
 4852POPC   D2A61348  14.518  17.441   6.646
 4852POPC   C3A61349  14.323  17.654   6.984
 4852POPC   C4A61350  13.981  17.511   7.237
 4852POPC   C1B61351  14.744  17.300   6.124
 4852POPC   C2B61352  14.905  17.090   6.493
 4852POPC   C3B61353  14.834  17.125   6.946
 4852POPC   C4B61354  14.696  16.945   7.306
 4853POPC   NC361355  18.083  34.015   5.346
 4853POPC   PO461356  18.689  33.653   5.428
 4853POPC   GL161357  18.398  33.755   5.729
 4853POPC   GL261358  18.361  34.097   5.802
 4853POPC   C1A61359  18.506  33.762   6.175
 4853POPC   D2A61360  18.575  33.494   6.535
 4853POPC   C3A61361  18.467  33.758   6.849
 4853POPC   C4A61362  18.324  33.871   7.206
 4853POPC   C1B61363  17.998  34.008   6.084
 4853POPC   C2B61364  17.751  34.042   6.482
 4853POPC   C3B61365  17.898  33.977   6.900
 4853POPC   C4B61366  17.960  34.208   7.288
 4854POPC   NC361367  26.489   4.048   5.491
 4854POPC   PO461368  26.046   4.502   5.176
 4854POPC   GL161369  26.086   4.595   5.679
 4854POPC   GL261370  26.297   4.331   5.857
 4854POPC   C1A61371  25.888   4.411   6.116
 4854POPC   D2A61372  25.861   4.179   6.482
 4854POPC   C3A61373  25.938   4.340   6.891
 4854POPC   C4A61374  25.689   4.343   7.253
 4854POPC   C1B61375  26.355   3.998   6.183
 4854POPC   C2B61376  26.480   4.055   6.609
 4854POPC   C3B61377  26.321   3.951   7.007
 4854POPC   C4B61378  26.173   4.198   7.332
 4855POPC   NC361379  42.465   3.308   5.450
 4855POPC   PO461380  42.074   3.735   5.430
 4855POPC   GL161381  42.118   3.486   5.798
 4855POPC   GL261382  42.416   3.667   5.881
 4855POPC   C1A61383  42.205   3.323   6.204
 4855POPC   D2A61384  42.214   3.495   6.612
 4855POPC   C3A61385  42.603   3.485   6.834
 4855POPC   C4A61386  42.671   3.372   7.245
 4855POPC   C1B61387  42.091   3.936   6.106
 4855POPC   C2B61388  42.039   4.087   6.546
 4855POPC   C3B61389  42.288   3.945   6.885
 4855POPC   C4B61390  42.280   3.693   7.243
 4856POPC   NC361391  34.122  19.972   5.653
 4856POPC   PO461392  33.598  19.814   5.223
 4856POPC   GL161393  33.610  19.772   5.699
 4856POPC   GL261394  33.872  19.565   5.810
 4856POPC   C1A61395  33.596  19.846   6.164
 4856POPC   D2A61396  33.737  19.851   6.610
 4856POPC   C3A61397  33.504  19.889   7.011
 4856POPC   C4A61398  33.658  19.822   7.439
 4856POPC   C1B61399  34.060  19.644   6.228
 4856POPC   C2B61400  34.045  19.440   6.624
 4856POPC   C3B61401  33.950  19.623   7.026
 4856POPC   C4B61402  34.139  19.629   7.420
 4857POPC   NC361403   3.735  16.848   5.469
 4857POPC   PO461404   3.257  16.299   5.490
 4857POPC   GL161405   3.377  16.641   5.807
 4857POPC   GL261406   3.177  17.003   5.821
 4857POPC   C1A61407   3.615  16.552   6.181
 4857POPC   D2A61408   3.633  16.448   6.624
 4857POPC   C3A61409   3.383  16.707   6.897
 4857POPC   C4A61410   3.404  16.799   7.328
 4857POPC   C1B61411   3.504  17.046   6.124
 4857POPC   C2B61412   3.563  17.067   6.563
 4857POPC   C3B61413   3.848  16.902   6.866
 4857POPC   C4B61414   3.951  16.926   7.264
 4858POPC   NC361415   3.327  10.843   5.444
 4858POPC   PO461416   3.837  11.271   5.440
 4858POPC   GL161417   3.742  11.464   5.851
 4858POPC   GL261418   3.394  11.305   5.864
 4858POPC   C1A61419   3.689  11.333   6.275
 4858POPC   D2A61420   3.572  10.895   6.396
 4858POPC   C3A61421   3.510  10.926   6.820
 4858POPC   C4A61422   3.689  11.254   7.100
 4858POPC   C1B61423   3.162  11.199   6.264
 4858POPC   C2B61424   3.166  11.305   6.718
 4858POPC   C3B61425   3.263  11.537   7.114
 4858POPC   C4B61426   3.285  11.553   7.586
 4859POPC   NC361427  25.701  43.316   5.477
 4859POPC   PO461428  25.092  42.932   5.507
 4859POPC   GL161429  25.358  43.033   5.891
 4859POPC   GL261430  25.495  43.374   5.957
 4859POPC   C1A61431  25.390  43.043   6.364
 4859POPC   D2A61432  25.140  42.995   6.751
 4859POPC   C3A61433  25.323  42.869   7.178
 4859POPC   C4A61434  25.111  42.686   7.564
 4859POPC   C1B61435  25.123  43.495   6.235
 4859POPC   C2B61436  24.965  43.484   6.695
 4859POPC   C3B61437  25.076  43.334   7.124
 4859POPC   C4B61438  25.389  43.401   7.459
 4860POPC   NC361439  34.466  40.638   5.246
 4860POPC   PO461440  34.930  40.147   5.497
 4860POPC   GL161441  34.781  40.579   5.709
 4860POPC   GL261442  34.458  40.779   5.747
 4860POPC   C1A61443  34.721  40.779   6.170
 4860POPC   D2A61444  34.597  40.647   6.609
 4860POPC   C3A61445  34.812  40.876   6.955
 4860POPC   C4A61446  34.712  41.045   7.394
 4860POPC   C1B61447  34.198  40.860   6.130
 4860POPC   C2B61448  34.001  40.702   6.511
 4860POPC   C3B61449  34.191  40.797   6.907
 4860POPC   C4B61450  34.491  40.586   7.187
 4861POPC   NC361451   8.636   6.854   5.282
 4861POPC   PO461452   9.166   6.466   5.306
 4861POPC   GL161453   9.059   6.627   5.725
 4861POPC   GL261454   8.711   6.646   5.769
 4861POPC   C1A61455   9.183   6.864   6.125
 4861POPC   D2A61456   9.346   6.849   6.571
 4861POPC   C3A61457   9.077   6.706   6.919
 4861POPC   C4A61458   8.964   6.446   7.276
 4861POPC   C1B61459   8.777   6.582   6.234
 4861POPC   C2B61460   8.655   6.523   6.668
 4861POPC   C3B61461   8.534   6.744   7.045
 4861POPC   C4B61462   8.540   6.619   7.486
 4862POPC   NC361463  13.297  40.319   5.501
 4862POPC   PO461464  13.897  40.108   5.265
 4862POPC   GL161465  13.705  39.955   5.647
 4862POPC   GL261466  13.717  40.251   5.793
 4862POPC   C1A61467  13.659  39.792   6.090
 4862POPC   D2A61468  13.770  39.956   6.515
 4862POPC   C3A61469  13.705  39.758   6.908
 4862POPC   C4A61470  13.662  39.585   7.304
 4862POPC   C1B61471  13.661  40.362   6.199
 4862POPC   C2B61472  13.681  40.454   6.627
 4862POPC   C3B61473  13.639  40.282   7.029
 4862POPC   C4B61474  13.576  40.071   7.426
 4863POPC   NC361475   8.392  11.985   5.237
 4863POPC   PO461476   7.986  12.399   5.431
 4863POPC   GL161477   8.217  12.281   5.824
 4863POPC   GL261478   8.166  11.936   5.811
 4863POPC   C1A61479   8.294  12.198   6.317
 4863POPC   D2A61480   8.406  12.210   6.757
 4863POPC   C3A61481   8.149  12.158   7.120
 4863POPC   C4A61482   8.442  11.868   7.279
 4863POPC   C1B61483   8.009  11.805   6.220
 4863POPC   C2B61484   7.942  11.947   6.658
 4863POPC   C3B61485   7.951  11.687   7.046
 4863POPC   C4B61486   7.946  11.754   7.505
 4864POPC   NC361487  22.650   6.295   5.446
 4864POPC   PO461488  23.236   5.901   5.356
 4864POPC   GL161489  23.205   5.864   5.795
 4864POPC   GL261490  23.373   5.551   5.786
 4864POPC   C1A61491  23.033   6.116   6.171
 4864POPC   D2A61492  22.806   6.302   6.548
 4864POPC   C3A61493  22.872   6.013   6.874
 4864POPC   C4A61494  23.183   6.108   7.153
 4864POPC   C1B61495  23.165   5.433   6.137
 4864POPC   C2B61496  23.244   5.464   6.549
 4864POPC   C3B61497  23.316   5.410   6.960
 4864POPC   C4B61498  23.000   5.614   7.196
 4865POPC   NC361499  16.509  22.198   5.854
 4865POPC   PO461500  16.855  22.552   5.347
 4865POPC   GL161501  17.025  22.377   5.790
 4865POPC   GL261502  17.028  22.019   5.826
 4865POPC   C1A61503  16.978  22.440   6.272
 4865POPC   D2A61504  16.605  22.659   6.493
 4865POPC   C3A61505  16.629  22.571   6.929
 4865POPC   C4A61506  17.002  22.401   7.133
 4865POPC   C1B61507  16.974  21.935   6.283
 4865POPC   C2B61508  17.149  21.720   6.658
 4865POPC   C3B61509  17.059  21.871   7.076
 4865POPC   C4B61510  16.610  21.998   7.070
 4866POPC   NC361511  28.812  35.592   5.552
 4866POPC   PO461512  28.331  35.106   5.400
 4866POPC   GL161513  28.194  35.381   5.770
 4866POPC   GL261514  28.195  35.758   5.687
 4866POPC   C1A61515  28.116  35.323   6.245
 4866POPC   D2A61516  27.924  35.169   6.623
 4866POPC   C3A61517  28.131  35.430   6.904
 4866POPC   C4A61518  28.438  35.576   7.165
 4866POPC   C1B61519  28.437  35.693   6.118
 4866POPC   C2B61520  28.704  35.622   6.506
 4866POPC   C3B61521  28.778  35.894   6.872
 4866POPC   C4B61522  28.800  35.901   7.337
 4867POPC   NC361523  12.070  14.896   5.356
 4867POPC   PO461524  12.391  15.429   5.385
 4867POPC   GL161525  12.052  15.238   5.732
 4867POPC   GL261526  11.936  14.903   5.839
 4867POPC   C1A61527  11.942  15.279   6.208
 4867POPC   D2A61528  11.944  15.318   6.686
 4867POPC   C3A61529  12.202  15.216   7.057
 4867POPC   C4A61530  11.982  15.453   7.362
 4867POPC   C1B61531  12.319  14.971   6.084
 4867POPC   C2B61532  12.175  14.875   6.497
 4867POPC   C3B61533  11.861  14.816   6.813
 4867POPC   C4B61534  11.703  15.092   7.125
 4868POPC   NC361535   9.491  44.075   5.366
 4868POPC   PO461536   8.954  43.600   5.393
 4868POPC   GL161537   8.878  43.765   5.836
 4868POPC   GL261538   8.849  44.169   5.870
 4868POPC   C1A61539   9.045  43.858   6.249
 4868POPC   D2A61540   9.214  44.162   6.564
 4868POPC   C3A61541   9.167  43.971   6.951
 4868POPC   C4A61542   9.276  43.686   7.271
 4868POPC   C1B61543   8.626  44.144   6.254
 4868POPC   C2B61544   8.693  43.926   6.646
 4868POPC   C3B61545   8.606  43.972   7.079
 4868POPC   C4B61546   8.891  44.045   7.380
 4869POPC   NC361547  42.142  20.278   4.994
 4869POPC   PO461548  42.436  20.599   5.455
 4869POPC   GL161549  42.333  20.610   5.889
 4869POPC   GL261550  42.252  20.307   5.909
 4869POPC   C1A61551  42.293  20.599   6.366
 4869POPC   D2A61552  42.370  20.871   6.732
 4869POPC   C3A61553  42.584  20.659   7.072
 4869POPC   C4A61554  42.404  20.230   7.335
 4869POPC   C1B61555  42.605  20.225   6.202
 4869POPC   C2B61556  42.659  20.344   6.634
 4869POPC   C3B61557  42.776  20.193   7.013
 4869POPC   C4B61558  42.844  20.445   7.448
 4870POPC   NC361559   4.388  36.551   5.327
 4870POPC   PO461560   4.439  37.251   5.137
 4870POPC   GL161561   4.435  37.044   5.605
 4870POPC   GL261562   4.313  36.719   5.804
 4870POPC   C1A61563   4.326  37.174   6.045
 4870POPC   D2A61564   4.513  37.117   6.451
 4870POPC   C3A61565   4.414  37.340   6.795
 4870POPC   C4A61566   4.500  37.037   7.113
 4870POPC   C1B61567   4.225  36.724   6.273
 4870POPC   C2B61568   4.149  36.865   6.738
 4870POPC   C3B61569   4.076  36.729   7.173
 4870POPC   C4B61570   3.832  36.480   7.475
 4871POPC   NC361571  41.890  15.021   5.475
 4871POPC   PO461572  42.481  15.266   5.264
 4871POPC   GL161573  42.366  15.118   5.665
 4871POPC   GL261574  42.152  15.413   5.761
 4871POPC   C1A61575  42.402  15.145   6.139
 4871POPC   D2A61576  42.244  15.304   6.528
 4871POPC   C3A61577  42.405  15.225   6.932
 4871POPC   C4A61578  42.262  14.859   7.173
 4871POPC   C1B61579  41.887  15.340   6.149
 4871POPC   C2B61580  41.730  15.270   6.584
 4871POPC   C3B61581  41.902  15.272   6.996
 4871POPC   C4B61582  41.879  15.573   7.327
 4872POPC   NC361583  16.931  29.558   5.360
 4872POPC   PO461584  16.833  28.888   5.461
 4872POPC   GL161585  16.753  29.230   5.728
 4872POPC   GL261586  17.117  29.299   5.770
 4872POPC   C1A61587  16.626  29.191   6.156
 4872POPC   D2A61588  16.449  28.941   6.502
 4872POPC   C3A61589  16.479  29.133   6.868
 4872POPC   C4A61590  16.602  29.269   7.234
 4872POPC   C1B61591  17.050  29.469   6.188
 4872POPC   C2B61592  16.939  29.321   6.630
 4872POPC   C3B61593  17.063  29.177   7.058
 4872POPC   C4B61594  17.075  29.345   7.500
 4873POPC   NC361595  29.319  44.934   5.598
 4873POPC   PO461596  28.833  44.451   5.509
 4873POPC   GL161597  28.921  44.784   5.862
 4873POPC   GL261598  29.248  44.630   6.010
 4873POPC   C1A61599  29.050   0.014   6.261
 4873POPC   D2A61600  29.254  44.725   6.582
 4873POPC   C3A61601  29.137  44.683   7.032
 4873POPC   C4A61602  29.100  44.490   7.441
 4873POPC   C1B61603  29.617  44.814   6.205
 4873POPC   C2B61604  29.835  44.824   6.591
 4873POPC   C3B61605  29.623  44.903   6.962
 4873POPC   C4B61606  29.457  44.876   7.381
 4874POPC   NC361607  42.749  27.421   5.347
 4874POPC   PO461608  43.426  27.495   5.126
 4874POPC   GL161609  43.208  27.482   5.590
 4874POPC   GL261610  43.298  27.734   5.824
 4874POPC   C1A61611  42.896  27.456   5.986
 4874POPC   D2A61612  42.899  27.477   6.464
 4874POPC   C3A61613  42.733  27.353   6.872
 4874POPC   C4A61614  42.888  27.438   7.259
 4874POPC   C1B61615  43.339  27.571   6.225
 4874POPC   C2B61616  43.309  27.769   6.622
 4874POPC   C3B61617  43.171  27.790   7.034
 4874POPC   C4B61618  43.311  27.708   7.427
 4875POPC   NC361619  36.369   7.046   5.321
 4875POPC   PO461620  35.999   7.671   5.350
 4875POPC   GL161621  36.212   7.597   5.754
 4875POPC   GL261622  36.179   7.247   5.758
 4875POPC   C1A61623  36.374   7.764   6.191
 4875POPC   D2A61624  36.474   7.564   6.601
 4875POPC   C3A61625  36.410   7.789   6.975
 4875POPC   C4A61626  36.239   7.691   7.356
 4875POPC   C1B61627  36.023   7.391   6.175
 4875POPC   C2B61628  36.071   7.255   6.571
 4875POPC   C3B61629  36.146   7.316   6.992
 4875POPC   C4B61630  35.786   7.422   7.198
 4876POPC   NC361631  44.258   2.626   5.265
 4876POPC   PO461632  43.569   2.852   5.303
 4876POPC   GL161633  43.856   2.700   5.658
 4876POPC   GL261634  44.019   3.008   5.805
 4876POPC   C1A61635  43.889   2.601   6.138
 4876POPC   D2A61636  43.736   2.899   6.519
 4876POPC   C3A61637  43.724   2.645   6.933
 4876POPC   C4A61638  43.752   2.908   7.323
 4876POPC   C1B61639  44.208   2.977   6.211
 4876POPC   C2B61640  44.192   2.738   6.611
 4876POPC   C3B61641  44.148   2.887   7.007
 4876POPC   C4B61642  44.210   2.675   7.432
 4877POPC   NC361643  22.347  16.282   5.652
 4877POPC   PO461644  21.748  15.938   5.477
 4877POPC   GL161645  22.061  15.888   5.769
 4877POPC   GL261646  21.902  16.202   5.916
 4877POPC   C1A61647  22.350  15.848   6.146
 4877POPC   D2A61648  22.420  16.121   6.506
 4877POPC   C3A61649  22.396  15.961   6.927
 4877POPC   C4A61650  22.605  16.194   7.261
 4877POPC   C1B61651  21.823  15.837   6.198
 4877POPC   C2B61652  22.001  15.824   6.606
 4877POPC   C3B61653  21.860  15.957   6.983
 4877POPC   C4B61654  22.020  15.967   7.390
 4878POPC   NC361655  32.797  24.745   4.988
 4878POPC   PO461656  33.083  24.223   5.243
 4878POPC   GL161657  33.210  24.251   5.747
 4878POPC   GL261658  33.133  24.575   5.847
 4878POPC   C1A61659  33.109  24.276   6.237
 4878POPC   D2A61660  33.251  24.193   6.696
 4878POPC   C3A61661  33.031  24.369   7.103
 4878POPC   C4A61662  33.045  24.359   7.616
 4878POPC   C1B61663  33.196  24.826   6.232
 4878POPC   C2B61664  33.238  24.721   6.677
 4878POPC   C3B61665  33.139  24.865   7.075
 4878POPC   C4B61666  33.171  24.898   7.518
 4879POPC   NC361667   5.217  39.076   5.252
 4879POPC   PO461668   4.635  39.362   5.396
 4879POPC   GL161669   4.991  39.268   5.690
 4879POPC   GL261670   4.901  39.535   5.946
 4879POPC   C1A61671   5.213  39.154   6.118
 4879POPC   D2A61672   5.027  39.351   6.522
 4879POPC   C3A61673   5.287  39.315   6.916
 4879POPC   C4A61674   5.439  38.982   7.171
 4879POPC   C1B61675   4.722  39.103   6.079
 4879POPC   C2B61676   4.698  38.892   6.473
 4879POPC   C3B61677   4.775  38.958   6.922
 4879POPC   C4B61678   4.817  39.398   7.091
 4880POPC   NC361679  34.506  32.893   5.446
 4880POPC   PO461680  34.564  33.538   5.238
 4880POPC   GL161681  34.578  33.421   5.734
 4880POPC   GL261682  34.507  33.092   5.909
 4880POPC   C1A61683  34.880  33.340   6.134
 4880POPC   D2A61684  34.672  33.075   6.440
 4880POPC   C3A61685  34.670  33.074   6.888
 4880POPC   C4A61686  34.382  33.237   7.164
 4880POPC   C1B61687  34.333  32.771   6.193
 4880POPC   C2B61688  34.461  32.639   6.613
 4880POPC   C3B61689  34.289  32.742   7.011
 4880POPC   C4B61690  34.535  32.781   7.358
 4881POPC   NC361691  44.513   4.897   5.561
 4881POPC   PO461692  44.017   5.170   5.193
 4881POPC   GL161693  43.773   5.198   5.626
 4881POPC   GL261694  43.860   4.869   5.752
 4881POPC   C1A61695  43.698   5.152   6.133
 4881POPC   D2A61696  43.604   5.316   6.585
 4881POPC   C3A61697  43.914   5.215   6.933
 4881POPC   C4A61698  44.258   5.386   7.193
 4881POPC   C1B61699  43.982   4.683   6.144
 4881POPC   C2B61700  43.912   4.822   6.559
 4881POPC   C3B61701  43.953   4.642   6.951
 4881POPC   C4B61702  43.839   4.870   7.317
 4882POPC   NC361703  35.913   6.159   5.391
 4882POPC   PO461704  35.910   6.803   5.270
 4882POPC   GL161705  36.123   6.719   5.676
 4882POPC   GL261706  36.278   6.389   5.642
 4882POPC   C1A61707  36.140   6.882   6.115
 4882POPC   D2A61708  35.948   6.767   6.505
 4882POPC   C3A61709  36.250   6.819   6.811
 4882POPC   C4A61710  36.493   6.808   7.150
 4882POPC   C1B61711  36.316   6.410   6.086
 4882POPC   C2B61712  36.262   6.372   6.523
 4882POPC   C3B61713  36.497   6.362   6.883
 4882POPC   C4B61714  36.215   6.412   7.198
 4883POPC   NC361715   4.511  42.939   5.325
 4883POPC   PO461716   5.226  43.074   5.408
 4883POPC   GL161717   5.055  43.223   5.778
 4883POPC   GL261718   5.082  42.930   6.032
 4883POPC   C1A61719   5.181  43.397   6.147
 4883POPC   D2A61720   5.131  43.123   6.519
 4883POPC   C3A61721   5.321  43.318   6.863
 4883POPC   C4A61722   5.169  43.342   7.251
 4883POPC   C1B61723   5.515  43.006   6.164
 4883POPC   C2B61724   5.641  42.972   6.614
 4883POPC   C3B61725   5.437  42.835   7.034
 4883POPC   C4B61726   5.240  42.898   7.478
 4884POPC   NC361727   3.007  26.754   5.400
 4884POPC   PO461728   2.547  27.224   5.406
 4884POPC   GL161729   2.610  26.964   5.762
 4884POPC   GL261730   2.941  27.058   5.797
 4884POPC   C1A61731   2.498  26.843   6.200
 4884POPC   D2A61732   2.487  26.609   6.585
 4884POPC   C3A61733   2.590  26.736   6.973
 4884POPC   C4A61734   2.355  26.829   7.343
 4884POPC   C1B61735   3.019  26.865   6.177
 4884POPC   C2B61736   2.957  26.867   6.603
 4884POPC   C3B61737   3.107  26.652   6.963
 4884POPC   C4B61738   3.030  26.841   7.322
 4885POPC   NC361739  41.801  10.784   5.258
 4885POPC   PO461740  41.569  10.183   5.409
 4885POPC   GL161741  41.720  10.419   5.732
 4885POPC   GL261742  41.361  10.473   5.871
 4885POPC   C1A61743  41.749  10.394   6.188
 4885POPC   D2A61744  41.457  10.339   6.538
 4885POPC   C3A61745  41.603  10.528   6.892
 4885POPC   C4A61746  41.810  10.555   7.252
 4885POPC   C1B61747  41.220  10.708   6.250
 4885POPC   C2B61748  41.099  10.680   6.700
 4885POPC   C3B61749  41.269  10.873   7.057
 4885POPC   C4B61750  41.373  10.759   7.504
 4886POPC   NC361751   1.376  23.965   5.410
 4886POPC   PO461752   0.691  23.855   5.411
 4886POPC   GL161753   1.010  23.934   5.774
 4886POPC   GL261754   1.267  23.676   5.816
 4886POPC   C1A61755   1.159  23.973   6.230
 4886POPC   D2A61756   0.982  23.719   6.599
 4886POPC   C3A61757   0.889  23.844   7.029
 4886POPC   C4A61758   1.064  24.089   7.340
 4886POPC   C1B61759   1.287  23.470   6.237
 4886POPC   C2B61760   1.470  23.609   6.638
 4886POPC   C3B61761   1.391  23.685   7.076
 4886POPC   C4B61762   1.535  23.881   7.435
 4887POPC   NC361763  33.625  39.289   5.337
 4887POPC   PO461764  34.107  39.701   5.403
 4887POPC   GL161765  33.892  39.529   5.801
 4887POPC   GL261766  33.710  39.178   5.831
 4887POPC   C1A61767  33.793  39.441   6.260
 4887POPC   D2A61768  33.619  39.333   6.675
 4887POPC   C3A61769  33.848  39.350   7.062
 4887POPC   C4A61770  33.806  39.502   7.486
 4887POPC   C1B61771  33.653  38.953   6.269
 4887POPC   C2B61772  33.663  38.830   6.741
 4887POPC   C3B61773  33.675  38.887   7.216
 4887POPC   C4B61774  33.512  38.732   7.636
 4888POPC   NC361775  40.128  39.624   5.531
 4888POPC   PO461776  39.628  40.097   5.326
 4888POPC   GL161777  39.858  40.022   5.719
 4888POPC   GL261778  40.146  40.204   5.826
 4888POPC   C1A61779  39.787  39.950   6.152
 4888POPC   D2A61780  39.974  39.975   6.537
 4888POPC   C3A61781  39.754  39.885   6.890
 4888POPC   C4A61782  39.842  39.990   7.295
 4888POPC   C1B61783  40.304  39.900   6.126
 4888POPC   C2B61784  40.463  39.780   6.543
 4888POPC   C3B61785  40.284  39.891   6.955
 4888POPC   C4B61786  40.346  39.767   7.374
 4889POPC   NC361787   8.436  20.259   5.477
 4889POPC   PO461788   7.956  20.719   5.413
 4889POPC   GL161789   8.231  20.680   5.728
 4889POPC   GL261790   8.369  21.040   5.748
 4889POPC   C1A61791   8.282  20.494   6.153
 4889POPC   D2A61792   7.968  20.556   6.459
 4889POPC   C3A61793   8.057  20.656   6.861
 4889POPC   C4A61794   8.339  20.585   7.141
 4889POPC   C1B61795   8.049  20.986   6.079
 4889POPC   C2B61796   8.072  21.063   6.505
 4889POPC   C3B61797   8.155  21.147   6.931
 4889POPC   C4B61798   7.986  21.044   7.288
 4890POPC   NC361799   9.669  20.927   5.533
 4890POPC   PO461800   9.698  20.271   5.585
 4890POPC   GL161801   9.881  20.553   5.831
 4890POPC   GL261802  10.195  20.365   5.858
 4890POPC   C1A61803   9.591  20.675   6.158
 4890POPC   D2A61804   9.284  20.531   6.429
 4890POPC   C3A61805   9.372  20.545   6.862
 4890POPC   C4A61806   9.446  20.738   7.252
 4890POPC   C1B61807   9.948  20.303   6.262
 4890POPC   C2B61808   9.850  20.581   6.610
 4890POPC   C3B61809   9.870  20.559   7.042
 4890POPC   C4B61810  10.021  20.836   7.342
 4891POPC   NC361811  38.051   2.309   5.490
 4891POPC   PO461812  38.231   2.888   5.208
 4891POPC   GL161813  38.273   2.745   5.730
 4891POPC   GL261814  38.345   2.411   5.866
 4891POPC   C1A61815  38.596   2.756   6.122
 4891POPC   D2A61816  38.609   2.967   6.519
 4891POPC   C3A61817  38.692   2.840   6.952
 4891POPC   C4A61818  38.466   2.894   7.312
 4891POPC   C1B61819  38.265   2.381   6.275
 4891POPC   C2B61820  38.445   2.497   6.624
 4891POPC   C3B61821  38.255   2.577   6.958
 4891POPC   C4B61822  38.299   2.317   7.276
 4892POPC   NC361823  31.434  11.896   5.371
 4892POPC   PO461824  31.536  12.680   5.422
 4892POPC   GL161825  31.433  12.384   5.778
 4892POPC   GL261826  31.605  12.052   5.848
 4892POPC   C1A61827  31.363  12.293   6.223
 4892POPC   D2A61828  31.416  12.086   6.646
 4892POPC   C3A61829  31.458  12.237   7.074
 4892POPC   C4A61830  31.596  12.042   7.477
 4892POPC   C1B61831  31.763  11.739   6.136
 4892POPC   C2B61832  31.719  11.636   6.558
 4892POPC   C3B61833  31.805  11.781   6.984
 4892POPC   C4B61834  31.739  11.559   7.353
 4893POPC   NC361835  25.050  10.095   5.339
 4893POPC   PO461836  25.524  10.585   5.275
 4893POPC   GL161837  25.394  10.401   5.680
 4893POPC   GL261838  25.133  10.183   5.825
 4893POPC   C1A61839  25.248  10.593   6.091
 4893POPC   D2A61840  25.098  10.768   6.496
 4893POPC   C3A61841  25.409  10.804   6.827
 4893POPC   C4A61842  25.467  10.627   7.224
 4893POPC   C1B61843  25.199  10.068   6.236
 4893POPC   C2B61844  25.162  10.264   6.622
 4893POPC   C3B61845  25.338  10.170   7.008
 4893POPC   C4B61846  25.171  10.228   7.378
 4894POPC   NC361847   9.223   8.356   5.567
 4894POPC   PO461848   8.678   7.944   5.533
 4894POPC   GL161849   8.949   8.028   5.875
 4894POPC   GL261850   9.064   8.357   6.061
 4894POPC   C1A61851   8.762   7.998   6.241
 4894POPC   D2A61852   8.888   8.234   6.562
 4894POPC   C3A61853   8.767   8.139   6.937
 4894POPC   C4A61854   9.002   8.046   7.299
 4894POPC   C1B61855   8.896   8.699   6.347
 4894POPC   C2B61856   8.757   8.669   6.799
 4894POPC   C3B61857   9.053   8.540   7.125
 4894POPC   C4B61858   9.099   8.498   7.579
 4895POPC   NC361859  36.431  11.303   5.313
 4895POPC   PO461860  35.862  11.560   5.453
 4895POPC   GL161861  36.201  11.474   5.750
 4895POPC   GL261862  36.142  11.139   5.910
 4895POPC   C1A61863  36.429  11.513   6.122
 4895POPC   D2A61864  36.336  11.279   6.496
 4895POPC   C3A61865  36.252  11.496   6.889
 4895POPC   C4A61866  36.064  11.353   7.268
 4895POPC   C1B61867  35.843  11.145   6.295
 4895POPC   C2B61868  35.926  11.105   6.754
 4895POPC   C3B61869  35.835  10.904   7.137
 4895POPC   C4B61870  35.744  11.025   7.536
 4896POPC   NC361871  41.684  28.975   5.121
 4896POPC   PO461872  41.074  28.995   5.232
 4896POPC   GL161873  41.370  29.007   5.645
 4896POPC   GL261874  41.722  28.912   5.634
 4896POPC   C1A61875  41.629  29.222   6.016
 4896POPC   D2A61876  41.632  29.203   6.485
 4896POPC   C3A61877  41.321  29.305   6.823
 4896POPC   C4A61878  41.542  29.292   7.203
 4896POPC   C1B61879  41.788  28.733   6.058
 4896POPC   C2B61880  41.724  28.681   6.510
 4896POPC   C3B61881  41.666  28.856   6.937
 4896POPC   C4B61882  41.890  28.904   7.329
 4897POPC   NC361883  27.191  42.895   5.378
 4897POPC   PO461884  26.748  43.347   5.062
 4897POPC   GL161885  26.916  43.268   5.611
 4897POPC   GL261886  26.694  43.069   5.828
 4897POPC   C1A61887  26.917  43.386   6.139
 4897POPC   D2A61888  26.806  43.281   6.630
 4897POPC   C3A61889  26.472  43.270   7.020
 4897POPC   C4A61890  26.518  43.313   7.554
 4897POPC   C1B61891  26.736  42.849   6.185
 4897POPC   C2B61892  26.850  42.735   6.565
 4897POPC   C3B61893  26.808  42.870   6.953
 4897POPC   C4B61894  26.915  43.146   7.295
 4898POPC   NC361895  11.602  11.771   5.461
 4898POPC   PO461896  11.142  12.261   5.484
 4898POPC   GL161897  11.107  12.020   5.860
 4898POPC   GL261898  11.440  11.894   5.933
 4898POPC   C1A61899  11.143  12.110   6.304
 4898POPC   D2A61900  11.369  12.304   6.636
 4898POPC   C3A61901  11.351  12.135   7.036
 4898POPC   C4A61902  11.003  12.037   7.287
 4898POPC   C1B61903  11.624  11.952   6.341
 4898POPC   C2B61904  11.575  11.752   6.712
 4898POPC   C3B61905  11.702  11.731   7.114
 4898POPC   C4B61906  11.488  11.861   7.473
 4899POPC   NC361907  13.190  12.992   5.448
 4899POPC   PO461908  12.643  12.641   5.533
 4899POPC   GL161909  12.904  12.827   5.832
 4899POPC   GL261910  12.765  13.160   5.769
 4899POPC   C1A61911  13.047  12.799   6.260
 4899POPC   D2A61912  12.792  12.753   6.628
 4899POPC   C3A61913  12.974  12.753   7.029
 4899POPC   C4A61914  12.832  12.566   7.372
 4899POPC   C1B61915  12.553  12.997   6.158
 4899POPC   C2B61916  12.495  13.163   6.580
 4899POPC   C3B61917  12.513  13.004   7.003
 4899POPC   C4B61918  12.546  13.331   7.336
 4900POPC   NC361919  17.253  28.693   5.550
 4900POPC   PO461920  17.590  29.230   5.257
 4900POPC   GL161921  17.597  29.061   5.681
 4900POPC   GL261922  17.762  28.776   5.765
 4900POPC   C1A61923  17.454  29.007   6.115
 4900POPC   D2A61924  17.481  29.323   6.426
 4900POPC   C3A61925  17.541  29.209   6.829
 4900POPC   C4A61926  17.453  29.499   7.134
 4900POPC   C1B61927  17.822  28.612   6.190
 4900POPC   C2B61928  17.657  28.727   6.609
 4900POPC   C3B61929  17.709  28.785   7.073
 4900POPC   C4B61930  17.905  29.035   7.421
 4901POPC   NC361931  34.355  15.049   5.501
 4901POPC   PO461932  34.622  14.426   5.326
 4901POPC   GL161933  34.770  14.512   5.786
 4901POPC   GL261934  34.449  14.641   5.839
 4901POPC   C1A61935  34.675  14.303   6.238
 4901POPC   D2A61936  34.742  14.048   6.669
 4901POPC   C3A61937  34.689  14.176   7.126
 4901POPC   C4A61938  34.756  14.137   7.612
 4901POPC   C1B61939  34.401  14.744   6.272
 4901POPC   C2B61940  34.445  14.527   6.668
 4901POPC   C3B61941  34.287  14.478   7.062
 4901POPC   C4B61942  34.520  14.588   7.419
 4902POPC   NC361943  30.426   8.505   5.568
 4902POPC   PO461944  30.999   8.102   5.427
 4902POPC   GL161945  30.829   8.144   5.780
 4902POPC   GL261946  30.521   7.976   5.744
 4902POPC   C1A61947  30.879   8.398   6.147
 4902POPC   D2A61948  30.676   8.658   6.426
 4902POPC   C3A61949  30.749   8.455   6.815
 4902POPC   C4A61950  30.950   8.497   7.183
 4902POPC   C1B61951  30.673   7.862   6.176
 4902POPC   C2B61952  30.534   7.758   6.585
 4902POPC   C3B61953  30.582   7.815   7.011
 4902POPC   C4B61954  30.975   7.908   7.186
 4903POPC   NC361955   4.947  41.631   5.378
 4903POPC   PO461956   5.565  41.596   5.375
 4903POPC   GL161957   5.286  41.712   5.748
 4903POPC   GL261958   5.173  41.352   5.791
 4903POPC   C1A61959   5.009  41.688   6.158
 4903POPC   D2A61960   5.141  41.821   6.595
 4903POPC   C3A61961   5.073  41.592   6.957
 4903POPC   C4A61962   5.212  41.560   7.366
 4903POPC   C1B61963   4.972  41.120   6.126
 4903POPC   C2B61964   4.967  41.282   6.534
 4903POPC   C3B61965   4.712  41.249   6.889
 4903POPC   C4B61966   4.535  41.204   7.273
 4904POPC   NC361967  41.772   0.232   5.543
 4904POPC   PO461968  41.219   0.622   5.508
 4904POPC   GL161969  41.480   0.520   5.865
 4904POPC   GL261970  41.862   0.567   5.946
 4904POPC   C1A61971  41.427   0.277   6.240
 4904POPC   D2A61972  41.395   0.443   6.643
 4904POPC   C3A61973  41.666   0.362   6.955
 4904POPC   C4A61974  41.456   0.064   7.169
 4904POPC   C1B61975  41.634   0.755   6.309
 4904POPC   C2B61976  41.516   0.924   6.710
 4904POPC   C3B61977  41.715   0.865   7.106
 4904POPC   C4B61978  42.047   0.565   7.263
 4905POPC   NC361979   9.261  22.595   5.360
 4905POPC   PO461980   8.950  22.005   5.316
 4905POPC   GL161981   8.996  22.092   5.758
 4905POPC   GL261982   9.267  21.919   5.893
 4905POPC   C1A61983   8.822  22.049   6.177
 4905POPC   D2A61984   8.825  22.291   6.576
 4905POPC   C3A61985   8.872  22.105   6.982
 4905POPC   C4A61986   8.704  22.383   7.209
 4905POPC   C1B61987   9.332  22.113   6.280
 4905POPC   C2B61988   9.310  22.157   6.702
 4905POPC   C3B61989   9.404  22.057   7.101
 4905POPC   C4B61990   9.162  21.906   7.416
 4906POPC   NC361991  39.570  29.820   5.235
 4906POPC   PO461992  39.166  30.323   5.266
 4906POPC   GL161993  39.402  30.179   5.714
 4906POPC   GL261994  39.573  29.827   5.754
 4906POPC   C1A61995  39.319  29.960   6.173
 4906POPC   D2A61996  39.258  29.723   6.591
 4906POPC   C3A61997  39.333  30.010   6.950
 4906POPC   C4A61998  39.165  30.214   7.280
 4906POPC   C1B61999  39.779  29.721   6.176
 4906POPC   C2B62000  39.750  29.602   6.608
 4906POPC   C3B62001  39.625  29.612   7.016
 4906POPC   C4B62002  39.400  29.699   7.389
 4907POPC   NC362003  37.542  23.820   5.279
 4907POPC   PO462004  38.208  23.776   5.338
 4907POPC   GL162005  37.877  23.789   5.710
 4907POPC   GL262006  37.840  23.455   5.872
 4907POPC   C1A62007  37.722  23.854   6.171
 4907POPC   D2A62008  37.749  24.078   6.600
 4907POPC   C3A62009  37.605  23.936   6.990
 4907POPC   C4A62010  37.407  23.584   7.102
 4907POPC   C1B62011  37.935  23.398   6.287
 4907POPC   C2B62012  37.973  23.318   6.716
 4907POPC   C3B62013  37.904  23.501   7.107
 4907POPC   C4B62014  37.920  23.808   7.418
 4908POPC   NC362015  17.764   4.333   5.144
 4908POPC   PO462016  17.857   4.810   5.602
 4908POPC   GL162017  17.709   4.455   5.878
 4908POPC   GL262018  17.390   4.293   5.794
 4908POPC   C1A62019  17.688   4.122   6.220
 4908POPC   D2A62020  17.667   3.910   6.603
 4908POPC   C3A62021  17.563   4.176   6.916
 4908POPC   C4A62022  17.683   4.328   7.311
 4908POPC   C1B62023  17.210   4.296   6.254
 4908POPC   C2B62024  17.114   4.342   6.731
 4908POPC   C3B62025  17.202   4.458   7.200
 4908POPC   C4B62026  17.415   4.603   7.640
 4909POPC   NC362027   5.744  21.423   5.257
 4909POPC   PO462028   6.105  20.913   5.350
 4909POPC   GL162029   5.983  21.228   5.709
 4909POPC   GL262030   5.622  21.310   5.748
 4909POPC   C1A62031   6.000  21.408   6.152
 4909POPC   D2A62032   5.818  21.351   6.574
 4909POPC   C3A62033   6.069  21.422   6.932
 4909POPC   C4A62034   5.961  21.589   7.351
 4909POPC   C1B62035   5.607  21.075   6.141
 4909POPC   C2B62036   5.392  21.088   6.549
 4909POPC   C3B62037   5.574  20.961   6.895
 4909POPC   C4B62038   5.680  21.193   7.203
 4910POPC   NC362039  32.503   5.097   5.017
 4910POPC   PO462040  32.194   4.865   5.561
 4910POPC   GL162041  32.383   5.146   5.762
 4910POPC   GL262042  32.482   4.915   5.991
 4910POPC   C1A62043  32.294   5.352   6.162
 4910POPC   D2A62044  32.310   5.276   6.610
 4910POPC   C3A62045  32.109   5.479   6.985
 4910POPC   C4A62046  32.171   5.285   7.438
 4910POPC   C1B62047  32.109   4.879   6.256
 4910POPC   C2B62048  32.021   4.825   6.673
 4910POPC   C3B62049  32.236   4.987   7.023
 4910POPC   C4B62050  32.575   4.825   7.238
 4911POPC   NC362051  25.179   4.797   5.563
 4911POPC   PO462052  25.478   5.167   5.050
 4911POPC   GL162053  25.208   5.325   5.515
 4911POPC   GL262054  24.886   5.201   5.707
 4911POPC   C1A62055  25.259   5.305   6.036
 4911POPC   D2A62056  25.274   5.157   6.483
 4911POPC   C3A62057  25.501   5.390   6.809
 4911POPC   C4A62058  25.496   5.219   7.206
 4911POPC   C1B62059  24.769   5.235   6.189
 4911POPC   C2B62060  24.847   5.449   6.621
 4911POPC   C3B62061  24.994   5.244   7.023
 4911POPC   C4B62062  24.879   5.110   7.451
 4912POPC   NC362063   6.404  35.157   5.447
 4912POPC   PO462064   6.835  35.665   5.327
 4912POPC   GL162065   6.687  35.490   5.738
 4912POPC   GL262066   6.453  35.241   5.941
 4912POPC   C1A62067   6.689  35.648   6.148
 4912POPC   D2A62068   6.503  35.647   6.532
 4912POPC   C3A62069   6.791  35.662   6.846
 4912POPC   C4A62070   6.555  35.573   7.177
 4912POPC   C1B62071   6.364  35.145   6.387
 4912POPC   C2B62072   6.419  35.203   6.838
 4912POPC   C3B62073   6.499  35.045   7.264
 4912POPC   C4B62074   6.619  34.985   7.722
 4913POPC   NC362075   4.621  28.922   5.451
 4913POPC   PO462076   4.148  29.376   5.342
 4913POPC   GL162077   4.292  29.239   5.721
 4913POPC   GL262078   4.196  28.857   5.709
 4913POPC   C1A62079   4.418  29.403   6.156
 4913POPC   D2A62080   4.309  29.572   6.581
 4913POPC   C3A62081   4.462  29.266   6.898
 4913POPC   C4A62082   4.737  29.265   7.253
 4913POPC   C1B62083   4.073  28.990   6.110
 4913POPC   C2B62084   4.336  28.982   6.477
 4913POPC   C3B62085   4.218  28.798   6.878
 4913POPC   C4B62086   4.412  28.797   7.277
 4914POPC   NC362087  42.005  10.032   5.401
 4914POPC   PO462088  42.426   9.519   5.409
 4914POPC   GL162089  42.331   9.780   5.765
 4914POPC   GL262090  42.099   9.571   5.838
 4914POPC   C1A62091  42.107  10.016   6.116
 4914POPC   D2A62092  41.867  10.004   6.521
 4914POPC   C3A62093  42.165  10.044   6.921
 4914POPC   C4A62094  42.337   9.871   7.321
 4914POPC   C1B62095  41.988   9.547   6.233
 4914POPC   C2B62096  42.204   9.637   6.616
 4914POPC   C3B62097  42.021   9.567   7.044
 4914POPC   C4B62098  41.895   9.129   7.176
 4915POPC   NC362099   5.257   9.353   5.337
 4915POPC   PO462100   4.791   8.903   5.358
 4915POPC   GL162101   4.990   8.818   5.805
 4915POPC   GL262102   5.257   8.606   5.872
 4915POPC   C1A62103   5.200   9.006   6.207
 4915POPC   D2A62104   5.099   9.310   6.530
 4915POPC   C3A62105   5.301   9.252   6.921
 4915POPC   C4A62106   5.236   9.042   7.286
 4915POPC   C1B62107   5.128   8.531   6.323
 4915POPC   C2B62108   5.129   8.809   6.683
 4915POPC   C3B62109   4.857   8.936   6.981
 4915POPC   C4B62110   4.494   8.751   7.044
 4916POPC   NC362111  15.629   1.377   5.151
 4916POPC   PO462112  16.147   1.589   5.560
 4916POPC   GL162113  15.943   1.865   5.821
 4916POPC   GL262114  15.849   2.144   5.606
 4916POPC   C1A62115  15.957   1.946   6.252
 4916POPC   D2A62116  15.723   1.898   6.604
 4916POPC   C3A62117  15.880   1.895   7.032
 4916POPC   C4A62118  16.161   1.865   7.405
 4916POPC   C1B62119  15.869   2.374   5.983
 4916POPC   C2B62120  15.692   2.388   6.401
 4916POPC   C3B62121  15.781   2.362   6.818
 4916POPC   C4B62122  15.993   2.345   7.212
 4917POPC   NC362123  27.874  14.318   5.440
 4917POPC   PO462124  28.571  14.260   5.395
 4917POPC   GL162125  28.303  14.376   5.745
 4917POPC   GL262126  28.167  14.048   5.803
 4917POPC   C1A62127  28.370  14.585   6.156
 4917POPC   D2A62128  28.469  14.761   6.567
 4917POPC   C3A62129  28.673  14.465   6.813
 4917POPC   C4A62130  28.568  14.268   7.161
 4917POPC   C1B62131  28.281  14.082   6.252
 4917POPC   C2B62132  28.217  14.310   6.654
 4917POPC   C3B62133  28.094  14.193   7.081
 4917POPC   C4B62134  28.220  14.199   7.559
 4918POPC   NC362135   4.413  19.505   5.378
 4918POPC   PO462136   4.318  20.155   5.388
 4918POPC   GL162137   4.456  19.892   5.774
 4918POPC   GL262138   4.577  19.548   5.852
 4918POPC   C1A62139   4.472  19.928   6.229
 4918POPC   D2A62140   4.171  19.887   6.596
 4918POPC   C3A62141   4.323  19.939   7.043
 4918POPC   C4A62142   4.266  19.893   7.490
 4918POPC   C1B62143   4.164  19.559   6.046
 4918POPC   C2B62144   4.074  19.409   6.462
 4918POPC   C3B62145   4.126  19.472   6.908
 4918POPC   C4B62146   3.850  19.773   7.106
 4919POPC   NC362147  22.706  14.093   5.468
 4919POPC   PO462148  23.186  14.660   5.325
 4919POPC   GL162149  23.105  14.394   5.681
 4919POPC   GL262150  22.770  14.423   5.873
 4919POPC   C1A62151  23.205  14.483   6.116
 4919POPC   D2A62152  22.909  14.506   6.477
 4919POPC   C3A62153  23.079  14.515   6.872
 4919POPC   C4A62154  23.061  14.280   7.213
 4919POPC   C1B62155  22.496  14.682   6.147
 4919POPC   C2B62156  22.489  14.913   6.533
 4919POPC   C3B62157  22.616  14.738   6.933
 4919POPC   C4B62158  22.605  14.514   7.330
 4920POPC   NC362159  14.133  35.674   5.623
 4920POPC   PO462160  13.567  35.953   5.328
 4920POPC   GL162161  13.730  35.984   5.764
 4920POPC   GL262162  13.449  36.154   5.896
 4920POPC   C1A62163  13.958  36.079   6.176
 4920POPC   D2A62164  14.119  36.099   6.624
 4920POPC   C3A62165  13.767  36.026   6.920
 4920POPC   C4A62166  13.425  36.158   7.184
 4920POPC   C1B62167  13.258  35.946   6.256
 4920POPC   C2B62168  13.302  36.009   6.695
 4920POPC   C3B62169  13.294  35.696   7.016
 4920POPC   C4B62170  13.130  35.727   7.430
 4921POPC   NC362171   9.626   4.794   5.169
 4921POPC   PO462172   9.749   4.232   5.420
 4921POPC   GL162173   9.852   4.438   5.770
 4921POPC   GL262174  10.084   4.144   5.850
 4921POPC   C1A62175   9.744   4.596   6.174
 4921POPC   D2A62176   9.852   4.408   6.562
 4921POPC   C3A62177   9.624   4.321   6.918
 4921POPC   C4A62178   9.702   4.490   7.310
 4921POPC   C1B62179   9.670   4.087   6.105
 4921POPC   C2B62180   9.635   3.942   6.536
 4921POPC   C3B62181   9.968   3.949   6.865
 4921POPC   C4B62182   9.931   4.049   7.276
 4922POPC   NC362183  21.312  34.811   5.361
 4922POPC   PO462184  21.673  34.358   5.609
 4922POPC   GL162185  21.309  34.499   5.810
 4922POPC   GL262186  21.102  34.171   5.921
 4922POPC   C1A62187  21.325  34.802   6.116
 4922POPC   D2A62188  21.529  34.742   6.499
 4922POPC   C3A62189  21.347  34.800   6.895
 4922POPC   C4A62190  21.426  34.569   7.236
 4922POPC   C1B62191  21.320  34.295   6.294
 4922POPC   C2B62192  21.182  34.336   6.714
 4922POPC   C3B62193  21.042  34.246   7.147
 4922POPC   C4B62194  21.313  34.109   7.475
 4923POPC   NC362195  33.141   3.999   5.684
 4923POPC   PO462196  33.169   4.648   5.501
 4923POPC   GL162197  32.978   4.483   5.884
 4923POPC   GL262198  32.679   4.276   5.867
 4923POPC   C1A62199  33.130   4.341   6.294
 4923POPC   D2A62200  33.282   4.094   6.649
 4923POPC   C3A62201  33.370   4.382   7.003
 4923POPC   C4A62202  33.057   4.669   7.214
 4923POPC   C1B62203  32.730   4.032   6.251
 4923POPC   C2B62204  32.716   4.161   6.613
 4923POPC   C3B62205  32.848   4.277   6.963
 4923POPC   C4B62206  32.992   4.162   7.316
 4924POPC   NC362207  24.369   6.077   5.438
 4924POPC   PO462208  24.147   5.510   5.401
 4924POPC   GL162209  24.370   5.704   5.801
 4924POPC   GL262210  24.216   6.051   5.919
 4924POPC   C1A62211  24.549   5.708   6.231
 4924POPC   D2A62212  24.384   5.875   6.615
 4924POPC   C3A62213  24.660   5.869   6.969
 4924POPC   C4A62214  24.734   5.595   7.317
 4924POPC   C1B62215  24.549   6.234   6.170
 4924POPC   C2B62216  24.864   6.117   6.496
 4924POPC   C3B62217  25.063   6.219   6.893
 4924POPC   C4B62218  24.841   6.367   7.242
 4925POPC   NC362219  36.003  19.904   5.338
 4925POPC   PO462220  36.676  19.780   5.307
 4925POPC   GL162221  36.350  19.786   5.694
 4925POPC   GL262222  35.999  20.010   5.828
 4925POPC   C1A62223  36.232  19.704   6.133
 4925POPC   D2A62224  36.062  19.928   6.459
 4925POPC   C3A62225  36.272  20.149   6.791
 4925POPC   C4A62226  36.096  20.134   7.189
 4925POPC   C1B62227  35.716  19.732   6.067
 4925POPC   C2B62228  35.583  19.733   6.499
 4925POPC   C3B62229  35.805  19.843   6.893
 4925POPC   C4B62230  35.650  19.889   7.342
 4926POPC   NC362231  28.247  11.235   5.345
 4926POPC   PO462232  27.666  11.633   5.508
 4926POPC   GL162233  28.048  11.520   5.724
 4926POPC   GL262234  28.006  11.731   5.985
 4926POPC   C1A62235  28.399  11.447   6.051
 4926POPC   D2A62236  28.296  11.622   6.478
 4926POPC   C3A62237  28.460  11.394   6.819
 4926POPC   C4A62238  28.632  11.181   7.145
 4926POPC   C1B62239  27.930  11.327   6.256
 4926POPC   C2B62240  27.988  11.235   6.701
 4926POPC   C3B62241  28.145  11.027   7.068
 4926POPC   C4B62242  27.853  11.019   7.417
 4927POPC   NC362243  21.783  19.550   5.433
 4927POPC   PO462244  22.280  20.001   5.483
 4927POPC   GL162245  22.133  19.918   5.884
 4927POPC   GL262246  21.999  19.545   5.883
 4927POPC   C1A62247  22.396  19.939   6.280
 4927POPC   D2A62248  22.383  19.678   6.639
 4927POPC   C3A62249  22.458  19.820   7.042
 4927POPC   C4A62250  22.257  19.755   7.432
 4927POPC   C1B62251  21.978  19.653   6.289
 4927POPC   C2B62252  21.867  19.911   6.576
 4927POPC   C3B62253  21.955  19.778   6.954
 4927POPC   C4B62254  21.772  19.749   7.324
 4928POPC   NC362255  10.190  38.179   5.479
 4928POPC   PO462256  10.449  38.715   5.087
 4928POPC   GL162257  10.588  38.454   5.604
 4928POPC   GL262258  10.341  38.555   5.864
 4928POPC   C1A62259  10.704  38.382   6.133
 4928POPC   D2A62260  10.581  38.577   6.590
 4928POPC   C3A62261  10.680  38.348   7.040
 4928POPC   C4A62262  10.794  38.266   7.512
 4928POPC   C1B62263  10.125  38.300   6.176
 4928POPC   C2B62264   9.913  38.198   6.558
 4928POPC   C3B62265  10.084  38.325   6.928
 4928POPC   C4B62266  10.315  38.711   7.034
 4929POPC   NC362267   1.410   8.736   5.489
 4929POPC   PO462268   0.856   9.055   5.418
 4929POPC   GL162269   1.092   9.001   5.798
 4929POPC   GL262270   1.382   9.194   5.866
 4929POPC   C1A62271   1.179   8.844   6.214
 4929POPC   D2A62272   0.947   8.834   6.590
 4929POPC   C3A62273   0.956   8.589   6.987
 4929POPC   C4A62274   0.808   8.890   7.262
 4929POPC   C1B62275   1.638   9.101   6.200
 4929POPC   C2B62276   1.577   8.822   6.566
 4929POPC   C3B62277   1.331   8.932   6.902
 4929POPC   C4B62278   1.330   8.962   7.291
 4930POPC   NC362279  43.809  44.164   5.277
 4930POPC   PO462280  44.368  43.915   5.360
 4930POPC   GL162281  44.010  43.914   5.703
 4930POPC   GL262282  43.750  43.655   5.744
 4930POPC   C1A62283  43.822  44.032   6.121
 4930POPC   D2A62284  43.983  44.066   6.571
 4930POPC   C3A62285  43.794  43.962   6.979
 4930POPC   C4A62286  43.936  43.827   7.405
 4930POPC   C1B62287  43.609  43.570   6.179
 4930POPC   C2B62288  43.683  43.634   6.623
 4930POPC   C3B62289  43.826  43.436   7.032
 4930POPC   C4B62290  43.577  43.420   7.411
 4931POPC   NC362291   3.706  30.451   5.287
 4931POPC   PO462292   3.495  31.040   5.317
 4931POPC   GL162293   3.545  30.877   5.729
 4931POPC   GL262294   3.385  30.555   5.702
 4931POPC   C1A62295   3.441  30.992   6.169
 4931POPC   D2A62296   3.593  30.836   6.579
 4931POPC   C3A62297   3.337  30.886   6.927
 4931POPC   C4A62298   3.307  30.957   7.359
 4931POPC   C1B62299   3.482  30.494   6.146
 4931POPC   C2B62300   3.637  30.290   6.512
 4931POPC   C3B62301   3.765  30.332   6.925
 4931POPC   C4B62302   3.503  30.486   7.250
 4932POPC   NC362303   3.902   8.232   5.486
 4932POPC   PO462304   4.663   8.021   5.433
 4932POPC   GL162305   4.303   7.992   5.739
 4932POPC   GL262306   4.240   8.370   5.835
 4932POPC   C1A62307   4.324   7.803   6.156
 4932POPC   D2A62308   4.499   8.121   6.441
 4932POPC   C3A62309   4.455   8.027   6.870
 4932POPC   C4A62310   4.510   8.269   7.229
 4932POPC   C1B62311   4.211   8.595   6.247
 4932POPC   C2B62312   4.189   8.472   6.704
 4932POPC   C3B62313   4.055   8.520   7.140
 4932POPC   C4B62314   3.891   8.560   7.520
 4933POPC   NC362315   9.916  33.574   5.524
 4933POPC   PO462316   9.453  34.032   5.468
 4933POPC   GL162317   9.664  33.889   5.866
 4933POPC   GL262318   9.601  33.517   5.924
 4933POPC   C1A62319   9.818  33.812   6.289
 4933POPC   D2A62320  10.028  33.700   6.663
 4933POPC   C3A62321   9.808  33.799   7.004
 4933POPC   C4A62322   9.705  33.880   7.403
 4933POPC   C1B62323   9.340  33.555   6.280
 4933POPC   C2B62324   9.418  33.663   6.684
 4933POPC   C3B62325   9.406  33.481   7.078
 4933POPC   C4B62326   9.377  33.522   7.564
 4934POPC   NC362327  11.330  33.528   5.387
 4934POPC   PO462328  11.094  32.944   5.395
 4934POPC   GL162329  11.244  33.022   5.778
 4934POPC   GL262330  11.553  32.925   5.799
 4934POPC   C1A62331  11.225  32.716   6.123
 4934POPC   D2A62332  11.363  32.607   6.513
 4934POPC   C3A62333  11.122  32.750   6.858
 4934POPC   C4A62334  11.308  32.927   7.212
 4934POPC   C1B62335  11.605  33.041   6.252
 4934POPC   C2B62336  11.494  33.088   6.705
 4934POPC   C3B62337  11.737  33.152   7.090
 4934POPC   C4B62338  11.691  33.049   7.567
 4935POPC   NC362339  23.815  44.552   5.449
 4935POPC   PO462340  23.341   0.045   5.592
 4935POPC   GL162341  23.512  44.667   5.861
 4935POPC   GL262342  23.588  44.279   5.831
 4935POPC   C1A62343  23.828  44.624   6.199
 4935POPC   D2A62344  23.798  44.489   6.635
 4935POPC   C3A62345  23.896  44.844   6.916
 4935POPC   C4A62346  24.142  44.889   7.262
 4935POPC   C1B62347  23.462  44.276   6.270
 4935POPC   C2B62348  23.254  44.417   6.657
 4935POPC   C3B62349  23.440  44.640   6.977
 4935POPC   C4B62350  23.440   0.068   7.097
 4936POPC   NC362351   6.869  19.086   5.461
 4936POPC   PO462352   6.213  18.987   5.487
 4936POPC   GL162353   6.469  19.193   5.809
 4936POPC   GL262354   6.718  18.976   5.917
 4936POPC   C1A62355   6.662  19.313   6.264
 4936POPC   D2A62356   6.678  19.054   6.628
 4936POPC   C3A62357   6.809  19.164   7.055
 4936POPC   C4A62358   6.594  19.346   7.397
 4936POPC   C1B62359   6.366  18.889   6.218
 4936POPC   C2B62360   6.329  18.685   6.633
 4936POPC   C3B62361   6.331  18.945   7.009
 4936POPC   C4B62362   6.570  18.817   7.359
 4937POPC   NC362363  19.647  16.935   5.358
 4937POPC   PO462364  20.164  16.532   5.394
 4937POPC   GL162365  20.091  16.724   5.768
 4937POPC   GL262366  20.034  16.392   5.909
 4937POPC   C1A62367  19.786  16.844   6.080
 4937POPC   D2A62368  19.523  16.720   6.444
 4937POPC   C3A62369  19.598  16.779   6.900
 4937POPC   C4A62370  19.831  16.996   7.258
 4937POPC   C1B62371  20.005  16.482   6.376
 4937POPC   C2B62372  20.019  16.516   6.806
 4937POPC   C3B62373  20.012  16.481   7.242
 4937POPC   C4B62374  20.233  16.253   7.581
 4938POPC   NC362375  28.394  30.234   5.495
 4938POPC   PO462376  28.297  29.593   5.351
 4938POPC   GL162377  28.363  29.785   5.763
 4938POPC   GL262378  28.022  29.876   5.787
 4938POPC   C1A62379  28.323  30.068   6.154
 4938POPC   D2A62380  28.436  30.306   6.544
 4938POPC   C3A62381  28.231  30.049   6.846
 4938POPC   C4A62382  28.347  29.777   7.173
 4938POPC   C1B62383  27.991  29.626   6.173
 4938POPC   C2B62384  28.124  29.577   6.604
 4938POPC   C3B62385  27.885  29.607   6.949
 4938POPC   C4B62386  27.864  29.706   7.349
 4939POPC   NC362387   4.875   0.113   5.394
 4939POPC   PO462388   4.975   0.788   5.336
 4939POPC   GL162389   5.087   0.591   5.729
 4939POPC   GL262390   5.121   0.253   5.894
 4939POPC   C1A62391   5.058   0.707   6.174
 4939POPC   D2A62392   5.138   0.906   6.604
 4939POPC   C3A62393   4.935   0.721   6.985
 4939POPC   C4A62394   5.016   0.624   7.439
 4939POPC   C1B62395   5.387  44.963   6.187
 4939POPC   C2B62396   5.450  44.985   6.648
 4939POPC   C3B62397   5.247   0.152   7.027
 4939POPC   C4B62398   5.216   0.166   7.459
 4940POPC   NC362399  34.161  13.344   5.536
 4940POPC   PO462400  33.596  12.984   5.381
 4940POPC   GL162401  33.731  12.786   5.782
 4940POPC   GL262402  33.892  13.052   5.918
 4940POPC   C1A62403  33.791  12.513   6.153
 4940POPC   D2A62404  33.932  12.384   6.588
 4940POPC   C3A62405  33.755  12.540   6.938
 4940POPC   C4A62406  33.901  12.590   7.327
 4940POPC   C1B62407  33.573  12.952   6.277
 4940POPC   C2B62408  33.487  12.923   6.735
 4940POPC   C3B62409  33.771  13.033   7.092
 4940POPC   C4B62410  33.703  12.976   7.556
 4941POPC   NC362411  28.376  40.772   5.132
 4941POPC   PO462412  28.833  41.028   5.526
 4941POPC   GL162413  28.527  40.926   5.811
 4941POPC   GL262414  28.346  40.645   5.688
 4941POPC   C1A62415  28.379  40.786   6.225
 4941POPC   D2A62416  28.165  40.922   6.602
 4941POPC   C3A62417  28.375  41.020   6.992
 4941POPC   C4A62418  28.495  40.724   7.308
 4941POPC   C1B62419  28.134  40.380   6.010
 4941POPC   C2B62420  28.128  40.372   6.467
 4941POPC   C3B62421  28.245  40.510   6.885
 4941POPC   C4B62422  28.099  40.394   7.262
 4942POPC   NC362423  15.914  27.990   5.644
 4942POPC   PO462424  16.214  28.554   5.298
 4942POPC   GL162425  16.040  28.483   5.721
 4942POPC   GL262426  15.697  28.500   5.669
 4942POPC   C1A62427  15.919  28.328   6.178
 4942POPC   D2A62428  15.877  28.074   6.537
 4942POPC   C3A62429  15.958  28.274   6.938
 4942POPC   C4A62430  15.718  28.262   7.310
 4942POPC   C1B62431  15.757  28.790   6.044
 4942POPC   C2B62432  15.930  28.771   6.461
 4942POPC   C3B62433  15.905  28.844   6.899
 4942POPC   C4B62434  15.978  28.719   7.322
 4943POPC   NC362435  15.792  11.349   5.353
 4943POPC   PO462436  16.359  10.931   5.186
 4943POPC   GL162437  16.192  11.124   5.602
 4943POPC   GL262438  16.248  11.496   5.668
 4943POPC   C1A62439  15.964  11.175   6.034
 4943POPC   D2A62440  15.822  10.995   6.458
 4943POPC   C3A62441  15.914  11.194   6.857
 4943POPC   C4A62442  15.720  11.158   7.240
 4943POPC   C1B62443  16.148  11.670   6.095
 4943POPC   C2B62444  15.937  11.650   6.514
 4943POPC   C3B62445  16.077  11.702   6.902
 4943POPC   C4B62446  16.114  11.531   7.231
 4944POPC   NC362447  28.876  16.855   5.408
 4944POPC   PO462448  28.198  16.973   5.376
 4944POPC   GL162449  28.456  16.789   5.707
 4944POPC   GL262450  28.678  16.477   5.688
 4944POPC   C1A62451  28.409  16.777   6.138
 4944POPC   D2A62452  28.755  16.847   6.435
 4944POPC   C3A62453  28.595  16.883   6.842
 4944POPC   C4A62454  28.492  16.923   7.274
 4944POPC   C1B62455  28.730  16.385   6.146
 4944POPC   C2B62456  28.658  16.346   6.606
 4944POPC   C3B62457  28.616  16.410   7.057
 4944POPC   C4B62458  28.819  16.549   7.412
 4945POPC   NC362459   8.301  26.307   5.541
 4945POPC   PO462460   7.690  26.018   5.318
 4945POPC   GL162461   7.934  25.937   5.758
 4945POPC   GL262462   8.190  25.657   5.880
 4945POPC   C1A62463   8.018  26.074   6.192
 4945POPC   D2A62464   8.057  26.311   6.579
 4945POPC   C3A62465   8.298  26.151   6.928
 4945POPC   C4A62466   8.067  26.207   7.288
 4945POPC   C1B62467   8.346  25.695   6.325
 4945POPC   C2B62468   8.317  25.640   6.793
 4945POPC   C3B62469   8.138  25.697   7.198
 4945POPC   C4B62470   8.372  25.819   7.547
 4946POPC   NC362471  12.642  16.733   5.162
 4946POPC   PO462472  13.319  16.598   5.239
 4946POPC   GL162473  13.101  16.744   5.704
 4946POPC   GL262474  12.732  16.741   5.700
 4946POPC   C1A62475  13.006  16.931   6.130
 4946POPC   D2A62476  12.962  16.958   6.600
 4946POPC   C3A62477  12.886  16.576   6.868
 4946POPC   C4A62478  13.084  16.471   7.262
 4946POPC   C1B62479  12.510  16.544   6.067
 4946POPC   C2B62480  12.323  16.500   6.482
 4946POPC   C3B62481  12.405  16.339   6.898
 4946POPC   C4B62482  12.520  16.531   7.257
 4947POPC   NC362483   6.290  14.861   5.567
 4947POPC   PO462484   5.659  14.593   5.615
 4947POPC   GL162485   5.920  14.367   5.893
 4947POPC   GL262486   6.207  14.158   5.742
 4947POPC   C1A62487   5.828  14.310   6.336
 4947POPC   D2A62488   5.802  14.558   6.720
 4947POPC   C3A62489   5.575  14.437   7.079
 4947POPC   C4A62490   5.716  14.513   7.523
 4947POPC   C1B62491   6.218  14.030   6.191
 4947POPC   C2B62492   6.161  13.848   6.598
 4947POPC   C3B62493   5.910  14.016   6.905
 4947POPC   C4B62494   6.068  14.332   7.185
 4948POPC   NC362495   2.262  30.477   5.405
 4948POPC   PO462496   1.789  30.931   5.429
 4948POPC   GL162497   2.004  30.745   5.771
 4948POPC   GL262498   1.697  30.552   5.854
 4948POPC   C1A62499   2.299  30.669   6.140
 4948POPC   D2A62500   2.583  30.627   6.531
 4948POPC   C3A62501   2.376  30.537   6.947
 4948POPC   C4A62502   2.037  30.700   7.222
 4948POPC   C1B62503   1.770  30.842   6.210
 4948POPC   C2B62504   1.893  30.843   6.655
 4948POPC   C3B62505   1.759  31.065   7.019
 4948POPC   C4B62506   1.736  31.152   7.482
 4949POPC   NC362507  42.392   8.449   5.266
 4949POPC   PO462508  41.877   8.736   5.470
 4949POPC   GL162509  42.158   8.434   5.775
 4949POPC   GL262510  42.193   8.053   5.904
 4949POPC   C1A62511  42.367   8.372   6.215
 4949POPC   D2A62512  42.164   8.199   6.591
 4949POPC   C3A62513  42.405   8.268   6.974
 4949POPC   C4A62514  42.576   8.322   7.371
 4949POPC   C1B62515  41.971   7.759   6.173
 4949POPC   C2B62516  42.073   7.628   6.615
 4949POPC   C3B62517  42.025   7.912   6.983
 4949POPC   C4B62518  42.159   8.051   7.383
 4950POPC   NC362519  37.452  33.901   4.950
 4950POPC   PO462520  37.918  33.751   5.428
 4950POPC   GL162521  37.704  33.774   5.838
 4950POPC   GL262522  37.641  34.099   5.998
 4950POPC   C1A62523  37.851  33.624   6.249
 4950POPC   D2A62524  38.138  33.770   6.557
 4950POPC   C3A62525  38.000  33.925   6.944
 4950POPC   C4A62526  37.640  33.802   7.177
 4950POPC   C1B62527  37.715  34.092   6.423
 4950POPC   C2B62528  37.474  33.914   6.717
 4950POPC   C3B62529  37.226  34.095   7.025
 4950POPC   C4B62530  37.301  34.522   7.190
 4951POPC   NC362531  20.427   3.652   5.567
 4951POPC   PO462532  19.814   3.593   5.365
 4951POPC   GL162533  19.731   3.547   5.802
 4951POPC   GL262534  20.049   3.370   5.831
 4951POPC   C1A62535  19.582   3.314   6.177
 4951POPC   D2A62536  19.766   3.311   6.592
 4951POPC   C3A62537  19.660   3.589   6.904
 4951POPC   C4A62538  19.709   3.630   7.330
 4951POPC   C1B62539  20.031   3.591   6.220
 4951POPC   C2B62540  20.211   3.734   6.574
 4951POPC   C3B62541  20.162   3.656   6.965
 4951POPC   C4B62542  20.204   3.839   7.322
 4952POPC   NC362543  32.695  17.972   5.432
 4952POPC   PO462544  33.132  18.431   5.520
 4952POPC   GL162545  33.067  18.142   5.799
 4952POPC   GL262546  32.762  18.252   5.865
 4952POPC   C1A62547  33.249  18.216   6.169
 4952POPC   D2A62548  33.410  18.034   6.510
 4952POPC   C3A62549  33.189  18.175   6.862
 4952POPC   C4A62550  33.166  18.186   7.313
 4952POPC   C1B62551  32.698  18.143   6.270
 4952POPC   C2B62552  32.727  18.302   6.660
 4952POPC   C3B62553  32.679  18.148   7.067
 4952POPC   C4B62554  32.660  18.300   7.500
 4953POPC   NC362555  44.206  29.466   5.516
 4953POPC   PO462556  44.559  28.981   5.207
 4953POPC   GL162557  44.678  28.974   5.651
 4953POPC   GL262558  44.819  29.297   5.771
 4953POPC   C1A62559  44.528  28.976   6.088
 4953POPC   D2A62560  44.647  29.258   6.423
 4953POPC   C3A62561  44.643  29.170   6.853
 4953POPC   C4A62562  44.527  29.528   7.113
 4953POPC   C1B62563   0.035  29.081   6.129
 4953POPC   C2B62564   0.073  28.964   6.585
 4953POPC   C3B62565   0.078  28.933   7.049
 4953POPC   C4B62566  44.832  29.208   7.345
 4954POPC   NC362567  32.708  22.669   5.021
 4954POPC   PO462568  32.952  23.238   5.354
 4954POPC   GL162569  33.117  23.021   5.733
 4954POPC   GL262570  33.295  22.708   5.738
 4954POPC   C1A62571  32.954  22.909   6.143
 4954POPC   D2A62572  32.754  23.105   6.476
 4954POPC   C3A62573  32.974  22.989   6.827
 4954POPC   C4A62574  32.960  23.143   7.234
 4954POPC   C1B62575  33.237  22.475   6.124
 4954POPC   C2B62576  33.073  22.436   6.513
 4954POPC   C3B62577  33.216  22.472   6.899
 4954POPC   C4B62578  33.057  22.648   7.224
 4955POPC   NC362579   9.501  19.016   5.472
 4955POPC   PO462580  10.241  18.910   5.513
 4955POPC   GL162581   9.889  18.916   5.810
 4955POPC   GL262582   9.808  19.246   5.795
 4955POPC   C1A62583   9.618  18.958   6.213
 4955POPC   D2A62584   9.444  19.063   6.650
 4955POPC   C3A62585   9.645  18.977   7.061
 4955POPC   C4A62586   9.444  18.791   7.417
 4955POPC   C1B62587   9.929  19.398   6.186
 4955POPC   C2B62588   9.808  19.470   6.595
 4955POPC   C3B62589   9.875  19.706   6.941
 4955POPC   C4B62590  10.092  19.623   7.312
 4956POPC   NC362591  40.354  24.245   5.660
 4956POPC   PO462592  39.863  24.513   5.315
 4956POPC   GL162593  39.948  24.524   5.763
 4956POPC   GL262594  39.650  24.483   5.861
 4956POPC   C1A62595  40.098  24.426   6.215
 4956POPC   D2A62596  40.371  24.275   6.558
 4956POPC   C3A62597  40.112  24.207   6.875
 4956POPC   C4A62598  40.104  24.505   7.140
 4956POPC   C1B62599  39.764  24.808   6.172
 4956POPC   C2B62600  39.737  24.763   6.629
 4956POPC   C3B62601  39.762  25.044   6.966
 4956POPC   C4B62602  39.682  25.051   7.408
 4957POPC   NC362603  18.567  19.936   5.648
 4957POPC   PO462604  17.999  20.129   5.319
 4957POPC   GL162605  18.098  20.114   5.767
 4957POPC   GL262606  18.102  19.755   5.753
 4957POPC   C1A62607  18.285  20.209   6.191
 4957POPC   D2A62608  18.488  20.267   6.614
 4957POPC   C3A62609  18.332  19.982   6.927
 4957POPC   C4A62610  18.524  19.883   7.306
 4957POPC   C1B62611  18.225  19.651   6.160
 4957POPC   C2B62612  18.508  19.721   6.517
 4957POPC   C3B62613  18.523  19.493   6.929
 4957POPC   C4B62614  18.179  19.538   7.181
 4958POPC   NC362615  41.463  16.894   5.234
 4958POPC   PO462616  41.339  16.240   5.364
 4958POPC   GL162617  41.391  16.672   5.682
 4958POPC   GL262618  41.624  17.033   5.689
 4958POPC   C1A62619  41.320  16.943   6.085
 4958POPC   D2A62620  41.300  16.790   6.525
 4958POPC   C3A62621  41.336  16.984   6.913
 4958POPC   C4A62622  41.404  16.671   7.217
 4958POPC   C1B62623  41.806  17.208   6.069
 4958POPC   C2B62624  41.689  17.137   6.490
 4958POPC   C3B62625  41.836  16.873   6.811
 4958POPC   C4B62626  41.896  16.880   7.235
 4959POPC   NC362627  15.504  12.068   5.426
 4959POPC   PO462628  14.898  11.785   5.369
 4959POPC   GL162629  15.132  11.984   5.773
 4959POPC   GL262630  15.406  12.256   5.894
 4959POPC   C1A62631  15.269  11.795   6.158
 4959POPC   D2A62632  15.227  11.706   6.610
 4959POPC   C3A62633  15.249  12.021   6.950
 4959POPC   C4A62634  15.386  12.074   7.367
 4959POPC   C1B62635  15.083  12.272   6.192
 4959POPC   C2B62636  14.929  12.127   6.563
 4959POPC   C3B62637  14.831  12.329   6.928
 4959POPC   C4B62638  14.970  12.394   7.316
 4960POPC   NC362639   7.209   6.072   5.498
 4960POPC   PO462640   7.769   5.616   5.419
 4960POPC   GL162641   7.609   5.902   5.747
 4960POPC   GL262642   7.318   5.654   5.777
 4960POPC   C1A62643   7.519   6.155   6.150
 4960POPC   D2A62644   7.507   5.955   6.591
 4960POPC   C3A62645   7.467   6.167   7.013
 4960POPC   C4A62646   7.643   6.143   7.437
 4960POPC   C1B62647   7.241   5.735   6.202
 4960POPC   C2B62648   7.314   5.458   6.564
 4960POPC   C3B62649   7.519   5.557   6.925
 4960POPC   C4B62650   7.393   5.738   7.298
 4961POPC   NC362651  36.270  30.130   5.402
 4961POPC   PO462652  35.721  29.700   5.386
 4961POPC   GL162653  35.911  29.940   5.756
 4961POPC   GL262654  36.269  29.954   5.864
 4961POPC   C1A62655  35.916  29.841   6.183
 4961POPC   D2A62656  35.900  30.018   6.562
 4961POPC   C3A62657  36.014  29.816   6.917
 4961POPC   C4A62658  36.024  29.978   7.316
 4961POPC   C1B62659  36.375  30.117   6.263
 4961POPC   C2B62660  36.434  30.031   6.695
 4961POPC   C3B62661  36.381  30.262   7.065
 4961POPC   C4B62662  36.418  30.266   7.499
 4962POPC   NC362663   5.747  39.885   5.596
 4962POPC   PO462664   6.309  39.818   5.256
 4962POPC   GL162665   6.239  39.803   5.748
 4962POPC   GL262666   6.136  40.139   5.891
 4962POPC   C1A62667   6.032  39.768   6.208
 4962POPC   D2A62668   6.091  40.081   6.538
 4962POPC   C3A62669   6.104  39.881   6.913
 4962POPC   C4A62670   6.068  39.721   7.313
 4962POPC   C1B62671   5.746  40.220   6.143
 4962POPC   C2B62672   5.590  40.148   6.524
 4962POPC   C3B62673   5.752  40.271   6.901
 4962POPC   C4B62674   5.504  40.272   7.231
 4963POPC   NC362675  35.483   3.989   5.498
 4963POPC   PO462676  34.919   4.411   5.370
 4963POPC   GL162677  35.230   4.347   5.761
 4963POPC   GL262678  35.564   4.505   5.771
 4963POPC   C1A62679  35.404   4.149   6.155
 4963POPC   D2A62680  35.410   3.965   6.586
 4963POPC   C3A62681  35.205   4.156   6.923
 4963POPC   C4A62682  35.425   4.037   7.261
 4963POPC   C1B62683  35.642   4.673   6.216
 4963POPC   C2B62684  35.542   4.774   6.702
 4963POPC   C3B62685  35.437   4.644   7.178
 4963POPC   C4B62686  35.429   4.611   7.658
 4964POPC   NC362687   6.672   9.549   5.228
 4964POPC   PO462688   6.330   9.990   5.581
 4964POPC   GL162689   6.505   9.642   5.808
 4964POPC   GL262690   6.848   9.585   5.770
 4964POPC   C1A62691   6.385   9.531   6.230
 4964POPC   D2A62692   6.162   9.512   6.650
 4964POPC   C3A62693   6.467   9.637   6.970
 4964POPC   C4A62694   6.534   9.649   7.405
 4964POPC   C1B62695   6.857   9.827   6.177
 4964POPC   C2B62696   6.896   9.796   6.654
 4964POPC   C3B62697   6.965   9.794   7.095
 4964POPC   C4B62698   7.136  10.145   7.371
 4965POPC   NC362699  32.490  34.586   5.443
 4965POPC   PO462700  31.865  34.765   5.570
 4965POPC   GL162701  32.186  34.526   5.871
 4965POPC   GL262702  32.518  34.308   5.857
 4965POPC   C1A62703  32.421  34.703   6.239
 4965POPC   D2A62704  32.230  34.905   6.642
 4965POPC   C3A62705  32.093  34.728   7.040
 4965POPC   C4A62706  31.978  34.808   7.522
 4965POPC   C1B62707  32.439  34.192   6.274
 4965POPC   C2B62708  32.405  34.397   6.652
 4965POPC   C3B62709  32.526  34.411   7.043
 4965POPC   C4B62710  32.266  34.404   7.393
 4966POPC   NC362711  39.675  10.832   5.141
 4966POPC   PO462712  39.233  10.411   5.447
 4966POPC   GL162713  39.212  10.476   5.863
 4966POPC   GL262714  39.333  10.797   5.828
 4966POPC   C1A62715  38.915  10.568   6.196
 4966POPC   D2A62716  38.757  10.531   6.621
 4966POPC   C3A62717  39.134  10.510   6.883
 4966POPC   C4A62718  39.255  10.357   7.270
 4966POPC   C1B62719  39.417  10.757   6.254
 4966POPC   C2B62720  39.540  10.647   6.642
 4966POPC   C3B62721  39.509  10.775   7.128
 4966POPC   C4B62722  39.483  10.663   7.643
 4967POPC   NC362723  42.061   5.187   5.350
 4967POPC   PO462724  41.363   5.159   5.251
 4967POPC   GL162725  41.384   5.034   5.703
 4967POPC   GL262726  41.770   5.023   5.810
 4967POPC   C1A62727  41.323   4.958   6.156
 4967POPC   D2A62728  41.619   5.140   6.466
 4967POPC   C3A62729  41.587   5.059   6.902
 4967POPC   C4A62730  41.521   5.343   7.225
 4967POPC   C1B62731  42.030   4.949   6.222
 4967POPC   C2B62732  42.073   4.941   6.681
 4967POPC   C3B62733  42.106   5.076   7.093
 4967POPC   C4B62734  41.847   4.802   7.304
 4968POPC   NC362735  43.618  33.408   5.344
 4968POPC   PO462736  43.149  33.008   5.367
 4968POPC   GL162737  43.129  32.988   5.832
 4968POPC   GL262738  43.456  33.082   5.949
 4968POPC   C1A62739  42.924  32.982   6.261
 4968POPC   D2A62740  42.868  33.103   6.711
 4968POPC   C3A62741  43.068  32.929   7.095
 4968POPC   C4A62742  42.896  32.820   7.526
 4968POPC   C1B62743  43.362  32.680   6.165
 4968POPC   C2B62744  43.210  32.686   6.575
 4968POPC   C3B62745  43.324  32.505   6.929
 4968POPC   C4B62746  43.381  32.592   7.312
 4969POPC   NC362747  28.037   4.605   5.506
 4969POPC   PO462748  27.792   5.270   5.448
 4969POPC   GL162749  27.698   4.926   5.719
 4969POPC   GL262750  28.009   4.957   5.883
 4969POPC   C1A62751  27.586   4.765   6.145
 4969POPC   D2A62752  27.581   5.019   6.517
 4969POPC   C3A62753  27.635   4.929   6.933
 4969POPC   C4A62754  27.249   5.140   7.073
 4969POPC   C1B62755  27.841   5.260   6.145
 4969POPC   C2B62756  27.880   5.461   6.554
 4969POPC   C3B62757  27.791   5.406   6.980
 4969POPC   C4B62758  27.865   5.207   7.347
 4970POPC   NC362759   6.175  36.060   5.470
 4970POPC   PO462760   5.655  36.407   5.204
 4970POPC   GL162761   5.732  36.292   5.628
 4970POPC   GL262762   5.545  35.970   5.641
 4970POPC   C1A62763   5.896  36.063   6.042
 4970POPC   D2A62764   6.036  35.794   6.379
 4970POPC   C3A62765   5.955  36.024   6.729
 4970POPC   C4A62766   6.018  36.042   7.153
 4970POPC   C1B62767   5.408  36.214   6.015
 4970POPC   C2B62768   5.520  36.129   6.455
 4970POPC   C3B62769   5.518  36.243   6.899
 4970POPC   C4B62770   5.523  35.963   7.269
 4971POPC   NC362771  21.865  22.785   5.244
 4971POPC   PO462772  22.296  23.166   5.382
 4971POPC   GL162773  22.370  22.928   5.839
 4971POPC   GL262774  22.052  22.758   5.973
 4971POPC   C1A62775  22.396  22.787   6.336
 4971POPC   D2A62776  22.055  22.809   6.690
 4971POPC   C3A62777  22.227  22.799   7.104
 4971POPC   C4A62778  22.447  23.190   7.166
 4971POPC   C1B62779  22.013  23.129   6.268
 4971POPC   C2B62780  22.130  23.323   6.686
 4971POPC   C3B62781  21.937  23.211   7.068
 4971POPC   C4B62782  21.705  22.822   7.104
 4972POPC   NC362783   3.094  43.266   5.670
 4972POPC   PO462784   3.548  42.802   5.613
 4972POPC   GL162785   3.507  43.113   5.922
 4972POPC   GL262786   3.835  43.172   5.987
 4972POPC   C1A62787   3.228  43.153   6.310
 4972POPC   D2A62788   2.987  42.911   6.602
 4972POPC   C3A62789   3.174  42.890   7.017
 4972POPC   C4A62790   3.426  43.189   7.257
 4972POPC   C1B62791   3.717  43.001   6.380
 4972POPC   C2B62792   3.564  43.191   6.746
 4972POPC   C3B62793   3.879  43.310   7.081
 4972POPC   C4B62794   3.919  43.277   7.548
 4973POPC   NC362795  23.459  20.039   5.434
 4973POPC   PO462796  24.103  19.720   5.359
 4973POPC   GL162797  23.840  19.769   5.726
 4973POPC   GL262798  23.981  20.085   5.777
 4973POPC   C1A62799  23.556  19.775   6.100
 4973POPC   D2A62800  23.394  19.505   6.454
 4973POPC   C3A62801  23.420  19.742   6.854
 4973POPC   C4A62802  23.639  19.781   7.252
 4973POPC   C1B62803  23.792  20.233   6.156
 4973POPC   C2B62804  23.907  20.203   6.560
 4973POPC   C3B62805  23.746  20.164   6.917
 4973POPC   C4B62806  23.644  20.299   7.291
 4974POPC   NC362807  14.332  40.197   5.379
 4974POPC   PO462808  14.942  39.915   5.390
 4974POPC   GL162809  14.645  39.877   5.771
 4974POPC   GL262810  14.260  39.846   5.756
 4974POPC   C1A62811  14.539  39.804   6.221
 4974POPC   D2A62812  14.278  39.909   6.609
 4974POPC   C3A62813  14.500  39.900   7.019
 4974POPC   C4A62814  14.480  39.887   7.474
 4974POPC   C1B62815  14.096  40.064   6.113
 4974POPC   C2B62816  14.148  40.377   6.430
 4974POPC   C3B62817  14.138  40.347   6.880
 4974POPC   C4B62818  14.046  40.066   7.230
 4975POPC   NC362819   9.437  11.707   5.478
 4975POPC   PO462820   9.781  11.277   5.226
 4975POPC   GL162821   9.840  11.358   5.679
 4975POPC   GL262822   9.629  11.151   5.892
 4975POPC   C1A62823  10.024  11.356   6.120
 4975POPC   D2A62824   9.838  11.133   6.489
 4975POPC   C3A62825   9.852  11.384   6.854
 4975POPC   C4A62826  10.022  11.481   7.255
 4975POPC   C1B62827   9.506  11.415   6.240
 4975POPC   C2B62828   9.377  11.297   6.681
 4975POPC   C3B62829   9.434  11.351   7.146
 4975POPC   C4B62830   9.329  11.681   7.446
 4976POPC   NC362831  19.580   7.552   5.373
 4976POPC   PO462832  20.309   7.486   5.415
 4976POPC   GL162833  19.959   7.509   5.725
 4976POPC   GL262834  19.616   7.414   5.848
 4976POPC   C1A62835  19.990   7.597   6.167
 4976POPC   D2A62836  19.956   7.414   6.579
 4976POPC   C3A62837  19.996   7.693   6.933
 4976POPC   C4A62838  19.851   7.736   7.361
 4976POPC   C1B62839  19.485   7.411   6.268
 4976POPC   C2B62840  19.474   7.298   6.705
 4976POPC   C3B62841  19.483   7.537   7.057
 4976POPC   C4B62842  19.511   7.370   7.481
 4977POPC   NC362843  19.664  32.646   5.433
 4977POPC   PO462844  20.036  32.066   5.371
 4977POPC   GL162845  19.880  32.043   5.767
 4977POPC   GL262846  19.921  32.393   5.788
 4977POPC   C1A62847  19.906  32.129   6.220
 4977POPC   D2A62848  20.013  32.271   6.608
 4977POPC   C3A62849  19.756  32.040   6.859
 4977POPC   C4A62850  19.722  31.982   7.261
 4977POPC   C1B62851  19.761  32.631   6.128
 4977POPC   C2B62852  19.579  32.550   6.536
 4977POPC   C3B62853  19.718  32.557   6.946
 4977POPC   C4B62854  20.095  32.437   7.115
 4978POPC   NC362855   5.063   7.770   5.377
 4978POPC   PO462856   4.666   7.224   5.386
 4978POPC   GL162857   4.962   7.247   5.764
 4978POPC   GL262858   5.337   7.150   5.737
 4978POPC   C1A62859   4.987   7.559   6.133
 4978POPC   D2A62860   4.699   7.657   6.506
 4978POPC   C3A62861   4.890   7.612   6.922
 4978POPC   C4A62862   5.246   7.574   7.179
 4978POPC   C1B62863   5.210   7.042   6.187
 4978POPC   C2B62864   4.995   6.868   6.583
 4978POPC   C3B62865   5.158   7.002   7.015
 4978POPC   C4B62866   5.053   7.186   7.432
 4979POPC   NC362867  35.712   5.564   5.558
 4979POPC   PO462868  36.300   5.892   5.408
 4979POPC   GL162869  36.070   5.912   5.808
 4979POPC   GL262870  36.179   5.591   5.848
 4979POPC   C1A62871  36.153   5.949   6.259
 4979POPC   D2A62872  36.461   5.922   6.621
 4979POPC   C3A62873  36.307   5.915   7.052
 4979POPC   C4A62874  35.979   5.807   7.320
 4979POPC   C1B62875  36.164   5.442   6.283
 4979POPC   C2B62876  36.118   5.564   6.727
 4979POPC   C3B62877  36.183   5.380   7.120
 4979POPC   C4B62878  36.099   5.394   7.581
 4980POPC   NC362879   9.773  31.975   5.523
 4980POPC   PO462880   9.411  32.511   5.355
 4980POPC   GL162881   9.479  32.306   5.794
 4980POPC   GL262882   9.840  32.249   5.933
 4980POPC   C1A62883   9.429  32.250   6.257
 4980POPC   D2A62884   9.795  32.274   6.520
 4980POPC   C3A62885   9.744  32.343   6.948
 4980POPC   C4A62886   9.947  32.288   7.346
 4980POPC   C1B62887   9.745  31.869   6.163
 4980POPC   C2B62888   9.817  31.726   6.577
 4980POPC   C3B62889   9.852  31.847   7.023
 4980POPC   C4B62890   9.659  31.618   7.341
 4981POPC   NC362891  33.590   8.368   5.396
 4981POPC   PO462892  34.158   8.127   5.203
 4981POPC   GL162893  34.067   8.196   5.625
 4981POPC   GL262894  34.272   8.518   5.670
 4981POPC   C1A62895  33.866   7.962   6.002
 4981POPC   D2A62896  33.598   7.912   6.400
 4981POPC   C3A62897  33.770   7.967   6.815
 4981POPC   C4A62898  33.688   8.197   7.211
 4981POPC   C1B62899  34.247   8.328   6.086
 4981POPC   C2B62900  34.119   8.194   6.503
 4981POPC   C3B62901  34.025   8.430   6.885
 4981POPC   C4B62902  34.159   8.438   7.307
 4982POPC   NC362903  38.424  16.920   5.234
 4982POPC   PO462904  38.275  16.262   5.336
 4982POPC   GL162905  38.353  16.647   5.695
 4982POPC   GL262906  38.264  17.028   5.721
 4982POPC   C1A62907  38.568  16.857   6.115
 4982POPC   D2A62908  38.772  16.844   6.558
 4982POPC   C3A62909  38.619  16.737   6.995
 4982POPC   C4A62910  38.647  16.447   7.361
 4982POPC   C1B62911  38.087  17.045   6.156
 4982POPC   C2B62912  38.246  17.130   6.597
 4982POPC   C3B62913  38.193  17.017   7.063
 4982POPC   C4B62914  38.422  16.889   7.475
 4983POPC   NC362915  43.488  36.673   5.286
 4983POPC   PO462916  42.953  36.360   5.460
 4983POPC   GL162917  43.245  36.671   5.752
 4983POPC   GL262918  43.310  37.046   5.616
 4983POPC   C1A62919  43.247  36.629   6.241
 4983POPC   D2A62920  43.361  36.676   6.709
 4983POPC   C3A62921  43.047  36.975   6.871
 4983POPC   C4A62922  42.913  36.980   7.285
 4983POPC   C1B62923  43.452  37.139   6.018
 4983POPC   C2B62924  43.360  37.106   6.446
 4983POPC   C3B62925  43.499  37.220   6.842
 4983POPC   C4B62926  43.410  37.048   7.228
 4984POPC   NC362927   6.580  12.653   5.232
 4984POPC   PO462928   6.787  13.193   5.445
 4984POPC   GL162929   6.763  12.901   5.798
 4984POPC   GL262930   6.477  12.657   5.741
 4984POPC   C1A62931   6.875  12.817   6.241
 4984POPC   D2A62932   6.590  12.931   6.599
 4984POPC   C3A62933   6.657  12.968   7.038
 4984POPC   C4A62934   6.874  12.938   7.397
 4984POPC   C1B62935   6.348  12.741   6.167
 4984POPC   C2B62936   6.182  12.622   6.588
 4984POPC   C3B62937   6.442  12.509   6.952
 4984POPC   C4B62938   6.476  12.632   7.395
 4985POPC   NC362939   8.743   6.216   5.457
 4985POPC   PO462940   9.029   5.552   5.318
 4985POPC   GL162941   8.941   5.784   5.748
 4985POPC   GL262942   9.111   6.108   5.773
 4985POPC   C1A62943   8.951   5.908   6.220
 4985POPC   D2A62944   8.913   5.819   6.641
 4985POPC   C3A62945   8.786   6.005   7.026
 4985POPC   C4A62946   8.935   5.835   7.423
 4985POPC   C1B62947   9.280   6.330   6.103
 4985POPC   C2B62948   9.170   6.367   6.510
 4985POPC   C3B62949   9.220   6.205   6.884
 4985POPC   C4B62950   9.353   6.106   7.267
 4986POPC   NC362951  27.001  20.832   4.945
 4986POPC   PO462952  26.744  20.556   5.504
 4986POPC   GL162953  26.692  20.466   5.915
 4986POPC   GL262954  26.404  20.281   5.845
 4986POPC   C1A62955  26.844  20.646   6.285
 4986POPC   D2A62956  26.756  20.974   6.551
 4986POPC   C3A62957  26.853  20.900   6.951
 4986POPC   C4A62958  27.178  20.735   7.171
 4986POPC   C1B62959  26.373  20.062   6.234
 4986POPC   C2B62960  26.438  20.070   6.683
 4986POPC   C3B62961  26.441  20.219   7.121
 4986POPC   C4B62962  26.695  20.577   7.310
 4987POPC   NC362963  14.702   2.486   5.571
 4987POPC   PO462964  14.131   2.847   5.483
 4987POPC   GL162965  14.369   2.770   5.856
 4987POPC   GL262966  14.707   2.954   5.840
 4987POPC   C1A62967  14.253   2.846   6.297
 4987POPC   D2A62968  14.068   2.707   6.684
 4987POPC   C3A62969  14.310   2.772   7.016
 4987POPC   C4A62970  14.443   2.476   7.272
 4987POPC   C1B62971  14.763   2.722   6.207
 4987POPC   C2B62972  14.635   2.601   6.610
 4987POPC   C3B62973  14.832   2.680   6.990
 4987POPC   C4B62974  14.811   2.966   7.309
 4988POPC   NC362975  38.848  34.749   5.373
 4988POPC   PO462976  38.157  34.460   5.531
 4988POPC   GL162977  38.418  34.468   5.873
 4988POPC   GL262978  38.748  34.570   5.825
 4988POPC   C1A62979  38.407  34.584   6.295
 4988POPC   D2A62980  38.170  34.289   6.559
 4988POPC   C3A62981  38.259  34.394   6.941
 4988POPC   C4A62982  38.392  34.300   7.325
 4988POPC   C1B62983  38.922  34.526   6.203
 4988POPC   C2B62984  38.917  34.705   6.604
 4988POPC   C3B62985  38.838  34.476   6.981
 4988POPC   C4B62986  38.847  34.095   7.206
 4989POPC   NC362987  26.733  15.500   5.319
 4989POPC   PO462988  27.299  15.014   5.343
 4989POPC   GL162989  27.130  15.243   5.745
 4989POPC   GL262990  26.802  15.400   5.812
 4989POPC   C1A62991  27.053  15.134   6.199
 4989POPC   D2A62992  26.726  14.986   6.465
 4989POPC   C3A62993  26.818  14.902   6.891
 4989POPC   C4A62994  27.157  14.744   7.155
 4989POPC   C1B62995  26.860  15.599   6.201
 4989POPC   C2B62996  26.921  15.470   6.606
 4989POPC   C3B62997  26.696  15.380   6.956
 4989POPC   C4B62998  26.977  15.246   7.236
 4990POPC   NC362999   1.577  43.634   5.157
 4990POPC   PO463000   2.164  44.008   5.237
 4990POPC   GL163001   1.992  43.752   5.582
 4990POPC   GL263002   2.258  43.830   5.846
 4990POPC   C1A63003   1.779  43.785   5.992
 4990POPC   D2A63004   1.916  44.019   6.355
 4990POPC   C3A63005   1.941  43.745   6.703
 4990POPC   C4A63006   1.838  43.781   7.118
 4990POPC   C1B63007   2.212  43.560   6.247
 4990POPC   C2B63008   2.276  43.356   6.673
 4990POPC   C3B63009   2.222  43.353   7.123
 4990POPC   C4B63010   2.140  43.642   7.484
 4991POPC   NC363011  11.727  29.196   5.424
 4991POPC   PO463012  12.392  28.927   5.489
 4991POPC   GL163013  12.358  29.137   5.866
 4991POPC   GL263014  12.070  29.356   5.797
 4991POPC   C1A63015  12.163  29.156   6.257
 4991POPC   D2A63016  12.170  28.979   6.639
 4991POPC   C3A63017  11.853  29.007   6.933
 4991POPC   C4A63018  11.864  29.164   7.315
 4991POPC   C1B63019  11.809  29.501   6.167
 4991POPC   C2B63020  11.955  29.507   6.589
 4991POPC   C3B63021  12.101  29.467   6.987
 4991POPC   C4B63022  12.363  29.588   7.338
 4992POPC   NC363023   8.725  24.183   5.546
 4992POPC   PO463024   8.640  24.877   5.467
 4992POPC   GL163025   8.732  24.654   5.863
 4992POPC   GL263026   8.560  24.336   5.993
 4992POPC   C1A63027   8.978  24.510   6.221
 4992POPC   D2A63028   9.204  24.670   6.578
 4992POPC   C3A63029   9.021  24.433   6.922
 4992POPC   C4A63030   8.930  24.580   7.317
 4992POPC   C1B63031   8.778  23.998   6.210
 4992POPC   C2B63032   9.028  24.023   6.577
 4992POPC   C3B63033   8.964  23.907   7.020
 4992POPC   C4B63034   8.707  24.119   7.315
 4993POPC   NC363035  21.139  41.704   5.321
 4993POPC   PO463036  21.663  41.210   5.535
 4993POPC   GL163037  21.365  41.477   5.768
 4993POPC   GL263038  21.342  41.839   5.776
 4993POPC   C1A63039  21.403  41.548   6.250
 4993POPC   D2A63040  21.553  41.766   6.649
 4993POPC   C3A63041  21.588  41.572   7.102
 4993POPC   C4A63042  21.840  41.488   7.507
 4993POPC   C1B63043  21.160  41.976   6.156
 4993POPC   C2B63044  21.019  41.851   6.560
 4993POPC   C3B63045  21.179  41.879   6.982
 4993POPC   C4B63046  21.044  41.684   7.370
 4994POPC   NC363047  33.813  36.281   5.372
 4994POPC   PO463048  33.923  35.716   5.223
 4994POPC   GL163049  33.818  35.899   5.706
 4994POPC   GL263050  33.964  36.217   5.872
 4994POPC   C1A63051  33.595  36.000   6.156
 4994POPC   D2A63052  33.479  36.204   6.567
 4994POPC   C3A63053  33.685  36.083   6.996
 4994POPC   C4A63054  33.740  36.337   7.355
 4994POPC   C1B63055  33.964  36.321   6.347
 4994POPC   C2B63056  34.078  36.375   6.809
 4994POPC   C3B63057  34.231  36.399   7.248
 4994POPC   C4B63058  34.104  36.566   7.669
 4995POPC   NC363059  38.847  14.561   5.388
 4995POPC   PO463060  38.308  14.100   5.235
 4995POPC   GL163061  38.395  14.280   5.653
 4995POPC   GL263062  38.071  14.186   5.747
 4995POPC   C1A63063  38.640  14.394   6.074
 4995POPC   D2A63064  38.894  14.340   6.488
 4995POPC   C3A63065  38.677  14.278   6.898
 4995POPC   C4A63066  38.380  14.548   7.114
 4995POPC   C1B63067  38.188  14.118   6.156
 4995POPC   C2B63068  38.318  14.265   6.530
 4995POPC   C3B63069  38.136  14.167   6.903
 4995POPC   C4B63070  38.208  14.096   7.315
 4996POPC   NC363071   4.152  32.420   5.323
 4996POPC   PO463072   3.938  31.827   5.671
 4996POPC   GL163073   4.236  32.168   5.810
 4996POPC   GL263074   4.319  32.533   5.782
 4996POPC   C1A63075   4.384  32.211   6.213
 4996POPC   D2A63076   4.371  31.905   6.550
 4996POPC   C3A63077   4.314  32.108   6.967
 4996POPC   C4A63078   4.138  32.072   7.394
 4996POPC   C1B63079   4.462  32.721   6.149
 4996POPC   C2B63080   4.365  32.669   6.576
 4996POPC   C3B63081   4.504  32.607   7.004
 4996POPC   C4B63082   4.114  32.550   7.215
 4997POPC   NC363083  41.009  27.816   5.176
 4997POPC   PO463084  40.432  27.809   5.569
 4997POPC   GL163085  40.641  27.677   5.941
 4997POPC   GL263086  41.002  27.665   5.865
 4997POPC   C1A63087  40.690  27.506   6.362
 4997POPC   D2A63088  40.812  27.714   6.723
 4997POPC   C3A63089  40.696  27.689   7.135
 4997POPC   C4A63090  41.005  27.845   7.458
 4997POPC   C1B63091  41.048  27.269   6.084
 4997POPC   C2B63092  41.100  27.240   6.532
 4997POPC   C3B63093  40.862  27.226   6.933
 4997POPC   C4B63094  40.993  27.330   7.345
 4998POPC   NC363095   0.046  25.202   5.462
 4998POPC   PO463096   0.632  25.638   5.509
 4998POPC   GL163097   0.537  25.434   5.883
 4998POPC   GL263098   0.175  25.468   5.888
 4998POPC   C1A63099   0.722  25.470   6.292
 4998POPC   D2A63100   0.612  25.601   6.697
 4998POPC   C3A63101   0.508  25.289   6.994
 4998POPC   C4A63102   0.398  25.320   7.435
 4998POPC   C1B63103   0.232  25.263   6.293
 4998POPC   C2B63104   0.107  25.152   6.704
 4998POPC   C3B63105  44.997  25.305   7.120
 4998POPC   C4B63106  44.841  25.537   7.498
 4999POPC   NC363107  38.754   9.191   5.442
 4999POPC   PO463108  38.131   8.892   5.272
 4999POPC   GL163109  38.136   8.924   5.719
 4999POPC   GL263110  38.516   8.915   5.801
 4999POPC   C1A63111  38.180   8.752   6.135
 4999POPC   D2A63112  38.070   8.717   6.552
 4999POPC   C3A63113  38.261   9.032   6.817
 4999POPC   C4A63114  38.347   8.888   7.229
 4999POPC   C1B63115  38.590   9.159   6.164
 4999POPC   C2B63116  38.708   9.232   6.575
 4999POPC   C3B63117  38.782   9.026   6.940
 4999POPC   C4B63118  38.820   9.245   7.267
 5000POPC   NC363119  36.300  22.337   5.365
 5000POPC   PO463120  35.814  21.888   5.542
 5000POPC   GL163121  36.092  22.042   5.843
 5000POPC   GL263122  36.425  22.207   5.838
 5000POPC   C1A63123  36.025  22.255   6.215
 5000POPC   D2A63124  36.092  22.045   6.568
 5000POPC   C3A63125  35.988  22.239   6.914
 5000POPC   C4A63126  35.973  22.028   7.243
 5000POPC   C1B63127  36.518  22.212   6.273
 5000POPC   C2B63128  36.729  22.419   6.533
 5000POPC   C3B63129  36.651  22.498   6.914
 5000POPC   C4B63130  36.414  22.251   7.198
 5001POPC   NC363131  38.711  32.547   5.513
 5001POPC   PO463132  38.358  32.041   5.442
 5001POPC   GL163133  38.161  32.196   5.810
 5001POPC   GL263134  38.201  32.559   5.838
 5001POPC   C1A63135  38.078  31.989   6.200
 5001POPC   D2A63136  38.308  31.922   6.541
 5001POPC   C3A63137  38.388  32.083   6.931
 5001POPC   C4A63138  38.713  32.270   7.191
 5001POPC   C1B63139  38.328  32.463   6.248
 5001POPC   C2B63140  38.158  32.600   6.632
 5001POPC   C3B63141  38.229  32.534   7.072
 5001POPC   C4B63142  37.993  32.509   7.414
 5002POPC   NC363143  28.545  12.958   5.470
 5002POPC   PO463144  28.225  12.342   5.372
 5002POPC   GL163145  28.200  12.681   5.742
 5002POPC   GL263146  28.317  13.027   5.914
 5002POPC   C1A63147  28.382  12.575   6.169
 5002POPC   D2A63148  28.396  12.579   6.633
 5002POPC   C3A63149  28.495  12.816   6.987
 5002POPC   C4A63150  28.805  12.642   7.247
 5002POPC   C1B63151  28.489  13.311   6.262
 5002POPC   C2B63152  28.500  13.305   6.728
 5002POPC   C3B63153  28.473  13.281   7.188
 5002POPC   C4B63154  28.372  13.305   7.667
 5003POPC   NC363155  40.216  24.246   5.133
 5003POPC   PO463156  39.793  23.678   5.213
 5003POPC   GL163157  39.977  23.849   5.673
 5003POPC   GL263158  39.746  23.968   5.977
 5003POPC   C1A63159  40.165  23.722   6.103
 5003POPC   D2A63160  40.061  23.763   6.572
 5003POPC   C3A63161  40.220  23.736   7.020
 5003POPC   C4A63162  40.179  24.047   7.384
 5003POPC   C1B63163  39.702  23.546   6.250
 5003POPC   C2B63164  39.746  23.322   6.632
 5003POPC   C3B63165  39.696  23.560   7.018
 5003POPC   C4B63166  39.889  23.625   7.404
 5004POPC   NC363167   0.200  27.633   5.415
 5004POPC   PO463168   0.768  27.300   5.405
 5004POPC   GL163169   0.558  27.500   5.792
 5004POPC   GL263170   0.210  27.641   5.908
 5004POPC   C1A63171   0.433  27.313   6.199
 5004POPC   D2A63172   0.593  27.315   6.601
 5004POPC   C3A63173   0.368  27.183   6.948
 5004POPC   C4A63174   0.499  27.267   7.368
 5004POPC   C1B63175   0.445  27.820   6.274
 5004POPC   C2B63176   0.500  27.805   6.734
 5004POPC   C3B63177   0.283  27.670   7.097
 5004POPC   C4B63178   0.123  27.950   7.421
 5005POPC   NC363179  31.739  14.181   5.534
 5005POPC   PO463180  31.022  14.282   5.540
 5005POPC   GL163181  31.305  14.082   5.789
 5005POPC   GL263182  31.432  14.445   5.844
 5005POPC   C1A63183  31.500  14.071   6.198
 5005POPC   D2A63184  31.332  14.342   6.507
 5005POPC   C3A63185  31.430  14.211   6.912
 5005POPC   C4A63186  31.159  13.927   7.115
 5005POPC   C1B63187  31.706  14.634   6.160
 5005POPC   C2B63188  31.765  14.566   6.608
 5005POPC   C3B63189  31.466  14.716   6.905
 5005POPC   C4B63190  31.618  14.728   7.299
 5006POPC   NC363191  41.834  44.504   5.677
 5006POPC   PO463192  41.335  44.923   5.531
 5006POPC   GL163193  41.433  44.693   5.902
 5006POPC   GL263194  41.328  44.334   5.882
 5006POPC   C1A63195  41.649  44.815   6.277
 5006POPC   D2A63196  41.547  44.923   6.677
 5006POPC   C3A63197  41.904  44.894   6.899
 5006POPC   C4A63198  41.975  44.870   7.314
 5006POPC   C1B63199  41.509  44.333   6.301
 5006POPC   C2B63200  41.711  44.423   6.722
 5006POPC   C3B63201  41.567  44.575   7.148
 5006POPC   C4B63202  41.307  44.349   7.469
 5007POPC   NC363203  15.938  20.140   5.268
 5007POPC   PO463204  15.530  19.595   5.373
 5007POPC   GL163205  15.854  19.820   5.677
 5007POPC   GL263206  15.732  20.100   5.905
 5007POPC   C1A63207  16.066  19.769   6.096
 5007POPC   D2A63208  15.884  19.647   6.504
 5007POPC   C3A63209  16.095  19.840   6.867
 5007POPC   C4A63210  16.153  19.747   7.296
 5007POPC   C1B63211  15.596  20.056   6.328
 5007POPC   C2B63212  15.398  19.793   6.637
 5007POPC   C3B63213  15.602  19.690   7.008
 5007POPC   C4B63214  15.696  19.969   7.276
 5008POPC   NC363215  28.882  19.498   5.496
 5008POPC   PO463216  29.333  19.023   5.422
 5008POPC   GL163217  29.174  19.109   5.781
 5008POPC   GL263218  28.861  19.037   5.749
 5008POPC   C1A63219  29.084  19.292   6.165
 5008POPC   D2A63220  29.248  19.113   6.506
 5008POPC   C3A63221  29.205  19.242   6.927
 5008POPC   C4A63222  28.918  19.213   7.240
 5008POPC   C1B63223  28.842  18.786   6.087
 5008POPC   C2B63224  28.851  18.669   6.500
 5008POPC   C3B63225  29.134  18.732   6.807
 5008POPC   C4B63226  29.192  18.742   7.220
 5009POPC   NC363227   5.224   4.032   5.313
 5009POPC   PO463228   4.877   4.566   5.507
 5009POPC   GL163229   4.932   4.176   5.754
 5009POPC   GL263230   5.293   4.170   5.813
 5009POPC   C1A63231   4.830   4.074   6.190
 5009POPC   D2A63232   4.786   4.403   6.521
 5009POPC   C3A63233   4.850   4.181   6.897
 5009POPC   C4A63234   4.950   4.195   7.336
 5009POPC   C1B63235   5.214   4.395   6.188
 5009POPC   C2B63236   5.245   4.161   6.575
 5009POPC   C3B63237   5.351   4.230   7.000
 5009POPC   C4B63238   5.378   3.957   7.323
 5010POPC   NC363239  27.793   0.465   5.367
 5010POPC   PO463240  27.181   0.665   5.234
 5010POPC   GL163241  27.349   0.522   5.670
 5010POPC   GL263242  27.696   0.616   5.830
 5010POPC   C1A63243  27.358   0.378   6.115
 5010POPC   D2A63244  27.234   0.181   6.503
 5010POPC   C3A63245  27.404   0.484   6.813
 5010POPC   C4A63246  27.542   0.534   7.235
 5010POPC   C1B63247  27.916   0.555   6.226
 5010POPC   C2B63248  27.945   0.577   6.684
 5010POPC   C3B63249  27.939   0.882   7.016
 5010POPC   C4B63250  27.866   0.874   7.464
 5011POPC   NC363251  30.423  33.208   5.477
 5011POPC   PO463252  30.962  32.859   5.499
 5011POPC   GL163253  30.746  32.996   5.846
 5011POPC   GL263254  30.804  33.340   5.817
 5011POPC   C1A63255  30.587  32.878   6.257
 5011POPC   D2A63256  30.761  32.916   6.658
 5011POPC   C3A63257  30.544  33.039   7.050
 5011POPC   C4A63258  30.560  33.101   7.500
 5011POPC   C1B63259  30.642  33.381   6.226
 5011POPC   C2B63260  30.937  33.427   6.544
 5011POPC   C3B63261  30.967  33.308   6.927
 5011POPC   C4B63262  30.858  33.451   7.281
 5012POPC   NC363263  19.581  42.698   5.701
 5012POPC   PO463264  19.178  42.185   5.420
 5012POPC   GL163265  19.004  42.220   5.822
 5012POPC   GL263266  19.109  42.551   5.880
 5012POPC   C1A63267  18.836  42.223   6.264
 5012POPC   D2A63268  18.718  42.429   6.686
 5012POPC   C3A63269  18.917  42.272   7.075
 5012POPC   C4A63270  19.122  42.167   7.483
 5012POPC   C1B63271  18.919  42.724   6.250
 5012POPC   C2B63272  18.954  42.903   6.668
 5012POPC   C3B63273  18.801  42.814   7.080
 5012POPC   C4B63274  18.869  42.589   7.453
 5013POPC   NC363275  12.658  32.584   5.535
 5013POPC   PO463276  12.903  32.064   5.162
 5013POPC   GL163277  12.978  32.212   5.672
 5013POPC   GL263278  12.626  32.278   5.928
 5013POPC   C1A63279  13.047  32.429   6.118
 5013POPC   D2A63280  13.274  32.538   6.487
 5013POPC   C3A63281  13.086  32.420   6.889
 5013POPC   C4A63282  12.990  32.608   7.277
 5013POPC   C1B63283  12.586  32.115   6.316
 5013POPC   C2B63284  12.940  32.062   6.553
 5013POPC   C3B63285  12.969  31.908   6.966
 5013POPC   C4B63286  12.779  32.136   7.275
 5014POPC   NC363287  14.964  28.021   5.466
 5014POPC   PO463288  14.309  28.080   5.438
 5014POPC   GL163289  14.574  28.188   5.799
 5014POPC   GL263290  14.700  28.543   5.762
 5014POPC   C1A63291  14.408  28.382   6.173
 5014POPC   D2A63292  14.058  28.343   6.466
 5014POPC   C3A63293  14.215  28.470   6.882
 5014POPC   C4A63294  14.271  28.319   7.332
 5014POPC   C1B63295  14.868  28.617   6.201
 5014POPC   C2B63296  14.636  28.573   6.604
 5014POPC   C3B63297  14.708  28.508   7.058
 5014POPC   C4B63298  14.661  28.593   7.515
 5015POPC   NC363299  33.759  30.375   5.324
 5015POPC   PO463300  33.672  30.999   5.466
 5015POPC   GL163301  33.656  30.667   5.742
 5015POPC   GL263302  34.013  30.534   5.747
 5015POPC   C1A63303  33.613  30.710   6.172
 5015POPC   D2A63304  33.723  30.998   6.454
 5015POPC   C3A63305  33.626  30.887   6.853
 5015POPC   C4A63306  33.783  30.973   7.248
 5015POPC   C1B63307  33.961  30.371   6.195
 5015POPC   C2B63308  33.784  30.464   6.631
 5015POPC   C3B63309  33.821  30.463   7.134
 5015POPC   C4B63310  34.051  30.302   7.567
 5016POPC   NC363311  40.897  19.445   5.471
 5016POPC   PO463312  40.738  18.795   5.406
 5016POPC   GL163313  40.629  19.090   5.775
 5016POPC   GL263314  40.901  19.289   5.944
 5016POPC   C1A63315  40.535  19.100   6.247
 5016POPC   D2A63316  40.729  19.048   6.660
 5016POPC   C3A63317  40.635  19.033   7.093
 5016POPC   C4A63318  40.866  18.930   7.475
 5016POPC   C1B63319  41.162  19.324   6.290
 5016POPC   C2B63320  41.140  19.360   6.744
 5016POPC   C3B63321  41.053  19.351   7.184
 5016POPC   C4B63322  41.237  19.288   7.594
 5017POPC   NC363323  38.381  29.585   5.682
 5017POPC   PO463324  38.720  29.025   5.547
 5017POPC   GL163325  38.514  28.909   5.891
 5017POPC   GL263326  38.812  28.769   6.000
 5017POPC   C1A63327  38.313  29.059   6.256
 5017POPC   D2A63328  38.053  29.326   6.541
 5017POPC   C3A63329  38.221  29.247   6.959
 5017POPC   C4A63330  38.591  29.381   7.190
 5017POPC   C1B63331  38.832  29.206   6.174
 5017POPC   C2B63332  38.951  29.280   6.582
 5017POPC   C3B63333  38.914  29.004   6.942
 5017POPC   C4B63334  38.617  28.810   7.229
 5018POPC   NC363335  36.648   5.487   5.485
 5018POPC   PO463336  37.077   5.906   5.565
 5018POPC   GL163337  36.903   6.023   5.905
 5018POPC   GL263338  36.567   6.027   5.870
 5018POPC   C1A63339  36.853   6.081   6.332
 5018POPC   D2A63340  36.964   5.828   6.674
 5018POPC   C3A63341  36.840   5.963   7.056
 5018POPC   C4A63342  37.059   5.694   7.325
 5018POPC   C1B63343  36.597   5.672   6.142
 5018POPC   C2B63344  36.615   5.456   6.530
 5018POPC   C3B63345  36.647   5.502   6.948
 5018POPC   C4B63346  36.556   5.606   7.387
 5019POPC   NC363347   1.477  29.862   5.475
 5019POPC   PO463348   2.171  30.007   5.411
 5019POPC   GL163349   2.035  30.111   5.835
 5019POPC   GL263350   1.826  29.809   5.854
 5019POPC   C1A63351   2.023  29.987   6.313
 5019POPC   D2A63352   1.887  29.704   6.674
 5019POPC   C3A63353   1.904  29.917   7.109
 5019POPC   C4A63354   1.983  30.214   7.414
 5019POPC   C1B63355   1.568  30.112   6.112
 5019POPC   C2B63356   1.564  30.095   6.568
 5019POPC   C3B63357   1.635  30.330   6.947
 5019POPC   C4B63358   1.355  30.222   7.254
 5020POPC   NC363359  17.900   4.068   5.618
 5020POPC   PO463360  18.190   4.507   5.196
 5020POPC   GL163361  18.251   4.467   5.693
 5020POPC   GL263362  18.520   4.234   5.832
 5020POPC   C1A63363  18.144   4.430   6.167
 5020POPC   D2A63364  18.136   4.143   6.559
 5020POPC   C3A63365  18.090   4.376   6.976
 5020POPC   C4A63366  18.193   4.248   7.416
 5020POPC   C1B63367  18.646   4.437   6.231
 5020POPC   C2B63368  18.508   4.504   6.674
 5020POPC   C3B63369  18.600   4.496   7.140
 5020POPC   C4B63370  18.491   4.597   7.612
 5021POPC   NC363371  11.951   9.082   5.388
 5021POPC   PO463372  12.421   8.556   5.290
 5021POPC   GL163373  12.202   8.725   5.655
 5021POPC   GL263374  12.432   8.926   5.846
 5021POPC   C1A63375  11.939   8.832   6.032
 5021POPC   D2A63376  11.796   8.578   6.400
 5021POPC   C3A63377  11.883   8.555   6.833
 5021POPC   C4A63378  12.208   8.703   7.107
 5021POPC   C1B63379  12.370   8.816   6.305
 5021POPC   C2B63380  12.075   8.975   6.624
 5021POPC   C3B63381  12.087   9.187   7.015
 5021POPC   C4B63382  12.301   9.094   7.426
 5022POPC   NC363383  33.489  28.788   5.593
 5022POPC   PO463384  33.876  28.234   5.482
 5022POPC   GL163385  33.772  28.426   5.837
 5022POPC   GL263386  34.003  28.694   5.830
 5022POPC   C1A63387  33.558  28.267   6.182
 5022POPC   D2A63388  33.743  28.141   6.549
 5022POPC   C3A63389  33.507  28.215   6.896
 5022POPC   C4A63390  33.647  28.100   7.273
 5022POPC   C1B63391  34.145  28.514   6.228
 5022POPC   C2B63392  34.186  28.383   6.662
 5022POPC   C3B63393  33.860  28.582   6.902
 5022POPC   C4B63394  33.653  28.608   7.302
 5023POPC   NC363395  10.839  16.053   5.485
 5023POPC   PO463396  11.306  16.548   5.341
 5023POPC   GL163397  11.331  16.277   5.711
 5023POPC   GL263398  11.434  15.931   5.750
 5023POPC   C1A63399  11.341  16.311   6.157
 5023POPC   D2A63400  11.462  16.183   6.584
 5023POPC   C3A63401  11.122  16.219   6.896
 5023POPC   C4A63402  11.304  16.262   7.295
 5023POPC   C1B63403  11.320  15.763   6.177
 5023POPC   C2B63404  11.188  15.752   6.616
 5023POPC   C3B63405  10.984  15.558   6.959
 5023POPC   C4B63406  10.956  15.844   7.274
 5024POPC   NC363407  29.023  28.052   5.284
 5024POPC   PO463408  29.062  28.753   5.278
 5024POPC   GL163409  29.157  28.410   5.630
 5024POPC   GL263410  28.881  28.210   5.760
 5024POPC   C1A63411  29.232  28.268   6.106
 5024POPC   D2A63412  29.424  28.171   6.531
 5024POPC   C3A63413  29.190  28.224   6.905
 5024POPC   C4A63414  29.113  28.275   7.333
 5024POPC   C1B63415  28.760  28.475   6.159
 5024POPC   C2B63416  28.822  28.498   6.595
 5024POPC   C3B63417  28.833  28.606   7.014
 5024POPC   C4B63418  28.582  28.621   7.355
 5025POPC   NC363419  38.233  41.850   5.648
 5025POPC   PO463420  38.129  42.426   5.294
 5025POPC   GL163421  38.221  42.539   5.725
 5025POPC   GL263422  38.518  42.344   5.755
 5025POPC   C1A63423  38.209  42.326   6.164
 5025POPC   D2A63424  38.476  42.179   6.527
 5025POPC   C3A63425  38.483  42.469   6.876
 5025POPC   C4A63426  38.289  42.397   7.269
 5025POPC   C1B63427  38.746  42.474   6.127
 5025POPC   C2B63428  38.894  42.529   6.555
 5025POPC   C3B63429  39.063  42.504   6.969
 5025POPC   C4B63430  38.793  42.594   7.323
 5026POPC   NC363431   7.762  43.371   5.388
 5026POPC   PO463432   7.200  43.054   5.598
 5026POPC   GL163433   7.343  42.945   5.951
 5026POPC   GL263434   7.687  42.954   5.760
 5026POPC   C1A63435   7.129  43.197   6.292
 5026POPC   D2A63436   7.097  43.194   6.738
 5026POPC   C3A63437   7.408  43.024   6.980
 5026POPC   C4A63438   7.405  43.274   7.333
 5026POPC   C1B63439   7.622  43.337   6.064
 5026POPC   C2B63440   7.582  43.324   6.519
 5026POPC   C3B63441   7.642  43.476   6.932
 5026POPC   C4B63442   7.870  43.500   7.302
 5027POPC   NC363443  32.003  37.277   5.510
 5027POPC   PO463444  32.411  37.828   5.356
 5027POPC   GL163445  32.376  37.816   5.826
 5027POPC   GL263446  32.309  37.480   5.874
 5027POPC   C1A63447  32.229  37.775   6.294
 5027POPC   D2A63448  32.038  37.864   6.727
 5027POPC   C3A63449  32.274  37.814   7.101
 5027POPC   C4A63450  32.540  37.660   7.454
 5027POPC   C1B63451  31.985  37.338   6.217
 5027POPC   C2B63452  32.079  37.341   6.645
 5027POPC   C3B63453  31.890  37.311   7.037
 5027POPC   C4B63454  32.097  37.434   7.419
 5028POPC   NC363455  12.724  25.060   5.351
 5028POPC   PO463456  13.269  25.527   5.315
 5028POPC   GL163457  13.012  25.349   5.652
 5028POPC   GL263458  12.988  25.620   5.873
 5028POPC   C1A63459  12.799  25.179   6.043
 5028POPC   D2A63460  12.786  25.377   6.453
 5028POPC   C3A63461  12.612  25.112   6.787
 5028POPC   C4A63462  12.450  25.140   7.206
 5028POPC   C1B63463  13.186  25.752   6.267
 5028POPC   C2B63464  13.108  25.699   6.699
 5028POPC   C3B63465  13.089  25.319   6.878
 5028POPC   C4B63466  12.954  25.133   7.201
 5029POPC   NC363467  42.004   4.189   5.344
 5029POPC   PO463468  42.625   4.535   5.336
 5029POPC   GL163469  42.476   4.374   5.743
 5029POPC   GL263470  42.115   4.397   5.785
 5029POPC   C1A63471  42.573   4.152   6.136
 5029POPC   D2A63472  42.807   4.209   6.519
 5029POPC   C3A63473  42.639   4.310   6.933
 5029POPC   C4A63474  42.513   4.149   7.365
 5029POPC   C1B63475  42.172   4.456   6.192
 5029POPC   C2B63476  42.366   4.522   6.540
 5029POPC   C3B63477  42.159   4.491   6.927
 5029POPC   C4B63478  42.339   4.614   7.288
 5030POPC   NC363479  38.932   4.856   5.514
 5030POPC   PO463480  38.377   5.220   5.305
 5030POPC   GL163481  38.461   5.056   5.754
 5030POPC   GL263482  38.468   5.372   5.893
 5030POPC   C1A63483  38.405   4.974   6.211
 5030POPC   D2A63484  38.533   4.899   6.640
 5030POPC   C3A63485  38.269   5.044   6.971
 5030POPC   C4A63486  38.186   4.885   7.370
 5030POPC   C1B63487  38.552   5.557   6.265
 5030POPC   C2B63488  38.680   5.383   6.654
 5030POPC   C3B63489  38.548   5.459   7.070
 5030POPC   C4B63490  38.790   5.557   7.415
 5031POPC   NC363491  21.529   0.763   5.380
 5031POPC   PO463492  21.243   0.072   5.496
 5031POPC   GL163493  21.165   0.325   5.815
 5031POPC   GL263494  20.966   0.626   5.707
 5031POPC   C1A63495  21.197   0.201   6.247
 5031POPC   D2A63496  21.375   0.029   6.613
 5031POPC   C3A63497  21.335   0.338   6.894
 5031POPC   C4A63498  21.586   0.443   7.237
 5031POPC   C1B63499  20.845   0.546   6.145
 5031POPC   C2B63500  20.958   0.577   6.559
 5031POPC   C3B63501  20.959   0.763   6.978
 5031POPC   C4B63502  21.068   0.476   7.309
 5032POPC   NC363503  13.822  31.874   5.338
 5032POPC   PO463504  13.786  32.507   5.107
 5032POPC   GL163505  13.587  32.249   5.592
 5032POPC   GL263506  13.878  32.036   5.805
 5032POPC   C1A63507  13.539  32.274   6.096
 5032POPC   D2A63508  13.464  32.079   6.544
 5032POPC   C3A63509  13.588  32.282   6.919
 5032POPC   C4A63510  13.336  32.229   7.290
 5032POPC   C1B63511  14.121  32.183   6.184
 5032POPC   C2B63512  14.109  32.419   6.581
 5032POPC   C3B63513  14.104  32.273   7.016
 5032POPC   C4B63514  13.862  32.342   7.390
 5033POPC   NC363515  39.173  28.980   5.605
 5033POPC   PO463516  39.637  29.388   5.381
 5033POPC   GL163517  39.534  29.304   5.809
 5033POPC   GL263518  39.571  28.962   5.970
 5033POPC   C1A63519  39.422  29.365   6.235
 5033POPC   D2A63520  39.626  29.096   6.516
 5033POPC   C3A63521  39.386  29.202   6.823
 5033POPC   C4A63522  39.111  29.472   7.042
 5033POPC   C1B63523  39.220  28.893   6.275
 5033POPC   C2B63524  39.249  28.713   6.642
 5033POPC   C3B63525  39.573  28.714   6.912
 5033POPC   C4B63526  39.459  28.977   7.256
 5034POPC   NC363527  28.289  24.479   5.408
 5034POPC   PO463528  28.886  24.644   5.694
 5034POPC   GL163529  28.452  24.508   5.884
 5034POPC   GL263530  28.253  24.153   5.790
 5034POPC   C1A63531  28.167  24.650   6.211
 5034POPC   D2A63532  27.964  24.431   6.538
 5034POPC   C3A63533  28.166  24.571   6.899
 5034POPC   C4A63534  28.099  24.520   7.314
 5034POPC   C1B63535  28.297  24.163   6.229
 5034POPC   C2B63536  28.529  24.451   6.518
 5034POPC   C3B63537  28.640  24.364   6.921
 5034POPC   C4B63538  28.338  24.088   7.068
 5035POPC   NC363539  12.697  27.628   5.339
 5035POPC   PO463540  13.202  27.177   5.565
 5035POPC   GL163541  12.879  27.487   5.794
 5035POPC   GL263542  12.483  27.438   5.760
 5035POPC   C1A63543  12.939  27.810   6.137
 5035POPC   D2A63544  13.245  27.884   6.507
 5035POPC   C3A63545  13.126  27.634   6.873
 5035POPC   C4A63546  12.902  27.594   7.255
 5035POPC   C1B63547  12.584  27.332   6.188
 5035POPC   C2B63548  12.797  27.391   6.563
 5035POPC   C3B63549  12.717  27.214   6.959
 5035POPC   C4B63550  12.505  27.261   7.369
 5036POPC   NC363551  10.104  44.273   5.454
 5036POPC   PO463552   9.765  43.699   5.318
 5036POPC   GL163553   9.678  43.782   5.758
 5036POPC   GL263554   9.364  43.671   5.734
 5036POPC   C1A63555   9.551  43.972   6.179
 5036POPC   D2A63556   9.814  44.010   6.549
 5036POPC   C3A63557   9.661  44.177   6.924
 5036POPC   C4A63558   9.668  44.010   7.330
 5036POPC   C1B63559   9.402  43.491   6.137
 5036POPC   C2B63560   9.403  43.653   6.564
 5036POPC   C3B63561   9.634  43.652   6.923
 5036POPC   C4B63562   9.611  43.301   7.181
 5037POPC   NC363563  41.783  31.133   5.397
 5037POPC   PO463564  41.265  31.550   5.304
 5037POPC   GL163565  41.446  31.386   5.680
 5037POPC   GL263566  41.729  31.606   5.664
 5037POPC   C1A63567  41.440  31.517   6.110
 5037POPC   D2A63568  41.586  31.691   6.491
 5037POPC   C3A63569  41.453  31.718   6.904
 5037POPC   C4A63570  41.664  31.717   7.304
 5037POPC   C1B63571  41.905  31.354   6.012
 5037POPC   C2B63572  41.895  31.289   6.462
 5037POPC   C3B63573  41.898  31.476   6.895
 5037POPC   C4B63574  41.851  31.238   7.303
 5038POPC   NC363575  32.779  21.278   5.429
 5038POPC   PO463576  33.199  21.724   5.461
 5038POPC   GL163577  33.257  21.413   5.833
 5038POPC   GL263578  33.049  21.098   5.809
 5038POPC   C1A63579  33.219  21.218   6.270
 5038POPC   D2A63580  32.889  21.356   6.566
 5038POPC   C3A63581  33.000  21.524   6.961
 5038POPC   C4A63582  32.823  21.839   7.226
 5038POPC   C1B63583  32.674  21.103   6.126
 5038POPC   C2B63584  32.495  21.009   6.544
 5038POPC   C3B63585  32.574  21.181   6.965
 5038POPC   C4B63586  32.675  21.368   7.358
 5039POPC   NC363587   2.644  19.317   5.325
 5039POPC   PO463588   3.057  18.808   5.345
 5039POPC   GL163589   3.028  18.724   5.800
 5039POPC   GL263590   2.945  19.075   5.850
 5039POPC   C1A63591   2.875  18.786   6.260
 5039POPC   D2A63592   2.636  18.758   6.668
 5039POPC   C3A63593   2.814  18.974   7.041
 5039POPC   C4A63594   2.742  19.148   7.464
 5039POPC   C1B63595   2.760  19.298   6.235
 5039POPC   C2B63596   2.631  19.313   6.688
 5039POPC   C3B63597   2.425  19.337   7.102
 5039POPC   C4B63598   2.353  19.490   7.521
 5040POPC   NC363599  18.835   7.661   5.441
 5040POPC   PO463600  19.283   7.163   5.301
 5040POPC   GL163601  19.094   7.301   5.721
 5040POPC   GL263602  18.748   7.189   5.811
 5040POPC   C1A63603  18.955   7.561   6.140
 5040POPC   D2A63604  19.117   7.652   6.566
 5040POPC   C3A63605  18.853   7.606   6.928
 5040POPC   C4A63606  19.077   7.683   7.323
 5040POPC   C1B63607  19.087   7.073   6.164
 5040POPC   C2B63608  19.037   7.036   6.626
 5040POPC   C3B63609  19.078   7.165   7.059
 5040POPC   C4B63610  18.743   7.276   7.336
 5041POPC   NC363611  14.593  25.550   5.314
 5041POPC   PO463612  14.605  24.882   5.576
 5041POPC   GL163613  14.375  25.188   5.817
 5041POPC   GL263614  14.380  25.558   5.766
 5041POPC   C1A63615  14.143  25.367   6.161
 5041POPC   D2A63616  14.128  25.576   6.495
 5041POPC   C3A63617  14.030  25.426   6.871
 5041POPC   C4A63618  14.253  25.323   7.235
 5041POPC   C1B63619  14.526  25.704   6.131
 5041POPC   C2B63620  14.498  25.892   6.547
 5041POPC   C3B63621  14.543  25.548   6.838
 5041POPC   C4B63622  14.728  25.509   7.241
 5042POPC   NC363623   2.208   4.025   5.400
 5042POPC   PO463624   1.638   4.473   5.375
 5042POPC   GL163625   1.823   4.401   5.813
 5042POPC   GL263626   2.159   4.251   5.848
 5042POPC   C1A63627   1.859   4.279   6.264
 5042POPC   D2A63628   1.828   3.980   6.577
 5042POPC   C3A63629   1.955   4.173   6.940
 5042POPC   C4A63630   2.104   4.382   7.307
 5042POPC   C1B63631   2.221   3.945   6.210
 5042POPC   C2B63632   2.335   4.144   6.580
 5042POPC   C3B63633   2.440   4.333   6.939
 5042POPC   C4B63634   2.598   4.174   7.323
 5043POPC   NC363635  40.641   2.272   5.236
 5043POPC   PO463636  40.980   1.679   5.275
 5043POPC   GL163637  40.757   1.908   5.641
 5043POPC   GL263638  40.408   1.795   5.729
 5043POPC   C1A63639  40.948   2.009   6.068
 5043POPC   D2A63640  40.868   2.174   6.459
 5043POPC   C3A63641  40.900   2.056   6.860
 5043POPC   C4A63642  40.738   2.301   7.185
 5043POPC   C1B63643  40.442   2.027   6.151
 5043POPC   C2B63644  40.442   1.909   6.614
 5043POPC   C3B63645  40.314   2.054   7.055
 5043POPC   C4B63646  40.367   2.176   7.542
 5044POPC   NC363647  21.196   3.166   5.257
 5044POPC   PO463648  21.657   3.670   5.226
 5044POPC   GL163649  21.490   3.454   5.611
 5044POPC   GL263650  21.658   3.140   5.719
 5044POPC   C1A63651  21.435   3.607   6.059
 5044POPC   D2A63652  21.328   3.836   6.427
 5044POPC   C3A63653  21.167   3.598   6.765
 5044POPC   C4A63654  21.336   3.519   7.200
 5044POPC   C1B63655  21.729   3.215   6.170
 5044POPC   C2B63656  21.680   3.450   6.561
 5044POPC   C3B63657  21.632   3.217   6.926
 5044POPC   C4B63658  21.604   3.108   7.373
 5045POPC   NC363659  30.387   5.791   5.437
 5045POPC   PO463660  30.762   6.283   5.640
 5045POPC   GL163661  30.742   5.860   5.807
 5045POPC   GL263662  31.054   5.634   5.794
 5045POPC   C1A63663  30.671   5.836   6.249
 5045POPC   D2A63664  30.570   6.146   6.578
 5045POPC   C3A63665  30.728   6.073   6.981
 5045POPC   C4A63666  30.676   5.623   7.159
 5045POPC   C1B63667  31.158   5.979   6.078
 5045POPC   C2B63668  31.105   6.007   6.493
 5045POPC   C3B63669  31.061   5.733   6.820
 5045POPC   C4B63670  31.100   5.870   7.275
 5046POPC   NC363671   1.686  28.927   5.504
 5046POPC   PO463672   1.972  28.357   5.335
 5046POPC   GL163673   1.927  28.411   5.753
 5046POPC   GL263674   2.206  28.271   5.829
 5046POPC   C1A63675   1.964  28.597   6.165
 5046POPC   D2A63676   1.767  28.702   6.541
 5046POPC   C3A63677   1.968  28.549   6.899
 5046POPC   C4A63678   1.882  28.548   7.326
 5046POPC   C1B63679   2.370  28.099   6.159
 5046POPC   C2B63680   2.218  28.223   6.523
 5046POPC   C3B63681   2.281  28.085   6.878
 5046POPC   C4B63682   2.309  28.303   7.209
 5047POPC   NC363683   0.879  10.917   5.425
 5047POPC   PO463684   1.271  11.496   5.548
 5047POPC   GL163685   1.316  11.167   5.898
 5047POPC   GL263686   1.089  10.870   5.897
 5047POPC   C1A63687   1.471  11.183   6.313
 5047POPC   D2A63688   1.296  11.342   6.640
 5047POPC   C3A63689   1.401  11.279   7.017
 5047POPC   C4A63690   1.373  11.425   7.406
 5047POPC   C1B63691   0.954  11.122   6.263
 5047POPC   C2B63692   0.814  11.204   6.670
 5047POPC   C3B63693   0.914  11.223   7.105
 5047POPC   C4B63694   0.758  11.108   7.492
 5048POPC   NC363695  24.305   3.365   5.407
 5048POPC   PO463696  23.596   3.402   5.381
 5048POPC   GL163697  23.801   3.486   5.717
 5048POPC   GL263698  23.760   3.819   5.794
 5048POPC   C1A63699  23.701   3.426   6.139
 5048POPC   D2A63700  23.788   3.154   6.453
 5048POPC   C3A63701  23.762   3.241   6.889
 5048POPC   C4A63702  24.110   3.251   7.196
 5048POPC   C1B63703  23.773   3.930   6.197
 5048POPC   C2B63704  23.470   3.779   6.491
 5048POPC   C3B63705  23.430   3.716   6.928
 5048POPC   C4B63706  23.770   3.641   7.214
 5049POPC   NC363707  15.677  32.980   5.271
 5049POPC   PO463708  16.281  33.194   5.583
 5049POPC   GL163709  15.938  33.100   5.880
 5049POPC   GL263710  15.659  32.906   5.795
 5049POPC   C1A63711  15.981  33.098   6.278
 5049POPC   D2A63712  16.274  33.114   6.599
 5049POPC   C3A63713  16.227  33.345   6.957
 5049POPC   C4A63714  16.191  33.079   7.298
 5049POPC   C1B63715  15.628  32.672   6.190
 5049POPC   C2B63716  15.459  32.566   6.605
 5049POPC   C3B63717  15.690  32.551   7.014
 5049POPC   C4B63718  15.786  32.667   7.444
 5050POPC   NC363719  27.030  42.169   5.542
 5050POPC   PO463720  26.725  42.811   5.398
 5050POPC   GL163721  26.712  42.545   5.776
 5050POPC   GL263722  27.054  42.643   5.817
 5050POPC   C1A63723  26.572  42.345   6.210
 5050POPC   D2A63724  26.571  42.313   6.670
 5050POPC   C3A63725  26.788  42.097   6.999
 5050POPC   C4A63726  26.637  42.344   7.302
 5050POPC   C1B63727  27.052  42.425   6.187
 5050POPC   C2B63728  27.092  42.279   6.589
 5050POPC   C3B63729  27.123  42.474   6.974
 5050POPC   C4B63730  27.032  42.660   7.371
 5051POPC   NC363731   5.205  20.769   5.227
 5051POPC   PO463732   5.275  21.427   5.250
 5051POPC   GL163733   5.059  21.538   5.675
 5051POPC   GL263734   5.330  21.733   5.809
 5051POPC   C1A63735   4.958  21.612   6.153
 5051POPC   D2A63736   4.934  21.335   6.525
 5051POPC   C3A63737   4.796  21.391   6.958
 5051POPC   C4A63738   4.967  21.258   7.349
 5051POPC   C1B63739   5.490  21.579   6.198
 5051POPC   C2B63740   5.350  21.632   6.609
 5051POPC   C3B63741   5.299  21.446   7.008
 5051POPC   C4B63742   5.439  21.534   7.470
 5052POPC   NC363743  36.405  18.992   5.257
 5052POPC   PO463744  35.838  19.390   5.335
 5052POPC   GL163745  36.092  19.283   5.779
 5052POPC   GL263746  36.140  18.914   5.860
 5052POPC   C1A63747  36.280  19.226   6.261
 5052POPC   D2A63748  36.355  19.461   6.680
 5052POPC   C3A63749  36.157  19.272   7.060
 5052POPC   C4A63750  35.806  18.973   7.054
 5052POPC   C1B63751  36.297  18.718   6.219
 5052POPC   C2B63752  36.415  18.701   6.636
 5052POPC   C3B63753  36.308  18.757   7.062
 5052POPC   C4B63754  36.470  19.012   7.380
 5053POPC   NC363755   6.433   0.073   5.601
 5053POPC   PO463756   6.647   0.634   5.225
 5053POPC   GL163757   6.640   0.580   5.686
 5053POPC   GL263758   6.857   0.296   5.795
 5053POPC   C1A63759   6.516   0.701   6.119
 5053POPC   D2A63760   6.325   0.551   6.515
 5053POPC   C3A63761   6.558   0.682   6.904
 5053POPC   C4A63762   6.509   0.521   7.315
 5053POPC   C1B63763   6.697   0.207   6.212
 5053POPC   C2B63764   6.733   0.300   6.633
 5053POPC   C3B63765   6.668   0.148   7.031
 5053POPC   C4B63766   6.902   0.052   7.391
 5054POPC   NC363767  21.746  26.941   5.369
 5054POPC   PO463768  21.066  26.940   5.428
 5054POPC   GL163769  21.391  26.962   5.798
 5054POPC   GL263770  21.699  26.734   5.860
 5054POPC   C1A63771  21.564  27.036   6.274
 5054POPC   D2A63772  21.659  26.977   6.766
 5054POPC   C3A63773  21.261  26.942   7.040
 5054POPC   C4A63774  21.005  26.569   7.125
 5054POPC   C1B63775  21.723  26.549   6.321
 5054POPC   C2B63776  21.699  26.469   6.785
 5054POPC   C3B63777  21.616  26.622   7.227
 5054POPC   C4B63778  21.630  26.434   7.654
 5055POPC   NC363779  34.149  36.832   5.327
 5055POPC   PO463780  33.523  36.630   5.284
 5055POPC   GL163781  33.664  36.636   5.711
 5055POPC   GL263782  33.827  36.939   5.784
 5055POPC   C1A63783  33.530  36.520   6.129
 5055POPC   D2A63784  33.503  36.758   6.512
 5055POPC   C3A63785  33.614  36.602   6.912
 5055POPC   C4A63786  33.893  36.789   7.228
 5055POPC   C1B63787  33.944  36.828   6.235
 5055POPC   C2B63788  34.009  36.899   6.708
 5055POPC   C3B63789  34.187  37.163   7.081
 5055POPC   C4B63790  34.000  37.201   7.531
 5056POPC   NC363791  43.416  42.649   4.968
 5056POPC   PO463792  43.820  42.728   5.468
 5056POPC   GL163793  43.872  42.619   5.906
 5056POPC   GL263794  43.682  42.359   6.062
 5056POPC   C1A63795  43.964  42.664   6.367
 5056POPC   D2A63796  43.850  42.353   6.660
 5056POPC   C3A63797  43.792  42.469   7.065
 5056POPC   C4A63798  44.217  42.620   7.156
 5056POPC   C1B63799  43.812  41.976   6.321
 5056POPC   C2B63800  43.862  41.831   6.770
 5056POPC   C3B63801  43.846  41.841   7.237
 5056POPC   C4B63802  43.858  41.823   7.697
 5057POPC   NC363803  25.809  32.868   5.132
 5057POPC   PO463804  25.875  33.414   5.577
 5057POPC   GL163805  25.768  33.070   5.793
 5057POPC   GL263806  26.069  32.861   5.781
 5057POPC   C1A63807  25.748  33.049   6.245
 5057POPC   D2A63808  25.855  32.806   6.573
 5057POPC   C3A63809  25.962  33.145   6.826
 5057POPC   C4A63810  25.850  33.215   7.206
 5057POPC   C1B63811  26.233  32.846   6.229
 5057POPC   C2B63812  26.382  32.902   6.697
 5057POPC   C3B63813  26.275  32.917   7.192
 5057POPC   C4B63814  26.358  32.895   7.659
 5058POPC   NC363815  31.907  35.231   5.547
 5058POPC   PO463816  32.577  35.113   5.422
 5058POPC   GL163817  32.337  35.032   5.760
 5058POPC   GL263818  32.346  35.417   5.823
 5058POPC   C1A63819  32.150  35.121   6.174
 5058POPC   D2A63820  32.275  35.410   6.494
 5058POPC   C3A63821  32.043  35.390   6.890
 5058POPC   C4A63822  32.157  35.302   7.331
 5058POPC   C1B63823  32.643  35.665   6.110
 5058POPC   C2B63824  32.722  35.644   6.566
 5058POPC   C3B63825  32.515  35.546   6.958
 5058POPC   C4B63826  32.675  35.358   7.333
 5059POPC   NC363827   5.204  21.892   5.334
 5059POPC   PO463828   5.413  22.530   5.529
 5059POPC   GL163829   5.277  22.276   5.871
 5059POPC   GL263830   4.963  22.087   5.775
 5059POPC   C1A63831   5.346  22.362   6.324
 5059POPC   D2A63832   5.485  22.155   6.699
 5059POPC   C3A63833   5.201  22.238   6.989
 5059POPC   C4A63834   5.149  22.311   7.394
 5059POPC   C1B63835   4.878  22.185   6.193
 5059POPC   C2B63836   4.983  22.009   6.563
 5059POPC   C3B63837   4.851  21.885   6.954
 5059POPC   C4B63838   5.049  21.790   7.298
 5060POPC   NC363839  26.498   9.615   5.462
 5060POPC   PO463840  25.827   9.646   5.333
 5060POPC   GL163841  25.930   9.739   5.763
 5060POPC   GL263842  26.187  10.028   5.818
 5060POPC   C1A63843  26.007   9.683   6.209
 5060POPC   D2A63844  25.985   9.874   6.630
 5060POPC   C3A63845  26.134   9.601   6.978
 5060POPC   C4A63846  25.979   9.616   7.422
 5060POPC   C1B63847  26.373  10.065   6.274
 5060POPC   C2B63848  26.455  10.055   6.751
 5060POPC   C3B63849  26.288  10.039   7.177
 5060POPC   C4B63850  26.485   9.692   7.437
 5061POPC   NC363851  15.701   9.747   5.363
 5061POPC   PO463852  16.160   9.400   5.559
 5061POPC   GL163853  15.986   9.671   5.832
 5061POPC   GL263854  16.030  10.009   5.699
 5061POPC   C1A63855  16.113   9.623   6.261
 5061POPC   D2A63856  16.169   9.916   6.588
 5061POPC   C3A63857  16.191   9.734   6.980
 5061POPC   C4A63858  16.016   9.630   7.347
 5061POPC   C1B63859  15.869  10.065   6.170
 5061POPC   C2B63860  15.649   9.950   6.576
 5061POPC   C3B63861  15.750  10.027   7.017
 5061POPC   C4B63862  16.096  10.220   7.213
 5062POPC   NC363863  11.501  40.479   5.498
 5062POPC   PO463864  11.267  39.940   5.357
 5062POPC   GL163865  11.245  39.810   5.797
 5062POPC   GL263866  11.596  39.868   5.794
 5062POPC   C1A63867  11.082  40.035   6.204
 5062POPC   D2A63868  11.297  40.289   6.575
 5062POPC   C3A63869  11.269  40.118   7.029
 5062POPC   C4A63870  11.080  39.765   7.272
 5062POPC   C1B63871  11.520  39.771   6.236
 5062POPC   C2B63872  11.258  39.763   6.601
 5062POPC   C3B63873  11.432  39.627   6.914
 5062POPC   C4B63874  11.599  39.750   7.263
 5063POPC   NC363875  12.823  44.434   5.320
 5063POPC   PO463876  12.630   0.059   5.494
 5063POPC   GL163877  12.671  44.889   5.903
 5063POPC   GL263878  12.951  44.649   5.806
 5063POPC   C1A63879  12.819  44.753   6.319
 5063POPC   D2A63880  13.060  44.489   6.621
 5063POPC   C3A63881  13.035  44.637   7.042
 5063POPC   C4A63882  12.713  44.955   7.133
 5063POPC   C1B63883  12.623  44.381   6.012
 5063POPC   C2B63884  12.544  44.309   6.463
 5063POPC   C3B63885  12.585  44.423   6.900
 5063POPC   C4B63886  12.363  44.234   7.276
 5064POPC   NC363887  41.404  12.642   5.220
 5064POPC   PO463888  41.504  13.439   5.386
 5064POPC   GL163889  41.397  13.071   5.618
 5064POPC   GL263890  41.719  12.908   5.546
 5064POPC   C1A63891  41.257  13.023   6.072
 5064POPC   D2A63892  41.230  12.915   6.536
 5064POPC   C3A63893  40.950  12.609   6.750
 5064POPC   C4A63894  41.088  12.785   7.140
 5064POPC   C1B63895  41.805  13.120   5.944
 5064POPC   C2B63896  41.698  12.986   6.338
 5064POPC   C3B63897  41.728  12.629   6.598
 5064POPC   C4B63898  41.393  12.430   6.879
 5065POPC   NC363899  11.025  42.119   5.458
 5065POPC   PO463900  11.384  42.654   5.208
 5065POPC   GL163901  11.404  42.576   5.657
 5065POPC   GL263902  11.541  42.244   5.749
 5065POPC   C1A63903  11.391  42.603   6.122
 5065POPC   D2A63904  11.307  42.331   6.496
 5065POPC   C3A63905  11.507  42.369   6.924
 5065POPC   C4A63906  11.119  42.334   7.126
 5065POPC   C1B63907  11.625  42.066   6.166
 5065POPC   C2B63908  11.623  41.957   6.617
 5065POPC   C3B63909  11.286  41.817   6.884
 5065POPC   C4B63910  11.515  41.899   7.209
 5066POPC   NC363911  44.415  34.740   5.403
 5066POPC   PO463912  43.784  34.588   5.414
 5066POPC   GL163913  43.993  34.583   5.782
 5066POPC   GL263914  43.715  34.777   5.917
 5066POPC   C1A63915  44.121  34.637   6.216
 5066POPC   D2A63916  43.810  34.728   6.527
 5066POPC   C3A63917  44.002  34.728   6.925
 5066POPC   C4A63918  44.103  34.428   7.195
 5066POPC   C1B63919  43.401  34.886   6.209
 5066POPC   C2B63920  43.425  35.093   6.593
 5066POPC   C3B63921  43.490  34.841   6.958
 5066POPC   C4B63922  43.721  34.705   7.343
 5067POPC   NC363923  25.628  14.056   5.613
 5067POPC   PO463924  26.045  13.507   5.469
 5067POPC   GL163925  26.150  13.745   5.835
 5067POPC   GL263926  26.340  13.456   5.933
 5067POPC   C1A63927  26.243  13.922   6.257
 5067POPC   D2A63928  26.034  13.894   6.631
 5067POPC   C3A63929  26.202  13.925   7.026
 5067POPC   C4A63930  26.136  13.809   7.430
 5067POPC   C1B63931  25.968  13.470   6.232
 5067POPC   C2B63932  25.859  13.393   6.651
 5067POPC   C3B63933  26.023  13.413   7.066
 5067POPC   C4B63934  25.713  13.549   7.348
 5068POPC   NC363935  20.903  29.785   5.557
 5068POPC   PO463936  20.178  29.991   5.567
 5068POPC   GL163937  20.305  30.099   5.971
 5068POPC   GL263938  20.599  29.924   5.926
 5068POPC   C1A63939  20.577  30.136   6.381
 5068POPC   D2A63940  20.944  30.187   6.671
 5068POPC   C3A63941  20.783  30.105   7.080
 5068POPC   C4A63942  20.411  29.925   7.242
 5068POPC   C1B63943  20.814  29.681   6.247
 5068POPC   C2B63944  20.771  29.677   6.701
 5068POPC   C3B63945  20.980  29.600   7.079
 5068POPC   C4B63946  21.149  29.894   7.364
 5069POPC   NC363947  15.166  19.675   5.062
 5069POPC   PO463948  15.325  18.964   5.214
 5069POPC   GL163949  15.331  19.151   5.703
 5069POPC   GL263950  15.519  18.989   5.925
 5069POPC   C1A63951  15.077  19.121   6.134
 5069POPC   D2A63952  14.913  18.873   6.501
 5069POPC   C3A63953  15.135  18.915   6.897
 5069POPC   C4A63954  14.998  19.167   7.242
 5069POPC   C1B63955  15.552  19.278   6.278
 5069POPC   C2B63956  15.491  19.280   6.713
 5069POPC   C3B63957  15.515  19.198   7.147
 5069POPC   C4B63958  15.504  18.814   7.352
 5070POPC   NC363959  23.994  41.065   5.396
 5070POPC   PO463960  24.562  40.601   5.384
 5070POPC   GL163961  24.527  40.935   5.698
 5070POPC   GL263962  24.188  40.906   5.858
 5070POPC   C1A63963  24.543  41.125   6.130
 5070POPC   D2A63964  24.303  41.110   6.524
 5070POPC   C3A63965  24.513  40.912   6.863
 5070POPC   C4A63966  24.424  40.777   7.289
 5070POPC   C1B63967  24.090  40.689   6.284
 5070POPC   C2B63968  24.139  40.546   6.739
 5070POPC   C3B63969  23.950  40.650   7.164
 5070POPC   C4B63970  24.055  40.713   7.642
 5071POPC   NC363971  41.608  35.843   5.731
 5071POPC   PO463972  41.358  36.412   5.445
 5071POPC   GL163973  41.336  36.259   5.871
 5071POPC   GL263974  41.666  36.285   6.020
 5071POPC   C1A63975  41.337  36.087   6.320
 5071POPC   D2A63976  41.498  36.212   6.711
 5071POPC   C3A63977  41.325  36.026   7.066
 5071POPC   C4A63978  41.450  35.938   7.479
 5071POPC   C1B63979  41.871  36.054   6.365
 5071POPC   C2B63980  42.029  36.034   6.788
 5071POPC   C3B63981  41.887  36.124   7.215
 5071POPC   C4B63982  41.698  36.371   7.593
 5072POPC   NC363983  26.337  31.170   5.484
 5072POPC   PO463984  26.895  30.770   5.371
 5072POPC   GL163985  26.758  30.799   5.784
 5072POPC   GL263986  27.089  30.917   5.836
 5072POPC   C1A63987  26.516  30.731   6.203
 5072POPC   D2A63988  26.671  30.817   6.592
 5072POPC   C3A63989  26.790  30.581   6.945
 5072POPC   C4A63990  26.567  30.664   7.319
 5072POPC   C1B63991  27.060  30.744   6.254
 5072POPC   C2B63992  27.183  30.873   6.673
 5072POPC   C3B63993  27.219  30.814   7.123
 5072POPC   C4B63994  27.036  30.656   7.510
 5073POPC   NC363995  14.804  27.053   5.432
 5073POPC   PO463996  15.424  27.119   5.206
 5073POPC   GL163997  15.273  26.897   5.608
 5073POPC   GL263998  15.214  26.543   5.687
 5073POPC   C1A63999  15.223  26.890   6.086
 5073POPC   D2A64000  15.001  26.788   6.504
 5073POPC   C3A64001  15.220  26.892   6.887
 5073POPC   C4A64002  15.044  27.121   7.212
 5073POPC   C1B64003  15.029  26.434   6.132
 5073POPC   C2B64004  15.181  26.281   6.544
 5073POPC   C3B64005  15.026  26.414   6.935
 5073POPC   C4B64006  15.007  26.619   7.317
 5074POPC   NC364007  10.916  17.951   5.044
 5074POPC   PO464008  11.568  17.762   5.205
 5074POPC   GL164009  11.403  17.697   5.665
 5074POPC   GL264010  11.092  17.520   5.679
 5074POPC   C1A64011  11.383  17.518   6.117
 5074POPC   D2A64012  11.175  17.377   6.495
 5074POPC   C3A64013  11.417  17.254   6.793
 5074POPC   C4A64014  11.218  17.358   7.180
 5074POPC   C1B64015  10.961  17.786   6.023
 5074POPC   C2B64016  10.973  17.834   6.451
 5074POPC   C3B64017  11.145  17.767   6.851
 5074POPC   C4B64018  10.872  17.817   7.178
 5075POPC   NC364019  40.422  12.903   5.303
 5075POPC   PO464020  40.998  12.617   5.420
 5075POPC   GL164021  40.858  12.839   5.790
 5075POPC   GL264022  40.524  12.939   5.886
 5075POPC   C1A64023  40.830  12.727   6.241
 5075POPC   D2A64024  40.697  13.006   6.562
 5075POPC   C3A64025  40.605  12.902   6.979
 5075POPC   C4A64026  40.702  13.064   7.376
 5075POPC   C1B64027  40.319  12.805   6.251
 5075POPC   C2B64028  40.435  12.568   6.605
 5075POPC   C3B64029  40.294  12.483   6.984
 5075POPC   C4B64030  40.245  12.760   7.310
 5076POPC   NC364031  15.668  41.161   5.495
 5076POPC   PO464032  16.141  41.509   5.138
 5076POPC   GL164033  16.043  41.521   5.645
 5076POPC   GL264034  15.717  41.638   5.729
 5076POPC   C1A64035  15.954  41.376   6.128
 5076POPC   D2A64036  16.197  41.410   6.531
 5076POPC   C3A64037  16.026  41.443   6.957
 5076POPC   C4A64038  15.849  41.667   7.324
 5076POPC   C1B64039  15.538  41.684   6.150
 5076POPC   C2B64040  15.701  41.615   6.561
 5076POPC   C3B64041  15.613  41.878   6.913
 5076POPC   C4B64042  15.402  41.930   7.301
 5077POPC   NC364043  25.005  32.866   5.132
 5077POPC   PO464044  25.182  33.447   5.426
 5077POPC   GL164045  25.136  33.127   5.724
 5077POPC   GL264046  24.934  32.831   5.704
 5077POPC   C1A64047  25.326  32.892   6.038
 5077POPC   D2A64048  25.252  32.909   6.500
 5077POPC   C3A64049  25.479  32.992   6.873
 5077POPC   C4A64050  25.450  32.907   7.311
 5077POPC   C1B64051  24.833  32.905   6.161
 5077POPC   C2B64052  24.769  32.783   6.614
 5077POPC   C3B64053  24.967  33.022   6.953
 5077POPC   C4B64054  24.953  33.023   7.388
 5078POPC   NC364055  17.639  17.485   5.371
 5078POPC   PO464056  17.047  17.738   5.393
 5078POPC   GL164057  17.298  17.740   5.734
 5078POPC   GL264058  17.635  17.884   5.699
 5078POPC   C1A64059  17.216  17.494   6.102
 5078POPC   D2A64060  17.073  17.274   6.462
 5078POPC   C3A64061  17.227  17.416   6.860
 5078POPC   C4A64062  17.340  17.376   7.289
 5078POPC   C1B64063  17.551  17.870   6.153
 5078POPC   C2B64064  17.574  17.566   6.503
 5078POPC   C3B64065  17.744  17.528   6.937
 5078POPC   C4B64066  17.615  17.837   7.256
 5079POPC   NC364067  24.353  28.861   5.110
 5079POPC   PO464068  24.774  28.399   5.454
 5079POPC   GL164069  24.626  28.216   5.830
 5079POPC   GL264070  24.301  28.338   5.890
 5079POPC   C1A64071  24.715  28.341   6.259
 5079POPC   D2A64072  24.649  28.608   6.617
 5079POPC   C3A64073  24.805  28.548   6.980
 5079POPC   C4A64074  24.795  28.173   7.122
 5079POPC   C1B64075  24.300  28.675   6.249
 5079POPC   C2B64076  24.135  28.669   6.691
 5079POPC   C3B64077  24.324  28.578   7.123
 5079POPC   C4B64078  24.283  28.678   7.576
 5080POPC   NC364079  41.254  20.359   5.374
 5080POPC   PO464080  40.674  20.783   5.425
 5080POPC   GL164081  40.945  20.599   5.756
 5080POPC   GL264082  41.084  20.261   5.846
 5080POPC   C1A64083  40.892  20.560   6.214
 5080POPC   D2A64084  40.623  20.480   6.540
 5080POPC   C3A64085  40.750  20.703   6.865
 5080POPC   C4A64086  40.727  20.665   7.298
 5080POPC   C1B64087  41.290  20.254   6.268
 5080POPC   C2B64088  41.089  20.297   6.714
 5080POPC   C3B64089  41.196  20.554   7.129
 5080POPC   C4B64090  41.186  20.396   7.568
 5081POPC   NC364091  41.120  26.579   5.358
 5081POPC   PO464092  41.699  26.838   5.411
 5081POPC   GL164093  41.736  26.965   5.851
 5081POPC   GL264094  41.999  27.183   5.924
 5081POPC   C1A64095  41.486  26.955   6.235
 5081POPC   D2A64096  41.261  26.756   6.564
 5081POPC   C3A64097  41.328  26.998   6.927
 5081POPC   C4A64098  41.452  26.755   7.217
 5081POPC   C1B64099  41.989  27.072   6.355
 5081POPC   C2B64100  41.805  27.163   6.756
 5081POPC   C3B64101  41.871  27.059   7.193
 5081POPC   C4B64102  41.747  27.147   7.643
 5082POPC   NC364103  33.975  12.470   5.446
 5082POPC   PO464104  33.474  12.008   5.560
 5082POPC   GL164105  33.870  12.077   5.787
 5082POPC   GL264106  34.107  11.787   5.812
 5082POPC   C1A64107  33.880  12.018   6.220
 5082POPC   D2A64108  33.592  11.846   6.497
 5082POPC   C3A64109  33.576  12.070   6.846
 5082POPC   C4A64110  33.756  12.111   7.228
 5082POPC   C1B64111  34.355  11.838   6.159
 5082POPC   C2B64112  34.230  11.948   6.604
 5082POPC   C3B64113  34.073  11.771   6.991
 5082POPC   C4B64114  34.010  11.729   7.455
 5083POPC   NC364115  15.284  17.040   5.349
 5083POPC   PO464116  15.569  16.458   5.456
 5083POPC   GL164117  15.328  16.696   5.764
 5083POPC   GL264118  15.045  16.549   5.928
 5083POPC   C1A64119  15.348  16.873   6.205
 5083POPC   D2A64120  15.423  17.091   6.615
 5083POPC   C3A64121  15.300  16.848   6.981
 5083POPC   C4A64122  15.190  16.928   7.411
 5083POPC   C1B64123  14.891  16.305   6.283
 5083POPC   C2B64124  14.977  16.505   6.694
 5083POPC   C3B64125  14.942  16.505   7.147
 5083POPC   C4B64126  15.120  16.449   7.544
 5084POPC   NC364127  30.442  42.373   5.341
 5084POPC   PO464128  30.887  41.874   5.521
 5084POPC   GL164129  30.744  42.244   5.735
 5084POPC   GL264130  31.011  42.469   5.772
 5084POPC   C1A64131  30.538  42.366   6.131
 5084POPC   D2A64132  30.352  42.106   6.476
 5084POPC   C3A64133  30.478  42.179   6.892
 5084POPC   C4A64134  30.800  42.134   7.159
 5084POPC   C1B64135  31.004  42.152   6.164
 5084POPC   C2B64136  30.936  42.186   6.604
 5084POPC   C3B64137  31.070  42.473   6.902
 5084POPC   C4B64138  31.184  42.525   7.313
 5085POPC   NC364139  39.229  41.963   5.338
 5085POPC   PO464140  39.158  41.286   5.213
 5085POPC   GL164141  39.307  41.529   5.574
 5085POPC   GL264142  38.965  41.602   5.676
 5085POPC   C1A64143  39.338  41.700   6.013
 5085POPC   D2A64144  39.291  41.689   6.494
 5085POPC   C3A64145  39.442  41.536   6.916
 5085POPC   C4A64146  39.154  41.518   7.308
 5085POPC   C1B64147  38.904  41.444   6.119
 5085POPC   C2B64148  38.762  41.622   6.503
 5085POPC   C3B64149  38.811  41.649   6.948
 5085POPC   C4B64150  38.702  41.728   7.428
 5086POPC   NC364151  32.209  21.994   5.565
 5086POPC   PO464152  31.599  22.092   5.268
 5086POPC   GL164153  31.462  22.158   5.713
 5086POPC   GL264154  31.657  22.480   5.768
 5086POPC   C1A64155  31.288  22.007   6.112
 5086POPC   D2A64156  31.548  21.914   6.466
 5086POPC   C3A64157  31.420  22.039   6.862
 5086POPC   C4A64158  31.486  21.879   7.243
 5086POPC   C1B64159  31.699  22.325   6.187
 5086POPC   C2B64160  31.766  22.371   6.641
 5086POPC   C3B64161  31.740  22.486   7.062
 5086POPC   C4B64162  31.834  22.353   7.480
 5087POPC   NC364163  12.684  21.184   5.413
 5087POPC   PO464164  12.834  21.782   5.175
 5087POPC   GL164165  12.886  21.574   5.659
 5087POPC   GL264166  13.145  21.449   5.784
 5087POPC   C1A64167  12.749  21.374   6.144
 5087POPC   D2A64168  12.516  21.228   6.588
 5087POPC   C3A64169  12.755  21.148   7.020
 5087POPC   C4A64170  12.908  21.349   7.411
 5087POPC   C1B64171  13.260  21.288   6.192
 5087POPC   C2B64172  13.051  21.278   6.601
 5087POPC   C3B64173  13.260  21.136   6.989
 5087POPC   C4B64174  13.426  21.437   7.256
 5088POPC   NC364175  14.763  22.318   5.421
 5088POPC   PO464176  14.359  21.809   5.484
 5088POPC   GL164177  14.462  22.082   5.804
 5088POPC   GL264178  14.205  22.306   5.721
 5088POPC   C1A64179  14.592  21.907   6.206
 5088POPC   D2A64180  14.883  21.815   6.535
 5088POPC   C3A64181  14.669  21.937   6.925
 5088POPC   C4A64182  14.238  21.916   7.104
 5088POPC   C1B64183  13.997  22.438   6.086
 5088POPC   C2B64184  13.939  22.490   6.529
 5088POPC   C3B64185  14.100  22.570   6.958
 5088POPC   C4B64186  14.285  22.406   7.348
 5089POPC   NC364187  34.994  11.115   5.090
 5089POPC   PO464188  35.086  11.607   5.622
 5089POPC   GL164189  35.426  11.437   5.882
 5089POPC   GL264190  35.518  11.067   5.883
 5089POPC   C1A64191  35.347  11.451   6.312
 5089POPC   D2A64192  35.196  11.707   6.624
 5089POPC   C3A64193  35.201  11.430   6.948
 5089POPC   C4A64194  35.573  11.347   7.153
 5089POPC   C1B64195  35.287  10.973   6.273
 5089POPC   C2B64196  35.426  11.068   6.680
 5089POPC   C3B64197  35.323  10.917   7.084
 5089POPC   C4B64198  35.085  10.648   7.327
 5090POPC   NC364199  28.653  33.997   5.125
 5090POPC   PO464200  29.282  33.909   5.357
 5090POPC   GL164201  29.380  33.710   5.721
 5090POPC   GL264202  29.136  33.907   5.882
 5090POPC   C1A64203  29.519  33.646   6.133
 5090POPC   D2A64204  29.363  33.567   6.534
 5090POPC   C3A64205  29.486  33.886   6.840
 5090POPC   C4A64206  29.232  33.902   7.211
 5090POPC   C1B64207  28.940  33.715   6.220
 5090POPC   C2B64208  28.741  33.899   6.568
 5090POPC   C3B64209  28.771  33.978   6.988
 5090POPC   C4B64210  28.763  34.053   7.386
 5091POPC   NC364211  16.852  20.364   5.293
 5091POPC   PO464212  16.608  21.000   5.477
 5091POPC   GL164213  16.822  20.741   5.780
 5091POPC   GL264214  16.609  20.493   5.733
 5091POPC   C1A64215  16.880  20.461   6.161
 5091POPC   D2A64216  17.079  20.449   6.534
 5091POPC   C3A64217  16.878  20.370   6.907
 5091POPC   C4A64218  17.069  20.496   7.265
 5091POPC   C1B64219  16.419  20.682   6.124
 5091POPC   C2B64220  16.527  20.574   6.549
 5091POPC   C3B64221  16.404  20.604   6.976
 5091POPC   C4B64222  16.403  20.529   7.434
 5092POPC   NC364223  25.032  17.023   5.522
 5092POPC   PO464224  25.624  17.334   5.452
 5092POPC   GL164225  25.404  17.440   5.798
 5092POPC   GL264226  25.101  17.602   5.681
 5092POPC   C1A64227  25.456  17.294   6.217
 5092POPC   D2A64228  25.581  17.541   6.573
 5092POPC   C3A64229  25.352  17.401   6.912
 5092POPC   C4A64230  25.431  17.346   7.348
 5092POPC   C1B64231  24.958  17.425   6.070
 5092POPC   C2B64232  25.046  17.445   6.497
 5092POPC   C3B64233  24.851  17.449   6.906
 5092POPC   C4B64234  24.970  17.634   7.299
 5093POPC   NC364235   1.637  37.399   5.400
 5093POPC   PO464236   1.914  37.997   5.202
 5093POPC   GL164237   1.927  37.841   5.656
 5093POPC   GL264238   1.995  37.503   5.776
 5093POPC   C1A64239   1.826  37.808   6.127
 5093POPC   D2A64240   1.952  37.920   6.544
 5093POPC   C3A64241   2.024  37.627   6.834
 5093POPC   C4A64242   1.742  37.726   7.144
 5093POPC   C1B64243   2.106  37.256   6.155
 5093POPC   C2B64244   2.301  37.240   6.573
 5093POPC   C3B64245   2.207  37.184   7.005
 5093POPC   C4B64246   1.973  37.350   7.395
 5094POPC   NC364247   4.815  13.891   5.358
 5094POPC   PO464248   5.168  13.219   5.421
 5094POPC   GL164249   5.023  13.539   5.688
 5094POPC   GL264250   5.327  13.724   5.765
 5094POPC   C1A64251   5.049  13.582   6.166
 5094POPC   D2A64252   5.172  13.718   6.601
 5094POPC   C3A64253   5.201  13.384   6.937
 5094POPC   C4A64254   5.044  13.323   7.374
 5094POPC   C1B64255   5.351  14.029   6.164
 5094POPC   C2B64256   5.423  14.176   6.623
 5094POPC   C3B64257   5.197  14.084   7.003
 5094POPC   C4B64258   4.869  13.748   7.070
 5095POPC   NC364259  31.675   7.598   5.350
 5095POPC   PO464260  31.167   7.174   5.433
 5095POPC   GL164261  31.463   7.276   5.740
 5095POPC   GL264262  31.333   7.601   5.757
 5095POPC   C1A64263  31.584   7.083   6.141
 5095POPC   D2A64264  31.425   7.246   6.558
 5095POPC   C3A64265  31.632   7.110   6.928
 5095POPC   C4A64266  31.843   7.265   7.290
 5095POPC   C1B64267  31.556   7.575   6.166
 5095POPC   C2B64268  31.821   7.588   6.534
 5095POPC   C3B64269  31.703   7.625   6.955
 5095POPC   C4B64270  31.328   7.501   7.187
 5096POPC   NC364271  35.193  35.346   5.430
 5096POPC   PO464272  35.810  35.461   5.507
 5096POPC   GL164273  35.488  35.227   5.807
 5096POPC   GL264274  35.239  35.484   5.900
 5096POPC   C1A64275  35.233  35.077   6.190
 5096POPC   D2A64276  35.325  34.991   6.632
 5096POPC   C3A64277  35.205  35.287   6.971
 5096POPC   C4A64278  35.293  35.299   7.433
 5096POPC   C1B64279  34.962  35.540   6.216
 5096POPC   C2B64280  34.970  35.677   6.639
 5096POPC   C3B64281  34.929  35.817   7.055
 5096POPC   C4B64282  34.922  35.628   7.439
 5097POPC   NC364283  23.054  11.686   5.251
 5097POPC   PO464284  22.659  11.211   5.445
 5097POPC   GL164285  23.028  11.298   5.724
 5097POPC   GL264286  23.201  11.648   5.757
 5097POPC   C1A64287  23.073  11.194   6.161
 5097POPC   D2A64288  23.210  11.435   6.493
 5097POPC   C3A64289  23.064  11.231   6.866
 5097POPC   C4A64290  22.960  11.373   7.266
 5097POPC   C1B64291  22.869  11.661   6.077
 5097POPC   C2B64292  22.677  11.453   6.436
 5097POPC   C3B64293  22.600  11.467   6.885
 5097POPC   C4B64294  22.492  11.174   7.216
 5098POPC   NC364295   2.896  34.757   5.003
 5098POPC   PO464296   2.461  34.700   5.543
 5098POPC   GL164297   2.432  34.570   5.929
 5098POPC   GL264298   2.361  34.238   5.850
 5098POPC   C1A64299   2.535  34.715   6.352
 5098POPC   D2A64300   2.590  34.508   6.736
 5098POPC   C3A64301   2.704  34.652   7.127
 5098POPC   C4A64302   2.935  34.833   7.443
 5098POPC   C1B64303   2.607  34.202   6.276
 5098POPC   C2B64304   2.610  33.984   6.705
 5098POPC   C3B64305   2.497  34.163   7.100
 5098POPC   C4B64306   2.710  34.226   7.448
 5099POPC   NC364307  26.305  35.232   5.443
 5099POPC   PO464308  26.944  35.433   5.382
 5099POPC   GL164309  26.885  35.229   5.771
 5099POPC   GL264310  26.668  34.962   5.693
 5099POPC   C1A64311  26.884  35.322   6.222
 5099POPC   D2A64312  26.972  35.114   6.600
 5099POPC   C3A64313  27.000  35.449   6.900
 5099POPC   C4A64314  26.699  35.666   7.202
 5099POPC   C1B64315  26.421  35.159   6.075
 5099POPC   C2B64316  26.489  35.141   6.533
 5099POPC   C3B64317  26.521  35.250   6.966
 5099POPC   C4B64318  26.460  34.990   7.373
 5100POPC   NC364319  17.937  21.461   5.397
 5100POPC   PO464320  17.273  21.647   5.258
 5100POPC   GL164321  17.333  21.602   5.702
 5100POPC   GL264322  17.545  21.283   5.803
 5100POPC   C1A64323  17.287  21.589   6.126
 5100POPC   D2A64324  17.493  21.336   6.382
 5100POPC   C3A64325  17.368  21.263   6.793
 5100POPC   C4A64326  17.496  21.429   7.205
 5100POPC   C1B64327  17.726  20.959   6.110
 5100POPC   C2B64328  17.881  20.968   6.553
 5100POPC   C3B64329  17.799  21.083   6.995
 5100POPC   C4B64330  17.711  21.010   7.479
 5101POPC   NC364331  29.483  16.917   5.472
 5101POPC   PO464332  28.884  17.146   5.764
 5101POPC   GL164333  29.189  16.963   5.933
 5101POPC   GL264334  29.114  16.639   5.929
 5101POPC   C1A64335  29.280  16.862   6.369
 5101POPC   D2A64336  29.154  16.599   6.740
 5101POPC   C3A64337  29.055  16.891   7.088
 5101POPC   C4A64338  28.805  17.302   7.090
 5101POPC   C1B64339  29.429  16.408   6.190
 5101POPC   C2B64340  29.659  16.565   6.528
 5101POPC   C3B64341  29.630  16.456   6.968
 5101POPC   C4B64342  29.279  16.398   7.220
 5102POPC   NC364343  39.346   5.654   5.345
 5102POPC   PO464344  38.888   5.303   5.618
 5102POPC   GL164345  39.216   5.118   5.859
 5102POPC   GL264346  38.925   4.952   6.039
 5102POPC   C1A64347  39.391   5.022   6.283
 5102POPC   D2A64348  39.170   4.815   6.627
 5102POPC   C3A64349  39.371   4.942   6.989
 5102POPC   C4A64350  39.377   4.928   7.413
 5102POPC   C1B64351  39.024   5.383   6.249
 5102POPC   C2B64352  39.200   5.442   6.637
 5102POPC   C3B64353  39.044   5.309   7.030
 5102POPC   C4B64354  39.321   5.434   7.310
 5103POPC   NC364355  38.630   2.936   5.439
 5103POPC   PO464356  39.317   2.777   5.390
 5103POPC   GL164357  39.365   2.727   5.795
 5103POPC   GL264358  39.023   2.809   5.848
 5103POPC   C1A64359  39.532   2.451   6.093
 5103POPC   D2A64360  39.545   2.376   6.533
 5103POPC   C3A64361  39.484   2.704   6.838
 5103POPC   C4A64362  39.229   2.572   7.186
 5103POPC   C1B64363  39.149   2.785   6.303
 5103POPC   C2B64364  39.087   3.031   6.702
 5103POPC   C3B64365  39.135   3.060   7.151
 5103POPC   C4B64366  38.914   2.944   7.549
 5104POPC   NC364367  32.525  19.564   5.380
 5104POPC   PO464368  31.917  19.832   5.439
 5104POPC   GL164369  32.132  19.640   5.769
 5104POPC   GL264370  32.436  19.844   5.791
 5104POPC   C1A64371  32.227  19.682   6.223
 5104POPC   D2A64372  32.127  20.002   6.535
 5104POPC   C3A64373  32.048  19.774   6.939
 5104POPC   C4A64374  32.241  19.383   7.030
 5104POPC   C1B64375  32.707  19.954   6.129
 5104POPC   C2B64376  32.809  20.039   6.550
 5104POPC   C3B64377  32.513  20.041   6.879
 5104POPC   C4B64378  32.482  19.818   7.235
 5105POPC   NC364379   6.673  17.244   5.459
 5105POPC   PO464380   6.897  17.930   5.412
 5105POPC   GL164381   6.710  17.866   5.827
 5105POPC   GL264382   6.524  17.510   5.885
 5105POPC   C1A64383   6.756  17.752   6.266
 5105POPC   D2A64384   6.539  17.510   6.553
 5105POPC   C3A64385   6.788  17.555   6.898
 5105POPC   C4A64386   6.667  17.507   7.314
 5105POPC   C1B64387   6.830  17.246   6.157
 5105POPC   C2B64388   6.816  17.068   6.584
 5105POPC   C3B64389   6.671  17.062   7.020
 5105POPC   C4B64390   6.775  17.022   7.466
 5106POPC   NC364391  34.582   7.970   5.314
 5106POPC   PO464392  34.756   8.635   5.528
 5106POPC   GL164393  34.757   8.306   5.833
 5106POPC   GL264394  34.606   7.975   5.837
 5106POPC   C1A64395  34.710   8.210   6.275
 5106POPC   D2A64396  34.717   7.917   6.578
 5106POPC   C3A64397  34.506   8.161   6.872
 5106POPC   C4A64398  34.589   8.144   7.286
 5106POPC   C1B64399  34.347   7.810   6.224
 5106POPC   C2B64400  34.238   7.732   6.714
 5106POPC   C3B64401  34.149   7.925   7.163
 5106POPC   C4B64402  34.353   7.828   7.620
 5107POPC   NC364403   1.466  33.889   5.347
 5107POPC   PO464404   2.128  33.803   5.387
 5107POPC   GL164405   1.973  33.876   5.792
 5107POPC   GL264406   1.644  33.679   5.810
 5107POPC   C1A64407   2.221  33.877   6.187
 5107POPC   D2A64408   2.265  33.613   6.550
 5107POPC   C3A64409   2.168  33.809   6.935
 5107POPC   C4A64410   2.142  33.698   7.366
 5107POPC   C1B64411   1.744  33.730   6.253
 5107POPC   C2B64412   1.760  33.987   6.626
 5107POPC   C3B64413   1.689  33.945   7.052
 5107POPC   C4B64414   1.638  33.564   7.249
 5108POPC   NC364415  36.948   4.688   5.310
 5108POPC   PO464416  37.121   5.324   5.361
 5108POPC   GL164417  36.971   5.183   5.773
 5108POPC   GL264418  36.675   4.953   5.720
 5108POPC   C1A64419  37.014   5.376   6.196
 5108POPC   D2A64420  37.186   5.342   6.611
 5108POPC   C3A64421  37.095   5.034   6.942
 5108POPC   C4A64422  36.894   5.212   7.282
 5108POPC   C1B64423  36.577   5.109   6.143
 5108POPC   C2B64424  36.728   4.975   6.562
 5108POPC   C3B64425  36.557   4.972   6.989
 5108POPC   C4B64426  36.700   4.757   7.367
 5109POPC   NC364427  34.206  41.948   5.335
 5109POPC   PO464428  34.580  41.327   5.382
 5109POPC   GL164429  34.696  41.451   5.771
 5109POPC   GL264430  34.737  41.811   5.683
 5109POPC   C1A64431  34.479  41.354   6.155
 5109POPC   D2A64432  34.584  41.149   6.550
 5109POPC   C3A64433  34.368  41.306   6.910
 5109POPC   C4A64434  34.420  41.460   7.320
 5109POPC   C1B64435  34.705  41.873   6.133
 5109POPC   C2B64436  34.631  41.650   6.547
 5109POPC   C3B64437  34.614  41.786   6.966
 5109POPC   C4B64438  34.770  41.820   7.396
 5110POPC   NC364439  30.486  27.049   5.317
 5110POPC   PO464440  30.981  26.636   5.542
 5110POPC   GL164441  30.766  26.921   5.765
 5110POPC   GL264442  30.433  26.794   5.775
 5110POPC   C1A64443  30.846  27.115   6.170
 5110POPC   D2A64444  30.981  26.877   6.534
 5110POPC   C3A64445  30.945  27.073   6.933
 5110POPC   C4A64446  30.744  27.052   7.311
 5110POPC   C1B64447  30.516  26.736   6.229
 5110POPC   C2B64448  30.480  26.999   6.608
 5110POPC   C3B64449  30.343  27.115   7.001
 5110POPC   C4B64450  30.264  26.872   7.361
 5111POPC   NC364451  16.981  38.991   5.462
 5111POPC   PO464452  16.693  39.546   5.295
 5111POPC   GL164453  16.648  39.337   5.688
 5111POPC   GL264454  16.505  39.614   5.813
 5111POPC   C1A64455  16.574  39.175   6.135
 5111POPC   D2A64456  16.500  39.139   6.614
 5111POPC   C3A64457  16.857  39.064   6.921
 5111POPC   C4A64458  17.029  39.230   7.337
 5111POPC   C1B64459  16.878  39.586   6.088
 5111POPC   C2B64460  16.923  39.444   6.512
 5111POPC   C3B64461  16.960  39.556   6.943
 5111POPC   C4B64462  16.607  39.503   7.231
 5112POPC   NC364463  43.693  15.660   5.327
 5112POPC   PO464464  44.206  16.111   5.386
 5112POPC   GL164465  44.091  15.909   5.769
 5112POPC   GL264466  43.714  15.921   5.802
 5112POPC   C1A64467  43.988  15.813   6.211
 5112POPC   D2A64468  43.986  16.037   6.602
 5112POPC   C3A64469  43.797  15.881   6.960
 5112POPC   C4A64470  44.044  15.821   7.289
 5112POPC   C1B64471  43.649  16.181   6.198
 5112POPC   C2B64472  43.578  16.339   6.623
 5112POPC   C3B64473  43.660  16.369   7.074
 5112POPC   C4B64474  43.606  16.123   7.442
 5113POPC   NC364475  19.220   0.117   5.480
 5113POPC   PO464476  18.721   0.606   5.547
 5113POPC   GL164477  19.077   0.669   5.843
 5113POPC   GL264478  19.445   0.619   5.825
 5113POPC   C1A64479  19.062   0.584   6.295
 5113POPC   D2A64480  18.899   0.338   6.622
 5113POPC   C3A64481  18.983   0.597   6.951
 5113POPC   C4A64482  18.970   0.488   7.374
 5113POPC   C1B64483  19.445   0.283   6.174
 5113POPC   C2B64484  19.432   0.348   6.660
 5113POPC   C3B64485  19.272   0.157   7.067
 5113POPC   C4B64486  19.310   0.152   7.546
 5114POPC   NC364487  42.604  29.585   5.039
 5114POPC   PO464488  42.327  30.107   5.527
 5114POPC   GL164489  41.973  30.047   5.845
 5114POPC   GL264490  42.033  29.686   5.913
 5114POPC   C1A64491  41.953  30.032   6.291
 5114POPC   D2A64492  42.338  29.940   6.541
 5114POPC   C3A64493  42.473  30.088   6.961
 5114POPC   C4A64494  42.709  29.785   7.195
 5114POPC   C1B64495  42.021  29.503   6.294
 5114POPC   C2B64496  41.879  29.648   6.676
 5114POPC   C3B64497  42.219  29.656   6.971
 5114POPC   C4B64498  42.255  29.827   7.375
 5115POPC   NC364499  15.634  23.346   5.588
 5115POPC   PO464500  16.070  22.975   5.221
 5115POPC   GL164501  15.978  22.926   5.683
 5115POPC   GL264502  16.301  23.085   5.761
 5115POPC   C1A64503  15.857  22.791   6.133
 5115POPC   D2A64504  16.097  22.834   6.539
 5115POPC   C3A64505  15.989  22.772   6.983
 5115POPC   C4A64506  16.267  22.737   7.366
 5115POPC   C1B64507  16.040  23.256   6.086
 5115POPC   C2B64508  15.763  23.238   6.444
 5115POPC   C3B64509  15.765  23.239   6.896
 5115POPC   C4B64510  16.008  23.217   7.221
 5116POPC   NC364511  19.497   1.743   5.704
 5116POPC   PO464512  19.997   1.961   5.338
 5116POPC   GL164513  19.843   2.160   5.749
 5116POPC   GL264514  20.159   2.221   5.887
 5116POPC   C1A64515  19.667   2.131   6.216
 5116POPC   D2A64516  19.838   2.224   6.660
 5116POPC   C3A64517  19.676   2.011   7.050
 5116POPC   C4A64518  19.546   2.310   7.294
 5116POPC   C1B64519  20.144   1.941   6.236
 5116POPC   C2B64520  20.078   1.770   6.606
 5116POPC   C3B64521  20.167   1.938   6.993
 5116POPC   C4B64522  20.060   1.803   7.403
 5117POPC   NC364523  31.340  22.495   5.359
 5117POPC   PO464524  31.814  23.024   5.559
 5117POPC   GL164525  31.686  22.966   5.941
 5117POPC   GL264526  31.349  22.941   5.824
 5117POPC   C1A64527  31.631  22.820   6.360
 5117POPC   D2A64528  31.312  22.924   6.649
 5117POPC   C3A64529  31.502  22.955   7.046
 5117POPC   C4A64530  31.517  22.792   7.433
 5117POPC   C1B64531  31.251  22.574   6.077
 5117POPC   C2B64532  31.274  22.404   6.502
 5117POPC   C3B64533  31.233  22.512   6.942
 5117POPC   C4B64534  31.331  22.346   7.334
 5118POPC   NC364535   7.209  34.909   5.464
 5118POPC   PO464536   7.608  34.370   5.212
 5118POPC   GL164537   7.530  34.499   5.620
 5118POPC   GL264538   7.162  34.437   5.726
 5118POPC   C1A64539   7.632  34.422   6.044
 5118POPC   D2A64540   7.403  34.378   6.395
 5118POPC   C3A64541   7.486  34.335   6.811
 5118POPC   C4A64542   7.628  34.521   7.169
 5118POPC   C1B64543   6.999  34.598   6.125
 5118POPC   C2B64544   7.102  34.777   6.502
 5118POPC   C3B64545   7.124  34.690   6.963
 5118POPC   C4B64546   7.211  34.917   7.349
 5119POPC   NC364547   8.408   8.401   5.568
 5119POPC   PO464548   7.923   7.933   5.349
 5119POPC   GL164549   8.044   8.044   5.746
 5119POPC   GL264550   7.952   8.365   5.817
 5119POPC   C1A64551   8.257   8.013   6.135
 5119POPC   D2A64552   8.371   8.109   6.560
 5119POPC   C3A64553   8.291   7.898   6.935
 5119POPC   C4A64554   8.523   7.902   7.304
 5119POPC   C1B64555   8.114   8.497   6.207
 5119POPC   C2B64556   8.268   8.598   6.606
 5119POPC   C3B64557   8.312   8.409   7.000
 5119POPC   C4B64558   8.043   8.528   7.317
 5120POPC   NC364559  37.378  40.180   5.348
 5120POPC   PO464560  37.951  39.961   5.275
 5120POPC   GL164561  37.725  40.054   5.692
 5120POPC   GL264562  37.817  39.800   5.906
 5120POPC   C1A64563  37.572  40.286   6.088
 5120POPC   D2A64564  37.718  40.411   6.519
 5120POPC   C3A64565  37.632  40.102   6.859
 5120POPC   C4A64566  37.610  39.907   7.240
 5120POPC   C1B64567  37.655  39.848   6.355
 5120POPC   C2B64568  37.809  39.628   6.754
 5120POPC   C3B64569  37.886  39.500   7.188
 5120POPC   C4B64570  37.716  39.498   7.620
 5121POPC   NC364571  28.134  15.740   5.410
 5121POPC   PO464572  27.432  16.005   5.346
 5121POPC   GL164573  27.518  15.995   5.813
 5121POPC   GL264574  27.841  16.172   5.902
 5121POPC   C1A64575  27.485  16.019   6.276
 5121POPC   D2A64576  27.588  16.166   6.682
 5121POPC   C3A64577  27.283  16.065   7.000
 5121POPC   C4A64578  27.225  16.092   7.452
 5121POPC   C1B64579  27.885  15.732   6.083
 5121POPC   C2B64580  27.858  15.428   6.433
 5121POPC   C3B64581  27.833  15.412   6.883
 5121POPC   C4B64582  27.769  15.836   7.057
 5122POPC   NC364583  13.144  36.160   5.459
 5122POPC   PO464584  12.786  35.588   5.483
 5122POPC   GL164585  12.939  35.833   5.831
 5122POPC   GL264586  12.693  36.069   5.786
 5122POPC   C1A64587  12.740  35.848   6.265
 5122POPC   D2A64588  12.879  35.742   6.687
 5122POPC   C3A64589  12.874  36.037   7.045
 5122POPC   C4A64590  12.666  35.927   7.434
 5122POPC   C1B64591  12.900  36.322   6.108
 5122POPC   C2B64592  12.864  36.278   6.544
 5122POPC   C3B64593  12.758  36.541   6.882
 5122POPC   C4B64594  13.099  36.592   7.145
 5123POPC   NC364595  10.666  17.725   5.440
 5123POPC   PO464596  10.109  17.733   5.504
 5123POPC   GL164597  10.285  17.577   5.845
 5123POPC   GL264598  10.597  17.435   5.830
 5123POPC   C1A64599  10.482  17.764   6.189
 5123POPC   D2A64600  10.468  17.948   6.574
 5123POPC   C3A64601  10.323  17.668   6.907
 5123POPC   C4A64602  10.472  17.544   7.309
 5123POPC   C1B64603  10.845  17.303   6.124
 5123POPC   C2B64604  10.653  17.427   6.526
 5123POPC   C3B64605  10.777  17.387   6.915
 5123POPC   C4B64606  10.786  17.153   7.295
 5124POPC   NC364607  29.592  23.417   5.198
 5124POPC   PO464608  29.063  23.834   5.135
 5124POPC   GL164609  29.062  23.668   5.601
 5124POPC   GL264610  28.847  23.334   5.697
 5124POPC   C1A64611  29.154  23.698   6.061
 5124POPC   D2A64612  29.123  23.879   6.512
 5124POPC   C3A64613  29.273  23.646   6.888
 5124POPC   C4A64614  29.162  23.753   7.299
 5124POPC   C1B64615  28.726  23.345   6.153
 5124POPC   C2B64616  28.849  23.462   6.611
 5124POPC   C3B64617  28.890  23.351   7.062
 5124POPC   C4B64618  28.644  23.372   7.425
 5125POPC   NC364619  19.620   5.855   5.480
 5125POPC   PO464620  19.756   6.455   5.308
 5125POPC   GL164621  19.788   6.205   5.783
 5125POPC   GL264622  19.530   6.131   6.022
 5125POPC   C1A64623  19.953   5.831   6.090
 5125POPC   D2A64624  20.044   5.593   6.493
 5125POPC   C3A64625  20.044   5.794   6.924
 5125POPC   C4A64626  19.994   6.013   7.316
 5125POPC   C1B64627  19.491   5.739   6.286
 5125POPC   C2B64628  19.570   5.626   6.714
 5125POPC   C3B64629  19.547   5.854   7.096
 5125POPC   C4B64630  19.578   5.776   7.526
 5126POPC   NC364631  44.416  28.613   4.958
 5126POPC   PO464632  44.658  28.443   5.562
 5126POPC   GL164633  44.723  28.254   5.918
 5126POPC   GL264634  44.766  27.917   5.807
 5126POPC   C1A64635  44.781  28.369   6.332
 5126POPC   D2A64636  44.575  28.303   6.723
 5126POPC   C3A64637  44.639  28.653   6.965
 5126POPC   C4A64638  44.691  28.730   7.382
 5126POPC   C1B64639  44.929  27.897   6.228
 5126POPC   C2B64640   0.050  27.990   6.605
 5126POPC   C3B64641  44.890  27.971   6.973
 5126POPC   C4B64642  44.669  28.193   7.264
 5127POPC   NC364643  32.766  30.449   5.412
 5127POPC   PO464644  32.902  31.072   5.279
 5127POPC   GL164645  32.846  30.883   5.700
 5127POPC   GL264646  33.093  30.631   5.793
 5127POPC   C1A64647  32.664  30.744   6.097
 5127POPC   D2A64648  32.727  30.455   6.409
 5127POPC   C3A64649  32.830  30.526   6.842
 5127POPC   C4A64650  32.898  30.210   7.134
 5127POPC   C1B64651  33.199  30.409   6.158
 5127POPC   C2B64652  33.261  30.587   6.537
 5127POPC   C3B64653  33.334  30.423   6.905
 5127POPC   C4B64654  33.365  30.671   7.231
 5128POPC   NC364655  42.585   4.991   5.202
 5128POPC   PO464656  41.919   4.715   5.381
 5128POPC   GL164657  42.286   4.871   5.679
 5128POPC   GL264658  42.276   5.213   5.872
 5128POPC   C1A64659  42.526   4.811   6.076
 5128POPC   D2A64660  42.514   5.036   6.463
 5128POPC   C3A64661  42.555   4.863   6.885
 5128POPC   C4A64662  42.647   5.026   7.298
 5128POPC   C1B64663  42.479   5.484   6.234
 5128POPC   C2B64664  42.576   5.477   6.705
 5128POPC   C3B64665  42.449   5.485   7.136
 5128POPC   C4B64666  42.061   5.536   7.381
 5129POPC   NC364667  16.682   3.039   5.451
 5129POPC   PO464668  16.363   2.475   5.475
 5129POPC   GL164669  16.555   2.699   5.811
 5129POPC   GL264670  16.931   2.733   5.819
 5129POPC   C1A64671  16.575   2.976   6.129
 5129POPC   D2A64672  16.455   3.078   6.518
 5129POPC   C3A64673  16.656   2.906   6.802
 5129POPC   C4A64674  16.547   2.866   7.168
 5129POPC   C1B64675  16.815   2.533   6.232
 5129POPC   C2B64676  16.964   2.514   6.642
 5129POPC   C3B64677  16.871   2.497   7.051
 5129POPC   C4B64678  16.995   2.712   7.408
 5130POPC   NC364679  11.648  22.469   5.374
 5130POPC   PO464680  11.274  23.028   5.245
 5130POPC   GL164681  11.234  22.910   5.668
 5130POPC   GL264682  10.934  23.063   5.796
 5130POPC   C1A64683  11.403  22.978   6.088
 5130POPC   D2A64684  11.669  22.879   6.453
 5130POPC   C3A64685  11.586  23.092   6.850
 5130POPC   C4A64686  11.347  22.996   7.201
 5130POPC   C1B64687  10.919  22.871   6.217
 5130POPC   C2B64688  11.135  22.845   6.644
 5130POPC   C3B64689  10.929  22.750   7.057
 5130POPC   C4B64690  10.786  23.005   7.386
 5131POPC   NC364691  37.051  36.298   5.445
 5131POPC   PO464692  36.490  36.004   5.410
 5131POPC   GL164693  36.808  35.824   5.737
 5131POPC   GL264694  37.110  35.998   5.898
 5131POPC   C1A64695  36.807  35.783   6.230
 5131POPC   D2A64696  37.109  35.793   6.604
 5131POPC   C3A64697  36.896  35.911   7.019
 5131POPC   C4A64698  36.798  35.803   7.462
 5131POPC   C1B64699  37.108  36.224   6.310
 5131POPC   C2B64700  37.229  36.273   6.763
 5131POPC   C3B64701  37.168  36.358   7.215
 5131POPC   C4B64702  37.108  36.744   7.463
 5132POPC   NC364703  10.855  39.717   5.465
 5132POPC   PO464704  10.284  40.113   5.410
 5132POPC   GL164705  10.384  40.207   5.843
 5132POPC   GL264706  10.723  40.302   5.886
 5132POPC   C1A64707  10.542  39.925   6.213
 5132POPC   D2A64708  10.738  39.635   6.546
 5132POPC   C3A64709  10.538  39.725   6.964
 5132POPC   C4A64710  10.247  40.083   7.166
 5132POPC   C1B64711  10.730  40.390   6.351
 5132POPC   C2B64712  10.825  40.138   6.732
 5132POPC   C3B64713  10.752  40.124   7.184
 5132POPC   C4B64714  10.571  40.172   7.640
 5133POPC   NC364715  33.218  26.276   5.333
 5133POPC   PO464716  32.546  26.166   5.308
 5133POPC   GL164717  32.815  26.172   5.656
 5133POPC   GL264718  32.852  25.800   5.574
 5133POPC   C1A64719  32.905  26.314   6.109
 5133POPC   D2A64720  32.944  26.550   6.520
 5133POPC   C3A64721  33.091  26.269   6.845
 5133POPC   C4A64722  33.087  26.149   7.261
 5133POPC   C1B64723  32.841  25.813   6.039
 5133POPC   C2B64724  32.902  25.868   6.494
 5133POPC   C3B64725  32.862  25.774   6.940
 5133POPC   C4B64726  32.981  25.669   7.351
 5134POPC   NC364727  44.875  41.863   5.440
 5134POPC   PO464728  44.606  41.287   5.475
 5134POPC   GL164729  44.629  41.592   5.793
 5134POPC   GL264730  44.981  41.536   5.825
 5134POPC   C1A64731  44.722  41.843   6.188
 5134POPC   D2A64732  44.788  41.631   6.600
 5134POPC   C3A64733  44.536  41.734   6.980
 5134POPC   C4A64734  44.270  41.481   7.277
 5134POPC   C1B64735   0.057  41.286   6.209
 5134POPC   C2B64736   0.174  41.281   6.655
 5134POPC   C3B64737  44.962  41.339   7.062
 5134POPC   C4B64738  44.838  41.122   7.463
 5135POPC   NC364739  10.059  10.156   5.422
 5135POPC   PO464740  10.757   9.928   5.556
 5135POPC   GL164741  10.750   9.700   5.951
 5135POPC   GL264742  10.388   9.644   6.083
 5135POPC   C1A64743  10.833   9.654   6.380
 5135POPC   D2A64744  10.447   9.614   6.630
 5135POPC   C3A64745  10.447   9.938   6.878
 5135POPC   C4A64746  10.687   9.875   7.280
 5135POPC   C1B64747  10.550   9.261   6.287
 5135POPC   C2B64748  10.803   9.212   6.673
 5135POPC   C3B64749  10.674   9.264   7.086
 5135POPC   C4B64750  10.327   9.524   7.144
 5136POPC   NC364751   8.756  38.273   5.269
 5136POPC   PO464752   9.125  38.875   5.342
 5136POPC   GL164753   9.133  38.573   5.694
 5136POPC   GL264754   8.828  38.373   5.758
 5136POPC   C1A64755   9.079  38.599   6.171
 5136POPC   D2A64756   9.014  38.815   6.579
 5136POPC   C3A64757   9.078  38.599   6.953
 5136POPC   C4A64758   8.963  38.669   7.349
 5136POPC   C1B64759   8.642  38.336   6.174
 5136POPC   C2B64760   8.849  38.305   6.593
 5136POPC   C3B64761   8.684  38.263   7.015
 5136POPC   C4B64762   8.850  38.201   7.441
 5137POPC   NC364763   3.498  29.789   5.435
 5137POPC   PO464764   3.869  30.274   5.683
 5137POPC   GL164765   3.630  29.966   5.895
 5137POPC   GL264766   3.297  30.079   5.883
 5137POPC   C1A64767   3.504  29.763   6.261
 5137POPC   D2A64768   3.814  29.783   6.578
 5137POPC   C3A64769   3.751  29.682   6.985
 5137POPC   C4A64770   3.858  29.955   7.338
 5137POPC   C1B64771   3.170  30.149   6.349
 5137POPC   C2B64772   3.281  29.923   6.713
 5137POPC   C3B64773   3.405  30.018   7.117
 5137POPC   C4B64774   3.282  30.048   7.586
 5138POPC   NC364775  42.859   9.319   5.422
 5138POPC   PO464776  43.488   8.880   5.487
 5138POPC   GL164777  43.311   8.818   5.860
 5138POPC   GL264778  42.955   8.939   5.803
 5138POPC   C1A64779  43.428   8.976   6.257
 5138POPC   D2A64780  43.224   9.087   6.637
 5138POPC   C3A64781  43.295   8.854   7.012
 5138POPC   C4A64782  43.192   8.904   7.444
 5138POPC   C1B64783  42.886   9.126   6.230
 5138POPC   C2B64784  42.767   9.299   6.643
 5138POPC   C3B64785  42.936   9.247   7.088
 5138POPC   C4B64786  42.806   9.198   7.544
 5139POPC   NC364787  10.667  13.248   5.426
 5139POPC   PO464788  10.332  13.799   5.338
 5139POPC   GL164789  10.218  13.659   5.734
 5139POPC   GL264790  10.410  13.929   5.843
 5139POPC   C1A64791  10.151  13.677   6.177
 5139POPC   D2A64792  10.319  13.544   6.534
 5139POPC   C3A64793  10.177  13.610   6.909
 5139POPC   C4A64794  10.286  13.890   7.227
 5139POPC   C1B64795  10.671  13.658   6.110
 5139POPC   C2B64796  10.815  13.501   6.513
 5139POPC   C3B64797  10.714  13.700   6.912
 5139POPC   C4B64798  10.752  13.771   7.352
 5140POPC   NC364799  30.397  39.883   5.291
 5140POPC   PO464800  31.031  39.920   5.598
 5140POPC   GL164801  30.680  40.113   5.745
 5140POPC   GL264802  30.544  39.796   5.782
 5140POPC   C1A64803  30.640  40.252   6.166
 5140POPC   D2A64804  30.772  40.159   6.586
 5140POPC   C3A64805  30.493  40.158   6.941
 5140POPC   C4A64806  30.713  40.054   7.299
 5140POPC   C1B64807  30.551  39.727   6.256
 5140POPC   C2B64808  30.567  39.686   6.740
 5140POPC   C3B64809  30.362  39.700   7.186
 5140POPC   C4B64810  30.249  39.817   7.639
 5141POPC   NC364811   3.748   9.066   5.323
 5141POPC   PO464812   3.068   9.002   5.267
 5141POPC   GL164813   3.321   8.847   5.711
 5141POPC   GL264814   3.685   8.925   5.814
 5141POPC   C1A64815   3.399   8.852   6.233
 5141POPC   D2A64816   3.373   9.037   6.694
 5141POPC   C3A64817   3.620   8.886   7.086
 5141POPC   C4A64818   3.619   8.970   7.557
 5141POPC   C1B64819   3.591   9.310   6.067
 5141POPC   C2B64820   3.590   9.509   6.489
 5141POPC   C3B64821   3.734   9.369   6.899
 5141POPC   C4B64822   3.764   9.394   7.337
 5142POPC   NC364823  26.425  20.128   5.360
 5142POPC   PO464824  25.803  19.887   5.493
 5142POPC   GL164825  26.022  19.906   5.844
 5142POPC   GL264826  26.330  19.767   5.744
 5142POPC   C1A64827  25.890  19.829   6.261
 5142POPC   D2A64828  25.913  20.056   6.633
 5142POPC   C3A64829  25.789  19.863   6.989
 5142POPC   C4A64830  25.918  19.681   7.369
 5142POPC   C1B64831  26.318  19.541   6.161
 5142POPC   C2B64832  26.223  19.549   6.633
 5142POPC   C3B64833  26.471  19.676   7.015
 5142POPC   C4B64834  26.418  19.806   7.463
 5143POPC   NC364835  32.569   9.613   5.596
 5143POPC   PO464836  33.263   9.765   5.424
 5143POPC   GL164837  33.014   9.762   5.794
 5143POPC   GL264838  33.042   9.396   5.817
 5143POPC   C1A64839  32.848   9.635   6.210
 5143POPC   D2A64840  32.965   9.785   6.583
 5143POPC   C3A64841  32.874   9.592   6.933
 5143POPC   C4A64842  33.012   9.715   7.307
 5143POPC   C1B64843  33.386   9.258   6.145
 5143POPC   C2B64844  33.591   9.398   6.546
 5143POPC   C3B64845  33.393   9.483   6.951
 5143POPC   C4B64846  33.292   9.280   7.343
 5144POPC   NC364847  28.098  18.154   5.430
 5144POPC   PO464848  28.431  18.704   5.479
 5144POPC   GL164849  28.649  18.421   5.775
 5144POPC   GL264850  28.473  18.075   5.793
 5144POPC   C1A64851  28.515  18.357   6.225
 5144POPC   D2A64852  28.125  18.495   6.471
 5144POPC   C3A64853  28.215  18.633   6.895
 5144POPC   C4A64854  28.452  18.319   7.140
 5144POPC   C1B64855  28.094  18.019   6.079
 5144POPC   C2B64856  27.972  17.947   6.496
 5144POPC   C3B64857  28.036  18.119   6.899
 5144POPC   C4B64858  28.117  17.935   7.292
 5145POPC   NC364859  17.220  11.464   5.337
 5145POPC   PO464860  17.778  11.066   5.444
 5145POPC   GL164861  17.683  11.182   5.899
 5145POPC   GL264862  17.380  11.373   5.838
 5145POPC   C1A64863  17.483  11.019   6.290
 5145POPC   D2A64864  17.113  10.955   6.530
 5145POPC   C3A64865  17.133  10.808   6.970
 5145POPC   C4A64866  17.423  11.068   7.186
 5145POPC   C1B64867  17.450  11.516   6.295
 5145POPC   C2B64868  17.473  11.326   6.736
 5145POPC   C3B64869  17.772  11.473   7.093
 5145POPC   C4B64870  17.905  11.731   7.495
 5146POPC   NC364871  11.616  27.767   5.443
 5146POPC   PO464872  12.111  27.280   5.374
 5146POPC   GL164873  11.986  27.578   5.739
 5146POPC   GL264874  12.162  27.906   5.716
 5146POPC   C1A64875  11.910  27.643   6.202
 5146POPC   D2A64876  11.708  27.649   6.630
 5146POPC   C3A64877  11.908  27.553   7.020
 5146POPC   C4A64878  12.099  27.571   7.437
 5146POPC   C1B64879  12.398  27.799   6.120
 5146POPC   C2B64880  12.301  27.630   6.555
 5146POPC   C3B64881  12.433  27.640   6.996
 5146POPC   C4B64882  12.464  27.924   7.350
 5147POPC   NC364883   8.953   5.076   5.304
 5147POPC   PO464884   8.290   4.840   5.385
 5147POPC   GL164885   8.276   5.023   5.819
 5147POPC   GL264886   7.937   5.145   5.861
 5147POPC   C1A64887   8.484   4.965   6.251
 5147POPC   D2A64888   8.590   4.803   6.685
 5147POPC   C3A64889   8.482   5.086   7.033
 5147POPC   C4A64890   8.280   5.258   7.405
 5147POPC   C1B64891   8.082   5.287   6.239
 5147POPC   C2B64892   8.190   5.191   6.634
 5147POPC   C3B64893   8.032   5.364   7.001
 5147POPC   C4B64894   7.796   5.421   7.374
 5148POPC   NC364895  38.836  35.545   5.566
 5148POPC   PO464896  39.413  35.106   5.523
 5148POPC   GL164897  39.215  35.314   5.833
 5148POPC   GL264898  38.916  35.090   5.763
 5148POPC   C1A64899  39.339  35.415   6.277
 5148POPC   D2A64900  39.617  35.455   6.663
 5148POPC   C3A64901  39.442  35.438   7.080
 5148POPC   C4A64902  39.120  35.335   7.393
 5148POPC   C1B64903  38.781  35.257   6.150
 5148POPC   C2B64904  38.919  35.283   6.561
 5148POPC   C3B64905  38.878  35.485   6.961
 5148POPC   C4B64906  38.619  35.301   7.272
 5149POPC   NC364907  28.452  37.144   5.201
 5149POPC   PO464908  28.457  37.921   5.299
 5149POPC   GL164909  28.392  37.682   5.698
 5149POPC   GL264910  28.696  37.477   5.764
 5149POPC   C1A64911  28.187  37.594   6.119
 5149POPC   D2A64912  27.954  37.512   6.498
 5149POPC   C3A64913  28.098  37.784   6.825
 5149POPC   C4A64914  28.237  37.679   7.242
 5149POPC   C1B64915  28.644  37.380   6.222
 5149POPC   C2B64916  28.493  37.586   6.596
 5149POPC   C3B64917  28.698  37.580   7.026
 5149POPC   C4B64918  28.786  37.634   7.525
 5150POPC   NC364919  19.678   1.625   5.150
 5150POPC   PO464920  20.146   1.262   5.444
 5150POPC   GL164921  19.833   1.340   5.721
 5150POPC   GL264922  19.986   1.680   5.818
 5150POPC   C1A64923  19.621   1.073   6.046
 5150POPC   D2A64924  19.319   1.033   6.373
 5150POPC   C3A64925  19.475   0.860   6.737
 5150POPC   C4A64926  19.557   1.129   7.081
 5150POPC   C1B64927  19.889   1.472   6.216
 5150POPC   C2B64928  19.779   1.323   6.623
 5150POPC   C3B64929  19.889   1.506   6.993
 5150POPC   C4B64930  20.039   1.245   7.249
 5151POPC   NC364931   1.856  36.668   5.424
 5151POPC   PO464932   2.152  37.261   5.364
 5151POPC   GL164933   2.100  36.989   5.721
 5151POPC   GL264934   1.740  37.047   5.769
 5151POPC   C1A64935   1.989  36.758   6.117
 5151POPC   D2A64936   2.159  36.743   6.545
 5151POPC   C3A64937   1.912  36.783   6.899
 5151POPC   C4A64938   1.968  36.828   7.348
 5151POPC   C1B64939   1.590  37.291   6.123
 5151POPC   C2B64940   1.769  37.269   6.548
 5151POPC   C3B64941   1.705  37.229   6.982
 5151POPC   C4B64942   1.486  36.950   7.267
 5152POPC   NC364943  38.207  25.794   5.269
 5152POPC   PO464944  38.414  26.437   5.320
 5152POPC   GL164945  38.434  26.195   5.703
 5152POPC   GL264946  38.119  26.028   5.748
 5152POPC   C1A64947  38.382  26.212   6.177
 5152POPC   D2A64948  38.506  25.995   6.589
 5152POPC   C3A64949  38.507  26.275   6.961
 5152POPC   C4A64950  38.369  26.392   7.377
 5152POPC   C1B64951  38.174  25.711   6.101
 5152POPC   C2B64952  38.234  25.517   6.519
 5152POPC   C3B64953  38.271  25.636   6.933
 5152POPC   C4B64954  38.307  25.907   7.273
 5153POPC   NC364955  31.912  13.421   5.325
 5153POPC   PO464956  32.386  13.957   5.368
 5153POPC   GL164957  32.170  13.696   5.662
 5153POPC   GL264958  32.471  13.539   5.790
 5153POPC   C1A64959  31.872  13.698   6.051
 5153POPC   D2A64960  31.775  13.544   6.483
 5153POPC   C3A64961  32.107  13.598   6.788
 5153POPC   C4A64962  32.356  13.443   7.106
 5153POPC   C1B64963  32.356  13.902   6.073
 5153POPC   C2B64964  32.370  13.966   6.529
 5153POPC   C3B64965  32.661  13.921   6.873
 5153POPC   C4B64966  32.550  13.836   7.310
 5154POPC   NC364967  20.788  18.328   5.626
 5154POPC   PO464968  20.258  18.087   5.339
 5154POPC   GL164969  20.246  18.213   5.789
 5154POPC   GL264970  20.358  18.502   5.851
 5154POPC   C1A64971  20.398  18.134   6.223
 5154POPC   D2A64972  20.636  17.935   6.585
 5154POPC   C3A64973  20.681  18.151   6.982
 5154POPC   C4A64974  20.722  18.434   7.297
 5154POPC   C1B64975  20.467  18.648   6.239
 5154POPC   C2B64976  20.523  18.477   6.628
 5154POPC   C3B64977  20.409  18.703   6.974
 5154POPC   C4B64978  20.310  18.865   7.362
 5155POPC   NC364979  36.855  22.685   5.432
 5155POPC   PO464980  37.084  23.308   5.316
 5155POPC   GL164981  37.018  23.088   5.749
 5155POPC   GL264982  37.163  22.733   5.847
 5155POPC   C1A64983  36.958  23.027   6.223
 5155POPC   D2A64984  36.593  22.961   6.510
 5155POPC   C3A64985  36.655  23.006   6.953
 5155POPC   C4A64986  36.572  23.242   7.326
 5155POPC   C1B64987  37.321  22.666   6.291
 5155POPC   C2B64988  37.071  22.738   6.682
 5155POPC   C3B64989  37.101  22.702   7.134
 5155POPC   C4B64990  37.077  22.557   7.568
 5156POPC   NC364991  16.454  31.682   5.548
 5156POPC   PO464992  16.863  31.112   5.438
 5156POPC   GL164993  16.853  31.197   5.882
 5156POPC   GL264994  16.791  31.564   5.921
 5156POPC   C1A64995  16.885  31.246   6.349
 5156POPC   D2A64996  16.720  31.467   6.740
 5156POPC   C3A64997  16.863  31.417   7.189
 5156POPC   C4A64998  17.031  31.292   7.633
 5156POPC   C1B64999  16.424  31.445   6.162
 5156POPC   C2B65000  16.262  31.618   6.535
 5156POPC   C3B65001  16.234  31.395   6.915
 5156POPC   C4B65002  16.376  31.461   7.293
 5157POPC   NC365003  30.643  35.956   5.042
 5157POPC   PO465004  30.158  36.116   5.500
 5157POPC   GL165005  30.382  36.228   5.850
 5157POPC   GL265006  30.667  36.385   5.696
 5157POPC   C1A65007  30.348  36.287   6.261
 5157POPC   D2A65008  30.620  36.113   6.533
 5157POPC   C3A65009  30.491  36.169   6.930
 5157POPC   C4A65010  30.729  35.927   7.207
 5157POPC   C1B65011  30.845  36.388   6.131
 5157POPC   C2B65012  31.104  36.315   6.491
 5157POPC   C3B65013  30.996  36.292   6.921
 5157POPC   C4B65014  30.746  36.560   7.178
 5158POPC   NC365015  32.770  40.476   5.446
 5158POPC   PO465016  33.167  41.064   5.430
 5158POPC   GL165017  32.960  40.883   5.782
 5158POPC   GL265018  32.980  40.543   5.896
 5158POPC   C1A65019  33.065  40.969   6.204
 5158POPC   D2A65020  33.178  40.857   6.598
 5158POPC   C3A65021  32.898  40.958   6.902
 5158POPC   C4A65022  33.085  40.922   7.299
 5158POPC   C1B65023  33.023  40.454   6.300
 5158POPC   C2B65024  32.833  40.485   6.672
 5158POPC   C3B65025  33.109  40.491   7.013
 5158POPC   C4B65026  32.949  40.422   7.427
 5159POPC   NC365027  27.411  40.576   5.304
 5159POPC   PO465028  28.002  40.873   5.377
 5159POPC   GL165029  27.769  40.669   5.743
 5159POPC   GL265030  27.404  40.775   5.809
 5159POPC   C1A65031  27.734  40.640   6.212
 5159POPC   D2A65032  27.642  40.844   6.606
 5159POPC   C3A65033  27.803  40.734   7.029
 5159POPC   C4A65034  27.690  40.624   7.477
 5159POPC   C1B65035  27.388  41.066   6.198
 5159POPC   C2B65036  27.345  41.266   6.631
 5159POPC   C3B65037  27.392  41.037   7.010
 5159POPC   C4B65038  27.214  40.732   7.302
 5160POPC   NC365039  17.162  32.387   5.508
 5160POPC   PO465040  17.797  32.243   5.247
 5160POPC   GL165041  17.646  32.210   5.718
 5160POPC   GL265042  17.846  32.014   5.975
 5160POPC   C1A65043  17.469  32.312   6.164
 5160POPC   D2A65044  17.264  32.174   6.568
 5160POPC   C3A65045  17.391  32.343   6.971
 5160POPC   C4A65046  17.135  32.716   7.109
 5160POPC   C1B65047  17.622  31.797   6.307
 5160POPC   C2B65048  17.601  31.839   6.745
 5160POPC   C3B65049  17.568  31.904   7.192
 5160POPC   C4B65050  17.658  31.830   7.632
 5161POPC   NC365051  18.987  41.213   5.736
 5161POPC   PO465052  18.981  40.684   5.368
 5161POPC   GL165053  19.200  40.727   5.799
 5161POPC   GL265054  19.418  41.028   5.900
 5161POPC   C1A65055  19.081  40.830   6.243
 5161POPC   D2A65056  18.720  40.911   6.477
 5161POPC   C3A65057  18.809  40.870   6.881
 5161POPC   C4A65058  19.050  40.536   7.081
 5161POPC   C1B65059  19.317  41.326   6.292
 5161POPC   C2B65060  19.118  41.252   6.641
 5161POPC   C3B65061  19.294  40.878   6.769
 5161POPC   C4B65062  19.466  40.817   7.159
 5162POPC   NC365063  43.254   7.421   5.275
 5162POPC   PO465064  43.288   7.788   5.750
 5162POPC   GL165065  42.892   7.597   5.865
 5162POPC   GL265066  42.783   7.213   5.892
 5162POPC   C1A65067  42.830   7.526   6.297
 5162POPC   D2A65068  43.080   7.347   6.642
 5162POPC   C3A65069  42.940   7.373   7.063
 5162POPC   C4A65070  43.159   7.382   7.463
 5162POPC   C1B65071  43.159   7.139   6.152
 5162POPC   C2B65072  43.360   6.926   6.542
 5162POPC   C3B65073  43.305   7.001   7.021
 5162POPC   C4B65074  43.204   6.881   7.488
 5163POPC   NC365075  22.278  34.894   5.605
 5163POPC   PO465076  21.986  34.416   5.175
 5163POPC   GL165077  22.200  34.357   5.646
 5163POPC   GL265078  22.010  34.562   5.909
 5163POPC   C1A65079  22.462  34.475   6.086
 5163POPC   D2A65080  22.249  34.625   6.479
 5163POPC   C3A65081  22.208  34.401   6.852
 5163POPC   C4A65082  21.965  34.372   7.225
 5163POPC   C1B65083  21.925  34.898   6.184
 5163POPC   C2B65084  21.934  35.024   6.618
 5163POPC   C3B65085  21.867  34.818   6.991
 5163POPC   C4B65086  21.821  34.825   7.435
 5164POPC   NC365087  35.815  41.982   5.381
 5164POPC   PO465088  36.180  41.486   5.179
 5164POPC   GL165089  36.201  41.688   5.603
 5164POPC   GL265090  36.487  41.475   5.698
 5164POPC   C1A65091  35.955  41.813   5.994
 5164POPC   D2A65092  36.023  41.703   6.423
 5164POPC   C3A65093  35.993  41.847   6.854
 5164POPC   C4A65094  35.980  41.530   7.173
 5164POPC   C1B65095  36.196  41.377   6.058
 5164POPC   C2B65096  36.200  41.218   6.475
 5164POPC   C3B65097  36.310  41.271   6.888
 5164POPC   C4B65098  36.400  40.998   7.222
 5165POPC   NC365099  36.323   1.394   5.419
 5165POPC   PO465100  35.699   1.311   5.611
 5165POPC   GL165101  36.033   1.117   5.841
 5165POPC   GL265102  36.408   1.082   5.825
 5165POPC   C1A65103  36.089   1.214   6.257
 5165POPC   D2A65104  36.138   1.004   6.635
 5165POPC   C3A65105  36.106   1.265   6.996
 5165POPC   C4A65106  36.179   1.098   7.425
 5165POPC   C1B65107  36.599   1.187   6.190
 5165POPC   C2B65108  36.669   1.193   6.618
 5165POPC   C3B65109  36.582   1.076   7.017
 5165POPC   C4B65110  36.553   1.442   7.286
 5166POPC   NC365111  15.149  20.754   5.295
 5166POPC   PO465112  15.144  20.123   5.199
 5166POPC   GL165113  15.120  20.406   5.680
 5166POPC   GL265114  15.301  20.746   5.771
 5166POPC   C1A65115  14.897  20.593   6.076
 5166POPC   D2A65116  15.063  20.746   6.491
 5166POPC   C3A65117  15.135  20.596   6.922
 5166POPC   C4A65118  15.226  20.855   7.275
 5166POPC   C1B65119  15.431  20.552   6.142
 5166POPC   C2B65120  15.573  20.532   6.537
 5166POPC   C3B65121  15.551  20.255   6.872
 5166POPC   C4B65122  15.567  20.465   7.246
 5167POPC   NC365123   9.149   9.045   5.379
 5167POPC   PO465124   8.831   8.583   5.660
 5167POPC   GL165125   9.198   8.807   5.857
 5167POPC   GL265126   9.216   9.171   5.862
 5167POPC   C1A65127   9.384   8.909   6.271
 5167POPC   D2A65128   9.270   9.158   6.614
 5167POPC   C3A65129   9.098   9.037   6.969
 5167POPC   C4A65130   9.180   9.158   7.366
 5167POPC   C1B65131   8.921   9.234   6.194
 5167POPC   C2B65132   8.751   9.137   6.593
 5167POPC   C3B65133   8.606   9.297   6.980
 5167POPC   C4B65134   8.715   9.368   7.438
 5168POPC   NC365135  16.761  17.316   5.468
 5168POPC   PO465136  16.200  17.722   5.454
 5168POPC   GL165137  16.473  17.646   5.775
 5168POPC   GL265138  16.738  17.865   5.775
 5168POPC   C1A65139  16.702  17.512   6.142
 5168POPC   D2A65140  16.622  17.580   6.544
 5168POPC   C3A65141  16.716  17.264   6.840
 5168POPC   C4A65142  16.831  17.413   7.222
 5168POPC   C1B65143  17.025  17.978   6.108
 5168POPC   C2B65144  17.094  17.798   6.506
 5168POPC   C3B65145  16.907  17.818   6.910
 5168POPC   C4B65146  17.099  17.850   7.320
 5169POPC   NC365147  33.671  15.610   5.578
 5169POPC   PO465148  33.835  16.191   5.421
 5169POPC   GL165149  33.984  15.949   5.844
 5169POPC   GL265150  33.771  15.705   6.044
 5169POPC   C1A65151  34.193  15.803   6.279
 5169POPC   D2A65152  34.085  15.629   6.686
 5169POPC   C3A65153  34.028  15.941   6.991
 5169POPC   C4A65154  34.049  15.959   7.421
 5169POPC   C1B65155  33.721  16.049   6.294
 5169POPC   C2B65156  33.445  16.093   6.590
 5169POPC   C3B65157  33.549  15.796   6.863
 5169POPC   C4B65158  33.584  15.972   7.246
 5170POPC   NC365159  21.220  29.822   5.086
 5170POPC   PO465160  20.915  30.236   5.571
 5170POPC   GL165161  21.171  30.048   5.893
 5170POPC   GL265162  21.418  29.842   5.683
 5170POPC   C1A65163  21.520  30.083   6.176
 5170POPC   D2A65164  21.745  29.986   6.546
 5170POPC   C3A65165  21.733  30.240   6.899
 5170POPC   C4A65166  21.489  30.280   7.244
 5170POPC   C1B65167  21.339  29.607   6.093
 5170POPC   C2B65168  21.250  29.777   6.516
 5170POPC   C3B65169  21.417  29.831   6.920
 5170POPC   C4B65170  21.540  29.535   7.211
 5171POPC   NC365171  14.189  42.602   5.523
 5171POPC   PO465172  14.244  43.233   5.394
 5171POPC   GL165173  14.389  43.265   5.822
 5171POPC   GL265174  14.439  42.922   5.824
 5171POPC   C1A65175  14.522  43.461   6.230
 5171POPC   D2A65176  14.224  43.462   6.571
 5171POPC   C3A65177  14.324  43.211   6.903
 5171POPC   C4A65178  14.692  43.314   7.116
 5171POPC   C1B65179  14.592  42.935   6.199
 5171POPC   C2B65180  14.464  42.799   6.592
 5171POPC   C3B65181  14.649  42.795   6.995
 5171POPC   C4B65182  14.481  42.655   7.361
 5172POPC   NC365183  25.624  35.353   5.390
 5172POPC   PO465184  26.179  35.703   5.476
 5172POPC   GL165185  25.942  35.471   5.766
 5172POPC   GL265186  25.600  35.587   5.873
 5172POPC   C1A65187  25.922  35.270   6.145
 5172POPC   D2A65188  26.119  35.447   6.493
 5172POPC   C3A65189  26.017  35.293   6.898
 5172POPC   C4A65190  26.160  35.376   7.310
 5172POPC   C1B65191  25.790  35.761   6.270
 5172POPC   C2B65192  25.802  35.738   6.734
 5172POPC   C3B65193  25.746  35.667   7.168
 5172POPC   C4B65194  25.645  35.758   7.588
 5173POPC   NC365195  32.377  44.187   5.435
 5173POPC   PO465196  31.766  43.888   5.467
 5173POPC   GL165197  32.091  43.915   5.769
 5173POPC   GL265198  32.089  44.270   5.831
 5173POPC   C1A65199  32.223  43.784   6.171
 5173POPC   D2A65200  32.411  43.772   6.580
 5173POPC   C3A65201  32.363  43.621   7.006
 5173POPC   C4A65202  32.333  44.035   7.251
 5173POPC   C1B65203  31.916  44.380   6.206
 5173POPC   C2B65204  31.810  44.178   6.551
 5173POPC   C3B65205  31.995  44.266   6.942
 5173POPC   C4B65206  31.818  44.245   7.347
 5174POPC   NC365207  14.363  31.946   5.368
 5174POPC   PO465208  14.037  32.458   5.593
 5174POPC   GL165209  14.436  32.265   5.766
 5174POPC   GL265210  14.773  32.449   5.774
 5174POPC   C1A65211  14.641  32.029   6.131
 5174POPC   D2A65212  14.494  32.075   6.549
 5174POPC   C3A65213  14.758  32.059   6.906
 5174POPC   C4A65214  14.598  32.348   7.165
 5174POPC   C1B65215  14.564  32.536   6.191
 5174POPC   C2B65216  14.552  32.686   6.604
 5174POPC   C3B65217  14.340  32.735   6.961
 5174POPC   C4B65218  14.288  32.694   7.401
 5175POPC   NC365219  43.988   8.692   5.403
 5175POPC   PO465220  44.227   9.286   5.393
 5175POPC   GL165221  43.969   9.072   5.754
 5175POPC   GL265222  43.851   8.746   5.890
 5175POPC   C1A65223  43.924   9.155   6.189
 5175POPC   D2A65224  44.104   8.977   6.551
 5175POPC   C3A65225  43.984   9.124   6.901
 5175POPC   C4A65226  43.747   9.006   7.224
 5175POPC   C1B65227  43.820   8.617   6.327
 5175POPC   C2B65228  43.761   8.643   6.787
 5175POPC   C3B65229  44.041   8.608   7.129
 5175POPC   C4B65230  44.066   8.747   7.567
 5176POPC   NC365231  35.104  18.566   5.448
 5176POPC   PO465232  35.763  18.511   5.631
 5176POPC   GL165233  35.666  18.290   5.962
 5176POPC   GL265234  35.456  18.049   5.883
 5176POPC   C1A65235  35.547  18.361   6.357
 5176POPC   D2A65236  35.464  18.680   6.625
 5176POPC   C3A65237  35.272  18.465   6.908
 5176POPC   C4A65238  35.361  18.118   7.161
 5176POPC   C1B65239  35.214  17.967   6.231
 5176POPC   C2B65240  35.242  17.997   6.663
 5176POPC   C3B65241  34.956  17.869   6.990
 5176POPC   C4B65242  34.880  18.010   7.374
 5177POPC   NC365243  37.758  42.701   5.428
 5177POPC   PO465244  37.587  43.384   5.328
 5177POPC   GL165245  37.564  43.341   5.786
 5177POPC   GL265246  37.808  43.056   5.808
 5177POPC   C1A65247  37.597  43.231   6.245
 5177POPC   D2A65248  37.665  42.933   6.610
 5177POPC   C3A65249  37.560  43.128   7.036
 5177POPC   C4A65250  37.267  43.302   7.374
 5177POPC   C1B65251  38.065  42.839   6.130
 5177POPC   C2B65252  38.165  42.735   6.569
 5177POPC   C3B65253  37.958  42.707   6.985
 5177POPC   C4B65254  37.977  42.816   7.436
 5178POPC   NC365255  20.035  44.980   5.446
 5178POPC   PO465256  19.651  44.356   5.369
 5178POPC   GL165257  19.832  44.422   5.794
 5178POPC   GL265258  20.107  44.680   5.847
 5178POPC   C1A65259  19.787  44.571   6.235
 5178POPC   D2A65260  19.691  44.941   6.472
 5178POPC   C3A65261  19.669  44.849   6.890
 5178POPC   C4A65262  19.732  44.402   7.019
 5178POPC   C1B65263  20.120  44.990   6.213
 5178POPC   C2B65264  20.180  44.821   6.638
 5178POPC   C3B65265  20.162  44.957   7.047
 5178POPC   C4B65266  20.291  44.773   7.413
 5179POPC   NC365267  26.385  27.195   5.381
 5179POPC   PO465268  26.142  27.876   5.375
 5179POPC   GL165269  26.156  27.600   5.780
 5179POPC   GL265270  25.841  27.452   5.880
 5179POPC   C1A65271  26.124  27.595   6.271
 5179POPC   D2A65272  26.064  27.852   6.655
 5179POPC   C3A65273  26.082  27.642   7.073
 5179POPC   C4A65274  25.894  27.827   7.475
 5179POPC   C1B65275  25.642  27.345   6.249
 5179POPC   C2B65276  25.841  27.354   6.649
 5179POPC   C3B65277  25.713  27.238   7.026
 5179POPC   C4B65278  25.930  27.252   7.398
 5180POPC   NC365279  40.044  27.999   5.361
 5180POPC   PO465280  39.901  27.349   5.281
 5180POPC   GL165281  40.068  27.479   5.756
 5180POPC   GL265282  39.926  27.787   5.838
 5180POPC   C1A65283  40.213  27.621   6.241
 5180POPC   D2A65284  40.299  27.559   6.736
 5180POPC   C3A65285  40.203  27.869   7.100
 5180POPC   C4A65286  40.150  27.802   7.564
 5180POPC   C1B65287  39.728  27.522   6.197
 5180POPC   C2B65288  39.688  27.445   6.633
 5180POPC   C3B65289  39.795  27.552   7.056
 5180POPC   C4B65290  40.162  27.389   7.260
 5181POPC   NC365291  26.321  41.726   5.686
 5181POPC   PO465292  26.983  41.699   5.528
 5181POPC   GL165293  26.846  41.607   5.883
 5181POPC   GL265294  26.884  41.959   5.998
 5181POPC   C1A65295  27.017  41.457   6.255
 5181POPC   D2A65296  26.824  41.317   6.624
 5181POPC   C3A65297  27.024  41.530   6.948
 5181POPC   C4A65298  27.073  41.293   7.299
 5181POPC   C1B65299  26.580  41.814   6.289
 5181POPC   C2B65300  26.595  41.757   6.697
 5181POPC   C3B65301  26.544  41.526   7.054
 5181POPC   C4B65302  26.391  41.860   7.251
 5182POPC   NC365303  33.585  35.429   5.365
 5182POPC   PO465304  34.270  35.257   5.414
 5182POPC   GL165305  34.006  35.261   5.779
 5182POPC   GL265306  33.698  35.439   5.892
 5182POPC   C1A65307  34.030  35.229   6.215
 5182POPC   D2A65308  34.150  35.445   6.551
 5182POPC   C3A65309  34.052  35.380   6.967
 5182POPC   C4A65310  33.866  35.129   7.284
 5182POPC   C1B65311  33.620  35.510   6.353
 5182POPC   C2B65312  33.584  35.324   6.777
 5182POPC   C3B65313  33.624  35.570   7.179
 5182POPC   C4B65314  33.562  35.430   7.644
 5183POPC   NC365315  14.329  34.928   5.215
 5183POPC   PO465316  14.586  35.534   5.472
 5183POPC   GL165317  14.543  35.488   5.897
 5183POPC   GL265318  14.388  35.165   5.800
 5183POPC   C1A65319  14.322  35.717   6.251
 5183POPC   D2A65320  14.110  35.583   6.608
 5183POPC   C3A65321  14.347  35.452   6.967
 5183POPC   C4A65322  14.176  35.397   7.340
 5183POPC   C1B65323  14.196  35.231   6.198
 5183POPC   C2B65324  14.371  35.128   6.587
 5183POPC   C3B65325  14.308  34.941   7.015
 5183POPC   C4B65326  14.471  34.977   7.441
 5184POPC   NC365327  12.279   4.827   5.409
 5184POPC   PO465328  11.839   5.371   5.295
 5184POPC   GL165329  11.865   5.092   5.688
 5184POPC   GL265330  12.223   5.028   5.852
 5184POPC   C1A65331  11.834   5.128   6.150
 5184POPC   D2A65332  11.926   5.229   6.576
 5184POPC   C3A65333  11.929   4.896   6.905
 5184POPC   C4A65334  11.826   5.129   7.283
 5184POPC   C1B65335  12.339   5.167   6.248
 5184POPC   C2B65336  12.394   5.027   6.658
 5184POPC   C3B65337  12.259   5.278   6.998
 5184POPC   C4B65338  12.346   5.333   7.410
 5185POPC   NC365339   0.516  34.349   5.016
 5185POPC   PO465340   0.449  34.406   5.657
 5185POPC   GL165341   0.659  34.512   5.958
 5185POPC   GL265342   0.471  34.348   6.173
 5185POPC   C1A65343   0.675  34.817   6.291
 5185POPC   D2A65344   0.677  34.914   6.722
 5185POPC   C3A65345   0.453  34.656   7.007
 5185POPC   C4A65346   0.733  34.790   7.282
 5185POPC   C1B65347   0.114  34.427   6.450
 5185POPC   C2B65348  44.966  34.677   6.792
 5185POPC   C3B65349  44.873  34.451   7.177
 5185POPC   C4B65350   0.072  34.365   7.557
 5186POPC   NC365351   7.839  16.994   5.474
 5186POPC   PO465352   8.269  16.492   5.394
 5186POPC   GL165353   8.305  16.525   5.822
 5186POPC   GL265354   8.036  16.746   5.873
 5186POPC   C1A65355   8.414  16.600   6.235
 5186POPC   D2A65356   8.476  16.889   6.566
 5186POPC   C3A65357   8.430  16.704   6.970
 5186POPC   C4A65358   8.522  16.329   7.202
 5186POPC   C1B65359   8.122  17.030   6.207
 5186POPC   C2B65360   7.854  17.253   6.498
 5186POPC   C3B65361   7.847  17.284   6.938
 5186POPC   C4B65362   7.975  16.960   7.198
 5187POPC   NC365363  40.523  11.046   5.626
 5187POPC   PO465364  40.860  11.624   5.427
 5187POPC   GL165365  40.787  11.418   5.864
 5187POPC   GL265366  40.421  11.448   5.930
 5187POPC   C1A65367  40.824  11.114   6.225
 5187POPC   D2A65368  40.657  11.020   6.649
 5187POPC   C3A65369  40.812  11.104   7.054
 5187POPC   C4A65370  40.855  10.902   7.464
 5187POPC   C1B65371  40.462  11.422   6.383
 5187POPC   C2B65372  40.562  11.712   6.696
 5187POPC   C3B65373  40.741  11.609   7.094
 5187POPC   C4B65374  40.679  11.380   7.486
 5188POPC   NC365375  32.266  22.934   5.444
 5188POPC   PO465376  32.898  22.641   5.431
 5188POPC   GL165377  32.662  22.766   5.752
 5188POPC   GL265378  32.766  22.481   5.888
 5188POPC   C1A65379  32.425  22.953   6.100
 5188POPC   D2A65380  32.192  23.133   6.467
 5188POPC   C3A65381  32.020  22.856   6.798
 5188POPC   C4A65382  31.971  22.928   7.252
 5188POPC   C1B65383  32.628  22.512   6.283
 5188POPC   C2B65384  32.583  22.660   6.677
 5188POPC   C3B65385  32.582  22.770   7.085
 5188POPC   C4B65386  32.457  23.151   7.208
 5189POPC   NC365387  41.438   4.700   5.317
 5189POPC   PO465388  41.558   4.106   5.204
 5189POPC   GL165389  41.616   4.383   5.641
 5189POPC   GL265390  41.275   4.521   5.802
 5189POPC   C1A65391  41.704   4.581   6.057
 5189POPC   D2A65392  41.771   4.569   6.527
 5189POPC   C3A65393  41.665   4.332   6.926
 5189POPC   C4A65394  41.937   4.103   7.225
 5189POPC   C1B65395  41.290   4.428   6.296
 5189POPC   C2B65396  41.522   4.055   6.491
 5189POPC   C3B65397  41.641   3.813   6.871
 5189POPC   C4B65398  41.431   3.963   7.259
 5190POPC   NC365399  44.482  15.416   5.007
 5190POPC   PO465400  44.909  15.408   5.496
 5190POPC   GL165401  44.754  15.503   5.883
 5190POPC   GL265402  44.442  15.334   5.824
 5190POPC   C1A65403  44.992  15.446   6.257
 5190POPC   D2A65404   0.042  15.197   6.626
 5190POPC   C3A65405  44.872  15.435   6.981
 5190POPC   C4A65406  44.444  15.456   7.174
 5190POPC   C1B65407  44.568  15.171   6.273
 5190POPC   C2B65408  44.526  15.127   6.760
 5190POPC   C3B65409  44.646  14.972   7.203
 5190POPC   C4B65410  44.478  14.687   7.549
 5191POPC   NC365411   5.308  31.171   5.201
 5191POPC   PO465412   4.857  31.623   5.334
 5191POPC   GL165413   5.002  31.648   5.769
 5191POPC   GL265414   4.819  31.358   5.930
 5191POPC   C1A65415   5.250  31.697   6.177
 5191POPC   D2A65416   5.482  31.699   6.596
 5191POPC   C3A65417   5.241  31.688   6.981
 5191POPC   C4A65418   4.960  31.529   7.267
 5191POPC   C1B65419   4.895  31.330   6.364
 5191POPC   C2B65420   4.965  31.274   6.802
 5191POPC   C3B65421   4.784  31.062   7.166
 5191POPC   C4B65422   4.603  31.290   7.527
 5192POPC   NC365423   0.565   1.024   5.519
 5192POPC   PO465424  44.973   1.466   5.511
 5192POPC   GL165425   0.235   1.311   5.828
 5192POPC   GL265426   0.230   0.949   5.888
 5192POPC   C1A65427   0.415   1.475   6.203
 5192POPC   D2A65428   0.764   1.409   6.472
 5192POPC   C3A65429   0.614   1.296   6.853
 5192POPC   C4A65430   0.346   1.387   7.184
 5192POPC   C1B65431   0.413   0.917   6.304
 5192POPC   C2B65432   0.227   0.702   6.664
 5192POPC   C3B65433   0.279   0.858   7.062
 5192POPC   C4B65434   0.662   0.966   7.249
 5193POPC   NC365435  30.204  35.276   5.368
 5193POPC   PO465436  30.822  35.575   5.293
 5193POPC   GL165437  30.829  35.403   5.760
 5193POPC   GL265438  31.033  35.111   5.884
 5193POPC   C1A65439  30.667  35.610   6.163
 5193POPC   D2A65440  30.821  35.630   6.589
 5193POPC   C3A65441  30.540  35.522   6.917
 5193POPC   C4A65442  30.731  35.283   7.243
 5193POPC   C1B65443  30.759  35.111   6.267
 5193POPC   C2B65444  30.769  35.054   6.719
 5193POPC   C3B65445  30.985  34.860   7.095
 5193POPC   C4B65446  30.946  34.950   7.555
 5194POPC   NC365447   6.704  40.090   5.382
 5194POPC   PO465448   6.983  39.667   5.849
 5194POPC   GL165449   6.698  39.971   5.879
 5194POPC   GL265450   6.635  40.314   5.916
 5194POPC   C1A65451   6.496  39.985   6.255
 5194POPC   D2A65452   6.619  40.095   6.677
 5194POPC   C3A65453   6.871  39.761   6.888
 5194POPC   C4A65454   6.958  39.753   7.327
 5194POPC   C1B65455   6.347  40.480   6.233
 5194POPC   C2B65456   6.162  40.597   6.638
 5194POPC   C3B65457   6.298  40.337   6.991
 5194POPC   C4B65458   6.515  39.998   7.208
 5195POPC   NC365459   6.872  15.193   5.012
 5195POPC   PO465460   6.653  15.676   5.438
 5195POPC   GL165461   6.816  15.439   5.787
 5195POPC   GL265462   6.489  15.305   5.806
 5195POPC   C1A65463   6.740  15.234   6.223
 5195POPC   D2A65464   6.627  14.893   6.533
 5195POPC   C3A65465   6.659  15.036   6.966
 5195POPC   C4A65466   6.986  15.299   7.133
 5195POPC   C1B65467   6.223  15.307   6.170
 5195POPC   C2B65468   6.124  15.440   6.591
 5195POPC   C3B65469   6.258  15.384   7.026
 5195POPC   C4B65470   6.113  15.206   7.400
 5196POPC   NC365471  35.483  27.132   5.371
 5196POPC   PO465472  35.022  26.684   5.462
 5196POPC   GL165473  35.318  26.815   5.741
 5196POPC   GL265474  35.100  26.730   5.975
 5196POPC   C1A65475  35.562  26.829   6.119
 5196POPC   D2A65476  35.389  26.759   6.530
 5196POPC   C3A65477  35.714  26.873   6.809
 5196POPC   C4A65478  35.674  26.976   7.217
 5196POPC   C1B65479  35.076  27.079   6.223
 5196POPC   C2B65480  34.918  27.003   6.617
 5196POPC   C3B65481  34.972  26.797   7.002
 5196POPC   C4B65482  35.171  26.888   7.403
 5197POPC   NC365483  34.762  27.078   5.440
 5197POPC   PO465484  34.267  26.566   5.408
 5197POPC   GL165485  34.559  26.687   5.763
 5197POPC   GL265486  34.717  26.420   5.913
 5197POPC   C1A65487  34.605  26.870   6.185
 5197POPC   D2A65488  34.309  26.976   6.513
 5197POPC   C3A65489  34.437  27.072   6.923
 5197POPC   C4A65490  34.630  27.012   7.316
 5197POPC   C1B65491  34.876  26.455   6.346
 5197POPC   C2B65492  34.618  26.593   6.685
 5197POPC   C3B65493  34.501  26.580   7.105
 5197POPC   C4B65494  34.821  26.508   7.415
 5198POPC   NC365495  26.847  20.990   5.640
 5198POPC   PO465496  26.692  21.543   5.349
 5198POPC   GL165497  26.736  21.600   5.797
 5198POPC   GL265498  27.046  21.466   5.803
 5198POPC   C1A65499  26.704  21.385   6.206
 5198POPC   D2A65500  26.352  21.244   6.480
 5198POPC   C3A65501  26.416  21.170   6.928
 5198POPC   C4A65502  26.522  21.509   7.170
 5198POPC   C1B65503  27.207  21.576   6.217
 5198POPC   C2B65504  27.014  21.496   6.631
 5198POPC   C3B65505  27.019  21.600   7.076
 5198POPC   C4B65506  26.937  21.249   7.336
 5199POPC   NC365507  11.320  38.094   5.395
 5199POPC   PO465508  11.287  37.386   5.314
 5199POPC   GL165509  11.215  37.547   5.754
 5199POPC   GL265510  11.088  37.901   5.806
 5199POPC   C1A65511  11.152  37.528   6.211
 5199POPC   D2A65512  10.984  37.846   6.499
 5199POPC   C3A65513  10.904  37.734   6.936
 5199POPC   C4A65514  10.958  37.440   7.301
 5199POPC   C1B65515  11.481  37.890   6.055
 5199POPC   C2B65516  11.551  37.919   6.470
 5199POPC   C3B65517  11.360  37.983   6.853
 5199POPC   C4B65518  11.364  37.689   7.158
 5200POPC   NC365519   7.301  23.199   5.569
 5200POPC   PO465520   7.549  22.648   5.384
 5200POPC   GL165521   7.370  22.761   5.834
 5200POPC   GL265522   7.172  23.058   6.015
 5200POPC   C1A65523   7.586  22.867   6.227
 5200POPC   D2A65524   7.830  23.120   6.562
 5200POPC   C3A65525   7.627  23.117   6.980
 5200POPC   C4A65526   7.396  22.704   7.088
 5200POPC   C1B65527   7.340  23.269   6.366
 5200POPC   C2B65528   7.246  23.008   6.667
 5200POPC   C3B65529   7.061  23.089   7.044
 5200POPC   C4B65530   7.326  23.209   7.388
 5201POPC   NC365531   4.765  20.215   5.532
 5201POPC   PO465532   4.746  20.801   5.229
 5201POPC   GL165533   5.026  20.641   5.669
 5201POPC   GL265534   5.315  20.881   5.736
 5201POPC   C1A65535   5.211  20.503   6.084
 5201POPC   D2A65536   5.318  20.316   6.485
 5201POPC   C3A65537   5.022  20.363   6.835
 5201POPC   C4A65538   4.956  20.458   7.291
 5201POPC   C1B65539   5.114  21.019   6.137
 5201POPC   C2B65540   4.959  20.806   6.519
 5201POPC   C3B65541   4.952  20.882   6.965
 5201POPC   C4B65542   5.275  20.845   7.281
 5202POPC   NC365543  16.746  26.516   5.237
 5202POPC   PO465544  16.838  27.110   5.499
 5202POPC   GL165545  16.822  26.785   5.841
 5202POPC   GL265546  16.552  26.510   5.716
 5202POPC   C1A65547  16.801  26.837   6.320
 5202POPC   D2A65548  16.428  27.033   6.556
 5202POPC   C3A65549  16.477  27.146   6.990
 5202POPC   C4A65550  16.765  26.915   7.234
 5202POPC   C1B65551  16.394  26.629   6.098
 5202POPC   C2B65552  16.426  26.504   6.522
 5202POPC   C3B65553  16.487  26.636   6.915
 5202POPC   C4B65554  16.525  26.481   7.348
 5203POPC   NC365555   5.290  16.346   5.662
 5203POPC   PO465556   4.822  15.976   5.362
 5203POPC   GL165557   5.117  15.753   5.713
 5203POPC   GL265558   5.131  15.991   5.957
 5203POPC   C1A65559   5.244  15.541   6.139
 5203POPC   D2A65560   5.075  15.568   6.584
 5203POPC   C3A65561   5.089  15.948   6.807
 5203POPC   C4A65562   5.126  16.036   7.236
 5203POPC   C1B65563   4.805  16.277   6.140
 5203POPC   C2B65564   4.603  16.374   6.553
 5203POPC   C3B65565   4.846  16.416   6.920
 5203POPC   C4B65566   4.751  16.347   7.362
 5204POPC   NC365567  20.522  37.401   5.330
 5204POPC   PO465568  21.107  37.727   5.466
 5204POPC   GL165569  20.709  37.683   5.750
 5204POPC   GL265570  20.714  37.357   5.802
 5204POPC   C1A65571  20.506  37.536   6.215
 5204POPC   D2A65572  20.625  37.474   6.679
 5204POPC   C3A65573  20.482  37.652   7.086
 5204POPC   C4A65574  20.641  37.875   7.450
 5204POPC   C1B65575  21.019  37.485   6.166
 5204POPC   C2B65576  21.123  37.401   6.647
 5204POPC   C3B65577  20.962  37.413   7.101
 5204POPC   C4B65578  20.678  37.362   7.478
 5205POPC   NC365579  23.177  20.847   5.289
 5205POPC   PO465580  22.709  20.415   5.279
 5205POPC   GL165581  22.793  20.666   5.671
 5205POPC   GL265582  23.150  20.666   5.795
 5205POPC   C1A65583  22.796  20.782   6.132
 5205POPC   D2A65584  23.098  20.628   6.452
 5205POPC   C3A65585  22.992  20.774   6.862
 5205POPC   C4A65586  22.851  20.660   7.262
 5205POPC   C1B65587  23.279  20.274   6.075
 5205POPC   C2B65588  23.380  20.146   6.500
 5205POPC   C3B65589  23.259  20.322   6.906
 5205POPC   C4B65590  23.137  20.209   7.329
 5206POPC   NC365591   7.323   4.425   5.259
 5206POPC   PO465592   7.032   4.889   5.643
 5206POPC   GL165593   7.144   4.496   5.851
 5206POPC   GL265594   7.341   4.189   5.762
 5206POPC   C1A65595   7.108   4.366   6.301
 5206POPC   D2A65596   7.100   4.086   6.670
 5206POPC   C3A65597   7.179   4.250   7.082
 5206POPC   C4A65598   7.034   4.153   7.515
 5206POPC   C1B65599   7.573   4.417   6.128
 5206POPC   C2B65600   7.517   4.570   6.582
 5206POPC   C3B65601   7.666   4.449   6.997
 5206POPC   C4B65602   7.906   4.098   7.123
 5207POPC   NC365603  39.025  11.669   5.129
 5207POPC   PO465604  39.391  11.115   5.375
 5207POPC   GL165605  39.081  11.218   5.713
 5207POPC   GL265606  39.257  11.477   5.816
 5207POPC   C1A65607  39.011  11.096   6.183
 5207POPC   D2A65608  39.126  10.980   6.638
 5207POPC   C3A65609  39.333  11.298   6.948
 5207POPC   C4A65610  39.498  11.259   7.360
 5207POPC   C1B65611  39.107  11.615   6.236
 5207POPC   C2B65612  38.942  11.455   6.627
 5207POPC   C3B65613  38.838  11.248   7.034
 5207POPC   C4B65614  38.985  11.441   7.431
 5208POPC   NC365615  39.048  43.412   5.533
 5208POPC   PO465616  38.476  43.209   5.281
 5208POPC   GL165617  38.325  43.076   5.668
 5208POPC   GL265618  38.575  42.893   5.840
 5208POPC   C1A65619  38.253  43.320   6.049
 5208POPC   D2A65620  38.071  43.268   6.463
 5208POPC   C3A65621  38.381  43.225   6.771
 5208POPC   C4A65622  38.536  43.387   7.146
 5208POPC   C1B65623  38.558  42.951   6.279
 5208POPC   C2B65624  38.842  43.028   6.585
 5208POPC   C3B65625  38.825  42.977   6.990
 5208POPC   C4B65626  38.409  42.895   7.171
 5209POPC   NC365627  28.483  14.866   5.558
 5209POPC   PO465628  28.581  15.598   5.496
 5209POPC   GL165629  28.597  15.288   5.829
 5209POPC   GL265630  28.256  15.173   5.902
 5209POPC   C1A65631  28.589  15.168   6.281
 5209POPC   D2A65632  28.337  15.316   6.605
 5209POPC   C3A65633  28.386  15.207   7.022
 5209POPC   C4A65634  28.172  15.513   7.271
 5209POPC   C1B65635  28.062  14.974   6.288
 5209POPC   C2B65636  28.005  14.928   6.732
 5209POPC   C3B65637  28.234  14.688   7.049
 5209POPC   C4B65638  28.331  14.696   7.501
 5210POPC   NC365639  32.380  36.416   5.619
 5210POPC   PO465640  32.176  35.837   5.390
 5210POPC   GL165641  32.290  35.950   5.815
 5210POPC   GL265642  32.013  36.175   5.919
 5210POPC   C1A65643  32.442  36.118   6.230
 5210POPC   D2A65644  32.309  35.929   6.615
 5210POPC   C3A65645  32.462  36.076   6.989
 5210POPC   C4A65646  32.194  35.851   7.233
 5210POPC   C1B65647  31.908  36.141   6.365
 5210POPC   C2B65648  32.025  36.340   6.747
 5210POPC   C3B65649  32.013  36.348   7.179
 5210POPC   C4B65650  31.913  36.574   7.547
 5211POPC   NC365651  40.342   4.265   5.225
 5211POPC   PO465652  40.973   4.581   5.369
 5211POPC   GL165653  40.664   4.324   5.657
 5211POPC   GL265654  40.871   4.138   5.879
 5211POPC   C1A65655  40.436   4.258   6.101
 5211POPC   D2A65656  40.538   4.437   6.510
 5211POPC   C3A65657  40.472   4.270   6.932
 5211POPC   C4A65658  40.626   4.450   7.351
 5211POPC   C1B65659  40.900   4.092   6.317
 5211POPC   C2B65660  40.940   4.142   6.753
 5211POPC   C3B65661  41.078   4.326   7.144
 5211POPC   C4B65662  41.029   4.212   7.597
 5212POPC   NC365663  41.385  43.716   5.427
 5212POPC   PO465664  41.942  44.059   5.589
 5212POPC   GL165665  41.668  43.901   5.932
 5212POPC   GL265666  41.291  43.812   5.915
 5212POPC   C1A65667  41.549  43.836   6.364
 5212POPC   D2A65668  41.312  44.024   6.672
 5212POPC   C3A65669  41.467  44.092   7.067
 5212POPC   C4A65670  41.651  43.928   7.474
 5212POPC   C1B65671  41.274  43.430   6.196
 5212POPC   C2B65672  41.458  43.423   6.651
 5212POPC   C3B65673  41.531  43.607   7.084
 5212POPC   C4B65674  41.460  43.432   7.517
 5213POPC   NC365675  38.096   2.556   4.920
 5213POPC   PO465676  37.797   2.723   5.529
 5213POPC   GL165677  37.567   2.683   5.872
 5213POPC   GL265678  37.850   2.541   6.039
 5213POPC   C1A65679  37.596   2.925   6.264
 5213POPC   D2A65680  37.822   2.786   6.641
 5213POPC   C3A65681  37.567   2.943   6.903
 5213POPC   C4A65682  37.394   2.824   7.249
 5213POPC   C1B65683  38.119   2.908   6.241
 5213POPC   C2B65684  38.157   3.171   6.672
 5213POPC   C3B65685  38.014   3.026   7.112
 5213POPC   C4B65686  37.827   2.583   7.222
 5214POPC   NC365687  26.270  23.868   5.463
 5214POPC   PO465688  25.679  23.604   5.343
 5214POPC   GL165689  25.817  23.847   5.685
 5214POPC   GL265690  26.008  23.570   5.801
 5214POPC   C1A65691  25.795  23.915   6.138
 5214POPC   D2A65692  25.580  23.777   6.523
 5214POPC   C3A65693  25.754  23.932   6.876
 5214POPC   C4A65694  26.097  23.668   7.006
 5214POPC   C1B65695  26.243  23.611   6.175
 5214POPC   C2B65696  26.442  23.506   6.567
 5214POPC   C3B65697  26.388  23.248   6.904
 5214POPC   C4B65698  26.226  23.205   7.321
 5215POPC   NC365699  22.368   9.503   5.527
 5215POPC   PO465700  22.126  10.119   5.305
 5215POPC   GL165701  22.088   9.898   5.763
 5215POPC   GL265702  22.429   9.859   5.896
 5215POPC   C1A65703  22.092   9.792   6.258
 5215POPC   D2A65704  22.274   9.600   6.664
 5215POPC   C3A65705  22.093   9.760   7.073
 5215POPC   C4A65706  21.779  10.030   7.287
 5215POPC   C1B65707  22.541   9.492   6.190
 5215POPC   C2B65708  22.674   9.230   6.581
 5215POPC   C3B65709  22.596   9.364   7.022
 5215POPC   C4B65710  22.423   9.565   7.397
 5216POPC   NC365711  23.616  28.210   5.292
 5216POPC   PO465712  23.913  28.772   5.234
 5216POPC   GL165713  23.894  28.633   5.732
 5216POPC   GL265714  23.551  28.547   5.856
 5216POPC   C1A65715  23.909  28.365   6.193
 5216POPC   D2A65716  23.792  28.133   6.591
 5216POPC   C3A65717  23.907  28.316   6.999
 5216POPC   C4A65718  23.922  28.303   7.505
 5216POPC   C1B65719  23.434  28.217   6.181
 5216POPC   C2B65720  23.258  28.229   6.607
 5216POPC   C3B65721  23.254  27.988   6.962
 5216POPC   C4B65722  23.514  28.149   7.241
 5217POPC   NC365723  27.893  23.297   5.352
 5217POPC   PO465724  27.800  22.622   5.391
 5217POPC   GL165725  27.631  22.828   5.729
 5217POPC   GL265726  27.536  23.156   5.737
 5217POPC   C1A65727  27.534  22.744   6.128
 5217POPC   D2A65728  27.799  22.662   6.459
 5217POPC   C3A65729  27.596  22.818   6.846
 5217POPC   C4A65730  27.507  22.754   7.276
 5217POPC   C1B65731  27.587  23.262   6.175
 5217POPC   C2B65732  27.808  23.475   6.513
 5217POPC   C3B65733  27.916  23.449   6.948
 5217POPC   C4B65734  27.659  23.253   7.255
 5218POPC   NC365735  27.369  21.487   5.386
 5218POPC   PO465736  27.967  21.107   5.455
 5218POPC   GL165737  27.805  21.228   5.849
 5218POPC   GL265738  27.459  21.189   5.823
 5218POPC   C1A65739  27.635  21.183   6.286
 5218POPC   D2A65740  27.537  21.458   6.638
 5218POPC   C3A65741  27.720  21.449   7.067
 5218POPC   C4A65742  27.439  21.585   7.386
 5218POPC   C1B65743  27.159  21.067   6.188
 5218POPC   C2B65744  27.254  21.005   6.620
 5218POPC   C3B65745  27.305  21.184   7.012
 5218POPC   C4B65746  27.415  21.078   7.466
 5219POPC   NC365747  44.537  15.754   5.470
 5219POPC   PO465748   0.076  16.210   5.447
 5219POPC   GL165749  44.955  15.980   5.785
 5219POPC   GL265750  44.609  16.070   5.872
 5219POPC   C1A65751   0.010  15.955   6.222
 5219POPC   D2A65752  44.922  15.815   6.619
 5219POPC   C3A65753  44.929  16.063   6.979
 5219POPC   C4A65754  44.794  15.818   7.317
 5219POPC   C1B65755  44.484  15.953   6.304
 5219POPC   C2B65756  44.488  16.191   6.703
 5219POPC   C3B65757  44.438  16.192   7.162
 5219POPC   C4B65758  44.269  16.152   7.586
 5220POPC   NC365759   6.656   8.361   5.172
 5220POPC   PO465760   7.035   7.929   5.519
 5220POPC   GL165761   6.727   7.862   5.806
 5220POPC   GL265762   6.597   8.195   5.663
 5220POPC   C1A65763   6.627   7.763   6.262
 5220POPC   D2A65764   6.446   7.852   6.703
 5220POPC   C3A65765   6.672   7.836   7.112
 5220POPC   C4A65766   7.068   7.696   7.289
 5220POPC   C1B65767   6.528   8.261   6.080
 5220POPC   C2B65768   6.673   8.302   6.491
 5220POPC   C3B65769   6.467   8.363   6.863
 5220POPC   C4B65770   6.603   8.379   7.257
 5221POPC   NC365771  18.123   8.510   5.460
 5221POPC   PO465772  18.654   8.077   5.309
 5221POPC   GL165773  18.357   8.129   5.703
 5221POPC   GL265774  18.093   7.886   5.796
 5221POPC   C1A65775  18.423   8.125   6.162
 5221POPC   D2A65776  18.677   7.924   6.488
 5221POPC   C3A65777  18.548   8.036   6.901
 5221POPC   C4A65778  18.669   8.368   7.148
 5221POPC   C1B65779  17.958   7.898   6.225
 5221POPC   C2B65780  18.008   8.051   6.653
 5221POPC   C3B65781  18.069   7.923   7.090
 5221POPC   C4B65782  18.211   8.264   7.307
 5222POPC   NC365783  12.355  35.803   5.422
 5222POPC   PO465784  11.835  36.148   5.477
 5222POPC   GL165785  12.159  36.118   5.811
 5222POPC   GL265786  12.348  36.445   5.831
 5222POPC   C1A65787  12.230  35.793   6.153
 5222POPC   D2A65788  11.997  35.760   6.562
 5222POPC   C3A65789  11.936  36.070   6.885
 5222POPC   C4A65790  12.212  36.070   7.230
 5222POPC   C1B65791  12.404  36.259   6.266
 5222POPC   C2B65792  12.397  36.204   6.732
 5222POPC   C3B65793  12.201  36.521   7.027
 5222POPC   C4B65794  11.755  36.535   7.193
 5223POPC   NC365795   9.533  29.083   5.441
 5223POPC   PO465796  10.230  28.908   5.524
 5223POPC   GL165797   9.912  29.125   5.829
 5223POPC   GL265798   9.603  28.912   5.910
 5223POPC   C1A65799   9.807  29.160   6.298
 5223POPC   D2A65800   9.985  29.050   6.710
 5223POPC   C3A65801   9.815  29.147   7.091
 5223POPC   C4A65802   9.545  29.439   7.254
 5223POPC   C1B65803   9.312  28.800   6.244
 5223POPC   C2B65804   9.293  28.741   6.669
 5223POPC   C3B65805   9.320  29.025   6.997
 5223POPC   C4B65806   9.430  28.887   7.398
 5224POPC   NC365807  19.735  34.003   5.003
 5224POPC   PO465808  20.153  34.026   5.548
 5224POPC   GL165809  20.103  33.747   5.838
 5224POPC   GL265810  19.762  33.810   5.782
 5224POPC   C1A65811  20.012  33.657   6.236
 5224POPC   D2A65812  19.900  33.950   6.545
 5224POPC   C3A65813  19.934  33.708   6.878
 5224POPC   C4A65814  19.961  33.784   7.279
 5224POPC   C1B65815  19.570  33.955   6.151
 5224POPC   C2B65816  19.384  33.847   6.528
 5224POPC   C3B65817  19.459  33.922   6.961
 5224POPC   C4B65818  19.288  33.638   7.250
 5225POPC   NC365819   5.818  34.432   5.049
 5225POPC   PO465820   6.090  34.794   5.432
 5225POPC   GL165821   5.888  34.693   5.817
 5225POPC   GL265822   5.595  34.917   5.806
 5225POPC   C1A65823   6.014  34.686   6.261
 5225POPC   D2A65824   6.164  34.745   6.707
 5225POPC   C3A65825   6.038  34.655   7.146
 5225POPC   C4A65826   6.174  34.809   7.578
 5225POPC   C1B65827   5.486  34.756   6.207
 5225POPC   C2B65828   5.647  34.746   6.618
 5225POPC   C3B65829   5.630  34.919   7.005
 5225POPC   C4B65830   5.447  34.620   7.274
 5226POPC   NC365831  43.397  36.033   5.508
 5226POPC   PO465832  42.711  35.883   5.368
 5226POPC   GL165833  42.962  35.891   5.816
 5226POPC   GL265834  43.098  36.208   5.915
 5226POPC   C1A65835  43.202  35.891   6.279
 5226POPC   D2A65836  43.092  36.101   6.720
 5226POPC   C3A65837  43.349  36.112   7.127
 5226POPC   C4A65838  43.398  36.006   7.583
 5226POPC   C1B65839  42.834  36.270   6.287
 5226POPC   C2B65840  42.860  36.560   6.632
 5226POPC   C3B65841  42.971  36.501   7.085
 5226POPC   C4B65842  42.888  36.157   7.372
 5227POPC   NC365843  26.862  29.499   5.467
 5227POPC   PO465844  26.426  28.830   5.469
 5227POPC   GL165845  26.573  29.110   5.802
 5227POPC   GL265846  26.659  29.446   5.925
 5227POPC   C1A65847  26.671  29.031   6.210
 5227POPC   D2A65848  26.947  28.941   6.510
 5227POPC   C3A65849  26.727  29.055   6.826
 5227POPC   C4A65850  26.812  28.908   7.199
 5227POPC   C1B65851  27.036  29.369   6.232
 5227POPC   C2B65852  27.052  29.452   6.688
 5227POPC   C3B65853  27.030  29.362   7.130
 5227POPC   C4B65854  27.277  29.193   7.481
 5228POPC   NC365855  11.857  23.695   5.311
 5228POPC   PO465856  12.491  23.816   5.020
 5228POPC   GL165857  12.345  23.796   5.496
 5228POPC   GL265858  12.109  24.035   5.676
 5228POPC   C1A65859  12.230  23.610   5.950
 5228POPC   D2A65860  11.892  23.699   6.313
 5228POPC   C3A65861  11.876  23.536   6.778
 5228POPC   C4A65862  11.982  23.351   7.210
 5228POPC   C1B65863  12.263  24.064   6.156
 5228POPC   C2B65864  12.182  23.992   6.634
 5228POPC   C3B65865  12.116  23.885   7.087
 5228POPC   C4B65866  11.807  23.856   7.443
 5229POPC   NC365867  40.224  41.468   5.379
 5229POPC   PO465868  39.679  41.903   5.438
 5229POPC   GL165869  39.792  41.590   5.754
 5229POPC   GL265870  40.129  41.640   5.862
 5229POPC   C1A65871  39.750  41.487   6.224
 5229POPC   D2A65872  39.940  41.658   6.629
 5229POPC   C3A65873  39.959  41.417   7.045
 5229POPC   C4A65874  39.853  41.386   7.482
 5229POPC   C1B65875  40.248  41.400   6.247
 5229POPC   C2B65876  40.379  41.380   6.687
 5229POPC   C3B65877  40.412  41.155   7.074
 5229POPC   C4B65878  40.352  41.367   7.453
 5230POPC   NC365879   2.351  37.829   5.306
 5230POPC   PO465880   2.918  37.384   5.413
 5230POPC   GL165881   2.715  37.607   5.719
 5230POPC   GL265882   2.490  37.335   5.803
 5230POPC   C1A65883   2.858  37.906   6.077
 5230POPC   D2A65884   3.165  37.933   6.443
 5230POPC   C3A65885   2.962  37.932   6.834
 5230POPC   C4A65886   2.940  38.013   7.269
 5230POPC   C1B65887   2.499  37.564   6.189
 5230POPC   C2B65888   2.688  37.583   6.577
 5230POPC   C3B65889   2.597  37.554   7.024
 5230POPC   C4B65890   2.756  37.415   7.453
 5231POPC   NC365891  44.200  30.873   5.565
 5231POPC   PO465892  43.682  31.418   5.416
 5231POPC   GL165893  43.866  31.428   5.773
 5231POPC   GL265894  43.791  31.064   5.823
 5231POPC   C1A65895  43.864  31.674   6.150
 5231POPC   D2A65896  44.083  31.659   6.549
 5231POPC   C3A65897  43.854  31.516   6.929
 5231POPC   C4A65898  43.653  31.750   7.230
 5231POPC   C1B65899  44.046  31.164   6.167
 5231POPC   C2B65900  43.903  31.166   6.549
 5231POPC   C3B65901  44.036  31.011   6.901
 5231POPC   C4B65902  43.942  31.106   7.319
 5232POPC   NC365903  19.793  37.327   5.280
 5232POPC   PO465904  20.211  37.807   5.251
 5232POPC   GL165905  20.145  37.615   5.679
 5232POPC   GL265906  19.774  37.598   5.737
 5232POPC   C1A65907  20.033  37.735   6.153
 5232POPC   D2A65908  19.814  37.554   6.531
 5232POPC   C3A65909  19.975  37.607   6.965
 5232POPC   C4A65910  19.777  37.586   7.373
 5232POPC   C1B65911  19.510  37.736   6.131
 5232POPC   C2B65912  19.370  37.901   6.569
 5232POPC   C3B65913  19.483  38.046   7.038
 5232POPC   C4B65914  19.612  38.043   7.542
 5233POPC   NC365915  44.918   1.014   5.481
 5233POPC   PO465916  44.297   1.222   5.190
 5233POPC   GL165917  44.402   1.253   5.678
 5233POPC   GL265918  44.718   1.208   5.902
 5233POPC   C1A65919  44.315   1.402   6.126
 5233POPC   D2A65920  44.565   1.304   6.493
 5233POPC   C3A65921  44.517   1.500   6.879
 5233POPC   C4A65922  44.348   1.345   7.242
 5233POPC   C1B65923  44.986   1.186   6.266
 5233POPC   C2B65924   0.061   1.186   6.712
 5233POPC   C3B65925  44.877   1.219   7.119
 5233POPC   C4B65926  44.818   1.567   7.342
 5234POPC   NC365927  13.244  34.404   5.557
 5234POPC   PO465928  12.800  34.817   5.247
 5234POPC   GL165929  12.853  34.755   5.749
 5234POPC   GL265930  12.810  34.418   5.801
 5234POPC   C1A65931  12.982  34.918   6.191
 5234POPC   D2A65932  13.169  34.697   6.552
 5234POPC   C3A65933  12.989  34.767   6.934
 5234POPC   C4A65934  13.174  34.852   7.291
 5234POPC   C1B65935  12.888  34.429   6.217
 5234POPC   C2B65936  12.791  34.343   6.631
 5234POPC   C3B65937  12.541  34.536   6.956
 5234POPC   C4B65938  12.723  34.461   7.300
 5235POPC   NC365939  35.387  14.242   5.171
 5235POPC   PO465940  35.156  14.732   5.503
 5235POPC   GL165941  35.348  14.474   5.770
 5235POPC   GL265942  35.312  14.127   5.660
 5235POPC   C1A65943  35.161  14.487   6.173
 5235POPC   D2A65944  34.958  14.560   6.564
 5235POPC   C3A65945  35.122  14.423   6.937
 5235POPC   C4A65946  35.027  14.500   7.357
 5235POPC   C1B65947  35.338  14.009   6.090
 5235POPC   C2B65948  35.243  14.102   6.516
 5235POPC   C3B65949  35.519  14.090   6.875
 5235POPC   C4B65950  35.420  14.182   7.305
 5236POPC   NC365951   4.327  34.114   5.322
 5236POPC   PO465952   4.361  33.505   5.406
 5236POPC   GL165953   4.176  33.711   5.709
 5236POPC   GL265954   3.949  33.479   5.823
 5236POPC   C1A65955   4.268  34.012   6.003
 5236POPC   D2A65956   4.351  34.005   6.430
 5236POPC   C3A65957   4.303  34.105   6.842
 5236POPC   C4A65958   4.362  33.959   7.224
 5236POPC   C1B65959   4.022  33.649   6.245
 5236POPC   C2B65960   3.983  33.722   6.656
 5236POPC   C3B65961   4.246  33.555   6.945
 5236POPC   C4B65962   4.135  33.493   7.373
 5237POPC   NC365963   5.875  22.444   5.567
 5237POPC   PO465964   5.701  21.840   5.418
 5237POPC   GL165965   5.746  22.026   5.829
 5237POPC   GL265966   6.099  22.106   5.884
 5237POPC   C1A65967   5.745  22.035   6.271
 5237POPC   D2A65968   5.929  21.852   6.626
 5237POPC   C3A65969   5.695  21.764   6.962
 5237POPC   C4A65970   5.543  21.995   7.264
 5237POPC   C1B65971   6.120  22.400   6.243
 5237POPC   C2B65972   5.891  22.470   6.626
 5237POPC   C3B65973   5.921  22.260   7.020
 5237POPC   C4B65974   6.221  21.928   7.083
 5238POPC   NC365975  24.117  10.360   5.096
 5238POPC   PO465976  24.739  10.544   5.243
 5238POPC   GL165977  24.434  10.485   5.630
 5238POPC   GL265978  24.687  10.410   5.806
 5238POPC   C1A65979  24.316  10.607   6.100
 5238POPC   D2A65980  24.061  10.717   6.464
 5238POPC   C3A65981  24.282  10.654   6.819
 5238POPC   C4A65982  24.219  10.625   7.240
 5238POPC   C1B65983  24.783  10.381   6.228
 5238POPC   C2B65984  24.620  10.324   6.621
 5238POPC   C3B65985  24.794  10.203   6.985
 5238POPC   C4B65986  24.992  10.588   7.051
 5239POPC   NC365987   0.593  34.914   5.512
 5239POPC   PO465988   0.234  35.487   5.330
 5239POPC   GL165989   0.362  35.495   5.777
 5239POPC   GL265990   0.686  35.595   5.877
 5239POPC   C1A65991   0.221  35.512   6.216
 5239POPC   D2A65992   0.339  35.290   6.587
 5239POPC   C3A65993   0.432  35.487   6.964
 5239POPC   C4A65994   0.465  35.202   7.269
 5239POPC   C1B65995   0.732  35.343   6.222
 5239POPC   C2B65996   0.933  35.352   6.608
 5239POPC   C3B65997   0.923  35.282   7.053
 5239POPC   C4B65998   0.866  35.416   7.503
 5240POPC   NC365999  33.264  19.531   5.390
 5240POPC   PO466000  32.868  20.042   5.441
 5240POPC   GL166001  33.092  19.835   5.794
 5240POPC   GL266002  32.892  19.565   5.811
 5240POPC   C1A66003  33.128  19.713   6.271
 5240POPC   D2A66004  33.118  19.645   6.744
 5240POPC   C3A66005  32.990  19.929   7.099
 5240POPC   C4A66006  33.185  19.942   7.539
 5240POPC   C1B66007  32.692  19.460   6.238
 5240POPC   C2B66008  32.593  19.578   6.677
 5240POPC   C3B66009  32.765  19.449   7.087
 5240POPC   C4B66010  32.832  19.599   7.522
 5241POPC   NC366011  33.581   4.454   5.335
 5241POPC   PO466012  34.158   4.032   5.421
 5241POPC   GL166013  33.960   4.358   5.715
 5241POPC   GL266014  33.583   4.284   5.808
 5241POPC   C1A66015  33.937   4.421   6.178
 5241POPC   D2A66016  33.723   4.426   6.582
 5241POPC   C3A66017  33.976   4.393   6.954
 5241POPC   C4A66018  33.837   4.564   7.330
 5241POPC   C1B66019  33.572   4.061   6.195
 5241POPC   C2B66020  33.807   3.931   6.527
 5241POPC   C3B66021  33.722   3.954   6.943
 5241POPC   C4B66022  33.338   3.858   7.109
 5242POPC   NC366023   2.823  34.284   5.579
 5242POPC   PO466024   2.705  33.570   5.470
 5242POPC   GL166025   2.658  33.817   5.820
 5242POPC   GL266026   3.020  33.867   5.853
 5242POPC   C1A66027   2.722  33.707   6.253
 5242POPC   D2A66028   3.024  33.748   6.558
 5242POPC   C3A66029   2.872  33.545   6.891
 5242POPC   C4A66030   2.638  33.696   7.230
 5242POPC   C1B66031   3.135  34.122   6.218
 5242POPC   C2B66032   3.056  34.253   6.670
 5242POPC   C3B66033   3.043  34.011   7.064
 5242POPC   C4B66034   3.383  33.737   7.241
 5243POPC   NC366035  26.837  39.910   5.202
 5243POPC   PO466036  26.690  39.610   5.730
 5243POPC   GL166037  26.904  40.012   5.845
 5243POPC   GL266038  26.993  40.324   5.617
 5243POPC   C1A66039  26.980  40.086   6.280
 5243POPC   D2A66040  27.108  40.050   6.704
 5243POPC   C3A66041  26.820  39.884   7.026
 5243POPC   C4A66042  26.580  39.620   7.320
 5243POPC   C1B66043  26.776  40.501   6.009
 5243POPC   C2B66044  26.746  40.494   6.476
 5243POPC   C3B66045  26.817  40.443   6.926
 5243POPC   C4B66046  26.742  40.279   7.339
 5244POPC   NC366047  24.619  34.179   5.506
 5244POPC   PO466048  24.287  34.783   5.577
 5244POPC   GL166049  24.476  34.539   5.871
 5244POPC   GL266050  24.279  34.255   5.869
 5244POPC   C1A66051  24.684  34.458   6.284
 5244POPC   D2A66052  24.730  34.184   6.633
 5244POPC   C3A66053  24.956  34.343   6.974
 5244POPC   C4A66054  24.671  34.426   7.300
 5244POPC   C1B66055  24.172  34.415   6.270
 5244POPC   C2B66056  24.211  34.270   6.687
 5244POPC   C3B66057  24.052  34.522   7.005
 5244POPC   C4B66058  24.236  34.686   7.339
 5245POPC   NC366059   3.851  23.992   5.482
 5245POPC   PO466060   4.519  23.832   5.302
 5245POPC   GL166061   4.264  23.639   5.698
 5245POPC   GL266062   4.031  23.801   5.941
 5245POPC   C1A66063   4.314  23.365   6.090
 5245POPC   D2A66064   4.286  23.221   6.544
 5245POPC   C3A66065   4.406  23.400   6.957
 5245POPC   C4A66066   4.230  23.748   7.214
 5245POPC   C1B66067   4.415  23.841   6.232
 5245POPC   C2B66068   4.504  24.130   6.588
 5245POPC   C3B66069   4.596  24.055   7.034
 5245POPC   C4B66070   4.421  24.121   7.501
 5246POPC   NC366071  12.598  29.362   5.475
 5246POPC   PO466072  13.163  28.977   5.358
 5246POPC   GL166073  12.886  29.029   5.732
 5246POPC   GL266074  12.917  29.382   5.877
 5246POPC   C1A66075  12.757  28.984   6.172
 5246POPC   D2A66076  12.890  29.173   6.566
 5246POPC   C3A66077  12.902  28.863   6.911
 5246POPC   C4A66078  13.132  28.959   7.264
 5246POPC   C1B66079  12.569  29.504   6.156
 5246POPC   C2B66080  12.450  29.443   6.582
 5246POPC   C3B66081  12.521  29.203   6.951
 5246POPC   C4B66082  12.791  29.335   7.252
 5247POPC   NC366083  26.540  22.746   5.761
 5247POPC   PO466084  26.453  23.412   5.500
 5247POPC   GL166085  26.729  23.229   5.851
 5247POPC   GL266086  27.025  22.956   5.830
 5247POPC   C1A66087  26.707  23.095   6.294
 5247POPC   D2A66088  26.618  22.735   6.563
 5247POPC   C3A66089  26.664  22.823   6.988
 5247POPC   C4A66090  26.733  23.160   7.302
 5247POPC   C1B66091  27.032  22.686   6.227
 5247POPC   C2B66092  27.115  22.858   6.637
 5247POPC   C3B66093  27.152  23.048   7.041
 5247POPC   C4B66094  27.008  22.751   7.363
 5248POPC   NC366095  34.349  10.663   5.471
 5248POPC   PO466096  35.023  10.660   5.180
 5248POPC   GL166097  34.918  10.644   5.679
 5248POPC   GL266098  34.641  10.444   5.838
 5248POPC   C1A66099  34.803  10.827   6.132
 5248POPC   D2A66100  34.522  10.748   6.494
 5248POPC   C3A66101  34.704  10.607   6.869
 5248POPC   C4A66102  34.488  10.632   7.248
 5248POPC   C1B66103  34.429  10.306   6.242
 5248POPC   C2B66104  34.327  10.281   6.707
 5248POPC   C3B66105  34.382  10.114   7.133
 5248POPC   C4B66106  34.474   9.991   7.559
 5249POPC   NC366107  27.070   2.611   5.641
 5249POPC   PO466108  26.566   2.958   5.407
 5249POPC   GL166109  26.625   2.823   5.867
 5249POPC   GL266110  26.500   2.505   5.890
 5249POPC   C1A66111  26.863   2.763   6.291
 5249POPC   D2A66112  27.114   2.902   6.668
 5249POPC   C3A66113  26.934   2.861   7.078
 5249POPC   C4A66114  26.611   3.062   7.308
 5249POPC   C1B66115  26.400   2.513   6.333
 5249POPC   C2B66116  26.608   2.621   6.733
 5249POPC   C3B66117  26.514   2.593   7.195
 5249POPC   C4B66118  26.334   2.438   7.578
 5250POPC   NC366119  13.727  33.802   5.476
 5250POPC   PO466120  13.116  33.941   5.611
 5250POPC   GL166121  13.381  33.684   5.891
 5250POPC   GL266122  13.743  33.562   5.933
 5250POPC   C1A66123  13.397  33.694   6.327
 5250POPC   D2A66124  13.651  33.729   6.667
 5250POPC   C3A66125  13.405  33.720   7.045
 5250POPC   C4A66126  13.487  34.028   7.321
 5250POPC   C1B66127  13.803  33.973   6.169
 5250POPC   C2B66128  13.923  34.203   6.555
 5250POPC   C3B66129  13.851  34.121   6.979
 5250POPC   C4B66130  13.913  33.706   7.110
 5251POPC   NC366131   6.148  32.639   5.428
 5251POPC   PO466132   5.469  32.407   5.437
 5251POPC   GL166133   5.679  32.304   5.845
 5251POPC   GL266134   6.039  32.288   5.812
 5251POPC   C1A66135   5.829  32.038   6.208
 5251POPC   D2A66136   5.775  32.150   6.649
 5251POPC   C3A66137   6.122  32.112   6.953
 5251POPC   C4A66138   5.846  32.340   7.233
 5251POPC   C1B66139   6.101  32.480   6.231
 5251POPC   C2B66140   6.294  32.496   6.653
 5251POPC   C3B66141   6.265  32.601   7.116
 5251POPC   C4B66142   6.239  32.506   7.586
 5252POPC   NC366143  29.975  11.443   5.243
 5252POPC   PO466144  29.585  11.054   5.636
 5252POPC   GL166145  29.990  11.268   5.750
 5252POPC   GL266146  30.243  11.103   6.008
 5252POPC   C1A66147  30.125  11.587   6.076
 5252POPC   D2A66148  30.255  11.368   6.476
 5252POPC   C3A66149  29.993  11.377   6.857
 5252POPC   C4A66150  30.097  11.259   7.281
 5252POPC   C1B66151  29.828  11.190   6.230
 5252POPC   C2B66152  29.520  11.069   6.523
 5252POPC   C3B66153  29.608  11.011   6.947
 5252POPC   C4B66154  29.577  11.322   7.261
 5253POPC   NC366155   5.869   5.346   5.400
 5253POPC   PO466156   5.495   4.798   5.493
 5253POPC   GL166157   5.730   5.029   5.824
 5253POPC   GL266158   5.793   5.402   5.911
 5253POPC   C1A66159   5.626   4.995   6.258
 5253POPC   D2A66160   5.948   4.833   6.546
 5253POPC   C3A66161   5.960   4.972   6.952
 5253POPC   C4A66162   5.666   5.293   7.124
 5253POPC   C1B66163   6.089   5.218   6.220
 5253POPC   C2B66164   6.274   5.308   6.635
 5253POPC   C3B66165   6.222   5.384   7.079
 5253POPC   C4B66166   6.057   5.138   7.445
 5254POPC   NC366167  44.981  16.648   5.396
 5254POPC   PO466168  44.358  16.905   5.466
 5254POPC   GL166169  44.412  16.563   5.770
 5254POPC   GL266170  44.756  16.672   5.844
 5254POPC   C1A66171  44.525  16.460   6.227
 5254POPC   D2A66172  44.767  16.623   6.582
 5254POPC   C3A66173  44.554  16.718   6.976
 5254POPC   C4A66174  44.333  17.130   7.075
 5254POPC   C1B66175   0.047  16.442   6.116
 5254POPC   C2B66176   0.183  16.340   6.566
 5254POPC   C3B66177   0.122  16.553   6.970
 5254POPC   C4B66178  44.947  16.570   7.364
 5255POPC   NC366179  15.726  26.793   5.323
 5255POPC   PO466180  16.303  26.646   5.272
 5255POPC   GL166181  16.079  26.765   5.714
 5255POPC   GL266182  15.717  26.723   5.829
 5255POPC   C1A66183  16.001  26.951   6.183
 5255POPC   D2A66184  15.995  26.763   6.602
 5255POPC   C3A66185  16.003  26.953   6.977
 5255POPC   C4A66186  16.183  26.845   7.358
 5255POPC   C1B66187  15.524  26.467   6.123
 5255POPC   C2B66188  15.508  26.658   6.500
 5255POPC   C3B66189  15.627  26.574   6.908
 5255POPC   C4B66190  15.641  26.790   7.302
 5256POPC   NC366191  16.819  19.732   5.507
 5256POPC   PO466192  16.403  20.188   5.314
 5256POPC   GL166193  16.462  20.015   5.780
 5256POPC   GL266194  16.849  20.035   5.900
 5256POPC   C1A66195  16.495  20.119   6.247
 5256POPC   D2A66196  16.867  19.988   6.529
 5256POPC   C3A66197  16.691  19.798   6.895
 5256POPC   C4A66198  16.525  20.084   7.201
 5256POPC   C1B66199  16.764  19.645   6.171
 5256POPC   C2B66200  16.951  19.463   6.564
 5256POPC   C3B66201  16.912  19.297   6.996
 5256POPC   C4B66202  17.137  19.474   7.334
 5257POPC   NC366203  23.871  31.772   5.721
 5257POPC   PO466204  23.343  31.368   5.466
 5257POPC   GL166205  23.555  31.380   5.872
 5257POPC   GL266206  23.756  31.103   5.985
 5257POPC   C1A66207  23.475  31.575   6.263
 5257POPC   D2A66208  23.756  31.795   6.540
 5257POPC   C3A66209  23.807  31.664   6.929
 5257POPC   C4A66210  23.639  31.822   7.275
 5257POPC   C1B66211  23.971  31.389   6.270
 5257POPC   C2B66212  24.181  31.404   6.657
 5257POPC   C3B66213  23.995  31.201   6.980
 5257POPC   C4B66214  23.849  31.349   7.366
 5258POPC   NC366215  28.971  15.864   5.418
 5258POPC   PO466216  29.214  16.537   5.441
 5258POPC   GL166217  29.218  16.166   5.763
 5258POPC   GL266218  29.313  15.799   5.807
 5258POPC   C1A66219  29.099  16.040   6.196
 5258POPC   D2A66220  29.284  16.093   6.590
 5258POPC   C3A66221  29.009  16.068   6.904
 5258POPC   C4A66222  28.923  16.036   7.313
 5258POPC   C1B66223  29.353  15.594   6.231
 5258POPC   C2B66224  29.479  15.618   6.703
 5258POPC   C3B66225  29.561  15.937   7.053
 5258POPC   C4B66226  29.411  15.987   7.501
 5259POPC   NC366227  37.238   1.669   5.125
 5259POPC   PO466228  36.768   1.392   5.570
 5259POPC   GL166229  37.001   1.114   5.864
 5259POPC   GL266230  36.832   0.792   5.912
 5259POPC   C1A66231  37.132   1.247   6.265
 5259POPC   D2A66232  37.211   1.499   6.600
 5259POPC   C3A66233  36.988   1.422   6.968
 5259POPC   C4A66234  37.201   1.382   7.317
 5259POPC   C1B66235  36.896   0.823   6.371
 5259POPC   C2B66236  37.137   0.956   6.742
 5259POPC   C3B66237  37.047   0.923   7.189
 5259POPC   C4B66238  36.733   1.026   7.505
 5260POPC   NC366239   7.029  16.418   5.590
 5260POPC   PO466240   6.600  16.815   5.158
 5260POPC   GL166241   6.694  16.795   5.669
 5260POPC   GL266242   6.493  16.979   5.865
 5260POPC   C1A66243   6.735  16.679   6.170
 5260POPC   D2A66244   6.651  16.579   6.631
 5260POPC   C3A66245   6.448  16.351   6.961
 5260POPC   C4A66246   6.590  16.571   7.313
 5260POPC   C1B66247   6.333  17.135   6.243
 5260POPC   C2B66248   6.301  16.988   6.651
 5260POPC   C3B66249   6.218  16.822   7.046
 5260POPC   C4B66250   6.272  17.126   7.366
 5261POPC   NC366251  36.238  12.512   5.634
 5261POPC   PO466252  36.220  13.128   5.328
 5261POPC   GL166253  36.016  12.958   5.755
 5261POPC   GL266254  35.787  12.699   5.899
 5261POPC   C1A66255  36.197  12.821   6.197
 5261POPC   D2A66256  36.358  13.029   6.540
 5261POPC   C3A66257  36.381  12.839   6.929
 5261POPC   C4A66258  36.089  12.818   7.255
 5261POPC   C1B66259  35.761  12.591   6.346
 5261POPC   C2B66260  35.955  12.606   6.770
 5261POPC   C3B66261  35.849  12.381   7.183
 5261POPC   C4B66262  35.822  12.611   7.631
 5262POPC   NC366263  25.561  20.021   5.116
 5262POPC   PO466264  25.232  20.639   5.163
 5262POPC   GL166265  25.256  20.653   5.610
 5262POPC   GL266266  24.900  20.546   5.624
 5262POPC   C1A66267  25.494  20.740   6.014
 5262POPC   D2A66268  25.367  20.696   6.416
 5262POPC   C3A66269  25.479  20.849   6.802
 5262POPC   C4A66270  25.490  20.876   7.215
 5262POPC   C1B66271  24.979  20.661   6.077
 5262POPC   C2B66272  24.917  20.838   6.551
 5262POPC   C3B66273  25.038  20.621   6.943
 5262POPC   C4B66274  25.007  20.721   7.389
 5263POPC   NC366275   9.214  41.676   5.592
 5263POPC   PO466276   8.592  41.378   5.359
 5263POPC   GL166277   8.783  41.468   5.771
 5263POPC   GL266278   8.825  41.177   5.955
 5263POPC   C1A66279   8.858  41.772   6.124
 5263POPC   D2A66280   9.138  41.803   6.475
 5263POPC   C3A66281   9.015  41.785   6.892
 5263POPC   C4A66282   8.968  41.995   7.302
 5263POPC   C1B66283   9.143  41.363   6.210
 5263POPC   C2B66284   9.034  41.282   6.609
 5263POPC   C3B66285   9.187  41.235   7.007
 5263POPC   C4B66286   9.187  41.535   7.302
 5264POPC   NC366287   9.953   4.929   5.576
 5264POPC   PO466288   9.415   5.197   5.260
 5264POPC   GL166289   9.530   5.006   5.798
 5264POPC   GL266290   9.821   5.248   5.953
 5264POPC   C1A66291   9.513   5.038   6.279
 5264POPC   D2A66292   9.779   5.146   6.620
 5264POPC   C3A66293   9.688   4.844   6.936
 5264POPC   C4A66294   9.420   4.922   7.298
 5264POPC   C1B66295  10.106   4.981   6.226
 5264POPC   C2B66296  10.171   4.800   6.652
 5264POPC   C3B66297  10.139   5.108   7.011
 5264POPC   C4B66298   9.734   5.327   7.123
 5265POPC   NC366299  20.284   7.018   5.546
 5265POPC   PO466300  20.615   6.378   5.430
 5265POPC   GL166301  20.624   6.623   5.791
 5265POPC   GL266302  20.314   6.525   5.900
 5265POPC   C1A66303  20.600   6.759   6.250
 5265POPC   D2A66304  20.536   6.614   6.679
 5265POPC   C3A66305  20.711   6.973   6.916
 5265POPC   C4A66306  20.974   6.912   7.269
 5265POPC   C1B66307  20.505   6.259   6.239
 5265POPC   C2B66308  20.328   6.117   6.634
 5265POPC   C3B66309  20.256   6.341   7.027
 5265POPC   C4B66310  20.573   6.600   7.228
 5266POPC   NC366311  26.463  18.129   5.544
 5266POPC   PO466312  27.048  18.467   5.443
 5266POPC   GL166313  26.870  18.275   5.843
 5266POPC   GL266314  26.821  17.890   5.867
 5266POPC   C1A66315  26.615  18.246   6.248
 5266POPC   D2A66316  26.650  18.034   6.675
 5266POPC   C3A66317  26.589  18.306   7.050
 5266POPC   C4A66318  26.794  18.383   7.474
 5266POPC   C1B66319  27.049  17.966   6.277
 5266POPC   C2B66320  27.160  18.179   6.675
 5266POPC   C3B66321  27.075  18.168   7.110
 5266POPC   C4B66322  26.742  17.875   7.286
 5267POPC   NC366323   4.855  10.735   5.528
 5267POPC   PO466324   4.935  10.095   5.741
 5267POPC   GL166325   5.316  10.346   5.890
 5267POPC   GL266326   5.269  10.709   5.850
 5267POPC   C1A66327   5.300  10.420   6.337
 5267POPC   D2A66328   4.872  10.278   6.483
 5267POPC   C3A66329   4.832  10.116   6.884
 5267POPC   C4A66330   5.103  10.235   7.202
 5267POPC   C1B66331   5.093  10.893   6.231
 5267POPC   C2B66332   5.269  10.912   6.655
 5267POPC   C3B66333   5.136  10.688   7.019
 5267POPC   C4B66334   4.993  10.649   7.489
 5268POPC   NC366335  14.131   9.882   5.482
 5268POPC   PO466336  14.690  10.173   5.603
 5268POPC   GL166337  14.632   9.889   5.946
 5268POPC   GL266338  14.384   9.647   5.850
 5268POPC   C1A66339  14.667   9.800   6.386
 5268POPC   D2A66340  14.618  10.076   6.719
 5268POPC   C3A66341  14.369   9.895   6.993
 5268POPC   C4A66342  14.373   9.940   7.403
 5268POPC   C1B66343  14.210   9.428   6.177
 5268POPC   C2B66344  14.201   9.598   6.573
 5268POPC   C3B66345  14.206   9.418   6.958
 5268POPC   C4B66346  14.429   9.455   7.314
 5269POPC   NC366347  29.343  30.273   5.483
 5269POPC   PO466348  29.087  29.732   5.067
 5269POPC   GL166349  29.169  29.750   5.605
 5269POPC   GL266350  29.452  29.920   5.811
 5269POPC   C1A66351  29.160  29.670   6.124
 5269POPC   D2A66352  29.368  29.743   6.553
 5269POPC   C3A66353  29.159  29.717   6.966
 5269POPC   C4A66354  28.947  29.755   7.363
 5269POPC   C1B66355  29.392  30.167   6.214
 5269POPC   C2B66356  29.220  30.339   6.592
 5269POPC   C3B66357  29.386  30.194   6.950
 5269POPC   C4B66358  29.395  30.026   7.381
 5270POPC   NC366359   4.231  18.541   5.575
 5270POPC   PO466360   3.993  19.126   5.195
 5270POPC   GL166361   4.096  19.195   5.672
 5270POPC   GL266362   3.985  18.916   5.793
 5270POPC   C1A66363   4.299  19.083   6.147
 5270POPC   D2A66364   4.514  19.198   6.597
 5270POPC   C3A66365   4.387  19.034   7.010
 5270POPC   C4A66366   4.005  19.101   7.244
 5270POPC   C1B66367   3.974  18.684   6.185
 5270POPC   C2B66368   4.126  18.808   6.595
 5270POPC   C3B66369   4.033  18.645   7.013
 5270POPC   C4B66370   3.956  18.596   7.473
 5271POPC   NC366371   3.865  34.977   5.117
 5271POPC   PO466372   4.392  35.120   5.481
 5271POPC   GL166373   4.183  35.246   5.848
 5271POPC   GL266374   4.467  35.432   5.891
 5271POPC   C1A66375   3.919  35.149   6.205
 5271POPC   D2A66376   3.841  35.360   6.591
 5271POPC   C3A66377   3.896  35.107   6.981
 5271POPC   C4A66378   4.262  35.043   7.241
 5271POPC   C1B66379   4.284  35.504   6.302
 5271POPC   C2B66380   4.249  35.746   6.663
 5271POPC   C3B66381   4.187  35.522   7.022
 5271POPC   C4B66382   4.213  35.506   7.449
 5272POPC   NC366383  30.969   1.293   5.216
 5272POPC   PO466384  30.547   0.850   5.470
 5272POPC   GL166385  30.724   1.162   5.784
 5272POPC   GL266386  31.024   1.398   5.721
 5272POPC   C1A66387  30.663   1.336   6.204
 5272POPC   D2A66388  30.390   1.321   6.561
 5272POPC   C3A66389  30.566   1.388   6.957
 5272POPC   C4A66390  30.777   1.114   7.260
 5272POPC   C1B66391  31.121   1.541   6.157
 5272POPC   C2B66392  30.929   1.542   6.609
 5272POPC   C3B66393  31.054   1.494   7.054
 5272POPC   C4B66394  30.822   1.596   7.447
 5273POPC   NC366395  27.298  36.039   5.433
 5273POPC   PO466396  27.749  36.579   5.512
 5273POPC   GL166397  27.499  36.338   5.810
 5273POPC   GL266398  27.662  36.036   5.809
 5273POPC   C1A66399  27.378  36.144   6.248
 5273POPC   D2A66400  27.326  36.004   6.722
 5273POPC   C3A66401  27.496  36.272   7.114
 5273POPC   C4A66402  27.543  36.455   7.583
 5273POPC   C1B66403  27.917  35.805   6.103
 5273POPC   C2B66404  27.818  35.694   6.516
 5273POPC   C3B66405  27.816  35.899   6.904
 5273POPC   C4B66406  27.937  35.744   7.276
 5274POPC   NC366407  11.520  39.069   5.496
 5274POPC   PO466408  10.822  39.281   5.652
 5274POPC   GL166409  11.201  39.245   5.889
 5274POPC   GL266410  11.544  39.369   5.917
 5274POPC   C1A66411  11.201  39.345   6.303
 5274POPC   D2A66412  11.185  39.230   6.697
 5274POPC   C3A66413  10.955  39.400   6.962
 5274POPC   C4A66414  11.304  39.292   7.250
 5274POPC   C1B66415  11.600  38.978   6.163
 5274POPC   C2B66416  11.691  38.843   6.575
 5274POPC   C3B66417  11.465  38.883   6.965
 5274POPC   C4B66418  11.665  38.885   7.378
 5275POPC   NC366419   1.668   1.828   4.812
 5275POPC   PO466420   2.027   2.071   5.396
 5275POPC   GL166421   2.136   1.943   5.807
 5275POPC   GL266422   1.827   2.023   5.898
 5275POPC   C1A66423   2.221   2.107   6.225
 5275POPC   D2A66424   1.974   1.979   6.568
 5275POPC   C3A66425   2.166   2.051   6.957
 5275POPC   C4A66426   2.212   1.814   7.338
 5275POPC   C1B66427   1.699   1.696   6.171
 5275POPC   C2B66428   1.748   1.483   6.558
 5275POPC   C3B66429   1.813   1.678   6.955
 5275POPC   C4B66430   1.678   2.040   7.191
 5276POPC   NC366431  30.177  17.561   5.434
 5276POPC   PO466432  29.619  17.995   5.582
 5276POPC   GL166433  29.943  17.824   5.828
 5276POPC   GL266434  29.849  17.459   5.855
 5276POPC   C1A66435  30.217  17.669   6.158
 5276POPC   D2A66436  30.161  17.492   6.596
 5276POPC   C3A66437  30.042  17.738   6.968
 5276POPC   C4A66438  29.975  17.785   7.428
 5276POPC   C1B66439  29.734  17.623   6.288
 5276POPC   C2B66440  29.647  17.462   6.699
 5276POPC   C3B66441  29.878  17.268   7.032
 5276POPC   C4B66442  29.792  17.333   7.418
 5277POPC   NC366443   9.289  28.043   5.658
 5277POPC   PO466444   9.252  28.700   5.550
 5277POPC   GL166445   9.421  28.431   5.929
 5277POPC   GL266446   9.746  28.221   5.886
 5277POPC   C1A66447   9.576  28.350   6.355
 5277POPC   D2A66448   9.903  28.563   6.550
 5277POPC   C3A66449   9.733  28.646   6.957
 5277POPC   C4A66450   9.477  28.387   7.221
 5277POPC   C1B66451  10.011  28.094   6.265
 5277POPC   C2B66452   9.928  28.075   6.742
 5277POPC   C3B66453   9.948  28.147   7.222
 5277POPC   C4B66454  10.185  28.004   7.589
 5278POPC   NC366455  41.543   8.401   5.472
 5278POPC   PO466456  42.108   8.009   5.424
 5278POPC   GL166457  41.707   8.019   5.790
 5278POPC   GL266458  41.375   8.210   5.901
 5278POPC   C1A66459  41.459   7.774   6.125
 5278POPC   D2A66460  41.601   7.774   6.533
 5278POPC   C3A66461  41.562   8.123   6.797
 5278POPC   C4A66462  41.230   8.030   7.086
 5278POPC   C1B66463  41.310   8.396   6.325
 5278POPC   C2B66464  41.280   8.563   6.753
 5278POPC   C3B66465  41.277   8.514   7.228
 5278POPC   C4B66466  41.337   8.420   7.695
 5279POPC   NC366467  11.737   6.679   5.143
 5279POPC   PO466468  11.067   6.650   5.292
 5279POPC   GL166469  11.262   6.596   5.706
 5279POPC   GL266470  11.284   6.270   5.810
 5279POPC   C1A66471  11.345   6.696   6.161
 5279POPC   D2A66472  11.492   6.898   6.552
 5279POPC   C3A66473  11.377   6.779   6.981
 5279POPC   C4A66474  11.535   6.911   7.377
 5279POPC   C1B66475  11.127   6.239   6.257
 5279POPC   C2B66476  11.178   6.368   6.725
 5279POPC   C3B66477  11.090   6.347   7.203
 5279POPC   C4B66478  11.147   6.194   7.703
 5280POPC   NC366479  18.735  31.226   5.312
 5280POPC   PO466480  19.304  31.496   5.227
 5280POPC   GL166481  19.117  31.369   5.692
 5280POPC   GL266482  19.368  31.215   5.903
 5280POPC   C1A66483  18.903  31.409   6.117
 5280POPC   D2A66484  19.059  31.636   6.501
 5280POPC   C3A66485  18.941  31.501   6.917
 5280POPC   C4A66486  18.940  31.565   7.352
 5280POPC   C1B66487  19.351  31.246   6.343
 5280POPC   C2B66488  19.381  31.302   6.764
 5280POPC   C3B66489  19.426  31.611   7.059
 5280POPC   C4B66490  19.452  31.618   7.478
 5281POPC   NC366491   3.625   4.665   5.497
 5281POPC   PO466492   3.328   4.011   5.506
 5281POPC   GL166493   3.610   4.092   5.844
 5281POPC   GL266494   3.819   4.398   5.878
 5281POPC   C1A66495   3.505   4.230   6.246
 5281POPC   D2A66496   3.352   4.426   6.605
 5281POPC   C3A66497   3.460   4.125   6.893
 5281POPC   C4A66498   3.610   4.087   7.280
 5281POPC   C1B66499   3.982   4.472   6.299
 5281POPC   C2B66500   3.866   4.509   6.746
 5281POPC   C3B66501   3.967   4.440   7.162
 5281POPC   C4B66502   3.810   4.544   7.553
 5282POPC   NC366503  27.262  19.583   5.396
 5282POPC   PO466504  27.585  20.190   5.571
 5282POPC   GL166505  27.569  19.786   5.782
 5282POPC   GL266506  27.279  19.849   5.863
 5282POPC   C1A66507  27.623  19.545   6.155
 5282POPC   D2A66508  27.839  19.341   6.514
 5282POPC   C3A66509  27.733  19.526   6.898
 5282POPC   C4A66510  27.392  19.456   7.184
 5282POPC   C1B66511  27.464  20.062   6.213
 5282POPC   C2B66512  27.451  19.849   6.568
 5282POPC   C3B66513  27.391  19.909   6.964
 5282POPC   C4B66514  27.693  20.016   7.257
 5283POPC   NC366515  31.358  37.794   5.384
 5283POPC   PO466516  31.890  37.729   5.696
 5283POPC   GL166517  31.482  37.713   5.866
 5283POPC   GL266518  31.316  37.410   5.767
 5283POPC   C1A66519  31.338  37.756   6.267
 5283POPC   D2A66520  31.634  37.574   6.551
 5283POPC   C3A66521  31.505  37.659   6.952
 5283POPC   C4A66522  31.779  37.786   7.229
 5283POPC   C1B66523  31.430  37.270   6.168
 5283POPC   C2B66524  31.229  37.278   6.565
 5283POPC   C3B66525  31.372  37.168   6.973
 5283POPC   C4B66526  31.273  37.343   7.321
 5284POPC   NC366527   8.065  24.727   5.311
 5284POPC   PO466528   8.258  24.152   5.586
 5284POPC   GL166529   8.157  24.577   5.802
 5284POPC   GL266530   7.833  24.768   5.770
 5284POPC   C1A66531   8.334  24.736   6.207
 5284POPC   D2A66532   8.475  24.395   6.514
 5284POPC   C3A66533   8.514  24.529   6.944
 5284POPC   C4A66534   8.320  24.441   7.332
 5284POPC   C1B66535   7.828  24.664   6.219
 5284POPC   C2B66536   8.009  24.782   6.626
 5284POPC   C3B66537   8.038  24.755   7.069
 5284POPC   C4B66538   8.012  24.770   7.555
 5285POPC   NC366539  36.944  44.902   5.609
 5285POPC   PO466540  37.136  44.257   5.516
 5285POPC   GL166541  36.976  44.443   5.889
 5285POPC   GL266542  36.673  44.665   5.955
 5285POPC   C1A66543  36.963  44.473   6.333
 5285POPC   D2A66544  37.235  44.393   6.665
 5285POPC   C3A66545  37.033  44.581   6.982
 5285POPC   C4A66546  37.177  44.731   7.341
 5285POPC   C1B66547  36.526  44.965   6.270
 5285POPC   C2B66548  36.491  44.942   6.728
 5285POPC   C3B66549  36.702  44.947   7.150
 5285POPC   C4B66550  36.844   0.018   7.575
 5286POPC   NC366551  20.215  33.596   5.364
 5286POPC   PO466552  20.162  32.930   5.392
 5286POPC   GL166553  19.893  33.084   5.708
 5286POPC   GL266554  19.640  33.337   5.607
 5286POPC   C1A66555  19.928  33.124   6.134
 5286POPC   D2A66556  19.961  32.912   6.525
 5286POPC   C3A66557  20.030  33.163   6.873
 5286POPC   C4A66558  20.064  32.988   7.279
 5286POPC   C1B66559  19.556  33.456   6.054
 5286POPC   C2B66560  19.650  33.392   6.482
 5286POPC   C3B66561  19.502  33.419   6.861
 5286POPC   C4B66562  19.709  33.359   7.228
 5287POPC   NC366563  41.072  13.547   5.469
 5287POPC   PO466564  40.462  13.418   5.193
 5287POPC   GL166565  40.591  13.373   5.632
 5287POPC   GL266566  40.649  13.701   5.780
 5287POPC   C1A66567  40.815  13.303   6.059
 5287POPC   D2A66568  40.992  13.385   6.464
 5287POPC   C3A66569  41.033  13.783   6.651
 5287POPC   C4A66570  41.082  13.762   7.105
 5287POPC   C1B66571  40.651  13.761   6.250
 5287POPC   C2B66572  40.438  13.820   6.663
 5287POPC   C3B66573  40.350  13.714   7.107
 5287POPC   C4B66574  40.313  13.831   7.534
 5288POPC   NC366575  23.744  25.484   5.387
 5288POPC   PO466576  23.407  26.050   5.258
 5288POPC   GL166577  23.534  26.001   5.744
 5288POPC   GL266578  23.574  25.644   5.825
 5288POPC   C1A66579  23.706  26.148   6.202
 5288POPC   D2A66580  23.778  26.273   6.699
 5288POPC   C3A66581  23.494  26.284   7.090
 5288POPC   C4A66582  23.609  26.402   7.542
 5288POPC   C1B66583  23.866  25.568   6.173
 5288POPC   C2B66584  23.778  25.772   6.543
 5288POPC   C3B66585  23.628  25.811   6.932
 5288POPC   C4B66586  23.787  25.596   7.254
 5289POPC   NC366587  10.005  31.598   5.105
 5289POPC   PO466588   9.392  31.719   5.337
 5289POPC   GL166589   9.516  31.597   5.757
 5289POPC   GL266590   9.886  31.521   5.748
 5289POPC   C1A66591   9.564  31.364   6.147
 5289POPC   D2A66592   9.659  31.214   6.550
 5289POPC   C3A66593   9.477  31.443   6.874
 5289POPC   C4A66594   9.288  31.289   7.228
 5289POPC   C1B66595  10.067  31.482   6.155
 5289POPC   C2B66596  10.156  31.295   6.539
 5289POPC   C3B66597   9.997  31.372   6.916
 5289POPC   C4B66598   9.791  31.156   7.205
 5290POPC   NC366599  13.371  14.075   5.585
 5290POPC   PO466600  13.764  14.594   5.246
 5290POPC   GL166601  13.746  14.380   5.707
 5290POPC   GL266602  13.936  14.135   5.833
 5290POPC   C1A66603  13.515  14.353   6.148
 5290POPC   D2A66604  13.398  14.106   6.531
 5290POPC   C3A66605  13.459  14.301   6.945
 5290POPC   C4A66606  13.385  14.753   7.007
 5290POPC   C1B66607  14.010  14.406   6.203
 5290POPC   C2B66608  13.752  14.521   6.581
 5290POPC   C3B66609  13.868  14.640   7.018
 5290POPC   C4B66610  13.705  14.475   7.410
 5291POPC   NC366611  13.951  14.165   5.281
 5291POPC   PO466612  14.559  14.384   5.480
 5291POPC   GL166613  14.424  14.326   5.879
 5291POPC   GL266614  14.411  13.985   5.994
 5291POPC   C1A66615  14.516  14.394   6.317
 5291POPC   D2A66616  14.244  14.407   6.666
 5291POPC   C3A66617  14.382  14.527   7.043
 5291POPC   C4A66618  14.458  14.770   7.391
 5291POPC   C1B66619  14.085  13.887   6.279
 5291POPC   C2B66620  13.887  14.028   6.660
 5291POPC   C3B66621  14.000  14.159   7.064
 5291POPC   C4B66622  14.181  14.314   7.466
 5292POPC   NC366623  40.073  13.519   5.438
 5292POPC   PO466624  39.438  13.375   5.201
 5292POPC   GL166625  39.637  13.439   5.696
 5292POPC   GL266626  39.804  13.786   5.789
 5292POPC   C1A66627  39.712  13.457   6.183
 5292POPC   D2A66628  39.957  13.530   6.573
 5292POPC   C3A66629  39.773  13.436   6.965
 5292POPC   C4A66630  39.883  13.572   7.393
 5292POPC   C1B66631  40.016  13.890   6.207
 5292POPC   C2B66632  39.946  14.057   6.628
 5292POPC   C3B66633  39.902  13.968   7.053
 5292POPC   C4B66634  39.943  14.138   7.454
 5293POPC   NC366635  11.503  34.427   4.986
 5293POPC   PO466636  11.299  34.824   5.490
 5293POPC   GL166637  11.323  34.724   5.898
 5293POPC   GL266638  11.655  34.725   5.868
 5293POPC   C1A66639  11.346  34.554   6.324
 5293POPC   D2A66640  11.099  34.636   6.689
 5293POPC   C3A66641  11.206  34.567   7.115
 5293POPC   C4A66642  11.321  34.345   7.476
 5293POPC   C1B66643  11.668  34.942   6.251
 5293POPC   C2B66644  11.496  34.985   6.670
 5293POPC   C3B66645  11.586  34.938   7.119
 5293POPC   C4B66646  11.390  34.843   7.517
 5294POPC   NC366647   6.768  31.050   5.476
 5294POPC   PO466648   6.272  30.603   5.404
 5294POPC   GL166649   6.505  30.735   5.776
 5294POPC   GL266650   6.814  30.613   5.836
 5294POPC   C1A66651   6.474  30.791   6.223
 5294POPC   D2A66652   6.444  31.107   6.548
 5294POPC   C3A66653   6.377  30.852   6.883
 5294POPC   C4A66654   6.617  30.617   7.127
 5294POPC   C1B66655   6.986  30.623   6.250
 5294POPC   C2B66656   6.858  30.756   6.650
 5294POPC   C3B66657   7.069  30.848   7.031
 5294POPC   C4B66658   6.866  31.020   7.359
 5295POPC   NC366659  40.633  18.351   5.500
 5295POPC   PO466660  41.049  17.846   5.452
 5295POPC   GL166661  40.964  18.114   5.831
 5295POPC   GL266662  41.051  18.473   5.792
 5295POPC   C1A66663  40.958  18.243   6.285
 5295POPC   D2A66664  41.177  18.264   6.682
 5295POPC   C3A66665  40.968  18.001   6.973
 5295POPC   C4A66666  40.659  18.111   7.255
 5295POPC   C1B66667  40.734  18.664   6.074
 5295POPC   C2B66668  40.580  18.584   6.490
 5295POPC   C3B66669  40.760  18.532   6.890
 5295POPC   C4B66670  41.044  18.504   7.212
 5296POPC   NC366671   4.668  26.779   5.498
 5296POPC   PO466672   4.078  26.963   5.199
 5296POPC   GL166673   4.177  26.964   5.668
 5296POPC   GL266674   4.176  26.638   5.851
 5296POPC   C1A66675   4.285  27.107   6.129
 5296POPC   D2A66676   4.549  26.906   6.463
 5296POPC   C3A66677   4.480  26.821   6.908
 5296POPC   C4A66678   4.159  26.986   7.122
 5296POPC   C1B66679   3.963  26.713   6.247
 5296POPC   C2B66680   4.032  26.755   6.659
 5296POPC   C3B66681   4.066  26.462   6.989
 5296POPC   C4B66682   4.027  26.547   7.397
 5297POPC   NC366683  24.093   8.759   5.632
 5297POPC   PO466684  23.449   8.724   5.312
 5297POPC   GL166685  23.597   8.889   5.717
 5297POPC   GL266686  23.804   9.215   5.718
 5297POPC   C1A66687  23.640   8.859   6.168
 5297POPC   D2A66688  23.879   8.755   6.542
 5297POPC   C3A66689  23.633   8.846   6.907
 5297POPC   C4A66690  23.871   8.953   7.246
 5297POPC   C1B66691  23.703   9.390   6.135
 5297POPC   C2B66692  23.720   9.241   6.568
 5297POPC   C3B66693  23.720   9.424   6.977
 5297POPC   C4B66694  23.742   9.414   7.413
 5298POPC   NC366695  36.565  15.148   5.417
 5298POPC   PO466696  37.275  15.124   5.471
 5298POPC   GL166697  36.991  15.308   5.702
 5298POPC   GL266698  36.861  14.978   5.786
 5298POPC   C1A66699  36.849  15.378   6.130
 5298POPC   D2A66700  36.657  15.170   6.486
 5298POPC   C3A66701  36.787  15.321   6.864
 5298POPC   C4A66702  36.639  15.183   7.235
 5298POPC   C1B66703  36.924  14.823   6.186
 5298POPC   C2B66704  36.974  14.719   6.595
 5298POPC   C3B66705  36.919  14.829   6.999
 5298POPC   C4B66706  37.135  15.113   7.275
 5299POPC   NC366707   1.338  30.852   5.468
 5299POPC   PO466708   1.157  30.188   5.382
 5299POPC   GL166709   1.173  30.457   5.739
 5299POPC   GL266710   0.868  30.613   5.672
 5299POPC   C1A66711   1.213  30.697   6.138
 5299POPC   D2A66712   1.428  30.590   6.522
 5299POPC   C3A66713   1.325  30.751   6.925
 5299POPC   C4A66714   1.534  30.715   7.326
 5299POPC   C1B66715   0.816  30.356   6.088
 5299POPC   C2B66716   0.920  30.436   6.537
 5299POPC   C3B66717   0.890  30.441   6.998
 5299POPC   C4B66718   1.041  30.618   7.364
 5300POPC   NC366719  22.570  13.296   5.525
 5300POPC   PO466720  23.088  13.733   5.593
 5300POPC   GL166721  22.913  13.513   5.935
 5300POPC   GL266722  23.262  13.339   5.947
 5300POPC   C1A66723  22.745  13.711   6.343
 5300POPC   D2A66724  22.860  14.030   6.706
 5300POPC   C3A66725  22.893  13.809   7.112
 5300POPC   C4A66726  22.628  13.435   7.153
 5300POPC   C1B66727  23.233  13.494   6.352
 5300POPC   C2B66728  23.032  13.490   6.724
 5300POPC   C3B66729  23.204  13.405   7.083
 5300POPC   C4B66730  23.476  13.648   7.305
 5301POPC   NC366731  19.111  34.884   5.057
 5301POPC   PO466732  19.313  34.311   5.303
 5301POPC   GL166733  19.157  34.626   5.599
 5301POPC   GL266734  19.476  34.637   5.778
 5301POPC   C1A66735  19.010  34.670   6.057
 5301POPC   D2A66736  19.031  34.506   6.515
 5301POPC   C3A66737  18.786  34.659   6.901
 5301POPC   C4A66738  18.886  34.556   7.327
 5301POPC   C1B66739  19.490  34.460   6.193
 5301POPC   C2B66740  19.529  34.329   6.632
 5301POPC   C3B66741  19.334  34.439   7.028
 5301POPC   C4B66742  19.302  34.854   7.212
 5302POPC   NC366743  36.514   2.853   5.125
 5302POPC   PO466744  37.232   2.891   5.244
 5302POPC   GL166745  37.087   2.890   5.689
 5302POPC   GL266746  37.069   2.530   5.748
 5302POPC   C1A66747  36.700   2.854   6.001
 5302POPC   D2A66748  36.623   2.716   6.441
 5302POPC   C3A66749  36.643   2.916   6.844
 5302POPC   C4A66750  36.562   2.747   7.270
 5302POPC   C1B66751  37.137   2.688   6.178
 5302POPC   C2B66752  37.131   2.785   6.617
 5302POPC   C3B66753  37.006   2.629   7.015
 5302POPC   C4B66754  37.013   2.640   7.502
 5303POPC   NC366755  31.803  30.149   5.482
 5303POPC   PO466756  31.554  29.557   5.526
 5303POPC   GL166757  31.512  29.863   5.830
 5303POPC   GL266758  31.335  30.139   5.704
 5303POPC   C1A66759  31.660  29.810   6.249
 5303POPC   D2A66760  31.780  29.875   6.677
 5303POPC   C3A66761  31.534  29.793   7.051
 5303POPC   C4A66762  31.631  30.023   7.436
 5303POPC   C1B66763  31.253  30.186   6.142
 5303POPC   C2B66764  31.227  30.323   6.554
 5303POPC   C3B66765  31.426  30.311   6.968
 5303POPC   C4B66766  31.331  30.426   7.395
 5304POPC   NC366767   7.086  19.546   5.170
 5304POPC   PO466768   7.538  20.007   5.398
 5304POPC   GL166769   7.459  20.098   5.837
 5304POPC   GL266770   7.121  19.970   5.866
 5304POPC   C1A66771   7.489  19.861   6.240
 5304POPC   D2A66772   7.799  19.583   6.450
 5304POPC   C3A66773   7.844  19.689   6.886
 5304POPC   C4A66774   7.694  19.989   7.197
 5304POPC   C1B66775   7.197  19.500   6.008
 5304POPC   C2B66776   7.307  19.427   6.461
 5304POPC   C3B66777   7.342  19.666   6.837
 5304POPC   C4B66778   7.424  19.572   7.264
 5305POPC   NC366779  26.521  36.767   5.492
 5305POPC   PO466780  26.999  37.236   5.439
 5305POPC   GL166781  26.861  37.022   5.783
 5305POPC   GL266782  26.624  37.270   5.877
 5305POPC   C1A66783  26.845  36.904   6.215
 5305POPC   D2A66784  26.913  37.042   6.611
 5305POPC   C3A66785  26.819  36.761   6.920
 5305POPC   C4A66786  26.728  36.547   7.271
 5305POPC   C1B66787  26.399  37.207   6.249
 5305POPC   C2B66788  26.404  37.277   6.696
 5305POPC   C3B66789  26.648  37.230   7.053
 5305POPC   C4B66790  27.086  37.184   7.075
 5306POPC   NC366791   0.086   6.821   5.524
 5306POPC   PO466792  44.626   6.361   5.553
 5306POPC   GL166793  44.707   6.684   5.853
 5306POPC   GL266794  44.648   7.018   5.739
 5306POPC   C1A66795  44.771   6.678   6.274
 5306POPC   D2A66796  44.650   6.539   6.657
 5306POPC   C3A66797  44.828   6.734   6.976
 5306POPC   C4A66798  44.649   6.899   7.346
 5306POPC   C1B66799  44.380   7.031   6.095
 5306POPC   C2B66800  44.469   7.025   6.523
 5306POPC   C3B66801  44.332   6.953   6.915
 5306POPC   C4B66802  44.305   7.298   7.168
 5307POPC   NC366803  15.522  21.667   5.400
 5307POPC   PO466804  15.012  21.179   5.395
 5307POPC   GL166805  15.150  21.249   5.809
 5307POPC   GL266806  15.491  21.366   5.818
 5307POPC   C1A66807  15.276  21.130   6.233
 5307POPC   D2A66808  15.046  21.277   6.605
 5307POPC   C3A66809  15.036  21.353   7.056
 5307POPC   C4A66810  14.646  21.544   7.240
 5307POPC   C1B66811  15.715  21.403   6.212
 5307POPC   C2B66812  15.651  21.229   6.597
 5307POPC   C3B66813  15.563  21.399   6.994
 5307POPC   C4B66814  15.412  21.319   7.410
 5308POPC   NC366815  32.734  43.256   5.361
 5308POPC   PO466816  33.360  43.382   5.175
 5308POPC   GL166817  33.190  43.187   5.607
 5308POPC   GL266818  32.955  43.436   5.784
 5308POPC   C1A66819  33.231  43.096   6.080
 5308POPC   D2A66820  32.924  43.073   6.450
 5308POPC   C3A66821  33.046  42.945   6.875
 5308POPC   C4A66822  33.243  43.105   7.222
 5308POPC   C1B66823  33.079  43.571   6.201
 5308POPC   C2B66824  32.893  43.599   6.573
 5308POPC   C3B66825  32.988  43.471   6.952
 5308POPC   C4B66826  32.805  43.402   7.323
 5309POPC   NC366827  35.716  20.673   5.398
 5309POPC   PO466828  36.228  20.296   5.482
 5309POPC   GL166829  36.059  20.580   5.803
 5309POPC   GL266830  36.346  20.808   5.775
 5309POPC   C1A66831  36.050  20.627   6.266
 5309POPC   D2A66832  36.248  20.775   6.637
 5309POPC   C3A66833  36.125  20.620   7.022
 5309POPC   C4A66834  35.793  20.717   7.269
 5309POPC   C1B66835  36.563  20.725   6.162
 5309POPC   C2B66836  36.607  20.429   6.495
 5309POPC   C3B66837  36.637  20.558   6.922
 5309POPC   C4B66838  36.583  20.853   7.216
 5310POPC   NC366839  44.464  27.791   5.163
 5310POPC   PO466840  44.798  27.453   5.591
 5310POPC   GL166841  44.498  27.462   5.898
 5310POPC   GL266842  44.246  27.706   5.813
 5310POPC   C1A66843  44.739  27.438   6.274
 5310POPC   D2A66844   0.079  27.474   6.563
 5310POPC   C3A66845  44.843  27.429   6.932
 5310POPC   C4A66846  44.741  27.619   7.326
 5310POPC   C1B66847  44.413  27.905   6.194
 5310POPC   C2B66848  44.564  27.800   6.611
 5310POPC   C3B66849  44.378  27.847   7.016
 5310POPC   C4B66850  44.288  27.911   7.479
 5311POPC   NC366851  33.801  32.773   5.632
 5311POPC   PO466852  33.960  33.382   5.591
 5311POPC   GL166853  33.742  33.301   5.924
 5311POPC   GL266854  33.483  33.134   5.772
 5311POPC   C1A66855  33.840  33.025   6.275
 5311POPC   D2A66856  34.130  33.071   6.625
 5311POPC   C3A66857  33.876  33.112   6.991
 5311POPC   C4A66858  33.945  32.950   7.375
 5311POPC   C1B66859  33.320  33.144   6.173
 5311POPC   C2B66860  33.435  33.172   6.583
 5311POPC   C3B66861  33.430  32.840   6.849
 5311POPC   C4B66862  33.412  32.834   7.288
 5312POPC   NC366863  41.041  21.069   5.436
 5312POPC   PO466864  40.638  21.564   5.435
 5312POPC   GL166865  40.667  21.417   5.788
 5312POPC   GL266866  40.502  21.125   5.770
 5312POPC   C1A66867  40.604  21.405   6.219
 5312POPC   D2A66868  40.404  21.409   6.570
 5312POPC   C3A66869  40.635  21.379   6.913
 5312POPC   C4A66870  40.512  21.088   7.159
 5312POPC   C1B66871  40.886  21.028   6.041
 5312POPC   C2B66872  40.923  21.030   6.468
 5312POPC   C3B66873  41.091  21.187   6.798
 5312POPC   C4B66874  41.021  21.037   7.137
 5313POPC   NC366875  14.807   1.504   5.416
 5313POPC   PO466876  15.396   1.095   5.473
 5313POPC   GL166877  15.172   1.216   5.807
 5313POPC   GL266878  14.856   1.062   5.722
 5313POPC   C1A66879  15.237   1.338   6.254
 5313POPC   D2A66880  14.982   1.376   6.638
 5313POPC   C3A66881  15.154   1.421   7.067
 5313POPC   C4A66882  15.398   1.248   7.421
 5313POPC   C1B66883  14.754   1.155   6.160
 5313POPC   C2B66884  14.602   1.013   6.554
 5313POPC   C3B66885  14.742   1.079   6.968
 5313POPC   C4B66886  14.915   1.089   7.376
 5314POPC   NC366887  36.132   9.768   5.422
 5314POPC   PO466888  36.674   9.364   5.633
 5314POPC   GL166889  36.398   9.698   5.844
 5314POPC   GL266890  36.441  10.058   5.710
 5314POPC   C1A66891  36.071   9.765   6.184
 5314POPC   D2A66892  35.839   9.775   6.608
 5314POPC   C3A66893  35.985   9.619   7.049
 5314POPC   C4A66894  36.290   9.378   7.328
 5314POPC   C1B66895  36.500  10.094   6.172
 5314POPC   C2B66896  36.399   9.892   6.553
 5314POPC   C3B66897  36.269  10.049   6.934
 5314POPC   C4B66898  36.425   9.862   7.298
 5315POPC   NC366899  16.155  34.579   5.158
 5315POPC   PO466900  16.858  34.624   5.318
 5315POPC   GL166901  16.628  34.679   5.747
 5315POPC   GL266902  16.528  35.009   5.865
 5315POPC   C1A66903  16.753  34.673   6.199
 5315POPC   D2A66904  16.870  34.442   6.575
 5315POPC   C3A66905  16.852  34.671   6.948
 5315POPC   C4A66906  16.806  34.506   7.334
 5315POPC   C1B66907  16.368  35.029   6.267
 5315POPC   C2B66908  16.581  35.023   6.660
 5315POPC   C3B66909  16.434  34.990   7.069
 5315POPC   C4B66910  16.514  34.940   7.521
 5316POPC   NC366911  13.227  21.959   5.366
 5316POPC   PO466912  12.864  22.446   5.568
 5316POPC   GL166913  13.150  22.302   5.856
 5316POPC   GL266914  12.979  22.022   5.837
 5316POPC   C1A66915  13.079  22.275   6.292
 5316POPC   D2A66916  12.769  22.210   6.616
 5316POPC   C3A66917  12.906  22.194   7.028
 5316POPC   C4A66918  13.295  22.352   7.121
 5316POPC   C1B66919  12.723  21.892   6.195
 5316POPC   C2B66920  12.681  21.702   6.615
 5316POPC   C3B66921  12.899  21.673   7.019
 5316POPC   C4B66922  12.788  21.874   7.449
 5317POPC   NC366923  34.317  28.601   5.396
 5317POPC   PO466924  34.867  28.271   5.360
 5317POPC   GL166925  34.651  28.306   5.790
 5317POPC   GL266926  34.519  28.636   5.876
 5317POPC   C1A66927  34.561  28.214   6.249
 5317POPC   D2A66928  34.743  28.326   6.654
 5317POPC   C3A66929  34.556  28.196   7.035
 5317POPC   C4A66930  34.182  28.349   7.213
 5317POPC   C1B66931  34.834  28.787   6.144
 5317POPC   C2B66932  35.031  28.777   6.564
 5317POPC   C3B66933  34.927  28.669   7.014
 5317POPC   C4B66934  34.621  28.608   7.360
 5318POPC   NC366935  14.397  24.067   5.423
 5318POPC   PO466936  14.568  23.455   5.525
 5318POPC   GL166937  14.497  23.559   5.935
 5318POPC   GL266938  14.366  23.866   5.902
 5318POPC   C1A66939  14.409  23.315   6.315
 5318POPC   D2A66940  14.152  23.402   6.687
 5318POPC   C3A66941  14.308  23.468   7.098
 5318POPC   C4A66942  14.679  23.686   7.231
 5318POPC   C1B66943  14.269  23.803   6.348
 5318POPC   C2B66944  14.452  23.822   6.773
 5318POPC   C3B66945  14.305  24.034   7.135
 5318POPC   C4B66946  14.500  24.269   7.445
 5319POPC   NC366947  35.512  30.155   5.537
 5319POPC   PO466948  35.081  29.682   5.576
 5319POPC   GL166949  35.395  29.778   5.855
 5319POPC   GL266950  35.191  30.048   5.920
 5319POPC   C1A66951  35.344  29.690   6.288
 5319POPC   D2A66952  35.111  29.924   6.590
 5319POPC   C3A66953  35.077  29.677   6.973
 5319POPC   C4A66954  35.317  29.745   7.318
 5319POPC   C1B66955  35.513  30.166   6.210
 5319POPC   C2B66956  35.496  30.341   6.593
 5319POPC   C3B66957  35.519  30.048   6.932
 5319POPC   C4B66958  35.586  30.207   7.325
 5320POPC   NC366959  33.066  10.178   5.365
 5320POPC   PO466960  33.072  10.749   5.450
 5320POPC   GL166961  33.021  10.542   5.840
 5320POPC   GL266962  32.773  10.256   5.787
 5320POPC   C1A66963  32.939  10.665   6.277
 5320POPC   D2A66964  32.747  10.600   6.712
 5320POPC   C3A66965  32.969  10.849   7.044
 5320POPC   C4A66966  33.310  10.942   7.324
 5320POPC   C1B66967  32.980  10.142   6.169
 5320POPC   C2B66968  33.109  10.270   6.571
 5320POPC   C3B66969  32.936  10.152   6.955
 5320POPC   C4B66970  33.054  10.381   7.270
 5321POPC   NC366971  16.765   0.145   5.495
 5321POPC   PO466972  16.601   0.795   5.410
 5321POPC   GL166973  16.527   0.672   5.832
 5321POPC   GL266974  16.874   0.615   5.887
 5321POPC   C1A66975  16.586   0.701   6.310
 5321POPC   D2A66976  16.941   0.759   6.616
 5321POPC   C3A66977  16.862   0.558   7.027
 5321POPC   C4A66978  16.816   0.661   7.472
 5321POPC   C1B66979  16.793   0.252   6.171
 5321POPC   C2B66980  16.857   0.189   6.612
 5321POPC   C3B66981  16.715   0.035   7.021
 5321POPC   C4B66982  16.688   0.176   7.429
 5322POPC   NC366983  42.897  26.606   5.419
 5322POPC   PO466984  43.373  27.008   5.575
 5322POPC   GL166985  43.086  26.869   5.846
 5322POPC   GL266986  43.221  26.548   5.906
 5322POPC   C1A66987  43.007  27.025   6.237
 5322POPC   D2A66988  42.753  26.956   6.578
 5322POPC   C3A66989  42.886  26.693   6.889
 5322POPC   C4A66990  43.116  26.784   7.275
 5322POPC   C1B66991  43.127  26.537   6.372
 5322POPC   C2B66992  43.269  26.380   6.780
 5322POPC   C3B66993  43.246  26.285   7.212
 5322POPC   C4B66994  43.195  26.429   7.640
 5323POPC   NC366995   5.160  30.426   5.502
 5323POPC   PO466996   4.926  29.760   5.451
 5323POPC   GL166997   5.199  29.911   5.774
 5323POPC   GL266998   4.947  30.151   5.870
 5323POPC   C1A66999   5.312  29.788   6.215
 5323POPC   D2A67000   5.078  29.778   6.598
 5323POPC   C3A67001   5.170  29.882   7.023
 5323POPC   C4A67002   5.028  29.669   7.424
 5323POPC   C1B67003   5.162  30.276   6.255
 5323POPC   C2B67004   5.044  30.290   6.688
 5323POPC   C3B67005   4.861  30.280   7.129
 5323POPC   C4B67006   4.890  30.141   7.597
 5324POPC   NC367007  16.328  23.998   5.543
 5324POPC   PO467008  16.855  23.545   5.462
 5324POPC   GL167009  16.715  23.598   5.890
 5324POPC   GL267010  16.342  23.650   5.924
 5324POPC   C1A67011  16.690  23.717   6.328
 5324POPC   D2A67012  16.874  23.903   6.679
 5324POPC   C3A67013  16.987  23.623   7.010
 5324POPC   C4A67014  16.716  23.690   7.363
 5324POPC   C1B67015  16.291  24.042   6.195
 5324POPC   C2B67016  16.347  23.967   6.628
 5324POPC   C3B67017  16.530  24.046   7.045
 5324POPC   C4B67018  16.406  24.065   7.509
 5325POPC   NC367019  24.414   2.408   5.330
 5325POPC   PO467020  24.633   3.056   5.280
 5325POPC   GL167021  24.442   2.857   5.653
 5325POPC   GL267022  24.671   2.613   5.807
 5325POPC   C1A67023  24.358   2.868   6.123
 5325POPC   D2A67024  24.481   2.643   6.511
 5325POPC   C3A67025  24.399   2.867   6.930
 5325POPC   C4A67026  24.523   2.711   7.338
 5325POPC   C1B67027  24.859   2.879   6.179
 5325POPC   C2B67028  24.827   3.003   6.614
 5325POPC   C3B67029  24.905   2.950   7.024
 5325POPC   C4B67030  25.090   3.301   7.231
 5326POPC   NC367031  20.797  35.762   4.940
 5326POPC   PO467032  20.773  36.278   5.399
 5326POPC   GL167033  20.505  36.199   5.762
 5326POPC   GL267034  20.337  36.492   5.878
 5326POPC   C1A67035  20.476  36.128   6.226
 5326POPC   D2A67036  20.654  36.265   6.641
 5326POPC   C3A67037  20.760  36.005   6.995
 5326POPC   C4A67038  20.683  36.143   7.404
 5326POPC   C1B67039  20.126  36.541   6.267
 5326POPC   C2B67040  20.112  36.304   6.650
 5326POPC   C3B67041  20.291  36.215   7.060
 5326POPC   C4B67042  20.297  36.453   7.449
 5327POPC   NC367043  31.516   2.592   5.340
 5327POPC   PO467044  31.266   3.195   5.085
 5327POPC   GL167045  31.391   3.043   5.576
 5327POPC   GL267046  31.766   2.940   5.699
 5327POPC   C1A67047  31.405   2.940   6.064
 5327POPC   D2A67048  31.509   2.701   6.461
 5327POPC   C3A67049  31.363   2.700   6.869
 5327POPC   C4A67050  31.330   3.109   7.042
 5327POPC   C1B67051  31.891   2.716   6.115
 5327POPC   C2B67052  32.014   2.639   6.581
 5327POPC   C3B67053  31.855   2.713   7.030
 5327POPC   C4B67054  31.716   2.563   7.446
 5328POPC   NC367055  43.042  44.225   5.460
 5328POPC   PO467056  43.406  43.641   5.359
 5328POPC   GL167057  43.258  43.838   5.711
 5328POPC   GL267058  43.493  44.115   5.693
 5328POPC   C1A67059  43.064  43.741   6.096
 5328POPC   D2A67060  43.185  43.658   6.501
 5328POPC   C3A67061  42.902  43.874   6.741
 5328POPC   C4A67062  42.730  43.702   7.096
 5328POPC   C1B67063  43.315  44.194   6.110
 5328POPC   C2B67064  43.466  44.096   6.531
 5328POPC   C3B67065  43.304  44.140   6.949
 5328POPC   C4B67066  43.260  43.749   7.159
 5329POPC   NC367067   4.984  25.198   5.280
 5329POPC   PO467068   4.946  25.689   5.639
 5329POPC   GL167069   5.017  25.264   5.784
 5329POPC   GL267070   5.300  24.982   5.743
 5329POPC   C1A67071   5.101  25.178   6.191
 5329POPC   D2A67072   5.086  25.057   6.594
 5329POPC   C3A67073   4.858  25.283   6.938
 5329POPC   C4A67074   4.912  25.131   7.356
 5329POPC   C1B67075   5.544  24.909   6.182
 5329POPC   C2B67076   5.576  24.903   6.662
 5329POPC   C3B67077   5.353  25.098   7.036
 5329POPC   C4B67078   5.402  25.080   7.485
 5330POPC   NC367079   4.513  16.795   5.265
 5330POPC   PO467080   4.002  16.393   5.428
 5330POPC   GL167081   4.396  16.516   5.691
 5330POPC   GL267082   4.466  16.900   5.765
 5330POPC   C1A67083   4.372  16.564   6.137
 5330POPC   D2A67084   4.049  16.684   6.428
 5330POPC   C3A67085   4.125  16.479   6.826
 5330POPC   C4A67086   4.351  16.575   7.163
 5330POPC   C1B67087   4.477  17.049   6.224
 5330POPC   C2B67088   4.440  16.882   6.667
 5330POPC   C3B67089   4.396  17.071   7.064
 5330POPC   C4B67090   4.427  16.944   7.515
 5331POPC   NC367091  21.171  36.551   5.427
 5331POPC   PO467092  21.267  35.858   5.427
 5331POPC   GL167093  21.124  36.144   5.757
 5331POPC   GL267094  21.437  36.314   5.815
 5331POPC   C1A67095  21.028  36.248   6.208
 5331POPC   D2A67096  21.174  36.394   6.649
 5331POPC   C3A67097  21.285  36.023   6.933
 5331POPC   C4A67098  21.579  35.752   7.189
 5331POPC   C1B67099  21.598  36.477   6.223
 5331POPC   C2B67100  21.705  36.541   6.677
 5331POPC   C3B67101  21.566  36.415   7.093
 5331POPC   C4B67102  21.370  36.410   7.494
 5332POPC   NC367103  35.059   8.976   5.590
 5332POPC   PO467104  34.639   9.247   5.145
 5332POPC   GL167105  34.645   9.298   5.625
 5332POPC   GL267106  34.519   9.001   5.812
 5332POPC   C1A67107  34.710   9.372   6.093
 5332POPC   D2A67108  34.502   9.121   6.428
 5332POPC   C3A67109  34.519   9.221   6.846
 5332POPC   C4A67110  34.630   9.178   7.252
 5332POPC   C1B67111  34.604   8.705   6.158
 5332POPC   C2B67112  34.393   8.625   6.558
 5332POPC   C3B67113  34.460   8.719   7.003
 5332POPC   C4B67114  34.657   8.658   7.418
 5333POPC   NC367115  41.998   1.816   5.489
 5333POPC   PO467116  42.611   2.140   5.532
 5333POPC   GL167117  42.420   1.821   5.815
 5333POPC   GL267118  42.701   1.706   5.961
 5333POPC   C1A67119  42.306   1.757   6.289
 5333POPC   D2A67120  42.296   2.140   6.588
 5333POPC   C3A67121  42.360   2.174   7.037
 5333POPC   C4A67122  42.255   1.806   7.271
 5333POPC   C1B67123  42.722   2.102   6.255
 5333POPC   C2B67124  42.812   2.211   6.719
 5333POPC   C3B67125  42.835   2.315   7.185
 5333POPC   C4B67126  42.648   2.182   7.603
 5334POPC   NC367127  20.815  15.973   5.370
 5334POPC   PO467128  20.261  15.634   5.371
 5334POPC   GL167129  20.384  15.823   5.807
 5334POPC   GL267130  20.558  16.138   5.776
 5334POPC   C1A67131  20.312  16.094   6.213
 5334POPC   D2A67132  20.291  16.117   6.638
 5334POPC   C3A67133  20.589  15.890   6.872
 5334POPC   C4A67134  20.512  15.931   7.271
 5334POPC   C1B67135  20.771  15.920   6.141
 5334POPC   C2B67136  20.773  16.173   6.472
 5334POPC   C3B67137  20.888  16.285   6.864
 5334POPC   C4B67138  21.019  16.026   7.174
 5335POPC   NC367139  26.126   0.664   5.462
 5335POPC   PO467140  25.760   0.117   5.490
 5335POPC   GL167141  25.866   0.355   5.839
 5335POPC   GL267142  26.207   0.289   5.828
 5335POPC   C1A67143  25.992   0.395   6.297
 5335POPC   D2A67144  26.195   0.282   6.696
 5335POPC   C3A67145  25.896   0.344   7.068
 5335POPC   C4A67146  25.721   0.410   7.499
 5335POPC   C1B67147  26.483   0.399   6.164
 5335POPC   C2B67148  26.631   0.626   6.526
 5335POPC   C3B67149  26.537   0.611   6.957
 5335POPC   C4B67150  26.388   0.251   7.168
 5336POPC   NC367151  18.383  16.025   5.421
 5336POPC   PO467152  17.879  15.648   5.583
 5336POPC   GL167153  18.161  15.875   5.887
 5336POPC   GL267154  18.312  16.241   5.905
 5336POPC   C1A67155  18.384  15.906   6.278
 5336POPC   D2A67156  18.359  16.073   6.678
 5336POPC   C3A67157  18.523  15.748   6.943
 5336POPC   C4A67158  18.290  15.667   7.292
 5336POPC   C1B67159  18.640  16.340   6.265
 5336POPC   C2B67160  18.605  16.550   6.644
 5336POPC   C3B67161  18.671  16.349   7.003
 5336POPC   C4B67162  18.374  16.154   7.222
 5337POPC   NC367163  10.453   9.559   5.565
 5337POPC   PO467164  10.758   9.002   5.391
 5337POPC   GL167165  10.602   9.062   5.812
 5337POPC   GL267166  10.261   9.203   5.873
 5337POPC   C1A67167  10.552   8.764   6.172
 5337POPC   D2A67168  10.367   8.620   6.530
 5337POPC   C3A67169  10.579   8.724   6.896
 5337POPC   C4A67170  10.612   8.737   7.307
 5337POPC   C1B67171  10.119   9.003   6.255
 5337POPC   C2B67172  10.258   9.089   6.690
 5337POPC   C3B67173  10.143   8.884   7.083
 5337POPC   C4B67174  10.251   9.121   7.442
 5338POPC   NC367175  12.399  13.885   5.447
 5338POPC   PO467176  11.958  13.370   5.538
 5338POPC   GL167177  12.267  13.492   5.791
 5338POPC   GL267178  12.046  13.740   5.920
 5338POPC   C1A67179  12.440  13.488   6.182
 5338POPC   D2A67180  12.156  13.580   6.501
 5338POPC   C3A67181  12.231  13.447   6.933
 5338POPC   C4A67182  12.058  13.514   7.350
 5338POPC   C1B67183  12.313  13.980   6.173
 5338POPC   C2B67184  12.421  14.020   6.595
 5338POPC   C3B67185  12.080  13.933   6.865
 5338POPC   C4B67186  12.040  14.013   7.263
 5339POPC   NC367187   8.548  23.272   5.556
 5339POPC   PO467188   9.108  23.028   5.287
 5339POPC   GL167189   9.001  23.065   5.707
 5339POPC   GL267190   9.043  22.741   5.800
 5339POPC   C1A67191   8.787  23.070   6.122
 5339POPC   D2A67192   8.899  23.044   6.541
 5339POPC   C3A67193   8.717  22.785   6.834
 5339POPC   C4A67194   8.688  23.106   7.125
 5339POPC   C1B67195   9.052  22.553   6.189
 5339POPC   C2B67196   9.229  22.640   6.584
 5339POPC   C3B67197   9.155  22.538   7.004
 5339POPC   C4B67198   9.073  22.822   7.311
 5340POPC   NC367199  23.499  26.446   5.463
 5340POPC   PO467200  23.853  26.997   5.261
 5340POPC   GL167201  23.787  26.846   5.664
 5340POPC   GL267202  23.438  26.900   5.717
 5340POPC   C1A67203  23.710  26.645   6.074
 5340POPC   D2A67204  23.807  26.764   6.490
 5340POPC   C3A67205  23.485  26.754   6.810
 5340POPC   C4A67206  23.730  26.731   7.169
 5340POPC   C1B67207  23.551  27.129   6.108
 5340POPC   C2B67208  23.626  27.250   6.525
 5340POPC   C3B67209  23.866  27.135   6.870
 5340POPC   C4B67210  23.869  27.303   7.273
 5341POPC   NC367211  34.010  34.548   5.320
 5341POPC   PO467212  33.415  34.739   5.404
 5341POPC   GL167213  33.717  34.524   5.752
 5341POPC   GL267214  34.034  34.309   5.813
 5341POPC   C1A67215  33.972  34.714   6.130
 5341POPC   D2A67216  33.746  34.916   6.478
 5341POPC   C3A67217  33.771  34.814   6.904
 5341POPC   C4A67218  33.738  34.634   7.335
 5341POPC   C1B67219  33.820  34.238   6.200
 5341POPC   C2B67220  33.905  34.425   6.587
 5341POPC   C3B67221  34.141  34.472   6.953
 5341POPC   C4B67222  34.012  34.199   7.279
 5342POPC   NC367223  25.818   7.159   5.369
 5342POPC   PO467224  26.231   6.604   5.362
 5342POPC   GL167225  25.983   6.549   5.760
 5342POPC   GL267226  25.762   6.862   5.810
 5342POPC   C1A67227  26.000   6.319   6.159
 5342POPC   D2A67228  25.896   6.522   6.532
 5342POPC   C3A67229  26.038   6.405   6.896
 5342POPC   C4A67230  25.888   6.498   7.269
 5342POPC   C1B67231  26.017   6.904   6.228
 5342POPC   C2B67232  26.190   6.902   6.711
 5342POPC   C3B67233  26.262   6.817   7.163
 5342POPC   C4B67234  26.607   6.793   7.475
 5343POPC   NC367235  29.242   0.668   5.190
 5343POPC   PO467236  28.861   0.205   5.542
 5343POPC   GL167237  28.917   0.429   5.910
 5343POPC   GL267238  29.260   0.504   5.809
 5343POPC   C1A67239  29.108   0.540   6.325
 5343POPC   D2A67240  29.140   0.691   6.771
 5343POPC   C3A67241  28.869   0.480   7.071
 5343POPC   C4A67242  28.979   0.110   7.331
 5343POPC   C1B67243  29.553   0.340   6.118
 5343POPC   C2B67244  29.461   0.202   6.526
 5343POPC   C3B67245  29.565   0.390   6.884
 5343POPC   C4B67246  29.375   0.467   7.235
 5344POPC   NC367247  38.470  24.185   5.203
 5344POPC   PO467248  38.271  24.754   5.537
 5344POPC   GL167249  38.380  24.529   5.863
 5344POPC   GL267250  38.673  24.380   5.825
 5344POPC   C1A67251  38.309  24.615   6.248
 5344POPC   D2A67252  38.127  24.412   6.551
 5344POPC   C3A67253  38.259  24.582   6.901
 5344POPC   C4A67254  38.424  24.436   7.231
 5344POPC   C1B67255  38.683  24.157   6.278
 5344POPC   C2B67256  38.580  24.157   6.741
 5344POPC   C3B67257  38.834  24.175   7.118
 5344POPC   C4B67258  38.755  24.218   7.548
 5345POPC   NC367259  38.805  22.560   5.146
 5345POPC   PO467260  38.700  23.055   5.576
 5345POPC   GL167261  38.517  22.889   5.892
 5345POPC   GL267262  38.197  23.074   5.833
 5345POPC   C1A67263  38.650  22.829   6.318
 5345POPC   D2A67264  38.818  22.804   6.701
 5345POPC   C3A67265  38.589  22.883   7.035
 5345POPC   C4A67266  38.679  22.627   7.329
 5345POPC   C1B67267  38.150  22.850   6.218
 5345POPC   C2B67268  38.204  22.824   6.640
 5345POPC   C3B67269  38.073  22.937   7.043
 5345POPC   C4B67270  38.171  22.612   7.270
 5346POPC   NC367271   3.545  26.368   5.317
 5346POPC   PO467272   3.831  25.822   5.617
 5346POPC   GL167273   3.690  26.199   5.777
 5346POPC   GL267274   3.335  26.173   5.900
 5346POPC   C1A67275   3.781  26.232   6.185
 5346POPC   D2A67276   3.746  26.291   6.605
 5346POPC   C3A67277   3.822  25.922   6.861
 5346POPC   C4A67278   3.698  26.101   7.217
 5346POPC   C1B67279   3.461  25.824   6.178
 5346POPC   C2B67280   3.380  25.785   6.604
 5346POPC   C3B67281   3.304  26.142   6.878
 5346POPC   C4B67282   3.165  26.182   7.290
 5347POPC   NC367283  32.498   1.393   5.317
 5347POPC   PO467284  32.220   0.732   5.442
 5347POPC   GL167285  32.278   1.043   5.705
 5347POPC   GL267286  31.996   1.267   5.616
 5347POPC   C1A67287  32.366   0.964   6.147
 5347POPC   D2A67288  32.508   1.156   6.516
 5347POPC   C3A67289  32.344   0.900   6.835
 5347POPC   C4A67290  32.378   1.113   7.213
 5347POPC   C1B67291  32.076   1.374   6.073
 5347POPC   C2B67292  32.005   1.250   6.509
 5347POPC   C3B67293  32.177   1.443   6.873
 5347POPC   C4B67294  32.007   1.481   7.288
 5348POPC   NC367295  11.412   4.556   5.460
 5348POPC   PO467296  10.951   4.025   5.425
 5348POPC   GL167297  11.136   4.272   5.793
 5348POPC   GL267298  11.516   4.190   5.827
 5348POPC   C1A67299  11.080   4.460   6.233
 5348POPC   D2A67300  11.237   4.313   6.649
 5348POPC   C3A67301  11.364   4.550   7.040
 5348POPC   C4A67302  11.335   4.412   7.468
 5348POPC   C1B67303  11.597   4.359   6.248
 5348POPC   C2B67304  11.720   4.421   6.681
 5348POPC   C3B67305  11.596   4.103   7.002
 5348POPC   C4B67306  11.802   4.179   7.390
 5349POPC   NC367307  29.664  28.130   5.072
 5349POPC   PO467308  30.086  27.711   5.424
 5349POPC   GL167309  29.822  27.803   5.731
 5349POPC   GL267310  29.926  27.508   5.888
 5349POPC   C1A67311  29.688  27.887   6.159
 5349POPC   D2A67312  29.613  27.662   6.541
 5349POPC   C3A67313  29.775  27.838   6.884
 5349POPC   C4A67314  29.574  27.849   7.256
 5349POPC   C1B67315  29.791  27.292   6.243
 5349POPC   C2B67316  29.940  27.069   6.566
 5349POPC   C3B67317  29.855  27.241   6.909
 5349POPC   C4B67318  29.874  27.178   7.318
 5350POPC   NC367319  29.822  38.181   5.386
 5350POPC   PO467320  30.243  38.683   5.512
 5350POPC   GL167321  29.958  38.674   5.858
 5350POPC   GL267322  29.689  38.473   5.764
 5350POPC   C1A67323  30.009  38.483   6.247
 5350POPC   D2A67324  30.228  38.200   6.546
 5350POPC   C3A67325  30.042  38.281   6.937
 5350POPC   C4A67326  29.929  38.703   7.138
 5350POPC   C1B67327  29.486  38.459   6.127
 5350POPC   C2B67328  29.454  38.614   6.513
 5350POPC   C3B67329  29.549  38.462   6.885
 5350POPC   C4B67330  29.659  38.265   7.279
 5351POPC   NC367331  25.591  11.679   5.332
 5351POPC   PO467332  25.084  12.127   5.322
 5351POPC   GL167333  25.231  12.130   5.743
 5351POPC   GL267334  25.563  12.258   5.658
 5351POPC   C1A67335  25.295  12.154   6.212
 5351POPC   D2A67336  25.306  12.029   6.668
 5351POPC   C3A67337  25.120  12.260   7.037
 5351POPC   C4A67338  24.938  12.168   7.460
 5351POPC   C1B67339  25.706  11.929   5.952
 5351POPC   C2B67340  25.767  11.940   6.396
 5351POPC   C3B67341  25.772  11.745   6.776
 5351POPC   C4B67342  25.578  11.949   7.103
 5352POPC   NC367343   2.634  18.340   5.344
 5352POPC   PO467344   3.182  17.940   5.425
 5352POPC   GL167345   3.004  18.178   5.807
 5352POPC   GL267346   2.669  18.347   5.864
 5352POPC   C1A67347   3.043  18.308   6.248
 5352POPC   D2A67348   3.084  18.506   6.649
 5352POPC   C3A67349   2.838  18.452   7.053
 5352POPC   C4A67350   2.956  18.270   7.472
 5352POPC   C1B67351   2.543  18.378   6.292
 5352POPC   C2B67352   2.675  18.169   6.658
 5352POPC   C3B67353   2.414  18.175   7.036
 5352POPC   C4B67354   2.442  18.505   7.383
 5353POPC   NC367355  28.074  36.226   5.322
 5353POPC   PO467356  28.649  36.033   5.594
 5353POPC   GL167357  28.425  36.172   5.916
 5353POPC   GL267358  28.099  36.291   5.823
 5353POPC   C1A67359  28.319  36.134   6.348
 5353POPC   D2A67360  28.279  35.857   6.674
 5353POPC   C3A67361  28.330  36.054   7.060
 5353POPC   C4A67362  28.633  36.361   7.111
 5353POPC   C1B67363  27.856  36.301   6.206
 5353POPC   C2B67364  27.682  36.369   6.614
 5353POPC   C3B67365  27.971  36.377   6.936
 5353POPC   C4B67366  27.977  36.253   7.389
 5354POPC   NC367367  14.573  38.049   5.552
 5354POPC   PO467368  14.125  38.502   5.268
 5354POPC   GL167369  14.325  38.480   5.689
 5354POPC   GL267370  14.489  38.768   5.789
 5354POPC   C1A67371  14.349  38.365   6.137
 5354POPC   D2A67372  14.451  38.492   6.569
 5354POPC   C3A67373  14.166  38.326   6.859
 5354POPC   C4A67374  14.217  38.273   7.293
 5354POPC   C1B67375  14.732  38.753   6.170
 5354POPC   C2B67376  14.827  38.939   6.548
 5354POPC   C3B67377  14.747  38.886   6.980
 5354POPC   C4B67378  14.552  38.679   7.322
 5355POPC   NC367379  33.845  25.523   5.377
 5355POPC   PO467380  33.876  24.833   5.446
 5355POPC   GL167381  33.660  25.177   5.705
 5355POPC   GL267382  33.419  24.974   5.779
 5355POPC   C1A67383  33.651  25.417   6.134
 5355POPC   D2A67384  33.881  25.524   6.515
 5355POPC   C3A67385  33.740  25.436   6.953
 5355POPC   C4A67386  33.880  25.436   7.403
 5355POPC   C1B67387  33.699  24.917   6.149
 5355POPC   C2B67388  33.594  25.079   6.568
 5355POPC   C3B67389  33.619  24.947   7.004
 5355POPC   C4B67390  33.668  24.971   7.434
 5356POPC   NC367391  40.783  34.367   5.308
 5356POPC   PO467392  40.660  35.016   5.514
 5356POPC   GL167393  40.857  34.728   5.834
 5356POPC   GL267394  40.967  34.377   5.822
 5356POPC   C1A67395  40.710  34.661   6.267
 5356POPC   D2A67396  40.650  34.424   6.647
 5356POPC   C3A67397  40.689  34.703   6.978
 5356POPC   C4A67398  40.604  34.773   7.385
 5356POPC   C1B67399  41.192  34.456   6.207
 5356POPC   C2B67400  41.145  34.255   6.597
 5356POPC   C3B67401  41.001  34.296   7.023
 5356POPC   C4B67402  40.607  34.110   7.106
 5357POPC   NC367403  29.791   2.785   5.306
 5357POPC   PO467404  30.395   3.049   5.388
 5357POPC   GL167405  30.181   2.752   5.684
 5357POPC   GL267406  30.114   3.016   5.888
 5357POPC   C1A67407  30.021   2.584   6.118
 5357POPC   D2A67408  29.781   2.653   6.504
 5357POPC   C3A67409  29.900   2.567   6.923
 5357POPC   C4A67410  29.948   2.827   7.266
 5357POPC   C1B67411  30.083   3.126   6.330
 5357POPC   C2B67412  29.997   3.066   6.771
 5357POPC   C3B67413  29.641   3.164   7.038
 5357POPC   C4B67414  29.861   3.385   7.322
 5358POPC   NC367415  18.079  27.218   5.346
 5358POPC   PO467416  18.444  27.721   5.413
 5358POPC   GL167417  18.208  27.534   5.738
 5358POPC   GL267418  18.517  27.452   5.831
 5358POPC   C1A67419  18.031  27.515   6.164
 5358POPC   D2A67420  17.995  27.735   6.553
 5358POPC   C3A67421  18.139  27.579   6.961
 5358POPC   C4A67422  18.269  27.612   7.410
 5358POPC   C1B67423  18.505  27.750   6.175
 5358POPC   C2B67424  18.502  27.629   6.597
 5358POPC   C3B67425  18.651  27.637   7.015
 5358POPC   C4B67426  18.690  27.384   7.352
 5359POPC   NC367427   7.046   6.772   5.440
 5359POPC   PO467428   7.588   6.381   5.476
 5359POPC   GL167429   7.427   6.551   5.833
 5359POPC   GL267430   7.405   6.878   5.807
 5359POPC   C1A67431   7.666   6.670   6.217
 5359POPC   D2A67432   7.666   6.433   6.594
 5359POPC   C3A67433   7.808   6.553   6.979
 5359POPC   C4A67434   7.662   6.812   7.280
 5359POPC   C1B67435   7.197   6.906   6.217
 5359POPC   C2B67436   7.226   6.830   6.679
 5359POPC   C3B67437   7.177   6.848   7.145
 5359POPC   C4B67438   7.264   6.901   7.640
 5360POPC   NC367439  39.842  25.720   5.297
 5360POPC   PO467440  40.109  26.157   5.649
 5360POPC   GL167441  40.033  26.113   5.993
 5360POPC   GL267442  40.167  25.766   5.999
 5360POPC   C1A67443  40.250  26.170   6.347
 5360POPC   D2A67444  40.166  25.969   6.697
 5360POPC   C3A67445  40.077  26.173   7.036
 5360POPC   C4A67446  40.047  25.982   7.384
 5360POPC   C1B67447  39.857  25.781   6.329
 5360POPC   C2B67448  39.615  25.861   6.669
 5360POPC   C3B67449  39.728  25.785   7.059
 5360POPC   C4B67450  39.675  25.654   7.497
 5361POPC   NC367451   8.760  23.367   4.969
 5361POPC   PO467452   8.906  23.736   5.539
 5361POPC   GL167453   8.935  23.546   5.894
 5361POPC   GL267454   9.273  23.481   5.858
 5361POPC   C1A67455   9.017  23.500   6.314
 5361POPC   D2A67456   8.795  23.565   6.654
 5361POPC   C3A67457   9.083  23.399   6.893
 5361POPC   C4A67458   9.061  23.436   7.258
 5361POPC   C1B67459   9.387  23.810   6.175
 5361POPC   C2B67460   9.419  23.704   6.622
 5361POPC   C3B67461   9.483  23.870   7.029
 5361POPC   C4B67462   9.321  24.177   7.284
 5362POPC   NC367463  44.059  18.946   5.155
 5362POPC   PO467464  43.728  19.449   5.488
 5362POPC   GL167465  43.952  19.074   5.658
 5362POPC   GL267466  44.187  19.183   5.887
 5362POPC   C1A67467  43.888  18.765   6.010
 5362POPC   D2A67468  43.791  18.787   6.471
 5362POPC   C3A67469  43.732  19.033   6.864
 5362POPC   C4A67470  43.997  18.902   7.208
 5362POPC   C1B67471  43.951  19.233   6.263
 5362POPC   C2B67472  43.992  19.429   6.654
 5362POPC   C3B67473  44.325  19.492   6.913
 5362POPC   C4B67474  44.431  19.263   7.228
 5363POPC   NC367475   9.995   9.160   5.423
 5363POPC   PO467476   9.489   8.685   5.355
 5363POPC   GL167477   9.693   8.761   5.750
 5363POPC   GL267478   9.741   9.089   5.866
 5363POPC   C1A67479   9.790   8.613   6.178
 5363POPC   D2A67480   9.869   8.746   6.618
 5363POPC   C3A67481   9.560   8.814   6.896
 5363POPC   C4A67482   9.488   8.735   7.319
 5363POPC   C1B67483   9.893   9.432   6.141
 5363POPC   C2B67484   9.790   9.288   6.535
 5363POPC   C3B67485   9.893   9.374   6.925
 5363POPC   C4B67486   9.758   9.155   7.260
 5364POPC   NC367487  16.280  18.191   5.419
 5364POPC   PO467488  16.946  18.551   5.445
 5364POPC   GL167489  16.674  18.359   5.734
 5364POPC   GL267490  16.367  18.501   5.833
 5364POPC   C1A67491  16.715  18.386   6.186
 5364POPC   D2A67492  16.681  18.110   6.503
 5364POPC   C3A67493  16.684  18.302   6.877
 5364POPC   C4A67494  16.588  18.066   7.235
 5364POPC   C1B67495  16.204  18.399   6.244
 5364POPC   C2B67496  16.193  18.579   6.660
 5364POPC   C3B67497  16.255  18.462   7.069
 5364POPC   C4B67498  16.576  18.587   7.325
 5365POPC   NC367499  34.020  44.471   5.341
 5365POPC   PO467500  34.674  44.808   5.476
 5365POPC   GL167501  34.494  44.778   5.861
 5365POPC   GL267502  34.387  44.476   5.795
 5365POPC   C1A67503  34.671  44.879   6.276
 5365POPC   D2A67504  34.821  44.611   6.645
 5365POPC   C3A67505  34.729  44.798   7.042
 5365POPC   C4A67506  34.740  44.874   7.482
 5365POPC   C1B67507  34.527  44.394   6.210
 5365POPC   C2B67508  34.324  44.475   6.600
 5365POPC   C3B67509  34.469  44.363   7.025
 5365POPC   C4B67510  34.351  44.480   7.441
 5366POPC   NC367511   3.776   1.533   5.453
 5366POPC   PO467512   3.325   1.080   5.415
 5366POPC   GL167513   3.451   1.285   5.761
 5366POPC   GL267514   3.521   0.948   5.887
 5366POPC   C1A67515   3.570   1.408   6.163
 5366POPC   D2A67516   3.541   1.135   6.507
 5366POPC   C3A67517   3.580   1.408   6.874
 5366POPC   C4A67518   3.618   1.222   7.266
 5366POPC   C1B67519   3.202   0.761   6.130
 5366POPC   C2B67520   3.036   0.896   6.517
 5366POPC   C3B67521   3.185   1.074   6.894
 5366POPC   C4B67522   3.192   0.910   7.313
 5367POPC   NC367523  21.670  43.282   5.374
 5367POPC   PO467524  21.044  43.413   5.466
 5367POPC   GL167525  21.263  43.080   5.722
 5367POPC   GL267526  21.556  42.910   5.726
 5367POPC   C1A67527  21.291  42.947   6.171
 5367POPC   D2A67528  21.015  43.110   6.502
 5367POPC   C3A67529  21.181  43.175   6.900
 5367POPC   C4A67530  21.432  42.953   7.174
 5367POPC   C1B67531  21.720  43.195   6.118
 5367POPC   C2B67532  21.646  43.130   6.587
 5367POPC   C3B67533  21.878  43.187   6.989
 5367POPC   C4B67534  21.827  43.267   7.411
 5368POPC   NC367535  11.064  42.973   5.342
 5368POPC   PO467536  11.656  43.128   5.575
 5368POPC   GL167537  11.305  43.069   5.800
 5368POPC   GL267538  11.148  43.403   5.809
 5368POPC   C1A67539  11.088  43.041   6.186
 5368POPC   D2A67540  11.081  43.263   6.591
 5368POPC   C3A67541  11.227  42.958   6.921
 5368POPC   C4A67542  11.030  42.809   7.301
 5368POPC   C1B67543  11.462  43.402   6.176
 5368POPC   C2B67544  11.835  43.438   6.484
 5368POPC   C3B67545  11.747  43.442   6.942
 5368POPC   C4B67546  11.497  43.226   7.261
 5369POPC   NC367547  18.317  33.385   5.350
 5369POPC   PO467548  18.478  32.765   5.188
 5369POPC   GL167549  18.423  32.876   5.630
 5369POPC   GL267550  18.406  33.207   5.819
 5369POPC   C1A67551  18.445  32.732   6.063
 5369POPC   D2A67552  18.290  32.785   6.482
 5369POPC   C3A67553  18.551  32.993   6.797
 5369POPC   C4A67554  18.562  32.832   7.235
 5369POPC   C1B67555  18.085  33.492   6.035
 5369POPC   C2B67556  18.009  33.602   6.477
 5369POPC   C3B67557  18.043  33.477   6.916
 5369POPC   C4B67558  18.395  33.328   7.174
 5370POPC   NC367559   0.659  24.299   5.472
 5370POPC   PO467560   0.190  24.728   5.382
 5370POPC   GL167561   0.445  24.677   5.771
 5370POPC   GL267562   0.827  24.711   5.802
 5370POPC   C1A67563   0.430  24.508   6.193
 5370POPC   D2A67564   0.390  24.726   6.609
 5370POPC   C3A67565   0.317  24.449   6.939
 5370POPC   C4A67566   0.618  24.275   7.169
 5370POPC   C1B67567   0.690  24.946   6.211
 5370POPC   C2B67568   0.839  24.988   6.680
 5370POPC   C3B67569   0.674  24.824   7.109
 5370POPC   C4B67570   0.689  24.895   7.583
 5371POPC   NC367571   1.677  12.289   5.457
 5371POPC   PO467572   2.240  12.066   5.456
 5371POPC   GL167573   2.166  12.247   5.824
 5371POPC   GL267574   1.871  12.052   5.892
 5371POPC   C1A67575   2.250  12.146   6.260
 5371POPC   D2A67576   2.058  11.863   6.529
 5371POPC   C3A67577   2.066  11.991   6.946
 5371POPC   C4A67578   2.097  12.378   7.207
 5371POPC   C1B67579   1.729  12.239   6.268
 5371POPC   C2B67580   1.816  12.358   6.687
 5371POPC   C3B67581   1.643  12.208   7.078
 5371POPC   C4B67582   1.731  12.176   7.514
 5372POPC   NC367583  11.715  10.778   5.435
 5372POPC   PO467584  11.127  10.562   5.376
 5372POPC   GL167585  11.254  10.419   5.794
 5372POPC   GL267586  11.535  10.567   5.860
 5372POPC   C1A67587  11.134  10.424   6.225
 5372POPC   D2A67588  11.390  10.332   6.570
 5372POPC   C3A67589  11.273  10.211   6.976
 5372POPC   C4A67590  11.068  10.188   7.397
 5372POPC   C1B67591  11.406  10.929   6.082
 5372POPC   C2B67592  11.450  10.900   6.522
 5372POPC   C3B67593  11.335  10.725   6.919
 5372POPC   C4B67594  11.390  10.859   7.329
 5373POPC   NC367595  17.548   3.374   5.473
 5373POPC   PO467596  17.521   4.010   5.362
 5373POPC   GL167597  17.536   3.791   5.825
 5373POPC   GL267598  17.330   3.493   5.911
 5373POPC   C1A67599  17.731   3.587   6.214
 5373POPC   D2A67600  17.464   3.405   6.572
 5373POPC   C3A67601  17.558   3.565   6.977
 5373POPC   C4A67602  17.438   3.841   7.280
 5373POPC   C1B67603  17.257   3.777   6.270
 5373POPC   C2B67604  17.175   3.823   6.713
 5373POPC   C3B67605  17.049   3.596   7.063
 5373POPC   C4B67606  16.955   3.708   7.489
 5374POPC   NC367607  11.828  42.756   5.372
 5374POPC   PO467608  12.247  42.193   5.417
 5374POPC   GL167609  12.099  42.395   5.750
 5374POPC   GL267610  12.389  42.402   6.007
 5374POPC   C1A67611  11.887  42.519   6.075
 5374POPC   D2A67612  11.811  42.437   6.501
 5374POPC   C3A67613  12.088  42.496   6.853
 5374POPC   C4A67614  11.941  42.483   7.288
 5374POPC   C1B67615  12.146  42.096   6.212
 5374POPC   C2B67616  12.120  41.944   6.628
 5374POPC   C3B67617  12.009  42.040   7.060
 5374POPC   C4B67618  12.324  42.158   7.413
 5375POPC   NC367619  15.422  38.735   5.338
 5375POPC   PO467620  14.997  38.173   5.376
 5375POPC   GL167621  15.098  38.433   5.739
 5375POPC   GL267622  14.812  38.332   5.895
 5375POPC   C1A67623  15.238  38.518   6.193
 5375POPC   D2A67624  15.422  38.227   6.541
 5375POPC   C3A67625  15.362  38.323   6.992
 5375POPC   C4A67626  15.069  38.579   7.226
 5375POPC   C1B67627  14.834  38.246   6.316
 5375POPC   C2B67628  14.934  38.417   6.716
 5375POPC   C3B67629  14.697  38.261   7.067
 5375POPC   C4B67630  14.756  38.277   7.545
 5376POPC   NC367631   2.526  32.581   5.181
 5376POPC   PO467632   2.184  32.074   5.450
 5376POPC   GL167633   2.186  32.244   5.842
 5376POPC   GL267634   1.878  32.424   5.921
 5376POPC   C1A67635   2.226  32.323   6.278
 5376POPC   D2A67636   1.900  32.410   6.534
 5376POPC   C3A67637   1.970  32.225   6.914
 5376POPC   C4A67638   1.845  32.079   7.315
 5376POPC   C1B67639   1.733  32.046   6.179
 5376POPC   C2B67640   1.475  31.856   6.502
 5376POPC   C3B67641   1.518  31.959   6.937
 5376POPC   C4B67642   1.335  32.011   7.362
 5377POPC   NC367643  41.483  17.862   5.304
 5377POPC   PO467644  41.808  18.458   5.228
 5377POPC   GL167645  41.564  18.415   5.674
 5377POPC   GL267646  41.480  18.076   5.772
 5377POPC   C1A67647  41.427  18.428   6.162
 5377POPC   D2A67648  41.563  18.607   6.568
 5377POPC   C3A67649  41.539  18.488   7.003
 5377POPC   C4A67650  41.895  18.250   7.190
 5377POPC   C1B67651  41.591  17.953   6.205
 5377POPC   C2B67652  41.668  18.099   6.642
 5377POPC   C3B67653  41.487  17.981   7.038
 5377POPC   C4B67654  41.615  17.704   7.353
 5378POPC   NC367655  42.108   9.201   5.268
 5378POPC   PO467656  41.422   9.139   5.551
 5378POPC   GL167657  41.404   8.836   5.888
 5378POPC   GL267658  41.685   8.618   5.920
 5378POPC   C1A67659  41.396   8.919   6.343
 5378POPC   D2A67660  41.596   9.027   6.722
 5378POPC   C3A67661  41.371   8.985   7.066
 5378POPC   C4A67662  41.200   9.255   7.327
 5378POPC   C1B67663  41.822   8.328   6.211
 5378POPC   C2B67664  41.793   8.569   6.584
 5378POPC   C3B67665  41.744   8.588   7.020
 5378POPC   C4B67666  41.681   8.228   7.300
 5379POPC   NC367667  27.024  31.876   5.654
 5379POPC   PO467668  26.791  32.390   5.224
 5379POPC   GL167669  26.744  32.309   5.727
 5379POPC   GL267670  26.580  31.998   5.888
 5379POPC   C1A67671  26.917  32.310   6.169
 5379POPC   D2A67672  27.153  32.325   6.576
 5379POPC   C3A67673  26.970  32.190   6.961
 5379POPC   C4A67674  26.676  32.306   7.290
 5379POPC   C1B67675  26.677  31.868   6.314
 5379POPC   C2B67676  26.532  32.017   6.721
 5379POPC   C3B67677  26.282  31.996   7.092
 5379POPC   C4B67678  26.383  31.968   7.557
 5380POPC   NC367679  39.408  23.922   5.088
 5380POPC   PO467680  39.501  23.648   5.663
 5380POPC   GL167681  39.253  23.726   5.983
 5380POPC   GL267682  38.979  23.938   5.897
 5380POPC   C1A67683  39.179  23.879   6.373
 5380POPC   D2A67684  39.216  23.656   6.736
 5380POPC   C3A67685  39.294  23.916   7.074
 5380POPC   C4A67686  39.695  24.088   7.198
 5380POPC   C1B67687  38.766  23.663   6.147
 5380POPC   C2B67688  38.705  23.687   6.581
 5380POPC   C3B67689  38.777  23.688   7.017
 5380POPC   C4B67690  38.937  23.757   7.421
 5381POPC   NC367691  31.074  36.763   5.446
 5381POPC   PO467692  31.556  37.192   5.364
 5381POPC   GL167693  31.650  36.999   5.770
 5381POPC   GL267694  31.348  36.856   5.877
 5381POPC   C1A67695  31.748  36.871   6.200
 5381POPC   D2A67696  31.664  37.031   6.590
 5381POPC   C3A67697  31.747  36.797   6.980
 5381POPC   C4A67698  31.655  36.991   7.392
 5381POPC   C1B67699  31.220  36.800   6.316
 5381POPC   C2B67700  31.163  36.760   6.752
 5381POPC   C3B67701  31.259  36.692   7.187
 5381POPC   C4B67702  31.335  36.640   7.621
 5382POPC   NC367703   9.043   1.393   5.359
 5382POPC   PO467704   9.194   0.863   5.648
 5382POPC   GL167705   9.153   1.244   5.860
 5382POPC   GL267706   8.812   1.406   5.872
 5382POPC   C1A67707   9.174   1.277   6.298
 5382POPC   D2A67708   9.158   1.493   6.665
 5382POPC   C3A67709   9.177   1.210   6.957
 5382POPC   C4A67710   9.238   1.211   7.362
 5382POPC   C1B67711   8.746   1.015   6.142
 5382POPC   C2B67712   8.886   0.859   6.564
 5382POPC   C3B67713   8.676   1.007   6.929
 5382POPC   C4B67714   8.725   1.339   7.187
 5383POPC   NC367715  11.011  11.050   5.302
 5383POPC   PO467716  11.638  11.304   5.374
 5383POPC   GL167717  11.538  11.379   5.800
 5383POPC   GL267718  11.155  11.443   5.822
 5383POPC   C1A67719  11.469  11.466   6.232
 5383POPC   D2A67720  11.260  11.352   6.614
 5383POPC   C3A67721  11.498  11.234   6.976
 5383POPC   C4A67722  11.478  11.347   7.454
 5383POPC   C1B67723  10.977  11.627   6.234
 5383POPC   C2B67724  11.037  11.793   6.689
 5383POPC   C3B67725  11.204  11.635   7.077
 5383POPC   C4B67726  11.025  11.578   7.490
 5384POPC   NC367727   2.671  15.021   5.340
 5384POPC   PO467728   2.260  15.436   5.504
 5384POPC   GL167729   2.555  15.168   5.814
 5384POPC   GL267730   2.944  15.060   5.771
 5384POPC   C1A67731   2.757  15.053   6.224
 5384POPC   D2A67732   3.014  15.168   6.556
 5384POPC   C3A67733   2.804  15.068   6.925
 5384POPC   C4A67734   2.667  15.172   7.304
 5384POPC   C1B67735   3.119  15.393   6.094
 5384POPC   C2B67736   3.171  15.639   6.492
 5384POPC   C3B67737   3.009  15.558   6.909
 5384POPC   C4B67738   3.126  15.400   7.305
 5385POPC   NC367739  24.191   9.585   5.392
 5385POPC   PO467740  24.858   9.561   5.101
 5385POPC   GL167741  24.713   9.767   5.547
 5385POPC   GL267742  24.420   9.976   5.621
 5385POPC   C1A67743  24.751   9.885   6.006
 5385POPC   D2A67744  24.547   9.868   6.424
 5385POPC   C3A67745  24.694   9.720   6.811
 5385POPC   C4A67746  24.510   9.800   7.224
 5385POPC   C1B67747  24.279  10.105   6.061
 5385POPC   C2B67748  24.123  10.187   6.528
 5385POPC   C3B67749  24.260  10.183   6.999
 5385POPC   C4B67750  24.241  10.151   7.506
 5386POPC   NC367751  40.458  25.862   5.578
 5386POPC   PO467752  41.007  26.124   5.302
 5386POPC   GL167753  40.897  26.070   5.767
 5386POPC   GL267754  40.565  26.220   5.925
 5386POPC   C1A67755  41.012  26.208   6.191
 5386POPC   D2A67756  40.773  26.349   6.523
 5386POPC   C3A67757  40.833  26.163   6.942
 5386POPC   C4A67758  40.546  26.104   7.258
 5386POPC   C1B67759  40.640  25.855   6.234
 5386POPC   C2B67760  40.639  25.745   6.681
 5386POPC   C3B67761  40.401  25.683   7.050
 5386POPC   C4B67762  40.380  25.629   7.520
 5387POPC   NC367763  23.935   1.089   5.371
 5387POPC   PO467764  23.276   0.931   5.494
 5387POPC   GL167765  23.509   1.209   5.838
 5387POPC   GL267766  23.887   1.294   5.828
 5387POPC   C1A67767  23.688   1.167   6.280
 5387POPC   D2A67768  23.465   0.992   6.641
 5387POPC   C3A67769  23.630   1.014   7.041
 5387POPC   C4A67770  23.673   1.362   7.348
 5387POPC   C1B67771  24.069   1.505   6.204
 5387POPC   C2B67772  24.021   1.408   6.655
 5387POPC   C3B67773  24.121   1.102   7.000
 5387POPC   C4B67774  23.984   0.940   7.404
 5388POPC   NC367775   8.762  39.148   5.431
 5388POPC   PO467776   8.124  39.180   5.597
 5388POPC   GL167777   8.267  39.242   5.962
 5388POPC   GL267778   8.570  39.349   5.877
 5388POPC   C1A67779   8.247  39.228   6.388
 5388POPC   D2A67780   8.146  38.997   6.767
 5388POPC   C3A67781   8.233  39.138   7.172
 5388POPC   C4A67782   8.146  38.958   7.596
 5388POPC   C1B67783   8.631  39.554   6.266
 5388POPC   C2B67784   8.295  39.695   6.555
 5388POPC   C3B67785   8.241  39.609   6.955
 5388POPC   C4B67786   8.609  39.521   7.168
 5389POPC   NC367787  25.967   1.514   5.414
 5389POPC   PO467788  25.687   0.865   5.405
 5389POPC   GL167789  25.806   0.895   5.848
 5389POPC   GL267790  26.036   1.177   5.837
 5389POPC   C1A67791  25.828   1.096   6.294
 5389POPC   D2A67792  25.826   1.468   6.598
 5389POPC   C3A67793  25.974   1.394   7.034
 5389POPC   C4A67794  25.849   1.513   7.461
 5389POPC   C1B67795  26.245   0.858   6.129
 5389POPC   C2B67796  26.150   0.793   6.587
 5389POPC   C3B67797  26.131   0.906   7.033
 5389POPC   C4B67798  26.168   0.663   7.392
 5390POPC   NC367799  14.186   1.743   5.143
 5390POPC   PO467800  14.737   2.056   5.392
 5390POPC   GL167801  14.477   2.030   5.772
 5390POPC   GL267802  14.149   1.842   5.709
 5390POPC   C1A67803  14.444   1.974   6.247
 5390POPC   D2A67804  14.494   2.061   6.702
 5390POPC   C3A67805  14.798   1.800   6.945
 5390POPC   C4A67806  14.789   1.657   7.370
 5390POPC   C1B67807  14.044   2.197   6.028
 5390POPC   C2B67808  14.000   2.178   6.518
 5390POPC   C3B67809  14.080   2.265   6.984
 5390POPC   C4B67810  14.047   2.172   7.459
 5391POPC   NC367811  17.266   8.005   5.532
 5391POPC   PO467812  16.750   8.341   5.203
 5391POPC   GL167813  16.697   8.230   5.668
 5391POPC   GL267814  16.657   8.573   5.739
 5391POPC   C1A67815  16.671   8.082   6.129
 5391POPC   D2A67816  16.800   7.954   6.575
 5391POPC   C3A67817  16.652   8.118   6.974
 5391POPC   C4A67818  16.365   7.975   7.286
 5391POPC   C1B67819  16.781   8.627   6.165
 5391POPC   C2B67820  16.594   8.459   6.549
 5391POPC   C3B67821  16.541   8.640   6.962
 5391POPC   C4B67822  16.886   8.611   7.205
 5392POPC   NC367823  26.651  18.854   5.367
 5392POPC   PO467824  27.221  19.158   5.222
 5392POPC   GL167825  26.984  19.176   5.620
 5392POPC   GL267826  27.041  18.859   5.765
 5392POPC   C1A67827  26.740  19.182   6.040
 5392POPC   D2A67828  26.881  19.098   6.479
 5392POPC   C3A67829  26.666  19.161   6.878
 5392POPC   C4A67830  26.915  19.223   7.249
 5392POPC   C1B67831  26.926  18.679   6.169
 5392POPC   C2B67832  26.873  18.589   6.628
 5392POPC   C3B67833  26.940  18.697   7.067
 5392POPC   C4B67834  26.555  18.807   7.256
 5393POPC   NC367835  31.969   5.333   5.510
 5393POPC   PO467836  31.473   4.885   5.353
 5393POPC   GL167837  31.475   5.085   5.748
 5393POPC   GL267838  31.796   4.977   5.862
 5393POPC   C1A67839  31.276   5.217   6.174
 5393POPC   D2A67840  31.301   5.290   6.665
 5393POPC   C3A67841  31.253   4.937   7.044
 5393POPC   C4A67842  31.291   5.086   7.546
 5393POPC   C1B67843  31.787   5.303   6.132
 5393POPC   C2B67844  31.812   5.307   6.548
 5393POPC   C3B67845  31.717   5.147   6.928
 5393POPC   C4B67846  31.689   5.277   7.304
 5394POPC   NC367847  40.938   0.253   5.463
 5394POPC   PO467848  40.587   0.859   5.424
 5394POPC   GL167849  40.760   0.619   5.789
 5394POPC   GL267850  40.650   0.255   5.861
 5394POPC   C1A67851  41.038   0.626   6.158
 5394POPC   D2A67852  40.882   0.564   6.557
 5394POPC   C3A67853  41.062   0.733   6.905
 5394POPC   C4A67854  40.834   0.601   7.270
 5394POPC   C1B67855  40.848   0.146   6.245
 5394POPC   C2B67856  41.069   0.060   6.588
 5394POPC   C3B67857  41.014   0.222   6.972
 5394POPC   C4B67858  40.700   0.090   7.246
 5395POPC   NC367859  17.789  39.754   5.053
 5395POPC   PO467860  17.418  40.227   5.401
 5395POPC   GL167861  17.386  40.091   5.817
 5395POPC   GL267862  17.620  40.346   5.901
 5395POPC   C1A67863  17.559  39.874   6.196
 5395POPC   D2A67864  17.346  39.700   6.571
 5395POPC   C3A67865  17.518  39.729   6.951
 5395POPC   C4A67866  17.449  39.809   7.375
 5395POPC   C1B67867  17.474  40.360   6.310
 5395POPC   C2B67868  17.470  40.175   6.701
 5395POPC   C3B67869  17.678  40.197   7.108
 5395POPC   C4B67870  17.792  40.131   7.584
 5396POPC   NC367871  42.770   1.688   5.433
 5396POPC   PO467872  43.343   2.018   5.252
 5396POPC   GL167873  43.133   2.120   5.647
 5396POPC   GL267874  43.176   1.798   5.777
 5396POPC   C1A67875  43.281   2.216   6.095
 5396POPC   D2A67876  43.513   1.977   6.455
 5396POPC   C3A67877  43.220   1.851   6.743
 5396POPC   C4A67878  43.203   1.965   7.143
 5396POPC   C1B67879  43.111   1.762   6.231
 5396POPC   C2B67880  42.777   1.645   6.493
 5396POPC   C3B67881  42.576   1.739   6.856
 5396POPC   C4B67882  42.746   1.813   7.256
 5397POPC   NC367883  29.253  40.873   5.601
 5397POPC   PO467884  28.758  40.492   5.215
 5397POPC   GL167885  28.870  40.523   5.691
 5397POPC   GL267886  29.201  40.397   5.777
 5397POPC   C1A67887  28.892  40.699   6.131
 5397POPC   D2A67888  28.827  41.004   6.476
 5397POPC   C3A67889  28.878  40.855   6.916
 5397POPC   C4A67890  28.891  41.026   7.342
 5397POPC   C1B67891  29.319  40.373   6.194
 5397POPC   C2B67892  29.167  40.570   6.559
 5397POPC   C3B67893  29.231  40.444   6.942
 5397POPC   C4B67894  29.277  40.711   7.256
 5398POPC   NC367895  38.177  12.948   5.565
 5398POPC   PO467896  38.721  12.596   5.550
 5398POPC   GL167897  38.504  12.705   5.882
 5398POPC   GL267898  38.647  13.016   5.869
 5398POPC   C1A67899  38.355  12.803   6.288
 5398POPC   D2A67900  38.093  12.747   6.614
 5398POPC   C3A67901  38.275  12.787   6.977
 5398POPC   C4A67902  38.277  12.886   7.393
 5398POPC   C1B67903  38.839  12.987   6.260
 5398POPC   C2B67904  38.730  12.895   6.683
 5398POPC   C3B67905  38.619  13.189   7.000
 5398POPC   C4B67906  38.388  13.398   7.307
 5399POPC   NC367907   7.494  33.956   5.366
 5399POPC   PO467908   7.022  33.579   5.388
 5399POPC   GL167909   7.299  33.645   5.751
 5399POPC   GL267910   7.385  33.989   5.851
 5399POPC   C1A67911   7.218  33.632   6.205
 5399POPC   D2A67912   7.316  33.893   6.578
 5399POPC   C3A67913   7.149  33.698   6.940
 5399POPC   C4A67914   6.927  33.692   7.327
 5399POPC   C1B67915   7.654  33.927   6.166
 5399POPC   C2B67916   7.854  34.037   6.529
 5399POPC   C3B67917   7.740  33.880   6.899
 5399POPC   C4B67918   7.452  33.998   7.218
 5400POPC   NC367919  30.157  15.402   5.630
 5400POPC   PO467920  29.685  15.972   5.502
 5400POPC   GL167921  29.907  15.941   5.830
 5400POPC   GL267922  29.803  15.618   5.905
 5400POPC   C1A67923  29.910  16.189   6.199
 5400POPC   D2A67924  29.786  16.090   6.609
 5400POPC   C3A67925  30.051  16.161   6.904
 5400POPC   C4A67926  30.046  16.197   7.308
 5400POPC   C1B67927  29.841  15.687   6.316
 5400POPC   C2B67928  30.024  15.646   6.706
 5400POPC   C3B67929  30.066  15.717   7.128
 5400POPC   C4B67930  29.830  15.734   7.456
 5401POPC   NC367931   1.134  38.066   5.582
 5401POPC   PO467932   1.388  38.552   5.200
 5401POPC   GL167933   1.140  38.508   5.759
 5401POPC   GL267934   1.405  38.289   5.947
 5401POPC   C1A67935   1.141  38.612   6.222
 5401POPC   D2A67936   1.315  38.553   6.624
 5401POPC   C3A67937   1.068  38.667   6.958
 5401POPC   C4A67938   1.178  38.733   7.355
 5401POPC   C1B67939   1.522  38.145   6.374
 5401POPC   C2B67940   1.588  38.155   6.840
 5401POPC   C3B67941   1.265  38.235   7.178
 5401POPC   C4B67942   0.838  38.371   7.357
 5402POPC   NC367943  15.075  40.429   5.469
 5402POPC   PO467944  15.240  41.115   5.319
 5402POPC   GL167945  15.318  40.830   5.701
 5402POPC   GL267946  14.948  40.811   5.776
 5402POPC   C1A67947  15.296  40.624   6.134
 5402POPC   D2A67948  15.078  40.669   6.551
 5402POPC   C3A67949  15.369  40.837   6.866
 5402POPC   C4A67950  15.247  40.955   7.292
 5402POPC   C1B67951  14.953  41.032   6.145
 5402POPC   C2B67952  14.822  41.214   6.506
 5402POPC   C3B67953  14.889  41.105   6.903
 5402POPC   C4B67954  14.868  41.311   7.280
 5403POPC   NC367955  28.553   3.185   5.521
 5403POPC   PO467956  28.346   2.597   5.483
 5403POPC   GL167957  28.428   2.748   5.893
 5403POPC   GL267958  28.224   3.034   5.886
 5403POPC   C1A67959  28.231   2.604   6.304
 5403POPC   D2A67960  27.900   2.553   6.657
 5403POPC   C3A67961  28.136   2.560   7.042
 5403POPC   C4A67962  28.579   2.601   7.038
 5403POPC   C1B67963  28.374   3.099   6.285
 5403POPC   C2B67964  28.216   3.017   6.678
 5403POPC   C3B67965  28.318   3.063   7.106
 5403POPC   C4B67966  28.341   3.224   7.520
 5404POPC   NC367967  28.197   2.144   5.529
 5404POPC   PO467968  28.630   1.639   5.428
 5404POPC   GL167969  28.392   1.729   5.786
 5404POPC   GL267970  28.250   1.417   5.832
 5404POPC   C1A67971  28.409   2.002   6.164
 5404POPC   D2A67972  28.684   1.962   6.513
 5404POPC   C3A67973  28.504   2.043   6.931
 5404POPC   C4A67974  28.524   1.754   7.310
 5404POPC   C1B67975  28.101   1.601   6.214
 5404POPC   C2B67976  28.190   1.764   6.625
 5404POPC   C3B67977  28.062   1.795   7.068
 5404POPC   C4B67978  28.064   1.741   7.554
 5405POPC   NC367979   7.354  39.499   5.640
 5405POPC   PO467980   7.454  38.848   5.524
 5405POPC   GL167981   7.383  39.018   5.904
 5405POPC   GL267982   7.708  39.155   5.898
 5405POPC   C1A67983   7.311  39.249   6.294
 5405POPC   D2A67984   7.355  39.144   6.719
 5405POPC   C3A67985   7.279  39.405   7.074
 5405POPC   C4A67986   7.290  39.016   7.318
 5405POPC   C1B67987   7.783  39.027   6.318
 5405POPC   C2B67988   7.819  39.362   6.636
 5405POPC   C3B67989   7.789  39.392   7.069
 5405POPC   C4B67990   7.830  39.773   7.287
 5406POPC   NC367991   7.108  21.524   5.446
 5406POPC   PO467992   7.826  21.692   5.481
 5406POPC   GL167993   7.573  21.357   5.728
 5406POPC   GL267994   7.264  21.442   5.906
 5406POPC   C1A67995   7.546  21.098   6.127
 5406POPC   D2A67996   7.585  21.257   6.525
 5406POPC   C3A67997   7.671  21.005   6.860
 5406POPC   C4A67998   7.531  21.271   7.171
 5406POPC   C1B67999   6.908  21.678   6.053
 5406POPC   C2B68000   6.858  21.699   6.467
 5406POPC   C3B68001   7.134  21.498   6.752
 5406POPC   C4B68002   7.088  21.578   7.153
 5407POPC   NC368003   0.794   0.432   5.151
 5407POPC   PO468004   0.185   0.630   5.414
 5407POPC   GL168005   0.348   0.457   5.781
 5407POPC   GL268006   0.677   0.536   5.653
 5407POPC   C1A68007   0.237   0.383   6.231
 5407POPC   D2A68008   0.317   0.134   6.635
 5407POPC   C3A68009   0.261   0.337   7.040
 5407POPC   C4A68010   0.255   0.523   7.462
 5407POPC   C1B68011   0.765   0.617   6.075
 5407POPC   C2B68012   0.659   0.499   6.497
 5407POPC   C3B68013   0.716   0.537   6.942
 5407POPC   C4B68014   0.727   0.326   7.335
 5408POPC   NC368015  13.229   7.528   5.427
 5408POPC   PO468016  13.793   7.257   5.294
 5408POPC   GL168017  13.720   7.523   5.712
 5408POPC   GL268018  13.688   7.909   5.792
 5408POPC   C1A68019  13.696   7.440   6.185
 5408POPC   D2A68020  13.475   7.175   6.509
 5408POPC   C3A68021  13.492   7.275   6.951
 5408POPC   C4A68022  13.811   7.514   7.169
 5408POPC   C1B68023  13.500   7.905   6.240
 5408POPC   C2B68024  13.531   7.733   6.690
 5408POPC   C3B68025  13.354   7.732   7.123
 5408POPC   C4B68026  13.403   7.460   7.506
 5409POPC   NC368027  25.220  36.187   4.884
 5409POPC   PO468028  25.446  35.803   5.439
 5409POPC   GL168029  25.335  36.055   5.776
 5409POPC   GL268030  25.019  36.226   5.755
 5409POPC   C1A68031  25.357  36.043   6.210
 5409POPC   D2A68032  25.611  36.164   6.557
 5409POPC   C3A68033  25.443  36.020   6.944
 5409POPC   C4A68034  25.290  36.013   7.342
 5409POPC   C1B68035  25.054  36.458   6.172
 5409POPC   C2B68036  25.115  36.302   6.604
 5409POPC   C3B68037  24.937  36.057   6.931
 5409POPC   C4B68038  24.939  36.373   7.234
 5410POPC   NC368039   0.809   3.649   5.343
 5410POPC   PO468040   1.494   3.484   5.360
 5410POPC   GL168041   1.190   3.452   5.695
 5410POPC   GL268042   1.328   3.736   5.837
 5410POPC   C1A68043   1.175   3.292   6.144
 5410POPC   D2A68044   1.369   3.510   6.523
 5410POPC   C3A68045   1.521   3.400   6.940
 5410POPC   C4A68046   1.166   3.321   7.196
 5410POPC   C1B68047   1.067   3.788   6.192
 5410POPC   C2B68048   1.110   3.945   6.596
 5410POPC   C3B68049   1.431   3.922   6.891
 5410POPC   C4B68050   1.333   3.810   7.279
 5411POPC   NC368051   9.905  13.963   5.435
 5411POPC   PO468052   9.518  13.444   5.485
 5411POPC   GL168053   9.693  13.556   5.845
 5411POPC   GL268054   9.577  13.207   5.920
 5411POPC   C1A68055   9.667  13.793   6.207
 5411POPC   D2A68056   9.901  13.930   6.548
 5411POPC   C3A68057   9.702  13.818   6.888
 5411POPC   C4A68058   9.822  13.700   7.270
 5411POPC   C1B68059   9.881  13.245   6.206
 5411POPC   C2B68060   9.821  13.429   6.568
 5411POPC   C3B68061   9.761  13.297   6.959
 5411POPC   C4B68062   9.837  13.191   7.354
 5412POPC   NC368063  20.441  30.364   5.496
 5412POPC   PO468064  20.831  30.953   5.296
 5412POPC   GL168065  20.540  30.820   5.670
 5412POPC   GL268066  20.178  30.937   5.620
 5412POPC   C1A68067  20.494  30.618   6.119
 5412POPC   D2A68068  20.694  30.674   6.554
 5412POPC   C3A68069  20.499  30.565   6.956
 5412POPC   C4A68070  20.748  30.573   7.325
 5412POPC   C1B68071  20.289  31.086   6.017
 5412POPC   C2B68072  20.295  31.022   6.465
 5412POPC   C3B68073  20.228  31.106   6.919
 5412POPC   C4B68074  20.337  30.931   7.334
 5413POPC   NC368075  31.117   8.530   5.563
 5413POPC   PO468076  31.572   8.053   5.301
 5413POPC   GL168077  31.408   8.146   5.720
 5413POPC   GL268078  31.648   7.985   5.902
 5413POPC   C1A68079  31.411   8.365   6.145
 5413POPC   D2A68080  31.673   8.301   6.523
 5413POPC   C3A68081  31.675   8.581   6.873
 5413POPC   C4A68082  31.455   8.512   7.249
 5413POPC   C1B68083  31.180   7.923   6.117
 5413POPC   C2B68084  31.008   8.069   6.526
 5413POPC   C3B68085  31.250   8.221   6.870
 5413POPC   C4B68086  31.465   8.014   7.200
 5414POPC   NC368087  21.849  21.328   5.156
 5414POPC   PO468088  21.268  21.438   5.415
 5414POPC   GL168089  21.270  21.412   5.876
 5414POPC   GL268090  21.141  21.148   6.115
 5414POPC   C1A68091  21.386  21.589   6.258
 5414POPC   D2A68092  21.393  21.463   6.683
 5414POPC   C3A68093  21.052  21.654   6.895
 5414POPC   C4A68094  21.096  21.729   7.343
 5414POPC   C1B68095  21.578  21.131   6.281
 5414POPC   C2B68096  21.744  21.057   6.661
 5414POPC   C3B68097  21.752  21.226   7.067
 5414POPC   C4B68098  21.629  21.103   7.466
 5415POPC   NC368099  39.834   6.233   5.491
 5415POPC   PO468100  39.181   6.079   5.282
 5415POPC   GL168101  39.208   5.985   5.727
 5415POPC   GL268102  38.883   5.798   5.743
 5415POPC   C1A68103  39.370   5.777   6.126
 5415POPC   D2A68104  39.409   5.989   6.541
 5415POPC   C3A68105  39.448   5.849   6.996
 5415POPC   C4A68106  39.464   6.133   7.402
 5415POPC   C1B68107  38.895   5.965   6.138
 5415POPC   C2B68108  38.895   5.864   6.532
 5415POPC   C3B68109  38.921   5.783   6.926
 5415POPC   C4B68110  39.019   6.050   7.183
 5416POPC   NC368111  37.297  28.463   5.489
 5416POPC   PO468112  37.793  28.851   5.449
 5416POPC   GL168113  37.746  28.597   5.843
 5416POPC   GL268114  37.448  28.384   5.972
 5416POPC   C1A68115  37.898  28.436   6.255
 5416POPC   D2A68116  37.810  28.419   6.698
 5416POPC   C3A68117  37.467  28.372   6.947
 5416POPC   C4A68118  37.794  28.370   7.269
 5416POPC   C1B68119  37.453  28.193   6.387
 5416POPC   C2B68120  37.467  27.886   6.737
 5416POPC   C3B68121  37.546  27.938   7.191
 5416POPC   C4B68122  37.453  27.842   7.633
 5417POPC   NC368123  11.069  25.344   5.414
 5417POPC   PO468124  11.590  24.967   5.496
 5417POPC   GL168125  11.447  25.348   5.772
 5417POPC   GL268126  11.137  25.247   5.899
 5417POPC   C1A68127  11.288  25.626   6.168
 5417POPC   D2A68128  11.165  25.531   6.612
 5417POPC   C3A68129  11.551  25.380   6.850
 5417POPC   C4A68130  11.696  25.476   7.255
 5417POPC   C1B68131  11.070  24.987   6.255
 5417POPC   C2B68132  11.207  25.002   6.683
 5417POPC   C3B68133  11.095  25.226   7.037
 5417POPC   C4B68134  11.345  25.122   7.362
 5418POPC   NC368135  43.793  37.477   5.512
 5418POPC   PO468136  44.457  37.435   5.423
 5418POPC   GL168137  44.189  37.597   5.836
 5418POPC   GL268138  43.922  37.350   5.990
 5418POPC   C1A68139  44.138  37.653   6.334
 5418POPC   D2A68140  44.020  37.396   6.709
 5418POPC   C3A68141  44.006  37.648   7.074
 5418POPC   C4A68142  43.954  38.113   7.152
 5418POPC   C1B68143  43.638  37.520   6.338
 5418POPC   C2B68144  43.595  37.711   6.765
 5418POPC   C3B68145  43.489  37.581   7.223
 5418POPC   C4B68146  43.617  37.322   7.588
 5419POPC   NC368147  28.501  31.715   5.410
 5419POPC   PO468148  27.971  31.317   5.477
 5419POPC   GL168149  28.177  31.482   5.849
 5419POPC   GL268150  28.549  31.457   5.845
 5419POPC   C1A68151  28.233  31.325   6.296
 5419POPC   D2A68152  28.113  30.995   6.618
 5419POPC   C3A68153  28.072  31.154   7.040
 5419POPC   C4A68154  28.094  31.590   7.196
 5419POPC   C1B68155  28.695  31.584   6.236
 5419POPC   C2B68156  28.678  31.309   6.595
 5419POPC   C3B68157  28.523  31.388   6.960
 5419POPC   C4B68158  28.705  31.663   7.198
 5420POPC   NC368159  10.841  14.188   5.721
 5420POPC   PO468160  10.773  14.634   5.214
 5420POPC   GL168161  11.181  14.568   5.690
 5420POPC   GL268162  11.542  14.564   5.812
 5420POPC   C1A68163  11.215  14.413   6.179
 5420POPC   D2A68164  10.939  14.280   6.549
 5420POPC   C3A68165  11.157  14.219   6.933
 5420POPC   C4A68166  11.176  14.362   7.347
 5420POPC   C1B68167  11.707  14.635   6.232
 5420POPC   C2B68168  11.475  14.539   6.608
 5420POPC   C3B68169  11.354  14.710   6.998
 5420POPC   C4B68170  11.526  14.711   7.404
 5421POPC   NC368171  39.591  39.655   5.184
 5421POPC   PO468172  39.974  39.182   5.533
 5421POPC   GL168173  39.783  39.227   5.868
 5421POPC   GL268174  39.732  39.550   5.867
 5421POPC   C1A68175  39.808  39.043   6.251
 5421POPC   D2A68176  40.052  38.855   6.519
 5421POPC   C3A68177  39.969  38.964   6.920
 5421POPC   C4A68178  40.336  38.974   7.130
 5421POPC   C1B68179  39.983  39.510   6.265
 5421POPC   C2B68180  39.847  39.416   6.684
 5421POPC   C3B68181  40.022  39.463   7.110
 5421POPC   C4B68182  39.924  39.561   7.557
 5422POPC   NC368183  27.055  24.414   5.403
 5422POPC   PO468184  27.772  24.466   5.439
 5422POPC   GL168185  27.822  24.665   5.843
 5422POPC   GL268186  27.816  24.341   5.989
 5422POPC   C1A68187  27.592  24.717   6.295
 5422POPC   D2A68188  27.331  24.783   6.698
 5422POPC   C3A68189  27.497  24.631   7.115
 5422POPC   C4A68190  27.429  24.644   7.596
 5422POPC   C1B68191  27.477  24.222   6.276
 5422POPC   C2B68192  27.500  24.268   6.715
 5422POPC   C3B68193  27.395  24.106   7.135
 5422POPC   C4B68194  27.682  24.245   7.405
 5423POPC   NC368195   6.431  37.018   5.603
 5423POPC   PO468196   6.645  36.551   5.191
 5423POPC   GL168197   6.746  36.583   5.702
 5423POPC   GL268198   6.889  36.895   5.854
 5423POPC   C1A68199   6.705  36.553   6.183
 5423POPC   D2A68200   6.663  36.876   6.523
 5423POPC   C3A68201   6.451  36.756   6.889
 5423POPC   C4A68202   6.745  36.734   7.206
 5423POPC   C1B68203   6.815  37.237   6.177
 5423POPC   C2B68204   6.513  37.397   6.445
 5423POPC   C3B68205   6.601  37.408   6.874
 5423POPC   C4B68206   6.462  37.161   7.222
 5424POPC   NC368207  28.975  41.853   5.539
 5424POPC   PO468208  29.233  42.410   5.190
 5424POPC   GL168209  29.193  42.351   5.655
 5424POPC   GL268210  28.940  42.556   5.825
 5424POPC   C1A68211  29.347  42.240   6.080
 5424POPC   D2A68212  29.288  42.073   6.503
 5424POPC   C3A68213  29.018  42.254   6.792
 5424POPC   C4A68214  29.102  42.236   7.223
 5424POPC   C1B68215  28.877  42.353   6.248
 5424POPC   C2B68216  28.783  41.954   6.459
 5424POPC   C3B68217  28.659  41.887   6.875
 5424POPC   C4B68218  28.673  41.998   7.290
 5425POPC   NC368219  32.200  25.849   5.371
 5425POPC   PO468220  31.935  26.374   5.687
 5425POPC   GL168221  32.017  25.974   5.838
 5425POPC   GL268222  32.380  25.923   5.834
 5425POPC   C1A68223  31.978  25.738   6.214
 5425POPC   D2A68224  32.170  25.807   6.615
 5425POPC   C3A68225  31.934  25.826   7.008
 5425POPC   C4A68226  32.226  25.786   7.346
 5425POPC   C1B68227  32.432  26.071   6.253
 5425POPC   C2B68228  32.553  26.238   6.671
 5425POPC   C3B68229  32.571  26.208   7.129
 5425POPC   C4B68230  32.369  26.401   7.512
 5426POPC   NC368231   3.362  25.828   5.528
 5426POPC   PO468232   3.538  25.224   5.267
 5426POPC   GL168233   3.541  25.377   5.707
 5426POPC   GL268234   3.170  25.439   5.789
 5426POPC   C1A68235   3.646  25.351   6.169
 5426POPC   D2A68236   3.474  25.238   6.589
 5426POPC   C3A68237   3.551  25.458   6.977
 5426POPC   C4A68238   3.641  25.106   7.205
 5426POPC   C1B68239   3.117  25.309   6.200
 5426POPC   C2B68240   2.996  25.400   6.599
 5426POPC   C3B68241   3.100  25.184   6.996
 5426POPC   C4B68242   3.203  25.303   7.396
 5427POPC   NC368243  15.711  43.171   5.514
 5427POPC   PO468244  16.309  43.364   5.413
 5427POPC   GL168245  16.178  43.159   5.848
 5427POPC   GL268246  16.186  42.793   5.904
 5427POPC   C1A68247  16.175  43.072   6.333
 5427POPC   D2A68248  15.859  43.253   6.606
 5427POPC   C3A68249  16.001  43.329   6.993
 5427POPC   C4A68250  16.176  43.078   7.299
 5427POPC   C1B68251  15.775  42.871   6.108
 5427POPC   C2B68252  15.703  42.768   6.535
 5427POPC   C3B68253  15.876  42.810   6.949
 5427POPC   C4B68254  15.597  42.923   7.247
 5428POPC   NC368255  40.162  36.996   5.210
 5428POPC   PO468256  39.728  36.603   5.276
 5428POPC   GL168257  39.650  36.705   5.725
 5428POPC   GL268258  39.864  36.984   5.850
 5428POPC   C1A68259  39.718  36.601   6.167
 5428POPC   D2A68260  39.953  36.830   6.496
 5428POPC   C3A68261  39.823  36.779   6.934
 5428POPC   C4A68262  39.964  36.460   7.205
 5428POPC   C1B68263  39.656  37.171   6.232
 5428POPC   C2B68264  39.796  37.285   6.670
 5428POPC   C3B68265  40.195  37.162   6.838
 5428POPC   C4B68266  40.195  36.995   7.218
 5429POPC   NC368267  22.749  32.498   5.409
 5429POPC   PO468268  23.192  32.035   5.460
 5429POPC   GL168269  22.818  32.049   5.745
 5429POPC   GL268270  22.800  32.385   5.900
 5429POPC   C1A68271  22.806  31.941   6.204
 5429POPC   D2A68272  23.200  31.951   6.478
 5429POPC   C3A68273  23.249  31.961   6.935
 5429POPC   C4A68274  22.922  32.140   7.211
 5429POPC   C1B68275  22.998  32.399   6.285
 5429POPC   C2B68276  22.886  32.304   6.720
 5429POPC   C3B68277  22.857  32.601   7.040
 5429POPC   C4B68278  23.054  32.626   7.424
 5430POPC   NC368279  16.683  44.445   5.232
 5430POPC   PO468280  17.103  44.831   5.404
 5430POPC   GL168281  16.773  44.709   5.755
 5430POPC   GL268282  16.676  44.387   5.840
 5430POPC   C1A68283  16.631  44.753   6.215
 5430POPC   D2A68284  16.773  44.648   6.660
 5430POPC   C3A68285  16.481  44.576   7.049
 5430POPC   C4A68286  16.437  44.733   7.521
 5430POPC   C1B68287  17.019  44.407   6.186
 5430POPC   C2B68288  17.243  44.428   6.589
 5430POPC   C3B68289  17.090  44.447   7.022
 5430POPC   C4B68290  16.885  44.640   7.356
 5431POPC   NC368291  27.194  18.025   5.500
 5431POPC   PO468292  27.773  18.497   5.437
 5431POPC   GL168293  27.484  18.368   5.754
 5431POPC   GL268294  27.669  18.041   5.725
 5431POPC   C1A68295  27.381  18.399   6.214
 5431POPC   D2A68296  27.640  18.342   6.607
 5431POPC   C3A68297  27.448  18.517   6.998
 5431POPC   C4A68298  27.331  18.476   7.457
 5431POPC   C1B68299  27.557  17.922   6.145
 5431POPC   C2B68300  27.489  17.810   6.579
 5431POPC   C3B68301  27.553  17.996   6.994
 5431POPC   C4B68302  27.639  18.073   7.447
 5432POPC   NC368303   6.470  41.860   5.504
 5432POPC   PO468304   6.887  41.276   5.328
 5432POPC   GL168305   6.677  41.299   5.757
 5432POPC   GL268306   6.381  41.421   5.953
 5432POPC   C1A68307   6.826  41.311   6.191
 5432POPC   D2A68308   6.724  41.510   6.601
 5432POPC   C3A68309   6.910  41.433   7.033
 5432POPC   C4A68310   6.845  41.257   7.461
 5432POPC   C1B68311   6.532  41.782   6.188
 5432POPC   C2B68312   6.487  41.981   6.591
 5432POPC   C3B68313   6.487  41.781   6.974
 5432POPC   C4B68314   6.324  41.742   7.360
 5433POPC   NC368315   7.980  21.220   5.442
 5433POPC   PO468316   8.686  21.398   5.486
 5433POPC   GL168317   8.550  21.533   5.873
 5433POPC   GL268318   8.194  21.531   5.818
 5433POPC   C1A68319   8.482  21.426   6.294
 5433POPC   D2A68320   8.743  21.323   6.631
 5433POPC   C3A68321   8.534  21.463   6.975
 5433POPC   C4A68322   8.338  21.374   7.373
 5433POPC   C1B68323   7.953  21.482   6.195
 5433POPC   C2B68324   8.098  21.560   6.627
 5433POPC   C3B68325   7.973  21.621   7.047
 5433POPC   C4B68326   7.550  21.780   7.195
 5434POPC   NC368327  37.753   4.137   5.268
 5434POPC   PO468328  37.287   4.511   5.569
 5434POPC   GL168329  37.456   4.168   5.772
 5434POPC   GL268330  37.795   4.280   5.758
 5434POPC   C1A68331  37.633   4.058   6.202
 5434POPC   D2A68332  37.694   4.138   6.647
 5434POPC   C3A68333  37.568   4.482   6.879
 5434POPC   C4A68334  37.488   4.150   7.155
 5434POPC   C1B68335  37.954   4.493   6.130
 5434POPC   C2B68336  38.075   4.668   6.526
 5434POPC   C3B68337  38.087   4.574   6.947
 5434POPC   C4B68338  37.913   4.387   7.278
 5435POPC   NC368339  15.113  10.069   5.505
 5435POPC   PO468340  15.354   9.447   5.420
 5435POPC   GL168341  15.414   9.574   5.822
 5435POPC   GL268342  15.515   9.903   5.851
 5435POPC   C1A68343  15.149   9.626   6.202
 5435POPC   D2A68344  15.063   9.449   6.624
 5435POPC   C3A68345  14.801   9.611   6.961
 5435POPC   C4A68346  14.847  10.015   7.183
 5435POPC   C1B68347  15.329  10.130   6.202
 5435POPC   C2B68348  15.124   9.974   6.595
 5435POPC   C3B68349  15.288   9.785   6.967
 5435POPC   C4B68350  15.505   9.675   7.349
 5436POPC   NC368351  35.934  27.679   5.286
 5436POPC   PO468352  36.479  28.088   5.523
 5436POPC   GL168353  36.197  27.834   5.786
 5436POPC   GL268354  35.856  27.922   5.739
 5436POPC   C1A68355  36.094  27.516   6.124
 5436POPC   D2A68356  35.859  27.494   6.532
 5436POPC   C3A68357  36.013  27.310   6.922
 5436POPC   C4A68358  36.296  27.181   7.247
 5436POPC   C1B68359  35.879  27.978   6.199
 5436POPC   C2B68360  36.079  27.982   6.610
 5436POPC   C3B68361  36.021  27.823   7.069
 5436POPC   C4B68362  35.782  27.898   7.501
 5437POPC   NC368363  35.899  33.956   5.349
 5437POPC   PO468364  36.434  33.594   5.442
 5437POPC   GL168365  36.193  33.925   5.769
 5437POPC   GL268366  35.801  33.916   5.841
 5437POPC   C1A68367  36.314  34.045   6.201
 5437POPC   D2A68368  36.451  33.720   6.530
 5437POPC   C3A68369  36.285  33.724   6.958
 5437POPC   C4A68370  36.343  33.502   7.305
 5437POPC   C1B68371  35.885  33.768   6.265
 5437POPC   C2B68372  36.009  34.007   6.643
 5437POPC   C3B68373  35.911  34.086   7.117
 5437POPC   C4B68374  35.832  34.025   7.586
 5438POPC   NC368375  35.069  41.315   5.367
 5438POPC   PO468376  35.354  41.952   5.399
 5438POPC   GL168377  35.495  41.720   5.760
 5438POPC   GL268378  35.189  41.560   5.827
 5438POPC   C1A68379  35.550  41.532   6.196
 5438POPC   D2A68380  35.542  41.760   6.597
 5438POPC   C3A68381  35.500  41.546   6.971
 5438POPC   C4A68382  35.178  41.766   7.082
 5438POPC   C1B68383  34.999  41.471   6.228
 5438POPC   C2B68384  35.090  41.452   6.647
 5438POPC   C3B68385  34.883  41.365   7.005
 5438POPC   C4B68386  35.125  41.347   7.346
 5439POPC   NC368387  25.900  26.531   5.461
 5439POPC   PO468388  25.925  27.202   5.443
 5439POPC   GL168389  26.018  26.982   5.811
 5439POPC   GL268390  26.332  27.108   5.868
 5439POPC   C1A68391  26.092  27.087   6.290
 5439POPC   D2A68392  26.396  27.203   6.579
 5439POPC   C3A68393  26.226  27.151   6.979
 5439POPC   C4A68394  25.992  26.803   7.178
 5439POPC   C1B68395  26.313  26.687   6.078
 5439POPC   C2B68396  26.248  26.652   6.548
 5439POPC   C3B68397  26.428  26.682   6.968
 5439POPC   C4B68398  26.382  26.528   7.414
 5440POPC   NC368399  44.801  39.796   5.438
 5440POPC   PO468400  44.868  40.422   5.377
 5440POPC   GL168401  44.999  40.197   5.769
 5440POPC   GL268402  44.717  39.975   5.898
 5440POPC   C1A68403  44.986  40.207   6.249
 5440POPC   D2A68404   0.071  39.938   6.605
 5440POPC   C3A68405  44.875  40.038   7.016
 5440POPC   C4A68406  44.655  40.149   7.429
 5440POPC   C1B68407  44.719  39.732   6.295
 5440POPC   C2B68408  44.684  39.622   6.765
 5440POPC   C3B68409  44.623  39.631   7.227
 5440POPC   C4B68410  44.589  39.353   7.583
 5441POPC   NC368411   2.458   1.889   5.421
 5441POPC   PO468412   2.839   2.376   5.517
 5441POPC   GL168413   2.890   2.024   5.832
 5441POPC   GL268414   2.733   1.663   5.793
 5441POPC   C1A68415   2.780   2.120   6.275
 5441POPC   D2A68416   2.650   2.267   6.719
 5441POPC   C3A68417   3.005   2.185   7.015
 5441POPC   C4A68418   3.084   1.908   7.335
 5441POPC   C1B68419   2.697   1.587   6.233
 5441POPC   C2B68420   2.693   1.772   6.627
 5441POPC   C3B68421   2.627   1.835   7.046
 5441POPC   C4B68422   2.678   1.597   7.402
 5442POPC   NC368423  30.101  28.174   5.525
 5442POPC   PO468424  29.639  28.565   5.256
 5442POPC   GL168425  29.656  28.370   5.691
 5442POPC   GL268426  29.899  28.627   5.753
 5442POPC   C1A68427  29.713  28.404   6.169
 5442POPC   D2A68428  29.934  28.296   6.559
 5442POPC   C3A68429  29.698  28.361   6.949
 5442POPC   C4A68430  29.617  28.341   7.379
 5442POPC   C1B68431  30.201  28.524   6.098
 5442POPC   C2B68432  30.274  28.711   6.485
 5442POPC   C3B68433  30.242  28.781   6.921
 5442POPC   C4B68434  30.111  28.506   7.273
 5443POPC   NC368435  20.391   2.304   5.325
 5443POPC   PO468436  20.766   2.953   5.300
 5443POPC   GL168437  20.594   2.800   5.711
 5443POPC   GL268438  20.788   2.549   5.850
 5443POPC   C1A68439  20.403   2.732   6.126
 5443POPC   D2A68440  20.512   2.764   6.555
 5443POPC   C3A68441  20.368   2.697   6.969
 5443POPC   C4A68442  20.625   2.960   7.200
 5443POPC   C1B68443  20.908   2.804   6.185
 5443POPC   C2B68444  21.023   2.719   6.589
 5443POPC   C3B68445  20.953   2.612   7.013
 5443POPC   C4B68446  20.963   2.306   7.323
 5444POPC   NC368447  23.537  29.037   5.369
 5444POPC   PO468448  24.239  29.127   5.494
 5444POPC   GL168449  23.894  29.308   5.798
 5444POPC   GL268450  23.603  29.094   5.878
 5444POPC   C1A68451  23.769  29.393   6.271
 5444POPC   D2A68452  23.547  29.153   6.618
 5444POPC   C3A68453  23.656  29.195   7.092
 5444POPC   C4A68454  23.552  29.039   7.542
 5444POPC   C1B68455  23.788  28.871   6.231
 5444POPC   C2B68456  23.589  28.624   6.562
 5444POPC   C3B68457  23.492  28.654   7.012
 5444POPC   C4B68458  23.848  28.742   7.282
 5445POPC   NC368459  43.786   7.099   5.341
 5445POPC   PO468460  43.616   7.687   5.185
 5445POPC   GL168461  43.749   7.523   5.691
 5445POPC   GL268462  43.943   7.192   5.819
 5445POPC   C1A68463  44.003   7.596   6.133
 5445POPC   D2A68464  44.128   7.435   6.608
 5445POPC   C3A68465  43.929   7.637   6.948
 5445POPC   C4A68466  43.494   7.583   7.128
 5445POPC   C1B68467  43.674   7.201   6.209
 5445POPC   C2B68468  43.622   7.335   6.674
 5445POPC   C3B68469  43.802   7.144   7.075
 5445POPC   C4B68470  43.662   6.781   7.333
 5446POPC   NC368471  22.219  21.915   5.533
 5446POPC   PO468472  21.682  22.377   5.368
 5446POPC   GL168473  21.974  22.297   5.754
 5446POPC   GL268474  22.342  22.397   5.736
 5446POPC   C1A68475  21.999  22.121   6.195
 5446POPC   D2A68476  22.087  22.321   6.621
 5446POPC   C3A68477  21.891  22.249   7.064
 5446POPC   C4A68478  21.944  22.030   7.521
 5446POPC   C1B68479  22.491  22.289   6.154
 5446POPC   C2B68480  22.446  21.991   6.468
 5446POPC   C3B68481  22.274  21.928   6.886
 5446POPC   C4B68482  22.392  22.316   7.095
 5447POPC   NC368483  35.030   5.549   5.332
 5447POPC   PO468484  35.503   5.948   5.378
 5447POPC   GL168485  35.344   6.035   5.756
 5447POPC   GL268486  35.039   6.251   5.737
 5447POPC   C1A68487  35.583   5.971   6.115
 5447POPC   D2A68488  35.724   5.724   6.442
 5447POPC   C3A68489  35.689   5.889   6.869
 5447POPC   C4A68490  35.478   5.847   7.271
 5447POPC   C1B68491  35.252   6.354   6.151
 5447POPC   C2B68492  35.280   6.219   6.607
 5447POPC   C3B68493  35.274   6.238   7.046
 5447POPC   C4B68494  35.308   6.282   7.502
 5448POPC   NC368495  33.564   0.355   5.443
 5448POPC   PO468496  34.135   0.544   5.652
 5448POPC   GL168497  33.886   0.510   5.991
 5448POPC   GL268498  33.564   0.636   5.866
 5448POPC   C1A68499  33.822   0.200   6.323
 5448POPC   D2A68500  33.652   0.108   6.744
 5448POPC   C3A68501  33.883   0.329   7.050
 5448POPC   C4A68502  33.878   0.790   7.150
 5448POPC   C1B68503  33.481   0.598   6.282
 5448POPC   C2B68504  33.667   0.647   6.658
 5448POPC   C3B68505  33.405   0.698   6.977
 5448POPC   C4B68506  33.488   0.503   7.326
 5449POPC   NC368507  27.073  31.883   5.157
 5449POPC   PO468508  26.526  31.690   5.497
 5449POPC   GL168509  26.748  31.348   5.741
 5449POPC   GL268510  27.042  31.458   5.912
 5449POPC   C1A68511  26.773  31.160   6.174
 5449POPC   D2A68512  26.930  31.382   6.515
 5449POPC   C3A68513  26.830  31.172   6.908
 5449POPC   C4A68514  26.853  31.119   7.319
 5449POPC   C1B68515  27.287  31.709   6.226
 5449POPC   C2B68516  27.286  31.833   6.650
 5449POPC   C3B68517  27.062  31.617   6.960
 5449POPC   C4B68518  26.730  31.787   7.206
 5450POPC   NC368519   1.021  44.462   5.232
 5450POPC   PO468520   1.051   0.130   5.409
 5450POPC   GL168521   1.114  44.750   5.680
 5450POPC   GL268522   1.460  44.643   5.675
 5450POPC   C1A68523   1.099  44.486   6.065
 5450POPC   D2A68524   0.978  44.582   6.504
 5450POPC   C3A68525   1.237  44.478   6.874
 5450POPC   C4A68526   1.050  44.418   7.273
 5450POPC   C1B68527   1.462  44.857   6.116
 5450POPC   C2B68528   1.348  44.965   6.567
 5450POPC   C3B68529   1.487  44.918   7.012
 5450POPC   C4B68530   1.593   0.214   7.332
 5451POPC   NC368531  31.139  33.386   5.420
 5451POPC   PO468532  31.605  32.913   5.183
 5451POPC   GL168533  31.596  33.116   5.632
 5451POPC   GL268534  31.284  33.096   5.815
 5451POPC   C1A68535  31.700  33.104   6.117
 5451POPC   D2A68536  31.809  32.900   6.527
 5451POPC   C3A68537  31.662  33.071   6.934
 5451POPC   C4A68538  31.578  32.843   7.312
 5451POPC   C1B68539  31.105  33.067   6.209
 5451POPC   C2B68540  31.270  32.902   6.566
 5451POPC   C3B68541  31.194  32.866   6.973
 5451POPC   C4B68542  31.005  32.943   7.341
 5452POPC   NC368543  35.819  18.068   5.524
 5452POPC   PO468544  36.159  18.586   5.190
 5452POPC   GL168545  36.274  18.424   5.653
 5452POPC   GL268546  36.369  18.070   5.690
 5452POPC   C1A68547  36.143  18.251   6.110
 5452POPC   D2A68548  36.197  18.238   6.566
 5452POPC   C3A68549  35.913  18.497   6.830
 5452POPC   C4A68550  35.680  18.506   7.228
 5452POPC   C1B68551  36.489  17.889   6.110
 5452POPC   C2B68552  36.468  17.794   6.570
 5452POPC   C3B68553  36.430  18.010   6.989
 5452POPC   C4B68554  36.276  17.785   7.360
 5453POPC   NC368555  19.234   4.829   5.378
 5453POPC   PO468556  19.453   5.440   5.371
 5453POPC   GL168557  19.289   5.230   5.773
 5453POPC   GL268558  19.138   4.907   5.882
 5453POPC   C1A68559  19.386   5.206   6.227
 5453POPC   D2A68560  19.154   5.134   6.615
 5453POPC   C3A68561  19.305   5.299   7.005
 5453POPC   C4A68562  19.319   5.188   7.443
 5453POPC   C1B68563  19.093   4.683   6.276
 5453POPC   C2B68564  19.022   4.635   6.713
 5453POPC   C3B68565  18.995   4.884   7.066
 5453POPC   C4B68566  18.938   4.843   7.499
 5454POPC   NC368567  42.265  18.343   5.206
 5454POPC   PO468568  42.212  17.656   5.283
 5454POPC   GL168569  42.140  18.035   5.640
 5454POPC   GL268570  42.095  18.435   5.667
 5454POPC   C1A68571  42.277  18.187   6.089
 5454POPC   D2A68572  42.529  18.264   6.502
 5454POPC   C3A68573  42.318  18.208   6.898
 5454POPC   C4A68574  42.077  17.821   7.023
 5454POPC   C1B68575  41.912  18.547   6.054
 5454POPC   C2B68576  42.034  18.434   6.475
 5454POPC   C3B68577  42.009  18.643   6.848
 5454POPC   C4B68578  42.250  18.636   7.210
 5455POPC   NC368579  18.612  28.929   5.337
 5455POPC   PO468580  19.056  29.402   5.296
 5455POPC   GL168581  19.245  29.424   5.718
 5455POPC   GL268582  18.995  29.184   5.818
 5455POPC   C1A68583  19.336  29.321   6.176
 5455POPC   D2A68584  19.356  29.498   6.607
 5455POPC   C3A68585  19.199  29.235   6.941
 5455POPC   C4A68586  19.259  28.829   7.091
 5455POPC   C1B68587  19.025  28.871   6.163
 5455POPC   C2B68588  19.063  28.769   6.615
 5455POPC   C3B68589  18.771  28.903   6.964
 5455POPC   C4B68590  18.690  29.317   7.136
 5456POPC   NC368591  35.027  34.375   5.602
 5456POPC   PO468592  34.456  34.466   5.217
 5456POPC   GL168593  34.511  34.342   5.634
 5456POPC   GL268594  34.642  34.659   5.776
 5456POPC   C1A68595  34.498  34.313   6.093
 5456POPC   D2A68596  34.398  34.483   6.462
 5456POPC   C3A68597  34.609  34.287   6.802
 5456POPC   C4A68598  34.531  34.265   7.244
 5456POPC   C1B68599  34.884  34.669   6.184
 5456POPC   C2B68600  34.759  34.810   6.599
 5456POPC   C3B68601  34.797  34.743   7.027
 5456POPC   C4B68602  34.804  35.147   7.240
 5457POPC   NC368603  42.711  33.030   5.533
 5457POPC   PO468604  42.116  33.226   5.231
 5457POPC   GL168605  42.198  32.952   5.635
 5457POPC   GL268606  41.926  32.811   5.814
 5457POPC   C1A68607  42.336  32.890   6.116
 5457POPC   D2A68608  42.123  33.032   6.520
 5457POPC   C3A68609  42.368  33.012   6.907
 5457POPC   C4A68610  42.647  33.194   7.174
 5457POPC   C1B68611  41.909  32.609   6.250
 5457POPC   C2B68612  41.837  32.596   6.721
 5457POPC   C3B68613  41.974  32.763   7.123
 5457POPC   C4B68614  42.158  32.990   7.486
 5458POPC   NC368615  17.801  19.651   5.341
 5458POPC   PO468616  17.156  20.051   5.445
 5458POPC   GL168617  17.313  19.803   5.755
 5458POPC   GL268618  17.619  19.930   5.720
 5458POPC   C1A68619  17.280  19.615   6.154
 5458POPC   D2A68620  17.439  19.748   6.525
 5458POPC   C3A68621  17.240  19.739   6.907
 5458POPC   C4A68622  17.027  19.971   7.229
 5458POPC   C1B68623  17.780  19.937   6.143
 5458POPC   C2B68624  17.983  19.936   6.525
 5458POPC   C3B68625  17.830  19.748   6.866
 5458POPC   C4B68626  17.793  19.894   7.255
 5459POPC   NC368627  33.566   6.006   5.541
 5459POPC   PO468628  33.822   5.388   5.410
 5459POPC   GL168629  33.964   5.690   5.800
 5459POPC   GL268630  34.112   6.056   5.727
 5459POPC   C1A68631  33.837   5.934   6.217
 5459POPC   D2A68632  33.756   5.978   6.692
 5459POPC   C3A68633  33.416   5.857   6.962
 5459POPC   C4A68634  33.413   5.553   7.323
 5459POPC   C1B68635  34.203   6.284   6.128
 5459POPC   C2B68636  34.235   6.079   6.551
 5459POPC   C3B68637  34.123   6.176   6.988
 5459POPC   C4B68638  33.777   6.082   7.250
 5460POPC   NC368639  19.902  43.487   5.474
 5460POPC   PO468640  20.012  42.763   5.561
 5460POPC   GL168641  19.986  43.112   5.822
 5460POPC   GL268642  19.665  43.252   5.895
 5460POPC   C1A68643  20.124  43.338   6.185
 5460POPC   D2A68644  19.920  43.451   6.550
 5460POPC   C3A68645  19.970  43.130   6.834
 5460POPC   C4A68646  20.053  43.245   7.240
 5460POPC   C1B68647  19.711  42.998   6.291
 5460POPC   C2B68648  19.412  42.693   6.505
 5460POPC   C3B68649  19.328  42.674   6.959
 5460POPC   C4B68650  19.663  42.902   7.193
 5461POPC   NC368651   6.942   8.651   5.574
 5461POPC   PO468652   6.489   9.167   5.409
 5461POPC   GL168653   6.718   9.079   5.770
 5461POPC   GL268654   6.554   8.771   5.879
 5461POPC   C1A68655   6.870   9.182   6.191
 5461POPC   D2A68656   6.687   9.333   6.598
 5461POPC   C3A68657   6.850   9.301   7.027
 5461POPC   C4A68658   6.811   9.238   7.481
 5461POPC   C1B68659   6.391   9.013   6.235
 5461POPC   C2B68660   6.500   8.855   6.640
 5461POPC   C3B68661   6.690   8.825   7.043
 5461POPC   C4B68662   6.554   8.820   7.503
 5462POPC   NC368663   3.674  34.807   5.630
 5462POPC   PO468664   3.198  34.426   5.315
 5462POPC   GL168665   3.410  34.324   5.754
 5462POPC   GL268666   3.787  34.319   5.754
 5462POPC   C1A68667   3.515  34.482   6.222
 5462POPC   D2A68668   3.783  34.736   6.562
 5462POPC   C3A68669   3.504  34.772   6.942
 5462POPC   C4A68670   3.198  34.504   7.131
 5462POPC   C1B68671   4.004  34.412   6.158
 5462POPC   C2B68672   3.891  34.225   6.541
 5462POPC   C3B68673   3.858  34.374   6.966
 5462POPC   C4B68674   3.867  34.673   7.289
 5463POPC   NC368675  17.402  34.781   5.338
 5463POPC   PO468676  17.674  34.224   5.445
 5463POPC   GL168677  17.525  34.537   5.784
 5463POPC   GL268678  17.154  34.701   5.789
 5463POPC   C1A68679  17.722  34.536   6.196
 5463POPC   D2A68680  17.727  34.767   6.554
 5463POPC   C3A68681  17.820  34.515   6.885
 5463POPC   C4A68682  17.785  34.675   7.280
 5463POPC   C1B68683  17.212  34.423   6.179
 5463POPC   C2B68684  17.382  34.374   6.601
 5463POPC   C3B68685  17.297  34.383   7.040
 5463POPC   C4B68686  17.305  34.604   7.424
 5464POPC   NC368687  38.655  30.657   5.726
 5464POPC   PO468688  38.237  30.391   5.252
 5464POPC   GL168689  38.162  30.505   5.740
 5464POPC   GL268690  38.147  30.817   5.929
 5464POPC   C1A68691  38.272  30.401   6.205
 5464POPC   D2A68692  38.582  30.508   6.530
 5464POPC   C3A68693  38.368  30.565   6.900
 5464POPC   C4A68694  38.387  30.465   7.306
 5464POPC   C1B68695  38.272  30.920   6.377
 5464POPC   C2B68696  38.377  31.060   6.817
 5464POPC   C3B68697  38.521  30.942   7.223
 5464POPC   C4B68698  38.191  30.887   7.545
 5465POPC   NC368699   4.171  39.474   5.335
 5465POPC   PO468700   4.076  38.787   5.479
 5465POPC   GL168701   4.277  39.104   5.800
 5465POPC   GL268702   4.373  39.479   5.827
 5465POPC   C1A68703   4.258  38.987   6.237
 5465POPC   D2A68704   3.990  38.828   6.541
 5465POPC   C3A68705   4.077  39.068   6.892
 5465POPC   C4A68706   4.330  38.977   7.237
 5465POPC   C1B68707   4.494  39.503   6.278
 5465POPC   C2B68708   4.490  39.338   6.685
 5465POPC   C3B68709   4.321  39.488   7.084
 5465POPC   C4B68710   4.441  39.415   7.509
 5466POPC   NC368711   7.730  18.656   5.583
 5466POPC   PO468712   7.296  19.144   5.266
 5466POPC   GL168713   7.381  19.039   5.717
 5466POPC   GL268714   7.202  18.791   5.912
 5466POPC   C1A68715   7.593  19.091   6.146
 5466POPC   D2A68716   7.816  19.032   6.559
 5466POPC   C3A68717   7.616  19.213   6.906
 5466POPC   C4A68718   7.413  19.071   7.291
 5466POPC   C1B68719   7.089  19.018   6.283
 5466POPC   C2B68720   7.178  18.990   6.739
 5466POPC   C3B68721   7.072  18.736   7.138
 5466POPC   C4B68722   7.028  18.861   7.590
 5467POPC   NC368723  10.028   7.541   5.386
 5467POPC   PO468724   9.488   7.955   5.458
 5467POPC   GL168725   9.739   7.734   5.809
 5467POPC   GL268726   9.807   7.356   5.810
 5467POPC   C1A68727   9.628   7.581   6.251
 5467POPC   D2A68728   9.402   7.370   6.629
 5467POPC   C3A68729   9.672   7.426   7.002
 5467POPC   C4A68730   9.829   7.465   7.432
 5467POPC   C1B68731   9.962   7.094   6.147
 5467POPC   C2B68732   9.878   7.204   6.547
 5467POPC   C3B68733   9.765   6.950   6.852
 5467POPC   C4B68734   9.845   6.962   7.279
 5468POPC   NC368735   4.138  26.523   5.351
 5468POPC   PO468736   3.464  26.829   5.355
 5468POPC   GL168737   3.382  26.667   5.754
 5468POPC   GL268738   3.693  26.788   5.821
 5468POPC   C1A68739   3.434  26.586   6.216
 5468POPC   D2A68740   3.488  26.838   6.575
 5468POPC   C3A68741   3.616  26.684   6.953
 5468POPC   C4A68742   3.497  26.562   7.332
 5468POPC   C1B68743   3.724  27.151   6.099
 5468POPC   C2B68744   3.826  27.218   6.519
 5468POPC   C3B68745   3.721  27.202   6.952
 5468POPC   C4B68746   3.729  26.993   7.365
 5469POPC   NC368747  38.708  21.818   5.310
 5469POPC   PO468748  38.306  21.289   5.348
 5469POPC   GL168749  38.340  21.319   5.758
 5469POPC   GL268750  38.308  21.695   5.721
 5469POPC   C1A68751  38.427  21.244   6.203
 5469POPC   D2A68752  38.582  21.374   6.596
 5469POPC   C3A68753  38.333  21.389   6.937
 5469POPC   C4A68754  38.373  21.183   7.305
 5469POPC   C1B68755  38.054  21.604   6.086
 5469POPC   C2B68756  38.143  21.650   6.512
 5469POPC   C3B68757  38.178  21.875   6.892
 5469POPC   C4B68758  37.934  21.684   7.202
 5470POPC   NC368759   1.803  25.436   5.481
 5470POPC   PO468760   2.323  24.983   5.399
 5470POPC   GL168761   2.002  24.964   5.721
 5470POPC   GL268762   2.200  25.206   5.877
 5470POPC   C1A68763   1.774  25.031   6.164
 5470POPC   D2A68764   1.978  25.038   6.571
 5470POPC   C3A68765   1.763  25.154   6.940
 5470POPC   C4A68766   1.934  25.115   7.333
 5470POPC   C1B68767   2.095  25.423   6.241
 5470POPC   C2B68768   2.168  25.637   6.619
 5470POPC   C3B68769   2.059  25.546   7.013
 5470POPC   C4B68770   2.263  25.555   7.352
 5471POPC   NC368771  21.161  14.807   5.428
 5471POPC   PO468772  21.454  14.260   5.344
 5471POPC   GL168773  21.474  14.207   5.755
 5471POPC   GL268774  21.435  14.570   5.824
 5471POPC   C1A68775  21.315  14.132   6.162
 5471POPC   D2A68776  21.335  14.357   6.564
 5471POPC   C3A68777  21.163  14.236   6.969
 5471POPC   C4A68778  21.431  14.154   7.290
 5471POPC   C1B68779  21.572  14.712   6.255
 5471POPC   C2B68780  21.509  14.839   6.711
 5471POPC   C3B68781  21.347  14.686   7.140
 5471POPC   C4B68782  20.948  14.658   7.351
 5472POPC   NC368783   6.095   9.452   5.562
 5472POPC   PO468784   5.729  10.031   5.343
 5472POPC   GL168785   5.838   9.890   5.755
 5472POPC   GL268786   5.620   9.622   5.776
 5472POPC   C1A68787   5.879   9.794   6.213
 5472POPC   D2A68788   5.803  10.003   6.623
 5472POPC   C3A68789   6.054   9.927   6.992
 5472POPC   C4A68790   6.031   9.573   7.318
 5472POPC   C1B68791   5.543   9.392   6.152
 5472POPC   C2B68792   5.570   9.531   6.563
 5472POPC   C3B68793   5.667   9.606   6.969
 5472POPC   C4B68794   5.477   9.528   7.371
 5473POPC   NC368795   6.267   1.008   5.318
 5473POPC   PO468796   6.944   1.295   5.381
 5473POPC   GL168797   6.756   1.176   5.769
 5473POPC   GL268798   6.447   1.398   5.730
 5473POPC   C1A68799   6.846   1.151   6.220
 5473POPC   D2A68800   6.836   1.440   6.590
 5473POPC   C3A68801   6.748   1.242   6.983
 5473POPC   C4A68802   6.762   0.939   7.305
 5473POPC   C1B68803   6.341   1.201   6.128
 5473POPC   C2B68804   6.445   1.059   6.552
 5473POPC   C3B68805   6.260   1.102   6.962
 5473POPC   C4B68806   6.333   1.389   7.269
 5474POPC   NC368807  21.647  18.067   5.255
 5474POPC   PO468808  21.233  18.399   5.627
 5474POPC   GL168809  21.624  18.319   5.813
 5474POPC   GL268810  21.843  18.610   5.869
 5474POPC   C1A68811  21.521  18.102   6.206
 5474POPC   D2A68812  21.462  17.948   6.615
 5474POPC   C3A68813  21.222  18.128   6.969
 5474POPC   C4A68814  21.504  18.141   7.309
 5474POPC   C1B68815  21.513  18.629   6.214
 5474POPC   C2B68816  21.409  18.456   6.596
 5474POPC   C3B68817  21.533  18.551   6.992
 5474POPC   C4B68818  21.221  18.584   7.310
 5475POPC   NC368819  33.586  10.913   5.428
 5475POPC   PO468820  33.970  10.309   5.433
 5475POPC   GL168821  33.688  10.409   5.787
 5475POPC   GL268822  33.374  10.155   5.813
 5475POPC   C1A68823  33.912  10.612   6.169
 5475POPC   D2A68824  33.984  10.920   6.525
 5475POPC   C3A68825  33.865  10.780   6.960
 5475POPC   C4A68826  33.462  10.553   7.034
 5475POPC   C1B68827  33.509  10.264   6.247
 5475POPC   C2B68828  33.747  10.391   6.622
 5475POPC   C3B68829  33.887  10.261   7.040
 5475POPC   C4B68830  33.653  10.278   7.432
 5476POPC   NC368831   9.395  36.240   5.360
 5476POPC   PO468832  10.042  36.274   5.463
 5476POPC   GL168833   9.766  35.988   5.650
 5476POPC   GL268834   9.627  36.270   5.836
 5476POPC   C1A68835   9.642  35.821   6.058
 5476POPC   D2A68836   9.697  36.127   6.414
 5476POPC   C3A68837   9.595  36.002   6.810
 5476POPC   C4A68838   9.606  36.103   7.241
 5476POPC   C1B68839   9.955  36.488   6.119
 5476POPC   C2B68840  10.134  36.477   6.507
 5476POPC   C3B68841   9.810  36.478   6.825
 5476POPC   C4B68842   9.794  36.583   7.249
 5477POPC   NC368843  36.567  25.786   5.298
 5477POPC   PO468844  35.978  26.189   5.425
 5477POPC   GL168845  35.976  25.912   5.759
 5477POPC   GL268846  36.209  26.098   5.982
 5477POPC   C1A68847  35.845  25.822   6.179
 5477POPC   D2A68848  36.128  26.002   6.525
 5477POPC   C3A68849  36.043  25.914   6.971
 5477POPC   C4A68850  36.264  26.119   7.328
 5477POPC   C1B68851  36.547  25.903   6.241
 5477POPC   C2B68852  36.601  25.723   6.653
 5477POPC   C3B68853  36.514  25.704   7.076
 5477POPC   C4B68854  36.198  25.589   7.357
 5478POPC   NC368855  13.396  43.963   5.452
 5478POPC   PO468856  13.985  44.258   5.469
 5478POPC   GL168857  13.751  44.090   5.843
 5478POPC   GL268858  13.552  43.753   5.894
 5478POPC   C1A68859  13.663  44.101   6.276
 5478POPC   D2A68860  13.443  44.121   6.630
 5478POPC   C3A68861  13.683  43.922   6.913
 5478POPC   C4A68862  13.661  43.960   7.350
 5478POPC   C1B68863  13.263  43.766   6.264
 5478POPC   C2B68864  13.273  43.614   6.691
 5478POPC   C3B68865  13.205  43.882   7.037
 5478POPC   C4B68866  13.191  43.777   7.417
 5479POPC   NC368867   7.270   8.962   4.682
 5479POPC   PO468868   7.253   9.030   5.402
 5479POPC   GL168869   7.399   8.984   5.807
 5479POPC   GL268870   7.587   8.721   5.663
 5479POPC   C1A68871   7.363   9.009   6.280
 5479POPC   D2A68872   7.072   8.979   6.643
 5479POPC   C3A68873   7.224   8.927   7.061
 5479POPC   C4A68874   7.041   8.632   7.358
 5479POPC   C1B68875   7.576   8.578   6.073
 5479POPC   C2B68876   7.359   8.464   6.430
 5479POPC   C3B68877   7.378   8.482   6.853
 5479POPC   C4B68878   7.560   8.554   7.229
 5480POPC   NC368879  36.116  17.132   5.334
 5480POPC   PO468880  36.126  17.770   5.331
 5480POPC   GL168881  36.213  17.548   5.722
 5480POPC   GL268882  35.991  17.776   5.910
 5480POPC   C1A68883  36.236  17.419   6.173
 5480POPC   D2A68884  36.015  17.546   6.562
 5480POPC   C3A68885  36.240  17.464   6.942
 5480POPC   C4A68886  36.141  17.127   7.223
 5480POPC   C1B68887  35.751  17.885   6.262
 5480POPC   C2B68888  35.747  18.001   6.671
 5480POPC   C3B68889  35.913  18.033   7.049
 5480POPC   C4B68890  35.778  18.034   7.457
 5481POPC   NC368891  20.160   8.307   5.380
 5481POPC   PO468892  19.644   7.992   5.196
 5481POPC   GL168893  19.729   7.997   5.687
 5481POPC   GL268894  19.906   8.304   5.853
 5481POPC   C1A68895  19.608   7.949   6.151
 5481POPC   D2A68896  19.622   7.810   6.600
 5481POPC   C3A68897  19.671   8.091   6.987
 5481POPC   C4A68898  19.779   8.216   7.448
 5481POPC   C1B68899  20.079   8.113   6.264
 5481POPC   C2B68900  20.129   8.155   6.739
 5481POPC   C3B68901  20.208   8.078   7.202
 5481POPC   C4B68902  20.247   8.038   7.655
 5482POPC   NC368903  23.529  17.676   5.468
 5482POPC   PO468904  23.951  17.234   5.304
 5482POPC   GL168905  23.875  17.421   5.765
 5482POPC   GL268906  23.846  17.774   5.892
 5482POPC   C1A68907  23.525  17.430   6.120
 5482POPC   D2A68908  23.438  17.238   6.539
 5482POPC   C3A68909  23.749  17.286   6.890
 5482POPC   C4A68910  23.529  17.525   7.184
 5482POPC   C1B68911  23.659  17.900   6.293
 5482POPC   C2B68912  23.640  17.769   6.720
 5482POPC   C3B68913  23.675  18.000   7.104
 5482POPC   C4B68914  23.819  17.817   7.474
 5483POPC   NC368915  31.404  10.893   5.447
 5483POPC   PO468916  31.621  10.231   5.434
 5483POPC   GL168917  31.724  10.234   5.868
 5483POPC   GL268918  31.513  10.561   5.888
 5483POPC   C1A68919  31.590  10.317   6.313
 5483POPC   D2A68920  31.487  10.590   6.624
 5483POPC   C3A68921  31.539  10.402   7.014
 5483POPC   C4A68922  31.376  10.080   7.268
 5483POPC   C1B68923  31.220  10.778   6.211
 5483POPC   C2B68924  30.996  10.723   6.643
 5483POPC   C3B68925  31.178  10.753   7.096
 5483POPC   C4B68926  31.577  10.785   7.352
 5484POPC   NC368927  38.749  19.354   5.496
 5484POPC   PO468928  39.372  19.602   5.363
 5484POPC   GL168929  39.222  19.471   5.737
 5484POPC   GL268930  39.180  19.824   5.795
 5484POPC   C1A68931  39.382  19.486   6.164
 5484POPC   D2A68932  39.296  19.745   6.515
 5484POPC   C3A68933  39.246  19.622   6.937
 5484POPC   C4A68934  39.524  19.827   7.208
 5484POPC   C1B68935  38.918  19.710   6.133
 5484POPC   C2B68936  38.842  19.991   6.493
 5484POPC   C3B68937  38.837  20.007   6.940
 5484POPC   C4B68938  39.075  20.075   7.316
 5485POPC   NC368939   2.985  14.392   5.349
 5485POPC   PO468940   2.467  14.560   5.544
 5485POPC   GL168941   2.731  14.345   5.835
 5485POPC   GL268942   3.088  14.194   5.791
 5485POPC   C1A68943   2.688  14.507   6.251
 5485POPC   D2A68944   2.904  14.677   6.586
 5485POPC   C3A68945   2.667  14.563   6.957
 5485POPC   C4A68946   2.787  14.660   7.375
 5485POPC   C1B68947   3.172  14.432   6.163
 5485POPC   C2B68948   3.352  14.351   6.559
 5485POPC   C3B68949   3.215  14.472   6.978
 5485POPC   C4B68950   3.179  14.286   7.416
 5486POPC   NC368951  17.262   2.417   5.413
 5486POPC   PO468952  17.156   3.084   5.460
 5486POPC   GL168953  17.404   2.957   5.806
 5486POPC   GL268954  17.461   2.582   5.850
 5486POPC   C1A68955  17.608   3.088   6.178
 5486POPC   D2A68956  17.896   3.147   6.516
 5486POPC   C3A68957  17.720   3.083   6.933
 5486POPC   C4A68958  17.863   2.661   7.043
 5486POPC   C1B68959  17.304   2.680   6.253
 5486POPC   C2B68960  17.469   2.722   6.684
 5486POPC   C3B68961  17.375   2.518   7.080
 5486POPC   C4B68962  17.377   2.346   7.508
 5487POPC   NC368963  39.678  14.427   5.607
 5487POPC   PO468964  39.145  14.169   5.262
 5487POPC   GL168965  39.237  14.171   5.716
 5487POPC   GL268966  39.152  14.495   5.810
 5487POPC   C1A68967  39.353  14.227   6.194
 5487POPC   D2A68968  39.424  14.505   6.550
 5487POPC   C3A68969  39.201  14.404   6.923
 5487POPC   C4A68970  39.467  14.266   7.225
 5487POPC   C1B68971  39.116  14.725   6.198
 5487POPC   C2B68972  39.034  14.833   6.642
 5487POPC   C3B68973  38.862  14.779   7.060
 5487POPC   C4B68974  38.803  14.429   7.375
 5488POPC   NC368975  12.256   0.166   5.728
 5488POPC   PO468976  11.787   0.594   5.433
 5488POPC   GL168977  11.920   0.638   5.906
 5488POPC   GL268978  12.261   0.579   6.080
 5488POPC   C1A68979  11.866   0.631   6.373
 5488POPC   D2A68980  12.187   0.650   6.706
 5488POPC   C3A68981  12.037   0.582   7.125
 5488POPC   C4A68982  11.764   0.473   7.457
 5488POPC   C1B68983  12.270   0.223   6.367
 5488POPC   C2B68984  12.489  44.979   6.654
 5488POPC   C3B68985  12.298   0.183   6.947
 5488POPC   C4B68986  12.178   0.133   7.352
 5489POPC   NC368987  25.248  26.010   5.313
 5489POPC   PO468988  25.732  25.489   5.287
 5489POPC   GL168989  25.585  25.767   5.670
 5489POPC   GL268990  25.609  26.136   5.823
 5489POPC   C1A68991  25.242  25.834   5.997
 5489POPC   D2A68992  25.114  25.761   6.439
 5489POPC   C3A68993  25.113  26.088   6.746
 5489POPC   C4A68994  25.143  25.975   7.157
 5489POPC   C1B68995  25.636  25.930   6.286
 5489POPC   C2B68996  25.559  25.825   6.743
 5489POPC   C3B68997  25.659  26.028   7.151
 5489POPC   C4B68998  25.830  25.894   7.561
 5490POPC   NC368999  23.716  19.455   5.328
 5490POPC   PO469000  23.588  18.802   5.391
 5490POPC   GL169001  23.765  19.018   5.751
 5490POPC   GL269002  23.534  19.324   5.794
 5490POPC   C1A69003  23.934  18.839   6.168
 5490POPC   D2A69004  23.853  18.675   6.601
 5490POPC   C3A69005  23.986  18.898   6.979
 5490POPC   C4A69006  23.827  18.911   7.377
 5490POPC   C1B69007  23.847  19.349   6.137
 5490POPC   C2B69008  23.831  19.194   6.559
 5490POPC   C3B69009  23.752  19.357   6.960
 5490POPC   C4B69010  23.972  19.405   7.337
 5491POPC   NC369011   4.297  31.848   5.382
 5491POPC   PO469012   4.247  31.143   5.458
 5491POPC   GL169013   4.282  31.429   5.830
 5491POPC   GL269014   4.492  31.734   5.832
 5491POPC   C1A69015   4.389  31.430   6.298
 5491POPC   D2A69016   4.482  31.160   6.686
 5491POPC   C3A69017   4.319  31.259   7.081
 5491POPC   C4A69018   4.101  31.398   7.432
 5491POPC   C1B69019   4.765  31.869   6.172
 5491POPC   C2B69020   4.898  31.792   6.586
 5491POPC   C3B69021   4.630  31.639   6.891
 5491POPC   C4B69022   4.485  31.720   7.265
 5492POPC   NC369023   6.878   2.101   5.391
 5492POPC   PO469024   6.235   2.133   5.499
 5492POPC   GL169025   6.553   1.918   5.778
 5492POPC   GL269026   6.803   2.187   5.884
 5492POPC   C1A69027   6.602   1.685   6.184
 5492POPC   D2A69028   6.661   1.922   6.590
 5492POPC   C3A69029   6.579   1.765   6.982
 5492POPC   C4A69030   6.431   2.094   7.272
 5492POPC   C1B69031   7.006   2.004   6.218
 5492POPC   C2B69032   7.173   2.007   6.605
 5492POPC   C3B69033   7.013   2.069   6.983
 5492POPC   C4B69034   6.914   2.232   7.353
 5493POPC   NC369035   5.625  37.670   5.371
 5493POPC   PO469036   6.221  37.410   5.476
 5493POPC   GL169037   5.975  37.686   5.752
 5493POPC   GL269038   5.736  37.420   5.827
 5493POPC   C1A69039   5.789  37.858   6.145
 5493POPC   D2A69040   5.791  38.005   6.578
 5493POPC   C3A69041   5.724  37.746   6.934
 5493POPC   C4A69042   5.699  37.432   7.268
 5493POPC   C1B69043   6.045  37.414   6.168
 5493POPC   C2B69044   6.030  37.531   6.568
 5493POPC   C3B69045   6.122  37.455   6.973
 5493POPC   C4B69046   6.195  37.710   7.311
 5494POPC   NC369047  24.447  20.034   5.530
 5494POPC   PO469048  25.079  20.008   5.274
 5494POPC   GL169049  24.883  20.042   5.827
 5494POPC   GL269050  24.515  19.885   5.987
 5494POPC   C1A69051  24.860  19.778   6.304
 5494POPC   D2A69052  24.839  19.682   6.739
 5494POPC   C3A69053  24.914  20.094   6.897
 5494POPC   C4A69054  24.718  20.309   7.224
 5494POPC   C1B69055  24.101  19.785   6.176
 5494POPC   C2B69056  23.862  19.709   6.554
 5494POPC   C3B69057  24.055  19.766   6.954
 5494POPC   C4B69058  24.126  19.899   7.383
 5495POPC   NC369059  20.337  42.445   5.469
 5495POPC   PO469060  20.954  42.127   5.540
 5495POPC   GL169061  20.842  42.280   5.915
 5495POPC   GL269062  20.720  42.549   5.815
 5495POPC   C1A69063  20.463  42.381   6.215
 5495POPC   D2A69064  20.226  42.308   6.592
 5495POPC   C3A69065  20.455  42.296   6.957
 5495POPC   C4A69066  20.347  42.136   7.353
 5495POPC   C1B69067  20.847  42.720   6.193
 5495POPC   C2B69068  20.801  42.627   6.601
 5495POPC   C3B69069  20.872  42.742   7.007
 5495POPC   C4B69070  20.704  42.515   7.351
 5496POPC   NC369071   9.794  39.972   5.515
 5496POPC   PO469072   9.773  39.451   5.088
 5496POPC   GL169073   9.770  39.295   5.540
 5496POPC   GL269074   9.473  39.136   5.686
 5496POPC   C1A69075   9.779  39.341   6.027
 5496POPC   D2A69076   9.696  39.589   6.434
 5496POPC   C3A69077   9.767  39.355   6.848
 5496POPC   C4A69078   9.580  39.327   7.251
 5496POPC   C1B69079   9.435  38.952   6.101
 5496POPC   C2B69080   9.563  39.075   6.480
 5496POPC   C3B69081   9.364  39.035   6.889
 5496POPC   C4B69082   9.438  38.830   7.283
 5497POPC   NC369083   2.966  36.248   5.347
 5497POPC   PO469084   2.352  36.561   5.452
 5497POPC   GL169085   2.635  36.297   5.747
 5497POPC   GL269086   2.965  36.447   5.874
 5497POPC   C1A69087   2.781  36.045   6.112
 5497POPC   D2A69088   2.927  36.031   6.529
 5497POPC   C3A69089   2.755  36.031   6.953
 5497POPC   C4A69090   2.649  35.680   7.223
 5497POPC   C1B69091   2.981  36.525   6.345
 5497POPC   C2B69092   3.004  36.467   6.807
 5497POPC   C3B69093   2.840  36.566   7.217
 5497POPC   C4B69094   2.907  36.409   7.633
 5498POPC   NC369095   2.897  22.880   5.452
 5498POPC   PO469096   2.603  23.395   5.449
 5498POPC   GL169097   2.669  23.103   5.865
 5498POPC   GL269098   2.792  22.734   5.925
 5498POPC   C1A69099   2.664  23.250   6.312
 5498POPC   D2A69100   2.452  23.142   6.712
 5498POPC   C3A69101   2.676  23.095   7.105
 5498POPC   C4A69102   2.731  22.747   7.405
 5498POPC   C1B69103   2.645  22.737   6.377
 5498POPC   C2B69104   2.828  22.632   6.791
 5498POPC   C3B69105   2.790  22.299   7.153
 5498POPC   C4B69106   2.468  22.248   7.521
 5499POPC   NC369107  40.657  33.234   5.356
 5499POPC   PO469108  40.798  33.911   5.242
 5499POPC   GL169109  40.840  33.865   5.729
 5499POPC   GL269110  40.551  33.767   5.942
 5499POPC   C1A69111  40.939  33.995   6.173
 5499POPC   D2A69112  40.749  33.913   6.584
 5499POPC   C3A69113  41.033  33.807   6.891
 5499POPC   C4A69114  40.971  33.617   7.250
 5499POPC   C1B69115  40.704  33.479   6.270
 5499POPC   C2B69116  40.757  33.395   6.712
 5499POPC   C3B69117  40.538  33.605   7.010
 5499POPC   C4B69118  40.413  33.480   7.411
 5500POPC   NC369119  14.874  11.263   5.513
 5500POPC   PO469120  15.530  11.032   5.551
 5500POPC   GL169121  15.481  11.370   5.828
 5500POPC   GL269122  15.207  11.171   5.932
 5500POPC   C1A69123  15.561  11.401   6.281
 5500POPC   D2A69124  15.438  11.257   6.708
 5500POPC   C3A69125  15.540  11.582   7.010
 5500POPC   C4A69126  15.195  11.620   7.302
 5500POPC   C1B69127  15.065  11.305   6.314
 5500POPC   C2B69128  14.919  11.095   6.652
 5500POPC   C3B69129  14.973  11.259   7.027
 5500POPC   C4B69130  14.862  11.048   7.395
 5501POPC   NC369131  23.442   2.189   5.239
 5501POPC   PO469132  23.891   1.647   5.392
 5501POPC   GL169133  23.585   1.714   5.785
 5501POPC   GL269134  23.431   2.047   5.851
 5501POPC   C1A69135  23.638   1.797   6.256
 5501POPC   D2A69136  23.491   1.933   6.690
 5501POPC   C3A69137  23.774   1.747   6.994
 5501POPC   C4A69138  24.113   1.907   7.225
 5501POPC   C1B69139  23.546   2.305   6.254
 5501POPC   C2B69140  23.625   2.416   6.706
 5501POPC   C3B69141  23.711   2.251   7.104
 5501POPC   C4B69142  23.891   2.308   7.478
 5502POPC   NC369143  25.784  18.543   5.415
 5502POPC   PO469144  26.446  18.572   5.664
 5502POPC   GL169145  26.078  18.547   5.867
 5502POPC   GL269146  26.132  18.233   5.936
 5502POPC   C1A69147  26.053  18.538   6.334
 5502POPC   D2A69148  26.181  18.290   6.697
 5502POPC   C3A69149  26.105  18.451   7.126
 5502POPC   C4A69150  26.308  18.263   7.511
 5502POPC   C1B69151  25.783  18.110   6.176
 5502POPC   C2B69152  25.666  18.264   6.582
 5502POPC   C3B69153  25.770  18.038   6.954
 5502POPC   C4B69154  25.411  17.851   7.125
 5503POPC   NC369155  16.506   8.758   5.271
 5503POPC   PO469156  17.099   8.766   5.517
 5503POPC   GL169157  16.902   9.036   5.820
 5503POPC   GL269158  16.546   9.093   5.785
 5503POPC   C1A69159  16.914   9.135   6.258
 5503POPC   D2A69160  16.699   8.977   6.622
 5503POPC   C3A69161  16.811   9.109   7.035
 5503POPC   C4A69162  17.139   9.056   7.302
 5503POPC   C1B69163  16.397   9.126   6.239
 5503POPC   C2B69164  16.288   9.316   6.661
 5503POPC   C3B69165  16.310   9.214   7.115
 5503POPC   C4B69166  16.550   8.949   7.443
 5504POPC   NC369167  15.960  42.088   5.491
 5504POPC   PO469168  15.826  42.734   5.451
 5504POPC   GL169169  15.794  42.461   5.801
 5504POPC   GL269170  15.702  42.116   5.926
 5504POPC   C1A69171  16.035  42.411   6.197
 5504POPC   D2A69172  16.156  42.554   6.601
 5504POPC   C3A69173  16.005  42.296   6.931
 5504POPC   C4A69174  16.171  42.260   7.299
 5504POPC   C1B69175  16.018  41.890   6.172
 5504POPC   C2B69176  16.115  41.919   6.607
 5504POPC   C3B69177  16.353  41.875   6.988
 5504POPC   C4B69178  16.370  41.801   7.443
 5505POPC   NC369179  14.861  15.587   5.460
 5505POPC   PO469180  15.227  14.967   5.389
 5505POPC   GL169181  15.290  15.144   5.833
 5505POPC   GL269182  15.306  15.513   5.908
 5505POPC   C1A69183  15.297  15.056   6.272
 5505POPC   D2A69184  14.942  15.234   6.495
 5505POPC   C3A69185  14.950  15.192   6.930
 5505POPC   C4A69186  15.299  14.947   7.134
 5505POPC   C1B69187  15.309  15.575   6.386
 5505POPC   C2B69188  15.421  15.374   6.795
 5505POPC   C3B69189  15.363  15.447   7.257
 5505POPC   C4B69190  15.163  15.596   7.657
 5506POPC   NC369191  22.769  17.602   5.219
 5506POPC   PO469192  22.728  16.987   5.432
 5506POPC   GL169193  22.831  17.270   5.763
 5506POPC   GL269194  23.052  17.531   5.676
 5506POPC   C1A69195  23.040  17.217   6.175
 5506POPC   D2A69196  22.795  17.351   6.516
 5506POPC   C3A69197  22.972  17.432   6.918
 5506POPC   C4A69198  23.058  17.487   7.363
 5506POPC   C1B69199  22.926  17.690   6.098
 5506POPC   C2B69200  23.188  17.702   6.492
 5506POPC   C3B69201  23.193  17.885   6.935
 5506POPC   C4B69202  22.814  17.937   7.171
 5507POPC   NC369203   2.546   6.036   5.283
 5507POPC   PO469204   3.040   5.643   5.447
 5507POPC   GL169205   2.832   5.982   5.741
 5507POPC   GL269206   2.557   6.279   5.726
 5507POPC   C1A69207   2.771   5.753   6.148
 5507POPC   D2A69208   2.936   5.643   6.573
 5507POPC   C3A69209   2.974   5.988   6.832
 5507POPC   C4A69210   2.879   5.947   7.240
 5507POPC   C1B69211   2.434   6.138   6.128
 5507POPC   C2B69212   2.555   6.052   6.532
 5507POPC   C3B69213   2.534   6.243   6.931
 5507POPC   C4B69214   2.428   6.095   7.320
 5508POPC   NC369215  32.025  32.726   5.314
 5508POPC   PO469216  32.477  33.212   5.481
 5508POPC   GL169217  32.336  32.854   5.748
 5508POPC   GL269218  31.957  32.777   5.810
 5508POPC   C1A69219  32.247  32.972   6.171
 5508POPC   D2A69220  32.501  33.206   6.460
 5508POPC   C3A69221  32.307  33.237   6.842
 5508POPC   C4A69222  32.380  32.978   7.176
 5508POPC   C1B69223  31.945  32.527   6.192
 5508POPC   C2B69224  31.993  32.408   6.638
 5508POPC   C3B69225  32.002  32.687   6.987
 5508POPC   C4B69226  32.065  32.663   7.422
 5509POPC   NC369227  28.510   1.218   5.327
 5509POPC   PO469228  28.058   0.822   5.507
 5509POPC   GL169229  28.154   0.890   5.868
 5509POPC   GL269230  28.480   0.973   5.790
 5509POPC   C1A69231  28.102   1.079   6.244
 5509POPC   D2A69232  28.355   1.121   6.602
 5509POPC   C3A69233  28.349   1.375   6.956
 5509POPC   C4A69234  28.048   1.320   7.280
 5509POPC   C1B69235  28.636   1.168   6.134
 5509POPC   C2B69236  28.809   0.946   6.474
 5509POPC   C3B69237  28.772   1.041   6.906
 5509POPC   C4B69238  28.786   1.306   7.271
 5510POPC   NC369239  42.477  31.312   5.403
 5510POPC   PO469240  42.096  31.886   5.410
 5510POPC   GL169241  42.252  31.619   5.748
 5510POPC   GL269242  42.600  31.685   5.732
 5510POPC   C1A69243  42.250  31.678   6.211
 5510POPC   D2A69244  42.377  31.456   6.604
 5510POPC   C3A69245  42.312  31.754   6.952
 5510POPC   C4A69246  42.160  31.663   7.348
 5510POPC   C1B69247  42.699  31.457   6.146
 5510POPC   C2B69248  42.904  31.385   6.571
 5510POPC   C3B69249  42.776  31.543   6.965
 5510POPC   C4B69250  42.683  31.461   7.407
 5511POPC   NC369251  14.715  43.138   5.439
 5511POPC   PO469252  15.399  42.993   5.225
 5511POPC   GL169253  15.308  42.902   5.703
 5511POPC   GL269254  15.090  43.168   5.764
 5511POPC   C1A69255  15.106  42.825   6.169
 5511POPC   D2A69256  14.911  43.092   6.567
 5511POPC   C3A69257  15.163  43.195   6.937
 5511POPC   C4A69258  15.093  42.891   7.252
 5511POPC   C1B69259  15.075  43.332   6.153
 5511POPC   C2B69260  15.350  43.426   6.489
 5511POPC   C3B69261  15.552  43.599   6.844
 5511POPC   C4B69262  15.549  43.413   7.231
 5512POPC   NC369263   4.971  17.153   5.465
 5512POPC   PO469264   5.319  17.771   5.476
 5512POPC   GL169265   5.247  17.688   5.920
 5512POPC   GL269266   5.100  17.391   5.913
 5512POPC   C1A69267   5.172  17.746   6.378
 5512POPC   D2A69268   5.066  17.513   6.757
 5512POPC   C3A69269   5.072  17.754   7.106
 5512POPC   C4A69270   4.947  17.714   7.535
 5512POPC   C1B69271   5.159  17.236   6.315
 5512POPC   C2B69272   5.452  17.206   6.624
 5512POPC   C3B69273   5.349  17.100   7.028
 5512POPC   C4B69274   5.023  17.277   7.286
 5513POPC   NC369275   7.180  13.440   5.443
 5513POPC   PO469276   7.510  14.046   5.441
 5513POPC   GL169277   7.232  13.982   5.765
 5513POPC   GL269278   7.402  13.706   5.833
 5513POPC   C1A69279   7.081  13.892   6.177
 5513POPC   D2A69280   7.144  14.019   6.587
 5513POPC   C3A69281   7.034  13.801   6.970
 5513POPC   C4A69282   7.247  13.550   7.292
 5513POPC   C1B69283   7.393  13.507   6.250
 5513POPC   C2B69284   7.349  13.532   6.661
 5513POPC   C3B69285   7.637  13.509   6.951
 5513POPC   C4B69286   7.684  13.213   7.243
 5514POPC   NC369287  11.402  28.484   5.364
 5514POPC   PO469288  11.201  27.934   5.307
 5514POPC   GL169289  11.334  28.121   5.738
 5514POPC   GL269290  11.651  27.986   5.913
 5514POPC   C1A69291  11.228  28.059   6.187
 5514POPC   D2A69292  11.418  28.116   6.601
 5514POPC   C3A69293  11.268  28.392   6.914
 5514POPC   C4A69294  11.193  28.261   7.307
 5514POPC   C1B69295  11.617  28.403   6.138
 5514POPC   C2B69296  11.812  28.611   6.494
 5514POPC   C3B69297  11.780  28.499   6.934
 5514POPC   C4B69298  11.518  28.696   7.269
 5515POPC   NC369299  25.158   3.908   5.652
 5515POPC   PO469300  25.362   3.342   5.357
 5515POPC   GL169301  25.372   3.260   5.771
 5515POPC   GL269302  25.018   3.293   5.881
 5515POPC   C1A69303  25.595   3.404   6.137
 5515POPC   D2A69304  25.479   3.740   6.410
 5515POPC   C3A69305  25.342   3.633   6.818
 5515POPC   C4A69306  25.417   3.753   7.218
 5515POPC   C1B69307  25.108   3.349   6.340
 5515POPC   C2B69308  24.863   3.617   6.642
 5515POPC   C3B69309  24.910   3.802   7.079
 5515POPC   C4B69310  25.018   3.694   7.530
 5516POPC   NC369311  19.655  27.393   5.387
 5516POPC   PO469312  20.046  27.930   5.555
 5516POPC   GL169313  19.921  27.726   5.918
 5516POPC   GL269314  19.580  27.615   5.844
 5516POPC   C1A69315  20.019  27.647   6.356
 5516POPC   D2A69316  19.860  27.567   6.780
 5516POPC   C3A69317  20.090  27.680   7.159
 5516POPC   C4A69318  20.224  27.848   7.577
 5516POPC   C1B69319  19.359  27.519   6.228
 5516POPC   C2B69320  19.360  27.391   6.663
 5516POPC   C3B69321  19.497  27.364   7.098
 5516POPC   C4B69322  19.806  27.309   7.411
 5517POPC   NC369323  14.076  12.669   5.501
 5517POPC   PO469324  14.544  13.140   5.423
 5517POPC   GL169325  14.557  12.970   5.860
 5517POPC   GL269326  14.331  12.669   5.950
 5517POPC   C1A69327  14.394  12.998   6.309
 5517POPC   D2A69328  14.059  13.023   6.621
 5517POPC   C3A69329  14.217  13.244   7.000
 5517POPC   C4A69330  14.609  13.061   7.169
 5517POPC   C1B69331  14.028  12.459   6.266
 5517POPC   C2B69332  13.854  12.461   6.707
 5517POPC   C3B69333  14.005  12.744   7.061
 5517POPC   C4B69334  14.163  12.973   7.425
 5518POPC   NC369335  36.205  28.350   5.249
 5518POPC   PO469336  35.701  28.716   5.545
 5518POPC   GL169337  36.002  28.411   5.793
 5518POPC   GL269338  36.245  28.637   5.863
 5518POPC   C1A69339  36.333  28.208   6.137
 5518POPC   D2A69340  36.601  28.211   6.520
 5518POPC   C3A69341  36.405  28.176   6.943
 5518POPC   C4A69342  35.953  28.332   7.039
 5518POPC   C1B69343  36.049  28.587   6.294
 5518POPC   C2B69344  36.268  28.589   6.679
 5518POPC   C3B69345  36.190  28.796   7.061
 5518POPC   C4B69346  35.771  29.007   7.119
 5519POPC   NC369347  36.924  44.555   5.228
 5519POPC   PO469348  36.849  43.833   5.215
 5519POPC   GL169349  37.099  43.598   5.669
 5519POPC   GL269350  37.208  43.851   5.804
 5519POPC   C1A69351  37.144  43.506   6.151
 5519POPC   D2A69352  37.361  43.662   6.525
 5519POPC   C3A69353  37.168  43.605   6.936
 5519POPC   C4A69354  36.972  43.723   7.315
 5519POPC   C1B69355  37.224  44.046   6.208
 5519POPC   C2B69356  36.939  43.959   6.558
 5519POPC   C3B69357  36.875  44.090   6.973
 5519POPC   C4B69358  37.168  44.203   7.290
 5520POPC   NC369359  13.089  26.713   5.513
 5520POPC   PO469360  12.836  27.231   5.165
 5520POPC   GL169361  12.718  27.002   5.674
 5520POPC   GL269362  12.948  27.009   5.974
 5520POPC   C1A69363  12.496  26.826   6.088
 5520POPC   D2A69364  12.555  26.936   6.526
 5520POPC   C3A69365  12.758  26.699   6.855
 5520POPC   C4A69366  12.837  26.857   7.298
 5520POPC   C1B69367  13.137  26.936   6.396
 5520POPC   C2B69368  13.220  26.585   6.682
 5520POPC   C3B69369  13.249  26.688   7.078
 5520POPC   C4B69370  13.195  27.171   7.146
 5521POPC   NC369371  42.067  15.496   5.195
 5521POPC   PO469372  42.336  16.172   5.312
 5521POPC   GL169373  42.424  15.954   5.723
 5521POPC   GL269374  42.533  16.284   5.821
 5521POPC   C1A69375  42.346  15.742   6.166
 5521POPC   D2A69376  42.528  15.699   6.663
 5521POPC   C3A69377  42.316  15.721   7.075
 5521POPC   C4A69378  42.029  16.039   7.254
 5521POPC   C1B69379  42.239  16.269   6.118
 5521POPC   C2B69380  42.374  16.142   6.504
 5521POPC   C3B69381  42.341  16.226   6.921
 5521POPC   C4B69382  42.236  16.498   7.255
 5522POPC   NC369383  13.071  13.772   5.098
 5522POPC   PO469384  12.584  13.453   5.375
 5522POPC   GL169385  12.742  13.684   5.782
 5522POPC   GL269386  13.104  13.652   5.841
 5522POPC   C1A69387  12.816  13.829   6.238
 5522POPC   D2A69388  12.770  13.592   6.642
 5522POPC   C3A69389  12.808  13.769   7.064
 5522POPC   C4A69390  12.525  14.090   7.124
 5522POPC   C1B69391  12.966  13.329   6.191
 5522POPC   C2B69392  13.055  13.175   6.626
 5522POPC   C3B69393  12.958  13.269   7.047
 5522POPC   C4B69394  13.022  13.480   7.456
 5523POPC   NC369395  24.310  30.285   5.385
 5523POPC   PO469396  24.743  30.748   5.489
 5523POPC   GL169397  24.544  30.700   5.808
 5523POPC   GL269398  24.578  30.329   5.824
 5523POPC   C1A69399  24.512  30.969   6.169
 5523POPC   D2A69400  24.711  30.874   6.538
 5523POPC   C3A69401  24.433  30.963   6.847
 5523POPC   C4A69402  24.386  30.882   7.260
 5523POPC   C1B69403  24.560  30.463   6.239
 5523POPC   C2B69404  24.330  30.500   6.590
 5523POPC   C3B69405  24.446  30.459   6.995
 5523POPC   C4B69406  24.582  30.403   7.419
 5524POPC   NC369407  44.319  42.789   5.376
 5524POPC   PO469408  44.719  42.289   5.448
 5524POPC   GL169409  44.653  42.438   5.874
 5524POPC   GL269410  44.380  42.679   5.935
 5524POPC   C1A69411  44.645  42.420   6.335
 5524POPC   D2A69412  44.398  42.501   6.677
 5524POPC   C3A69413  44.683  42.267   6.946
 5524POPC   C4A69414  44.838  42.154   7.363
 5524POPC   C1B69415  44.211  42.271   6.144
 5524POPC   C2B69416  44.297  42.028   6.552
 5524POPC   C3B69417  44.203  42.129   7.011
 5524POPC   C4B69418  44.341  41.966   7.420
 5525POPC   NC369419  13.482  26.960   5.252
 5525POPC   PO469420  13.907  26.469   5.621
 5525POPC   GL169421  13.546  26.755   5.782
 5525POPC   GL269422  13.271  26.620   5.992
 5525POPC   C1A69423  13.568  27.060   6.102
 5525POPC   D2A69424  13.811  27.015   6.470
 5525POPC   C3A69425  13.574  26.948   6.794
 5525POPC   C4A69426  13.651  26.968   7.208
 5525POPC   C1B69427  13.570  26.594   6.309
 5525POPC   C2B69428  13.793  26.498   6.674
 5525POPC   C3B69429  13.945  26.557   7.081
 5525POPC   C4B69430  13.691  26.547   7.479
 5526POPC   NC369431  21.250  27.379   5.460
 5526POPC   PO469432  21.842  27.874   5.342
 5526POPC   GL169433  21.439  27.803   5.700
 5526POPC   GL269434  21.355  27.484   5.923
 5526POPC   C1A69435  21.174  27.897   6.122
 5526POPC   D2A69436  21.327  27.805   6.572
 5526POPC   C3A69437  21.078  27.787   6.968
 5526POPC   C4A69438  21.364  27.816   7.318
 5526POPC   C1B69439  21.620  27.554   6.243
 5526POPC   C2B69440  21.766  27.454   6.658
 5526POPC   C3B69441  21.516  27.398   7.061
 5526POPC   C4B69442  21.475  27.152   7.460
 5527POPC   NC369443  11.390   5.506   5.342
 5527POPC   PO469444  11.055   4.884   5.383
 5527POPC   GL169445  11.310   5.042   5.702
 5527POPC   GL269446  11.049   5.316   5.691
 5527POPC   C1A69447  11.408   4.850   6.142
 5527POPC   D2A69448  11.492   4.889   6.612
 5527POPC   C3A69449  11.237   5.049   7.000
 5527POPC   C4A69450  11.334   4.922   7.423
 5527POPC   C1B69451  11.000   5.150   6.090
 5527POPC   C2B69452  11.020   5.082   6.511
 5527POPC   C3B69453  10.955   5.451   6.751
 5527POPC   C4B69454  11.044   5.516   7.175
 5528POPC   NC369455  13.377   9.290   5.645
 5528POPC   PO469456  13.757   8.805   5.349
 5528POPC   GL169457  13.801   9.036   5.790
 5528POPC   GL269458  13.685   8.828   6.049
 5528POPC   C1A69459  13.713   9.295   6.251
 5528POPC   D2A69460  13.569   9.304   6.737
 5528POPC   C3A69461  13.810   9.165   7.154
 5528POPC   C4A69462  14.023   9.258   7.572
 5528POPC   C1B69463  13.381   8.685   6.378
 5528POPC   C2B69464  13.234   8.683   6.822
 5528POPC   C3B69465  13.514   8.680   7.206
 5528POPC   C4B69466  13.396   8.583   7.641
 5529POPC   NC369467   6.712  30.418   5.357
 5529POPC   PO469468   6.738  29.800   5.427
 5529POPC   GL169469   6.629  29.922   5.796
 5529POPC   GL269470   6.467  30.230   5.772
 5529POPC   C1A69471   6.745  29.749   6.180
 5529POPC   D2A69472   6.595  29.861   6.559
 5529POPC   C3A69473   6.817  29.786   6.914
 5529POPC   C4A69474   6.570  29.727   7.248
 5529POPC   C1B69475   6.611  30.272   6.199
 5529POPC   C2B69476   6.468  30.389   6.609
 5529POPC   C3B69477   6.477  30.161   6.981
 5529POPC   C4B69478   6.825  30.161   7.272
 5530POPC   NC369479  43.248  19.403   5.520
 5530POPC   PO469480  42.983  18.783   5.469
 5530POPC   GL169481  43.140  18.790   5.849
 5530POPC   GL269482  43.460  18.926   5.775
 5530POPC   C1A69483  42.983  18.923   6.240
 5530POPC   D2A69484  42.761  19.229   6.496
 5530POPC   C3A69485  42.889  19.238   6.943
 5530POPC   C4A69486  43.291  19.253   7.134
 5530POPC   C1B69487  43.461  19.088   6.212
 5530POPC   C2B69488  43.270  19.009   6.646
 5530POPC   C3B69489  43.260  18.760   7.029
 5530POPC   C4B69490  43.522  18.858   7.390
 5531POPC   NC369491   7.571  12.662   5.366
 5531POPC   PO469492   7.530  13.253   5.683
 5531POPC   GL169493   7.426  12.910   5.919
 5531POPC   GL269494   7.219  12.651   5.749
 5531POPC   C1A69495   7.378  12.900   6.371
 5531POPC   D2A69496   7.526  12.909   6.797
 5531POPC   C3A69497   7.235  13.073   7.088
 5531POPC   C4A69498   7.306  13.114   7.574
 5531POPC   C1B69499   7.317  12.442   6.119
 5531POPC   C2B69500   7.142  12.440   6.503
 5531POPC   C3B69501   6.980  12.613   6.857
 5531POPC   C4B69502   7.215  12.571   7.219
 5532POPC   NC369503  23.441  14.983   5.550
 5532POPC   PO469504  23.969  15.266   5.287
 5532POPC   GL169505  24.087  15.281   5.744
 5532POPC   GL269506  23.751  15.230   5.891
 5532POPC   C1A69507  24.157  15.066   6.150
 5532POPC   D2A69508  23.851  15.074   6.491
 5532POPC   C3A69509  23.847  15.197   6.908
 5532POPC   C4A69510  23.461  15.265   7.157
 5532POPC   C1B69511  23.414  15.142   6.191
 5532POPC   C2B69512  23.371  14.809   6.486
 5532POPC   C3B69513  23.492  14.812   6.887
 5532POPC   C4B69514  23.620  14.817   7.316
 5533POPC   NC369515   4.943  12.088   5.408
 5533POPC   PO469516   5.607  12.229   5.450
 5533POPC   GL169517   5.320  12.257   5.814
 5533POPC   GL269518   4.951  12.328   5.843
 5533POPC   C1A69519   5.347  12.279   6.259
 5533POPC   D2A69520   5.147  12.450   6.657
 5533POPC   C3A69521   5.324  12.291   7.024
 5533POPC   C4A69522   5.360  11.913   7.258
 5533POPC   C1B69523   4.855  12.268   6.226
 5533POPC   C2B69524   4.696  12.167   6.581
 5533POPC   C3B69525   4.763  12.252   6.974
 5533POPC   C4B69526   4.898  12.059   7.323
 5534POPC   NC369527  13.746   3.903   5.409
 5534POPC   PO469528  13.323   4.325   5.428
 5534POPC   GL169529  13.473   4.211   5.842
 5534POPC   GL269530  13.338   3.888   5.851
 5534POPC   C1A69531  13.587   4.365   6.299
 5534POPC   D2A69532  13.485   4.675   6.659
 5534POPC   C3A69533  13.650   4.583   7.040
 5534POPC   C4A69534  13.278   4.442   7.118
 5534POPC   C1B69535  13.676   3.869   6.167
 5534POPC   C2B69536  13.672   3.899   6.625
 5534POPC   C3B69537  13.754   4.051   7.074
 5534POPC   C4B69538  13.573   4.235   7.450
 5535POPC   NC369539  21.673   0.111   5.676
 5535POPC   PO469540  21.782  44.501   5.377
 5535POPC   GL169541  21.500  44.632   5.736
 5535POPC   GL269542  21.300  44.348   5.864
 5535POPC   C1A69543  21.411  44.737   6.184
 5535POPC   D2A69544  21.325  44.428   6.529
 5535POPC   C3A69545  21.260  44.607   6.932
 5535POPC   C4A69546  21.151  44.956   7.170
 5535POPC   C1B69547  21.706  44.337   6.141
 5535POPC   C2B69548  21.843  44.461   6.569
 5535POPC   C3B69549  21.748  44.440   7.017
 5535POPC   C4B69550  21.669  44.224   7.422
 5536POPC   NC369551  15.020  16.353   5.471
 5536POPC   PO469552  15.367  15.731   5.439
 5536POPC   GL169553  15.369  16.070   5.749
 5536POPC   GL269554  15.046  16.013   5.856
 5536POPC   C1A69555  15.396  16.282   6.154
 5536POPC   D2A69556  15.294  16.087   6.554
 5536POPC   C3A69557  15.362  16.273   6.963
 5536POPC   C4A69558  15.208  16.028   7.290
 5536POPC   C1B69559  14.877  15.732   6.137
 5536POPC   C2B69560  14.825  15.745   6.561
 5536POPC   C3B69561  15.063  15.730   6.894
 5536POPC   C4B69562  14.875  15.645   7.257
 5537POPC   NC369563  13.266  12.251   5.643
 5537POPC   PO469564  13.624  12.825   5.469
 5537POPC   GL169565  13.582  12.652   5.875
 5537POPC   GL269566  13.851  12.867   5.959
 5537POPC   C1A69567  13.559  12.695   6.344
 5537POPC   D2A69568  13.315  12.558   6.699
 5537POPC   C3A69569  13.493  12.683   7.098
 5537POPC   C4A69570  13.352  12.613   7.512
 5537POPC   C1B69571  13.485  13.141   6.118
 5537POPC   C2B69572  13.557  13.181   6.554
 5537POPC   C3B69573  13.697  13.164   6.972
 5537POPC   C4B69574  13.401  13.160   7.271
 5538POPC   NC369575  38.028  26.475   5.089
 5538POPC   PO469576  38.479  26.937   5.490
 5538POPC   GL169577  38.373  26.691   5.833
 5538POPC   GL269578  38.050  26.556   5.774
 5538POPC   C1A69579  38.572  26.709   6.245
 5538POPC   D2A69580  38.726  26.981   6.587
 5538POPC   C3A69581  38.651  26.792   6.986
 5538POPC   C4A69582  38.473  26.958   7.341
 5538POPC   C1B69583  38.046  26.650   6.240
 5538POPC   C2B69584  38.261  26.671   6.664
 5538POPC   C3B69585  38.116  26.716   7.080
 5538POPC   C4B69586  37.977  26.696   7.526
 5539POPC   NC369587  18.800  41.868   5.472
 5539POPC   PO469588  19.332  41.503   5.694
 5539POPC   GL169589  19.188  41.769   5.975
 5539POPC   GL269590  18.838  41.723   5.961
 5539POPC   C1A69591  19.065  41.789   6.411
 5539POPC   D2A69592  18.881  41.825   6.823
 5539POPC   C3A69593  19.203  41.700   7.139
 5539POPC   C4A69594  19.370  41.309   7.097
 5539POPC   C1B69595  18.753  41.409   6.293
 5539POPC   C2B69596  18.585  41.366   6.698
 5539POPC   C3B69597  18.833  41.351   7.068
 5539POPC   C4B69598  19.001  41.024   7.324
 5540POPC   NC369599  21.248  31.706   5.363
 5540POPC   PO469600  21.592  31.161   5.345
 5540POPC   GL169601  21.529  31.471   5.737
 5540POPC   GL269602  21.173  31.583   5.841
 5540POPC   C1A69603  21.524  31.555   6.207
 5540POPC   D2A69604  21.392  31.673   6.616
 5540POPC   C3A69605  21.594  31.544   6.986
 5540POPC   C4A69606  21.484  31.160   7.105
 5540POPC   C1B69607  21.019  31.514   6.237
 5540POPC   C2B69608  20.881  31.714   6.602
 5540POPC   C3B69609  21.024  31.456   6.967
 5540POPC   C4B69610  21.147  31.441   7.388
 5541POPC   NC369611  29.457  37.039   5.404
 5541POPC   PO469612  28.776  37.019   5.480
 5541POPC   GL169613  29.067  37.101   5.778
 5541POPC   GL269614  29.173  36.756   5.777
 5541POPC   C1A69615  29.096  37.093   6.221
 5541POPC   D2A69616  29.234  36.775   6.505
 5541POPC   C3A69617  29.372  36.917   6.894
 5541POPC   C4A69618  29.292  36.645   7.185
 5541POPC   C1B69619  28.860  36.608   6.092
 5541POPC   C2B69620  28.682  36.835   6.448
 5541POPC   C3B69621  28.847  36.805   6.882
 5541POPC   C4B69622  28.804  36.794   7.328
 5542POPC   NC369623   0.884  40.573   5.524
 5542POPC   PO469624   1.475  40.740   5.327
 5542POPC   GL169625   1.323  40.869   5.722
 5542POPC   GL269626   1.035  41.070   5.697
 5542POPC   C1A69627   1.194  40.733   6.132
 5542POPC   D2A69628   0.939  40.724   6.497
 5542POPC   C3A69629   1.133  40.445   6.804
 5542POPC   C4A69630   1.152  40.473   7.225
 5542POPC   C1B69631   0.981  41.194   6.140
 5542POPC   C2B69632   0.923  41.224   6.625
 5542POPC   C3B69633   1.143  40.942   6.947
 5542POPC   C4B69634   1.514  40.846   7.160
 5543POPC   NC369635   0.597   6.324   5.049
 5543POPC   PO469636   0.548   6.843   5.535
 5543POPC   GL169637   0.455   6.601   5.853
 5543POPC   GL269638   0.207   6.814   6.020
 5543POPC   C1A69639   0.379   6.356   6.208
 5543POPC   D2A69640   0.570   6.343   6.587
 5543POPC   C3A69641   0.357   6.564   6.932
 5543POPC   C4A69642   0.089   6.446   7.283
 5543POPC   C1B69643   0.566   6.891   6.290
 5543POPC   C2B69644   0.818   6.793   6.664
 5543POPC   C3B69645   0.750   6.877   7.104
 5543POPC   C4B69646   0.788   6.897   7.595
 5544POPC   NC369647  35.016  22.942   5.629
 5544POPC   PO469648  35.493  23.400   5.439
 5544POPC   GL169649  35.464  23.126   5.819
 5544POPC   GL269650  35.598  22.811   5.776
 5544POPC   C1A69651  35.307  22.925   6.208
 5544POPC   D2A69652  35.208  23.016   6.623
 5544POPC   C3A69653  35.518  23.181   6.869
 5544POPC   C4A69654  35.288  23.099   7.233
 5544POPC   C1B69655  35.794  22.728   6.201
 5544POPC   C2B69656  35.733  22.593   6.639
 5544POPC   C3B69657  35.452  22.676   6.982
 5544POPC   C4B69658  35.323  22.627   7.423
 5545POPC   NC369659   5.311  25.961   5.609
 5545POPC   PO469660   4.769  26.331   5.373
 5545POPC   GL169661   4.766  26.137   5.802
 5545POPC   GL269662   5.065  26.275   5.906
 5545POPC   C1A69663   4.715  25.941   6.223
 5545POPC   D2A69664   4.878  26.173   6.591
 5545POPC   C3A69665   4.970  26.030   7.041
 5545POPC   C4A69666   5.045  26.120   7.492
 5545POPC   C1B69667   5.345  26.254   6.257
 5545POPC   C2B69668   5.354  26.326   6.713
 5545POPC   C3B69669   5.440  26.259   7.147
 5545POPC   C4B69670   5.467  25.845   7.315
 5546POPC   NC369671  31.825   4.586   5.547
 5546POPC   PO469672  31.212   4.332   5.354
 5546POPC   GL169673  31.458   4.263   5.716
 5546POPC   GL269674  31.464   4.557   5.931
 5546POPC   C1A69675  31.447   4.055   6.119
 5546POPC   D2A69676  31.261   4.230   6.490
 5546POPC   C3A69677  31.346   4.041   6.873
 5546POPC   C4A69678  31.216   4.098   7.265
 5546POPC   C1B69679  31.791   4.423   6.270
 5546POPC   C2B69680  31.739   4.393   6.734
 5546POPC   C3B69681  31.622   4.382   7.150
 5546POPC   C4B69682  31.328   4.599   7.417
 5547POPC   NC369683  41.760  42.130   5.024
 5547POPC   PO469684  41.252  42.275   5.402
 5547POPC   GL169685  41.545  42.313   5.753
 5547POPC   GL269686  41.409  42.636   5.838
 5547POPC   C1A69687  41.751  42.444   6.175
 5547POPC   D2A69688  41.773  42.605   6.612
 5547POPC   C3A69689  41.757  42.263   6.933
 5547POPC   C4A69690  41.648  41.944   7.253
 5547POPC   C1B69691  41.244  42.379   6.179
 5547POPC   C2B69692  41.352  42.343   6.584
 5547POPC   C3B69693  41.255  42.184   6.967
 5547POPC   C4B69694  41.334  42.318   7.397
 5548POPC   NC369695  14.223  24.649   5.541
 5548POPC   PO469696  14.802  24.327   5.417
 5548POPC   GL169697  14.654  24.312   5.811
 5548POPC   GL269698  14.481  24.579   5.978
 5548POPC   C1A69699  14.614  24.155   6.225
 5548POPC   D2A69700  14.443  24.292   6.609
 5548POPC   C3A69701  14.420  24.549   6.982
 5548POPC   C4A69702  14.106  24.549   7.323
 5548POPC   C1B69703  14.312  24.888   6.251
 5548POPC   C2B69704  14.389  25.089   6.644
 5548POPC   C3B69705  14.629  25.032   7.018
 5548POPC   C4B69706  14.448  24.894   7.401
 5549POPC   NC369707  42.663  20.206   5.518
 5549POPC   PO469708  43.169  19.806   5.292
 5549POPC   GL169709  42.930  19.793   5.710
 5549POPC   GL269710  43.014  20.088   5.912
 5549POPC   C1A69711  42.751  19.713   6.160
 5549POPC   D2A69712  42.973  19.933   6.513
 5549POPC   C3A69713  43.079  19.775   6.942
 5549POPC   C4A69714  43.145  20.057   7.317
 5549POPC   C1B69715  43.262  19.734   6.119
 5549POPC   C2B69716  43.310  19.510   6.499
 5549POPC   C3B69717  43.554  19.579   6.848
 5549POPC   C4B69718  43.485  19.697   7.265
 5550POPC   NC369719  18.117   2.423   5.535
 5550POPC   PO469720  18.584   2.859   5.435
 5550POPC   GL169721  18.307   2.859   5.772
 5550POPC   GL269722  18.152   3.186   5.814
 5550POPC   C1A69723  18.109   2.815   6.187
 5550POPC   D2A69724  18.121   2.601   6.595
 5550POPC   C3A69725  18.513   2.607   6.834
 5550POPC   C4A69726  18.576   2.500   7.247
 5550POPC   C1B69727  18.511   3.172   6.118
 5550POPC   C2B69728  18.434   3.057   6.531
 5550POPC   C3B69729  18.224   3.022   6.897
 5550POPC   C4B69730  18.486   3.018   7.221
 5551POPC   NC369731  43.691   5.535   5.226
 5551POPC   PO469732  44.376   5.744   5.377
 5551POPC   GL169733  44.032   5.679   5.675
 5551POPC   GL269734  43.706   5.837   5.692
 5551POPC   C1A69735  43.927   5.690   6.130
 5551POPC   D2A69736  44.095   5.840   6.521
 5551POPC   C3A69737  43.809   5.738   6.852
 5551POPC   C4A69738  43.975   5.808   7.245
 5551POPC   C1B69739  43.551   6.047   6.101
 5551POPC   C2B69740  43.711   6.168   6.524
 5551POPC   C3B69741  43.478   6.139   6.888
 5551POPC   C4B69742  43.481   5.849   7.249
 5552POPC   NC369743  37.465  23.314   5.578
 5552POPC   PO469744  37.612  22.698   5.607
 5552POPC   GL169745  37.705  22.928   5.974
 5552POPC   GL269746  37.445  23.116   6.035
 5552POPC   C1A69747  37.717  22.968   6.433
 5552POPC   D2A69748  37.538  22.884   6.774
 5552POPC   C3A69749  37.580  23.081   7.126
 5552POPC   C4A69750  37.673  22.689   7.289
 5552POPC   C1B69751  37.397  23.460   6.249
 5552POPC   C2B69752  37.451  23.399   6.641
 5552POPC   C3B69753  37.141  23.202   6.881
 5552POPC   C4B69754  37.085  23.185   7.289
 5553POPC   NC369755   1.627   6.407   5.417
 5553POPC   PO469756   1.990   7.013   5.456
 5553POPC   GL169757   1.919   6.686   5.746
 5553POPC   GL269758   1.705   6.795   5.961
 5553POPC   C1A69759   2.112   6.537   6.128
 5553POPC   D2A69760   2.166   6.385   6.547
 5553POPC   C3A69761   2.199   6.631   6.891
 5553POPC   C4A69762   2.311   6.580   7.292
 5553POPC   C1B69763   1.574   6.462   6.243
 5553POPC   C2B69764   1.648   6.313   6.680
 5553POPC   C3B69765   1.737   6.525   7.089
 5553POPC   C4B69766   1.595   6.882   7.310
 5554POPC   NC369767   3.952  40.449   5.388
 5554POPC   PO469768   4.597  40.218   5.384
 5554POPC   GL169769   4.314  39.991   5.675
 5554POPC   GL269770   4.350  40.280   5.842
 5554POPC   C1A69771   4.201  39.885   6.122
 5554POPC   D2A69772   4.230  40.084   6.509
 5554POPC   C3A69773   4.087  39.934   6.923
 5554POPC   C4A69774   4.342  39.973   7.275
 5554POPC   C1B69775   4.162  40.476   6.142
 5554POPC   C2B69776   4.116  40.627   6.517
 5554POPC   C3B69777   4.145  40.430   6.883
 5554POPC   C4B69778   3.827  40.383   7.140
 5555POPC   NC369779  21.764  43.982   5.564
 5555POPC   PO469780  21.166  44.084   5.361
 5555POPC   GL169781  21.301  43.841   5.753
 5555POPC   GL269782  21.514  43.548   5.771
 5555POPC   C1A69783  21.433  43.915   6.199
 5555POPC   D2A69784  21.628  44.004   6.603
 5555POPC   C3A69785  21.390  44.078   6.977
 5555POPC   C4A69786  21.260  43.911   7.367
 5555POPC   C1B69787  21.258  43.441   6.132
 5555POPC   C2B69788  21.349  43.552   6.572
 5555POPC   C3B69789  21.516  43.553   7.016
 5555POPC   C4B69790  21.330  43.390   7.399
 5556POPC   NC369791  44.710   9.130   5.383
 5556POPC   PO469792  44.417   8.516   5.422
 5556POPC   GL169793  44.406   8.818   5.685
 5556POPC   GL269794  44.724   8.816   5.820
 5556POPC   C1A69795  44.339   8.886   6.114
 5556POPC   D2A69796  44.591   8.822   6.478
 5556POPC   C3A69797  44.465   8.807   6.894
 5556POPC   C4A69798  44.347   8.999   7.239
 5556POPC   C1B69799  44.837   9.107   6.131
 5556POPC   C2B69800  44.968   9.161   6.562
 5556POPC   C3B69801  44.866   9.097   7.000
 5556POPC   C4B69802  44.840   8.962   7.414
 5557POPC   NC369803  15.693  34.726   5.605
 5557POPC   PO469804  16.119  34.159   5.345
 5557POPC   GL169805  16.167  34.418   5.731
 5557POPC   GL269806  16.102  34.744   5.895
 5557POPC   C1A69807  16.329  34.364   6.163
 5557POPC   D2A69808  16.377  34.567   6.574
 5557POPC   C3A69809  16.364  34.446   7.024
 5557POPC   C4A69810  16.050  34.710   7.262
 5557POPC   C1B69811  15.928  34.687   6.310
 5557POPC   C2B69812  15.703  34.627   6.722
 5557POPC   C3B69813  15.538  34.613   7.161
 5557POPC   C4B69814  15.614  34.885   7.521
 5558POPC   NC369815  12.372  10.492   5.524
 5558POPC   PO469816  11.712  10.224   5.520
 5558POPC   GL169817  11.998  10.332   5.841
 5558POPC   GL269818  12.056  10.685   5.870
 5558POPC   C1A69819  12.152  10.244   6.250
 5558POPC   D2A69820  12.232  10.160   6.666
 5558POPC   C3A69821  12.218  10.428   6.968
 5558POPC   C4A69822  12.066  10.378   7.396
 5558POPC   C1B69823  11.830  10.654   6.260
 5558POPC   C2B69824  11.815  10.576   6.686
 5558POPC   C3B69825  11.824  10.707   7.094
 5558POPC   C4B69826  12.258  10.846   7.270
 5559POPC   NC369827  24.263   6.904   5.474
 5559POPC   PO469828  24.702   6.389   5.399
 5559POPC   GL169829  24.570   6.620   5.801
 5559POPC   GL269830  24.203   6.574   5.867
 5559POPC   C1A69831  24.594   6.870   6.203
 5559POPC   D2A69832  24.402   6.925   6.632
 5559POPC   C3A69833  24.568   6.729   6.984
 5559POPC   C4A69834  24.715   6.889   7.349
 5559POPC   C1B69835  24.168   6.590   6.320
 5559POPC   C2B69836  24.409   6.390   6.639
 5559POPC   C3B69837  24.344   6.262   7.050
 5559POPC   C4B69838  24.257   6.530   7.370
 5560POPC   NC369839   8.222  33.322   5.488
 5560POPC   PO469840   7.890  32.750   5.543
 5560POPC   GL169841   7.956  33.040   5.832
 5560POPC   GL269842   8.291  32.955   5.853
 5560POPC   C1A69843   7.998  33.123   6.266
 5560POPC   D2A69844   7.913  33.103   6.660
 5560POPC   C3A69845   7.994  32.782   6.897
 5560POPC   C4A69846   8.117  33.075   7.212
 5560POPC   C1B69847   8.464  33.255   6.141
 5560POPC   C2B69848   8.452  33.180   6.552
 5560POPC   C3B69849   8.483  32.963   6.886
 5560POPC   C4B69850   8.659  33.090   7.252
 5561POPC   NC369851  29.109  25.769   5.405
 5561POPC   PO469852  29.394  26.355   5.317
 5561POPC   GL169853  29.429  26.105   5.723
 5561POPC   GL269854  29.083  25.989   5.860
 5561POPC   C1A69855  29.592  25.879   6.103
 5561POPC   D2A69856  29.619  25.634   6.496
 5561POPC   C3A69857  29.586  25.804   6.927
 5561POPC   C4A69858  29.406  25.685   7.327
 5561POPC   C1B69859  28.764  26.196   6.120
 5561POPC   C2B69860  28.725  26.103   6.564
 5561POPC   C3B69861  28.960  25.935   6.924
 5561POPC   C4B69862  29.064  26.070   7.341
 5562POPC   NC369863   0.555   8.623   5.559
 5562POPC   PO469864   0.146   8.025   5.501
 5562POPC   GL169865   0.296   8.263   5.849
 5562POPC   GL269866   0.661   8.210   5.876
 5562POPC   C1A69867   0.336   8.350   6.293
 5562POPC   D2A69868   0.556   8.494   6.645
 5562POPC   C3A69869   0.411   8.362   7.040
 5562POPC   C4A69870   0.588   8.452   7.464
 5562POPC   C1B69871   0.580   7.912   6.217
 5562POPC   C2B69872   0.497   7.937   6.670
 5562POPC   C3B69873   0.674   7.919   7.080
 5562POPC   C4B69874   0.700   7.825   7.508
 5563POPC   NC369875   2.419  40.024   5.632
 5563POPC   PO469876   1.829  39.677   5.552
 5563POPC   GL169877   1.856  39.885   5.954
 5563POPC   GL269878   1.835  40.260   5.943
 5563POPC   C1A69879   1.948  39.884   6.411
 5563POPC   D2A69880   1.789  40.108   6.782
 5563POPC   C3A69881   1.864  39.871   7.170
 5563POPC   C4A69882   2.184  39.563   6.988
 5563POPC   C1B69883   2.174  40.341   6.264
 5563POPC   C2B69884   2.291  40.211   6.693
 5563POPC   C3B69885   2.185  40.229   7.122
 5563POPC   C4B69886   2.202  40.136   7.561
 5564POPC   NC369887  32.356   3.105   5.422
 5564POPC   PO469888  31.977   2.537   5.442
 5564POPC   GL169889  32.258   2.715   5.762
 5564POPC   GL269890  32.475   2.443   5.786
 5564POPC   C1A69891  32.352   2.918   6.178
 5564POPC   D2A69892  32.258   3.094   6.559
 5564POPC   C3A69893  32.307   2.950   6.952
 5564POPC   C4A69894  32.135   3.057   7.346
 5564POPC   C1B69895  32.354   2.422   6.216
 5564POPC   C2B69896  32.547   2.638   6.577
 5564POPC   C3B69897  32.496   2.476   6.976
 5564POPC   C4B69898  32.332   2.599   7.361
 5565POPC   NC369899  38.657  19.334   4.959
 5565POPC   PO469900  38.291  19.231   5.505
 5565POPC   GL169901  38.543  18.898   5.687
 5565POPC   GL269902  38.284  18.841   5.883
 5565POPC   C1A69903  38.706  18.761   6.121
 5565POPC   D2A69904  38.617  18.900   6.528
 5565POPC   C3A69905  38.550  18.747   6.945
 5565POPC   C4A69906  38.794  19.010   7.195
 5565POPC   C1B69907  38.487  19.227   6.136
 5565POPC   C2B69908  38.510  19.399   6.588
 5565POPC   C3B69909  38.355  19.213   7.001
 5565POPC   C4B69910  38.342  18.979   7.435
 5566POPC   NC369911   0.098  13.151   5.404
 5566POPC   PO469912   0.748  13.207   5.403
 5566POPC   GL169913   0.729  13.038   5.817
 5566POPC   GL269914   0.361  13.050   5.861
 5566POPC   C1A69915   0.824  12.826   6.252
 5566POPC   D2A69916   0.768  12.581   6.675
 5566POPC   C3A69917   0.670  12.790   7.078
 5566POPC   C4A69918   0.525  13.237   7.136
 5566POPC   C1B69919   0.307  12.883   6.313
 5566POPC   C2B69920   0.263  12.900   6.790
 5566POPC   C3B69921   0.158  12.893   7.258
 5566POPC   C4B69922   0.094  12.956   7.723
 5567POPC   NC369923  17.170  30.803   5.270
 5567POPC   PO469924  16.646  30.443   5.406
 5567POPC   GL169925  16.734  30.690   5.768
 5567POPC   GL269926  17.047  30.597   5.766
 5567POPC   C1A69927  16.593  30.821   6.191
 5567POPC   D2A69928  16.418  31.093   6.530
 5567POPC   C3A69929  16.544  30.972   6.935
 5567POPC   C4A69930  16.396  30.601   7.153
 5567POPC   C1B69931  17.135  30.828   6.150
 5567POPC   C2B69932  16.975  30.733   6.565
 5567POPC   C3B69933  16.970  30.636   7.003
 5567POPC   C4B69934  17.118  30.971   7.227
 5568POPC   NC369935  36.573  13.430   5.422
 5568POPC   PO469936  37.148  13.690   5.301
 5568POPC   GL169937  37.014  13.573   5.722
 5568POPC   GL269938  37.053  13.219   5.681
 5568POPC   C1A69939  36.814  13.766   6.114
 5568POPC   D2A69940  36.589  13.962   6.499
 5568POPC   C3A69941  36.791  13.787   6.850
 5568POPC   C4A69942  37.159  13.847   7.095
 5568POPC   C1B69943  37.082  13.260   6.137
 5568POPC   C2B69944  37.138  13.487   6.539
 5568POPC   C3B69945  37.109  13.349   6.972
 5568POPC   C4B69946  36.972  13.189   7.390
 5569POPC   NC369947  28.287   3.873   5.535
 5569POPC   PO469948  28.743   3.480   5.234
 5569POPC   GL169949  28.731   3.594   5.731
 5569POPC   GL269950  28.388   3.523   5.886
 5569POPC   C1A69951  28.747   3.452   6.216
 5569POPC   D2A69952  28.413   3.578   6.493
 5569POPC   C3A69953  28.529   3.470   6.881
 5569POPC   C4A69954  28.383   3.641   7.246
 5569POPC   C1B69955  28.024   3.438   6.150
 5569POPC   C2B69956  27.868   3.432   6.536
 5569POPC   C3B69957  28.027   3.460   6.893
 5569POPC   C4B69958  27.917   3.414   7.281
 5570POPC   NC369959   2.879  27.558   5.425
 5570POPC   PO469960   2.381  27.964   5.470
 5570POPC   GL169961   2.686  27.862   5.810
 5570POPC   GL269962   2.652  27.491   5.883
 5570POPC   C1A69963   2.790  27.814   6.265
 5570POPC   D2A69964   2.455  27.717   6.573
 5570POPC   C3A69965   2.545  27.646   6.993
 5570POPC   C4A69966   2.984  27.607   7.139
 5570POPC   C1B69967   2.742  27.293   6.298
 5570POPC   C2B69968   2.551  27.181   6.699
 5570POPC   C3B69969   2.671  27.190   7.139
 5570POPC   C4B69970   2.437  27.324   7.515
 5571POPC   NC369971  27.893  42.667   5.455
 5571POPC   PO469972  27.559  43.113   5.178
 5571POPC   GL169973  27.643  43.060   5.654
 5571POPC   GL269974  27.334  43.087   5.825
 5571POPC   C1A69975  27.703  43.163   6.146
 5571POPC   D2A69976  27.479  43.258   6.559
 5571POPC   C3A69977  27.718  43.309   6.926
 5571POPC   C4A69978  27.833  42.938   7.133
 5571POPC   C1B69979  27.228  42.941   6.227
 5571POPC   C2B69980  27.362  42.749   6.609
 5571POPC   C3B69981  27.324  42.964   7.011
 5571POPC   C4B69982  27.398  42.990   7.456
 5572POPC   NC369983   0.830  34.162   5.538
 5572POPC   PO469984   1.532  34.344   5.442
 5572POPC   GL169985   1.394  34.138   5.840
 5572POPC   GL269986   1.164  33.895   5.805
 5572POPC   C1A69987   1.362  34.057   6.307
 5572POPC   D2A69988   1.291  34.155   6.760
 5572POPC   C3A69989   1.196  33.806   7.044
 5572POPC   C4A69990   1.156  33.774   7.478
 5572POPC   C1B69991   0.878  33.970   6.153
 5572POPC   C2B69992   0.941  33.856   6.566
 5572POPC   C3B69993   0.765  34.064   6.937
 5572POPC   C4B69994   0.682  33.890   7.321
 5573POPC   NC369995   4.014  12.455   5.370
 5573POPC   PO469996   4.494  12.019   5.350
 5573POPC   GL169997   4.432  12.057   5.775
 5573POPC   GL269998   4.056  12.144   5.777
 5573POPC   C1A69999   4.364  12.293   6.145
 5573POPC   D2A70000   4.154  12.204   6.500
 5573POPC   C3A70001   4.307  12.003   6.859
 5573POPC   C4A70002   4.391  12.050   7.264
 5573POPC   C1B70003   4.062  11.831   6.112
 5573POPC   C2B70004   3.982  11.713   6.560
 5573POPC   C3B70005   3.873  11.753   6.998
 5573POPC   C4B70006   4.050  11.702   7.404
 5574POPC   NC370007  20.436  31.218   5.281
 5574POPC   PO470008  20.815  31.777   5.470
 5574POPC   GL170009  20.587  31.486   5.727
 5574POPC   GL270010  20.818  31.225   5.770
 5574POPC   C1A70011  20.530  31.488   6.188
 5574POPC   D2A70012  20.290  31.549   6.539
 5574POPC   C3A70013  20.503  31.554   6.909
 5574POPC   C4A70014  20.528  31.402   7.273
 5574POPC   C1B70015  20.787  31.045   6.186
 5574POPC   C2B70016  20.754  31.200   6.608
 5574POPC   C3B70017  20.732  31.024   7.025
 5574POPC   C4B70018  20.845  31.052   7.476
 5575POPC   NC370019  12.277  30.066   5.472
 5575POPC   PO470020  11.729  29.660   5.530
 5575POPC   GL170021  11.968  29.886   5.863
 5575POPC   GL270022  12.137  30.226   5.912
 5575POPC   C1A70023  12.194  29.863   6.266
 5575POPC   D2A70024  12.583  29.939   6.485
 5575POPC   C3A70025  12.449  29.871   6.906
 5575POPC   C4A70026  12.238  30.121   7.218
 5575POPC   C1B70027  11.829  30.256   6.197
 5575POPC   C2B70028  11.705  29.934   6.490
 5575POPC   C3B70029  11.863  29.908   6.929
 5575POPC   C4B70030  11.882  29.713   7.382
 5576POPC   NC370031  41.054  31.125   5.315
 5576POPC   PO470032  40.760  30.527   5.422
 5576POPC   GL170033  40.734  30.607   5.830
 5576POPC   GL270034  40.663  30.928   5.754
 5576POPC   C1A70035  40.914  30.519   6.226
 5576POPC   D2A70036  41.149  30.638   6.590
 5576POPC   C3A70037  40.848  30.531   6.940
 5576POPC   C4A70038  40.847  30.348   7.357
 5576POPC   C1B70039  40.993  31.029   6.051
 5576POPC   C2B70040  40.879  31.092   6.473
 5576POPC   C3B70041  41.023  31.035   6.908
 5576POPC   C4B70042  41.037  30.853   7.345
 5577POPC   NC370043  44.794   7.704   5.489
 5577POPC   PO470044  44.141   7.422   5.377
 5577POPC   GL170045  44.416   7.474   5.811
 5577POPC   GL270046  44.815   7.505   5.928
 5577POPC   C1A70047  44.491   7.515   6.284
 5577POPC   D2A70048  44.694   7.630   6.670
 5577POPC   C3A70049  44.427   7.792   7.014
 5577POPC   C4A70050  44.385   7.738   7.478
 5577POPC   C1B70051  44.888   7.171   6.187
 5577POPC   C2B70052  44.990   7.057   6.596
 5577POPC   C3B70053  44.778   7.226   6.955
 5577POPC   C4B70054  44.769   7.502   7.272
 5578POPC   NC370055  17.279  18.149   5.377
 5578POPC   PO470056  17.903  18.253   5.366
 5578POPC   GL170057  17.708  18.381   5.815
 5578POPC   GL270058  17.331  18.323   5.850
 5578POPC   C1A70059  17.589  18.348   6.291
 5578POPC   D2A70060  17.492  18.087   6.626
 5578POPC   C3A70061  17.664  18.266   6.955
 5578POPC   C4A70062  17.536  18.491   7.308
 5578POPC   C1B70063  17.181  18.614   6.185
 5578POPC   C2B70064  17.116  18.457   6.599
 5578POPC   C3B70065  17.168  18.263   7.000
 5578POPC   C4B70066  17.039  18.389   7.387
 5579POPC   NC370067   6.397  37.845   5.509
 5579POPC   PO470068   6.855  37.295   5.546
 5579POPC   GL170069   6.728  37.637   5.838
 5579POPC   GL270070   6.452  37.527   5.920
 5579POPC   C1A70071   6.823  37.785   6.232
 5579POPC   D2A70072   6.985  37.567   6.559
 5579POPC   C3A70073   7.031  37.679   6.989
 5579POPC   C4A70074   6.862  37.449   7.321
 5579POPC   C1B70075   6.313  37.839   6.224
 5579POPC   C2B70076   6.399  37.863   6.658
 5579POPC   C3B70077   6.588  37.919   7.048
 5579POPC   C4B70078   6.653  37.862   7.500
 5580POPC   NC370079   2.621  10.165   5.133
 5580POPC   PO470080   2.932  10.607   5.533
 5580POPC   GL170081   2.635  10.502   5.864
 5580POPC   GL270082   2.501  10.164   5.772
 5580POPC   C1A70083   2.698  10.633   6.331
 5580POPC   D2A70084   3.057  10.804   6.584
 5580POPC   C3A70085   2.921  10.936   6.986
 5580POPC   C4A70086   2.740  10.736   7.323
 5580POPC   C1B70087   2.686  10.127   6.202
 5580POPC   C2B70088   2.474  10.232   6.568
 5580POPC   C3B70089   2.612  10.433   6.934
 5580POPC   C4B70090   2.814  10.218   7.306
 5581POPC   NC370091  16.566  34.272   5.426
 5581POPC   PO470092  16.871  33.630   5.423
 5581POPC   GL170093  16.639  33.623   5.802
 5581POPC   GL270094  16.659  33.968   5.813
 5581POPC   C1A70095  16.768  33.571   6.224
 5581POPC   D2A70096  16.742  33.335   6.594
 5581POPC   C3A70097  16.713  33.578   6.979
 5581POPC   C4A70098  17.079  33.711   7.211
 5581POPC   C1B70099  16.778  34.108   6.193
 5581POPC   C2B70100  16.705  33.953   6.597
 5581POPC   C3B70101  16.849  34.109   6.974
 5581POPC   C4B70102  16.659  33.997   7.330
 5582POPC   NC370103  42.459   2.593   5.498
 5582POPC   PO470104  41.975   3.077   5.454
 5582POPC   GL170105  42.189   2.962   5.813
 5582POPC   GL270106  42.534   3.020   5.879
 5582POPC   C1A70107  42.174   2.812   6.230
 5582POPC   D2A70108  42.058   2.966   6.628
 5582POPC   C3A70109  42.083   2.629   6.930
 5582POPC   C4A70110  42.023   2.709   7.355
 5582POPC   C1B70111  42.642   2.638   6.144
 5582POPC   C2B70112  42.509   2.648   6.591
 5582POPC   C3B70113  42.478   2.973   6.925
 5582POPC   C4B70114  42.518   2.714   7.251
 5583POPC   NC370115  38.175  43.599   5.288
 5583POPC   PO470116  38.653  44.177   5.459
 5583POPC   GL170117  38.381  43.904   5.700
 5583POPC   GL270118  38.548  43.569   5.654
 5583POPC   C1A70119  38.192  43.847   6.145
 5583POPC   D2A70120  38.294  43.744   6.600
 5583POPC   C3A70121  38.129  44.004   6.938
 5583POPC   C4A70122  38.339  44.200   7.342
 5583POPC   C1B70123  38.673  43.658   6.079
 5583POPC   C2B70124  38.741  43.507   6.488
 5583POPC   C3B70125  38.894  43.655   6.880
 5583POPC   C4B70126  38.613  43.895   7.075
 5584POPC   NC370127  30.477  12.174   5.289
 5584POPC   PO470128  31.107  12.232   5.391
 5584POPC   GL170129  30.882  12.031   5.733
 5584POPC   GL270130  30.502  12.001   5.801
 5584POPC   C1A70131  30.876  12.133   6.165
 5584POPC   D2A70132  30.711  12.306   6.541
 5584POPC   C3A70133  30.973  12.281   6.885
 5584POPC   C4A70134  30.905  12.020   7.236
 5584POPC   C1B70135  30.328  12.204   6.186
 5584POPC   C2B70136  30.212  12.291   6.632
 5584POPC   C3B70137  30.434  12.188   7.052
 5584POPC   C4B70138  30.425  11.805   7.311
 5585POPC   NC370139   9.722  16.399   5.169
 5585POPC   PO470140   9.805  16.961   5.350
 5585POPC   GL170141   9.824  16.790   5.749
 5585POPC   GL270142   9.698  16.463   5.703
 5585POPC   C1A70143   9.993  16.722   6.159
 5585POPC   D2A70144   9.781  16.798   6.534
 5585POPC   C3A70145   9.957  16.656   6.899
 5585POPC   C4A70146   9.892  16.856   7.257
 5585POPC   C1B70147   9.529  16.426   6.127
 5585POPC   C2B70148   9.321  16.434   6.517
 5585POPC   C3B70149   9.403  16.649   6.901
 5585POPC   C4B70150   9.577  16.468   7.238
 5586POPC   NC370151  36.654  28.640   5.545
 5586POPC   PO470152  37.044  28.231   5.191
 5586POPC   GL170153  36.904  28.265   5.744
 5586POPC   GL270154  36.957  27.972   5.974
 5586POPC   C1A70155  36.959  28.441   6.185
 5586POPC   D2A70156  37.064  28.467   6.635
 5586POPC   C3A70157  36.742  28.614   6.920
 5586POPC   C4A70158  36.558  28.491   7.323
 5586POPC   C1B70159  37.019  27.924   6.423
 5586POPC   C2B70160  36.941  28.015   6.862
 5586POPC   C3B70161  37.035  28.274   7.220
 5586POPC   C4B70162  37.023  28.130   7.646
 5587POPC   NC370163  29.940  41.594   5.519
 5587POPC   PO470164  29.590  41.036   5.327
 5587POPC   GL170165  29.672  41.219   5.761
 5587POPC   GL270166  30.037  41.320   5.930
 5587POPC   C1A70167  29.608  41.382   6.205
 5587POPC   D2A70168  29.570  41.652   6.581
 5587POPC   C3A70169  29.686  41.512   6.991
 5587POPC   C4A70170  30.101  41.357   7.189
 5587POPC   C1B70171  30.080  41.641   6.298
 5587POPC   C2B70172  30.077  41.767   6.762
 5587POPC   C3B70173  30.140  41.873   7.207
 5587POPC   C4B70174  29.989  42.060   7.602
 5588POPC   NC370175  13.887  18.938   5.324
 5588POPC   PO470176  13.552  19.489   5.388
 5588POPC   GL170177  13.491  19.083   5.659
 5588POPC   GL270178  13.154  18.949   5.608
 5588POPC   C1A70179  13.620  18.937   6.098
 5588POPC   D2A70180  13.952  19.010   6.442
 5588POPC   C3A70181  13.802  19.171   6.844
 5588POPC   C4A70182  13.812  19.401   7.229
 5588POPC   C1B70183  13.173  18.658   5.978
 5588POPC   C2B70184  13.246  18.701   6.444
 5588POPC   C3B70185  13.239  18.799   6.900
 5588POPC   C4B70186  13.510  18.971   7.218
 5589POPC   NC370187   8.152  10.449   5.284
 5589POPC   PO470188   8.535  10.950   5.426
 5589POPC   GL170189   8.377  10.641   5.779
 5589POPC   GL270190   8.080  10.466   5.801
 5589POPC   C1A70191   8.248  10.746   6.220
 5589POPC   D2A70192   8.276  10.545   6.661
 5589POPC   C3A70193   8.027  10.642   7.050
 5589POPC   C4A70194   7.948  10.586   7.526
 5589POPC   C1B70195   8.188  10.231   6.242
 5589POPC   C2B70196   8.161  10.015   6.663
 5589POPC   C3B70197   8.285  10.200   7.064
 5589POPC   C4B70198   8.591  10.490   7.221
 5590POPC   NC370199  28.442  20.972   5.405
 5590POPC   PO470200  28.218  20.355   5.549
 5590POPC   GL170201  28.425  20.656   5.826
 5590POPC   GL270202  28.166  20.848   5.839
 5590POPC   C1A70203  28.510  20.623   6.292
 5590POPC   D2A70204  28.538  20.398   6.718
 5590POPC   C3A70205  28.656  20.562   7.101
 5590POPC   C4A70206  28.325  20.805   7.222
 5590POPC   C1B70207  28.062  20.888   6.237
 5590POPC   C2B70208  28.178  20.802   6.642
 5590POPC   C3B70209  28.034  20.527   6.894
 5590POPC   C4B70210  28.163  20.279   7.196
 5591POPC   NC370211  12.617   8.053   5.262
 5591POPC   PO470212  13.204   8.004   5.577
 5591POPC   GL170213  12.825   8.202   5.788
 5591POPC   GL270214  12.481   8.066   5.752
 5591POPC   C1A70215  12.598   8.322   6.185
 5591POPC   D2A70216  12.693   8.488   6.594
 5591POPC   C3A70217  12.816   8.355   6.968
 5591POPC   C4A70218  12.981   8.451   7.366
 5591POPC   C1B70219  12.395   7.844   6.124
 5591POPC   C2B70220  12.607   7.921   6.534
 5591POPC   C3B70221  12.564   7.849   6.979
 5591POPC   C4B70222  12.890   7.952   7.270
 5592POPC   NC370223  44.295  30.914   5.034
 5592POPC   PO470224  43.784  30.706   5.451
 5592POPC   GL170225  43.797  30.536   5.846
 5592POPC   GL270226  43.439  30.528   5.817
 5592POPC   C1A70227  44.035  30.627   6.237
 5592POPC   D2A70228  44.314  30.645   6.618
 5592POPC   C3A70229  44.131  30.511   6.982
 5592POPC   C4A70230  44.093  30.412   7.362
 5592POPC   C1B70231  43.487  30.788   6.169
 5592POPC   C2B70232  43.644  30.713   6.568
 5592POPC   C3B70233  43.633  30.569   6.956
 5592POPC   C4B70234  43.669  30.676   7.371
 5593POPC   NC370235   6.362  29.505   5.566
 5593POPC   PO470236   6.542  28.835   5.416
 5593POPC   GL170237   6.532  29.045   5.793
 5593POPC   GL270238   6.881  29.033   5.802
 5593POPC   C1A70239   6.564  29.274   6.179
 5593POPC   D2A70240   6.545  29.122   6.569
 5593POPC   C3A70241   6.513  29.354   6.900
 5593POPC   C4A70242   6.504  29.226   7.305
 5593POPC   C1B70243   6.804  28.824   6.208
 5593POPC   C2B70244   6.989  28.892   6.627
 5593POPC   C3B70245   6.790  28.879   7.019
 5593POPC   C4B70246   6.955  28.999   7.409
 5594POPC   NC370247  36.327  43.584   5.313
 5594POPC   PO470248  35.886  43.036   5.368
 5594POPC   GL170249  35.985  43.108   5.833
 5594POPC   GL270250  36.357  43.061   5.885
 5594POPC   C1A70251  36.038  43.293   6.275
 5594POPC   D2A70252  36.296  43.176   6.661
 5594POPC   C3A70253  36.279  43.264   7.119
 5594POPC   C4A70254  36.040  43.357   7.503
 5594POPC   C1B70255  36.180  42.800   6.232
 5594POPC   C2B70256  36.287  42.610   6.615
 5594POPC   C3B70257  36.159  42.776   6.986
 5594POPC   C4B70258  36.175  42.857   7.407
 5595POPC   NC370259  37.548  41.336   5.364
 5595POPC   PO470260  37.864  41.930   5.369
 5595POPC   GL170261  37.758  41.655   5.708
 5595POPC   GL270262  37.407  41.578   5.799
 5595POPC   C1A70263  37.878  41.495   6.116
 5595POPC   D2A70264  37.958  41.379   6.535
 5595POPC   C3A70265  37.717  41.605   6.876
 5595POPC   C4A70266  37.519  41.671   7.296
 5595POPC   C1B70267  37.338  41.302   6.173
 5595POPC   C2B70268  37.248  41.237   6.641
 5595POPC   C3B70269  37.312  41.228   7.108
 5595POPC   C4B70270  37.381  41.256   7.580
 5596POPC   NC370271   5.961   2.493   5.467
 5596POPC   PO470272   5.946   3.015   5.127
 5596POPC   GL170273   5.876   2.987   5.619
 5596POPC   GL270274   6.193   2.865   5.765
 5596POPC   C1A70275   5.692   2.814   6.026
 5596POPC   D2A70276   5.632   2.553   6.416
 5596POPC   C3A70277   5.692   2.740   6.839
 5596POPC   C4A70278   5.695   2.588   7.255
 5596POPC   C1B70279   6.180   2.606   6.164
 5596POPC   C2B70280   6.124   2.509   6.625
 5596POPC   C3B70281   6.166   2.577   7.059
 5596POPC   C4B70282   6.101   2.887   7.387
 5597POPC   NC370283  35.356   9.298   5.004
 5597POPC   PO470284  35.464   8.774   5.456
 5597POPC   GL170285  35.546   8.886   5.862
 5597POPC   GL270286  35.481   9.218   5.791
 5597POPC   C1A70287  35.432   8.733   6.261
 5597POPC   D2A70288  35.264   8.686   6.678
 5597POPC   C3A70289  35.485   8.896   6.985
 5597POPC   C4A70290  35.560   8.740   7.398
 5597POPC   C1B70291  35.223   9.224   6.153
 5597POPC   C2B70292  35.016   9.109   6.504
 5597POPC   C3B70293  35.035   9.229   6.917
 5597POPC   C4B70294  35.110   9.027   7.294
 5598POPC   NC370295  25.460  41.775   5.604
 5598POPC   PO470296  25.112  41.331   5.367
 5598POPC   GL170297  25.093  41.402   5.799
 5598POPC   GL270298  25.021  41.738   5.823
 5598POPC   C1A70299  25.039  41.197   6.214
 5598POPC   D2A70300  24.815  41.281   6.598
 5598POPC   C3A70301  25.123  41.285   6.933
 5598POPC   C4A70302  25.060  41.305   7.369
 5598POPC   C1B70303  25.269  41.662   6.236
 5598POPC   C2B70304  25.671  41.650   6.505
 5598POPC   C3B70305  25.640  41.777   6.942
 5598POPC   C4B70306  25.233  41.775   7.127
 5599POPC   NC370307  29.302  31.789   5.576
 5599POPC   PO470308  29.641  32.351   5.472
 5599POPC   GL170309  29.449  32.254   5.851
 5599POPC   GL270310  29.175  32.487   5.819
 5599POPC   C1A70311  29.168  32.126   6.198
 5599POPC   D2A70312  28.946  32.212   6.585
 5599POPC   C3A70313  29.072  32.010   6.940
 5599POPC   C4A70314  29.300  32.232   7.259
 5599POPC   C1B70315  28.937  32.608   6.201
 5599POPC   C2B70316  28.956  32.733   6.658
 5599POPC   C3B70317  28.898  32.483   7.079
 5599POPC   C4B70318  28.984  32.537   7.554
 5600POPC   NC370319   6.974  43.418   5.445
 5600POPC   PO470320   6.525  43.017   5.311
 5600POPC   GL170321   6.446  43.222   5.714
 5600POPC   GL270322   6.757  43.113   5.808
 5600POPC   C1A70323   6.472  43.212   6.199
 5600POPC   D2A70324   6.661  43.404   6.545
 5600POPC   C3A70325   6.605  43.245   6.933
 5600POPC   C4A70326   6.427  42.967   7.192
 5600POPC   C1B70327   6.838  42.812   6.113
 5600POPC   C2B70328   6.750  42.874   6.539
 5600POPC   C3B70329   6.844  42.748   6.950
 5600POPC   C4B70330   6.972  43.019   7.260
 5601POPC   NC370331  15.293  18.205   5.258
 5601POPC   PO470332  15.092  18.700   5.606
 5601POPC   GL170333  15.280  18.513   5.912
 5601POPC   GL270334  15.309  18.179   5.778
 5601POPC   C1A70335  15.323  18.627   6.312
 5601POPC   D2A70336  15.186  18.419   6.658
 5601POPC   C3A70337  15.341  18.445   7.042
 5601POPC   C4A70338  15.369  18.280   7.459
 5601POPC   C1B70339  15.183  18.107   6.218
 5601POPC   C2B70340  15.361  17.936   6.598
 5601POPC   C3B70341  15.250  17.922   7.029
 5601POPC   C4B70342  14.933  18.155   7.235
 5602POPC   NC370343  25.556  17.809   5.454
 5602POPC   PO470344  25.314  18.430   5.346
 5602POPC   GL170345  25.516  18.289   5.749
 5602POPC   GL270346  25.282  18.072   5.827
 5602POPC   C1A70347  25.601  18.590   6.088
 5602POPC   D2A70348  25.484  18.910   6.401
 5602POPC   C3A70349  25.355  18.682   6.764
 5602POPC   C4A70350  25.460  18.404   7.121
 5602POPC   C1B70351  25.354  17.801   6.157
 5602POPC   C2B70352  25.245  17.926   6.552
 5602POPC   C3B70353  25.023  18.204   6.767
 5602POPC   C4B70354  25.016  18.166   7.166
 5603POPC   NC370355  26.602   3.412   5.268
 5603POPC   PO470356  27.019   3.943   5.232
 5603POPC   GL170357  26.905   3.737   5.628
 5603POPC   GL270358  27.196   3.718   5.853
 5603POPC   C1A70359  26.747   3.626   6.068
 5603POPC   D2A70360  26.901   3.294   6.376
 5603POPC   C3A70361  26.739   3.259   6.815
 5603POPC   C4A70362  26.632   3.538   7.162
 5603POPC   C1B70363  27.196   3.778   6.312
 5603POPC   C2B70364  26.904   3.744   6.675
 5603POPC   C3B70365  26.833   3.986   7.059
 5603POPC   C4B70366  27.016   3.779   7.436
 5604POPC   NC370367  23.569  10.360   5.506
 5604POPC   PO470368  24.010  10.788   5.269
 5604POPC   GL170369  23.997  10.758   5.726
 5604POPC   GL270370  23.683  10.877   5.803
 5604POPC   C1A70371  23.840  10.451   6.087
 5604POPC   D2A70372  23.604  10.367   6.475
 5604POPC   C3A70373  23.803  10.480   6.871
 5604POPC   C4A70374  23.827  10.299   7.272
 5604POPC   C1B70375  23.407  10.753   6.148
 5604POPC   C2B70376  23.198  10.820   6.534
 5604POPC   C3B70377  23.433  10.830   6.924
 5604POPC   C4B70378  23.711  10.785   7.298
 5605POPC   NC370379   8.626  14.023   5.295
 5605POPC   PO470380   9.121  14.543   5.384
 5605POPC   GL170381   8.981  14.458   5.762
 5605POPC   GL270382   8.825  14.122   5.787
 5605POPC   C1A70383   8.872  14.614   6.138
 5605POPC   D2A70384   9.146  14.585   6.481
 5605POPC   C3A70385   9.042  14.496   6.894
 5605POPC   C4A70386   9.251  14.535   7.264
 5605POPC   C1B70387   9.062  14.130   6.161
 5605POPC   C2B70388   8.962  14.023   6.574
 5605POPC   C3B70389   9.151  14.012   6.982
 5605POPC   C4B70390   8.830  14.186   7.238
 5606POPC   NC370391  17.911  42.221   5.452
 5606POPC   PO470392  17.262  42.351   5.694
 5606POPC   GL170393  17.682  42.375   5.901
 5606POPC   GL270394  18.060  42.467   5.863
 5606POPC   C1A70395  17.785  42.623   6.283
 5606POPC   D2A70396  17.519  42.654   6.671
 5606POPC   C3A70397  17.355  42.253   6.879
 5606POPC   C4A70398  17.162  42.179   7.279
 5606POPC   C1B70399  18.022  42.159   6.197
 5606POPC   C2B70400  17.799  42.202   6.580
 5606POPC   C3B70401  17.852  42.377   6.979
 5606POPC   C4B70402  17.657  42.155   7.312
 5607POPC   NC370403  43.474  10.198   5.398
 5607POPC   PO470404  43.267   9.565   5.368
 5607POPC   GL170405  43.008   9.781   5.690
 5607POPC   GL270406  43.014   9.466   5.883
 5607POPC   C1A70407  43.104   9.906   6.121
 5607POPC   D2A70408  43.145   9.566   6.407
 5607POPC   C3A70409  43.111   9.662   6.839
 5607POPC   C4A70410  43.349   9.770   7.211
 5607POPC   C1B70411  42.677   9.618   6.136
 5607POPC   C2B70412  42.693   9.791   6.523
 5607POPC   C3B70413  42.603   9.709   6.919
 5607POPC   C4B70414  42.845   9.712   7.282
 5608POPC   NC370415  36.831   0.961   5.409
 5608POPC   PO470416  36.973   0.326   5.444
 5608POPC   GL170417  37.025   0.324   5.854
 5608POPC   GL270418  37.336   0.170   5.827
 5608POPC   C1A70419  36.855   0.344   6.252
 5608POPC   D2A70420  37.049   0.436   6.650
 5608POPC   C3A70421  36.857   0.453   7.078
 5608POPC   C4A70422  36.925   0.541   7.530
 5608POPC   C1B70423  37.169  44.956   6.195
 5608POPC   C2B70424  36.988  44.925   6.593
 5608POPC   C3B70425  37.182   0.070   6.963
 5608POPC   C4B70426  37.470   0.146   7.263
 5609POPC   NC370427   5.287  10.033   5.468
 5609POPC   PO470428   4.841   9.569   5.330
 5609POPC   GL170429   5.114   9.632   5.741
 5609POPC   GL270430   5.170   9.307   5.825
 5609POPC   C1A70431   5.302   9.827   6.189
 5609POPC   D2A70432   5.290   9.994   6.639
 5609POPC   C3A70433   5.195   9.774   7.011
 5609POPC   C4A70434   5.078   9.823   7.481
 5609POPC   C1B70435   4.831   9.455   6.101
 5609POPC   C2B70436   4.838   9.750   6.425
 5609POPC   C3B70437   4.744   9.603   6.813
 5609POPC   C4B70438   4.900   9.425   7.203
 5610POPC   NC370439  16.954  40.361   5.329
 5610POPC   PO470440  17.012  41.023   5.373
 5610POPC   GL170441  16.964  40.784   5.743
 5610POPC   GL270442  16.659  40.586   5.710
 5610POPC   C1A70443  16.692  40.926   6.090
 5610POPC   D2A70444  16.649  40.789   6.517
 5610POPC   C3A70445  16.952  40.914   6.863
 5610POPC   C4A70446  16.794  41.004   7.301
 5610POPC   C1B70447  16.709  40.420   6.161
 5610POPC   C2B70448  16.555  40.306   6.594
 5610POPC   C3B70449  16.552  40.585   6.970
 5610POPC   C4B70450  16.901  40.513   7.203
 5611POPC   NC370451  28.082  27.320   5.630
 5611POPC   PO470452  27.689  27.786   5.296
 5611POPC   GL170453  27.635  27.603   5.703
 5611POPC   GL270454  27.566  27.229   5.704
 5611POPC   C1A70455  27.744  27.671   6.133
 5611POPC   D2A70456  27.514  27.729   6.514
 5611POPC   C3A70457  27.711  27.825   6.894
 5611POPC   C4A70458  27.634  27.678   7.281
 5611POPC   C1B70459  27.650  27.168   6.153
 5611POPC   C2B70460  27.919  27.309   6.507
 5611POPC   C3B70461  27.812  27.312   6.945
 5611POPC   C4B70462  27.997  27.310   7.356
 5612POPC   NC370463  15.500  36.329   5.331
 5612POPC   PO470464  16.038  35.924   5.155
 5612POPC   GL170465  15.957  35.984   5.624
 5612POPC   GL270466  15.834  36.343   5.738
 5612POPC   C1A70467  15.922  35.949   6.102
 5612POPC   D2A70468  16.073  36.138   6.473
 5612POPC   C3A70469  15.992  36.007   6.889
 5612POPC   C4A70470  16.081  36.292   7.214
 5612POPC   C1B70471  15.596  36.368   6.130
 5612POPC   C2B70472  15.488  36.481   6.542
 5612POPC   C3B70473  15.702  36.432   6.898
 5612POPC   C4B70474  15.643  36.519   7.322
 5613POPC   NC370475  25.366  19.804   5.585
 5613POPC   PO470476  24.721  19.636   5.596
 5613POPC   GL170477  25.085  19.549   5.917
 5613POPC   GL270478  25.298  19.878   6.072
 5613POPC   C1A70479  25.265  19.437   6.324
 5613POPC   D2A70480  25.357  19.812   6.580
 5613POPC   C3A70481  25.298  19.754   6.992
 5613POPC   C4A70482  25.003  19.794   7.309
 5613POPC   C1B70483  25.121  20.223   6.371
 5613POPC   C2B70484  25.394  20.305   6.734
 5613POPC   C3B70485  25.365  20.248   7.145
 5613POPC   C4B70486  25.493  19.960   7.453
 5614POPC   NC370487   2.129  29.502   5.460
 5614POPC   PO470488   2.456  28.870   5.670
 5614POPC   GL170489   2.180  29.033   5.990
 5614POPC   GL270490   1.949  29.297   5.909
 5614POPC   C1A70491   2.137  29.226   6.401
 5614POPC   D2A70492   2.348  29.209   6.787
 5614POPC   C3A70493   2.066  29.030   7.093
 5614POPC   C4A70494   1.965  29.421   7.118
 5614POPC   C1B70495   1.659  29.172   6.252
 5614POPC   C2B70496   1.736  29.205   6.714
 5614POPC   C3B70497   1.492  29.224   7.089
 5614POPC   C4B70498   1.595  28.967   7.415
 5615POPC   NC370499   1.582  16.373   5.093
 5615POPC   PO470500   1.020  16.002   5.191
 5615POPC   GL170501   1.014  15.940   5.680
 5615POPC   GL270502   0.927  16.245   5.848
 5615POPC   C1A70503   1.094  15.900   6.181
 5615POPC   D2A70504   1.481  15.960   6.499
 5615POPC   C3A70505   1.386  15.893   6.964
 5615POPC   C4A70506   1.123  15.792   7.345
 5615POPC   C1B70507   0.930  16.415   6.230
 5615POPC   C2B70508   1.094  16.276   6.590
 5615POPC   C3B70509   0.958  16.145   6.966
 5615POPC   C4B70510   0.918  16.443   7.208
 5616POPC   NC370511  14.751  39.484   5.423
 5616POPC   PO470512  15.295  39.217   5.343
 5616POPC   GL170513  15.212  39.286   5.770
 5616POPC   GL270514  14.882  39.415   5.915
 5616POPC   C1A70515  15.203  39.047   6.145
 5616POPC   D2A70516  15.370  39.156   6.537
 5616POPC   C3A70517  15.262  38.865   6.840
 5616POPC   C4A70518  15.226  39.080   7.221
 5616POPC   C1B70519  14.959  39.433   6.363
 5616POPC   C2B70520  14.994  39.351   6.813
 5616POPC   C3B70521  14.937  39.612   7.173
 5616POPC   C4B70522  14.934  39.688   7.610
 5617POPC   NC370523   9.817   3.773   5.362
 5617POPC   PO470524   9.805   3.105   5.434
 5617POPC   GL170525   9.692   3.406   5.775
 5617POPC   GL270526   9.936   3.639   5.828
 5617POPC   C1A70527   9.549   3.578   6.168
 5617POPC   D2A70528   9.429   3.440   6.565
 5617POPC   C3A70529   9.431   3.665   6.926
 5617POPC   C4A70530   9.686   3.623   7.276
 5617POPC   C1B70531  10.029   3.759   6.233
 5617POPC   C2B70532   9.945   3.529   6.603
 5617POPC   C3B70533  10.086   3.461   7.016
 5617POPC   C4B70534  10.075   3.276   7.451
 5618POPC   NC370535  33.758  16.627   5.310
 5618POPC   PO470536  34.267  17.025   5.317
 5618POPC   GL170537  34.006  16.945   5.680
 5618POPC   GL270538  34.013  16.572   5.737
 5618POPC   C1A70539  33.706  16.996   6.047
 5618POPC   D2A70540  33.700  17.089   6.500
 5618POPC   C3A70541  33.568  16.916   6.897
 5618POPC   C4A70542  33.595  16.778   7.314
 5618POPC   C1B70543  33.758  16.490   6.069
 5618POPC   C2B70544  33.692  16.562   6.516
 5618POPC   C3B70545  33.649  16.400   6.949
 5618POPC   C4B70546  33.276  16.365   7.220
 5619POPC   NC370547  40.878  43.243   5.423
 5619POPC   PO470548  40.563  42.665   5.363
 5619POPC   GL170549  40.566  42.989   5.729
 5619POPC   GL270550  40.280  43.111   5.871
 5619POPC   C1A70551  40.721  43.240   6.123
 5619POPC   D2A70552  40.707  43.092   6.573
 5619POPC   C3A70553  40.697  43.384   6.898
 5619POPC   C4A70554  41.112  43.324   7.047
 5619POPC   C1B70555  40.438  42.828   6.195
 5619POPC   C2B70556  40.400  42.635   6.603
 5619POPC   C3B70557  40.489  42.673   7.043
 5619POPC   C4B70558  40.696  43.014   7.231
 5620POPC   NC370559  31.359  43.629   5.467
 5620POPC   PO470560  31.110  44.285   5.449
 5620POPC   GL170561  31.280  44.049   5.782
 5620POPC   GL270562  31.606  44.109   5.894
 5620POPC   C1A70563  31.221  43.878   6.199
 5620POPC   D2A70564  31.199  44.069   6.610
 5620POPC   C3A70565  31.493  44.085   6.943
 5620POPC   C4A70566  31.461  43.730   7.195
 5620POPC   C1B70567  31.706  43.731   6.134
 5620POPC   C2B70568  31.606  43.688   6.572
 5620POPC   C3B70569  31.887  43.760   6.900
 5620POPC   C4B70570  31.934  43.755   7.352
 5621POPC   NC370571  18.331  39.005   5.015
 5621POPC   PO470572  18.281  38.417   5.159
 5621POPC   GL170573  18.213  38.435   5.667
 5621POPC   GL270574  18.388  38.765   5.783
 5621POPC   C1A70575  18.259  38.434   6.141
 5621POPC   D2A70576  17.985  38.624   6.453
 5621POPC   C3A70577  18.135  38.611   6.869
 5621POPC   C4A70578  18.003  38.422   7.283
 5621POPC   C1B70579  18.654  38.818   6.150
 5621POPC   C2B70580  18.517  38.844   6.552
 5621POPC   C3B70581  18.750  38.796   6.934
 5621POPC   C4B70582  18.505  38.537   7.209
 5622POPC   NC370583  31.562   1.735   5.402
 5622POPC   PO470584  31.664   2.251   5.059
 5622POPC   GL170585  31.539   2.183   5.602
 5622POPC   GL270586  31.515   2.478   5.834
 5622POPC   C1A70587  31.272   2.013   5.973
 5622POPC   D2A70588  31.172   2.144   6.421
 5622POPC   C3A70589  31.248   1.916   6.827
 5622POPC   C4A70590  31.123   1.990   7.282
 5622POPC   C1B70591  31.645   2.278   6.230
 5622POPC   C2B70592  31.675   2.246   6.679
 5622POPC   C3B70593  31.533   2.246   7.101
 5622POPC   C4B70594  31.700   2.019   7.456
 5623POPC   NC370595  36.405  30.818   5.281
 5623POPC   PO470596  35.839  30.464   5.434
 5623POPC   GL170597  36.109  30.452   5.799
 5623POPC   GL270598  36.410  30.681   5.781
 5623POPC   C1A70599  35.965  30.441   6.233
 5623POPC   D2A70600  36.160  30.448   6.625
 5623POPC   C3A70601  35.888  30.419   6.944
 5623POPC   C4A70602  35.982  30.529   7.337
 5623POPC   C1B70603  36.454  30.663   6.220
 5623POPC   C2B70604  36.216  30.927   6.523
 5623POPC   C3B70605  36.232  30.862   6.982
 5623POPC   C4B70606  36.330  31.131   7.343
 5624POPC   NC370607  43.431  31.015   5.441
 5624POPC   PO470608  43.140  30.369   5.401
 5624POPC   GL170609  42.918  30.629   5.650
 5624POPC   GL270610  43.106  30.898   5.789
 5624POPC   C1A70611  42.824  30.603   6.085
 5624POPC   D2A70612  43.115  30.520   6.424
 5624POPC   C3A70613  43.158  30.760   6.793
 5624POPC   C4A70614  43.170  30.657   7.237
 5624POPC   C1B70615  43.030  31.059   6.187
 5624POPC   C2B70616  42.719  30.905   6.490
 5624POPC   C3B70617  42.691  30.950   6.919
 5624POPC   C4B70618  43.021  31.136   7.143
 5625POPC   NC370619   3.129  33.319   5.481
 5625POPC   PO470620   3.656  32.792   5.440
 5625POPC   GL170621   3.692  33.008   5.823
 5625POPC   GL270622   3.329  33.065   5.915
 5625POPC   C1A70623   3.699  32.842   6.245
 5625POPC   D2A70624   3.415  32.903   6.570
 5625POPC   C3A70625   3.649  32.881   6.950
 5625POPC   C4A70626   3.431  32.827   7.328
 5625POPC   C1B70627   3.156  33.353   6.258
 5625POPC   C2B70628   3.355  33.394   6.676
 5625POPC   C3B70629   3.257  33.214   7.037
 5625POPC   C4B70630   3.039  33.385   7.349
 5626POPC   NC370631  29.606  12.339   5.446
 5626POPC   PO470632  30.163  11.842   5.422
 5626POPC   GL170633  29.978  12.116   5.754
 5626POPC   GL270634  30.084  12.469   5.803
 5626POPC   C1A70635  29.834  12.043   6.174
 5626POPC   D2A70636  29.923  11.790   6.530
 5626POPC   C3A70637  29.976  11.960   6.946
 5626POPC   C4A70638  29.900  11.722   7.287
 5626POPC   C1B70639  29.931  12.538   6.251
 5626POPC   C2B70640  29.678  12.324   6.600
 5626POPC   C3B70641  29.502  12.172   6.998
 5626POPC   C4B70642  29.707  12.195   7.403
 5627POPC   NC370643  24.525  13.477   5.491
 5627POPC   PO470644  24.110  13.912   5.722
 5627POPC   GL170645  24.572  13.735   5.914
 5627POPC   GL270646  24.815  13.378   5.873
 5627POPC   C1A70647  24.904  13.698   6.241
 5627POPC   D2A70648  24.834  13.537   6.650
 5627POPC   C3A70649  24.439  13.673   6.815
 5627POPC   C4A70650  24.434  13.722   7.232
 5627POPC   C1B70651  24.554  13.305   6.252
 5627POPC   C2B70652  24.407  13.172   6.667
 5627POPC   C3B70653  24.527  13.235   7.108
 5627POPC   C4B70654  24.342  13.318   7.528
 5628POPC   NC370655  42.031  35.410   5.360
 5628POPC   PO470656  42.561  35.136   5.075
 5628POPC   GL170657  42.545  35.342   5.535
 5628POPC   GL270658  42.283  35.198   5.760
 5628POPC   C1A70659  42.617  35.482   6.011
 5628POPC   D2A70660  42.530  35.253   6.446
 5628POPC   C3A70661  42.598  35.342   6.918
 5628POPC   C4A70662  42.600  35.389   7.373
 5628POPC   C1B70663  42.102  35.497   6.087
 5628POPC   C2B70664  42.078  35.576   6.530
 5628POPC   C3B70665  42.089  35.289   6.853
 5628POPC   C4B70666  42.128  35.210   7.279
 5629POPC   NC370667  16.779  33.162   5.559
 5629POPC   PO470668  16.409  32.766   5.220
 5629POPC   GL170669  16.524  32.736   5.734
 5629POPC   GL270670  16.846  32.691   5.883
 5629POPC   C1A70671  16.517  32.967   6.166
 5629POPC   D2A70672  16.688  32.802   6.560
 5629POPC   C3A70673  16.636  32.999   6.965
 5629POPC   C4A70674  16.681  32.823   7.341
 5629POPC   C1B70675  17.031  33.012   6.191
 5629POPC   C2B70676  17.179  33.014   6.614
 5629POPC   C3B70677  17.112  33.245   6.971
 5629POPC   C4B70678  16.908  33.259   7.359
 5630POPC   NC370679  30.282   0.481   5.394
 5630POPC   PO470680  29.627   0.565   5.430
 5630POPC   GL170681  29.939   0.514   5.769
 5630POPC   GL270682  30.109   0.822   5.774
 5630POPC   C1A70683  30.159   0.443   6.167
 5630POPC   D2A70684  29.931   0.379   6.510
 5630POPC   C3A70685  30.082   0.435   6.914
 5630POPC   C4A70686  29.870   0.244   7.290
 5630POPC   C1B70687  29.809   0.810   6.166
 5630POPC   C2B70688  29.589   0.779   6.540
 5630POPC   C3B70689  29.597   0.883   6.978
 5630POPC   C4B70690  29.924   0.766   7.270
 5631POPC   NC370691  28.544  44.821   5.499
 5631POPC   PO470692  27.993  44.356   5.532
 5631POPC   GL170693  28.148  44.697   5.827
 5631POPC   GL270694  28.475  44.549   5.936
 5631POPC   C1A70695  28.134  44.698   6.307
 5631POPC   D2A70696  27.948  44.686   6.739
 5631POPC   C3A70697  28.271  44.676   7.037
 5631POPC   C4A70698  28.537  44.837   7.385
 5631POPC   C1B70699  28.757  44.590   6.306
 5631POPC   C2B70700  28.722  44.661   6.746
 5631POPC   C3B70701  28.678  44.397   7.126
 5631POPC   C4B70702  28.265  44.166   7.150
 5632POPC   NC370703  16.132  26.228   5.367
 5632POPC   PO470704  15.623  25.832   5.303
 5632POPC   GL170705  15.906  25.908   5.714
 5632POPC   GL270706  15.991  26.269   5.857
 5632POPC   C1A70707  15.940  25.884   6.197
 5632POPC   D2A70708  16.079  25.653   6.564
 5632POPC   C3A70709  16.050  25.772   6.979
 5632POPC   C4A70710  15.780  26.008   7.226
 5632POPC   C1B70711  15.990  26.383   6.269
 5632POPC   C2B70712  15.981  26.218   6.675
 5632POPC   C3B70713  16.083  26.386   7.069
 5632POPC   C4B70714  16.078  26.324   7.504
 5633POPC   NC370715   4.031   0.571   5.380
 5633POPC   PO470716   4.404  44.970   5.269
 5633POPC   GL170717   4.312   0.246   5.674
 5633POPC   GL270718   4.529   0.574   5.603
 5633POPC   C1A70719   4.125   0.322   6.154
 5633POPC   D2A70720   4.256   0.332   6.645
 5633POPC   C3A70721   4.140   0.385   7.118
 5633POPC   C4A70722   4.193   0.110   7.508
 5633POPC   C1B70723   4.489   0.712   6.029
 5633POPC   C2B70724   4.530   0.743   6.468
 5633POPC   C3B70725   4.389   0.804   6.896
 5633POPC   C4B70726   4.548   0.792   7.326
 5634POPC   NC370727  38.793  10.761   5.475
 5634POPC   PO470728  38.127  10.472   5.516
 5634POPC   GL170729  38.465  10.529   5.812
 5634POPC   GL270730  38.736  10.260   5.794
 5634POPC   C1A70731  38.406  10.660   6.235
 5634POPC   D2A70732  38.204  10.441   6.557
 5634POPC   C3A70733  38.319  10.459   6.966
 5634POPC   C4A70734  38.029  10.651   7.219
 5634POPC   C1B70735  38.538  10.159   6.225
 5634POPC   C2B70736  38.553  10.033   6.682
 5634POPC   C3B70737  38.772  10.215   7.054
 5634POPC   C4B70738  38.748  10.677   7.151
 5635POPC   NC370739   8.398  29.105   5.084
 5635POPC   PO470740   8.950  29.205   5.415
 5635POPC   GL170741   9.010  29.109   5.841
 5635POPC   GL270742   8.614  29.072   5.862
 5635POPC   C1A70743   9.277  29.304   6.192
 5635POPC   D2A70744   9.470  29.421   6.611
 5635POPC   C3A70745   9.164  29.526   6.920
 5635POPC   C4A70746   9.034  29.370   7.290
 5635POPC   C1B70747   8.741  29.329   6.214
 5635POPC   C2B70748   8.966  29.176   6.589
 5635POPC   C3B70749   8.790  29.021   6.955
 5635POPC   C4B70750   8.575  29.171   7.289
 5636POPC   NC370751   2.336   6.694   5.464
 5636POPC   PO470752   2.880   6.354   5.297
 5636POPC   GL170753   3.003   6.521   5.665
 5636POPC   GL270754   2.838   6.832   5.741
 5636POPC   C1A70755   2.889   6.408   6.095
 5636POPC   D2A70756   2.731   6.530   6.516
 5636POPC   C3A70757   2.982   6.509   6.898
 5636POPC   C4A70758   2.841   6.442   7.335
 5636POPC   C1B70759   2.552   6.803   6.084
 5636POPC   C2B70760   2.374   6.892   6.488
 5636POPC   C3B70761   2.421   7.097   6.860
 5636POPC   C4B70762   2.664   6.877   7.121
 5637POPC   NC370763  19.557  41.819   5.458
 5637POPC   PO470764  19.828  41.214   5.404
 5637POPC   GL170765  19.814  41.386   5.849
 5637POPC   GL270766  19.803  41.750   5.888
 5637POPC   C1A70767  20.039  41.510   6.268
 5637POPC   D2A70768  19.981  41.721   6.665
 5637POPC   C3A70769  20.215  41.603   7.040
 5637POPC   C4A70770  20.235  41.285   7.394
 5637POPC   C1B70771  19.589  41.776   6.289
 5637POPC   C2B70772  19.465  41.720   6.716
 5637POPC   C3B70773  19.719  41.697   7.102
 5637POPC   C4B70774  20.032  41.747   7.475
 5638POPC   NC370775   8.038  37.944   5.529
 5638POPC   PO470776   8.549  37.336   5.514
 5638POPC   GL170777   8.365  37.625   5.786
 5638POPC   GL270778   8.025  37.512   5.826
 5638POPC   C1A70779   8.267  37.846   6.181
 5638POPC   D2A70780   8.391  38.082   6.557
 5638POPC   C3A70781   8.293  37.900   6.937
 5638POPC   C4A70782   8.416  37.966   7.346
 5638POPC   C1B70783   8.176  37.341   6.223
 5638POPC   C2B70784   8.321  37.421   6.660
 5638POPC   C3B70785   8.212  37.431   7.111
 5638POPC   C4B70786   7.865  37.703   7.252
 5639POPC   NC370787  25.857  40.605   5.519
 5639POPC   PO470788  26.104  41.208   5.353
 5639POPC   GL170789  26.084  40.991   5.771
 5639POPC   GL270790  26.263  40.679   5.856
 5639POPC   C1A70791  25.870  40.854   6.157
 5639POPC   D2A70792  25.981  40.972   6.573
 5639POPC   C3A70793  25.923  40.742   6.931
 5639POPC   C4A70794  25.820  40.976   7.291
 5639POPC   C1B70795  26.247  40.541   6.312
 5639POPC   C2B70796  26.315  40.437   6.748
 5639POPC   C3B70797  26.343  40.564   7.153
 5639POPC   C4B70798  25.975  40.492   7.414
 5640POPC   NC370799  43.443  34.382   5.198
 5640POPC   PO470800  43.087  34.940   5.384
 5640POPC   GL170801  43.254  34.642   5.716
 5640POPC   GL270802  43.483  34.328   5.735
 5640POPC   C1A70803  43.084  34.455   6.102
 5640POPC   D2A70804  42.935  34.269   6.481
 5640POPC   C3A70805  43.009  34.510   6.841
 5640POPC   C4A70806  43.190  34.551   7.226
 5640POPC   C1B70807  43.581  34.363   6.182
 5640POPC   C2B70808  43.451  34.362   6.619
 5640POPC   C3B70809  43.589  34.291   7.042
 5640POPC   C4B70810  43.676  34.064   7.425
 5641POPC   NC370811  35.833   0.907   5.415
 5641POPC   PO470812  35.245   1.209   5.197
 5641POPC   GL170813  35.264   1.077   5.719
 5641POPC   GL270814  35.557   0.866   5.834
 5641POPC   C1A70815  35.431   1.243   6.182
 5641POPC   D2A70816  35.672   1.275   6.577
 5641POPC   C3A70817  35.343   1.236   6.882
 5641POPC   C4A70818  34.997   1.265   7.144
 5641POPC   C1B70819  35.754   0.822   6.222
 5641POPC   C2B70820  35.618   0.776   6.632
 5641POPC   C3B70821  35.729   0.925   7.013
 5641POPC   C4B70822  35.410   0.907   7.266
 5642POPC   NC370823   0.920  14.543   5.315
 5642POPC   PO470824   1.485  14.369   5.572
 5642POPC   GL170825   1.357  14.581   5.871
 5642POPC   GL270826   1.014  14.607   5.819
 5642POPC   C1A70827   1.474  14.612   6.304
 5642POPC   D2A70828   1.709  14.479   6.616
 5642POPC   C3A70829   1.467  14.324   6.889
 5642POPC   C4A70830   1.270  14.481   7.214
 5642POPC   C1B70831   1.042  14.350   6.194
 5642POPC   C2B70832   1.077  14.422   6.614
 5642POPC   C3B70833   0.856  14.624   6.947
 5642POPC   C4B70834   0.784  14.383   7.322
 5643POPC   NC370835  27.997  37.898   5.376
 5643POPC   PO470836  27.335  38.058   5.231
 5643POPC   GL170837  27.513  37.893   5.762
 5643POPC   GL270838  27.864  37.896   5.885
 5643POPC   C1A70839  27.496  37.617   6.204
 5643POPC   D2A70840  27.358  37.339   6.624
 5643POPC   C3A70841  27.540  37.392   7.096
 5643POPC   C4A70842  27.379  37.657   7.474
 5643POPC   C1B70843  27.814  37.987   6.363
 5643POPC   C2B70844  27.590  37.774   6.742
 5643POPC   C3B70845  27.746  37.852   7.169
 5643POPC   C4B70846  28.072  38.180   7.204
 5644POPC   NC370847   5.591  13.167   5.571
 5644POPC   PO470848   6.020  12.699   5.367
 5644POPC   GL170849   5.953  12.770   5.785
 5644POPC   GL270850   5.615  12.679   5.760
 5644POPC   C1A70851   5.960  13.078   6.144
 5644POPC   D2A70852   5.967  13.150   6.603
 5644POPC   C3A70853   6.155  12.965   6.979
 5644POPC   C4A70854   5.983  12.920   7.399
 5644POPC   C1B70855   5.659  12.673   6.205
 5644POPC   C2B70856   5.695  12.473   6.593
 5644POPC   C3B70857   5.761  12.638   6.978
 5644POPC   C4B70858   5.508  12.698   7.306
 5645POPC   NC370859  16.203  39.341   5.414
 5645POPC   PO470860  15.859  38.703   5.518
 5645POPC   GL170861  15.775  39.150   5.703
 5645POPC   GL270862  16.068  39.357   5.893
 5645POPC   C1A70863  15.708  39.172   6.167
 5645POPC   D2A70864  15.947  39.109   6.560
 5645POPC   C3A70865  15.699  39.120   6.936
 5645POPC   C4A70866  15.708  39.286   7.335
 5645POPC   C1B70867  15.948  39.635   6.251
 5645POPC   C2B70868  15.901  39.593   6.711
 5645POPC   C3B70869  16.149  39.349   7.029
 5645POPC   C4B70870  16.198  39.338   7.508
 5646POPC   NC370871  37.130  34.744   5.382
 5646POPC   PO470872  36.568  34.433   5.625
 5646POPC   GL170873  36.834  34.568   5.882
 5646POPC   GL270874  36.842  34.870   5.781
 5646POPC   C1A70875  36.874  34.555   6.292
 5646POPC   D2A70876  37.082  34.443   6.672
 5646POPC   C3A70877  36.832  34.478   7.000
 5646POPC   C4A70878  36.847  34.280   7.373
 5646POPC   C1B70879  37.143  34.972   6.090
 5646POPC   C2B70880  37.196  34.915   6.531
 5646POPC   C3B70881  37.103  34.944   6.963
 5646POPC   C4B70882  37.354  35.013   7.334
 5647POPC   NC370883  17.975  30.376   5.260
 5647POPC   PO470884  18.480  30.850   5.490
 5647POPC   GL170885  18.379  30.698   5.842
 5647POPC   GL270886  18.038  30.658   5.740
 5647POPC   C1A70887  18.483  30.776   6.271
 5647POPC   D2A70888  18.361  30.602   6.669
 5647POPC   C3A70889  18.397  30.850   7.065
 5647POPC   C4A70890  18.482  30.675   7.470
 5647POPC   C1B70891  18.026  30.483   6.163
 5647POPC   C2B70892  17.887  30.406   6.572
 5647POPC   C3B70893  17.913  30.699   6.905
 5647POPC   C4B70894  17.991  30.596   7.300
 5648POPC   NC370895   9.491  25.513   5.164
 5648POPC   PO470896   9.906  25.129   5.448
 5648POPC   GL170897   9.551  25.320   5.668
 5648POPC   GL270898   9.696  25.606   5.762
 5648POPC   C1A70899   9.441  25.397   6.136
 5648POPC   D2A70900   9.632  25.169   6.457
 5648POPC   C3A70901   9.445  25.098   6.841
 5648POPC   C4A70902   9.674  25.060   7.225
 5648POPC   C1B70903   9.957  25.382   6.081
 5648POPC   C2B70904  10.108  25.372   6.505
 5648POPC   C3B70905   9.927  25.433   6.914
 5648POPC   C4B70906  10.082  25.394   7.317
 5649POPC   NC370907  33.537  33.524   5.460
 5649POPC   PO470908  33.857  34.109   5.392
 5649POPC   GL170909  33.785  33.855   5.776
 5649POPC   GL270910  33.517  34.042   5.843
 5649POPC   C1A70911  33.821  33.724   6.220
 5649POPC   D2A70912  33.791  33.529   6.653
 5649POPC   C3A70913  33.825  33.638   7.111
 5649POPC   C4A70914  34.048  33.428   7.467
 5649POPC   C1B70915  33.306  34.163   6.222
 5649POPC   C2B70916  33.377  34.412   6.596
 5649POPC   C3B70917  33.574  34.300   6.990
 5649POPC   C4B70918  33.527  34.158   7.428
 5650POPC   NC370919  34.774  22.112   5.389
 5650POPC   PO470920  34.383  22.574   5.421
 5650POPC   GL170921  34.573  22.382   5.772
 5650POPC   GL270922  34.401  22.080   5.807
 5650POPC   C1A70923  34.665  22.316   6.214
 5650POPC   D2A70924  34.446  22.324   6.617
 5650POPC   C3A70925  34.652  22.323   6.980
 5650POPC   C4A70926  34.947  22.296   7.279
 5650POPC   C1B70927  34.321  21.915   6.203
 5650POPC   C2B70928  34.608  21.861   6.513
 5650POPC   C3B70929  34.368  21.866   6.867
 5650POPC   C4B70930  34.581  21.853   7.205
 5651POPC   NC370931  17.499   6.455   5.231
 5651POPC   PO470932  17.079   6.920   5.404
 5651POPC   GL170933  17.203   6.878   5.874
 5651POPC   GL270934  17.584   6.928   6.001
 5651POPC   C1A70935  17.257   6.679   6.299
 5651POPC   D2A70936  17.514   6.535   6.668
 5651POPC   C3A70937  17.348   6.583   7.096
 5651POPC   C4A70938  17.441   6.437   7.531
 5651POPC   C1B70939  17.679   6.964   6.438
 5651POPC   C2B70940  17.652   6.975   6.900
 5651POPC   C3B70941  17.812   6.711   7.278
 5651POPC   C4B70942  17.759   6.816   7.730
 5652POPC   NC370943   0.661   0.029   5.657
 5652POPC   PO470944   0.391  44.385   5.491
 5652POPC   GL170945   0.282  44.654   5.820
 5652POPC   GL270946   0.613  44.641   6.004
 5652POPC   C1A70947   0.199  44.852   6.206
 5652POPC   D2A70948   0.441  44.637   6.504
 5652POPC   C3A70949   0.332  44.647   6.899
 5652POPC   C4A70950   0.529  44.396   7.210
 5652POPC   C1B70951   0.737   0.011   6.300
 5652POPC   C2B70952   0.840   0.058   6.740
 5652POPC   C3B70953   0.769  44.854   7.144
 5652POPC   C4B70954   0.689  44.890   7.608
 5653POPC   NC370955  25.610  27.552   5.434
 5653POPC   PO470956  24.947  27.293   5.575
 5653POPC   GL170957  25.275  27.526   5.832
 5653POPC   GL270958  25.516  27.837   5.843
 5653POPC   C1A70959  25.209  27.655   6.234
 5653POPC   D2A70960  25.055  27.826   6.610
 5653POPC   C3A70961  25.200  27.544   6.928
 5653POPC   C4A70962  25.072  27.767   7.253
 5653POPC   C1B70963  25.694  27.860   6.223
 5653POPC   C2B70964  25.558  27.780   6.617
 5653POPC   C3B70965  25.613  27.826   7.037
 5653POPC   C4B70966  25.511  27.542   7.364
 5654POPC   NC370967  39.340  21.043   5.302
 5654POPC   PO470968  39.171  21.783   5.264
 5654POPC   GL170969  39.412  21.717   5.669
 5654POPC   GL270970  39.447  21.351   5.693
 5654POPC   C1A70971  39.366  21.653   6.132
 5654POPC   D2A70972  39.026  21.581   6.440
 5654POPC   C3A70973  39.113  21.491   6.880
 5654POPC   C4A70974  38.826  21.319   7.169
 5654POPC   C1B70975  39.542  21.149   6.084
 5654POPC   C2B70976  39.409  21.244   6.484
 5654POPC   C3B70977  39.457  21.095   6.853
 5654POPC   C4B70978  39.546  21.005   7.250
 5655POPC   NC370979  43.168  25.428   5.463
 5655POPC   PO470980  43.453  24.857   5.366
 5655POPC   GL170981  43.259  24.983   5.813
 5655POPC   GL270982  43.242  25.331   5.946
 5655POPC   C1A70983  43.185  25.016   6.314
 5655POPC   D2A70984  43.220  25.381   6.609
 5655POPC   C3A70985  43.295  25.316   7.070
 5655POPC   C4A70986  43.522  25.436   7.466
 5655POPC   C1B70987  42.867  25.481   6.238
 5655POPC   C2B70988  42.771  25.611   6.698
 5655POPC   C3B70989  42.779  25.351   7.102
 5655POPC   C4B70990  42.576  25.060   7.423
 5656POPC   NC370991  39.944  17.023   5.411
 5656POPC   PO470992  39.954  16.361   5.478
 5656POPC   GL170993  40.001  16.651   5.843
 5656POPC   GL270994  40.141  16.986   5.873
 5656POPC   C1A70995  39.873  16.821   6.265
 5656POPC   D2A70996  39.658  16.839   6.672
 5656POPC   C3A70997  39.906  16.748   7.047
 5656POPC   C4A70998  40.032  16.850   7.476
 5656POPC   C1B70999  40.355  17.026   6.241
 5656POPC   C2B71000  40.207  17.005   6.680
 5656POPC   C3B71001  40.324  17.109   7.124
 5656POPC   C4B71002  40.279  17.276   7.597
 5657POPC   NC371003  23.430  22.459   4.980
 5657POPC   PO471004  23.655  21.961   5.402
 5657POPC   GL171005  23.742  22.053   5.833
 5657POPC   GL271006  23.872  22.372   5.844
 5657POPC   C1A71007  23.528  22.214   6.213
 5657POPC   D2A71008  23.649  22.321   6.633
 5657POPC   C3A71009  23.598  22.128   7.056
 5657POPC   C4A71010  23.630  21.763   7.345
 5657POPC   C1B71011  23.907  22.634   6.201
 5657POPC   C2B71012  23.777  22.809   6.596
 5657POPC   C3B71013  23.697  22.657   7.020
 5657POPC   C4B71014  24.035  22.483   7.225
 5658POPC   NC371015  26.089  25.650   5.026
 5658POPC   PO471016  25.994  26.059   5.486
 5658POPC   GL171017  26.147  26.200   5.841
 5658POPC   GL271018  26.031  25.878   5.961
 5658POPC   C1A71019  25.976  26.329   6.233
 5658POPC   D2A71020  25.968  26.116   6.624
 5658POPC   C3A71021  26.092  26.294   6.990
 5658POPC   C4A71022  26.240  26.048   7.311
 5658POPC   C1B71023  26.165  25.631   6.242
 5658POPC   C2B71024  26.302  25.710   6.646
 5658POPC   C3B71025  26.033  25.712   6.971
 5658POPC   C4B71026  26.196  25.534   7.303
 5659POPC   NC371027  39.913  33.896   5.451
 5659POPC   PO471028  40.340  33.461   5.597
 5659POPC   GL171029  40.078  33.551   5.969
 5659POPC   GL271030  39.939  33.888   5.946
 5659POPC   C1A71031  40.046  33.721   6.411
 5659POPC   D2A71032  40.252  33.944   6.767
 5659POPC   C3A71033  40.097  33.833   7.164
 5659POPC   C4A71034  39.653  33.724   7.172
 5659POPC   C1B71035  39.720  34.114   6.236
 5659POPC   C2B71036  39.702  34.056   6.656
 5659POPC   C3B71037  39.790  34.218   7.022
 5659POPC   C4B71038  39.774  34.127   7.464
 5660POPC   NC371039  29.787   6.159   5.418
 5660POPC   PO471040  30.052   5.468   5.497
 5660POPC   GL171041  30.123   5.706   5.878
 5660POPC   GL271042  29.768   5.755   5.843
 5660POPC   C1A71043  30.167   5.981   6.260
 5660POPC   D2A71044  30.053   6.175   6.669
 5660POPC   C3A71045  30.243   5.907   6.989
 5660POPC   C4A71046  30.078   5.777   7.399
 5660POPC   C1B71047  29.764   5.530   6.228
 5660POPC   C2B71048  29.841   5.704   6.632
 5660POPC   C3B71049  29.741   5.834   7.034
 5660POPC   C4B71050  29.564   5.608   7.397
 5661POPC   NC371051   6.367   6.045   5.540
 5661POPC   PO471052   6.939   5.711   5.430
 5661POPC   GL171053   6.741   5.846   5.812
 5661POPC   GL271054   6.421   5.618   5.817
 5661POPC   C1A71055   6.747   6.004   6.225
 5661POPC   D2A71056   6.857   5.708   6.559
 5661POPC   C3A71057   7.087   5.837   6.891
 5661POPC   C4A71058   6.964   6.084   7.239
 5661POPC   C1B71059   6.480   5.565   6.238
 5661POPC   C2B71060   6.362   5.836   6.591
 5661POPC   C3B71061   6.266   6.011   6.972
 5661POPC   C4B71062   6.435   6.230   7.322
 5662POPC   NC371063  31.911  30.456   5.055
 5662POPC   PO471064  32.380  30.710   5.493
 5662POPC   GL171065  32.204  30.875   5.897
 5662POPC   GL271066  32.376  31.171   5.954
 5662POPC   C1A71067  32.120  30.765   6.367
 5662POPC   D2A71068  32.329  30.591   6.756
 5662POPC   C3A71069  32.146  30.503   7.175
 5662POPC   C4A71070  32.016  30.334   7.587
 5662POPC   C1B71071  32.395  31.182   6.412
 5662POPC   C2B71072  32.184  31.119   6.809
 5662POPC   C3B71073  32.446  30.945   7.123
 5662POPC   C4B71074  32.635  30.595   7.329
 5663POPC   NC371075  35.869  18.919   5.440
 5663POPC   PO471076  35.221  19.025   5.308
 5663POPC   GL171077  35.211  19.001   5.760
 5663POPC   GL271078  35.560  19.126   5.817
 5663POPC   C1A71079  35.219  18.964   6.225
 5663POPC   D2A71080  35.380  19.177   6.620
 5663POPC   C3A71081  35.295  18.979   7.033
 5663POPC   C4A71082  35.153  19.161   7.432
 5663POPC   C1B71083  35.749  19.238   6.224
 5663POPC   C2B71084  35.849  19.344   6.665
 5663POPC   C3B71085  35.567  19.429   7.053
 5663POPC   C4B71086  35.601  19.398   7.511
 5664POPC   NC371087   9.303  26.235   5.462
 5664POPC   PO471088   8.681  26.371   5.299
 5664POPC   GL171089   8.823  26.207   5.709
 5664POPC   GL271090   8.967  25.858   5.647
 5664POPC   C1A71091   8.763  26.013   6.146
 5664POPC   D2A71092   8.755  25.880   6.605
 5664POPC   C3A71093   8.849  26.217   6.916
 5664POPC   C4A71094   9.071  26.172   7.268
 5664POPC   C1B71095   9.276  25.864   5.984
 5664POPC   C2B71096   9.228  25.946   6.406
 5664POPC   C3B71097   9.250  25.895   6.858
 5664POPC   C4B71098   9.436  25.553   7.113
 5665POPC   NC371099   3.689   9.906   5.297
 5665POPC   PO471100   3.048   9.741   5.417
 5665POPC   GL171101   3.367   9.843   5.792
 5665POPC   GL271102   3.653  10.081   5.784
 5665POPC   C1A71103   3.387   9.972   6.264
 5665POPC   D2A71104   3.339   9.949   6.730
 5665POPC   C3A71105   3.252   9.557   6.905
 5665POPC   C4A71106   3.282   9.252   7.221
 5665POPC   C1B71107   3.826   9.775   6.058
 5665POPC   C2B71108   3.943   9.900   6.431
 5665POPC   C3B71109   3.848  10.075   6.779
 5665POPC   C4B71110   3.690   9.850   7.104
 5666POPC   NC371111  30.472  30.921   5.084
 5666POPC   PO471112  30.827  30.509   5.462
 5666POPC   GL171113  30.715  30.838   5.777
 5666POPC   GL271114  30.359  30.857   5.845
 5666POPC   C1A71115  30.668  31.055   6.183
 5666POPC   D2A71116  30.417  30.857   6.479
 5666POPC   C3A71117  30.541  30.947   6.872
 5666POPC   C4A71118  30.795  30.851   7.202
 5666POPC   C1B71119  30.494  30.503   6.111
 5666POPC   C2B71120  30.722  30.444   6.507
 5666POPC   C3B71121  30.645  30.429   6.946
 5666POPC   C4B71122  30.361  30.595   7.294
 5667POPC   NC371123  37.097   9.572   5.598
 5667POPC   PO471124  37.763   9.613   5.521
 5667POPC   GL171125  37.604   9.807   5.846
 5667POPC   GL271126  37.334  10.057   5.737
 5667POPC   C1A71127  37.808   9.669   6.218
 5667POPC   D2A71128  37.842   9.349   6.553
 5667POPC   C3A71129  37.789   9.604   6.901
 5667POPC   C4A71130  37.942   9.672   7.289
 5667POPC   C1B71131  37.428  10.150   6.190
 5667POPC   C2B71132  37.471   9.867   6.539
 5667POPC   C3B71133  37.292   9.720   6.895
 5667POPC   C4B71134  37.426   9.703   7.299
 5668POPC   NC371135  35.311  29.822   5.207
 5668POPC   PO471136  35.288  29.092   5.190
 5668POPC   GL171137  35.218  29.001   5.645
 5668POPC   GL271138  35.352  29.284   5.779
 5668POPC   C1A71139  35.336  28.897   6.109
 5668POPC   D2A71140  35.387  29.181   6.480
 5668POPC   C3A71141  35.198  29.130   6.908
 5668POPC   C4A71142  35.295  28.954   7.315
 5668POPC   C1B71143  35.698  29.378   6.072
 5668POPC   C2B71144  35.784  29.496   6.521
 5668POPC   C3B71145  35.589  29.490   6.910
 5668POPC   C4B71146  35.781  29.507   7.295
 5669POPC   NC371147  44.228  36.582   5.412
 5669POPC   PO471148  43.738  37.054   5.325
 5669POPC   GL171149  43.802  36.810   5.676
 5669POPC   GL271150  44.127  36.921   5.790
 5669POPC   C1A71151  43.728  36.712   6.092
 5669POPC   D2A71152  43.867  37.003   6.410
 5669POPC   C3A71153  43.881  36.890   6.844
 5669POPC   C4A71154  43.920  37.147   7.219
 5669POPC   C1B71155  44.223  36.698   6.172
 5669POPC   C2B71156  44.226  36.554   6.595
 5669POPC   C3B71157  44.306  36.686   7.028
 5669POPC   C4B71158  44.089  36.704   7.414
 5670POPC   NC371159  14.955  14.596   5.363
 5670POPC   PO471160  15.087  13.977   5.361
 5670POPC   GL171161  15.098  14.239   5.736
 5670POPC   GL271162  15.171  14.618   5.836
 5670POPC   C1A71163  14.999  14.258   6.163
 5670POPC   D2A71164  15.065  14.489   6.551
 5670POPC   C3A71165  15.310  14.337   6.874
 5670POPC   C4A71166  15.284  14.431   7.265
 5670POPC   C1B71167  14.848  14.781   6.178
 5670POPC   C2B71168  14.663  14.787   6.641
 5670POPC   C3B71169  14.867  14.682   7.063
 5670POPC   C4B71170  14.955  14.696   7.529
 5671POPC   NC371171  27.209  27.761   5.422
 5671POPC   PO471172  26.863  27.222   5.296
 5671POPC   GL171173  26.726  27.414   5.705
 5671POPC   GL271174  26.779  27.783   5.762
 5671POPC   C1A71175  26.602  27.474   6.146
 5671POPC   D2A71176  26.554  27.698   6.541
 5671POPC   C3A71177  26.749  27.599   6.921
 5671POPC   C4A71178  26.637  27.475   7.326
 5671POPC   C1B71179  26.853  27.987   6.181
 5671POPC   C2B71180  27.039  27.913   6.587
 5671POPC   C3B71181  27.205  27.873   7.013
 5671POPC   C4B71182  26.871  27.947   7.285
 5672POPC   NC371183  17.830  29.511   5.560
 5672POPC   PO471184  18.258  29.974   5.252
 5672POPC   GL171185  18.288  29.850   5.679
 5672POPC   GL271186  18.305  30.182   5.843
 5672POPC   C1A71187  18.262  29.752   6.137
 5672POPC   D2A71188  18.180  29.962   6.532
 5672POPC   C3A71189  18.364  29.716   6.860
 5672POPC   C4A71190  18.553  29.824   7.223
 5672POPC   C1B71191  18.551  30.247   6.254
 5672POPC   C2B71192  18.627  30.141   6.708
 5672POPC   C3B71193  18.323  30.251   7.043
 5672POPC   C4B71194  18.248  30.182   7.476
 5673POPC   NC371195  16.462   1.253   5.380
 5673POPC   PO471196  17.090   1.275   5.450
 5673POPC   GL171197  16.803   1.140   5.778
 5673POPC   GL271198  16.583   1.448   5.847
 5673POPC   C1A71199  16.801   1.181   6.230
 5673POPC   D2A71200  16.735   1.507   6.544
 5673POPC   C3A71201  16.759   1.327   6.948
 5673POPC   C4A71202  16.541   0.976   7.158
 5673POPC   C1B71203  16.308   1.565   6.207
 5673POPC   C2B71204  16.254   1.719   6.622
 5673POPC   C3B71205  16.274   1.545   7.010
 5673POPC   C4B71206  16.503   1.463   7.367
 5674POPC   NC371207  39.868   1.664   5.292
 5674POPC   PO471208  40.174   2.269   5.290
 5674POPC   GL171209  39.948   2.111   5.732
 5674POPC   GL271210  39.876   1.749   5.800
 5674POPC   C1A71211  39.849   2.056   6.213
 5674POPC   D2A71212  40.018   2.186   6.621
 5674POPC   C3A71213  39.797   2.270   6.999
 5674POPC   C4A71214  39.888   2.060   7.393
 5674POPC   C1B71215  40.136   1.626   6.175
 5674POPC   C2B71216  39.985   1.619   6.605
 5674POPC   C3B71217  39.953   1.673   7.054
 5674POPC   C4B71218  40.240   1.707   7.419
 5675POPC   NC371219   2.531  42.371   4.978
 5675POPC   PO471220   2.983  42.645   5.322
 5675POPC   GL171221   3.004  42.342   5.689
 5675POPC   GL271222   2.683  42.270   5.832
 5675POPC   C1A71223   3.037  42.444   6.163
 5675POPC   D2A71224   2.758  42.434   6.539
 5675POPC   C3A71225   2.973  42.436   6.930
 5675POPC   C4A71226   2.843  42.593   7.358
 5675POPC   C1B71227   2.724  42.026   6.179
 5675POPC   C2B71228   2.719  41.927   6.600
 5675POPC   C3B71229   2.681  42.033   7.047
 5675POPC   C4B71230   2.729  41.841   7.452
 5676POPC   NC371231  37.700  34.209   5.511
 5676POPC   PO471232  37.549  34.927   5.524
 5676POPC   GL171233  37.649  34.638   5.817
 5676POPC   GL271234  37.327  34.460   5.776
 5676POPC   C1A71235  37.894  34.563   6.200
 5676POPC   D2A71236  38.035  34.774   6.612
 5676POPC   C3A71237  37.736  34.876   6.960
 5676POPC   C4A71238  37.987  34.696   7.251
 5676POPC   C1B71239  37.370  34.503   6.223
 5676POPC   C2B71240  37.568  34.555   6.607
 5676POPC   C3B71241  37.726  34.345   6.946
 5676POPC   C4B71242  37.858  34.217   7.360
 5677POPC   NC371243  22.748  29.626   5.543
 5677POPC   PO471244  23.071  29.063   5.426
 5677POPC   GL171245  23.080  29.009   5.854
 5677POPC   GL271246  22.836  29.281   5.953
 5677POPC   C1A71247  23.181  28.931   6.281
 5677POPC   D2A71248  22.980  29.182   6.580
 5677POPC   C3A71249  23.159  29.124   6.947
 5677POPC   C4A71250  23.103  28.901   7.293
 5677POPC   C1B71251  22.791  29.592   6.305
 5677POPC   C2B71252  22.766  29.616   6.772
 5677POPC   C3B71253  22.791  29.398   7.185
 5677POPC   C4B71254  22.637  29.516   7.616
 5678POPC   NC371255  44.876  34.010   5.282
 5678POPC   PO471256  44.768  33.304   5.357
 5678POPC   GL171257  44.651  33.672   5.652
 5678POPC   GL271258  44.311  33.808   5.729
 5678POPC   C1A71259  44.685  33.826   6.095
 5678POPC   D2A71260  44.949  33.902   6.474
 5678POPC   C3A71261  44.825  33.795   6.919
 5678POPC   C4A71262  44.821  33.953   7.349
 5678POPC   C1B71263  44.196  33.652   6.154
 5678POPC   C2B71264  44.322  33.819   6.562
 5678POPC   C3B71265  44.342  33.602   6.939
 5678POPC   C4B71266  44.443  33.551   7.337
 5679POPC   NC371267  19.414  36.094   5.583
 5679POPC   PO471268  19.924  36.486   5.460
 5679POPC   GL171269  19.907  36.220   5.814
 5679POPC   GL271270  20.093  35.892   5.915
 5679POPC   C1A71271  19.757  36.177   6.206
 5679POPC   D2A71272  19.554  35.971   6.533
 5679POPC   C3A71273  19.692  36.119   6.904
 5679POPC   C4A71274  19.841  36.193   7.301
 5679POPC   C1B71275  20.086  35.847   6.397
 5679POPC   C2B71276  20.102  35.808   6.838
 5679POPC   C3B71277  19.807  35.707   7.181
 5679POPC   C4B71278  19.791  35.777   7.663
 5680POPC   NC371279  38.917  25.129   5.498
 5680POPC   PO471280  39.535  25.392   5.355
 5680POPC   GL171281  39.473  25.245   5.839
 5680POPC   GL271282  39.128  25.267   5.948
 5680POPC   C1A71283  39.468  25.203   6.341
 5680POPC   D2A71284  39.252  25.405   6.716
 5680POPC   C3A71285  39.420  25.393   7.148
 5680POPC   C4A71286  39.327  25.317   7.632
 5680POPC   C1B71287  38.978  25.090   6.347
 5680POPC   C2B71288  39.187  24.835   6.640
 5680POPC   C3B71289  39.239  24.936   7.061
 5680POPC   C4B71290  38.972  25.143   7.332
 5681POPC   NC371291   5.159  32.057   5.385
 5681POPC   PO471292   4.557  32.237   5.420
 5681POPC   GL171293   4.786  32.251   5.816
 5681POPC   GL271294   5.152  32.193   5.870
 5681POPC   C1A71295   4.870  32.391   6.252
 5681POPC   D2A71296   4.701  32.280   6.646
 5681POPC   C3A71297   4.834  32.118   7.041
 5681POPC   C4A71298   4.941  32.430   7.365
 5681POPC   C1B71299   5.346  32.188   6.277
 5681POPC   C2B71300   5.248  32.149   6.696
 5681POPC   C3B71301   5.345  32.182   7.128
 5681POPC   C4B71302   5.122  31.969   7.446
 5682POPC   NC371303   7.880  14.337   5.333
 5682POPC   PO471304   8.546  14.430   5.488
 5682POPC   GL171305   8.437  14.453   5.874
 5682POPC   GL271306   8.104  14.553   5.781
 5682POPC   C1A71307   8.548  14.231   6.256
 5682POPC   D2A71308   8.651  14.443   6.589
 5682POPC   C3A71309   8.404  14.442   6.951
 5682POPC   C4A71310   8.567  14.615   7.292
 5682POPC   C1B71311   8.045  14.249   6.125
 5682POPC   C2B71312   8.069  14.269   6.562
 5682POPC   C3B71313   8.010  14.030   6.924
 5682POPC   C4B71314   8.036  14.249   7.279
 5683POPC   NC371315  20.273  17.665   5.082
 5683POPC   PO471316  20.723  17.373   5.484
 5683POPC   GL171317  20.640  17.468   5.907
 5683POPC   GL271318  20.363  17.697   5.837
 5683POPC   C1A71319  20.788  17.492   6.335
 5683POPC   D2A71320  21.074  17.628   6.649
 5683POPC   C3A71321  20.897  17.704   7.024
 5683POPC   C4A71322  20.763  17.482   7.339
 5683POPC   C1B71323  20.280  17.616   6.279
 5683POPC   C2B71324  20.336  17.540   6.718
 5683POPC   C3B71325  20.324  17.713   7.149
 5683POPC   C4B71326  20.357  17.564   7.623
 5684POPC   NC371327  12.879  25.773   5.376
 5684POPC   PO471328  12.673  26.453   5.411
 5684POPC   GL171329  12.797  26.471   5.858
 5684POPC   GL271330  12.979  26.142   5.973
 5684POPC   C1A71331  12.851  26.509   6.314
 5684POPC   D2A71332  12.884  26.142   6.574
 5684POPC   C3A71333  12.985  26.157   7.001
 5684POPC   C4A71334  12.702  26.376   7.268
 5684POPC   C1B71335  12.667  25.841   6.220
 5684POPC   C2B71336  12.492  25.746   6.662
 5684POPC   C3B71337  12.692  25.589   7.045
 5684POPC   C4B71338  13.115  25.655   7.272
 5685POPC   NC371339   4.450   4.661   5.380
 5685POPC   PO471340   3.915   4.333   5.361
 5685POPC   GL171341   4.270   4.257   5.671
 5685POPC   GL271342   4.374   3.921   5.792
 5685POPC   C1A71343   4.429   4.353   6.094
 5685POPC   D2A71344   4.374   4.108   6.490
 5685POPC   C3A71345   4.356   4.341   6.840
 5685POPC   C4A71346   4.491   4.369   7.240
 5685POPC   C1B71347   4.055   3.997   6.105
 5685POPC   C2B71348   3.873   4.034   6.531
 5685POPC   C3B71349   3.995   3.981   6.934
 5685POPC   C4B71350   4.128   4.003   7.341
 5686POPC   NC371351   4.553  38.830   5.471
 5686POPC   PO471352   4.373  38.173   5.256
 5686POPC   GL171353   4.387  38.341   5.716
 5686POPC   GL271354   4.513  38.083   5.954
 5686POPC   C1A71355   4.201  38.484   6.149
 5686POPC   D2A71356   4.287  38.380   6.608
 5686POPC   C3A71357   4.079  38.562   6.978
 5686POPC   C4A71358   4.097  38.556   7.413
 5686POPC   C1B71359   4.681  38.385   6.255
 5686POPC   C2B71360   4.807  38.447   6.671
 5686POPC   C3B71361   4.592  38.438   7.062
 5686POPC   C4B71362   4.685  38.135   7.381
 5687POPC   NC371363   4.677  21.209   5.457
 5687POPC   PO471364   4.079  21.054   5.273
 5687POPC   GL171365   4.260  21.316   5.724
 5687POPC   GL271366   4.486  21.649   5.681
 5687POPC   C1A71367   4.441  21.330   6.227
 5687POPC   D2A71368   4.514  21.075   6.671
 5687POPC   C3A71369   4.338  21.221   7.111
 5687POPC   C4A71370   3.937  21.415   7.259
 5687POPC   C1B71371   4.497  21.844   6.102
 5687POPC   C2B71372   4.560  21.707   6.559
 5687POPC   C3B71373   4.371  21.724   6.986
 5687POPC   C4B71374   4.559  21.650   7.385
 5688POPC   NC371375  43.703  26.181   5.420
 5688POPC   PO471376  44.319  25.973   5.417
 5688POPC   GL171377  44.089  26.211   5.754
 5688POPC   GL271378  43.780  25.966   5.864
 5688POPC   C1A71379  43.915  26.348   6.160
 5688POPC   D2A71380  43.607  26.160   6.458
 5688POPC   C3A71381  43.706  26.131   6.926
 5688POPC   C4A71382  44.107  26.099   7.187
 5688POPC   C1B71383  43.830  25.739   6.247
 5688POPC   C2B71384  43.677  25.625   6.668
 5688POPC   C3B71385  43.798  25.650   7.105
 5688POPC   C4B71386  43.911  25.774   7.534
 5689POPC   NC371387  30.232   5.029   5.488
 5689POPC   PO471388  29.538   4.796   5.475
 5689POPC   GL171389  29.778   5.000   5.807
 5689POPC   GL271390  30.092   4.815   5.919
 5689POPC   C1A71391  29.753   4.975   6.253
 5689POPC   D2A71392  29.925   5.192   6.596
 5689POPC   C3A71393  29.711   5.315   6.967
 5689POPC   C4A71394  29.568   5.064   7.294
 5689POPC   C1B71395  30.186   5.236   6.114
 5689POPC   C2B71396  30.296   5.515   6.448
 5689POPC   C3B71397  30.294   5.405   6.887
 5689POPC   C4B71398  30.188   5.208   7.267
 5690POPC   NC371399  36.906  27.861   5.432
 5690POPC   PO471400  37.217  27.257   5.339
 5690POPC   GL171401  37.014  27.436   5.725
 5690POPC   GL271402  36.664  27.604   5.791
 5690POPC   C1A71403  37.010  27.473   6.162
 5690POPC   D2A71404  37.217  27.460   6.564
 5690POPC   C3A71405  37.040  27.501   6.944
 5690POPC   C4A71406  37.074  27.765   7.296
 5690POPC   C1B71407  36.554  27.740   6.214
 5690POPC   C2B71408  36.382  27.569   6.594
 5690POPC   C3B71409  36.509  27.604   7.021
 5690POPC   C4B71410  36.739  27.396   7.346
 5691POPC   NC371411  15.434  39.678   5.354
 5691POPC   PO471412  15.578  40.311   5.583
 5691POPC   GL171413  15.239  40.145   5.864
 5691POPC   GL271414  15.199  39.802   5.808
 5691POPC   C1A71415  15.033  39.976   6.261
 5691POPC   D2A71416  14.854  39.821   6.656
 5691POPC   C3A71417  15.030  40.049   6.952
 5691POPC   C4A71418  15.137  40.471   7.107
 5691POPC   C1B71419  15.398  39.593   6.149
 5691POPC   C2B71420  15.372  39.699   6.579
 5691POPC   C3B71421  15.433  39.564   6.978
 5691POPC   C4B71422  15.417  39.689   7.384
 5692POPC   NC371423  24.395   0.501   5.269
 5692POPC   PO471424  24.861   0.398   5.719
 5692POPC   GL171425  24.430   0.477   5.797
 5692POPC   GL271426  24.285   0.772   5.982
 5692POPC   C1A71427  24.288   0.235   6.136
 5692POPC   D2A71428  24.552   0.133   6.491
 5692POPC   C3A71429  24.326   0.189   6.863
 5692POPC   C4A71430  24.508   0.220   7.259
 5692POPC   C1B71431  24.615   0.620   6.281
 5692POPC   C2B71432  24.704   0.581   6.728
 5692POPC   C3B71433  24.420   0.680   7.055
 5692POPC   C4B71434  24.393   0.661   7.512
 5693POPC   NC371435  41.817  27.291   5.445
 5693POPC   PO471436  41.153  27.450   5.406
 5693POPC   GL171437  41.470  27.431   5.788
 5693POPC   GL271438  41.806  27.644   5.844
 5693POPC   C1A71439  41.476  27.475   6.231
 5693POPC   D2A71440  41.265  27.731   6.500
 5693POPC   C3A71441  41.271  27.579   6.930
 5693POPC   C4A71442  41.460  27.946   7.085
 5693POPC   C1B71443  41.950  27.577   6.295
 5693POPC   C2B71444  41.769  27.678   6.717
 5693POPC   C3B71445  41.755  27.543   7.163
 5693POPC   C4B71446  41.995  27.566   7.552
 5694POPC   NC371447  38.806  26.568   5.534
 5694POPC   PO471448  39.466  26.860   5.347
 5694POPC   GL171449  39.410  26.956   5.793
 5694POPC   GL271450  39.439  26.614   5.927
 5694POPC   C1A71451  39.579  27.016   6.235
 5694POPC   D2A71452  39.578  26.890   6.675
 5694POPC   C3A71453  39.159  26.830   6.874
 5694POPC   C4A71454  39.023  27.028   7.291
 5694POPC   C1B71455  39.130  26.717   6.297
 5694POPC   C2B71456  38.866  26.466   6.617
 5694POPC   C3B71457  39.032  26.350   7.027
 5694POPC   C4B71458  39.333  26.596   7.292
 5695POPC   NC371459   0.693  26.117   5.525
 5695POPC   PO471460   0.140  26.524   5.450
 5695POPC   GL171461   0.253  26.295   5.830
 5695POPC   GL271462   0.370  25.948   5.881
 5695POPC   C1A71463   0.374  26.313   6.285
 5695POPC   D2A71464   0.601  26.122   6.640
 5695POPC   C3A71465   0.430  26.201   7.054
 5695POPC   C4A71466   0.090  26.389   7.251
 5695POPC   C1B71467   0.292  25.781   6.292
 5695POPC   C2B71468   0.062  25.657   6.650
 5695POPC   C3B71469   0.216  25.738   7.062
 5695POPC   C4B71470   0.633  25.738   7.192
 5696POPC   NC371471  32.874  37.870   5.348
 5696POPC   PO471472  33.135  37.322   5.532
 5696POPC   GL171473  32.847  37.607   5.812
 5696POPC   GL271474  32.893  37.996   5.846
 5696POPC   C1A71475  32.729  37.721   6.252
 5696POPC   D2A71476  32.561  37.886   6.658
 5696POPC   C3A71477  32.774  37.712   7.014
 5696POPC   C4A71478  32.998  37.393   7.269
 5696POPC   C1B71479  33.005  38.170   6.270
 5696POPC   C2B71480  33.046  38.038   6.699
 5696POPC   C3B71481  33.156  38.018   7.150
 5696POPC   C4B71482  32.979  37.882   7.524
 5697POPC   NC371483  31.218  29.254   5.459
 5697POPC   PO471484  31.494  28.601   5.410
 5697POPC   GL171485  31.476  28.937   5.795
 5697POPC   GL271486  31.152  29.117   5.947
 5697POPC   C1A71487  31.597  29.292   6.127
 5697POPC   D2A71488  31.448  29.436   6.550
 5697POPC   C3A71489  31.501  29.143   6.887
 5697POPC   C4A71490  31.598  29.321   7.284
 5697POPC   C1B71491  31.275  28.967   6.367
 5697POPC   C2B71492  31.657  28.756   6.543
 5697POPC   C3B71493  31.688  28.596   6.980
 5697POPC   C4B71494  31.515  28.816   7.339
 5698POPC   NC371495  10.458  21.001   5.345
 5698POPC   PO471496  10.716  20.438   5.412
 5698POPC   GL171497  10.615  20.731   5.768
 5698POPC   GL271498  10.278  20.904   5.816
 5698POPC   C1A71499  10.741  20.639   6.181
 5698POPC   D2A71500  10.862  20.512   6.592
 5698POPC   C3A71501  10.808  20.888   6.815
 5698POPC   C4A71502  10.923  21.120   7.178
 5698POPC   C1B71503  10.178  20.767   6.219
 5698POPC   C2B71504  10.354  20.487   6.524
 5698POPC   C3B71505  10.382  20.618   6.933
 5698POPC   C4B71506  10.364  20.424   7.286
 5699POPC   NC371507  39.762  43.645   5.450
 5699POPC   PO471508  40.398  43.421   5.449
 5699POPC   GL171509  40.177  43.691   5.816
 5699POPC   GL271510  40.275  44.091   5.862
 5699POPC   C1A71511  40.144  43.811   6.269
 5699POPC   D2A71512  40.345  43.691   6.659
 5699POPC   C3A71513  40.066  43.789   7.015
 5699POPC   C4A71514  39.733  44.067   7.145
 5699POPC   C1B71515  40.419  44.241   6.275
 5699POPC   C2B71516  40.276  44.215   6.715
 5699POPC   C3B71517  40.258  44.245   7.163
 5699POPC   C4B71518  40.347  44.227   7.607
 5700POPC   NC371519  19.096  15.674   5.396
 5700POPC   PO471520  18.754  16.165   5.657
 5700POPC   GL171521  19.141  16.081   5.911
 5700POPC   GL271522  19.263  15.732   5.915
 5700POPC   C1A71523  19.186  16.052   6.362
 5700POPC   D2A71524  18.864  16.031   6.653
 5700POPC   C3A71525  18.982  15.953   7.092
 5700POPC   C4A71526  18.805  15.839   7.491
 5700POPC   C1B71527  18.922  15.637   6.259
 5700POPC   C2B71528  18.980  15.540   6.731
 5700POPC   C3B71529  18.978  15.445   7.193
 5700POPC   C4B71530  19.100  15.424   7.644
 5701POPC   NC371531  39.729   4.877   5.725
 5701POPC   PO471532  40.242   5.028   5.321
 5701POPC   GL171533  40.035   5.300   5.688
 5701POPC   GL271534  40.194   5.077   5.889
 5701POPC   C1A71535  39.861   5.396   6.137
 5701POPC   D2A71536  39.874   5.150   6.537
 5701POPC   C3A71537  40.104   5.199   6.925
 5701POPC   C4A71538  39.800   5.147   7.206
 5701POPC   C1B71539  40.407   4.836   6.170
 5701POPC   C2B71540  40.397   4.928   6.579
 5701POPC   C3B71541  40.202   4.700   6.890
 5701POPC   C4B71542  40.258   4.847   7.290
 5702POPC   NC371543   4.762  35.409   5.442
 5702POPC   PO471544   5.236  34.915   5.429
 5702POPC   GL171545   5.173  35.210   5.786
 5702POPC   GL271546   5.016  35.500   5.880
 5702POPC   C1A71547   5.317  35.251   6.206
 5702POPC   D2A71548   5.378  35.175   6.623
 5702POPC   C3A71549   5.111  35.355   6.905
 5702POPC   C4A71550   5.145  35.588   7.296
 5702POPC   C1B71551   4.811  35.404   6.255
 5702POPC   C2B71552   4.680  35.470   6.650
 5702POPC   C3B71553   4.688  35.580   7.059
 5702POPC   C4B71554   4.725  35.343   7.421
 5703POPC   NC371555  44.202   6.202   5.488
 5703POPC   PO471556  43.678   6.669   5.474
 5703POPC   GL171557  43.972   6.642   5.766
 5703POPC   GL271558  43.835   6.326   5.819
 5703POPC   C1A71559  43.950   6.730   6.193
 5703POPC   D2A71560  43.934   6.939   6.573
 5703POPC   C3A71561  43.869   6.661   6.892
 5703POPC   C4A71562  44.154   6.614   7.253
 5703POPC   C1B71563  44.071   6.218   6.153
 5703POPC   C2B71564  44.173   6.386   6.559
 5703POPC   C3B71565  44.069   6.200   6.950
 5703POPC   C4B71566  43.758   6.286   7.276
 5704POPC   NC371567  37.161  26.519   5.518
 5704POPC   PO471568  37.060  25.816   5.231
 5704POPC   GL171569  36.976  26.023   5.622
 5704POPC   GL271570  36.643  26.085   5.720
 5704POPC   C1A71571  37.019  26.070   6.077
 5704POPC   D2A71572  36.908  26.129   6.534
 5704POPC   C3A71573  37.129  25.809   6.800
 5704POPC   C4A71574  37.301  25.760   7.225
 5704POPC   C1B71575  36.617  26.396   6.099
 5704POPC   C2B71576  36.371  26.480   6.482
 5704POPC   C3B71577  36.470  26.286   6.886
 5704POPC   C4B71578  36.848  26.115   7.118
 5705POPC   NC371579   8.940  21.023   5.640
 5705POPC   PO471580   8.885  20.353   5.560
 5705POPC   GL171581   8.986  20.577   5.949
 5705POPC   GL271582   8.693  20.694   5.921
 5705POPC   C1A71583   8.782  20.538   6.380
 5705POPC   D2A71584   8.506  20.365   6.675
 5705POPC   C3A71585   8.803  20.485   6.978
 5705POPC   C4A71586   9.095  20.360   7.249
 5705POPC   C1B71587   8.525  20.938   6.256
 5705POPC   C2B71588   8.511  20.873   6.704
 5705POPC   C3B71589   8.659  20.986   7.125
 5705POPC   C4B71590   8.746  20.697   7.469
 5706POPC   NC371591   2.087  23.916   5.094
 5706POPC   PO471592   1.628  23.532   5.276
 5706POPC   GL171593   1.771  23.742   5.727
 5706POPC   GL271594   2.110  23.662   5.978
 5706POPC   C1A71595   1.683  23.772   6.188
 5706POPC   D2A71596   1.946  23.502   6.501
 5706POPC   C3A71597   1.892  23.650   6.942
 5706POPC   C4A71598   1.846  23.458   7.358
 5706POPC   C1B71599   2.389  23.765   6.329
 5706POPC   C2B71600   2.380  23.657   6.763
 5706POPC   C3B71601   2.307  23.449   7.163
 5706POPC   C4B71602   2.363  23.560   7.611
 5707POPC   NC371603  41.489   6.660   5.394
 5707POPC   PO471604  42.093   6.470   5.523
 5707POPC   GL171605  41.697   6.479   5.821
 5707POPC   GL271606  41.590   6.806   5.901
 5707POPC   C1A71607  41.482   6.351   6.210
 5707POPC   D2A71608  41.679   6.194   6.613
 5707POPC   C3A71609  41.646   6.592   6.857
 5707POPC   C4A71610  41.649   6.873   7.226
 5707POPC   C1B71611  41.291   6.830   6.240
 5707POPC   C2B71612  41.205   6.900   6.683
 5707POPC   C3B71613  41.181   6.710   7.114
 5707POPC   C4B71614  41.075   6.830   7.559
 5708POPC   NC371615  40.975   9.224   5.450
 5708POPC   PO471616  40.694   8.626   5.304
 5708POPC   GL171617  40.694   8.771   5.751
 5708POPC   GL271618  40.652   9.138   5.889
 5708POPC   C1A71619  40.936   8.757   6.152
 5708POPC   D2A71620  40.914   8.919   6.592
 5708POPC   C3A71621  40.896   8.775   7.021
 5708POPC   C4A71622  40.573   8.780   7.286
 5708POPC   C1B71623  40.983   9.297   6.216
 5708POPC   C2B71624  41.145   9.356   6.670
 5708POPC   C3B71625  40.810   9.275   7.019
 5708POPC   C4B71626  40.698   9.225   7.491
 5709POPC   NC371627  32.731  42.438   5.471
 5709POPC   PO471628  33.349  42.631   5.455
 5709POPC   GL171629  33.202  42.255   5.703
 5709POPC   GL271630  33.487  42.263   5.898
 5709POPC   C1A71631  33.044  42.141   6.142
 5709POPC   D2A71632  32.732  42.392   6.401
 5709POPC   C3A71633  32.833  42.446   6.844
 5709POPC   C4A71634  33.032  42.181   7.128
 5709POPC   C1B71635  33.299  42.586   6.121
 5709POPC   C2B71636  33.194  42.615   6.519
 5709POPC   C3B71637  33.380  42.432   6.862
 5709POPC   C4B71638  33.515  42.387   7.278
 5710POPC   NC371639  14.126  14.730   5.555
 5710POPC   PO471640  14.433  15.374   5.433
 5710POPC   GL171641  14.530  15.360   5.837
 5710POPC   GL271642  14.220  15.164   5.882
 5710POPC   C1A71643  14.463  15.441   6.260
 5710POPC   D2A71644  14.456  15.249   6.617
 5710POPC   C3A71645  14.522  15.509   6.929
 5710POPC   C4A71646  14.482  15.307   7.306
 5710POPC   C1B71647  14.299  14.888   6.236
 5710POPC   C2B71648  14.085  14.901   6.616
 5710POPC   C3B71649  14.185  15.031   7.008
 5710POPC   C4B71650  14.020  15.057   7.431
 5711POPC   NC371651  39.559  23.290   5.387
 5711POPC   PO471652  39.192  22.783   5.268
 5711POPC   GL171653  39.291  22.982   5.699
 5711POPC   GL271654  39.585  22.908   5.803
 5711POPC   C1A71655  39.211  22.975   6.175
 5711POPC   D2A71656  38.954  23.255   6.437
 5711POPC   C3A71657  38.964  23.241   6.887
 5711POPC   C4A71658  39.233  23.404   7.192
 5711POPC   C1B71659  39.731  22.961   6.214
 5711POPC   C2B71660  39.645  22.788   6.602
 5711POPC   C3B71661  39.301  22.813   6.869
 5711POPC   C4B71662  39.097  22.893   7.251
 5712POPC   NC371663  38.337   1.648   5.347
 5712POPC   PO471664  38.577   2.316   5.396
 5712POPC   GL171665  38.544   1.982   5.693
 5712POPC   GL271666  38.232   1.859   5.788
 5712POPC   C1A71667  38.552   1.987   6.146
 5712POPC   D2A71668  38.703   2.060   6.550
 5712POPC   C3A71669  38.493   2.004   6.897
 5712POPC   C4A71670  38.745   1.792   7.210
 5712POPC   C1B71671  38.097   1.653   6.130
 5712POPC   C2B71672  38.203   1.787   6.526
 5712POPC   C3B71673  38.129   1.629   6.916
 5712POPC   C4B71674  38.250   1.790   7.284
 5713POPC   NC371675  19.931  17.866   5.589
 5713POPC   PO471676  19.747  17.374   5.270
 5713POPC   GL171677  19.921  17.275   5.696
 5713POPC   GL271678  20.263  17.205   5.648
 5713POPC   C1A71679  19.846  17.351   6.154
 5713POPC   D2A71680  19.820  17.600   6.532
 5713POPC   C3A71681  19.899  17.417   6.938
 5713POPC   C4A71682  19.829  17.548   7.353
 5713POPC   C1B71683  20.278  17.098   6.092
 5713POPC   C2B71684  20.059  16.993   6.495
 5713POPC   C3B71685  20.203  16.979   6.912
 5713POPC   C4B71686  20.292  17.216   7.271
 5714POPC   NC371687  40.223  23.492   5.403
 5714POPC   PO471688  40.121  22.806   5.436
 5714POPC   GL171689  40.094  22.947   5.831
 5714POPC   GL271690  39.915  23.306   5.832
 5714POPC   C1A71691  40.174  22.701   6.204
 5714POPC   D2A71692  40.172  22.841   6.598
 5714POPC   C3A71693  40.016  22.659   6.923
 5714POPC   C4A71694  39.686  22.841   7.209
 5714POPC   C1B71695  40.145  23.242   6.265
 5714POPC   C2B71696  40.297  23.322   6.681
 5714POPC   C3B71697  40.058  23.188   7.028
 5714POPC   C4B71698  40.192  22.922   7.329
 5715POPC   NC371699   5.533  38.688   5.611
 5715POPC   PO471700   6.015  38.176   5.507
 5715POPC   GL171701   5.830  38.336   5.865
 5715POPC   GL271702   5.946  38.681   5.938
 5715POPC   C1A71703   5.571  38.330   6.244
 5715POPC   D2A71704   5.575  38.509   6.666
 5715POPC   C3A71705   5.552  38.217   7.016
 5715POPC   C4A71706   5.777  38.040   7.400
 5715POPC   C1B71707   5.610  38.840   6.258
 5715POPC   C2B71708   5.663  39.059   6.650
 5715POPC   C3B71709   5.931  38.861   6.933
 5715POPC   C4B71710   5.915  38.521   7.184
 5716POPC   NC371711  31.621  35.837   5.321
 5716POPC   PO471712  31.144  36.289   5.484
 5716POPC   GL171713  31.480  36.137   5.713
 5716POPC   GL271714  31.652  36.465   5.696
 5716POPC   C1A71715  31.539  35.898   6.099
 5716POPC   D2A71716  31.466  35.959   6.562
 5716POPC   C3A71717  31.800  35.883   6.883
 5716POPC   C4A71718  31.742  35.610   7.251
 5716POPC   C1B71719  31.514  36.418   6.135
 5716POPC   C2B71720  31.588  36.518   6.557
 5716POPC   C3B71721  31.510  36.315   6.934
 5716POPC   C4B71722  31.306  35.897   7.108
 5717POPC   NC371723  31.890  12.414   5.535
 5717POPC   PO471724  32.551  12.451   5.644
 5717POPC   GL171725  32.269  12.742   5.806
 5717POPC   GL271726  32.183  13.014   5.571
 5717POPC   C1A71727  32.241  12.748   6.251
 5717POPC   D2A71728  32.490  12.767   6.607
 5717POPC   C3A71729  32.299  12.561   6.938
 5717POPC   C4A71730  32.474  12.466   7.300
 5717POPC   C1B71731  32.109  13.230   5.975
 5717POPC   C2B71732  32.187  13.229   6.430
 5717POPC   C3B71733  32.154  13.061   6.851
 5717POPC   C4B71734  32.389  12.966   7.239
 5718POPC   NC371735   4.487  29.713   5.307
 5718POPC   PO471736   4.095  30.251   5.188
 5718POPC   GL171737   4.310  30.036   5.659
 5718POPC   GL271738   4.559  29.752   5.809
 5718POPC   C1A71739   4.203  29.930   6.144
 5718POPC   D2A71740   4.143  30.205   6.522
 5718POPC   C3A71741   4.167  30.002   6.914
 5718POPC   C4A71742   4.228  29.624   7.158
 5718POPC   C1B71743   4.716  29.878   6.227
 5718POPC   C2B71744   4.617  29.986   6.642
 5718POPC   C3B71745   4.672  29.806   7.038
 5718POPC   C4B71746   4.447  30.059   7.333
 5719POPC   NC371747  40.556  25.043   5.471
 5719POPC   PO471748  41.211  25.073   5.296
 5719POPC   GL171749  41.040  25.205   5.704
 5719POPC   GL271750  40.786  25.477   5.699
 5719POPC   C1A71751  40.917  25.131   6.152
 5719POPC   D2A71752  40.601  25.210   6.488
 5719POPC   C3A71753  40.779  25.277   6.889
 5719POPC   C4A71754  40.579  25.261   7.256
 5719POPC   C1B71755  41.066  25.628   6.025
 5719POPC   C2B71756  41.074  25.554   6.466
 5719POPC   C3B71757  41.130  25.732   6.888
 5719POPC   C4B71758  40.873  25.682   7.245
 5720POPC   NC371759   4.459   6.139   5.364
 5720POPC   PO471760   4.570   5.695   5.784
 5720POPC   GL171761   4.243   5.942   5.945
 5720POPC   GL271762   3.988   5.694   6.059
 5720POPC   C1A71763   4.153   6.068   6.357
 5720POPC   D2A71764   4.070   5.794   6.701
 5720POPC   C3A71765   4.457   5.740   6.961
 5720POPC   C4A71766   4.596   6.100   7.214
 5720POPC   C1B71767   4.308   5.524   6.342
 5720POPC   C2B71768   4.268   5.301   6.706
 5720POPC   C3B71769   4.052   5.368   7.126
 5720POPC   C4B71770   3.991   5.569   7.587
 5721POPC   NC371771   8.293  32.523   5.529
 5721POPC   PO471772   7.896  31.939   5.523
 5721POPC   GL171773   8.115  32.168   5.848
 5721POPC   GL271774   8.015  32.527   5.988
 5721POPC   C1A71775   8.262  32.202   6.271
 5721POPC   D2A71776   7.975  32.382   6.560
 5721POPC   C3A71777   8.071  32.255   6.969
 5721POPC   C4A71778   8.394  32.052   7.189
 5721POPC   C1B71779   8.334  32.725   6.287
 5721POPC   C2B71780   8.714  32.679   6.508
 5721POPC   C3B71781   8.526  32.454   6.836
 5721POPC   C4B71782   8.336  32.610   7.232
 5722POPC   NC371783   5.894  27.099   5.334
 5722POPC   PO471784   5.698  27.677   5.087
 5722POPC   GL171785   5.787  27.580   5.552
 5722POPC   GL271786   5.541  27.438   5.777
 5722POPC   C1A71787   6.025  27.507   5.953
 5722POPC   D2A71788   6.166  27.282   6.313
 5722POPC   C3A71789   6.140  27.390   6.767
 5722POPC   C4A71790   6.126  27.401   7.219
 5722POPC   C1B71791   5.597  27.778   6.057
 5722POPC   C2B71792   5.774  27.679   6.470
 5722POPC   C3B71793   5.759  27.689   6.912
 5722POPC   C4B71794   5.620  27.457   7.234
 5723POPC   NC371795  37.999  30.878   5.423
 5723POPC   PO471796  37.458  30.441   5.490
 5723POPC   GL171797  37.673  30.643   5.812
 5723POPC   GL271798  37.473  30.882   5.996
 5723POPC   C1A71799  37.780  30.589   6.262
 5723POPC   D2A71800  37.459  30.802   6.533
 5723POPC   C3A71801  37.515  30.781   6.975
 5723POPC   C4A71802  37.921  30.627   7.183
 5723POPC   C1B71803  37.792  31.105   6.252
 5723POPC   C2B71804  37.921  31.234   6.680
 5723POPC   C3B71805  37.829  31.135   7.147
 5723POPC   C4B71806  37.632  30.894   7.515
 5724POPC   NC371807  15.813  44.841   5.526
 5724POPC   PO471808  16.306  44.362   5.473
 5724POPC   GL171809  16.209  44.626   5.777
 5724POPC   GL271810  15.906  44.431   5.811
 5724POPC   C1A71811  16.081  44.747   6.186
 5724POPC   D2A71812  16.263  44.714   6.586
 5724POPC   C3A71813  16.053  44.882   6.900
 5724POPC   C4A71814  16.018  44.741   7.276
 5724POPC   C1B71815  15.631  44.434   6.180
 5724POPC   C2B71816  15.705  44.594   6.593
 5724POPC   C3B71817  15.586  44.629   7.018
 5724POPC   C4B71818  15.730  44.352   7.353
 5725POPC   NC371819  33.606  32.175   5.352
 5725POPC   PO471820  34.176  32.515   5.478
 5725POPC   GL171821  33.834  32.306   5.810
 5725POPC   GL271822  33.476  32.136   5.860
 5725POPC   C1A71823  33.710  32.477   6.237
 5725POPC   D2A71824  33.947  32.591   6.622
 5725POPC   C3A71825  33.803  32.556   7.041
 5725POPC   C4A71826  33.653  32.263   7.320
 5725POPC   C1B71827  33.346  32.112   6.330
 5725POPC   C2B71828  33.450  32.165   6.799
 5725POPC   C3B71829  33.558  31.827   7.099
 5725POPC   C4B71830  33.676  31.752   7.547
 5726POPC   NC371831  11.828  25.352   5.414
 5726POPC   PO471832  12.516  25.474   5.394
 5726POPC   GL171833  12.373  25.208   5.758
 5726POPC   GL271834  12.060  25.009   5.717
 5726POPC   C1A71835  12.319  25.340   6.214
 5726POPC   D2A71836  12.013  25.524   6.540
 5726POPC   C3A71837  12.123  25.435   6.966
 5726POPC   C4A71838  12.180  25.507   7.435
 5726POPC   C1B71839  12.015  24.922   6.150
 5726POPC   C2B71840  12.147  25.005   6.571
 5726POPC   C3B71841  12.119  24.855   6.958
 5726POPC   C4B71842  11.940  25.039   7.299
 5727POPC   NC371843  34.441  11.606   5.263
 5727POPC   PO471844  34.672  11.020   5.411
 5727POPC   GL171845  34.512  11.073   5.791
 5727POPC   GL271846  34.605  11.428   5.835
 5727POPC   C1A71847  34.367  11.146   6.216
 5727POPC   D2A71848  34.403  11.472   6.519
 5727POPC   C3A71849  34.651  11.506   6.887
 5727POPC   C4A71850  34.486  11.661   7.277
 5727POPC   C1B71851  34.843  11.360   6.244
 5727POPC   C2B71852  34.899  11.092   6.619
 5727POPC   C3B71853  34.832  11.059   7.064
 5727POPC   C4B71854  34.892  11.378   7.353
 5728POPC   NC371855  38.774  41.073   5.330
 5728POPC   PO471856  38.404  40.594   5.174
 5728POPC   GL171857  38.460  40.621   5.664
 5728POPC   GL271858  38.602  40.953   5.834
 5728POPC   C1A71859  38.476  40.504   6.115
 5728POPC   D2A71860  38.450  40.665   6.550
 5728POPC   C3A71861  38.152  40.503   6.881
 5728POPC   C4A71862  38.067  40.800   7.203
 5728POPC   C1B71863  38.858  40.899   6.237
 5728POPC   C2B71864  38.944  40.731   6.681
 5728POPC   C3B71865  38.696  40.827   7.058
 5728POPC   C4B71866  38.672  41.263   7.224
 5729POPC   NC371867  26.270  39.701   5.576
 5729POPC   PO471868  26.261  40.408   5.416
 5729POPC   GL171869  26.171  40.182   5.760
 5729POPC   GL271870  25.874  40.073   5.625
 5729POPC   C1A71871  26.368  40.064   6.166
 5729POPC   D2A71872  26.569  40.011   6.573
 5729POPC   C3A71873  26.304  39.940   6.910
 5729POPC   C4A71874  26.267  40.080   7.301
 5729POPC   C1B71875  25.836  39.971   6.099
 5729POPC   C2B71876  25.966  40.121   6.531
 5729POPC   C3B71877  25.854  40.220   6.970
 5729POPC   C4B71878  25.772  40.014   7.365
 5730POPC   NC371879  44.867  31.770   5.309
 5730POPC   PO471880  44.502  31.175   5.364
 5730POPC   GL171881  44.506  31.538   5.621
 5730POPC   GL271882  44.843  31.506   5.754
 5730POPC   C1A71883  44.435  31.650   6.054
 5730POPC   D2A71884  44.576  31.848   6.436
 5730POPC   C3A71885  44.536  31.570   6.805
 5730POPC   C4A71886  44.312  31.412   7.172
 5730POPC   C1B71887   0.014  31.630   6.149
 5730POPC   C2B71888  44.993  31.503   6.564
 5730POPC   C3B71889   0.071  31.653   6.941
 5730POPC   C4B71890  44.800  31.545   7.247
 5731POPC   NC371891  11.128  21.627   5.391
 5731POPC   PO471892  11.535  21.069   5.476
 5731POPC   GL171893  11.239  21.279   5.817
 5731POPC   GL271894  11.201  20.994   6.047
 5731POPC   C1A71895  11.031  21.435   6.250
 5731POPC   D2A71896  10.864  21.375   6.680
 5731POPC   C3A71897  10.895  21.642   7.038
 5731POPC   C4A71898  11.140  21.638   7.439
 5731POPC   C1B71899  11.525  21.294   6.238
 5731POPC   C2B71900  11.435  21.483   6.616
 5731POPC   C3B71901  11.321  21.362   7.012
 5731POPC   C4B71902  11.529  21.316   7.418
 5732POPC   NC371903  27.538  10.762   5.458
 5732POPC   PO471904  27.933  10.218   5.455
 5732POPC   GL171905  27.819  10.411   5.803
 5732POPC   GL271906  28.004  10.186   6.005
 5732POPC   C1A71907  27.626  10.600   6.161
 5732POPC   D2A71908  27.705  10.874   6.490
 5732POPC   C3A71909  27.740  10.791   6.909
 5732POPC   C4A71910  27.510  10.674   7.247
 5732POPC   C1B71911  27.981  10.349   6.442
 5732POPC   C2B71912  27.700  10.297   6.799
 5732POPC   C3B71913  27.654  10.176   7.240
 5732POPC   C4B71914  27.958  10.045   7.526
 5733POPC   NC371915   5.477  15.407   5.374
 5733POPC   PO471916   6.135  15.293   5.454
 5733POPC   GL171917   5.882  15.361   5.795
 5733POPC   GL271918   5.665  15.088   5.767
 5733POPC   C1A71919   5.698  15.319   6.221
 5733POPC   D2A71920   5.650  15.063   6.584
 5733POPC   C3A71921   5.768  15.282   6.930
 5733POPC   C4A71922   5.590  15.312   7.285
 5733POPC   C1B71923   5.865  14.850   6.145
 5733POPC   C2B71924   6.127  14.896   6.468
 5733POPC   C3B71925   6.149  14.918   6.870
 5733POPC   C4B71926   5.859  14.842   7.172
 5734POPC   NC371927  39.491   8.873   5.441
 5734POPC   PO471928  38.797   8.687   5.421
 5734POPC   GL171929  39.055   8.876   5.748
 5734POPC   GL271930  39.377   9.046   5.893
 5734POPC   C1A71931  38.992   8.850   6.162
 5734POPC   D2A71932  39.080   8.827   6.564
 5734POPC   C3A71933  39.375   8.807   6.850
 5734POPC   C4A71934  39.234   8.972   7.219
 5734POPC   C1B71935  39.525   8.958   6.307
 5734POPC   C2B71936  39.689   9.167   6.628
 5734POPC   C3B71937  39.766   9.095   7.046
 5734POPC   C4B71938  39.677   8.762   7.280
 5735POPC   NC371939  23.168   1.393   5.489
 5735POPC   PO471940  22.505   1.107   5.440
 5735POPC   GL171941  22.644   1.183   5.855
 5735POPC   GL271942  22.981   1.140   5.880
 5735POPC   C1A71943  22.689   1.229   6.301
 5735POPC   D2A71944  22.869   1.394   6.700
 5735POPC   C3A71945  22.692   1.311   7.110
 5735POPC   C4A71946  22.597   1.607   7.465
 5735POPC   C1B71947  23.186   1.194   6.251
 5735POPC   C2B71948  23.346   1.480   6.533
 5735POPC   C3B71949  23.335   1.478   6.958
 5735POPC   C4B71950  23.181   1.157   7.185
 5736POPC   NC371951   1.164  32.949   5.504
 5736POPC   PO471952   1.105  33.593   5.359
 5736POPC   GL171953   1.135  33.390   5.778
 5736POPC   GL271954   1.424  33.204   5.863
 5736POPC   C1A71955   1.242  33.549   6.202
 5736POPC   D2A71956   1.242  33.436   6.637
 5736POPC   C3A71957   0.981  33.085   6.762
 5736POPC   C4A71958   1.029  32.967   7.193
 5736POPC   C1B71959   1.217  32.992   6.233
 5736POPC   C2B71960   1.428  32.870   6.632
 5736POPC   C3B71961   1.538  33.048   7.054
 5736POPC   C4B71962   1.651  32.877   7.473
 5737POPC   NC371963   5.054  18.114   5.202
 5737POPC   PO471964   5.419  18.565   5.549
 5737POPC   GL171965   4.973  18.407   5.682
 5737POPC   GL271966   4.913  18.016   5.683
 5737POPC   C1A71967   4.947  18.449   6.124
 5737POPC   D2A71968   5.201  18.492   6.494
 5737POPC   C3A71969   5.043  18.399   6.902
 5737POPC   C4A71970   5.317  18.219   7.163
 5737POPC   C1B71971   4.817  17.976   6.107
 5737POPC   C2B71972   4.785  18.135   6.520
 5737POPC   C3B71973   4.621  17.996   6.901
 5737POPC   C4B71974   4.789  18.120   7.276
 5738POPC   NC371975  21.751   4.426   5.411
 5738POPC   PO471976  22.366   4.375   5.153
 5738POPC   GL171977  22.322   4.437   5.624
 5738POPC   GL271978  22.627   4.510   5.816
 5738POPC   C1A71979  22.259   4.237   6.062
 5738POPC   D2A71980  22.074   4.352   6.469
 5738POPC   C3A71981  22.025   4.069   6.814
 5738POPC   C4A71982  22.353   4.045   7.084
 5738POPC   C1B71983  22.480   4.658   6.242
 5738POPC   C2B71984  22.260   4.788   6.647
 5738POPC   C3B71985  22.232   4.587   7.073
 5738POPC   C4B71986  22.460   4.745   7.437
 5739POPC   NC371987  28.530  40.190   5.495
 5739POPC   PO471988  28.190  39.642   5.295
 5739POPC   GL171989  28.241  39.806   5.726
 5739POPC   GL271990  28.583  39.730   5.802
 5739POPC   C1A71991  28.285  39.906   6.187
 5739POPC   D2A71992  28.461  39.988   6.601
 5739POPC   C3A71993  28.129  40.016   6.885
 5739POPC   C4A71994  28.127  39.869   7.279
 5739POPC   C1B71995  28.723  39.629   6.248
 5739POPC   C2B71996  28.817  39.623   6.712
 5739POPC   C3B71997  28.673  39.852   7.107
 5739POPC   C4B71998  28.728  39.787   7.560
 5740POPC   NC371999  26.471  43.256   5.418
 5740POPC   PO472000  25.934  42.871   5.393
 5740POPC   GL172001  25.859  42.959   5.791
 5740POPC   GL272002  26.129  43.209   5.799
 5740POPC   C1A72003  25.875  43.089   6.213
 5740POPC   D2A72004  26.088  43.199   6.573
 5740POPC   C3A72005  25.790  43.148   6.890
 5740POPC   C4A72006  26.018  43.132   7.254
 5740POPC   C1B72007  26.259  42.785   6.024
 5740POPC   C2B72008  26.323  42.730   6.477
 5740POPC   C3B72009  26.279  42.762   6.925
 5740POPC   C4B72010  26.481  42.852   7.329
 5741POPC   NC372011  32.921  39.587   5.015
 5741POPC   PO472012  33.234  39.242   5.569
 5741POPC   GL172013  32.985  39.106   5.878
 5741POPC   GL272014  32.967  39.475   5.966
 5741POPC   C1A72015  33.004  39.147   6.338
 5741POPC   D2A72016  33.147  39.497   6.580
 5741POPC   C3A72017  33.191  39.332   7.021
 5741POPC   C4A72018  32.819  39.136   7.250
 5741POPC   C1B72019  32.626  39.648   6.122
 5741POPC   C2B72020  32.480  39.501   6.496
 5741POPC   C3B72021  32.718  39.444   6.837
 5741POPC   C4B72022  32.809  39.645   7.204
 5742POPC   NC372023   9.941  18.068   5.240
 5742POPC   PO472024   9.462  18.565   5.345
 5742POPC   GL172025   9.695  18.434   5.685
 5742POPC   GL272026   9.508  18.142   5.730
 5742POPC   C1A72027   9.832  18.493   6.126
 5742POPC   D2A72028   9.894  18.241   6.520
 5742POPC   C3A72029   9.865  18.526   6.859
 5742POPC   C4A72030   9.744  18.393   7.240
 5742POPC   C1B72031   9.543  18.065   6.176
 5742POPC   C2B72032   9.351  17.980   6.570
 5742POPC   C3B72033   9.451  18.092   6.980
 5742POPC   C4B72034   9.449  18.007   7.472
 5743POPC   NC372035  13.928  21.637   5.477
 5743POPC   PO472036  13.599  22.350   5.420
 5743POPC   GL172037  13.658  22.208   5.799
 5743POPC   GL272038  13.511  21.897   5.812
 5743POPC   C1A72039  13.590  22.164   6.247
 5743POPC   D2A72040  13.454  22.316   6.635
 5743POPC   C3A72041  13.755  22.186   6.916
 5743POPC   C4A72042  13.793  22.313   7.297
 5743POPC   C1B72043  13.269  21.785   6.158
 5743POPC   C2B72044  13.167  21.835   6.562
 5743POPC   C3B72045  13.358  21.869   6.930
 5743POPC   C4B72046  13.271  21.916   7.337
 5744POPC   NC372047  11.650  34.110   5.502
 5744POPC   PO472048  11.053  33.889   5.408
 5744POPC   GL172049  11.315  33.828   5.801
 5744POPC   GL272050  11.466  33.490   5.881
 5744POPC   C1A72051  11.178  33.963   6.204
 5744POPC   D2A72052  10.939  33.839   6.560
 5744POPC   C3A72053  11.126  34.089   6.872
 5744POPC   C4A72054  11.418  33.957   7.177
 5744POPC   C1B72055  11.321  33.473   6.300
 5744POPC   C2B72056  11.378  33.612   6.710
 5744POPC   C3B72057  11.306  33.454   7.106
 5744POPC   C4B72058  11.527  33.527   7.474
 5745POPC   NC372059  13.086  19.530   5.415
 5745POPC   PO472060  12.669  19.020   5.361
 5745POPC   GL172061  12.684  18.912   5.824
 5745POPC   GL272062  12.658  19.237   6.002
 5745POPC   C1A72063  12.760  18.807   6.277
 5745POPC   D2A72064  12.898  19.086   6.619
 5745POPC   C3A72065  12.673  18.975   6.975
 5745POPC   C4A72066  12.826  18.590   7.182
 5745POPC   C1B72067  13.120  19.158   6.132
 5745POPC   C2B72068  13.403  19.192   6.511
 5745POPC   C3B72069  13.305  19.344   6.934
 5745POPC   C4B72070  13.041  19.165   7.249
 5746POPC   NC372071  29.637  18.400   5.365
 5746POPC   PO472072  30.194  18.031   5.400
 5746POPC   GL172073  29.998  18.372   5.747
 5746POPC   GL272074  29.647  18.372   5.903
 5746POPC   C1A72075  29.976  18.694   6.140
 5746POPC   D2A72076  30.154  18.793   6.573
 5746POPC   C3A72077  30.027  18.417   6.797
 5746POPC   C4A72078  29.936  18.219   7.175
 5746POPC   C1B72079  29.543  18.101   6.250
 5746POPC   C2B72080  29.692  18.008   6.683
 5746POPC   C3B72081  29.558  17.839   7.100
 5746POPC   C4B72082  29.477  17.743   7.551
 5747POPC   NC372083   7.758  11.917   5.483
 5747POPC   PO472084   7.239  12.306   5.351
 5747POPC   GL172085   7.251  12.088   5.756
 5747POPC   GL272086   7.570  11.993   5.932
 5747POPC   C1A72087   7.138  11.958   6.187
 5747POPC   D2A72088   7.460  12.048   6.465
 5747POPC   C3A72089   7.308  12.117   6.887
 5747POPC   C4A72090   7.555  11.958   7.208
 5747POPC   C1B72091   7.813  12.291   6.136
 5747POPC   C2B72092   7.699  12.498   6.498
 5747POPC   C3B72093   7.734  12.418   6.930
 5747POPC   C4B72094   7.719  12.709   7.250
 5748POPC   NC372095  36.961  21.108   5.174
 5748POPC   PO472096  36.652  21.629   5.313
 5748POPC   GL172097  36.786  21.445   5.722
 5748POPC   GL272098  36.452  21.324   5.777
 5748POPC   C1A72099  37.044  21.490   6.164
 5748POPC   D2A72100  36.886  21.493   6.599
 5748POPC   C3A72101  37.111  21.502   6.982
 5748POPC   C4A72102  37.150  21.788   7.312
 5748POPC   C1B72103  36.609  21.242   6.189
 5748POPC   C2B72104  36.690  21.026   6.607
 5748POPC   C3B72105  36.596  21.299   6.997
 5748POPC   C4B72106  36.533  21.338   7.482
 5749POPC   NC372107  28.512  32.703   5.560
 5749POPC   PO472108  28.213  32.081   5.476
 5749POPC   GL172109  28.395  31.969   5.857
 5749POPC   GL272110  28.740  32.132   5.882
 5749POPC   C1A72111  28.215  31.826   6.230
 5749POPC   D2A72112  28.367  31.743   6.620
 5749POPC   C3A72113  28.518  32.076   6.861
 5749POPC   C4A72114  28.345  32.043   7.245
 5749POPC   C1B72115  28.542  32.213   6.292
 5749POPC   C2B72116  28.163  32.317   6.505
 5749POPC   C3B72117  27.972  32.561   6.833
 5749POPC   C4B72118  28.122  32.494   7.205
 5750POPC   NC372119   5.807  29.118   5.105
 5750POPC   PO472120   5.893  29.464   5.670
 5750POPC   GL172121   6.106  29.292   5.989
 5750POPC   GL272122   6.028  28.943   5.895
 5750POPC   C1A72123   6.141  29.481   6.409
 5750POPC   D2A72124   5.737  29.595   6.601
 5750POPC   C3A72125   5.773  29.292   6.921
 5750POPC   C4A72126   6.018  29.407   7.276
 5750POPC   C1B72127   6.257  28.836   6.260
 5750POPC   C2B72128   6.147  28.856   6.717
 5750POPC   C3B72129   6.120  28.918   7.157
 5750POPC   C4B72130   5.691  28.918   7.281
 5751POPC   NC372131  42.538  28.056   5.616
 5751POPC   PO472132  42.209  27.533   5.464
 5751POPC   GL172133  42.457  27.309   5.758
 5751POPC   GL272134  42.371  27.612   5.966
 5751POPC   C1A72135  42.483  27.176   6.196
 5751POPC   D2A72136  42.402  27.513   6.503
 5751POPC   C3A72137  42.211  27.461   6.889
 5751POPC   C4A72138  42.386  27.451   7.276
 5751POPC   C1B72139  42.665  27.869   6.217
 5751POPC   C2B72140  42.810  27.964   6.622
 5751POPC   C3B72141  42.638  27.838   6.988
 5751POPC   C4B72142  42.633  27.913   7.390
 5752POPC   NC372143   5.446  29.493   5.482
 5752POPC   PO472144   5.063  28.977   5.399
 5752POPC   GL172145   4.852  29.280   5.717
 5752POPC   GL272146   4.687  29.016   5.938
 5752POPC   C1A72147   4.940  29.420   6.149
 5752POPC   D2A72148   5.239  29.304   6.489
 5752POPC   C3A72149   5.143  29.371   6.933
 5752POPC   C4A72150   5.249  29.211   7.331
 5752POPC   C1B72151   4.827  28.854   6.305
 5752POPC   C2B72152   4.854  28.968   6.725
 5752POPC   C3B72153   5.018  28.820   7.109
 5752POPC   C4B72154   4.850  28.817   7.512
 5753POPC   NC372155  35.158   8.423   5.456
 5753POPC   PO472156  35.090   7.798   5.355
 5753POPC   GL172157  35.221   7.937   5.739
 5753POPC   GL272158  35.540   8.093   5.634
 5753POPC   C1A72159  35.132   7.931   6.179
 5753POPC   D2A72160  35.176   8.187   6.525
 5753POPC   C3A72161  35.040   8.139   6.943
 5753POPC   C4A72162  35.152   8.481   7.229
 5753POPC   C1B72163  35.689   8.347   6.001
 5753POPC   C2B72164  35.679   8.226   6.431
 5753POPC   C3B72165  35.558   8.282   6.864
 5753POPC   C4B72166  35.677   8.281   7.266
 5754POPC   NC372167   1.711  26.301   4.989
 5754POPC   PO472168   2.031  25.935   5.482
 5754POPC   GL172169   2.110  26.016   5.862
 5754POPC   GL272170   2.304  25.730   5.894
 5754POPC   C1A72171   1.937  25.898   6.241
 5754POPC   D2A72172   1.682  25.850   6.588
 5754POPC   C3A72173   1.919  26.024   6.886
 5754POPC   C4A72174   2.000  26.002   7.295
 5754POPC   C1B72175   2.457  25.906   6.261
 5754POPC   C2B72176   2.390  26.109   6.638
 5754POPC   C3B72177   2.418  25.917   7.017
 5754POPC   C4B72178   2.515  26.006   7.428
 5755POPC   NC372179  29.408  28.891   5.596
 5755POPC   PO472180  29.932  29.248   5.295
 5755POPC   GL172181  29.950  29.174   5.756
 5755POPC   GL272182  30.228  28.999   5.912
 5755POPC   C1A72183  30.035  29.375   6.172
 5755POPC   D2A72184  29.775  29.389   6.518
 5755POPC   C3A72185  29.967  29.248   6.856
 5755POPC   C4A72186  29.825  29.352   7.217
 5755POPC   C1B72187  29.857  28.902   6.217
 5755POPC   C2B72188  29.777  28.791   6.653
 5755POPC   C3B72189  29.787  28.852   7.120
 5755POPC   C4B72190  30.142  29.018   7.391
 5756POPC   NC372191  31.234  18.613   5.691
 5756POPC   PO472192  31.530  17.996   5.391
 5756POPC   GL172193  31.529  18.193   5.740
 5756POPC   GL272194  31.823  18.083   5.819
 5756POPC   C1A72195  31.409  18.190   6.159
 5756POPC   D2A72196  31.205  18.493   6.431
 5756POPC   C3A72197  31.293  18.494   6.889
 5756POPC   C4A72198  31.325  18.233   7.264
 5756POPC   C1B72199  31.864  18.406   6.139
 5756POPC   C2B72200  31.693  18.392   6.573
 5756POPC   C3B72201  31.790  18.406   7.020
 5756POPC   C4B72202  31.801  18.064   7.342
 5757POPC   NC372203  16.052   2.773   5.295
 5757POPC   PO472204  15.454   2.584   5.183
 5757POPC   GL172205  15.684   2.745   5.649
 5757POPC   GL272206  16.067   2.878   5.781
 5757POPC   C1A72207  15.714   2.831   6.137
 5757POPC   D2A72208  16.135   2.683   6.362
 5757POPC   C3A72209  16.164   2.696   6.841
 5757POPC   C4A72210  15.769   2.812   7.081
 5757POPC   C1B72211  16.099   3.149   6.154
 5757POPC   C2B72212  15.956   3.105   6.612
 5757POPC   C3B72213  16.160   3.175   7.040
 5757POPC   C4B72214  16.042   3.266   7.494
 5758POPC   NC372215  29.906  44.129   5.518
 5758POPC   PO472216  30.458  43.648   5.599
 5758POPC   GL172217  30.071  43.720   5.766
 5758POPC   GL272218  30.230  44.044   5.884
 5758POPC   C1A72219  29.762  43.763   6.109
 5758POPC   D2A72220  29.782  43.934   6.523
 5758POPC   C3A72221  29.906  43.651   6.803
 5758POPC   C4A72222  29.919  43.597   7.221
 5758POPC   C1B72223  30.255  43.822   6.248
 5758POPC   C2B72224  30.302  44.003   6.633
 5758POPC   C3B72225  30.276  43.905   7.030
 5758POPC   C4B72226  29.922  44.089   7.241
 5759POPC   NC372227  38.129  40.890   5.388
 5759POPC   PO472228  37.457  40.878   5.325
 5759POPC   GL172229  37.406  40.962   5.772
 5759POPC   GL272230  37.718  41.128   5.804
 5759POPC   C1A72231  37.508  40.808   6.230
 5759POPC   D2A72232  37.326  40.721   6.664
 5759POPC   C3A72233  37.615  40.587   7.006
 5759POPC   C4A72234  37.616  40.799   7.427
 5759POPC   C1B72235  38.024  40.969   6.111
 5759POPC   C2B72236  37.970  40.863   6.547
 5759POPC   C3B72237  37.728  41.051   6.860
 5759POPC   C4B72238  37.798  41.241   7.241
 5760POPC   NC372239  20.254  10.762   5.481
 5760POPC   PO472240  19.630  10.602   5.343
 5760POPC   GL172241  19.841  10.635   5.802
 5760POPC   GL272242  19.526  10.637   5.998
 5760POPC   C1A72243  19.972  10.400   6.258
 5760POPC   D2A72244  20.182  10.077   6.573
 5760POPC   C3A72245  20.071  10.147   7.029
 5760POPC   C4A72246  19.764  10.406   7.300
 5760POPC   C1B72247  19.823  10.893   6.286
 5760POPC   C2B72248  19.945  10.948   6.762
 5760POPC   C3B72249  19.761  10.949   7.212
 5760POPC   C4B72250  19.352  10.997   7.447
 5761POPC   NC372251  34.354  42.942   5.111
 5761POPC   PO472252  34.491  42.323   5.382
 5761POPC   GL172253  34.610  42.307   5.793
 5761POPC   GL272254  34.905  42.520   5.798
 5761POPC   C1A72255  34.384  42.316   6.172
 5761POPC   D2A72256  34.475  42.115   6.561
 5761POPC   C3A72257  34.425  42.305   6.948
 5761POPC   C4A72258  34.634  42.313   7.324
 5761POPC   C1B72259  34.892  42.348   6.235
 5761POPC   C2B72260  34.756  42.548   6.626
 5761POPC   C3B72261  34.973  42.647   7.033
 5761POPC   C4B72262  35.004  42.647   7.502
 5762POPC   NC372263  14.647  21.449   5.453
 5762POPC   PO472264  13.996  21.156   5.437
 5762POPC   GL172265  14.298  21.245   5.767
 5762POPC   GL272266  14.637  21.015   5.743
 5762POPC   C1A72267  14.333  21.407   6.206
 5762POPC   D2A72268  14.544  21.438   6.626
 5762POPC   C3A72269  14.259  21.374   6.956
 5762POPC   C4A72270  14.116  21.468   7.374
 5762POPC   C1B72271  14.739  21.081   6.183
 5762POPC   C2B72272  14.589  20.924   6.577
 5762POPC   C3B72273  14.651  21.034   6.991
 5762POPC   C4B72274  14.782  21.078   7.420
 5763POPC   NC372275  22.332   8.623   5.480
 5763POPC   PO472276  21.896   9.258   5.524
 5763POPC   GL172277  22.109   9.202   5.897
 5763POPC   GL272278  22.114   8.826   5.900
 5763POPC   C1A72279  22.229   9.097   6.317
 5763POPC   D2A72280  22.020   8.806   6.563
 5763POPC   C3A72281  21.859   9.119   6.797
 5763POPC   C4A72282  22.069   9.267   7.153
 5763POPC   C1B72283  22.383   8.621   6.216
 5763POPC   C2B72284  22.572   8.714   6.630
 5763POPC   C3B72285  22.348   8.868   6.987
 5763POPC   C4B72286  21.914   8.727   7.135
 5764POPC   NC372287   2.943  24.081   5.072
 5764POPC   PO472288   2.907  24.675   5.406
 5764POPC   GL172289   2.884  24.565   5.846
 5764POPC   GL272290   2.857  24.239   5.797
 5764POPC   C1A72291   2.934  24.588   6.317
 5764POPC   D2A72292   2.885  24.913   6.620
 5764POPC   C3A72293   2.797  24.741   7.015
 5764POPC   C4A72294   3.009  24.344   6.990
 5764POPC   C1B72295   2.547  24.281   6.175
 5764POPC   C2B72296   2.427  24.221   6.640
 5764POPC   C3B72297   2.470  24.299   7.111
 5764POPC   C4B72298   2.588  24.019   7.479
 5765POPC   NC372299  19.488  29.192   5.300
 5765POPC   PO472300  19.995  28.870   5.643
 5765POPC   GL172301  19.747  29.181   5.769
 5765POPC   GL272302  19.461  28.979   5.765
 5765POPC   C1A72303  19.843  29.307   6.186
 5765POPC   D2A72304  19.890  29.518   6.576
 5765POPC   C3A72305  19.962  29.201   6.889
 5765POPC   C4A72306  19.651  29.135   7.187
 5765POPC   C1B72307  19.543  28.853   6.168
 5765POPC   C2B72308  19.552  29.007   6.576
 5765POPC   C3B72309  19.714  28.739   6.864
 5765POPC   C4B72310  19.854  28.657   7.244
 5766POPC   NC372311  18.832   1.038   5.457
 5766POPC   PO472312  19.361   1.400   5.422
 5766POPC   GL172313  19.164   1.219   5.797
 5766POPC   GL272314  18.825   1.421   5.837
 5766POPC   C1A72315  18.870   1.024   6.127
 5766POPC   D2A72316  18.799   0.971   6.558
 5766POPC   C3A72317  19.085   1.167   6.846
 5766POPC   C4A72318  19.097   0.993   7.268
 5766POPC   C1B72319  19.092   1.484   6.206
 5766POPC   C2B72320  19.352   1.556   6.515
 5766POPC   C3B72321  19.383   1.598   6.938
 5766POPC   C4B72322  19.101   1.523   7.244
 5767POPC   NC372323  40.615  12.024   5.439
 5767POPC   PO472324  40.149  12.492   5.220
 5767POPC   GL172325  40.439  12.492   5.670
 5767POPC   GL272326  40.778  12.321   5.811
 5767POPC   C1A72327  40.427  12.312   6.160
 5767POPC   D2A72328  40.753  12.168   6.502
 5767POPC   C3A72329  40.683  12.129   6.965
 5767POPC   C4A72330  40.761  11.992   7.416
 5767POPC   C1B72331  40.728  11.883   6.073
 5767POPC   C2B72332  40.953  11.615   6.392
 5767POPC   C3B72333  41.090  11.840   6.781
 5767POPC   C4B72334  41.206  11.821   7.230
 5768POPC   NC372335  37.877  16.187   5.576
 5768POPC   PO472336  37.464  15.917   5.115
 5768POPC   GL172337  37.465  15.899   5.666
 5768POPC   GL272338  37.518  16.209   5.914
 5768POPC   C1A72339  37.555  15.752   6.127
 5768POPC   D2A72340  37.842  15.704   6.485
 5768POPC   C3A72341  37.706  15.704   6.883
 5768POPC   C4A72342  37.352  15.871   7.152
 5768POPC   C1B72343  37.911  16.113   6.190
 5768POPC   C2B72344  37.956  16.201   6.599
 5768POPC   C3B72345  37.618  16.228   6.873
 5768POPC   C4B72346  37.826  16.072   7.204
 5769POPC   NC372347  24.716  34.986   5.477
 5769POPC   PO472348  24.316  35.429   5.177
 5769POPC   GL172349  24.354  35.363   5.645
 5769POPC   GL272350  24.478  35.140   5.885
 5769POPC   C1A72351  24.233  35.536   6.072
 5769POPC   D2A72352  24.214  35.310   6.449
 5769POPC   C3A72353  24.496  35.334   6.778
 5769POPC   C4A72354  24.661  35.614   7.108
 5769POPC   C1B72355  24.458  34.919   6.224
 5769POPC   C2B72356  24.690  34.887   6.568
 5769POPC   C3B72357  24.581  34.788   6.950
 5769POPC   C4B72358  24.554  35.110   7.229
 5770POPC   NC372359   3.909  25.555   5.251
 5770POPC   PO472360   4.506  25.209   5.206
 5770POPC   GL172361   4.486  25.401   5.627
 5770POPC   GL272362   4.119  25.370   5.758
 5770POPC   C1A72363   4.579  25.394   6.085
 5770POPC   D2A72364   4.620  25.034   6.366
 5770POPC   C3A72365   4.419  25.066   6.746
 5770POPC   C4A72366   4.465  25.003   7.165
 5770POPC   C1B72367   4.129  25.170   6.202
 5770POPC   C2B72368   3.987  25.340   6.605
 5770POPC   C3B72369   4.076  25.362   7.035
 5770POPC   C4B72370   3.915  25.613   7.371
 5771POPC   NC372371   8.326  41.000   5.211
 5771POPC   PO472372   8.399  40.401   5.447
 5771POPC   GL172373   8.446  40.534   5.824
 5771POPC   GL272374   8.492  40.861   5.695
 5771POPC   C1A72375   8.227  40.488   6.234
 5771POPC   D2A72376   8.120  40.692   6.626
 5771POPC   C3A72377   8.368  40.606   6.999
 5771POPC   C4A72378   8.100  40.687   7.296
 5771POPC   C1B72379   8.320  40.971   6.108
 5771POPC   C2B72380   8.429  41.105   6.496
 5771POPC   C3B72381   8.217  41.166   6.857
 5771POPC   C4B72382   8.398  41.084   7.192
 5772POPC   NC372383   4.454  37.717   5.155
 5772POPC   PO472384   5.154  37.724   5.273
 5772POPC   GL172385   5.073  37.620   5.712
 5772POPC   GL272386   4.857  37.313   5.804
 5772POPC   C1A72387   5.323  37.583   6.086
 5772POPC   D2A72388   5.541  37.475   6.474
 5772POPC   C3A72389   5.350  37.347   6.886
 5772POPC   C4A72390   5.264  37.706   7.121
 5772POPC   C1B72391   4.939  37.300   6.259
 5772POPC   C2B72392   4.900  37.494   6.663
 5772POPC   C3B72393   4.848  37.405   7.103
 5772POPC   C4B72394   4.702  37.267   7.535
 5773POPC   NC372395  26.289  21.520   5.087
 5773POPC   PO472396  25.780  21.146   5.248
 5773POPC   GL172397  25.920  21.274   5.674
 5773POPC   GL272398  25.896  20.926   5.780
 5773POPC   C1A72399  26.124  21.492   6.048
 5773POPC   D2A72400  25.943  21.524   6.465
 5773POPC   C3A72401  26.109  21.584   6.851
 5773POPC   C4A72402  25.873  21.645   7.216
 5773POPC   C1B72403  25.984  20.971   6.246
 5773POPC   C2B72404  25.960  21.023   6.726
 5773POPC   C3B72405  25.936  21.149   7.163
 5773POPC   C4B72406  26.234  21.233   7.523
 5774POPC   NC372407  42.132  43.570   5.568
 5774POPC   PO472408  42.726  43.901   5.508
 5774POPC   GL172409  42.528  43.843   5.886
 5774POPC   GL272410  42.195  43.847   5.982
 5774POPC   C1A72411  42.579  43.714   6.303
 5774POPC   D2A72412  42.409  43.653   6.705
 5774POPC   C3A72413  42.417  44.044   6.895
 5774POPC   C4A72414  42.453  44.099   7.321
 5774POPC   C1B72415  42.054  43.781   6.377
 5774POPC   C2B72416  41.908  43.911   6.780
 5774POPC   C3B72417  42.086  43.754   7.162
 5774POPC   C4B72418  42.015  43.520   7.501
 5775POPC   NC372419  36.057  41.018   5.270
 5775POPC   PO472420  35.907  40.361   5.501
 5775POPC   GL172421  36.074  40.710   5.760
 5775POPC   GL272422  36.340  40.964   5.833
 5775POPC   C1A72423  35.945  40.897   6.168
 5775POPC   D2A72424  35.801  40.822   6.610
 5775POPC   C3A72425  35.931  40.889   7.028
 5775POPC   C4A72426  35.903  40.616   7.389
 5775POPC   C1B72427  36.455  40.809   6.256
 5775POPC   C2B72428  36.348  40.775   6.717
 5775POPC   C3B72429  36.310  40.520   7.099
 5775POPC   C4B72430  36.364  40.358   7.538
 5776POPC   NC372431  17.212  22.776   5.538
 5776POPC   PO472432  17.484  23.322   5.447
 5776POPC   GL172433  17.542  23.066   5.836
 5776POPC   GL272434  17.498  22.660   5.918
 5776POPC   C1A72435  17.564  23.234   6.252
 5776POPC   D2A72436  17.381  23.427   6.610
 5776POPC   C3A72437  17.589  23.197   6.925
 5776POPC   C4A72438  17.443  23.248   7.329
 5776POPC   C1B72439  17.231  22.859   6.192
 5776POPC   C2B72440  17.325  22.899   6.600
 5776POPC   C3B72441  17.439  22.707   6.975
 5776POPC   C4B72442  17.287  22.771   7.378
 5777POPC   NC372443  13.266  22.696   5.548
 5777POPC   PO472444  12.782  23.134   5.428
 5777POPC   GL172445  13.056  23.136   5.774
 5777POPC   GL272446  12.841  22.865   5.860
 5777POPC   C1A72447  13.078  23.134   6.232
 5777POPC   D2A72448  12.872  23.334   6.581
 5777POPC   C3A72449  13.156  23.240   6.928
 5777POPC   C4A72450  13.113  22.818   7.090
 5777POPC   C1B72451  12.786  22.696   6.231
 5777POPC   C2B72452  12.877  22.715   6.641
 5777POPC   C3B72453  12.558  22.594   6.918
 5777POPC   C4B72454  12.692  22.587   7.311
 5778POPC   NC372455  24.081  35.756   5.432
 5778POPC   PO472456  24.069  36.358   5.090
 5778POPC   GL172457  23.932  36.240   5.572
 5778POPC   GL272458  24.067  36.439   5.824
 5778POPC   C1A72459  23.857  35.974   6.016
 5778POPC   D2A72460  23.971  35.803   6.471
 5778POPC   C3A72461  23.774  35.928   6.898
 5778POPC   C4A72462  23.595  35.957   7.338
 5778POPC   C1B72463  23.792  36.439   6.211
 5778POPC   C2B72464  23.516  36.356   6.574
 5778POPC   C3B72465  23.630  36.426   7.001
 5778POPC   C4B72466  23.613  36.515   7.422
 5779POPC   NC372467  27.075  12.304   5.461
 5779POPC   PO472468  26.924  11.660   5.424
 5779POPC   GL172469  26.707  11.915   5.775
 5779POPC   GL272470  26.556  12.220   5.645
 5779POPC   C1A72471  26.698  12.023   6.252
 5779POPC   D2A72472  27.004  12.232   6.526
 5779POPC   C3A72473  27.077  12.166   6.981
 5779POPC   C4A72474  27.324  12.492   7.197
 5779POPC   C1B72475  26.488  12.443   6.036
 5779POPC   C2B72476  26.571  12.552   6.473
 5779POPC   C3B72477  26.597  12.295   6.837
 5779POPC   C4B72478  26.634  12.139   7.273
 5780POPC   NC372479  36.554  42.611   5.363
 5780POPC   PO472480  37.140  42.504   5.162
 5780POPC   GL172481  37.037  42.318   5.623
 5780POPC   GL272482  37.307  42.168   5.834
 5780POPC   C1A72483  36.866  42.199   6.081
 5780POPC   D2A72484  36.773  42.387   6.524
 5780POPC   C3A72485  36.958  42.249   6.915
 5780POPC   C4A72486  36.783  42.028   7.251
 5780POPC   C1B72487  37.256  42.470   6.229
 5780POPC   C2B72488  37.190  42.676   6.626
 5780POPC   C3B72489  37.292  42.635   7.032
 5780POPC   C4B72490  37.070  42.482   7.390
 5781POPC   NC372491  19.341  21.592   5.382
 5781POPC   PO472492  18.989  22.215   5.346
 5781POPC   GL172493  19.062  22.217   5.772
 5781POPC   GL272494  19.303  21.968   5.802
 5781POPC   C1A72495  19.178  22.299   6.222
 5781POPC   D2A72496  19.478  22.468   6.559
 5781POPC   C3A72497  19.341  22.410   6.988
 5781POPC   C4A72498  19.245  22.155   7.347
 5781POPC   C1B72499  18.949  21.843   6.099
 5781POPC   C2B72500  18.879  21.967   6.516
 5781POPC   C3B72501  18.983  22.034   6.935
 5781POPC   C4B72502  18.882  21.766   7.283
 5782POPC   NC372503  26.156  44.888   5.461
 5782POPC   PO472504  25.537  44.548   5.486
 5782POPC   GL172505  25.848  44.728   5.837
 5782POPC   GL272506  26.134  44.491   5.942
 5782POPC   C1A72507  26.160  44.926   6.186
 5782POPC   D2A72508  26.267  44.726   6.602
 5782POPC   C3A72509  26.104  44.835   7.012
 5782POPC   C4A72510  25.881  44.924   7.414
 5782POPC   C1B72511  25.851  44.542   6.310
 5782POPC   C2B72512  25.707  44.459   6.719
 5782POPC   C3B72513  25.756  44.474   7.167
 5782POPC   C4B72514  25.610  44.262   7.504
 5783POPC   NC372515  12.440   7.300   5.354
 5783POPC   PO472516  12.913   7.706   5.141
 5783POPC   GL172517  12.773   7.675   5.616
 5783POPC   GL272518  12.600   7.416   5.825
 5783POPC   C1A72519  12.891   7.766   6.088
 5783POPC   D2A72520  13.123   7.584   6.435
 5783POPC   C3A72521  12.942   7.539   6.833
 5783POPC   C4A72522  12.959   7.453   7.266
 5783POPC   C1B72523  12.835   7.247   6.178
 5783POPC   C2B72524  12.962   7.021   6.547
 5783POPC   C3B72525  13.037   7.039   6.973
 5783POPC   C4B72526  12.735   6.987   7.274
 5784POPC   NC372527   9.214  14.102   5.442
 5784POPC   PO472528   9.808  14.393   5.318
 5784POPC   GL172529   9.544  14.415   5.683
 5784POPC   GL272530   9.585  14.096   5.805
 5784POPC   C1A72531   9.419  14.721   6.010
 5784POPC   D2A72532   9.625  14.747   6.435
 5784POPC   C3A72533   9.472  14.794   6.868
 5784POPC   C4A72534   9.778  14.635   7.196
 5784POPC   C1B72535   9.539  14.283   6.196
 5784POPC   C2B72536   9.444  14.168   6.550
 5784POPC   C3B72537   9.581  14.308   6.869
 5784POPC   C4B72538   9.610  14.158   7.249
 5785POPC   NC372539  24.729   8.743   5.332
 5785POPC   PO472540  24.302   9.174   5.577
 5785POPC   GL172541  24.580   9.045   5.762
 5785POPC   GL272542  24.744   9.327   5.828
 5785POPC   C1A72543  24.591   8.916   6.161
 5785POPC   D2A72544  24.822   8.818   6.485
 5785POPC   C3A72545  24.520   8.786   6.785
 5785POPC   C4A72546  24.432   8.911   7.194
 5785POPC   C1B72547  24.592   9.421   6.179
 5785POPC   C2B72548  24.590   9.273   6.582
 5785POPC   C3B72549  24.226   9.223   6.840
 5785POPC   C4B72550  24.217   9.371   7.246
 5786POPC   NC372551   6.991  28.732   5.327
 5786POPC   PO472552   7.434  29.276   5.323
 5786POPC   GL172553   7.468  29.090   5.734
 5786POPC   GL272554   7.286  29.380   5.825
 5786POPC   C1A72555   7.642  29.178   6.151
 5786POPC   D2A72556   7.414  29.207   6.546
 5786POPC   C3A72557   7.611  29.243   6.896
 5786POPC   C4A72558   7.735  29.115   7.256
 5786POPC   C1B72559   7.071  29.300   6.192
 5786POPC   C2B72560   6.953  29.421   6.602
 5786POPC   C3B72561   7.074  29.327   7.049
 5786POPC   C4B72562   7.370  29.377   7.444
 5787POPC   NC372563  14.849  23.124   5.372
 5787POPC   PO472564  15.481  22.903   5.557
 5787POPC   GL172565  15.162  22.713   5.768
 5787POPC   GL272566  15.071  23.048   5.825
 5787POPC   C1A72567  15.181  22.619   6.202
 5787POPC   D2A72568  15.254  22.762   6.620
 5787POPC   C3A72569  14.901  22.815   6.895
 5787POPC   C4A72570  14.895  22.604   7.291
 5787POPC   C1B72571  15.309  23.122   6.225
 5787POPC   C2B72572  15.308  23.272   6.688
 5787POPC   C3B72573  15.346  23.004   7.094
 5787POPC   C4B72574  15.358  23.160   7.522
 5788POPC   NC372575   4.479  11.569   5.388
 5788POPC   PO472576   4.469  10.973   5.629
 5788POPC   GL172577   4.282  11.333   5.837
 5788POPC   GL272578   4.548  11.574   5.883
 5788POPC   C1A72579   4.238  11.363   6.293
 5788POPC   D2A72580   3.987  11.176   6.666
 5788POPC   C3A72581   4.191  11.125   7.083
 5788POPC   C4A72582   4.285  11.266   7.507
 5788POPC   C1B72583   4.574  11.806   6.244
 5788POPC   C2B72584   4.605  11.646   6.667
 5788POPC   C3B72585   4.464  11.564   7.107
 5788POPC   C4B72586   4.581  11.673   7.551
 5789POPC   NC372587  18.056  26.670   5.035
 5789POPC   PO472588  18.543  27.048   5.315
 5789POPC   GL172589  18.322  26.979   5.727
 5789POPC   GL272590  18.398  26.668   5.815
 5789POPC   C1A72591  18.371  27.117   6.168
 5789POPC   D2A72592  18.218  27.208   6.573
 5789POPC   C3A72593  18.446  27.133   6.945
 5789POPC   C4A72594  18.265  27.089   7.348
 5789POPC   C1B72595  18.182  26.623   6.207
 5789POPC   C2B72596  18.029  26.716   6.616
 5789POPC   C3B72597  18.191  26.665   7.038
 5789POPC   C4B72598  18.438  26.338   7.271
 5790POPC   NC372599  27.760  24.925   5.346
 5790POPC   PO472600  27.670  25.545   5.212
 5790POPC   GL172601  27.715  25.524   5.667
 5790POPC   GL272602  27.845  25.202   5.759
 5790POPC   C1A72603  27.606  25.491   6.123
 5790POPC   D2A72604  27.488  25.265   6.491
 5790POPC   C3A72605  27.652  25.384   6.904
 5790POPC   C4A72606  27.535  25.131   7.253
 5790POPC   C1B72607  27.926  25.082   6.203
 5790POPC   C2B72608  27.866  24.957   6.679
 5790POPC   C3B72609  28.017  25.015   7.136
 5790POPC   C4B72610  27.874  24.900   7.573
 5791POPC   NC372611  13.262   2.266   5.250
 5791POPC   PO472612  13.797   1.917   5.329
 5791POPC   GL172613  13.657   2.075   5.702
 5791POPC   GL272614  13.549   1.772   5.836
 5791POPC   C1A72615  13.527   2.183   6.135
 5791POPC   D2A72616  13.555   1.897   6.485
 5791POPC   C3A72617  13.609   2.056   6.872
 5791POPC   C4A72618  13.497   2.183   7.286
 5791POPC   C1B72619  13.883   1.729   6.137
 5791POPC   C2B72620  13.986   1.642   6.549
 5791POPC   C3B72621  14.072   1.761   6.931
 5791POPC   C4B72622  13.814   1.785   7.253
 5792POPC   NC372623  31.545  16.793   5.409
 5792POPC   PO472624  30.912  16.630   5.469
 5792POPC   GL172625  31.246  16.602   5.782
 5792POPC   GL272626  31.525  16.397   5.774
 5792POPC   C1A72627  31.370  16.818   6.153
 5792POPC   D2A72628  31.121  16.875   6.535
 5792POPC   C3A72629  31.327  16.691   6.909
 5792POPC   C4A72630  31.746  16.777   7.136
 5792POPC   C1B72631  31.731  16.461   6.170
 5792POPC   C2B72632  31.734  16.563   6.611
 5792POPC   C3B72633  31.704  16.303   7.007
 5792POPC   C4B72634  31.373  16.383   7.320
 5793POPC   NC372635   3.284   2.414   5.628
 5793POPC   PO472636   3.393   1.792   5.470
 5793POPC   GL172637   3.619   1.836   5.841
 5793POPC   GL272638   3.813   2.148   5.908
 5793POPC   C1A72639   3.401   1.992   6.206
 5793POPC   D2A72640   3.180   1.962   6.590
 5793POPC   C3A72641   3.440   1.917   6.953
 5793POPC   C4A72642   3.526   2.182   7.280
 5793POPC   C1B72643   3.907   1.852   6.268
 5793POPC   C2B72644   3.889   1.833   6.723
 5793POPC   C3B72645   3.918   1.833   7.179
 5793POPC   C4B72646   3.855   2.012   7.627
 5794POPC   NC372647  19.366  28.272   5.372
 5794POPC   PO472648  18.686  28.477   5.375
 5794POPC   GL172649  18.870  28.335   5.721
 5794POPC   GL272650  19.114  28.591   5.729
 5794POPC   C1A72651  18.779  28.387   6.159
 5794POPC   D2A72652  18.995  28.259   6.560
 5794POPC   C3A72653  18.813  28.342   6.977
 5794POPC   C4A72654  18.780  28.039   7.343
 5794POPC   C1B72655  19.288  28.405   6.117
 5794POPC   C2B72656  19.483  28.425   6.535
 5794POPC   C3B72657  19.373  28.340   6.980
 5794POPC   C4B72658  19.134  28.432   7.371
 5795POPC   NC372659  15.778  23.317   5.058
 5795POPC   PO472660  15.898  23.810   5.495
 5795POPC   GL172661  15.823  23.734   5.864
 5795POPC   GL272662  15.467  23.848   5.779
 5795POPC   C1A72663  15.955  23.696   6.301
 5795POPC   D2A72664  15.907  23.681   6.708
 5795POPC   C3A72665  16.262  23.608   7.004
 5795POPC   C4A72666  16.225  23.606   7.456
 5795POPC   C1B72667  15.455  23.622   6.185
 5795POPC   C2B72668  15.423  23.849   6.546
 5795POPC   C3B72669  15.504  23.955   6.954
 5795POPC   C4B72670  15.794  23.715   7.191
 5796POPC   NC372671  43.350  31.765   5.537
 5796POPC   PO472672  42.928  31.338   5.276
 5796POPC   GL172673  43.030  31.414   5.749
 5796POPC   GL272674  43.354  31.347   5.821
 5796POPC   C1A72675  43.164  31.656   6.183
 5796POPC   D2A72676  43.492  31.679   6.539
 5796POPC   C3A72677  43.310  31.518   6.914
 5796POPC   C4A72678  43.164  31.600   7.308
 5796POPC   C1B72679  43.525  31.291   6.196
 5796POPC   C2B72680  43.381  31.154   6.566
 5796POPC   C3B72681  43.534  31.065   6.972
 5796POPC   C4B72682  43.462  31.187   7.372
 5797POPC   NC372683   6.016  10.346   5.531
 5797POPC   PO472684   5.527  10.828   5.407
 5797POPC   GL172685   5.792  10.732   5.775
 5797POPC   GL272686   6.086  10.961   5.779
 5797POPC   C1A72687   5.810  10.451   6.158
 5797POPC   D2A72688   5.874  10.524   6.612
 5797POPC   C3A72689   5.559  10.385   6.891
 5797POPC   C4A72690   5.597  10.065   7.200
 5797POPC   C1B72691   5.981  10.939   6.229
 5797POPC   C2B72692   5.794  11.029   6.644
 5797POPC   C3B72693   5.930  10.858   7.056
 5797POPC   C4B72694   6.071  10.434   7.147
 5798POPC   NC372695  37.592  13.788   5.241
 5798POPC   PO472696  37.813  13.212   5.478
 5798POPC   GL172697  37.538  13.481   5.663
 5798POPC   GL272698  37.788  13.757   5.718
 5798POPC   C1A72699  37.494  13.542   6.107
 5798POPC   D2A72700  37.662  13.392   6.489
 5798POPC   C3A72701  37.596  13.549   6.872
 5798POPC   C4A72702  37.518  13.424   7.263
 5798POPC   C1B72703  37.669  14.014   6.101
 5798POPC   C2B72704  37.469  13.911   6.512
 5798POPC   C3B72705  37.636  14.045   6.947
 5798POPC   C4B72706  37.546  13.978   7.378
 5799POPC   NC372707  40.914  42.123   5.687
 5799POPC   PO472708  40.481  41.860   5.222
 5799POPC   GL172709  40.700  41.592   5.629
 5799POPC   GL272710  41.078  41.629   5.727
 5799POPC   C1A72711  40.752  41.533   6.141
 5799POPC   D2A72712  40.861  41.650   6.608
 5799POPC   C3A72713  40.763  41.514   7.035
 5799POPC   C4A72714  40.877  41.336   7.432
 5799POPC   C1B72715  41.188  41.819   6.187
 5799POPC   C2B72716  41.347  41.819   6.627
 5799POPC   C3B72717  41.250  41.671   7.061
 5799POPC   C4B72718  41.196  41.762   7.527
 5800POPC   NC372719  34.757  30.358   5.390
 5800POPC   PO472720  34.254  30.791   5.282
 5800POPC   GL172721  34.516  30.786   5.660
 5800POPC   GL272722  34.542  30.483   5.848
 5800POPC   C1A72723  34.785  30.873   6.040
 5800POPC   D2A72724  34.603  31.024   6.436
 5800POPC   C3A72725  34.625  30.814   6.853
 5800POPC   C4A72726  34.779  30.441   7.094
 5800POPC   C1B72727  34.271  30.778   6.105
 5800POPC   C2B72728  34.183  30.743   6.517
 5800POPC   C3B72729  34.263  30.418   6.813
 5800POPC   C4B72730  34.298  30.579   7.208
 5801POPC   NC372731   9.282  15.690   5.505
 5801POPC   PO472732   8.690  16.039   5.506
 5801POPC   GL172733   8.913  16.139   5.837
 5801POPC   GL272734   9.285  16.143   5.759
 5801POPC   C1A72735   8.715  16.001   6.230
 5801POPC   D2A72736   8.494  15.843   6.578
 5801POPC   C3A72737   8.702  15.886   6.984
 5801POPC   C4A72738   9.125  15.731   7.098
 5801POPC   C1B72739   9.235  15.990   6.198
 5801POPC   C2B72740   9.083  15.985   6.627
 5801POPC   C3B72741   9.404  16.115   6.930
 5801POPC   C4B72742   9.550  15.982   7.361
 5802POPC   NC372743  27.290  31.022   5.371
 5802POPC   PO472744  27.678  30.579   5.114
 5802POPC   GL172745  27.454  30.582   5.555
 5802POPC   GL272746  27.138  30.403   5.650
 5802POPC   C1A72747  27.512  30.625   6.034
 5802POPC   D2A72748  27.640  30.848   6.436
 5802POPC   C3A72749  27.629  30.649   6.853
 5802POPC   C4A72750  27.779  30.787   7.244
 5802POPC   C1B72751  27.162  30.251   6.097
 5802POPC   C2B72752  27.345  30.389   6.507
 5802POPC   C3B72753  27.249  30.297   6.948
 5802POPC   C4B72754  27.457  30.407   7.338
 5803POPC   NC372755  28.737  25.039   5.526
 5803POPC   PO472756  29.323  25.363   5.425
 5803POPC   GL172757  29.131  25.252   5.790
 5803POPC   GL272758  28.867  25.484   5.788
 5803POPC   C1A72759  29.024  25.165   6.210
 5803POPC   D2A72760  29.286  25.158   6.572
 5803POPC   C3A72761  29.219  25.441   6.892
 5803POPC   C4A72762  29.210  25.192   7.236
 5803POPC   C1B72763  28.806  25.654   6.192
 5803POPC   C2B72764  28.584  25.561   6.588
 5803POPC   C3B72765  28.704  25.380   6.981
 5803POPC   C4B72766  28.895  25.583   7.335
 5804POPC   NC372767   9.367  17.298   5.429
 5804POPC   PO472768   9.493  17.892   5.089
 5804POPC   GL172769   9.641  17.685   5.584
 5804POPC   GL272770   9.827  17.348   5.686
 5804POPC   C1A72771   9.514  17.575   6.046
 5804POPC   D2A72772   9.586  17.452   6.482
 5804POPC   C3A72773   9.775  17.718   6.795
 5804POPC   C4A72774   9.495  17.622   7.133
 5804POPC   C1B72775   9.927  17.264   6.130
 5804POPC   C2B72776  10.098  17.326   6.542
 5804POPC   C3B72777   9.879  17.217   6.894
 5804POPC   C4B72778   9.964  17.438   7.247
 5805POPC   NC372779  14.669  13.938   5.566
 5805POPC   PO472780  15.155  13.459   5.326
 5805POPC   GL172781  15.241  13.566   5.732
 5805POPC   GL272782  15.475  13.306   5.720
 5805POPC   C1A72783  15.400  13.813   6.080
 5805POPC   D2A72784  15.275  13.984   6.491
 5805POPC   C3A72785  15.353  13.817   6.923
 5805POPC   C4A72786  15.032  14.001   7.181
 5805POPC   C1B72787  15.330  13.254   6.146
 5805POPC   C2B72788  15.106  13.114   6.491
 5805POPC   C3B72789  15.143  13.324   6.845
 5805POPC   C4B72790  15.312  13.254   7.183
 5806POPC   NC372791   3.797  22.994   5.507
 5806POPC   PO472792   3.272  22.660   5.556
 5806POPC   GL172793   3.485  22.825   5.883
 5806POPC   GL272794   3.261  23.106   5.855
 5806POPC   C1A72795   3.538  22.681   6.295
 5806POPC   D2A72796   3.370  22.530   6.684
 5806POPC   C3A72797   3.606  22.728   6.957
 5806POPC   C4A72798   3.571  23.147   7.096
 5806POPC   C1B72799   3.109  22.946   6.261
 5806POPC   C2B72800   3.214  23.029   6.692
 5806POPC   C3B72801   3.139  22.879   7.115
 5806POPC   C4B72802   3.203  22.972   7.560
 5807POPC   NC372803   5.485  32.997   5.488
 5807POPC   PO472804   6.138  33.142   5.405
 5807POPC   GL172805   5.896  33.133   5.790
 5807POPC   GL272806   5.916  32.789   5.866
 5807POPC   C1A72807   5.765  33.089   6.243
 5807POPC   D2A72808   5.918  33.181   6.662
 5807POPC   C3A72809   5.822  32.878   6.997
 5807POPC   C4A72810   5.680  33.115   7.323
 5807POPC   C1B72811   6.269  32.966   6.170
 5807POPC   C2B72812   6.396  33.002   6.630
 5807POPC   C3B72813   6.263  33.132   7.052
 5807POPC   C4B72814   6.159  32.975   7.467
 5808POPC   NC372815  12.491  11.843   5.476
 5808POPC   PO472816  12.977  12.200   5.276
 5808POPC   GL172817  12.837  12.046   5.768
 5808POPC   GL272818  12.807  11.675   5.831
 5808POPC   C1A72819  12.958  12.014   6.230
 5808POPC   D2A72820  12.877  12.269   6.581
 5808POPC   C3A72821  12.980  12.211   6.991
 5808POPC   C4A72822  13.120  11.790   7.113
 5808POPC   C1B72823  12.492  11.791   6.156
 5808POPC   C2B72824  12.620  11.788   6.588
 5808POPC   C3B72825  12.614  11.836   7.011
 5808POPC   C4B72826  12.607  12.133   7.327
 5809POPC   NC372827  31.157  43.025   5.596
 5809POPC   PO472828  30.508  42.792   5.517
 5809POPC   GL172829  30.700  42.925   5.896
 5809POPC   GL272830  30.601  43.283   5.948
 5809POPC   C1A72831  30.567  42.996   6.350
 5809POPC   D2A72832  30.666  43.306   6.684
 5809POPC   C3A72833  30.693  43.078   7.073
 5809POPC   C4A72834  30.692  42.652   7.237
 5809POPC   C1B72835  31.007  43.219   6.199
 5809POPC   C2B72836  31.169  43.428   6.547
 5809POPC   C3B72837  31.076  43.455   6.957
 5809POPC   C4B72838  30.703  43.570   7.208
 5810POPC   NC372839  13.823  26.036   5.461
 5810POPC   PO472840  13.467  26.507   5.345
 5810POPC   GL172841  13.444  26.220   5.740
 5810POPC   GL272842  13.441  25.830   5.748
 5810POPC   C1A72843  13.569  26.106   6.181
 5810POPC   D2A72844  13.395  26.124   6.617
 5810POPC   C3A72845  13.570  26.181   7.037
 5810POPC   C4A72846  13.909  26.113   7.342
 5810POPC   C1B72847  13.669  25.604   6.104
 5810POPC   C2B72848  13.654  25.708   6.535
 5810POPC   C3B72849  13.547  25.639   6.949
 5810POPC   C4B72850  13.805  25.610   7.282
 5811POPC   NC372851  13.005   4.644   5.377
 5811POPC   PO472852  12.672   5.198   5.501
 5811POPC   GL172853  12.742   5.055   5.906
 5811POPC   GL272854  12.687   4.737   5.774
 5811POPC   C1A72855  12.827   5.125   6.372
 5811POPC   D2A72856  12.732   5.399   6.748
 5811POPC   C3A72857  12.754   5.187   7.107
 5811POPC   C4A72858  13.022   5.292   7.445
 5811POPC   C1B72859  12.557   4.675   6.204
 5811POPC   C2B72860  12.755   4.469   6.552
 5811POPC   C3B72861  12.937   4.740   6.873
 5811POPC   C4B72862  12.982   4.805   7.323
 5812POPC   NC372863  38.695   3.885   5.498
 5812POPC   PO472864  38.436   3.276   5.680
 5812POPC   GL172865  38.649   3.536   5.892
 5812POPC   GL272866  38.950   3.332   5.722
 5812POPC   C1A72867  38.422   3.662   6.294
 5812POPC   D2A72868  38.600   3.902   6.634
 5812POPC   C3A72869  38.572   3.790   7.064
 5812POPC   C4A72870  38.258   3.492   7.221
 5812POPC   C1B72871  38.896   3.209   6.171
 5812POPC   C2B72872  38.822   3.440   6.514
 5812POPC   C3B72873  38.640   3.334   6.880
 5812POPC   C4B72874  38.754   3.356   7.291
 5813POPC   NC372875  12.392  28.453   5.497
 5813POPC   PO472876  11.763  28.213   5.460
 5813POPC   GL172877  11.974  28.395   5.782
 5813POPC   GL272878  12.031  28.740   5.811
 5813POPC   C1A72879  12.104  28.209   6.148
 5813POPC   D2A72880  11.907  28.094   6.488
 5813POPC   C3A72881  12.097  28.017   6.859
 5813POPC   C4A72882  12.089  28.222   7.228
 5813POPC   C1B72883  12.295  28.668   6.198
 5813POPC   C2B72884  12.293  28.472   6.636
 5813POPC   C3B72885  12.274  28.689   7.056
 5813POPC   C4B72886  12.018  28.687   7.415
 5814POPC   NC372887  34.138  23.763   5.419
 5814POPC   PO472888  33.447  23.869   5.508
 5814POPC   GL172889  33.724  23.671   5.781
 5814POPC   GL272890  33.881  23.966   5.879
 5814POPC   C1A72891  33.868  23.509   6.189
 5814POPC   D2A72892  34.010  23.583   6.627
 5814POPC   C3A72893  33.777  23.348   6.899
 5814POPC   C4A72894  33.652  23.338   7.285
 5814POPC   C1B72895  33.557  23.959   6.202
 5814POPC   C2B72896  33.489  23.732   6.589
 5814POPC   C3B72897  33.584  23.827   7.026
 5814POPC   C4B72898  33.341  24.037   7.318
 5815POPC   NC372899  39.432  27.321   5.330
 5815POPC   PO472900  39.009  27.793   5.327
 5815POPC   GL172901  39.149  27.765   5.738
 5815POPC   GL272902  39.462  27.567   5.772
 5815POPC   C1A72903  38.948  27.843   6.136
 5815POPC   D2A72904  38.789  27.529   6.406
 5815POPC   C3A72905  38.916  27.568   6.823
 5815POPC   C4A72906  38.850  27.509   7.242
 5815POPC   C1B72907  39.227  27.391   6.121
 5815POPC   C2B72908  39.201  27.226   6.542
 5815POPC   C3B72909  39.338  27.290   6.975
 5815POPC   C4B72910  39.339  27.510   7.353
 5816POPC   NC372911   1.717  14.140   5.252
 5816POPC   PO472912   2.131  13.631   5.424
 5816POPC   GL172913   2.082  13.581   5.836
 5816POPC   GL272914   2.284  13.819   5.878
 5816POPC   C1A72915   2.178  13.560   6.287
 5816POPC   D2A72916   1.850  13.559   6.528
 5816POPC   C3A72917   2.049  13.644   6.908
 5816POPC   C4A72918   1.799  13.612   7.227
 5816POPC   C1B72919   2.393  14.080   6.157
 5816POPC   C2B72920   2.451  13.922   6.550
 5816POPC   C3B72921   2.394  14.106   6.931
 5816POPC   C4B72922   2.249  13.906   7.299
 5817POPC   NC372923  18.656   9.233   5.424
 5817POPC   PO472924  19.256   8.875   5.285
 5817POPC   GL172925  19.119   9.024   5.671
 5817POPC   GL272926  18.984   8.709   5.764
 5817POPC   C1A72927  19.291   8.963   6.097
 5817POPC   D2A72928  19.214   8.719   6.488
 5817POPC   C3A72929  19.225   9.007   6.849
 5817POPC   C4A72930  19.317   8.960   7.279
 5817POPC   C1B72931  18.775   8.971   6.075
 5817POPC   C2B72932  18.690   8.869   6.492
 5817POPC   C3B72933  18.711   8.846   6.925
 5817POPC   C4B72934  18.848   9.191   7.187
 5818POPC   NC372935  37.413   0.308   5.317
 5818POPC   PO472936  37.965   0.602   5.487
 5818POPC   GL172937  37.653   0.574   5.788
 5818POPC   GL272938  37.310   0.716   5.684
 5818POPC   C1A72939  37.712   0.279   6.155
 5818POPC   D2A72940  38.009   0.235   6.500
 5818POPC   C3A72941  37.790   0.236   6.878
 5818POPC   C4A72942  37.851   0.538   7.208
 5818POPC   C1B72943  37.304   0.616   6.156
 5818POPC   C2B72944  37.525   0.578   6.562
 5818POPC   C3B72945  37.381   0.577   7.018
 5818POPC   C4B72946  37.424   0.597   7.502
 5819POPC   NC372947  21.265  37.309   5.445
 5819POPC   PO472948  21.630  36.790   5.464
 5819POPC   GL172949  21.347  36.811   5.839
 5819POPC   GL272950  21.110  37.058   5.871
 5819POPC   C1A72951  21.163  36.738   6.249
 5819POPC   D2A72952  21.315  36.914   6.602
 5819POPC   C3A72953  21.273  36.825   6.991
 5819POPC   C4A72954  21.044  36.869   7.370
 5819POPC   C1B72955  21.444  37.192   6.201
 5819POPC   C2B72956  21.624  37.316   6.639
 5819POPC   C3B72957  21.495  37.329   7.102
 5819POPC   C4B72958  21.667  37.374   7.545
 5820POPC   NC372959  23.731   8.368   5.199
 5820POPC   PO472960  24.156   8.187   5.723
 5820POPC   GL172961  23.706   8.203   5.897
 5820POPC   GL272962  23.437   8.354   5.687
 5820POPC   C1A72963  23.510   7.969   6.261
 5820POPC   D2A72964  23.374   7.986   6.696
 5820POPC   C3A72965  23.724   8.115   6.944
 5820POPC   C4A72966  24.004   7.855   7.157
 5820POPC   C1B72967  23.296   8.454   6.135
 5820POPC   C2B72968  23.466   8.462   6.576
 5820POPC   C3B72969  23.324   8.414   7.029
 5820POPC   C4B72970  23.465   8.652   7.381
 5821POPC   NC372971  32.632   0.634   5.632
 5821POPC   PO472972  32.305   0.140   5.345
 5821POPC   GL172973  32.206   0.306   5.784
 5821POPC   GL272974  32.006   0.599   5.868
 5821POPC   C1A72975  32.327   0.407   6.239
 5821POPC   D2A72976  32.139   0.305   6.658
 5821POPC   C3A72977  32.334   0.276   7.012
 5821POPC   C4A72978  32.470   0.618   7.276
 5821POPC   C1B72979  31.813   0.904   6.107
 5821POPC   C2B72980  31.904   0.746   6.497
 5821POPC   C3B72981  31.745   0.715   6.892
 5821POPC   C4B72982  31.998   0.761   7.221
 5822POPC   NC372983  37.854  16.184   5.061
 5822POPC   PO472984  37.950  16.838   5.268
 5822POPC   GL172985  37.774  16.883   5.708
 5822POPC   GL272986  37.872  16.593   5.878
 5822POPC   C1A72987  37.591  16.914   6.128
 5822POPC   D2A72988  37.700  16.641   6.472
 5822POPC   C3A72989  37.444  16.739   6.843
 5822POPC   C4A72990  37.530  16.836   7.277
 5822POPC   C1B72991  38.168  16.545   6.196
 5822POPC   C2B72992  38.260  16.619   6.610
 5822POPC   C3B72993  37.949  16.601   6.943
 5822POPC   C4B72994  37.964  16.570   7.371
 5823POPC   NC372995  44.784  40.868   5.473
 5823POPC   PO472996   0.495  40.830   5.432
 5823POPC   GL172997   0.370  40.812   5.859
 5823POPC   GL272998   0.693  40.806   5.968
 5823POPC   C1A72999   0.353  40.563   6.285
 5823POPC   D2A73000   0.195  40.423   6.737
 5823POPC   C3A73001   0.194  40.719   7.118
 5823POPC   C4A73002   0.176  40.704   7.600
 5823POPC   C1B73003   0.527  41.045   6.317
 5823POPC   C2B73004   0.486  40.867   6.706
 5823POPC   C3B73005   0.669  40.927   7.067
 5823POPC   C4B73006   0.843  40.993   7.464
 5824POPC   NC373007  41.990  30.443   5.494
 5824POPC   PO473008  41.432  30.846   5.425
 5824POPC   GL173009  41.609  30.609   5.773
 5824POPC   GL273010  41.907  30.852   5.830
 5824POPC   C1A73011  41.786  30.530   6.198
 5824POPC   D2A73012  41.709  30.767   6.573
 5824POPC   C3A73013  41.800  30.612   6.981
 5824POPC   C4A73014  41.572  30.779   7.319
 5824POPC   C1B73015  41.543  31.000   6.102
 5824POPC   C2B73016  41.387  31.163   6.492
 5824POPC   C3B73017  41.521  31.136   6.914
 5824POPC   C4B73018  41.295  31.341   7.252
 5825POPC   NC373019  13.079  31.728   5.432
 5825POPC   PO473020  12.500  32.059   5.519
 5825POPC   GL173021  12.745  31.785   5.831
 5825POPC   GL273022  12.713  31.431   5.848
 5825POPC   C1A73023  12.975  31.640   6.231
 5825POPC   D2A73024  12.948  31.272   6.546
 5825POPC   C3A73025  12.879  31.381   6.984
 5825POPC   C4A73026  12.967  31.317   7.440
 5825POPC   C1B73027  12.448  31.595   6.199
 5825POPC   C2B73028  12.600  31.680   6.606
 5825POPC   C3B73029  12.464  31.669   6.992
 5825POPC   C4B73030  12.617  31.662   7.387
 5826POPC   NC373031   9.821  26.482   5.375
 5826POPC   PO473032   9.596  25.901   5.359
 5826POPC   GL173033   9.736  26.114   5.760
 5826POPC   GL273034   9.931  26.422   5.860
 5826POPC   C1A73035   9.780  25.908   6.183
 5826POPC   D2A73036   9.648  25.696   6.571
 5826POPC   C3A73037   9.759  25.940   6.966
 5826POPC   C4A73038   9.858  25.859   7.389
 5826POPC   C1B73039   9.599  26.408   6.198
 5826POPC   C2B73040   9.571  26.265   6.605
 5826POPC   C3B73041   9.394  26.414   6.967
 5826POPC   C4B73042   9.554  26.309   7.383
 5827POPC   NC373043  39.729   9.482   5.521
 5827POPC   PO473044  39.920  10.098   5.523
 5827POPC   GL173045  40.162   9.853   5.839
 5827POPC   GL273046  40.126   9.457   5.903
 5827POPC   C1A73047  40.050   9.825   6.262
 5827POPC   D2A73048  40.041   9.583   6.617
 5827POPC   C3A73049  40.007   9.886   6.941
 5827POPC   C4A73050  40.149  10.000   7.297
 5827POPC   C1B73051  39.712   9.430   6.160
 5827POPC   C2B73052  39.505   9.645   6.501
 5827POPC   C3B73053  39.617   9.574   6.911
 5827POPC   C4B73054  39.874   9.514   7.308
 5828POPC   NC373055  29.209  40.370   5.145
 5828POPC   PO473056  28.979  39.826   5.486
 5828POPC   GL173057  29.104  39.793   5.899
 5828POPC   GL273058  28.906  40.064   5.997
 5828POPC   C1A73059  29.191  39.821   6.330
 5828POPC   D2A73060  28.984  40.095   6.604
 5828POPC   C3A73061  29.161  39.930   6.965
 5828POPC   C4A73062  29.387  39.896   7.340
 5828POPC   C1B73063  28.615  40.292   6.209
 5828POPC   C2B73064  28.649  40.509   6.584
 5828POPC   C3B73065  28.724  40.356   7.008
 5828POPC   C4B73066  28.992  40.217   7.347
 5829POPC   NC373067  32.502   9.449   5.049
 5829POPC   PO473068  32.336  10.000   5.428
 5829POPC   GL173069  32.178   9.869   5.829
 5829POPC   GL273070  32.459   9.919   6.034
 5829POPC   C1A73071  32.104   9.577   6.177
 5829POPC   D2A73072  32.042   9.408   6.595
 5829POPC   C3A73073  32.240   9.701   6.864
 5829POPC   C4A73074  32.465   9.710   7.228
 5829POPC   C1B73075  32.096  10.111   6.290
 5829POPC   C2B73076  31.975  10.315   6.701
 5829POPC   C3B73077  31.925  10.093   7.116
 5829POPC   C4B73078  32.176  10.061   7.472
 5830POPC   NC373079   6.367  11.265   5.350
 5830POPC   PO473080   7.013  11.348   5.172
 5830POPC   GL173081   6.882  11.403   5.637
 5830POPC   GL273082   6.607  11.181   5.791
 5830POPC   C1A73083   6.931  11.436   6.115
 5830POPC   D2A73084   6.791  11.129   6.458
 5830POPC   C3A73085   6.924  11.233   6.852
 5830POPC   C4A73086   6.792  11.338   7.274
 5830POPC   C1B73087   6.421  11.342   6.178
 5830POPC   C2B73088   6.264  11.233   6.551
 5830POPC   C3B73089   6.423  11.127   6.927
 5830POPC   C4B73090   6.534  10.908   7.273
 5831POPC   NC373091  44.480   4.216   5.464
 5831POPC   PO473092   0.073   3.937   5.506
 5831POPC   GL173093  44.729   4.092   5.883
 5831POPC   GL273094  44.621   4.429   5.916
 5831POPC   C1A73095  44.649   4.202   6.369
 5831POPC   D2A73096  44.363   4.371   6.694
 5831POPC   C3A73097  44.587   4.439   7.099
 5831POPC   C4A73098  44.594   4.200   7.504
 5831POPC   C1B73099  44.984   4.570   6.289
 5831POPC   C2B73100   0.135   4.640   6.715
 5831POPC   C3B73101  44.964   4.793   7.119
 5831POPC   C4B73102  44.822   4.647   7.577
 5832POPC   NC373103  27.138  35.021   5.338
 5832POPC   PO473104  26.777  34.445   5.405
 5832POPC   GL173105  26.691  34.480   5.840
 5832POPC   GL273106  27.046  34.546   5.877
 5832POPC   C1A73107  26.753  34.800   6.198
 5832POPC   D2A73108  26.590  34.660   6.577
 5832POPC   C3A73109  26.736  34.789   6.959
 5832POPC   C4A73110  26.559  34.521   7.258
 5832POPC   C1B73111  26.961  34.362   6.319
 5832POPC   C2B73112  27.132  34.591   6.675
 5832POPC   C3B73113  27.157  34.563   7.117
 5832POPC   C4B73114  27.041  34.258   7.395
 5833POPC   NC373115  34.687  26.357   5.388
 5833POPC   PO473116  34.300  25.738   5.403
 5833POPC   GL173117  34.578  25.948   5.727
 5833POPC   GL273118  34.300  26.147   5.910
 5833POPC   C1A73119  34.789  25.961   6.163
 5833POPC   D2A73120  34.607  26.077   6.592
 5833POPC   C3A73121  34.843  26.198   6.980
 5833POPC   C4A73122  34.826  25.997   7.397
 5833POPC   C1B73123  34.320  26.441   6.286
 5833POPC   C2B73124  34.139  26.416   6.730
 5833POPC   C3B73125  34.316  26.123   7.035
 5833POPC   C4B73126  34.371  26.203   7.456
 5834POPC   NC373127  37.862  10.853   5.644
 5834POPC   PO473128  37.845  11.526   5.384
 5834POPC   GL173129  37.725  11.344   5.833
 5834POPC   GL273130  37.363  11.261   5.924
 5834POPC   C1A73131  37.734  11.101   6.262
 5834POPC   D2A73132  37.986  10.923   6.636
 5834POPC   C3A73133  37.825  11.123   7.017
 5834POPC   C4A73134  37.338  11.119   7.109
 5834POPC   C1B73135  37.457  11.543   6.276
 5834POPC   C2B73136  37.568  11.420   6.696
 5834POPC   C3B73137  37.490  11.634   7.099
 5834POPC   C4B73138  37.247  11.895   7.424
 5835POPC   NC373139   9.870  35.598   5.274
 5835POPC   PO473140   9.779  34.920   5.145
 5835POPC   GL173141   9.766  35.200   5.613
 5835POPC   GL273142   9.948  35.521   5.798
 5835POPC   C1A73143   9.661  35.266   6.114
 5835POPC   D2A73144   9.643  35.564   6.501
 5835POPC   C3A73145   9.632  35.388   6.918
 5835POPC   C4A73146   9.932  35.317   7.233
 5835POPC   C1B73147  10.126  35.473   6.265
 5835POPC   C2B73148  10.167  35.489   6.747
 5835POPC   C3B73149   9.974  35.784   7.051
 5835POPC   C4B73150   9.946  35.769   7.519
 5836POPC   NC373151  17.171  27.881   5.184
 5836POPC   PO473152  17.672  27.435   5.310
 5836POPC   GL173153  17.675  27.423   5.751
 5836POPC   GL273154  17.844  27.165   5.805
 5836POPC   C1A73155  17.507  27.452   6.149
 5836POPC   D2A73156  17.387  27.685   6.495
 5836POPC   C3A73157  17.599  27.596   6.876
 5836POPC   C4A73158  17.483  27.753   7.269
 5836POPC   C1B73159  17.860  27.027   6.207
 5836POPC   C2B73160  17.707  27.195   6.565
 5836POPC   C3B73161  17.863  27.115   6.965
 5836POPC   C4B73162  17.838  27.378   7.307
 5837POPC   NC373163  42.922   5.554   5.364
 5837POPC   PO473164  43.443   5.977   5.268
 5837POPC   GL173165  43.187   5.910   5.623
 5837POPC   GL273166  43.278   5.556   5.726
 5837POPC   C1A73167  43.043   5.918   6.051
 5837POPC   D2A73168  42.867   5.801   6.445
 5837POPC   C3A73169  42.991   6.082   6.723
 5837POPC   C4A73170  43.028   6.046   7.139
 5837POPC   C1B73171  43.399   5.556   6.141
 5837POPC   C2B73172  43.372   5.784   6.509
 5837POPC   C3B73173  43.212   5.645   6.864
 5837POPC   C4B73174  43.440   5.374   7.087
 5838POPC   NC373175   7.843  28.211   5.280
 5838POPC   PO473176   8.272  28.730   5.321
 5838POPC   GL173177   8.104  28.524   5.698
 5838POPC   GL273178   7.747  28.607   5.682
 5838POPC   C1A73179   8.196  28.309   6.120
 5838POPC   D2A73180   8.413  28.297   6.536
 5838POPC   C3A73181   8.194  28.270   6.938
 5838POPC   C4A73182   8.389  28.189   7.350
 5838POPC   C1B73183   7.798  28.664   6.121
 5838POPC   C2B73184   7.944  28.547   6.531
 5838POPC   C3B73185   7.892  28.769   6.913
 5838POPC   C4B73186   7.818  28.621   7.312
 5839POPC   NC373187  31.098  30.890   5.443
 5839POPC   PO473188  31.478  30.372   5.225
 5839POPC   GL173189  31.539  30.621   5.613
 5839POPC   GL273190  31.244  30.632   5.847
 5839POPC   C1A73191  31.708  30.733   6.047
 5839POPC   D2A73192  31.558  30.694   6.483
 5839POPC   C3A73193  31.784  30.697   6.882
 5839POPC   C4A73194  31.731  30.763   7.372
 5839POPC   C1B73195  31.056  30.720   6.243
 5839POPC   C2B73196  31.036  30.798   6.704
 5839POPC   C3B73197  31.289  30.812   7.079
 5839POPC   C4B73198  31.166  30.884   7.538
 5840POPC   NC373199  34.012   3.568   5.449
 5840POPC   PO473200  33.449   3.935   5.351
 5840POPC   GL173201  33.600   3.731   5.740
 5840POPC   GL273202  33.927   3.875   5.860
 5840POPC   C1A73203  33.675   3.553   6.173
 5840POPC   D2A73204  33.433   3.575   6.573
 5840POPC   C3A73205  33.681   3.436   6.918
 5840POPC   C4A73206  33.804   3.604   7.314
 5840POPC   C1B73207  34.180   3.675   6.168
 5840POPC   C2B73208  34.081   3.514   6.549
 5840POPC   C3B73209  34.184   3.627   6.951
 5840POPC   C4B73210  34.120   3.244   7.163
 5841POPC   NC373211   4.333  42.116   5.332
 5841POPC   PO473212   4.534  42.654   5.683
 5841POPC   GL173213   4.341  42.421   5.970
 5841POPC   GL273214   4.278  42.106   5.834
 5841POPC   C1A73215   4.160  42.355   6.338
 5841POPC   D2A73216   3.942  42.582   6.612
 5841POPC   C3A73217   4.068  42.435   6.994
 5841POPC   C4A73218   4.440  42.563   7.205
 5841POPC   C1B73219   4.355  41.896   6.208
 5841POPC   C2B73220   4.146  41.847   6.600
 5841POPC   C3B73221   3.957  41.863   7.000
 5841POPC   C4B73222   4.092  42.101   7.383
 5842POPC   NC373223   6.579  21.971   5.296
 5842POPC   PO473224   6.407  22.513   5.639
 5842POPC   GL173225   6.605  22.159   5.787
 5842POPC   GL273226   6.897  22.196   5.934
 5842POPC   C1A73227   6.494  21.954   6.175
 5842POPC   D2A73228   6.378  22.069   6.577
 5842POPC   C3A73229   6.702  22.102   6.842
 5842POPC   C4A73230   6.702  21.930   7.267
 5842POPC   C1B73231   7.145  22.476   6.209
 5842POPC   C2B73232   7.074  22.517   6.645
 5842POPC   C3B73233   6.886  22.589   7.021
 5842POPC   C4B73234   6.976  22.416   7.386
 5843POPC   NC373235   0.229  15.043   5.417
 5843POPC   PO473236   0.677  15.583   5.470
 5843POPC   GL173237   0.523  15.277   5.775
 5843POPC   GL273238   0.780  15.067   5.874
 5843POPC   C1A73239   0.382  15.122   6.193
 5843POPC   D2A73240   0.587  15.037   6.588
 5843POPC   C3A73241   0.425  15.187   6.954
 5843POPC   C4A73242   0.152  15.090   7.209
 5843POPC   C1B73243   0.852  15.368   6.208
 5843POPC   C2B73244   0.951  15.412   6.633
 5843POPC   C3B73245   0.919  15.150   6.982
 5843POPC   C4B73246   0.755  15.406   7.318
 5844POPC   NC373247   2.301  33.435   5.657
 5844POPC   PO473248   2.027  32.831   5.547
 5844POPC   GL173249   2.025  32.958   5.964
 5844POPC   GL273250   1.708  32.864   6.107
 5844POPC   C1A73251   2.115  32.871   6.390
 5844POPC   D2A73252   1.948  32.856   6.796
 5844POPC   C3A73253   2.293  32.661   6.982
 5844POPC   C4A73254   2.512  32.673   7.379
 5844POPC   C1B73255   1.667  33.236   6.350
 5844POPC   C2B73256   1.769  33.467   6.729
 5844POPC   C3B73257   2.048  33.320   7.036
 5844POPC   C4B73258   2.114  32.997   7.302
 5845POPC   NC373259  35.348  17.273   5.330
 5845POPC   PO473260  35.201  17.896   5.480
 5845POPC   GL173261  35.357  17.548   5.769
 5845POPC   GL273262  35.696  17.406   5.687
 5845POPC   C1A73263  35.172  17.404   6.154
 5845POPC   D2A73264  34.965  17.576   6.501
 5845POPC   C3A73265  34.968  17.375   6.916
 5845POPC   C4A73266  35.267  17.293   7.262
 5845POPC   C1B73267  35.697  17.386   6.145
 5845POPC   C2B73268  35.482  17.526   6.546
 5845POPC   C3B73269  35.494  17.651   6.968
 5845POPC   C4B73270  35.828  17.572   7.242
 5846POPC   NC373271  35.335  21.277   5.304
 5846POPC   PO473272  34.919  21.762   5.653
 5846POPC   GL173273  35.115  21.317   5.784
 5846POPC   GL273274  35.464  21.219   5.785
 5846POPC   C1A73275  35.171  21.063   6.186
 5846POPC   D2A73276  35.321  21.310   6.573
 5846POPC   C3A73277  35.443  21.152   6.970
 5846POPC   C4A73278  35.324  21.377   7.344
 5846POPC   C1B73279  35.645  21.261   6.186
 5846POPC   C2B73280  35.787  21.031   6.555
 5846POPC   C3B73281  35.982  21.127   6.957
 5846POPC   C4B73282  35.793  21.215   7.337
 5847POPC   NC373283  17.989  24.233   5.523
 5847POPC   PO473284  17.380  24.396   5.454
 5847POPC   GL173285  17.218  24.280   5.864
 5847POPC   GL273286  17.495  24.053   5.855
 5847POPC   C1A73287  17.181  24.464   6.309
 5847POPC   D2A73288  17.505  24.590   6.611
 5847POPC   C3A73289  17.429  24.570   7.049
 5847POPC   C4A73290  17.274  24.557   7.449
 5847POPC   C1B73291  17.626  24.222   6.245
 5847POPC   C2B73292  17.831  24.142   6.644
 5847POPC   C3B73293  17.853  24.237   7.084
 5847POPC   C4B73294  17.737  24.302   7.497
 5848POPC   NC373295  33.480   5.013   5.453
 5848POPC   PO473296  32.827   5.023   5.323
 5848POPC   GL173297  32.931   5.019   5.792
 5848POPC   GL273298  32.805   5.322   5.996
 5848POPC   C1A73299  32.906   4.848   6.253
 5848POPC   D2A73300  33.035   4.686   6.681
 5848POPC   C3A73301  33.252   5.031   6.931
 5848POPC   C4A73302  33.047   5.209   7.326
 5848POPC   C1B73303  32.787   5.350   6.438
 5848POPC   C2B73304  32.738   5.106   6.825
 5848POPC   C3B73305  32.588   5.345   7.162
 5848POPC   C4B73306  32.593   5.589   7.553
 5849POPC   NC373307  31.762  34.279   5.417
 5849POPC   PO473308  31.319  33.790   5.568
 5849POPC   GL173309  31.175  33.927   5.906
 5849POPC   GL273310  31.004  33.719   6.111
 5849POPC   C1A73311  31.395  34.074   6.231
 5849POPC   D2A73312  31.593  33.871   6.531
 5849POPC   C3A73313  31.521  34.069   6.889
 5849POPC   C4A73314  31.481  33.928   7.282
 5849POPC   C1B73315  31.378  33.517   6.170
 5849POPC   C2B73316  31.486  33.362   6.538
 5849POPC   C3B73317  31.402  33.559   6.916
 5849POPC   C4B73318  31.350  33.355   7.290
 5850POPC   NC373319  12.980   1.466   5.527
 5850POPC   PO473320  12.821   2.077   5.179
 5850POPC   GL173321  12.824   2.073   5.635
 5850POPC   GL273322  13.142   2.084   5.757
 5850POPC   C1A73323  12.665   1.899   6.046
 5850POPC   D2A73324  12.661   1.785   6.460
 5850POPC   C3A73325  12.729   2.106   6.777
 5850POPC   C4A73326  12.771   2.183   7.201
 5850POPC   C1B73327  13.140   1.832   6.175
 5850POPC   C2B73328  13.122   1.702   6.645
 5850POPC   C3B73329  13.153   1.864   7.054
 5850POPC   C4B73330  13.343   1.692   7.417
 5851POPC   NC373331  40.050   6.974   5.350
 5851POPC   PO473332  40.374   6.394   5.516
 5851POPC   GL173333  40.053   6.632   5.755
 5851POPC   GL273334  40.207   6.954   5.843
 5851POPC   C1A73335  39.743   6.617   6.073
 5851POPC   D2A73336  39.766   6.571   6.492
 5851POPC   C3A73337  39.837   6.625   6.902
 5851POPC   C4A73338  39.728   6.589   7.313
 5851POPC   C1B73339  40.288   6.710   6.220
 5851POPC   C2B73340  40.290   6.526   6.632
 5851POPC   C3B73341  40.317   6.709   7.039
 5851POPC   C4B73342  40.234   6.568   7.460
 5852POPC   NC373343   9.813   8.298   5.345
 5852POPC   PO473344  10.183   8.794   5.613
 5852POPC   GL173345  10.053   8.351   5.788
 5852POPC   GL273346   9.670   8.260   5.823
 5852POPC   C1A73347   9.995   8.052   6.136
 5852POPC   D2A73348  10.012   8.270   6.498
 5852POPC   C3A73349   9.789   8.267   6.864
 5852POPC   C4A73350   9.862   7.906   7.117
 5852POPC   C1B73351   9.505   8.167   6.212
 5852POPC   C2B73352   9.375   8.421   6.542
 5852POPC   C3B73353   9.295   8.163   6.890
 5852POPC   C4B73354   9.473   8.235   7.285
 5853POPC   NC373355  37.861  21.321   5.478
 5853POPC   PO473356  37.202  21.270   5.518
 5853POPC   GL173357  37.415  21.498   5.803
 5853POPC   GL273358  37.555  21.209   5.921
 5853POPC   C1A73359  37.551  21.628   6.206
 5853POPC   D2A73360  37.643  21.325   6.503
 5853POPC   C3A73361  37.621  21.385   6.928
 5853POPC   C4A73362  37.496  21.437   7.348
 5853POPC   C1B73363  37.923  21.101   6.146
 5853POPC   C2B73364  38.096  21.114   6.582
 5853POPC   C3B73365  37.967  21.019   7.032
 5853POPC   C4B73366  37.926  21.222   7.491
 5854POPC   NC373367  39.880  12.462   5.599
 5854POPC   PO473368  40.133  13.081   5.610
 5854POPC   GL173369  40.056  13.177   5.969
 5854POPC   GL273370  40.205  13.492   5.957
 5854POPC   C1A73371  39.852  12.982   6.332
 5854POPC   D2A73372  39.913  12.647   6.616
 5854POPC   C3A73373  39.857  12.852   6.997
 5854POPC   C4A73374  39.751  13.073   7.351
 5854POPC   C1B73375  40.369  13.323   6.338
 5854POPC   C2B73376  40.213  13.091   6.702
 5854POPC   C3B73377  40.218  13.225   7.130
 5854POPC   C4B73378  40.291  13.304   7.564
 5855POPC   NC373379  33.343  34.273   5.418
 5855POPC   PO473380  33.073  33.565   5.395
 5855POPC   GL173381  33.068  33.766   5.773
 5855POPC   GL273382  33.311  33.594   5.934
 5855POPC   C1A73383  32.853  33.918   6.145
 5855POPC   D2A73384  32.899  34.078   6.570
 5855POPC   C3A73385  32.865  33.816   6.963
 5855POPC   C4A73386  32.702  33.407   7.129
 5855POPC   C1B73387  33.327  33.660   6.368
 5855POPC   C2B73388  33.353  33.856   6.777
 5855POPC   C3B73389  33.323  33.700   7.209
 5855POPC   C4B73390  33.348  33.724   7.665
 5856POPC   NC373391  40.748   8.195   5.136
 5856POPC   PO473392  41.339   7.893   5.466
 5856POPC   GL173393  40.963   7.926   5.717
 5856POPC   GL273394  40.756   8.237   5.663
 5856POPC   C1A73395  40.970   8.019   6.159
 5856POPC   D2A73396  41.104   7.960   6.583
 5856POPC   C3A73397  40.757   8.019   6.887
 5856POPC   C4A73398  40.410   7.806   7.113
 5856POPC   C1B73399  40.590   8.359   6.062
 5856POPC   C2B73400  40.775   8.394   6.487
 5856POPC   C3B73401  40.523   8.484   6.829
 5856POPC   C4B73402  40.450   8.295   7.204
 5857POPC   NC373403  38.162   0.193   5.583
 5857POPC   PO473404  38.855   0.150   5.552
 5857POPC   GL173405  38.613   0.482   5.845
 5857POPC   GL273406  38.261   0.402   6.026
 5857POPC   C1A73407  38.522   0.776   6.212
 5857POPC   D2A73408  38.223   0.717   6.549
 5857POPC   C3A73409  38.423   0.538   6.915
 5857POPC   C4A73410  38.736   0.662   7.238
 5857POPC   C1B73411  38.574   0.214   6.320
 5857POPC   C2B73412  38.562   0.050   6.757
 5857POPC   C3B73413  38.646   0.164   7.215
 5857POPC   C4B73414  38.642   0.092   7.693
 5858POPC   NC373415  40.816   6.054   5.559
 5858POPC   PO473416  40.753   5.536   5.170
 5858POPC   GL173417  40.508   5.677   5.741
 5858POPC   GL273418  40.465   6.044   5.916
 5858POPC   C1A73419  40.682   5.661   6.234
 5858POPC   D2A73420  40.592   5.450   6.653
 5858POPC   C3A73421  40.743   5.678   7.018
 5858POPC   C4A73422  40.880   6.060   7.152
 5858POPC   C1B73423  40.574   6.167   6.343
 5858POPC   C2B73424  40.468   6.009   6.731
 5858POPC   C3B73425  40.374   6.183   7.123
 5858POPC   C4B73426  40.558   6.109   7.527
 5859POPC   NC373427  34.177  18.342   5.683
 5859POPC   PO473428  34.696  18.756   5.562
 5859POPC   GL173429  34.835  18.524   5.905
 5859POPC   GL273430  35.194  18.505   5.962
 5859POPC   C1A73431  34.716  18.149   6.133
 5859POPC   D2A73432  34.756  18.059   6.562
 5859POPC   C3A73433  34.498  18.140   6.925
 5859POPC   C4A73434  34.402  18.274   7.343
 5859POPC   C1B73435  35.033  18.485   6.391
 5859POPC   C2B73436  34.781  18.568   6.746
 5859POPC   C3B73437  34.839  18.472   7.158
 5859POPC   C4B73438  35.158  18.621   7.393
 5860POPC   NC373439  22.854  42.377   5.405
 5860POPC   PO473440  23.502  42.268   5.275
 5860POPC   GL173441  23.297  42.531   5.642
 5860POPC   GL273442  23.147  42.252   5.829
 5860POPC   C1A73443  23.060  42.666   6.066
 5860POPC   D2A73444  22.934  42.388   6.399
 5860POPC   C3A73445  22.993  42.433   6.854
 5860POPC   C4A73446  22.692  42.296   7.177
 5860POPC   C1B73447  23.340  42.042   6.213
 5860POPC   C2B73448  23.226  41.990   6.659
 5860POPC   C3B73449  23.138  41.988   7.102
 5860POPC   C4B73450  23.085  41.998   7.545
 5861POPC   NC373451  13.323  30.050   5.484
 5861POPC   PO473452  12.685  29.844   5.502
 5861POPC   GL173453  12.818  29.954   5.921
 5861POPC   GL273454  12.999  30.264   5.822
 5861POPC   C1A73455  13.035  29.719   6.267
 5861POPC   D2A73456  13.210  29.595   6.688
 5861POPC   C3A73457  13.016  29.777   7.055
 5861POPC   C4A73458  12.750  30.046   7.299
 5861POPC   C1B73459  13.190  30.222   6.201
 5861POPC   C2B73460  13.098  30.105   6.600
 5861POPC   C3B73461  13.390  30.109   6.885
 5861POPC   C4B73462  13.354  30.103   7.302
 5862POPC   NC373463   1.010  17.862   5.180
 5862POPC   PO473464   1.276  18.401   5.398
 5862POPC   GL173465   1.250  18.118   5.758
 5862POPC   GL273466   1.515  17.925   5.959
 5862POPC   C1A73467   1.279  18.298   6.184
 5862POPC   D2A73468   1.099  18.212   6.566
 5862POPC   C3A73469   1.306  18.316   6.935
 5862POPC   C4A73470   1.492  18.038   7.183
 5862POPC   C1B73471   1.082  17.826   6.148
 5862POPC   C2B73472   0.893  17.741   6.540
 5862POPC   C3B73473   0.977  17.893   6.952
 5862POPC   C4B73474   0.976  17.755   7.350
 5863POPC   NC373475  12.575  41.883   5.244
 5863POPC   PO473476  13.239  41.714   5.439
 5863POPC   GL173477  12.878  41.639   5.756
 5863POPC   GL273478  12.598  41.387   5.728
 5863POPC   C1A73479  12.901  41.502   6.196
 5863POPC   D2A73480  13.085  41.718   6.550
 5863POPC   C3A73481  12.984  41.602   6.986
 5863POPC   C4A73482  13.156  41.651   7.438
 5863POPC   C1B73483  12.504  41.168   6.108
 5863POPC   C2B73484  12.558  41.173   6.549
 5863POPC   C3B73485  12.453  41.291   6.976
 5863POPC   C4B73486  12.677  41.453   7.343
 5864POPC   NC373487  37.119  21.721   5.420
 5864POPC   PO473488  36.739  22.248   5.419
 5864POPC   GL173489  37.064  22.223   5.702
 5864POPC   GL273490  37.090  21.896   5.883
 5864POPC   C1A73491  36.993  22.314   6.116
 5864POPC   D2A73492  36.984  21.979   6.422
 5864POPC   C3A73493  37.080  22.157   6.830
 5864POPC   C4A73494  36.909  22.212   7.226
 5864POPC   C1B73495  36.662  21.802   6.023
 5864POPC   C2B73496  36.484  21.731   6.407
 5864POPC   C3B73497  36.587  21.965   6.785
 5864POPC   C4B73498  36.634  21.776   7.192
 5865POPC   NC373499  14.237   0.357   5.641
 5865POPC   PO473500  14.730   0.614   5.113
 5865POPC   GL173501  14.719   0.560   5.633
 5865POPC   GL273502  14.784   0.254   5.840
 5865POPC   C1A73503  14.637   0.657   6.116
 5865POPC   D2A73504  14.359   0.564   6.502
 5865POPC   C3A73505  14.599   0.531   6.891
 5865POPC   C4A73506  14.902   0.636   7.181
 5865POPC   C1B73507  14.571   0.146   6.230
 5865POPC   C2B73508  14.597   0.049   6.678
 5865POPC   C3B73509  14.386   0.036   7.074
 5865POPC   C4B73510  14.213   0.401   7.234
 5866POPC   NC373511  22.301  17.042   5.293
 5866POPC   PO473512  21.807  16.661   5.644
 5866POPC   GL173513  22.121  16.701   5.881
 5866POPC   GL273514  22.260  17.020   5.784
 5866POPC   C1A73515  22.170  16.555   6.301
 5866POPC   D2A73516  21.962  16.360   6.677
 5866POPC   C3A73517  22.151  16.390   7.084
 5866POPC   C4A73518  22.447  16.697   7.229
 5866POPC   C1B73519  22.043  17.116   6.155
 5866POPC   C2B73520  21.861  16.987   6.532
 5866POPC   C3B73521  22.019  16.868   6.917
 5866POPC   C4B73522  22.173  17.149   7.234
 5867POPC   NC373523  33.241  22.871   5.233
 5867POPC   PO473524  33.920  23.003   5.265
 5867POPC   GL173525  33.779  22.899   5.667
 5867POPC   GL273526  33.607  23.166   5.803
 5867POPC   C1A73527  33.952  22.888   6.091
 5867POPC   D2A73528  33.879  23.078   6.487
 5867POPC   C3A73529  33.944  22.825   6.875
 5867POPC   C4A73530  33.857  22.879   7.311
 5867POPC   C1B73531  33.462  22.928   6.170
 5867POPC   C2B73532  33.502  22.741   6.584
 5867POPC   C3B73533  33.448  22.928   7.013
 5867POPC   C4B73534  33.367  22.960   7.476
 5868POPC   NC373535  15.700  19.173   5.357
 5868POPC   PO473536  16.074  18.626   5.437
 5868POPC   GL173537  16.015  18.923   5.726
 5868POPC   GL273538  15.912  18.686   5.936
 5868POPC   C1A73539  16.036  19.179   6.114
 5868POPC   D2A73540  16.096  19.097   6.577
 5868POPC   C3A73541  15.972  19.337   6.901
 5868POPC   C4A73542  16.018  19.256   7.285
 5868POPC   C1B73543  15.809  18.754   6.330
 5868POPC   C2B73544  15.634  18.753   6.727
 5868POPC   C3B73545  15.904  18.835   7.036
 5868POPC   C4B73546  16.101  18.787   7.450
 5869POPC   NC373547  24.208  22.722   5.504
 5869POPC   PO473548  24.791  23.145   5.331
 5869POPC   GL173549  24.515  23.095   5.701
 5869POPC   GL273550  24.719  22.819   5.795
 5869POPC   C1A73551  24.362  22.884   6.125
 5869POPC   D2A73552  24.516  22.814   6.535
 5869POPC   C3A73553  24.213  22.923   6.818
 5869POPC   C4A73554  24.214  22.965   7.239
 5869POPC   C1B73555  24.804  23.187   6.114
 5869POPC   C2B73556  24.849  23.292   6.565
 5869POPC   C3B73557  24.727  23.063   6.933
 5869POPC   C4B73558  24.737  23.006   7.365
 5870POPC   NC373559  35.865  13.535   5.274
 5870POPC   PO473560  36.476  13.899   5.407
 5870POPC   GL173561  36.180  13.785   5.696
 5870POPC   GL273562  36.123  13.461   5.716
 5870POPC   C1A73563  36.284  13.776   6.116
 5870POPC   D2A73564  36.074  13.844   6.475
 5870POPC   C3A73565  36.223  13.622   6.769
 5870POPC   C4A73566  36.354  13.717   7.131
 5870POPC   C1B73567  36.084  13.308   6.127
 5870POPC   C2B73568  35.896  13.293   6.493
 5870POPC   C3B73569  35.995  13.170   6.882
 5870POPC   C4B73570  35.860  13.313   7.255
 5871POPC   NC373571   4.757  13.006   5.420
 5871POPC   PO473572   4.063  12.921   5.322
 5871POPC   GL173573   4.220  12.739   5.736
 5871POPC   GL273574   4.507  12.539   5.637
 5871POPC   C1A73575   4.133  12.757   6.190
 5871POPC   D2A73576   4.224  13.020   6.533
 5871POPC   C3A73577   4.149  12.791   6.862
 5871POPC   C4A73578   3.928  12.811   7.226
 5871POPC   C1B73579   4.653  12.716   6.034
 5871POPC   C2B73580   4.620  12.665   6.476
 5871POPC   C3B73581   4.655  12.745   6.908
 5871POPC   C4B73582   4.402  12.548   7.208
 5872POPC   NC373583  36.366  14.400   5.297
 5872POPC   PO473584  35.733  14.464   5.370
 5872POPC   GL173585  36.018  14.267   5.678
 5872POPC   GL273586  35.782  14.155   5.873
 5872POPC   C1A73587  36.169  14.289   6.159
 5872POPC   D2A73588  35.976  14.328   6.601
 5872POPC   C3A73589  36.272  14.190   6.933
 5872POPC   C4A73590  36.417  14.508   7.259
 5872POPC   C1B73591  35.676  14.478   6.171
 5872POPC   C2B73592  35.492  14.541   6.576
 5872POPC   C3B73593  35.621  14.588   6.974
 5872POPC   C4B73594  35.891  14.370   7.227
 5873POPC   NC373595  41.571  13.918   5.381
 5873POPC   PO473596  41.707  14.634   5.305
 5873POPC   GL173597  41.436  14.447   5.642
 5873POPC   GL273598  41.647  14.274   5.881
 5873POPC   C1A73599  41.268  14.554   6.069
 5873POPC   D2A73600  41.433  14.607   6.490
 5873POPC   C3A73601  41.321  14.347   6.828
 5873POPC   C4A73602  41.642  14.320   7.120
 5873POPC   C1B73603  41.851  14.335   6.317
 5873POPC   C2B73604  41.998  14.228   6.760
 5873POPC   C3B73605  42.130  14.328   7.216
 5873POPC   C4B73606  42.090  14.596   7.595
 5874POPC   NC373607  22.680  14.914   5.477
 5874POPC   PO473608  23.195  15.343   5.417
 5874POPC   GL173609  22.957  15.236   5.801
 5874POPC   GL273610  23.036  14.882   5.832
 5874POPC   C1A73611  22.633  15.325   6.187
 5874POPC   D2A73612  22.549  15.508   6.606
 5874POPC   C3A73613  22.565  15.243   6.965
 5874POPC   C4A73614  22.642  15.023   7.347
 5874POPC   C1B73615  22.941  14.936   6.231
 5874POPC   C2B73616  22.955  15.080   6.645
 5874POPC   C3B73617  23.048  14.998   7.055
 5874POPC   C4B73618  23.089  14.760   7.409
 5875POPC   NC373619  40.696  27.410   5.516
 5875POPC   PO473620  40.696  26.743   5.320
 5875POPC   GL173621  40.823  26.920   5.737
 5875POPC   GL273622  40.571  27.144   5.931
 5875POPC   C1A73623  40.924  26.772   6.170
 5875POPC   D2A73624  40.745  26.876   6.570
 5875POPC   C3A73625  40.902  26.680   6.932
 5875POPC   C4A73626  40.943  26.804   7.331
 5875POPC   C1B73627  40.421  26.729   6.046
 5875POPC   C2B73628  40.313  26.658   6.463
 5875POPC   C3B73629  40.418  26.493   6.854
 5875POPC   C4B73630  40.399  26.592   7.276
 5876POPC   NC373631  27.344   5.410   5.375
 5876POPC   PO473632  26.920   4.835   5.225
 5876POPC   GL173633  26.706   5.006   5.599
 5876POPC   GL273634  26.611   4.723   5.776
 5876POPC   C1A73635  26.849   5.195   6.007
 5876POPC   D2A73636  26.903   5.095   6.461
 5876POPC   C3A73637  27.004   5.436   6.723
 5876POPC   C4A73638  26.893   5.532   7.128
 5876POPC   C1B73639  26.523   4.862   6.195
 5876POPC   C2B73640  26.373   5.104   6.537
 5876POPC   C3B73641  26.603   5.128   6.896
 5876POPC   C4B73642  26.795   4.856   7.190
 5877POPC   NC373643  16.035  28.132   5.123
 5877POPC   PO473644  15.950  27.551   5.512
 5877POPC   GL173645  16.154  27.612   5.927
 5877POPC   GL273646  16.467  27.764   5.926
 5877POPC   C1A73647  16.228  27.494   6.379
 5877POPC   D2A73648  16.069  27.436   6.804
 5877POPC   C3A73649  15.720  27.724   6.925
 5877POPC   C4A73650  15.618  27.755   7.357
 5877POPC   C1B73651  16.379  27.985   6.304
 5877POPC   C2B73652  16.298  27.902   6.749
 5877POPC   C3B73653  16.149  27.839   7.166
 5877POPC   C4B73654  16.382  27.785   7.533
 5878POPC   NC373655  11.741  39.950   5.301
 5878POPC   PO473656  12.433  39.768   5.215
 5878POPC   GL173657  12.166  39.881   5.579
 5878POPC   GL273658  12.443  39.939   5.748
 5878POPC   C1A73659  12.009  39.938   6.058
 5878POPC   D2A73660  11.947  39.774   6.505
 5878POPC   C3A73661  11.738  40.016   6.812
 5878POPC   C4A73662  11.909  40.141   7.193
 5878POPC   C1B73663  12.444  39.702   6.119
 5878POPC   C2B73664  12.399  39.995   6.476
 5878POPC   C3B73665  12.260  39.942   6.892
 5878POPC   C4B73666  12.370  39.951   7.323
 5879POPC   NC373667  27.837  31.781   5.531
 5879POPC   PO473668  27.180  31.493   5.415
 5879POPC   GL173669  27.522  31.432   5.748
 5879POPC   GL273670  27.595  31.079   5.791
 5879POPC   C1A73671  27.759  31.494   6.184
 5879POPC   D2A73672  27.910  31.493   6.666
 5879POPC   C3A73673  27.615  31.650   6.994
 5879POPC   C4A73674  27.337  31.921   7.233
 5879POPC   C1B73675  27.346  31.176   6.182
 5879POPC   C2B73676  27.431  31.332   6.576
 5879POPC   C3B73677  27.568  31.151   6.927
 5879POPC   C4B73678  27.439  31.226   7.337
 5880POPC   NC373679  17.641   0.190   5.000
 5880POPC   PO473680  17.228   0.358   5.525
 5880POPC   GL173681  17.461   0.564   5.842
 5880POPC   GL273682  17.278   0.362   6.064
 5880POPC   C1A73683  17.665   0.570   6.285
 5880POPC   D2A73684  17.352   0.415   6.589
 5880POPC   C3A73685  17.392   0.583   6.982
 5880POPC   C4A73686  17.696   0.862   7.116
 5880POPC   C1B73687  17.638   0.087   6.100
 5880POPC   C2B73688  17.827   0.058   6.475
 5880POPC   C3B73689  17.660   0.050   6.837
 5880POPC   C4B73690  17.700   0.206   7.200
 5881POPC   NC373691  38.949  20.101   5.360
 5881POPC   PO473692  38.955  20.780   5.277
 5881POPC   GL173693  38.981  20.600   5.669
 5881POPC   GL273694  39.142  20.918   5.799
 5881POPC   C1A73695  39.129  20.491   6.095
 5881POPC   D2A73696  39.262  20.698   6.493
 5881POPC   C3A73697  39.245  20.438   6.875
 5881POPC   C4A73698  39.371  20.501   7.284
 5881POPC   C1B73699  39.000  21.100   6.213
 5881POPC   C2B73700  38.941  21.036   6.685
 5881POPC   C3B73701  39.072  20.882   7.092
 5881POPC   C4B73702  39.188  20.921   7.562
 5882POPC   NC373703  12.447   6.555   5.374
 5882POPC   PO473704  12.830   7.080   5.496
 5882POPC   GL173705  12.709   6.852   5.853
 5882POPC   GL273706  12.717   6.476   5.884
 5882POPC   C1A73707  12.536   6.827   6.248
 5882POPC   D2A73708  12.523   6.545   6.562
 5882POPC   C3A73709  12.690   6.661   6.890
 5882POPC   C4A73710  12.664   6.466   7.269
 5882POPC   C1B73711  12.970   6.557   6.275
 5882POPC   C2B73712  13.055   6.373   6.699
 5882POPC   C3B73713  13.149   6.557   7.121
 5882POPC   C4B73714  13.096   6.320   7.487
 5883POPC   NC373715  30.106  36.567   5.602
 5883POPC   PO473716  29.898  37.053   5.189
 5883POPC   GL173717  29.909  37.051   5.692
 5883POPC   GL273718  29.663  36.844   5.943
 5883POPC   C1A73719  29.943  37.192   6.145
 5883POPC   D2A73720  29.723  37.059   6.525
 5883POPC   C3A73721  29.920  36.953   6.908
 5883POPC   C4A73722  29.743  36.892   7.315
 5883POPC   C1B73723  29.982  36.678   6.268
 5883POPC   C2B73724  30.126  36.494   6.678
 5883POPC   C3B73725  30.092  36.511   7.134
 5883POPC   C4B73726  30.074  36.617   7.617
 5884POPC   NC373727  17.522   7.012   5.513
 5884POPC   PO473728  17.470   7.655   5.306
 5884POPC   GL173729  17.594   7.710   5.771
 5884POPC   GL273730  17.676   7.414   5.804
 5884POPC   C1A73731  17.446   7.793   6.216
 5884POPC   D2A73732  17.199   7.627   6.569
 5884POPC   C3A73733  17.375   7.469   6.935
 5884POPC   C4A73734  17.547   7.810   7.139
 5884POPC   C1B73735  17.805   7.408   6.210
 5884POPC   C2B73736  17.762   7.584   6.617
 5884POPC   C3B73737  17.880   7.442   7.023
 5884POPC   C4B73738  17.758   7.200   7.363
 5885POPC   NC373739   6.109  19.411   5.339
 5885POPC   PO473740   5.895  19.989   5.220
 5885POPC   GL173741   5.815  19.976   5.656
 5885POPC   GL273742   6.094  20.143   5.792
 5885POPC   C1A73743   5.457  20.024   5.979
 5885POPC   D2A73744   5.415  19.803   6.375
 5885POPC   C3A73745   5.577  19.958   6.765
 5885POPC   C4A73746   5.615  19.712   7.146
 5885POPC   C1B73747   5.917  19.926   6.159
 5885POPC   C2B73748   6.044  20.048   6.554
 5885POPC   C3B73749   6.058  19.897   6.956
 5885POPC   C4B73750   6.028  20.104   7.353
 5886POPC   NC373751  25.542  39.954   5.248
 5886POPC   PO473752  24.934  39.687   5.223
 5886POPC   GL173753  25.181  40.039   5.580
 5886POPC   GL273754  25.440  39.872   5.779
 5886POPC   C1A73755  25.258  40.253   6.030
 5886POPC   D2A73756  25.460  40.130   6.439
 5886POPC   C3A73757  25.341  40.296   6.851
 5886POPC   C4A73758  25.203  40.162   7.260
 5886POPC   C1B73759  25.405  39.657   6.183
 5886POPC   C2B73760  25.547  39.629   6.620
 5886POPC   C3B73761  25.450  39.770   7.040
 5886POPC   C4B73762  25.041  39.680   7.234
 5887POPC   NC373763  40.477  10.956   5.091
 5887POPC   PO473764  40.970  10.965   5.586
 5887POPC   GL173765  40.812  10.705   5.906
 5887POPC   GL273766  40.669  10.392   5.838
 5887POPC   C1A73767  40.725  10.611   6.320
 5887POPC   D2A73768  40.440  10.558   6.664
 5887POPC   C3A73769  40.685  10.619   7.018
 5887POPC   C4A73770  41.010  10.497   7.237
 5887POPC   C1B73771  40.403  10.229   6.183
 5887POPC   C2B73772  40.369  10.055   6.613
 5887POPC   C3B73773  40.566  10.132   7.039
 5887POPC   C4B73774  40.577  10.349   7.462
 5888POPC   NC373775  26.226   4.998   5.321
 5888POPC   PO473776  25.606   5.033   5.580
 5888POPC   GL173777  25.859   5.247   5.848
 5888POPC   GL273778  26.203   5.118   5.824
 5888POPC   C1A73779  25.732   5.293   6.277
 5888POPC   D2A73780  25.869   5.064   6.670
 5888POPC   C3A73781  26.005   5.237   7.107
 5888POPC   C4A73782  26.094   5.542   7.447
 5888POPC   C1B73783  26.029   4.889   6.178
 5888POPC   C2B73784  26.169   4.628   6.526
 5888POPC   C3B73785  26.195   4.790   6.951
 5888POPC   C4B73786  26.268   4.691   7.373
 5889POPC   NC373787  10.294  21.626   5.428
 5889POPC   PO473788  10.843  21.214   5.479
 5889POPC   GL173789  10.706  21.246   5.884
 5889POPC   GL273790  10.386  21.406   5.876
 5889POPC   C1A73791  10.585  21.108   6.305
 5889POPC   D2A73792  10.303  21.055   6.669
 5889POPC   C3A73793  10.466  21.293   7.037
 5889POPC   C4A73794  10.655  21.453   7.447
 5889POPC   C1B73795  10.165  21.409   6.277
 5889POPC   C2B73796   9.918  21.418   6.666
 5889POPC   C3B73797  10.003  21.476   7.118
 5889POPC   C4B73798  10.151  21.328   7.527
 5890POPC   NC373799  23.537  14.768   5.036
 5890POPC   PO473800  23.872  14.269   5.286
 5890POPC   GL173801  23.779  14.413   5.716
 5890POPC   GL273802  23.913  14.774   5.690
 5890POPC   C1A73803  23.680  14.233   6.161
 5890POPC   D2A73804  23.394  14.273   6.539
 5890POPC   C3A73805  23.359  13.989   6.890
 5890POPC   C4A73806  23.639  14.126   7.195
 5890POPC   C1B73807  23.742  14.739   6.115
 5890POPC   C2B73808  23.853  14.559   6.526
 5890POPC   C3B73809  23.956  14.644   6.945
 5890POPC   C4B73810  24.136  14.956   7.241
 5891POPC   NC373811  13.399  18.066   5.308
 5891POPC   PO473812  13.875  18.481   5.359
 5891POPC   GL173813  13.576  18.381   5.714
 5891POPC   GL273814  13.608  18.010   5.827
 5891POPC   C1A73815  13.602  18.432   6.172
 5891POPC   D2A73816  13.928  18.502   6.491
 5891POPC   C3A73817  13.761  18.621   6.878
 5891POPC   C4A73818  13.506  18.410   7.147
 5891POPC   C1B73819  13.881  18.022   6.236
 5891POPC   C2B73820  13.756  18.068   6.693
 5891POPC   C3B73821  13.938  18.000   7.104
 5891POPC   C4B73822  14.152  17.926   7.530
 5892POPC   NC373823  37.487   6.077   5.461
 5892POPC   PO473824  37.926   5.558   5.517
 5892POPC   GL173825  37.741   5.824   5.832
 5892POPC   GL273826  37.416   5.804   5.905
 5892POPC   C1A73827  37.769   6.047   6.214
 5892POPC   D2A73828  37.952   5.917   6.579
 5892POPC   C3A73829  37.864   6.017   7.010
 5892POPC   C4A73830  37.682   5.784   7.369
 5892POPC   C1B73831  37.316   5.806   6.310
 5892POPC   C2B73832  37.450   6.026   6.669
 5892POPC   C3B73833  37.346   6.069   7.100
 5892POPC   C4B73834  37.202   6.140   7.518
 5893POPC   NC373835   2.275  35.275   5.122
 5893POPC   PO473836   2.720  35.802   5.433
 5893POPC   GL173837   2.549  35.571   5.752
 5893POPC   GL273838   2.855  35.355   5.765
 5893POPC   C1A73839   2.580  35.510   6.205
 5893POPC   D2A73840   2.934  35.303   6.434
 5893POPC   C3A73841   2.874  35.042   6.790
 5893POPC   C4A73842   2.645  35.169   7.140
 5893POPC   C1B73843   3.078  35.633   6.062
 5893POPC   C2B73844   3.292  35.676   6.476
 5893POPC   C3B73845   3.035  35.609   6.853
 5893POPC   C4B73846   3.222  35.671   7.240
 5894POPC   NC373847   9.328  23.896   5.504
 5894POPC   PO473848   9.879  23.603   5.350
 5894POPC   GL173849   9.897  23.774   5.755
 5894POPC   GL273850   9.777  23.473   5.846
 5894POPC   C1A73851   9.982  23.776   6.217
 5894POPC   D2A73852   9.886  23.950   6.624
 5894POPC   C3A73853   9.997  23.768   7.027
 5894POPC   C4A73854   9.830  23.953   7.420
 5894POPC   C1B73855   9.649  23.384   6.244
 5894POPC   C2B73856   9.848  23.432   6.624
 5894POPC   C3B73857   9.639  23.404   7.018
 5894POPC   C4B73858   9.863  23.435   7.396
 5895POPC   NC373859  24.394  42.597   5.474
 5895POPC   PO473860  24.934  42.107   5.464
 5895POPC   GL173861  24.673  42.209   5.808
 5895POPC   GL273862  24.853  42.116   6.111
 5895POPC   C1A73863  24.552  42.537   6.123
 5895POPC   D2A73864  24.688  42.807   6.463
 5895POPC   C3A73865  24.524  42.604   6.834
 5895POPC   C4A73866  24.436  42.548   7.259
 5895POPC   C1B73867  24.420  42.020   6.234
 5895POPC   C2B73868  24.243  42.091   6.639
 5895POPC   C3B73869  24.360  42.038   7.065
 5895POPC   C4B73870  24.105  42.186   7.387
 5896POPC   NC373871  34.999  33.514   5.477
 5896POPC   PO473872  35.441  33.994   5.389
 5896POPC   GL173873  35.236  33.935   5.816
 5896POPC   GL273874  35.320  33.589   5.866
 5896POPC   C1A73875  35.021  34.142   6.206
 5896POPC   D2A73876  35.025  33.994   6.640
 5896POPC   C3A73877  35.119  33.549   6.797
 5896POPC   C4A73878  35.336  33.627   7.219
 5896POPC   C1B73879  35.251  33.679   6.292
 5896POPC   C2B73880  35.515  33.789   6.616
 5896POPC   C3B73881  35.756  33.647   6.915
 5896POPC   C4B73882  35.836  33.586   7.321
 5897POPC   NC373883  27.820  20.616   5.475
 5897POPC   PO473884  27.240  21.019   5.391
 5897POPC   GL173885  27.418  20.691   5.775
 5897POPC   GL273886  27.766  20.490   5.946
 5897POPC   C1A73887  27.347  20.581   6.209
 5897POPC   D2A73888  27.213  20.472   6.610
 5897POPC   C3A73889  27.529  20.387   6.890
 5897POPC   C4A73890  27.676  20.572   7.257
 5897POPC   C1B73891  27.835  20.415   6.376
 5897POPC   C2B73892  27.679  20.743   6.567
 5897POPC   C3B73893  27.743  20.972   6.884
 5897POPC   C4B73894  27.887  21.026   7.280
 5898POPC   NC373895  23.223  19.110   5.403
 5898POPC   PO473896  22.774  18.732   5.487
 5898POPC   GL173897  22.988  18.931   5.828
 5898POPC   GL273898  23.303  18.815   5.839
 5898POPC   C1A73899  22.952  19.169   6.219
 5898POPC   D2A73900  22.653  19.231   6.544
 5898POPC   C3A73901  22.834  19.269   6.903
 5898POPC   C4A73902  22.731  19.217   7.282
 5898POPC   C1B73903  23.443  19.023   6.196
 5898POPC   C2B73904  23.399  18.884   6.591
 5898POPC   C3B73905  23.458  18.948   6.996
 5898POPC   C4B73906  23.257  19.260   7.182
 5899POPC   NC373907  10.417  14.922   5.442
 5899POPC   PO473908  10.735  15.593   5.495
 5899POPC   GL173909  10.490  15.313   5.776
 5899POPC   GL273910  10.677  15.059   5.994
 5899POPC   C1A73911  10.287  15.295   6.193
 5899POPC   D2A73912  10.585  15.159   6.515
 5899POPC   C3A73913  10.497  15.214   6.907
 5899POPC   C4A73914  10.702  15.206   7.292
 5899POPC   C1B73915  10.554  14.710   6.303
 5899POPC   C2B73916  10.500  14.562   6.663
 5899POPC   C3B73917  10.612  14.708   7.016
 5899POPC   C4B73918  10.354  14.663   7.333
 5900POPC   NC373919   8.538  21.932   5.530
 5900POPC   PO473920   8.133  22.455   5.384
 5900POPC   GL173921   8.237  22.293   5.809
 5900POPC   GL273922   7.997  22.019   5.883
 5900POPC   C1A73923   8.420  22.358   6.249
 5900POPC   D2A73924   8.081  22.240   6.563
 5900POPC   C3A73925   8.172  22.274   6.993
 5900POPC   C4A73926   7.945  22.057   7.321
 5900POPC   C1B73927   8.288  21.880   6.237
 5900POPC   C2B73928   8.469  21.913   6.700
 5900POPC   C3B73929   8.438  21.897   7.196
 5900POPC   C4B73930   8.261  21.802   7.621
 5901POPC   NC373931  17.039  24.693   5.442
 5901POPC   PO473932  16.382  24.461   5.421
 5901POPC   GL173933  16.704  24.381   5.746
 5901POPC   GL273934  16.870  24.679   5.910
 5901POPC   C1A73935  16.775  24.206   6.167
 5901POPC   D2A73936  16.661  24.378   6.591
 5901POPC   C3A73937  16.934  24.394   6.958
 5901POPC   C4A73938  16.877  24.241   7.385
 5901POPC   C1B73939  16.547  24.698   6.181
 5901POPC   C2B73940  16.564  24.894   6.574
 5901POPC   C3B73941  16.552  24.827   6.974
 5901POPC   C4B73942  16.817  24.763   7.323
 5902POPC   NC373943   9.521  23.259   5.307
 5902POPC   PO473944   9.709  22.625   5.469
 5902POPC   GL173945   9.846  22.999   5.672
 5902POPC   GL273946   9.512  23.017   5.790
 5902POPC   C1A73947  10.038  23.098   6.097
 5902POPC   D2A73948   9.898  22.926   6.513
 5902POPC   C3A73949  10.015  23.067   6.941
 5902POPC   C4A73950   9.901  22.920   7.342
 5902POPC   C1B73951   9.292  23.030   6.183
 5902POPC   C2B73952   9.413  23.122   6.612
 5902POPC   C3B73953   9.491  22.929   7.006
 5902POPC   C4B73954   9.442  23.147   7.418
 5903POPC   NC373955  41.264   9.842   5.455
 5903POPC   PO473956  41.818   9.550   5.419
 5903POPC   GL173957  41.567   9.584   5.792
 5903POPC   GL273958  41.696   9.906   5.827
 5903POPC   C1A73959  41.472   9.471   6.234
 5903POPC   D2A73960  41.691   9.528   6.637
 5903POPC   C3A73961  41.525   9.472   7.017
 5903POPC   C4A73962  41.463   9.708   7.388
 5903POPC   C1B73963  41.429   9.990   6.153
 5903POPC   C2B73964  41.300   9.852   6.559
 5903POPC   C3B73965  41.549   9.975   6.930
 5903POPC   C4B73966  41.415  10.220   7.279
 5904POPC   NC373967  28.727  20.253   5.692
 5904POPC   PO473968  29.319  20.019   5.339
 5904POPC   GL173969  29.170  19.926   5.772
 5904POPC   GL273970  29.306  19.593   5.807
 5904POPC   C1A73971  29.049  19.844   6.235
 5904POPC   D2A73972  29.194  19.666   6.634
 5904POPC   C3A73973  29.046  19.739   7.052
 5904POPC   C4A73974  28.937  19.824   7.477
 5904POPC   C1B73975  29.505  19.615   6.233
 5904POPC   C2B73976  29.699  19.538   6.649
 5904POPC   C3B73977  29.544  19.624   7.055
 5904POPC   C4B73978  29.306  19.493   7.434
 5905POPC   NC373979  32.193  41.073   4.888
 5905POPC   PO473980  32.291  40.588   5.352
 5905POPC   GL173981  32.453  40.752   5.770
 5905POPC   GL273982  32.170  40.952   5.800
 5905POPC   C1A73983  32.586  40.719   6.239
 5905POPC   D2A73984  32.437  40.793   6.689
 5905POPC   C3A73985  32.571  40.641   7.120
 5905POPC   C4A73986  32.279  40.644   7.456
 5905POPC   C1B73987  32.196  41.068   6.246
 5905POPC   C2B73988  32.148  41.204   6.673
 5905POPC   C3B73989  32.249  41.062   7.090
 5905POPC   C4B73990  32.133  41.132   7.511
 5906POPC   NC373991  11.436  44.984   5.489
 5906POPC   PO473992  11.342  44.312   5.510
 5906POPC   GL173993  11.373  44.601   5.859
 5906POPC   GL273994  11.103  44.379   6.008
 5906POPC   C1A73995  11.271  44.782   6.294
 5906POPC   D2A73996  11.353  44.828   6.759
 5906POPC   C3A73997  11.143  44.774   7.182
 5906POPC   C4A73998  11.014  44.825   7.603
 5906POPC   C1B73999  11.509  44.309   6.236
 5906POPC   C2B74000  11.643  44.447   6.630
 5906POPC   C3B74001  11.453  44.407   7.065
 5906POPC   C4B74002  11.244  44.254   7.475
 5907POPC   NC374003  35.348  21.948   5.669
 5907POPC   PO474004  35.024  22.500   5.498
 5907POPC   GL174005  35.256  22.436   5.906
 5907POPC   GL274006  35.616  22.304   5.922
 5907POPC   C1A74007  35.321  22.433   6.368
 5907POPC   D2A74008  35.138  22.339   6.777
 5907POPC   C3A74009  35.015  21.936   6.875
 5907POPC   C4A74010  35.121  21.820   7.263
 5907POPC   C1B74011  35.604  21.994   6.290
 5907POPC   C2B74012  35.554  22.045   6.739
 5907POPC   C3B74013  35.483  22.181   7.180
 5907POPC   C4B74014  35.684  22.194   7.605
 5908POPC   NC374015   3.835  13.379   5.388
 5908POPC   PO474016   4.350  13.791   5.349
 5908POPC   GL174017   4.491  13.625   5.711
 5908POPC   GL274018   4.122  13.608   5.786
 5908POPC   C1A74019   4.533  13.727   6.155
 5908POPC   D2A74020   4.331  13.960   6.485
 5908POPC   C3A74021   4.349  13.750   6.878
 5908POPC   C4A74022   4.412  13.912   7.270
 5908POPC   C1B74023   4.123  13.401   6.174
 5908POPC   C2B74024   3.950  13.460   6.575
 5908POPC   C3B74025   4.054  13.308   6.987
 5908POPC   C4B74026   3.987  13.621   7.249
 5909POPC   NC374027  30.067  32.258   5.336
 5909POPC   PO474028  29.722  31.663   5.424
 5909POPC   GL174029  29.896  31.966   5.734
 5909POPC   GL274030  29.984  32.309   5.854
 5909POPC   C1A74031  30.125  31.870   6.109
 5909POPC   D2A74032  30.287  31.873   6.525
 5909POPC   C3A74033  30.081  32.111   6.836
 5909POPC   C4A74034  30.206  32.176   7.245
 5909POPC   C1B74035  30.242  32.363   6.239
 5909POPC   C2B74036  30.495  32.441   6.603
 5909POPC   C3B74037  30.255  32.597   6.953
 5909POPC   C4B74038  29.825  32.522   7.134
 5910POPC   NC374039   3.453  42.369   5.409
 5910POPC   PO474040   4.188  42.582   5.285
 5910POPC   GL174041   3.908  42.461   5.715
 5910POPC   GL274042   3.734  42.138   5.804
 5910POPC   C1A74043   3.670  42.498   6.180
 5910POPC   D2A74044   3.417  42.603   6.601
 5910POPC   C3A74045   3.656  42.753   6.986
 5910POPC   C4A74046   3.923  42.811   7.333
 5910POPC   C1B74047   3.809  41.990   6.227
 5910POPC   C2B74048   3.696  42.143   6.648
 5910POPC   C3B74049   3.602  42.218   7.091
 5910POPC   C4B74050   3.597  41.976   7.489
 5911POPC   NC374051  21.293   1.656   5.719
 5911POPC   PO474052  21.113   1.012   5.392
 5911POPC   GL174053  21.120   1.161   5.764
 5911POPC   GL274054  21.461   1.105   5.802
 5911POPC   C1A74055  21.018   1.210   6.196
 5911POPC   D2A74056  21.199   1.034   6.556
 5911POPC   C3A74057  21.443   1.301   6.814
 5911POPC   C4A74058  21.359   1.450   7.206
 5911POPC   C1B74059  21.313   0.766   6.084
 5911POPC   C2B74060  21.470   0.603   6.470
 5911POPC   C3B74061  21.500   0.808   6.893
 5911POPC   C4B74062  21.367   0.931   7.288
 5912POPC   NC374063  19.318  38.879   5.306
 5912POPC   PO474064  18.605  38.994   5.387
 5912POPC   GL174065  18.740  39.179   5.780
 5912POPC   GL274066  19.090  39.275   5.724
 5912POPC   C1A74067  18.726  39.344   6.198
 5912POPC   D2A74068  18.881  39.198   6.582
 5912POPC   C3A74069  18.807  39.332   6.999
 5912POPC   C4A74070  19.008  39.217   7.394
 5912POPC   C1B74071  19.162  39.051   6.124
 5912POPC   C2B74072  19.272  38.895   6.537
 5912POPC   C3B74073  19.271  39.078   6.950
 5912POPC   C4B74074  19.446  38.973   7.360
 5913POPC   NC374075  28.681  12.201   5.297
 5913POPC   PO474076  29.314  11.956   5.354
 5913POPC   GL174077  29.085  12.047   5.731
 5913POPC   GL274078  29.380  12.219   5.899
 5913POPC   C1A74079  28.975  12.117   6.192
 5913POPC   D2A74080  29.208  12.038   6.573
 5913POPC   C3A74081  28.924  12.085   6.905
 5913POPC   C4A74082  29.037  12.185   7.280
 5913POPC   C1B74083  29.381  11.806   6.105
 5913POPC   C2B74084  29.429  11.573   6.481
 5913POPC   C3B74085  29.550  11.670   6.900
 5913POPC   C4B74086  29.383  11.799   7.323
 5914POPC   NC374087  13.498  10.317   5.431
 5914POPC   PO474088  13.114  10.849   5.453
 5914POPC   GL174089  13.466  10.699   5.797
 5914POPC   GL274090  13.658  10.354   5.911
 5914POPC   C1A74091  13.740  10.768   6.186
 5914POPC   D2A74092  13.620  10.706   6.610
 5914POPC   C3A74093  13.863  10.756   6.939
 5914POPC   C4A74094  13.679  10.909   7.293
 5914POPC   C1B74095  13.534  10.287   6.344
 5914POPC   C2B74096  13.496  10.237   6.811
 5914POPC   C3B74097  13.624  10.335   7.234
 5914POPC   C4B74098  13.785  10.086   7.607
 5915POPC   NC374099   2.965   8.478   5.121
 5915POPC   PO474100   3.412   8.222   5.495
 5915POPC   GL174101   3.575   8.090   5.868
 5915POPC   GL274102   3.695   8.423   5.946
 5915POPC   C1A74103   3.408   7.910   6.253
 5915POPC   D2A74104   3.514   8.127   6.601
 5915POPC   C3A74105   3.400   8.002   7.015
 5915POPC   C4A74106   3.511   8.386   7.219
 5915POPC   C1B74107   3.944   8.140   6.193
 5915POPC   C2B74108   4.022   7.986   6.567
 5915POPC   C3B74109   3.910   8.089   6.947
 5915POPC   C4B74110   4.111   7.966   7.309
 5916POPC   NC374111  38.450  20.858   5.418
 5916POPC   PO474112  38.602  20.170   5.654
 5916POPC   GL174113  38.455  20.566   5.852
 5916POPC   GL274114  38.630  20.891   5.900
 5916POPC   C1A74115  38.231  20.712   6.219
 5916POPC   D2A74116  38.246  20.643   6.651
 5916POPC   C3A74117  38.487  20.874   6.918
 5916POPC   C4A74118  38.284  20.686   7.261
 5916POPC   C1B74119  38.719  20.691   6.328
 5916POPC   C2B74120  38.756  20.477   6.720
 5916POPC   C3B74121  38.767  20.485   7.176
 5916POPC   C4B74122  38.717  20.844   7.445
 5917POPC   NC374123   4.079  14.162   5.417
 5917POPC   PO474124   4.706  14.307   5.524
 5917POPC   GL174125   4.372  14.410   5.786
 5917POPC   GL274126   4.305  14.081   5.872
 5917POPC   C1A74127   4.192  14.465   6.205
 5917POPC   D2A74128   4.363  14.463   6.620
 5917POPC   C3A74129   4.264  14.513   7.061
 5917POPC   C4A74130   4.534  14.569   7.412
 5917POPC   C1B74131   3.939  14.015   6.150
 5917POPC   C2B74132   3.877  14.228   6.581
 5917POPC   C3B74133   3.981  14.094   7.022
 5917POPC   C4B74134   4.020  14.086   7.521
 5918POPC   NC374135   2.193   8.138   5.320
 5918POPC   PO474136   1.580   8.389   5.237
 5918POPC   GL174137   1.883   8.369   5.649
 5918POPC   GL274138   2.070   8.020   5.800
 5918POPC   C1A74139   1.915   8.377   6.119
 5918POPC   D2A74140   1.974   8.348   6.579
 5918POPC   C3A74141   1.615   8.344   6.843
 5918POPC   C4A74142   1.480   8.485   7.244
 5918POPC   C1B74143   2.256   8.005   6.240
 5918POPC   C2B74144   2.241   7.916   6.698
 5918POPC   C3B74145   2.035   8.034   7.089
 5918POPC   C4B74146   2.161   7.957   7.513
 5919POPC   NC374147  38.958   6.500   5.399
 5919POPC   PO474148  39.657   6.734   5.425
 5919POPC   GL174149  39.399   6.484   5.700
 5919POPC   GL274150  39.238   6.781   5.821
 5919POPC   C1A74151  39.303   6.328   6.126
 5919POPC   D2A74152  39.261   6.541   6.514
 5919POPC   C3A74153  39.402   6.364   6.892
 5919POPC   C4A74154  39.207   6.531   7.210
 5919POPC   C1B74155  39.375   6.958   6.225
 5919POPC   C2B74156  39.548   7.003   6.645
 5919POPC   C3B74157  39.425   6.958   7.061
 5919POPC   C4B74158  39.581   7.052   7.454
 5920POPC   NC374159  11.282  10.092   5.405
 5920POPC   PO474160  11.616   9.452   5.369
 5920POPC   GL174161  11.349   9.650   5.700
 5920POPC   GL274162  11.129   9.374   5.804
 5920POPC   C1A74163  11.224   9.889   6.094
 5920POPC   D2A74164  11.295   9.801   6.547
 5920POPC   C3A74165  11.005   9.700   6.884
 5920POPC   C4A74166  11.299   9.774   7.211
 5920POPC   C1B74167  11.355   9.394   6.210
 5920POPC   C2B74168  11.692   9.439   6.563
 5920POPC   C3B74169  11.684   9.509   7.022
 5920POPC   C4B74170  11.627   9.492   7.498
 5921POPC   NC374171  34.047  19.094   5.545
 5921POPC   PO474172  33.457  19.287   5.728
 5921POPC   GL174173  33.728  19.020   5.945
 5921POPC   GL274174  34.038  19.167   6.065
 5921POPC   C1A74175  33.654  19.024   6.359
 5921POPC   D2A74176  33.505  19.412   6.486
 5921POPC   C3A74177  33.550  19.347   6.893
 5921POPC   C4A74178  33.591  18.921   7.073
 5921POPC   C1B74179  34.123  18.760   6.183
 5921POPC   C2B74180  34.330  18.664   6.537
 5921POPC   C3B74181  34.377  19.043   6.751
 5921POPC   C4B74182  34.066  19.130   7.048
 5922POPC   NC374183   7.427  18.606   5.164
 5922POPC   PO474184   7.716  18.153   5.615
 5922POPC   GL174185   7.523  18.376   5.965
 5922POPC   GL274186   7.222  18.274   5.825
 5922POPC   C1A74187   7.392  18.609   6.369
 5922POPC   D2A74188   7.539  18.636   6.813
 5922POPC   C3A74189   7.732  18.226   6.909
 5922POPC   C4A74190   7.705  17.941   7.253
 5922POPC   C1B74191   7.050  18.180   6.251
 5922POPC   C2B74192   7.063  18.046   6.707
 5922POPC   C3B74193   7.228  18.238   7.075
 5922POPC   C4B74194   7.504  18.491   7.307
 5923POPC   NC374195   8.200   2.964   5.376
 5923POPC   PO474196   8.263   2.323   5.123
 5923POPC   GL174197   7.994   2.592   5.612
 5923POPC   GL274198   8.274   2.726   5.828
 5923POPC   C1A74199   7.876   2.837   6.087
 5923POPC   D2A74200   7.698   2.991   6.511
 5923POPC   C3A74201   7.989   3.130   6.872
 5923POPC   C4A74202   8.262   3.120   7.275
 5923POPC   C1B74203   8.308   2.590   6.263
 5923POPC   C2B74204   8.403   2.711   6.696
 5923POPC   C3B74205   8.126   2.657   7.058
 5923POPC   C4B74206   7.986   2.707   7.483
 5924POPC   NC374207  15.258  41.517   5.072
 5924POPC   PO474208  15.467  42.031   5.489
 5924POPC   GL174209  15.194  41.722   5.750
 5924POPC   GL274210  15.278  41.354   5.775
 5924POPC   C1A74211  15.047  41.548   6.185
 5924POPC   D2A74212  15.201  41.748   6.565
 5924POPC   C3A74213  15.128  41.618   6.975
 5924POPC   C4A74214  14.907  41.827   7.342
 5924POPC   C1B74215  15.449  41.169   6.159
 5924POPC   C2B74216  15.326  41.254   6.583
 5924POPC   C3B74217  15.528  41.317   6.988
 5924POPC   C4B74218  15.384  41.432   7.391
 5925POPC   NC374219  24.321  26.964   5.224
 5925POPC   PO474220  24.615  26.487   5.617
 5925POPC   GL174221  24.397  26.877   5.726
 5925POPC   GL274222  24.199  26.677   5.924
 5925POPC   C1A74223  24.327  27.142   6.112
 5925POPC   D2A74224  24.568  27.166   6.500
 5925POPC   C3A74225  24.368  27.026   6.869
 5925POPC   C4A74226  24.199  26.914   7.252
 5925POPC   C1B74227  24.532  26.682   6.253
 5925POPC   C2B74228  24.512  26.567   6.684
 5925POPC   C3B74229  24.651  26.642   7.111
 5925POPC   C4B74230  24.881  26.352   7.374
 5926POPC   NC374231   4.864   3.299   5.539
 5926POPC   PO474232   5.415   3.728   5.586
 5926POPC   GL174233   5.170   3.597   5.882
 5926POPC   GL274234   4.833   3.678   5.872
 5926POPC   C1A74235   5.182   3.712   6.295
 5926POPC   D2A74236   5.235   3.540   6.677
 5926POPC   C3A74237   5.021   3.697   7.029
 5926POPC   C4A74238   5.247   3.484   7.305
 5926POPC   C1B74239   4.843   3.322   6.189
 5926POPC   C2B74240   4.832   3.234   6.618
 5926POPC   C3B74241   4.702   3.247   7.050
 5926POPC   C4B74242   4.753   3.459   7.446
 5927POPC   NC374243  35.553  26.007   5.491
 5927POPC   PO474244  34.922  25.967   5.333
 5927POPC   GL174245  35.117  26.178   5.729
 5927POPC   GL274246  35.168  25.839   5.811
 5927POPC   C1A74247  35.378  26.320   6.159
 5927POPC   D2A74248  35.621  26.089   6.545
 5927POPC   C3A74249  35.549  26.135   6.994
 5927POPC   C4A74250  35.403  26.542   7.090
 5927POPC   C1B74251  35.321  25.826   6.220
 5927POPC   C2B74252  35.145  25.930   6.640
 5927POPC   C3B74253  35.175  25.798   7.092
 5927POPC   C4B74254  35.228  25.729   7.574
 5928POPC   NC374255  12.367   1.843   5.395
 5928POPC   PO474256  11.918   2.259   5.514
 5928POPC   GL174257  12.043   1.970   5.796
 5928POPC   GL274258  12.343   2.167   5.798
 5928POPC   C1A74259  12.053   1.987   6.232
 5928POPC   D2A74260  12.226   2.024   6.625
 5928POPC   C3A74261  11.912   2.075   6.876
 5928POPC   C4A74262  11.821   2.016   7.257
 5928POPC   C1B74263  12.426   2.337   6.212
 5928POPC   C2B74264  12.425   2.489   6.616
 5928POPC   C3B74265  12.316   2.375   7.039
 5928POPC   C4B74266  12.324   1.946   7.181
 5929POPC   NC374267  27.831   1.259   5.577
 5929POPC   PO474268  27.138   1.511   5.507
 5929POPC   GL174269  27.387   1.371   5.839
 5929POPC   GL274270  27.379   1.023   5.776
 5929POPC   C1A74271  27.607   1.482   6.232
 5929POPC   D2A74272  27.861   1.355   6.613
 5929POPC   C3A74273  27.656   1.469   6.986
 5929POPC   C4A74274  27.616   1.757   7.328
 5929POPC   C1B74275  27.585   0.961   6.190
 5929POPC   C2B74276  27.562   0.943   6.643
 5929POPC   C3B74277  27.447   1.008   7.079
 5929POPC   C4B74278  27.539   1.279   7.452
 5930POPC   NC374279  35.529   7.587   5.310
 5930POPC   PO474280  35.164   7.026   5.274
 5930POPC   GL174281  35.362   7.209   5.669
 5930POPC   GL274282  35.685   7.025   5.735
 5930POPC   C1A74283  35.337   7.450   6.089
 5930POPC   D2A74284  35.519   7.718   6.446
 5930POPC   C3A74285  35.416   7.704   6.894
 5930POPC   C4A74286  35.043   7.605   7.112
 5930POPC   C1B74287  35.654   7.059   6.199
 5930POPC   C2B74288  35.492   7.208   6.627
 5930POPC   C3B74289  35.363   7.175   7.094
 5930POPC   C4B74290  35.578   7.072   7.533
 5931POPC   NC374291  36.524  29.313   5.403
 5931POPC   PO474292  37.055  28.904   5.562
 5931POPC   GL174293  36.860  29.233   5.791
 5931POPC   GL274294  36.566  29.049   5.853
 5931POPC   C1A74295  36.807  29.276   6.233
 5931POPC   D2A74296  37.007  28.972   6.489
 5931POPC   C3A74297  37.099  29.040   6.902
 5931POPC   C4A74298  37.154  28.781   7.267
 5931POPC   C1B74299  36.549  28.816   6.255
 5931POPC   C2B74300  36.498  29.054   6.632
 5931POPC   C3B74301  36.611  29.104   7.040
 5931POPC   C4B74302  36.656  28.964   7.433
 5932POPC   NC374303  10.989  14.973   5.492
 5932POPC   PO474304  11.615  14.870   5.382
 5932POPC   GL174305  11.425  15.066   5.786
 5932POPC   GL274306  11.113  15.308   5.889
 5932POPC   C1A74307  11.293  14.918   6.193
 5932POPC   D2A74308  11.010  14.791   6.537
 5932POPC   C3A74309  10.978  15.045   6.886
 5932POPC   C4A74310  11.216  15.180   7.246
 5932POPC   C1B74311  11.059  15.318   6.379
 5932POPC   C2B74312  11.396  15.297   6.734
 5932POPC   C3B74313  11.513  15.576   7.110
 5932POPC   C4B74314  11.517  15.440   7.572
 5933POPC   NC374315  24.411  15.134   5.357
 5933POPC   PO474316  24.864  15.614   5.471
 5933POPC   GL174317  24.619  15.366   5.792
 5933POPC   GL274318  24.620  14.989   5.843
 5933POPC   C1A74319  24.460  15.469   6.213
 5933POPC   D2A74320  24.353  15.245   6.601
 5933POPC   C3A74321  24.479  15.441   6.998
 5933POPC   C4A74322  24.247  15.490   7.383
 5933POPC   C1B74323  24.750  15.056   6.309
 5933POPC   C2B74324  24.804  15.048   6.771
 5933POPC   C3B74325  24.677  14.999   7.210
 5933POPC   C4B74326  24.854  14.931   7.637
 5934POPC   NC374327  25.464  25.066   5.315
 5934POPC   PO474328  24.958  25.561   5.459
 5934POPC   GL174329  25.233  25.376   5.721
 5934POPC   GL274330  25.199  25.011   5.765
 5934POPC   C1A74331  25.160  25.355   6.141
 5934POPC   D2A74332  25.299  25.278   6.537
 5934POPC   C3A74333  25.182  25.514   6.922
 5934POPC   C4A74334  25.099  25.497   7.369
 5934POPC   C1B74335  25.494  24.948   6.117
 5934POPC   C2B74336  25.596  24.843   6.541
 5934POPC   C3B74337  25.363  24.935   6.913
 5934POPC   C4B74338  25.375  25.081   7.333
 5935POPC   NC374339  36.716   6.110   5.385
 5935POPC   PO474340  36.904   6.694   5.252
 5935POPC   GL174341  36.712   6.638   5.629
 5935POPC   GL274342  36.616   6.925   5.803
 5935POPC   C1A74343  36.828   6.512   6.044
 5935POPC   D2A74344  36.681   6.617   6.438
 5935POPC   C3A74345  36.867   6.729   6.829
 5935POPC   C4A74346  36.900   6.461   7.194
 5935POPC   C1B74347  36.952   7.002   6.165
 5935POPC   C2B74348  37.235   6.971   6.557
 5935POPC   C3B74349  37.206   7.075   7.022
 5935POPC   C4B74350  36.922   6.953   7.362
 5936POPC   NC374351  18.806  40.263   5.481
 5936POPC   PO474352  19.127  39.696   5.407
 5936POPC   GL174353  19.069  39.926   5.772
 5936POPC   GL274354  18.835  39.720   5.876
 5936POPC   C1A74355  19.101  40.268   6.114
 5936POPC   D2A74356  19.007  40.431   6.551
 5936POPC   C3A74357  18.978  40.085   6.849
 5936POPC   C4A74358  19.241  40.070   7.206
 5936POPC   C1B74359  19.172  39.600   6.192
 5936POPC   C2B74360  19.163  39.629   6.669
 5936POPC   C3B74361  19.265  39.572   7.113
 5936POPC   C4B74362  19.019  39.709   7.480
 5937POPC   NC374363   5.017  40.421   5.357
 5937POPC   PO474364   4.967  41.092   5.402
 5937POPC   GL174365   5.141  40.803   5.723
 5937POPC   GL274366   5.504  40.906   5.781
 5937POPC   C1A74367   5.189  40.600   6.142
 5937POPC   D2A74368   5.051  40.761   6.549
 5937POPC   C3A74369   5.222  40.560   6.907
 5937POPC   C4A74370   5.008  40.324   7.236
 5937POPC   C1B74371   5.470  41.037   6.212
 5937POPC   C2B74372   5.418  41.112   6.660
 5937POPC   C3B74373   5.172  41.071   7.036
 5937POPC   C4B74374   4.857  40.820   7.191
 5938POPC   NC374375  34.877  12.024   5.488
 5938POPC   PO474376  34.202  12.003   5.372
 5938POPC   GL174377  34.424  12.202   5.755
 5938POPC   GL274378  34.209  12.465   5.882
 5938POPC   C1A74379  34.763  12.187   6.123
 5938POPC   D2A74380  34.748  11.885   6.480
 5938POPC   C3A74381  34.666  12.021   6.894
 5938POPC   C4A74382  34.667  12.119   7.311
 5938POPC   C1B74383  34.312  12.343   6.264
 5938POPC   C2B74384  34.454  12.425   6.672
 5938POPC   C3B74385  34.240  12.281   7.065
 5938POPC   C4B74386  34.320  12.397   7.509
 5939POPC   NC374387  19.046  37.925   5.438
 5939POPC   PO474388  18.878  37.288   5.185
 5939POPC   GL174389  18.959  37.449   5.639
 5939POPC   GL274390  18.761  37.267   5.889
 5939POPC   C1A74391  18.974  37.713   6.075
 5939POPC   D2A74392  18.839  37.798   6.543
 5939POPC   C3A74393  19.103  37.693   6.958
 5939POPC   C4A74394  19.172  37.839   7.394
 5939POPC   C1B74395  18.709  37.349   6.328
 5939POPC   C2B74396  18.808  37.331   6.767
 5939POPC   C3B74397  18.785  37.274   7.227
 5939POPC   C4B74398  18.875  37.504   7.621
 5940POPC   NC374399  21.616  35.564   5.477
 5940POPC   PO474400  21.016  35.227   5.418
 5940POPC   GL174401  21.253  35.190   5.784
 5940POPC   GL274402  21.619  35.052   5.752
 5940POPC   C1A74403  21.071  35.309   6.203
 5940POPC   D2A74404  20.748  35.239   6.529
 5940POPC   C3A74405  20.975  35.184   6.900
 5940POPC   C4A74406  21.107  35.481   7.194
 5940POPC   C1B74407  21.582  35.263   6.175
 5940POPC   C2B74408  21.422  35.231   6.602
 5940POPC   C3B74409  21.571  35.248   7.029
 5940POPC   C4B74410  21.806  35.331   7.406
 5941POPC   NC374411   3.481  11.611   5.433
 5941POPC   PO474412   3.603  12.243   5.437
 5941POPC   GL174413   3.547  11.963   5.823
 5941POPC   GL274414   3.291  12.158   5.979
 5941POPC   C1A74415   3.564  11.865   6.291
 5941POPC   D2A74416   3.420  12.180   6.609
 5941POPC   C3A74417   3.435  12.051   7.028
 5941POPC   C4A74418   3.591  11.906   7.416
 5941POPC   C1B74419   3.710  12.342   6.183
 5941POPC   C2B74420   3.792  12.531   6.591
 5941POPC   C3B74421   3.932  12.319   6.974
 5941POPC   C4B74422   3.979  12.328   7.406
 5942POPC   NC374423  11.355  19.329   5.514
 5942POPC   PO474424  11.207  18.663   5.445
 5942POPC   GL174425  11.423  18.881   5.768
 5942POPC   GL274426  11.149  19.028   5.879
 5942POPC   C1A74427  11.547  19.010   6.216
 5942POPC   D2A74428  11.536  19.386   6.461
 5942POPC   C3A74429  11.506  19.340   6.865
 5942POPC   C4A74430  11.460  19.112   7.230
 5942POPC   C1B74431  11.070  19.168   6.283
 5942POPC   C2B74432  11.129  19.020   6.684
 5942POPC   C3B74433  10.998  19.228   7.025
 5942POPC   C4B74434  11.041  19.382   7.391
 5943POPC   NC374435  31.096  40.361   5.524
 5943POPC   PO474436  31.641  39.987   5.290
 5943POPC   GL174437  31.667  40.045   5.779
 5943POPC   GL274438  31.338  40.090   5.954
 5943POPC   C1A74439  31.765  40.150   6.251
 5943POPC   D2A74440  31.784  40.245   6.713
 5943POPC   C3A74441  31.612  39.972   7.067
 5943POPC   C4A74442  31.598  40.051   7.537
 5943POPC   C1B74443  31.043  39.876   6.224
 5943POPC   C2B74444  31.059  39.631   6.564
 5943POPC   C3B74445  31.059  39.870   6.929
 5943POPC   C4B74446  31.184  39.812   7.334
 5944POPC   NC374447   8.396  30.963   5.396
 5944POPC   PO474448   8.116  30.421   5.226
 5944POPC   GL174449   8.226  30.498   5.684
 5944POPC   GL274450   8.573  30.635   5.774
 5944POPC   C1A74451   8.018  30.574   6.113
 5944POPC   D2A74452   7.834  30.846   6.457
 5944POPC   C3A74453   8.028  30.880   6.892
 5944POPC   C4A74454   8.268  30.682   7.228
 5944POPC   C1B74455   8.522  30.613   6.234
 5944POPC   C2B74456   8.461  30.670   6.685
 5944POPC   C3B74457   8.662  30.440   7.012
 5944POPC   C4B74458   8.457  30.217   7.367
 5945POPC   NC374459  25.670  20.701   5.263
 5945POPC   PO474460  26.014  20.146   5.099
 5945POPC   GL174461  25.953  20.365   5.572
 5945POPC   GL274462  25.618  20.282   5.764
 5945POPC   C1A74463  26.012  20.493   6.049
 5945POPC   D2A74464  26.342  20.581   6.384
 5945POPC   C3A74465  26.322  20.651   6.844
 5945POPC   C4A74466  26.229  20.753   7.284
 5945POPC   C1B74467  25.613  20.271   6.241
 5945POPC   C2B74468  25.835  20.550   6.557
 5945POPC   C3B74469  25.830  20.519   7.020
 5945POPC   C4B74470  25.925  20.215   7.352
 5946POPC   NC374471  24.847  44.938   5.617
 5946POPC   PO474472  24.237  44.733   5.392
 5946POPC   GL174473  24.498  44.577   5.798
 5946POPC   GL274474  24.733  44.258   5.840
 5946POPC   C1A74475  24.345  44.486   6.221
 5946POPC   D2A74476  24.281  44.701   6.600
 5946POPC   C3A74477  24.259  44.466   6.972
 5946POPC   C4A74478  24.246  44.396   7.420
 5946POPC   C1B74479  24.848  44.504   6.209
 5946POPC   C2B74480  24.825  44.710   6.597
 5946POPC   C3B74481  24.649  44.805   6.966
 5946POPC   C4B74482  24.698  44.540   7.269
 5947POPC   NC374483   2.311  43.266   5.365
 5947POPC   PO474484   1.657  43.266   5.486
 5947POPC   GL174485   1.982  43.254   5.808
 5947POPC   GL274486   2.248  42.947   5.770
 5947POPC   C1A74487   1.773  43.296   6.213
 5947POPC   D2A74488   1.854  43.093   6.580
 5947POPC   C3A74489   1.725  43.301   6.947
 5947POPC   C4A74490   1.809  43.197   7.379
 5947POPC   C1B74491   2.043  42.838   6.144
 5947POPC   C2B74492   2.038  42.619   6.520
 5947POPC   C3B74493   2.088  42.778   6.909
 5947POPC   C4B74494   1.943  42.691   7.291
 5948POPC   NC374495   7.070  14.291   5.397
 5948POPC   PO474496   7.606  14.728   5.321
 5948POPC   GL174497   7.394  14.522   5.699
 5948POPC   GL274498   7.631  14.346   5.839
 5948POPC   C1A74499   7.201  14.396   6.127
 5948POPC   D2A74500   7.481  14.396   6.505
 5948POPC   C3A74501   7.374  14.546   6.905
 5948POPC   C4A74502   7.413  14.369   7.324
 5948POPC   C1B74503   7.577  14.040   6.155
 5948POPC   C2B74504   7.668  13.915   6.546
 5948POPC   C3B74505   7.502  14.021   6.944
 5948POPC   C4B74506   7.675  13.882   7.302
 5949POPC   NC374507  11.548  12.492   5.359
 5949POPC   PO474508  11.107  13.080   5.506
 5949POPC   GL174509  11.312  12.897   5.868
 5949POPC   GL274510  11.378  12.526   5.871
 5949POPC   C1A74511  11.594  12.846   6.259
 5949POPC   D2A74512  11.566  12.773   6.727
 5949POPC   C3A74513  11.325  12.988   7.081
 5949POPC   C4A74514  11.353  13.234   7.471
 5949POPC   C1B74515  11.115  12.613   6.251
 5949POPC   C2B74516  11.028  12.698   6.691
 5949POPC   C3B74517  11.036  12.556   7.128
 5949POPC   C4B74518  11.063  12.801   7.517
 5950POPC   NC374519  30.841   6.698   5.434
 5950POPC   PO474520  30.245   6.311   5.429
 5950POPC   GL174521  30.426   6.596   5.857
 5950POPC   GL274522  30.783   6.695   5.917
 5950POPC   C1A74523  30.520   6.839   6.289
 5950POPC   D2A74524  30.615   6.653   6.661
 5950POPC   C3A74525  30.611   6.868   7.007
 5950POPC   C4A74526  30.529   6.499   7.224
 5950POPC   C1B74527  30.870   6.429   6.264
 5950POPC   C2B74528  31.098   6.495   6.633
 5950POPC   C3B74529  30.997   6.515   7.037
 5950POPC   C4B74530  30.969   6.315   7.415
 5951POPC   NC374531   2.894  29.342   5.310
 5951POPC   PO474532   3.138  29.962   5.161
 5951POPC   GL174533   2.925  29.876   5.573
 5951POPC   GL274534   2.602  30.068   5.666
 5951POPC   C1A74535   2.868  29.890   6.050
 5951POPC   D2A74536   2.643  30.116   6.383
 5951POPC   C3A74537   2.763  30.002   6.809
 5951POPC   C4A74538   2.930  29.999   7.216
 5951POPC   C1B74539   2.386  29.771   6.014
 5951POPC   C2B74540   2.403  29.662   6.468
 5951POPC   C3B74541   2.342  29.721   6.901
 5951POPC   C4B74542   2.610  29.587   7.170
 5952POPC   NC374543   1.001  12.782   5.431
 5952POPC   PO474544   1.348  13.388   5.434
 5952POPC   GL174545   1.338  13.029   5.729
 5952POPC   GL274546   1.688  12.894   5.780
 5952POPC   C1A74547   1.331  12.745   6.125
 5952POPC   D2A74548   1.294  12.578   6.577
 5952POPC   C3A74549   1.187  12.833   6.969
 5952POPC   C4A74550   1.004  13.121   7.294
 5952POPC   C1B74551   1.611  13.214   6.118
 5952POPC   C2B74552   1.455  13.115   6.517
 5952POPC   C3B74553   1.343  13.320   6.881
 5952POPC   C4B74554   1.500  13.178   7.250
 5953POPC   NC374555  14.724  13.539   5.189
 5953POPC   PO474556  14.193  13.840   5.508
 5953POPC   GL174557  14.362  13.512   5.758
 5953POPC   GL274558  14.741  13.467   5.769
 5953POPC   C1A74559  14.438  13.499   6.184
 5953POPC   D2A74560  14.464  13.413   6.598
 5953POPC   C3A74561  14.336  13.762   6.833
 5953POPC   C4A74562  14.320  13.803   7.259
 5953POPC   C1B74563  14.938  13.599   6.206
 5953POPC   C2B74564  14.870  13.716   6.677
 5953POPC   C3B74565  14.768  13.561   7.123
 5953POPC   C4B74566  14.782  13.752   7.557
 5954POPC   NC374567  25.706  30.520   5.297
 5954POPC   PO474568  26.256  30.736   5.625
 5954POPC   GL174569  25.851  30.755   5.768
 5954POPC   GL274570  25.856  31.102   5.752
 5954POPC   C1A74571  25.692  30.677   6.182
 5954POPC   D2A74572  25.667  30.449   6.534
 5954POPC   C3A74573  25.742  30.651   6.906
 5954POPC   C4A74574  26.093  30.644   7.154
 5954POPC   C1B74575  26.068  31.053   6.163
 5954POPC   C2B74576  26.092  30.844   6.556
 5954POPC   C3B74577  26.036  31.104   6.924
 5954POPC   C4B74578  26.316  31.099   7.286
 5955POPC   NC374579   7.631  25.602   5.529
 5955POPC   PO474580   7.670  24.998   5.260
 5955POPC   GL174581   7.448  25.125   5.652
 5955POPC   GL274582   7.157  25.375   5.614
 5955POPC   C1A74583   7.407  25.209   6.104
 5955POPC   D2A74584   7.617  25.230   6.509
 5955POPC   C3A74585   7.454  25.039   6.873
 5955POPC   C4A74586   7.641  24.982   7.277
 5955POPC   C1B74587   6.940  25.532   6.012
 5955POPC   C2B74588   7.083  25.654   6.449
 5955POPC   C3B74589   7.344  25.571   6.841
 5955POPC   C4B74590   7.257  25.315   7.254
 5956POPC   NC374591   0.952  27.717   5.471
 5956POPC   PO474592   1.596  27.499   5.264
 5956POPC   GL174593   1.396  27.664   5.693
 5956POPC   GL274594   1.137  27.389   5.831
 5956POPC   C1A74595   1.420  27.720   6.162
 5956POPC   D2A74596   1.414  27.397   6.502
 5956POPC   C3A74597   1.392  27.592   6.933
 5956POPC   C4A74598   1.606  27.671   7.320
 5956POPC   C1B74599   0.905  27.581   6.179
 5956POPC   C2B74600   0.976  27.648   6.617
 5956POPC   C3B74601   0.843  27.546   7.053
 5956POPC   C4B74602   1.065  27.550   7.464
 5957POPC   NC374603   5.304  27.531   5.324
 5957POPC   PO474604   4.965  28.102   5.495
 5957POPC   GL174605   5.119  27.775   5.774
 5957POPC   GL274606   4.967  27.439   5.729
 5957POPC   C1A74607   5.005  27.761   6.204
 5957POPC   D2A74608   4.886  27.954   6.600
 5957POPC   C3A74609   5.165  27.752   6.887
 5957POPC   C4A74610   5.127  27.464   7.212
 5957POPC   C1B74611   4.837  27.232   6.132
 5957POPC   C2B74612   4.969  27.169   6.565
 5957POPC   C3B74613   4.770  27.250   6.931
 5957POPC   C4B74614   4.632  27.682   7.035
 5958POPC   NC374615  11.145  16.990   5.332
 5958POPC   PO474616  11.726  17.076   5.596
 5958POPC   GL174617  11.382  17.102   5.829
 5958POPC   GL274618  11.272  16.780   5.801
 5958POPC   C1A74619  11.396  16.979   6.273
 5958POPC   D2A74620  11.250  16.645   6.539
 5958POPC   C3A74621  11.440  16.629   6.923
 5958POPC   C4A74622  11.547  16.974   7.205
 5958POPC   C1B74623  10.956  16.786   6.116
 5958POPC   C2B74624  10.844  16.960   6.517
 5958POPC   C3B74625  11.034  16.946   6.903
 5958POPC   C4B74626  11.074  16.724   7.276
 5959POPC   NC374627  11.934   9.803   5.459
 5959POPC   PO474628  12.353   9.325   5.465
 5959POPC   GL174629  12.076   9.306   5.822
 5959POPC   GL274630  11.714   9.294   5.852
 5959POPC   C1A74631  12.092   9.308   6.239
 5959POPC   D2A74632  12.156   9.691   6.432
 5959POPC   C3A74633  12.133   9.713   6.874
 5959POPC   C4A74634  12.354   9.978   7.179
 5959POPC   C1B74635  11.745   9.708   6.103
 5959POPC   C2B74636  11.761   9.994   6.489
 5959POPC   C3B74637  11.781  10.124   6.924
 5959POPC   C4B74638  11.779   9.945   7.300
 5960POPC   NC374639   8.446   9.752   5.421
 5960POPC   PO474640   7.734   9.664   5.483
 5960POPC   GL174641   7.928   9.905   5.824
 5960POPC   GL274642   8.284   9.998   5.815
 5960POPC   C1A74643   7.986   9.755   6.242
 5960POPC   D2A74644   7.888   9.432   6.549
 5960POPC   C3A74645   8.133   9.512   6.922
 5960POPC   C4A74646   7.955   9.828   7.162
 5960POPC   C1B74647   8.496   9.673   6.087
 5960POPC   C2B74648   8.446   9.580   6.512
 5960POPC   C3B74649   8.580   9.798   6.870
 5960POPC   C4B74650   8.468   9.756   7.250
 5961POPC   NC374651   0.820  43.131   5.347
 5961POPC   PO474652   0.233  43.418   5.290
 5961POPC   GL174653   0.428  43.196   5.677
 5961POPC   GL274654   0.208  43.029   5.811
 5961POPC   C1A74655   0.587  43.166   6.157
 5961POPC   D2A74656   0.506  42.916   6.566
 5961POPC   C3A74657   0.643  43.059   6.998
 5961POPC   C4A74658   0.545  43.205   7.434
 5961POPC   C1B74659   0.094  43.342   6.119
 5961POPC   C2B74660   0.129  43.391   6.583
 5961POPC   C3B74661   0.131  43.085   6.910
 5961POPC   C4B74662   0.177  42.912   7.311
 5962POPC   NC374663  20.374   1.690   5.483
 5962POPC   PO474664  20.807   2.087   5.253
 5962POPC   GL174665  20.626   2.090   5.730
 5962POPC   GL274666  20.519   1.811   5.944
 5962POPC   C1A74667  20.576   2.248   6.200
 5962POPC   D2A74668  20.350   2.273   6.600
 5962POPC   C3A74669  20.576   2.235   6.994
 5962POPC   C4A74670  20.574   1.981   7.351
 5962POPC   C1B74671  20.756   1.780   6.327
 5962POPC   C2B74672  20.568   1.748   6.742
 5962POPC   C3B74673  20.438   1.541   7.152
 5962POPC   C4B74674  20.448   1.587   7.629
 5963POPC   NC374675  35.999  32.406   5.457
 5963POPC   PO474676  36.228  31.899   5.429
 5963POPC   GL174677  36.282  32.136   5.808
 5963POPC   GL274678  35.935  32.100   5.871
 5963POPC   C1A74679  36.356  32.408   6.186
 5963POPC   D2A74680  36.419  32.288   6.627
 5963POPC   C3A74681  36.173  32.385   7.008
 5963POPC   C4A74682  36.222  32.185   7.391
 5963POPC   C1B74683  36.055  32.004   6.274
 5963POPC   C2B74684  35.946  32.046   6.689
 5963POPC   C3B74685  35.962  31.874   7.085
 5963POPC   C4B74686  35.925  31.804   7.557
 5964POPC   NC374687  12.754   0.883   5.513
 5964POPC   PO474688  12.528   1.469   5.584
 5964POPC   GL174689  12.728   1.372   5.980
 5964POPC   GL274690  12.957   1.089   5.934
 5964POPC   C1A74691  12.931   1.292   6.403
 5964POPC   D2A74692  13.168   1.153   6.787
 5964POPC   C3A74693  13.019   1.374   7.084
 5964POPC   C4A74694  12.661   1.626   6.957
 5964POPC   C1B74695  12.625   0.921   6.202
 5964POPC   C2B74696  12.473   1.062   6.603
 5964POPC   C3B74697  12.592   1.074   7.024
 5964POPC   C4B74698  12.937   0.858   7.188
 5965POPC   NC374699  41.983  20.484   5.493
 5965POPC   PO474700  41.392  20.783   5.500
 5965POPC   GL174701  41.438  20.648   5.880
 5965POPC   GL274702  41.583  20.378   5.827
 5965POPC   C1A74703  41.389  20.778   6.276
 5965POPC   D2A74704  41.297  20.747   6.680
 5965POPC   C3A74705  41.551  20.928   7.010
 5965POPC   C4A74706  41.558  20.760   7.437
 5965POPC   C1B74707  41.820  20.448   6.201
 5965POPC   C2B74708  41.786  20.599   6.635
 5965POPC   C3B74709  41.702  20.458   7.060
 5965POPC   C4B74710  41.961  20.443   7.436
 5966POPC   NC374711  27.866  34.342   5.251
 5966POPC   PO474712  27.581  34.909   5.268
 5966POPC   GL174713  27.489  34.752   5.690
 5966POPC   GL274714  27.575  34.399   5.710
 5966POPC   C1A74715  27.665  34.717   6.133
 5966POPC   D2A74716  27.698  34.513   6.554
 5966POPC   C3A74717  27.688  34.705   6.967
 5966POPC   C4A74718  27.933  34.510   7.289
 5966POPC   C1B74719  27.409  34.276   6.130
 5966POPC   C2B74720  27.379  34.134   6.589
 5966POPC   C3B74721  27.514  34.220   7.012
 5966POPC   C4B74722  27.507  34.068   7.427
 5967POPC   NC374723  25.552  33.724   5.444
 5967POPC   PO474724  24.962  34.008   5.243
 5967POPC   GL174725  25.117  33.900   5.660
 5967POPC   GL274726  25.018  33.617   5.877
 5967POPC   C1A74727  25.304  34.010   6.074
 5967POPC   D2A74728  25.225  34.228   6.466
 5967POPC   C3A74729  25.348  33.972   6.795
 5967POPC   C4A74730  25.204  33.933   7.208
 5967POPC   C1B74731  25.142  33.348   6.227
 5967POPC   C2B74732  25.242  33.397   6.675
 5967POPC   C3B74733  25.298  33.407   7.137
 5967POPC   C4B74734  25.592  33.578   7.425
 5968POPC   NC374735   1.576   0.223   5.568
 5968POPC   PO474736   2.000   0.461   5.006
 5968POPC   GL174737   2.015   0.499   5.536
 5968POPC   GL274738   2.337   0.424   5.777
 5968POPC   C1A74739   1.966   0.644   6.010
 5968POPC   D2A74740   2.262   0.638   6.383
 5968POPC   C3A74741   2.136   0.490   6.795
 5968POPC   C4A74742   2.032   0.506   7.266
 5968POPC   C1B74743   2.138   0.179   6.159
 5968POPC   C2B74744   1.886   0.060   6.556
 5968POPC   C3B74745   2.024   0.026   6.997
 5968POPC   C4B74746   2.427   0.234   7.125
 5969POPC   NC374747  19.266  44.194   5.096
 5969POPC   PO474748  18.852  44.676   5.424
 5969POPC   GL174749  18.988  44.613   5.818
 5969POPC   GL274750  18.804  44.312   5.831
 5969POPC   C1A74751  19.277  44.715   6.161
 5969POPC   D2A74752  19.197  44.904   6.558
 5969POPC   C3A74753  19.031  44.694   6.888
 5969POPC   C4A74754  18.853  44.866   7.242
 5969POPC   C1B74755  19.051  44.252   6.208
 5969POPC   C2B74756  19.312  44.354   6.559
 5969POPC   C3B74757  19.151  44.184   6.921
 5969POPC   C4B74758  19.046  44.346   7.265
 5970POPC   NC374759  32.607  33.651   5.430
 5970POPC   PO474760  32.230  34.180   5.436
 5970POPC   GL174761  32.131  33.931   5.783
 5970POPC   GL274762  31.740  33.949   5.834
 5970POPC   C1A74763  32.314  33.704   6.164
 5970POPC   D2A74764  32.543  33.707   6.562
 5970POPC   C3A74765  32.353  33.775   6.982
 5970POPC   C4A74766  32.538  33.985   7.335
 5970POPC   C1B74767  31.936  34.094   6.208
 5970POPC   C2B74768  32.085  34.005   6.598
 5970POPC   C3B74769  32.033  34.195   6.984
 5970POPC   C4B74770  32.018  33.974   7.374
 5971POPC   NC374771  11.509  14.422   5.329
 5971POPC   PO474772  12.217  14.446   5.329
 5971POPC   GL174773  12.044  14.404   5.728
 5971POPC   GL274774  11.805  14.140   5.682
 5971POPC   C1A74775  12.183  14.472   6.153
 5971POPC   D2A74776  12.012  14.359   6.549
 5971POPC   C3A74777  12.187  14.426   6.920
 5971POPC   C4A74778  11.995  14.585   7.260
 5971POPC   C1B74779  11.770  14.129   6.152
 5971POPC   C2B74780  11.623  14.038   6.600
 5971POPC   C3B74781  11.666  14.260   7.011
 5971POPC   C4B74782  11.623  14.184   7.465
 5972POPC   NC374783  31.010  30.112   5.319
 5972POPC   PO474784  30.569  29.549   5.353
 5972POPC   GL174785  30.741  29.803   5.686
 5972POPC   GL274786  31.054  29.679   5.692
 5972POPC   C1A74787  30.783  29.985   6.112
 5972POPC   D2A74788  30.602  29.966   6.529
 5972POPC   C3A74789  30.643  29.677   6.834
 5972POPC   C4A74790  30.587  29.952   7.182
 5972POPC   C1B74791  31.173  29.617   6.126
 5972POPC   C2B74792  31.093  29.805   6.520
 5972POPC   C3B74793  30.995  30.031   6.879
 5972POPC   C4B74794  31.095  29.996   7.268
 5973POPC   NC374795   8.665  34.502   5.472
 5973POPC   PO474796   9.276  34.803   5.577
 5973POPC   GL174797   9.093  34.532   5.831
 5973POPC   GL274798   9.363  34.330   5.887
 5973POPC   C1A74799   8.827  34.597   6.200
 5973POPC   D2A74800   8.785  34.348   6.568
 5973POPC   C3A74801   8.828  34.525   6.964
 5973POPC   C4A74802   8.828  34.232   7.293
 5973POPC   C1B74803   9.360  34.577   6.297
 5973POPC   C2B74804   9.439  34.627   6.767
 5973POPC   C3B74805   9.286  34.445   7.188
 5973POPC   C4B74806   9.155  34.634   7.565
 5974POPC   NC374807  29.165  20.378   5.050
 5974POPC   PO474808  28.852  20.747   5.514
 5974POPC   GL174809  29.256  20.797   5.726
 5974POPC   GL274810  29.427  20.446   5.776
 5974POPC   C1A74811  29.158  20.880   6.159
 5974POPC   D2A74812  28.960  20.705   6.523
 5974POPC   C3A74813  29.116  20.812   6.916
 5974POPC   C4A74814  29.085  20.753   7.332
 5974POPC   C1B74815  29.198  20.339   6.196
 5974POPC   C2B74816  29.071  20.199   6.644
 5974POPC   C3B74817  29.193  20.297   7.085
 5974POPC   C4B74818  29.489  20.479   7.445
 5975POPC   NC374819  29.081   1.679   5.476
 5975POPC   PO474820  29.322   2.278   5.543
 5975POPC   GL174821  29.212   2.030   5.899
 5975POPC   GL274822  28.870   1.903   5.907
 5975POPC   C1A74823  29.172   2.020   6.347
 5975POPC   D2A74824  29.282   1.792   6.716
 5975POPC   C3A74825  29.359   2.083   7.058
 5975POPC   C4A74826  29.262   2.099   7.512
 5975POPC   C1B74827  28.809   2.339   6.099
 5975POPC   C2B74828  28.708   2.473   6.519
 5975POPC   C3B74829  28.949   2.283   6.831
 5975POPC   C4B74830  29.021   2.437   7.230
 5976POPC   NC374831  13.266  42.220   5.476
 5976POPC   PO474832  13.874  42.452   5.212
 5976POPC   GL174833  13.709  42.536   5.701
 5976POPC   GL274834  13.380  42.507   5.870
 5976POPC   C1A74835  13.733  42.362   6.189
 5976POPC   D2A74836  13.765  42.500   6.636
 5976POPC   C3A74837  13.719  42.196   6.988
 5976POPC   C4A74838  13.673  42.107   7.455
 5976POPC   C1B74839  13.283  42.113   6.137
 5976POPC   C2B74840  13.335  42.170   6.585
 5976POPC   C3B74841  13.282  42.521   6.867
 5976POPC   C4B74842  13.409  42.525   7.279
 5977POPC   NC374843  40.331   5.485   5.316
 5977POPC   PO474844  39.776   5.742   5.484
 5977POPC   GL174845  39.986   5.861   5.856
 5977POPC   GL274846  39.739   6.107   5.966
 5977POPC   C1A74847  40.196   5.770   6.264
 5977POPC   D2A74848  40.094   5.625   6.663
 5977POPC   C3A74849  40.177   5.696   7.118
 5977POPC   C4A74850  39.785   5.686   7.379
 5977POPC   C1B74851  40.058   6.244   6.239
 5977POPC   C2B74852  39.968   6.129   6.670
 5977POPC   C3B74853  39.867   6.137   7.087
 5977POPC   C4B74854  39.945   6.162   7.520
 5978POPC   NC374855   9.499   2.231   5.515
 5978POPC   PO474856   9.009   1.827   5.155
 5978POPC   GL174857   8.847   1.889   5.633
 5978POPC   GL274858   9.079   2.149   5.793
 5978POPC   C1A74859   8.741   1.975   6.126
 5978POPC   D2A74860   8.749   2.361   6.416
 5978POPC   C3A74861   8.753   2.340   6.837
 5978POPC   C4A74862   9.032   2.195   7.137
 5978POPC   C1B74863   9.254   2.097   6.227
 5978POPC   C2B74864   9.072   1.991   6.622
 5978POPC   C3B74865   8.797   1.798   6.906
 5978POPC   C4B74866   9.088   1.683   7.197
 5979POPC   NC374867  19.599  40.819   5.389
 5979POPC   PO474868  19.862  40.214   5.407
 5979POPC   GL174869  19.681  40.473   5.794
 5979POPC   GL274870  19.867  40.809   5.852
 5979POPC   C1A74871  19.547  40.616   6.240
 5979POPC   D2A74872  19.773  40.758   6.662
 5979POPC   C3A74873  19.919  40.609   7.092
 5979POPC   C4A74874  19.948  40.496   7.557
 5979POPC   C1B74875  19.775  41.074   6.248
 5979POPC   C2B74876  19.688  41.268   6.658
 5979POPC   C3B74877  19.860  41.181   7.063
 5979POPC   C4B74878  19.844  40.965   7.466
 5980POPC   NC374879  28.762  26.970   5.495
 5980POPC   PO474880  28.086  26.887   5.478
 5980POPC   GL174881  28.350  26.924   5.843
 5980POPC   GL274882  28.472  26.608   5.970
 5980POPC   C1A74883  28.327  27.029   6.278
 5980POPC   D2A74884  28.288  26.949   6.733
 5980POPC   C3A74885  28.601  27.067   7.044
 5980POPC   C4A74886  28.686  26.971   7.484
 5980POPC   C1B74887  28.520  26.560   6.431
 5980POPC   C2B74888  28.650  26.567   6.863
 5980POPC   C3B74889  28.376  26.638   7.213
 5980POPC   C4B74890  28.299  26.446   7.601
 5981POPC   NC374891  40.470   7.610   5.259
 5981POPC   PO474892  39.840   7.399   5.384
 5981POPC   GL174893  39.867   7.356   5.802
 5981POPC   GL274894  39.690   7.067   5.843
 5981POPC   C1A74895  39.957   7.584   6.190
 5981POPC   D2A74896  39.808   7.450   6.593
 5981POPC   C3A74897  39.947   7.626   6.983
 5981POPC   C4A74898  39.922   7.519   7.402
 5981POPC   C1B74899  39.890   7.067   6.249
 5981POPC   C2B74900  40.082   7.005   6.652
 5981POPC   C3B74901  39.923   7.095   7.080
 5981POPC   C4B74902  40.077   7.053   7.535
 5982POPC   NC374903  15.047  35.500   5.610
 5982POPC   PO474904  15.607  35.158   5.476
 5982POPC   GL174905  15.356  35.100   5.861
 5982POPC   GL274906  14.975  35.034   5.803
 5982POPC   C1A74907  15.288  35.336   6.252
 5982POPC   D2A74908  15.511  35.465   6.644
 5982POPC   C3A74909  15.194  35.531   6.972
 5982POPC   C4A74910  15.207  35.701   7.395
 5982POPC   C1B74911  14.775  35.098   6.193
 5982POPC   C2B74912  14.841  34.922   6.596
 5982POPC   C3B74913  14.782  35.122   6.992
 5982POPC   C4B74914  14.851  35.332   7.378
 5983POPC   NC374915  19.121  33.463   5.389
 5983POPC   PO474916  19.212  32.800   5.438
 5983POPC   GL174917  18.924  33.021   5.705
 5983POPC   GL274918  19.190  33.192   5.842
 5983POPC   C1A74919  18.876  32.984   6.194
 5983POPC   D2A74920  18.986  32.635   6.510
 5983POPC   C3A74921  18.984  32.758   6.943
 5983POPC   C4A74922  19.007  33.214   7.078
 5983POPC   C1B74923  19.399  32.994   6.224
 5983POPC   C2B74924  19.371  32.977   6.680
 5983POPC   C3B74925  19.442  32.937   7.138
 5983POPC   C4B74926  19.112  32.838   7.426
 5984POPC   NC374927  30.092  30.652   5.454
 5984POPC   PO474928  29.429  30.777   5.465
 5984POPC   GL174929  29.713  30.725   5.785
 5984POPC   GL274930  29.660  30.410   5.871
 5984POPC   C1A74931  29.973  30.759   6.158
 5984POPC   D2A74932  29.934  30.950   6.546
 5984POPC   C3A74933  30.069  30.712   6.878
 5984POPC   C4A74934  29.893  30.812   7.254
 5984POPC   C1B74935  29.979  30.259   6.156
 5984POPC   C2B74936  30.216  30.332   6.526
 5984POPC   C3B74937  30.186  30.194   6.937
 5984POPC   C4B74938  29.832  30.277   7.162
 5985POPC   NC374939  37.121  26.897   5.085
 5985POPC   PO474940  36.698  26.535   5.438
 5985POPC   GL174941  36.854  26.904   5.684
 5985POPC   GL274942  36.586  27.134   5.642
 5985POPC   C1A74943  36.986  26.943   6.130
 5985POPC   D2A74944  36.846  26.709   6.521
 5985POPC   C3A74945  37.142  26.693   6.886
 5985POPC   C4A74946  37.118  26.575   7.340
 5985POPC   C1B74947  36.537  27.213   6.124
 5985POPC   C2B74948  36.763  27.224   6.544
 5985POPC   C3B74949  36.757  27.046   6.970
 5985POPC   C4B74950  37.149  27.071   7.241
 5986POPC   NC374951   7.723  32.356   5.362
 5986POPC   PO474952   7.155  32.074   5.488
 5986POPC   GL174953   7.463  32.044   5.793
 5986POPC   GL274954   7.548  32.375   5.839
 5986POPC   C1A74955   7.668  32.047   6.212
 5986POPC   D2A74956   7.616  31.983   6.667
 5986POPC   C3A74957   7.585  32.347   6.933
 5986POPC   C4A74958   7.525  32.249   7.342
 5986POPC   C1B74959   7.218  32.486   6.156
 5986POPC   C2B74960   7.188  32.355   6.606
 5986POPC   C3B74961   7.123  32.530   7.034
 5986POPC   C4B74962   7.211  32.619   7.469
 5987POPC   NC374963  26.976   6.051   4.898
 5987POPC   PO474964  27.102   5.793   5.443
 5987POPC   GL174965  26.821   5.691   5.818
 5987POPC   GL274966  26.535   5.495   5.725
 5987POPC   C1A74967  26.879   5.705   6.279
 5987POPC   D2A74968  26.814   6.029   6.642
 5987POPC   C3A74969  26.878   6.060   7.137
 5987POPC   C4A74970  27.214   6.224   7.413
 5987POPC   C1B74971  26.417   5.468   6.171
 5987POPC   C2B74972  26.529   5.591   6.614
 5987POPC   C3B74973  26.393   5.585   7.018
 5987POPC   C4B74974  26.527   5.803   7.395
 5988POPC   NC374975  24.683  21.075   5.500
 5988POPC   PO474976  24.110  21.445   5.368
 5988POPC   GL174977  24.365  21.522   5.760
 5988POPC   GL274978  24.039  21.617   5.914
 5988POPC   C1A74979  24.542  21.242   6.144
 5988POPC   D2A74980  24.433  21.069   6.586
 5988POPC   C3A74981  24.579  21.212   6.964
 5988POPC   C4A74982  24.421  21.366   7.321
 5988POPC   C1B74983  24.293  21.690   6.288
 5988POPC   C2B74984  24.241  21.534   6.722
 5988POPC   C3B74985  24.065  21.675   7.109
 5988POPC   C4B74986  24.079  21.679   7.570
 5989POPC   NC374987  11.570  30.106   5.530
 5989POPC   PO474988  11.000  29.817   5.273
 5989POPC   GL174989  11.105  29.859   5.712
 5989POPC   GL274990  11.094  30.203   5.798
 5989POPC   C1A74991  11.345  29.709   6.075
 5989POPC   D2A74992  11.304  29.477   6.461
 5989POPC   C3A74993  11.518  29.548   6.840
 5989POPC   C4A74994  11.396  29.770   7.223
 5989POPC   C1B74995  11.327  30.211   6.194
 5989POPC   C2B74996  11.529  30.392   6.602
 5989POPC   C3B74997  11.328  30.374   6.995
 5989POPC   C4B74998  11.249  30.249   7.407
 5990POPC   NC374999   0.687   7.272   5.356
 5990POPC   PO475000   0.030   7.276   5.519
 5990POPC   GL175001   0.319   7.313   5.870
 5990POPC   GL275002   0.493   7.644   5.787
 5990POPC   C1A75003   0.333   7.446   6.334
 5990POPC   D2A75004   0.201   7.510   6.790
 5990POPC   C3A75005   0.277   7.122   7.041
 5990POPC   C4A75006   0.314   6.886   7.416
 5990POPC   C1B75007   0.802   7.447   6.078
 5990POPC   C2B75008   0.833   7.298   6.506
 5990POPC   C3B75009   0.702   7.421   6.925
 5990POPC   C4B75010   0.676   7.322   7.348
 5991POPC   NC375011  41.047  23.778   5.433
 5991POPC   PO475012  40.420  23.911   5.367
 5991POPC   GL175013  40.564  23.812   5.802
 5991POPC   GL275014  40.891  23.694   5.907
 5991POPC   C1A75015  40.589  23.957   6.244
 5991POPC   D2A75016  40.616  23.724   6.662
 5991POPC   C3A75017  40.733  23.863   7.058
 5991POPC   C4A75018  40.568  24.257   7.145
 5991POPC   C1B75019  41.055  23.804   6.333
 5991POPC   C2B75020  41.125  23.653   6.733
 5991POPC   C3B75021  41.231  23.693   7.148
 5991POPC   C4B75022  41.098  23.988   7.409
 5992POPC   NC375023  27.795  29.165   5.335
 5992POPC   PO475024  27.165  29.155   5.598
 5992POPC   GL175025  27.494  28.991   5.839
 5992POPC   GL275026  27.757  29.266   5.859
 5992POPC   C1A75027  27.439  29.036   6.283
 5992POPC   D2A75028  27.554  29.418   6.521
 5992POPC   C3A75029  27.497  29.268   6.941
 5992POPC   C4A75030  27.750  29.213   7.280
 5992POPC   C1B75031  27.936  29.060   6.235
 5992POPC   C2B75032  27.950  29.095   6.694
 5992POPC   C3B75033  27.945  28.806   7.033
 5992POPC   C4B75034  28.149  28.867   7.423
 5993POPC   NC375035  42.937  43.467   5.486
 5993POPC   PO475036  43.316  42.917   5.324
 5993POPC   GL175037  43.094  43.003   5.681
 5993POPC   GL275038  42.739  42.895   5.659
 5993POPC   C1A75039  43.227  43.252   6.056
 5993POPC   D2A75040  43.287  43.133   6.481
 5993POPC   C3A75041  43.370  43.293   6.875
 5993POPC   C4A75042  43.374  42.976   7.202
 5993POPC   C1B75043  42.737  43.122   6.059
 5993POPC   C2B75044  42.820  43.305   6.448
 5993POPC   C3B75045  42.882  43.171   6.876
 5993POPC   C4B75046  43.006  43.317   7.269
 5994POPC   NC375047  32.734  15.430   5.365
 5994POPC   PO475048  33.394  15.419   5.273
 5994POPC   GL175049  33.147  15.348   5.659
 5994POPC   GL275050  33.065  14.979   5.735
 5994POPC   C1A75051  32.982  15.361   6.077
 5994POPC   D2A75052  33.059  15.141   6.463
 5994POPC   C3A75053  33.297  15.329   6.789
 5994POPC   C4A75054  32.958  15.298   7.062
 5994POPC   C1B75055  32.815  14.816   6.095
 5994POPC   C2B75056  32.660  14.847   6.536
 5994POPC   C3B75057  32.735  14.832   6.977
 5994POPC   C4B75058  32.576  14.777   7.396
 5995POPC   NC375059  16.210  43.956   5.286
 5995POPC   PO475060  15.626  43.666   5.241
 5995POPC   GL175061  15.792  43.906   5.623
 5995POPC   GL275062  15.916  43.599   5.773
 5995POPC   C1A75063  15.928  44.017   6.073
 5995POPC   D2A75064  16.091  44.270   6.420
 5995POPC   C3A75065  16.036  44.314   6.889
 5995POPC   C4A75066  16.222  44.203   7.304
 5995POPC   C1B75067  16.037  43.557   6.231
 5995POPC   C2B75068  16.066  43.776   6.650
 5995POPC   C3B75069  15.941  43.833   7.084
 5995POPC   C4B75070  15.988  43.567   7.449
 5996POPC   NC375071   0.214  36.675   5.546
 5996POPC   PO475072   0.379  37.311   5.487
 5996POPC   GL175073   0.513  37.057   5.836
 5996POPC   GL275074   0.667  36.699   5.796
 5996POPC   C1A75075   0.349  37.084   6.257
 5996POPC   D2A75076   0.332  37.296   6.654
 5996POPC   C3A75077   0.233  37.001   6.997
 5996POPC   C4A75078   0.295  36.525   6.929
 5996POPC   C1B75079   0.789  36.839   6.236
 5996POPC   C2B75080   0.634  36.840   6.689
 5996POPC   C3B75081   0.670  36.795   7.154
 5996POPC   C4B75082   0.742  36.735   7.594
 5997POPC   NC375083  28.933  27.584   5.687
 5997POPC   PO475084  29.437  27.828   5.335
 5997POPC   GL175085  29.323  27.886   5.789
 5997POPC   GL275086  29.408  27.544   5.894
 5997POPC   C1A75087  29.186  27.782   6.279
 5997POPC   D2A75088  29.036  27.577   6.702
 5997POPC   C3A75089  29.080  27.792   7.137
 5997POPC   C4A75090  28.896  27.812   7.569
 5997POPC   C1B75091  29.261  27.263   6.223
 5997POPC   C2B75092  29.433  27.194   6.622
 5997POPC   C3B75093  29.378  27.367   7.039
 5997POPC   C4B75094  28.995  27.311   7.261
 5998POPC   NC375095  44.964  30.270   4.921
 5998POPC   PO475096   0.223  29.832   5.346
 5998POPC   GL175097   0.362  29.991   5.742
 5998POPC   GL275098   0.647  29.808   5.818
 5998POPC   C1A75099   0.376  30.044   6.195
 5998POPC   D2A75100   0.210  29.940   6.601
 5998POPC   C3A75101   0.451  30.154   6.900
 5998POPC   C4A75102   0.263  30.149   7.294
 5998POPC   C1B75103   0.719  29.660   6.242
 5998POPC   C2B75104   0.672  29.712   6.689
 5998POPC   C3B75105   0.481  29.680   7.095
 5998POPC   C4B75106   0.526  29.812   7.543
 5999POPC   NC375107  11.563  31.731   5.445
 5999POPC   PO475108  11.017  31.320   5.419
 5999POPC   GL175109  11.204  31.340   5.804
 5999POPC   GL275110  10.934  31.208   5.932
 5999POPC   C1A75111  11.261  31.513   6.255
 5999POPC   D2A75112  11.523  31.659   6.643
 5999POPC   C3A75113  11.383  31.610   7.091
 5999POPC   C4A75114  11.453  31.641   7.565
 5999POPC   C1B75115  10.962  31.113   6.351
 5999POPC   C2B75116  11.012  31.343   6.734
 5999POPC   C3B75117  10.952  31.298   7.169
 5999POPC   C4B75118  10.761  31.066   7.535
 6000POPC   NC375119  31.752  41.113   5.461
 6000POPC   PO475120  31.187  40.828   5.585
 6000POPC   GL175121  31.487  40.545   5.790
 6000POPC   GL275122  31.857  40.534   5.676
 6000POPC   C1A75123  31.393  40.522   6.243
 6000POPC   D2A75124  31.413  40.929   6.440
 6000POPC   C3A75125  31.475  40.914   6.870
 6000POPC   C4A75126  31.242  40.830   7.243
 6000POPC   C1B75127  31.804  40.776   6.089
 6000POPC   C2B75128  31.896  40.747   6.514
 6000POPC   C3B75129  31.973  40.683   6.921
 6000POPC   C4B75130  31.785  40.740   7.290
 6001POPC   NC375131   9.257  13.265   5.131
 6001POPC   PO475132   8.772  12.829   5.486
 6001POPC   GL175133   8.768  12.817   5.886
 6001POPC   GL275134   8.481  13.038   5.907
 6001POPC   C1A75135   9.081  12.715   6.225
 6001POPC   D2A75136   9.259  12.580   6.652
 6001POPC   C3A75137   9.151  12.883   7.006
 6001POPC   C4A75138   8.777  12.863   7.262
 6001POPC   C1B75139   8.776  13.145   6.261
 6001POPC   C2B75140   8.774  13.036   6.699
 6001POPC   C3B75141   8.504  13.205   7.002
 6001POPC   C4B75142   8.510  13.393   7.418
 6002POPC   NC375143   6.412  20.924   5.691
 6002POPC   PO475144   6.631  21.473   5.377
 6002POPC   GL175145   6.749  21.300   5.775
 6002POPC   GL275146   6.932  21.021   5.868
 6002POPC   C1A75147   6.538  21.323   6.197
 6002POPC   D2A75148   6.350  21.561   6.513
 6002POPC   C3A75149   6.579  21.596   6.884
 6002POPC   C4A75150   6.447  21.482   7.264
 6002POPC   C1B75151   7.021  21.193   6.286
 6002POPC   C2B75152   6.758  21.163   6.657
 6002POPC   C3B75153   6.810  21.164   7.103
 6002POPC   C4B75154   6.612  21.017   7.506
 6003POPC   NC375155   1.280   8.034   5.228
 6003POPC   PO475156   1.012   8.516   5.602
 6003POPC   GL175157   1.380   8.290   5.795
 6003POPC   GL275158   1.555   7.966   5.650
 6003POPC   C1A75159   1.425   8.368   6.256
 6003POPC   D2A75160   1.090   8.322   6.548
 6003POPC   C3A75161   1.161   8.091   6.916
 6003POPC   C4A75162   1.053   8.180   7.320
 6003POPC   C1B75163   1.633   7.910   6.090
 6003POPC   C2B75164   1.493   7.921   6.519
 6003POPC   C3B75165   1.606   7.816   6.927
 6003POPC   C4B75166   1.547   7.972   7.317
 6004POPC   NC375167  31.538  26.447   5.468
 6004POPC   PO475168  31.720  25.816   5.302
 6004POPC   GL175169  31.503  25.902   5.712
 6004POPC   GL275170  31.280  25.641   5.822
 6004POPC   C1A75171  31.507  26.083   6.155
 6004POPC   D2A75172  31.702  26.037   6.578
 6004POPC   C3A75173  31.623  26.278   7.002
 6004POPC   C4A75174  31.497  26.373   7.471
 6004POPC   C1B75175  31.444  25.586   6.201
 6004POPC   C2B75176  31.280  25.733   6.560
 6004POPC   C3B75177  31.413  25.790   6.921
 6004POPC   C4B75178  31.241  26.008   7.216
 6005POPC   NC375179  23.685  31.061   5.468
 6005POPC   PO475180  23.824  30.362   5.416
 6005POPC   GL175181  23.737  30.621   5.740
 6005POPC   GL275182  24.059  30.790   5.686
 6005POPC   C1A75183  23.584  30.636   6.159
 6005POPC   D2A75184  23.804  30.448   6.497
 6005POPC   C3A75185  23.533  30.397   6.849
 6005POPC   C4A75186  23.557  30.415   7.271
 6005POPC   C1B75187  24.091  30.707   6.120
 6005POPC   C2B75188  24.029  30.913   6.513
 6005POPC   C3B75189  23.971  30.701   6.917
 6005POPC   C4B75190  23.769  30.857   7.277
 6006POPC   NC375191   7.770  25.643   5.037
 6006POPC   PO475192   7.121  25.830   5.178
 6006POPC   GL175193   7.182  25.890   5.696
 6006POPC   GL275194   7.400  25.697   5.953
 6006POPC   C1A75195   7.372  26.172   6.057
 6006POPC   D2A75196   7.467  25.990   6.481
 6006POPC   C3A75197   7.294  26.144   6.889
 6006POPC   C4A75198   7.557  26.356   7.227
 6006POPC   C1B75199   7.766  25.621   6.186
 6006POPC   C2B75200   7.871  25.695   6.589
 6006POPC   C3B75201   7.787  25.961   6.920
 6006POPC   C4B75202   7.522  25.853   7.256
 6007POPC   NC375203  32.254  26.536   5.399
 6007POPC   PO475204  32.596  27.120   5.603
 6007POPC   GL175205  32.318  26.818   5.828
 6007POPC   GL275206  32.421  26.438   5.862
 6007POPC   C1A75207  32.076  26.908   6.198
 6007POPC   D2A75208  31.945  27.138   6.566
 6007POPC   C3A75209  32.127  27.137   6.973
 6007POPC   C4A75210  32.163  26.862   7.367
 6007POPC   C1B75211  32.478  26.584   6.266
 6007POPC   C2B75212  32.374  26.814   6.616
 6007POPC   C3B75213  32.483  26.737   7.006
 6007POPC   C4B75214  32.851  26.638   7.145
 6008POPC   NC375215  44.919  31.058   5.524
 6008POPC   PO475216  44.489  30.585   5.298
 6008POPC   GL175217  44.560  30.529   5.736
 6008POPC   GL275218  44.880  30.594   5.742
 6008POPC   C1A75219  44.595  30.708   6.177
 6008POPC   D2A75220  44.524  31.103   6.456
 6008POPC   C3A75221  44.594  31.034   6.902
 6008POPC   C4A75222  44.372  30.868   7.247
 6008POPC   C1B75223  44.964  30.324   6.091
 6008POPC   C2B75224   0.161  30.429   6.485
 6008POPC   C3B75225  44.993  30.388   6.887
 6008POPC   C4B75226  44.630  30.460   7.107
 6009POPC   NC375227  42.902  15.048   5.333
 6009POPC   PO475228  43.407  15.431   5.603
 6009POPC   GL175229  43.088  15.432   5.893
 6009POPC   GL275230  42.698  15.490   5.825
 6009POPC   C1A75231  43.106  15.157   6.283
 6009POPC   D2A75232  42.841  15.098   6.671
 6009POPC   C3A75233  43.133  15.109   7.031
 6009POPC   C4A75234  43.147  14.851   7.439
 6009POPC   C1B75235  42.780  15.525   6.270
 6009POPC   C2B75236  43.032  15.563   6.631
 6009POPC   C3B75237  42.837  15.505   7.038
 6009POPC   C4B75238  42.716  15.121   7.317
 6010POPC   NC375239  11.051  43.973   5.344
 6010POPC   PO475240  11.709  43.892   5.257
 6010POPC   GL175241  11.649  43.821   5.723
 6010POPC   GL275242  11.318  43.898   5.802
 6010POPC   C1A75243  11.696  43.843   6.192
 6010POPC   D2A75244  11.436  43.731   6.613
 6010POPC   C3A75245  11.502  43.889   7.056
 6010POPC   C4A75246  11.479  43.719   7.503
 6010POPC   C1B75247  11.184  43.901   6.209
 6010POPC   C2B75248  11.178  44.183   6.599
 6010POPC   C3B75249  11.017  44.119   7.010
 6010POPC   C4B75250  10.997  43.808   7.353
 6011POPC   NC375251  28.937  21.901   5.508
 6011POPC   PO475252  29.511  22.356   5.562
 6011POPC   GL175253  29.499  22.132   5.942
 6011POPC   GL275254  29.299  21.828   5.929
 6011POPC   C1A75255  29.332  22.359   6.301
 6011POPC   D2A75256  28.971  22.460   6.577
 6011POPC   C3A75257  29.134  22.358   6.990
 6011POPC   C4A75258  29.391  21.969   7.092
 6011POPC   C1B75259  29.001  21.958   6.250
 6011POPC   C2B75260  29.062  21.931   6.698
 6011POPC   C3B75261  28.888  21.937   7.121
 6011POPC   C4B75262  29.123  21.776   7.482
 6012POPC   NC375263   9.938  37.281   5.118
 6012POPC   PO475264   9.795  37.941   5.387
 6012POPC   GL175265   9.568  37.910   5.804
 6012POPC   GL275266   9.619  37.549   5.917
 6012POPC   C1A75267   9.558  37.920   6.285
 6012POPC   D2A75268   9.619  37.796   6.728
 6012POPC   C3A75269   9.685  37.966   7.132
 6012POPC   C4A75270  10.046  37.854   7.289
 6012POPC   C1B75271   9.989  37.699   6.096
 6012POPC   C2B75272  10.038  37.564   6.501
 6012POPC   C3B75273  10.028  37.488   6.930
 6012POPC   C4B75274   9.712  37.452   7.219
 6013POPC   NC375275  39.300  43.302   5.043
 6013POPC   PO475276  38.960  42.946   5.490
 6013POPC   GL175277  39.094  43.008   5.889
 6013POPC   GL275278  39.306  43.271   5.958
 6013POPC   C1A75279  39.195  42.794   6.252
 6013POPC   D2A75280  39.320  42.878   6.683
 6013POPC   C3A75281  39.237  43.284   6.791
 6013POPC   C4A75282  39.175  43.311   7.215
 6013POPC   C1B75283  39.549  43.159   6.310
 6013POPC   C2B75284  39.734  43.195   6.717
 6013POPC   C3B75285  39.610  43.039   7.111
 6013POPC   C4B75286  39.557  43.155   7.528
 6014POPC   NC375287   1.689  10.411   5.399
 6014POPC   PO475288   2.360  10.464   5.357
 6014POPC   GL175289   2.098  10.504   5.743
 6014POPC   GL275290   1.833  10.235   5.875
 6014POPC   C1A75291   2.195  10.450   6.174
 6014POPC   D2A75292   1.941  10.254   6.503
 6014POPC   C3A75293   2.102  10.431   6.876
 6014POPC   C4A75294   2.007  10.716   7.221
 6014POPC   C1B75295   1.510  10.151   6.213
 6014POPC   C2B75296   1.373  10.310   6.615
 6014POPC   C3B75297   1.607  10.535   6.900
 6014POPC   C4B75298   1.768  10.269   7.221
 6015POPC   NC375299  16.309  29.017   5.485
 6015POPC   PO475300  15.614  29.029   5.433
 6015POPC   GL175301  15.791  29.237   5.787
 6015POPC   GL275302  16.110  29.419   5.767
 6015POPC   C1A75303  15.633  29.330   6.216
 6015POPC   D2A75304  15.604  29.548   6.610
 6015POPC   C3A75305  15.570  29.231   6.921
 6015POPC   C4A75306  15.680  29.118   7.361
 6015POPC   C1B75307  16.119  29.170   6.172
 6015POPC   C2B75308  16.033  29.254   6.615
 6015POPC   C3B75309  16.056  29.348   7.074
 6015POPC   C4B75310  16.184  29.271   7.519
 6016POPC   NC375311  14.919   9.126   5.413
 6016POPC   PO475312  15.463   8.846   5.314
 6016POPC   GL175313  15.298   8.869   5.710
 6016POPC   GL275314  15.411   8.562   5.881
 6016POPC   C1A75315  15.149   9.099   6.076
 6016POPC   D2A75316  14.991   8.964   6.486
 6016POPC   C3A75317  15.291   9.026   6.804
 6016POPC   C4A75318  15.268   9.285   7.142
 6016POPC   C1B75319  15.024   8.578   6.136
 6016POPC   C2B75320  14.978   8.475   6.600
 6016POPC   C3B75321  15.138   8.591   7.016
 6016POPC   C4B75322  15.577   8.739   7.133
 6017POPC   NC375323  34.832  44.329   5.463
 6017POPC   PO475324  35.503  44.567   5.374
 6017POPC   GL175325  35.374  44.596   5.810
 6017POPC   GL275326  35.014  44.669   5.832
 6017POPC   C1A75327  35.366  44.558   6.285
 6017POPC   D2A75328  35.380  44.282   6.644
 6017POPC   C3A75329  35.243  44.442   7.029
 6017POPC   C4A75330  34.931  44.421   7.329
 6017POPC   C1B75331  35.195  44.992   6.086
 6017POPC   C2B75332  35.125  44.997   6.508
 6017POPC   C3B75333  35.215  44.962   6.926
 6017POPC   C4B75334  35.245  44.863   7.343
 6018POPC   NC375335  30.140  14.101   5.554
 6018POPC   PO475336  30.074  13.493   5.269
 6018POPC   GL175337  29.811  13.562   5.671
 6018POPC   GL275338  29.645  13.887   5.700
 6018POPC   C1A75339  29.656  13.495   6.130
 6018POPC   D2A75340  29.821  13.382   6.561
 6018POPC   C3A75341  29.683  13.407   6.987
 6018POPC   C4A75342  29.972  13.579   7.286
 6018POPC   C1B75343  29.828  13.981   6.105
 6018POPC   C2B75344  29.988  13.855   6.479
 6018POPC   C3B75345  29.841  13.855   6.890
 6018POPC   C4B75346  29.598  13.996   7.305
 6019POPC   NC375347   4.592  25.879   5.422
 6019POPC   PO475348   3.995  26.112   5.230
 6019POPC   GL175349   4.227  26.149   5.686
 6019POPC   GL275350   4.312  25.841   5.840
 6019POPC   C1A75351   4.275  26.208   6.179
 6019POPC   D2A75352   4.261  26.084   6.630
 6019POPC   C3A75353   4.536  26.295   6.942
 6019POPC   C4A75354   4.580  26.294   7.376
 6019POPC   C1B75355   4.181  25.692   6.244
 6019POPC   C2B75356   4.452  25.571   6.596
 6019POPC   C3B75357   4.482  25.753   7.014
 6019POPC   C4B75358   4.194  26.014   7.235
 6020POPC   NC375359  15.399  38.037   5.545
 6020POPC   PO475360  15.084  37.574   5.185
 6020POPC   GL175361  15.204  37.556   5.632
 6020POPC   GL275362  14.976  37.807   5.776
 6020POPC   C1A75363  15.354  37.622   6.085
 6020POPC   D2A75364  15.284  37.521   6.535
 6020POPC   C3A75365  15.383  37.616   6.985
 6020POPC   C4A75366  15.239  37.557   7.435
 6020POPC   C1B75367  14.821  37.720   6.203
 6020POPC   C2B75368  14.899  37.852   6.636
 6020POPC   C3B75369  14.889  37.729   7.034
 6020POPC   C4B75370  15.087  38.010   7.288
 6021POPC   NC375371  27.993  21.574   5.462
 6021POPC   PO475372  28.622  21.403   5.371
 6021POPC   GL175373  28.360  21.334   5.742
 6021POPC   GL275374  28.382  21.666   5.774
 6021POPC   C1A75375  28.187  21.380   6.159
 6021POPC   D2A75376  28.017  21.300   6.566
 6021POPC   C3A75377  28.202  21.234   6.922
 6021POPC   C4A75378  28.209  21.425   7.278
 6021POPC   C1B75379  28.653  21.603   6.085
 6021POPC   C2B75380  28.699  21.622   6.513
 6021POPC   C3B75381  28.638  21.499   6.928
 6021POPC   C4B75382  28.682  21.555   7.379
 6022POPC   NC375383  15.760  16.026   5.423
 6022POPC   PO475384  16.323  15.743   5.144
 6022POPC   GL175385  16.125  15.699   5.637
 6022POPC   GL275386  15.789  15.631   5.737
 6022POPC   C1A75387  16.151  15.731   6.122
 6022POPC   D2A75388  16.266  15.871   6.568
 6022POPC   C3A75389  16.014  16.174   6.804
 6022POPC   C4A75390  15.959  16.124   7.220
 6022POPC   C1B75391  15.658  15.846   6.113
 6022POPC   C2B75392  15.737  15.811   6.555
 6022POPC   C3B75393  15.596  15.828   6.997
 6022POPC   C4B75394  15.626  15.865   7.493
 6023POPC   NC375395   2.844   8.591   5.657
 6023POPC   PO475396   2.663   8.089   5.201
 6023POPC   GL175397   2.776   8.023   5.705
 6023POPC   GL275398   3.076   8.075   5.856
 6023POPC   C1A75399   2.719   8.220   6.181
 6023POPC   D2A75400   2.440   8.504   6.387
 6023POPC   C3A75401   2.451   8.390   6.808
 6023POPC   C4A75402   2.513   8.188   7.168
 6023POPC   C1B75403   3.212   8.370   6.211
 6023POPC   C2B75404   3.161   8.500   6.671
 6023POPC   C3B75405   2.994   8.354   7.086
 6023POPC   C4B75406   2.854   8.458   7.525
 6024POPC   NC375407  26.426  32.591   5.440
 6024POPC   PO475408  25.827  32.209   5.419
 6024POPC   GL175409  26.062  32.067   5.792
 6024POPC   GL275410  26.216  32.360   5.831
 6024POPC   C1A75411  26.116  31.938   6.235
 6024POPC   D2A75412  25.784  32.003   6.565
 6024POPC   C3A75413  25.860  32.260   6.944
 6024POPC   C4A75414  25.839  32.684   7.065
 6024POPC   C1B75415  26.408  32.359   6.205
 6024POPC   C2B75416  26.194  32.400   6.569
 6024POPC   C3B75417  26.326  32.474   6.960
 6024POPC   C4B75418  26.163  32.420   7.360
 6025POPC   NC375419  18.960  20.849   5.121
 6025POPC   PO475420  18.989  21.335   5.571
 6025POPC   GL175421  18.896  21.342   5.947
 6025POPC   GL275422  19.048  21.051   6.002
 6025POPC   C1A75423  18.906  21.393   6.391
 6025POPC   D2A75424  18.825  21.545   6.814
 6025POPC   C3A75425  18.953  21.251   7.115
 6025POPC   C4A75426  18.727  20.974   7.371
 6025POPC   C1B75427  19.363  21.103   6.250
 6025POPC   C2B75428  19.620  21.043   6.606
 6025POPC   C3B75429  19.476  21.139   7.030
 6025POPC   C4B75430  19.350  21.235   7.445
 6026POPC   NC375431  25.439   8.332   5.444
 6026POPC   PO475432  24.976   7.871   5.536
 6026POPC   GL175433  25.194   8.130   5.865
 6026POPC   GL275434  25.549   8.029   5.836
 6026POPC   C1A75435  25.068   8.424   6.252
 6026POPC   D2A75436  25.256   8.643   6.668
 6026POPC   C3A75437  25.095   8.525   7.051
 6026POPC   C4A75438  24.999   8.084   7.133
 6026POPC   C1B75439  25.502   8.174   6.262
 6026POPC   C2B75440  25.259   8.120   6.638
 6026POPC   C3B75441  25.492   8.219   7.007
 6026POPC   C4B75442  25.749   8.037   7.306
 6027POPC   NC375443  32.758  20.489   5.420
 6027POPC   PO475444  32.090  20.670   5.469
 6027POPC   GL175445  31.979  20.531   5.874
 6027POPC   GL275446  31.998  20.146   5.926
 6027POPC   C1A75447  32.088  20.555   6.317
 6027POPC   D2A75448  32.050  20.752   6.686
 6027POPC   C3A75449  32.324  20.730   6.984
 6027POPC   C4A75450  31.997  20.612   7.248
 6027POPC   C1B75451  32.430  20.349   6.011
 6027POPC   C2B75452  32.626  20.510   6.409
 6027POPC   C3B75453  32.779  20.479   6.851
 6027POPC   C4B75454  32.580  20.385   7.248
 6028POPC   NC375455   9.815   0.171   5.189
 6028POPC   PO475456   9.668  44.522   5.296
 6028POPC   GL175457   9.729  44.790   5.689
 6028POPC   GL275458  10.010  44.609   5.859
 6028POPC   C1A75459   9.693  44.873   6.176
 6028POPC   D2A75460   9.645  44.553   6.541
 6028POPC   C3A75461   9.335  44.582   6.906
 6028POPC   C4A75462   9.299  44.338   7.288
 6028POPC   C1B75463  10.146  44.596   6.308
 6028POPC   C2B75464  10.125  44.394   6.730
 6028POPC   C3B75465  10.142  44.389   7.180
 6028POPC   C4B75466  10.033  44.758   7.402
 6029POPC   NC375467  38.055  33.276   5.446
 6029POPC   PO475468  37.724  32.788   5.241
 6029POPC   GL175469  37.781  32.875   5.707
 6029POPC   GL275470  37.721  33.235   5.878
 6029POPC   C1A75471  37.532  32.802   6.092
 6029POPC   D2A75472  37.663  32.773   6.527
 6029POPC   C3A75473  37.424  32.946   6.901
 6029POPC   C4A75474  37.570  32.809   7.324
 6029POPC   C1B75475  37.529  33.243   6.336
 6029POPC   C2B75476  37.626  33.411   6.765
 6029POPC   C3B75477  37.624  33.306   7.224
 6029POPC   C4B75478  37.675  33.276   7.685
 6030POPC   NC375479  36.970  10.466   5.410
 6030POPC   PO475480  36.424  10.889   5.504
 6030POPC   GL175481  36.805  10.753   5.782
 6030POPC   GL275482  36.895  10.393   5.903
 6030POPC   C1A75483  37.109  10.849   6.104
 6030POPC   D2A75484  37.230  10.644   6.489
 6030POPC   C3A75485  36.977  10.695   6.865
 6030POPC   C4A75486  37.105  10.559   7.262
 6030POPC   C1B75487  36.742  10.533   6.301
 6030POPC   C2B75488  36.642  10.320   6.681
 6030POPC   C3B75489  36.725  10.255   7.122
 6030POPC   C4B75490  36.596  10.509   7.469
 6031POPC   NC375491  37.100  30.127   5.481
 6031POPC   PO475492  36.552  29.765   5.482
 6031POPC   GL175493  36.746  29.727   5.893
 6031POPC   GL275494  37.094  29.771   5.897
 6031POPC   C1A75495  36.731  29.756   6.350
 6031POPC   D2A75496  36.941  29.960   6.686
 6031POPC   C3A75497  36.814  29.958   7.088
 6031POPC   C4A75498  37.203  30.011   7.230
 6031POPC   C1B75499  37.261  29.781   6.304
 6031POPC   C2B75500  37.110  29.492   6.592
 6031POPC   C3B75501  37.107  29.551   6.984
 6031POPC   C4B75502  36.880  29.465   7.273
 6032POPC   NC375503  26.899  28.781   5.575
 6032POPC   PO475504  27.105  28.191   5.339
 6032POPC   GL175505  26.973  28.289   5.762
 6032POPC   GL275506  27.266  28.503   5.791
 6032POPC   C1A75507  26.627  28.452   6.080
 6032POPC   D2A75508  26.429  28.675   6.455
 6032POPC   C3A75509  26.542  28.587   6.878
 6032POPC   C4A75510  26.683  28.431   7.298
 6032POPC   C1B75511  27.158  28.573   6.201
 6032POPC   C2B75512  26.901  28.419   6.516
 6032POPC   C3B75513  26.977  28.313   6.905
 6032POPC   C4B75514  27.180  28.365   7.276
 6033POPC   NC375515  16.051  29.979   5.398
 6033POPC   PO475516  15.433  29.748   5.465
 6033POPC   GL175517  15.784  29.878   5.834
 6033POPC   GL275518  16.202  29.922   5.875
 6033POPC   C1A75519  15.922  29.841   6.294
 6033POPC   D2A75520  16.069  29.754   6.732
 6033POPC   C3A75521  15.763  29.820   7.067
 6033POPC   C4A75522  15.813  30.082   7.444
 6033POPC   C1B75523  16.323  30.226   6.216
 6033POPC   C2B75524  16.345  30.231   6.674
 6033POPC   C3B75525  16.225  30.104   7.072
 6033POPC   C4B75526  16.243  29.756   7.322
 6034POPC   NC375527   3.406  28.212   5.466
 6034POPC   PO475528   3.945  28.580   5.280
 6034POPC   GL175529   3.737  28.561   5.713
 6034POPC   GL275530   3.731  28.193   5.854
 6034POPC   C1A75531   3.500  28.639   6.139
 6034POPC   D2A75532   3.239  28.716   6.542
 6034POPC   C3A75533   3.242  28.451   6.939
 6034POPC   C4A75534   3.537  28.301   7.264
 6034POPC   C1B75535   3.961  28.417   6.150
 6034POPC   C2B75536   3.921  28.661   6.481
 6034POPC   C3B75537   3.782  28.500   6.845
 6034POPC   C4B75538   3.717  28.748   7.173
 6035POPC   NC375539  13.850   2.460   5.400
 6035POPC   PO475540  13.197   2.716   5.367
 6035POPC   GL175541  13.416   2.532   5.737
 6035POPC   GL275542  13.764   2.640   5.851
 6035POPC   C1A75543  13.319   2.678   6.168
 6035POPC   D2A75544  13.380   2.981   6.498
 6035POPC   C3A75545  13.293   2.878   6.925
 6035POPC   C4A75546  13.467   2.899   7.339
 6035POPC   C1B75547  13.807   2.586   6.267
 6035POPC   C2B75548  13.574   2.506   6.608
 6035POPC   C3B75549  13.673   2.561   7.013
 6035POPC   C4B75550  13.935   2.659   7.342
 6036POPC   NC375551   9.323   9.894   5.521
 6036POPC   PO475552  10.010   9.663   5.447
 6036POPC   GL175553   9.782   9.833   5.774
 6036POPC   GL275554   9.535   9.566   5.825
 6036POPC   C1A75555   9.680   9.916   6.206
 6036POPC   D2A75556   9.919   9.799   6.570
 6036POPC   C3A75557   9.746   9.951   6.949
 6036POPC   C4A75558  10.041   9.956   7.219
 6036POPC   C1B75559   9.393   9.477   6.250
 6036POPC   C2B75560   9.439   9.627   6.711
 6036POPC   C3B75561   9.507   9.568   7.189
 6036POPC   C4B75562   9.537   9.397   7.666
 6037POPC   NC375563  28.951  33.596   5.456
 6037POPC   PO475564  28.914  32.913   5.413
 6037POPC   GL175565  29.134  33.005   5.821
 6037POPC   GL275566  29.451  33.195   5.794
 6037POPC   C1A75567  29.133  33.113   6.273
 6037POPC   D2A75568  28.871  33.332   6.576
 6037POPC   C3A75569  28.766  33.115   6.969
 6037POPC   C4A75570  29.044  33.001   7.344
 6037POPC   C1B75571  29.634  33.153   6.222
 6037POPC   C2B75572  29.478  33.065   6.659
 6037POPC   C3B75573  29.237  33.312   6.972
 6037POPC   C4B75574  29.383  33.435   7.379
 6038POPC   NC375575  18.859  27.410   5.365
 6038POPC   PO475576  19.438  27.817   5.354
 6038POPC   GL175577  19.169  27.900   5.717
 6038POPC   GL275578  19.040  27.574   5.809
 6038POPC   C1A75579  19.044  27.938   6.155
 6038POPC   D2A75580  18.991  27.727   6.543
 6038POPC   C3A75581  19.083  27.897   6.931
 6038POPC   C4A75582  19.134  27.666   7.280
 6038POPC   C1B75583  18.856  27.372   6.185
 6038POPC   C2B75584  18.820  27.214   6.587
 6038POPC   C3B75585  18.994  27.248   6.987
 6038POPC   C4B75586  19.128  27.171   7.430
 6039POPC   NC375587  17.291  23.742   5.462
 6039POPC   PO475588  17.999  23.775   5.464
 6039POPC   GL175589  17.725  23.586   5.835
 6039POPC   GL275590  17.352  23.573   5.932
 6039POPC   C1A75591  17.699  23.719   6.294
 6039POPC   D2A75592  17.853  23.619   6.721
 6039POPC   C3A75593  17.604  23.685   7.079
 6039POPC   C4A75594  17.685  23.781   7.508
 6039POPC   C1B75595  17.209  23.891   6.276
 6039POPC   C2B75596  17.329  24.110   6.703
 6039POPC   C3B75597  17.311  24.076   7.176
 6039POPC   C4B75598  17.197  23.713   7.475
 6040POPC   NC375599  15.883  35.514   5.330
 6040POPC   PO475600  16.253  34.933   5.426
 6040POPC   GL175601  16.073  35.251   5.750
 6040POPC   GL275602  15.759  35.490   5.843
 6040POPC   C1A75603  16.203  35.517   6.110
 6040POPC   D2A75604  15.996  35.624   6.535
 6040POPC   C3A75605  16.098  35.471   6.991
 6040POPC   C4A75606  16.058  35.219   7.405
 6040POPC   C1B75607  15.812  35.193   6.205
 6040POPC   C2B75608  15.988  35.093   6.624
 6040POPC   C3B75609  15.770  35.064   7.007
 6040POPC   C4B75610  15.596  35.378   7.250
 6041POPC   NC375611   7.376   1.247   5.241
 6041POPC   PO475612   7.884   1.642   5.362
 6041POPC   GL175613   7.580   1.540   5.759
 6041POPC   GL275614   7.326   1.228   5.779
 6041POPC   C1A75615   7.700   1.414   6.204
 6041POPC   D2A75616   7.701   1.140   6.594
 6041POPC   C3A75617   7.661   1.330   6.994
 6041POPC   C4A75618   7.497   1.437   7.379
 6041POPC   C1B75619   7.362   1.028   6.216
 6041POPC   C2B75620   7.193   1.069   6.644
 6041POPC   C3B75621   7.227   1.066   7.108
 6041POPC   C4B75622   7.045   1.299   7.516
 6042POPC   NC375623  14.413  44.386   5.494
 6042POPC   PO475624  14.549   0.084   5.446
 6042POPC   GL175625  14.675  44.747   5.791
 6042POPC   GL275626  14.414  44.541   5.967
 6042POPC   C1A75627  14.789  44.684   6.250
 6042POPC   D2A75628  14.450  44.579   6.553
 6042POPC   C3A75629  14.650  44.585   6.957
 6042POPC   C4A75630  14.671  44.714   7.393
 6042POPC   C1B75631  14.093  44.357   6.245
 6042POPC   C2B75632  13.917  44.437   6.657
 6042POPC   C3B75633  14.152  44.553   7.028
 6042POPC   C4B75634  14.292  44.395   7.439
 6043POPC   NC375635  25.826  13.106   5.441
 6043POPC   PO475636  26.318  12.655   5.420
 6043POPC   GL175637  26.154  12.829   5.807
 6043POPC   GL275638  25.778  12.825   5.864
 6043POPC   C1A75639  26.131  12.753   6.257
 6043POPC   D2A75640  26.199  13.012   6.611
 6043POPC   C3A75641  26.436  12.821   6.921
 6043POPC   C4A75642  26.304  12.506   7.192
 6043POPC   C1B75643  25.677  13.008   6.295
 6043POPC   C2B75644  25.718  12.906   6.746
 6043POPC   C3B75645  25.952  12.884   7.145
 6043POPC   C4B75646  25.879  13.113   7.556
 6044POPC   NC375647  10.298  29.357   5.542
 6044POPC   PO475648  10.936  28.919   5.563
 6044POPC   GL175649  10.684  29.161   5.868
 6044POPC   GL275650  10.910  29.432   6.025
 6044POPC   C1A75651  10.344  29.037   6.179
 6044POPC   D2A75652  10.385  28.791   6.551
 6044POPC   C3A75653  10.549  28.902   6.952
 6044POPC   C4A75654  10.942  28.975   7.120
 6044POPC   C1B75655  10.548  29.478   6.306
 6044POPC   C2B75656  10.413  29.355   6.736
 6044POPC   C3B75657  10.555  29.390   7.189
 6044POPC   C4B75658  10.619  29.578   7.653
 6045POPC   NC375659  16.256  10.503   5.366
 6045POPC   PO475660  15.567  10.198   5.448
 6045POPC   GL175661  15.736  10.405   5.813
 6045POPC   GL275662  15.971  10.689   5.799
 6045POPC   C1A75663  15.683  10.546   6.217
 6045POPC   D2A75664  15.894  10.423   6.583
 6045POPC   C3A75665  15.740  10.677   6.904
 6045POPC   C4A75666  15.695  10.509   7.296
 6045POPC   C1B75667  16.198  10.742   6.232
 6045POPC   C2B75668  16.223  10.794   6.725
 6045POPC   C3B75669  16.136  10.764   7.204
 6045POPC   C4B75670  16.284  10.847   7.629
 6046POPC   NC375671   8.814  40.146   5.424
 6046POPC   PO475672   9.407  39.699   5.509
 6046POPC   GL175673   9.146  39.902   5.862
 6046POPC   GL275674   8.896  40.169   5.926
 6046POPC   C1A75675   9.040  39.857   6.320
 6046POPC   D2A75676   8.761  39.836   6.686
 6046POPC   C3A75677   8.763  40.092   7.040
 6046POPC   C4A75678   8.938  39.878   7.365
 6046POPC   C1B75679   9.097  40.366   6.301
 6046POPC   C2B75680   9.088  40.396   6.765
 6046POPC   C3B75681   9.236  40.306   7.215
 6046POPC   C4B75682   9.234  40.141   7.652
 6047POPC   NC375683   5.214  36.293   5.324
 6047POPC   PO475684   5.165  35.630   5.407
 6047POPC   GL175685   5.030  35.985   5.727
 6047POPC   GL275686   4.758  36.254   5.684
 6047POPC   C1A75687   5.081  35.898   6.187
 6047POPC   D2A75688   5.145  35.679   6.524
 6047POPC   C3A75689   5.125  35.908   6.897
 6047POPC   C4A75690   5.003  36.056   7.318
 6047POPC   C1B75691   4.822  36.345   6.135
 6047POPC   C2B75692   5.059  36.312   6.542
 6047POPC   C3B75693   5.018  36.450   6.962
 6047POPC   C4B75694   5.297  36.466   7.317
 6048POPC   NC375695  10.919   1.518   5.059
 6048POPC   PO475696  10.719   0.972   5.474
 6048POPC   GL175697  10.546   1.114   5.908
 6048POPC   GL275698  10.366   1.409   5.792
 6048POPC   C1A75699  10.292   1.110   6.317
 6048POPC   D2A75700  10.211   1.065   6.774
 6048POPC   C3A75701  10.607   0.968   6.964
 6048POPC   C4A75702  11.065   0.994   6.985
 6048POPC   C1B75703  10.564   1.538   6.187
 6048POPC   C2B75704  10.676   1.383   6.606
 6048POPC   C3B75705  10.586   1.503   7.029
 6048POPC   C4B75706  10.730   1.719   7.432
 6049POPC   NC375707   1.205   9.373   5.435
 6049POPC   PO475708   1.565   9.966   5.388
 6049POPC   GL175709   1.428   9.852   5.803
 6049POPC   GL275710   1.081   9.901   5.830
 6049POPC   C1A75711   1.304   9.584   6.181
 6049POPC   D2A75712   1.333   9.324   6.559
 6049POPC   C3A75713   1.492   9.430   6.983
 6049POPC   C4A75714   1.216   9.440   7.328
 6049POPC   C1B75715   0.903   9.894   6.203
 6049POPC   C2B75716   1.096   9.892   6.544
 6049POPC   C3B75717   1.114   9.756   6.911
 6049POPC   C4B75718   0.975   9.881   7.268
 6050POPC   NC375719  16.862  12.500   5.224
 6050POPC   PO475720  16.832  11.794   5.351
 6050POPC   GL175721  16.820  11.923   5.811
 6050POPC   GL275722  17.063  11.749   6.024
 6050POPC   C1A75723  16.521  12.090   6.167
 6050POPC   D2A75724  16.140  12.127   6.439
 6050POPC   C3A75725  16.259  12.174   6.860
 6050POPC   C4A75726  16.395  12.045   7.269
 6050POPC   C1B75727  16.650  11.605   6.170
 6050POPC   C2B75728  16.460  11.700   6.554
 6050POPC   C3B75729  16.667  11.716   6.970
 6050POPC   C4B75730  17.114  11.707   7.186
 6051POPC   NC375731  29.764  25.340   5.324
 6051POPC   PO475732  30.265  24.921   5.402
 6051POPC   GL175733  29.981  25.179   5.735
 6051POPC   GL275734  29.638  25.032   5.733
 6051POPC   C1A75735  29.982  25.514   6.049
 6051POPC   D2A75736  30.247  25.580   6.418
 6051POPC   C3A75737  30.027  25.548   6.811
 6051POPC   C4A75738  30.155  25.351   7.201
 6051POPC   C1B75739  29.575  25.209   6.142
 6051POPC   C2B75740  29.800  25.160   6.535
 6051POPC   C3B75741  29.686  25.184   6.982
 6051POPC   C4B75742  29.681  25.115   7.437
 6052POPC   NC375743   0.478  17.053   5.428
 6052POPC   PO475744   1.061  16.842   5.567
 6052POPC   GL175745   0.666  16.821   5.853
 6052POPC   GL275746   0.266  16.826   5.817
 6052POPC   C1A75747   0.510  16.704   6.263
 6052POPC   D2A75748   0.652  16.553   6.668
 6052POPC   C3A75749   0.592  16.801   7.020
 6052POPC   C4A75750   0.460  16.551   7.378
 6052POPC   C1B75751   0.041  16.940   6.194
 6052POPC   C2B75752   0.201  16.908   6.609
 6052POPC   C3B75753  44.990  17.047   6.954
 6052POPC   C4B75754   0.222  17.014   7.312
 6053POPC   NC375755  44.143   0.075   5.090
 6053POPC   PO475756  43.649   0.594   5.274
 6053POPC   GL175757  43.761   0.471   5.769
 6053POPC   GL275758  44.098   0.460   5.871
 6053POPC   C1A75759  43.848   0.541   6.273
 6053POPC   D2A75760  43.826   0.719   6.685
 6053POPC   C3A75761  43.853   0.380   6.965
 6053POPC   C4A75762  43.562   0.051   7.074
 6053POPC   C1B75763  44.374   0.448   6.249
 6053POPC   C2B75764  44.301   0.524   6.703
 6053POPC   C3B75765  44.331   0.374   7.145
 6053POPC   C4B75766  44.380   0.453   7.592
 6054POPC   NC375767  18.056  22.453   5.360
 6054POPC   PO475768  18.226  21.812   5.475
 6054POPC   GL175769  18.183  22.035   5.856
 6054POPC   GL275770  17.931  22.310   5.850
 6054POPC   C1A75771  18.456  22.078   6.225
 6054POPC   D2A75772  18.444  22.249   6.651
 6054POPC   C3A75773  18.483  21.972   6.987
 6054POPC   C4A75774  18.315  21.919   7.372
 6054POPC   C1B75775  17.994  22.313   6.284
 6054POPC   C2B75776  17.914  22.163   6.689
 6054POPC   C3B75777  18.025  22.262   7.077
 6054POPC   C4B75778  18.325  22.505   7.288
 6055POPC   NC375779  34.557  16.666   5.267
 6055POPC   PO475780  34.946  17.153   5.534
 6055POPC   GL175781  34.796  16.898   5.889
 6055POPC   GL275782  34.493  16.730   5.789
 6055POPC   C1A75783  34.686  16.704   6.281
 6055POPC   D2A75784  34.600  16.490   6.652
 6055POPC   C3A75785  34.586  16.711   7.030
 6055POPC   C4A75786  34.747  16.606   7.444
 6055POPC   C1B75787  34.192  16.796   6.163
 6055POPC   C2B75788  34.147  16.822   6.614
 6055POPC   C3B75789  34.064  16.888   7.064
 6055POPC   C4B75790  34.273  16.852   7.454
 6056POPC   NC375791  18.373   0.311   5.469
 6056POPC   PO475792  17.766   0.565   5.254
 6056POPC   GL175793  17.947   0.479   5.711
 6056POPC   GL275794  18.232   0.719   5.835
 6056POPC   C1A75795  18.112   0.287   6.102
 6056POPC   D2A75796  18.344   0.162   6.480
 6056POPC   C3A75797  18.132   0.226   6.901
 6056POPC   C4A75798  18.104   0.579   7.235
 6056POPC   C1B75799  18.469   0.668   6.271
 6056POPC   C2B75800  18.474   0.597   6.755
 6056POPC   C3B75801  18.558   0.322   7.144
 6056POPC   C4B75802  18.489   0.498   7.573
 6057POPC   NC375803  39.833  38.800   5.288
 6057POPC   PO475804  40.302  38.286   5.265
 6057POPC   GL175805  40.097  38.313   5.687
 6057POPC   GL275806  39.852  38.579   5.765
 6057POPC   C1A75807  40.283  38.328   6.106
 6057POPC   D2A75808  40.229  38.177   6.516
 6057POPC   C3A75809  40.260  38.489   6.837
 6057POPC   C4A75810  40.200  38.437   7.241
 6057POPC   C1B75811  39.738  38.554   6.186
 6057POPC   C2B75812  39.784  38.444   6.609
 6057POPC   C3B75813  39.718  38.545   7.029
 6057POPC   C4B75814  39.779  38.593   7.467
 6058POPC   NC375815  31.865  42.767   5.435
 6058POPC   PO475816  31.872  42.046   5.508
 6058POPC   GL175817  32.013  42.242   5.879
 6058POPC   GL275818  32.139  42.590   5.831
 6058POPC   C1A75819  32.189  42.328   6.280
 6058POPC   D2A75820  32.095  42.125   6.643
 6058POPC   C3A75821  32.033  42.367   6.994
 6058POPC   C4A75822  32.351  42.109   7.155
 6058POPC   C1B75823  32.340  42.829   6.198
 6058POPC   C2B75824  32.418  42.727   6.651
 6058POPC   C3B75825  32.445  42.642   7.109
 6058POPC   C4B75826  32.674  42.403   7.449
 6059POPC   NC375827  23.046   7.929   5.383
 6059POPC   PO475828  22.791   8.504   5.334
 6059POPC   GL175829  22.926   8.297   5.757
 6059POPC   GL275830  22.848   7.951   5.851
 6059POPC   C1A75831  22.796   8.316   6.214
 6059POPC   D2A75832  22.977   8.367   6.627
 6059POPC   C3A75833  22.794   8.450   7.041
 6059POPC   C4A75834  22.781   8.210   7.425
 6059POPC   C1B75835  23.012   7.853   6.257
 6059POPC   C2B75836  22.897   7.830   6.679
 6059POPC   C3B75837  23.046   7.832   7.109
 6059POPC   C4B75838  23.190   7.946   7.514
 6060POPC   NC375839  43.659   4.758   5.291
 6060POPC   PO475840  43.292   5.280   5.288
 6060POPC   GL175841  43.058   5.093   5.629
 6060POPC   GL275842  43.345   4.899   5.702
 6060POPC   C1A75843  43.040   5.054   6.104
 6060POPC   D2A75844  43.070   5.310   6.481
 6060POPC   C3A75845  42.966   5.186   6.897
 6060POPC   C4A75846  42.954   5.435   7.288
 6060POPC   C1B75847  43.451   4.692   6.091
 6060POPC   C2B75848  43.388   4.858   6.495
 6060POPC   C3B75849  43.492   4.892   6.924
 6060POPC   C4B75850  43.223   4.973   7.285
 6061POPC   NC375851  44.354   9.724   5.431
 6061POPC   PO475852  44.998   9.559   5.321
 6061POPC   GL175853  44.762   9.504   5.744
 6061POPC   GL275854  44.470   9.312   5.828
 6061POPC   C1A75855  44.869   9.607   6.192
 6061POPC   D2A75856  44.868   9.777   6.598
 6061POPC   C3A75857  44.823   9.627   7.000
 6061POPC   C4A75858  44.574   9.902   7.267
 6061POPC   C1B75859  44.400   9.373   6.264
 6061POPC   C2B75860  44.484   9.293   6.695
 6061POPC   C3B75861  44.330   9.478   7.060
 6061POPC   C4B75862  44.568   9.419   7.397
 6062POPC   NC375863  42.153  28.763   5.386
 6062POPC   PO475864  42.663  28.513   5.654
 6062POPC   GL175865  42.418  28.373   6.000
 6062POPC   GL275866  42.072  28.343   5.890
 6062POPC   C1A75867  42.225  28.485   6.409
 6062POPC   D2A75868  42.553  28.407   6.700
 6062POPC   C3A75869  42.435  28.309   7.089
 6062POPC   C4A75870  42.337  28.675   7.237
 6062POPC   C1B75871  42.166  28.017   6.236
 6062POPC   C2B75872  42.245  27.975   6.685
 6062POPC   C3B75873  42.091  27.926   7.118
 6062POPC   C4B75874  42.157  28.063   7.542
 6063POPC   NC375875  40.111   3.720   5.276
 6063POPC   PO475876  40.271   3.200   5.642
 6063POPC   GL175877  39.969   3.533   5.746
 6063POPC   GL275878  40.131   3.886   5.790
 6063POPC   C1A75879  39.769   3.448   6.151
 6063POPC   D2A75880  40.007   3.244   6.465
 6063POPC   C3A75881  40.140   3.477   6.804
 6063POPC   C4A75882  40.013   3.396   7.195
 6063POPC   C1B75883  40.077   3.821   6.240
 6063POPC   C2B75884  39.772   3.795   6.588
 6063POPC   C3B75885  39.736   3.790   7.037
 6063POPC   C4B75886  40.170   3.885   7.167
 6064POPC   NC375887  44.407  33.216   5.669
 6064POPC   PO475888  43.880  33.033   5.202
 6064POPC   GL175889  43.887  33.026   5.665
 6064POPC   GL275890  43.770  32.683   5.822
 6064POPC   C1A75891  43.933  33.118   6.121
 6064POPC   D2A75892  43.694  32.976   6.483
 6064POPC   C3A75893  43.726  33.220   6.866
 6064POPC   C4A75894  43.509  33.150   7.238
 6064POPC   C1B75895  44.056  32.610   6.202
 6064POPC   C2B75896  44.128  32.692   6.657
 6064POPC   C3B75897  43.819  32.721   6.999
 6064POPC   C4B75898  43.818  32.794   7.457
 6065POPC   NC375899  31.843   8.331   5.541
 6065POPC   PO475900  32.507   8.354   5.487
 6065POPC   GL175901  32.264   8.501   5.828
 6065POPC   GL275902  32.019   8.777   5.727
 6065POPC   C1A75903  32.227   8.200   6.157
 6065POPC   D2A75904  32.435   8.048   6.528
 6065POPC   C3A75905  32.120   7.915   6.827
 6065POPC   C4A75906  32.251   7.854   7.233
 6065POPC   C1B75907  31.872   8.602   6.142
 6065POPC   C2B75908  32.141   8.557   6.512
 6065POPC   C3B75909  32.195   8.412   6.919
 6065POPC   C4B75910  31.924   8.259   7.230
 6066POPC   NC375911   5.440   6.037   5.196
 6066POPC   PO475912   4.872   6.344   5.261
 6066POPC   GL175913   5.051   6.156   5.739
 6066POPC   GL275914   5.285   5.842   5.745
 6066POPC   C1A75915   4.999   5.944   6.197
 6066POPC   D2A75916   4.652   5.935   6.533
 6066POPC   C3A75917   4.939   5.934   6.891
 6066POPC   C4A75918   4.976   5.804   7.349
 6066POPC   C1B75919   5.468   5.730   6.150
 6066POPC   C2B75920   5.390   5.858   6.596
 6066POPC   C3B75921   5.402   5.784   7.053
 6066POPC   C4B75922   5.474   5.967   7.480
 6067POPC   NC375923  15.297   2.887   4.875
 6067POPC   PO475924  14.833   2.859   5.348
 6067POPC   GL175925  15.167   2.694   5.616
 6067POPC   GL275926  15.262   2.988   5.812
 6067POPC   C1A75927  15.327   2.518   6.018
 6067POPC   D2A75928  15.204   2.604   6.443
 6067POPC   C3A75929  15.346   2.627   6.847
 6067POPC   C4A75930  15.262   2.672   7.282
 6067POPC   C1B75931  15.152   3.075   6.229
 6067POPC   C2B75932  14.984   3.029   6.633
 6067POPC   C3B75933  15.198   3.102   7.011
 6067POPC   C4B75934  15.200   3.383   7.334
 6068POPC   NC375935  28.416  13.817   5.359
 6068POPC   PO475936  28.815  13.315   5.581
 6068POPC   GL175937  28.669  13.606   5.851
 6068POPC   GL275938  28.330  13.538   5.821
 6068POPC   C1A75939  28.714  13.770   6.275
 6068POPC   D2A75940  28.609  13.950   6.682
 6068POPC   C3A75941  28.317  13.748   6.940
 6068POPC   C4A75942  28.429  13.779   7.362
 6068POPC   C1B75943  28.006  13.370   6.155
 6068POPC   C2B75944  27.986  13.498   6.576
 6068POPC   C3B75945  28.006  13.286   6.945
 6068POPC   C4B75946  28.036  13.482   7.297
 6069POPC   NC375947  38.747   0.883   5.454
 6069POPC   PO475948  38.244   1.257   5.124
 6069POPC   GL175949  38.193   1.264   5.679
 6069POPC   GL275950  38.315   0.916   5.747
 6069POPC   C1A75951  38.440   1.278   6.113
 6069POPC   D2A75952  38.641   1.554   6.388
 6069POPC   C3A75953  38.621   1.489   6.812
 6069POPC   C4A75954  38.489   1.341   7.213
 6069POPC   C1B75955  38.046   0.966   6.111
 6069POPC   C2B75956  38.079   1.246   6.486
 6069POPC   C3B75957  38.214   1.116   6.875
 6069POPC   C4B75958  38.256   0.872   7.261
 6070POPC   NC375959  29.450  32.768   5.454
 6070POPC   PO475960  29.972  33.185   5.389
 6070POPC   GL175961  29.937  32.986   5.812
 6070POPC   GL275962  29.684  32.733   5.896
 6070POPC   C1A75963  30.081  32.904   6.244
 6070POPC   D2A75964  30.282  33.163   6.584
 6070POPC   C3A75965  30.044  33.061   6.948
 6070POPC   C4A75966  30.073  32.916   7.378
 6070POPC   C1B75967  29.440  32.644   6.260
 6070POPC   C2B75968  29.391  32.453   6.679
 6070POPC   C3B75969  29.345  32.701   7.037
 6070POPC   C4B75970  29.582  32.995   7.201
 6071POPC   NC375971  35.691  29.179   5.418
 6071POPC   PO475972  36.315  28.897   5.350
 6071POPC   GL175973  36.092  29.111   5.715
 6071POPC   GL275974  36.105  29.470   5.670
 6071POPC   C1A75975  36.100  29.077   6.184
 6071POPC   D2A75976  35.971  29.027   6.618
 6071POPC   C3A75977  36.130  29.314   6.924
 6071POPC   C4A75978  36.218  29.227   7.342
 6071POPC   C1B75979  36.332  29.497   6.063
 6071POPC   C2B75980  36.296  29.539   6.491
 6071POPC   C3B75981  36.586  29.564   6.831
 6071POPC   C4B75982  36.421  29.681   7.237
 6072POPC   NC375983  37.780  36.349   5.314
 6072POPC   PO475984  37.301  35.893   5.447
 6072POPC   GL175985  37.588  35.785   5.796
 6072POPC   GL275986  37.963  35.884   5.717
 6072POPC   C1A75987  37.516  35.895   6.259
 6072POPC   D2A75988  37.695  35.827   6.696
 6072POPC   C3A75989  37.403  35.891   7.045
 6072POPC   C4A75990  37.292  35.931   7.500
 6072POPC   C1B75991  38.068  35.940   6.183
 6072POPC   C2B75992  38.208  35.971   6.641
 6072POPC   C3B75993  38.077  36.148   7.055
 6072POPC   C4B75994  37.679  36.265   7.266
 6073POPC   NC375995  33.651  11.600   5.678
 6073POPC   PO475996  34.028  11.030   5.525
 6073POPC   GL175997  34.028  11.285   5.861
 6073POPC   GL275998  33.741  11.110   5.966
 6073POPC   C1A75999  33.951  11.500   6.263
 6073POPC   D2A76000  33.850  11.413   6.689
 6073POPC   C3A76001  34.196  11.215   6.913
 6073POPC   C4A76002  34.367  11.159   7.311
 6073POPC   C1B76003  33.432  10.780   6.104
 6073POPC   C2B76004  33.365  10.749   6.558
 6073POPC   C3B76005  33.467  11.083   6.861
 6073POPC   C4B76006  33.759  11.257   7.195
 6074POPC   NC376007  43.864  25.042   5.317
 6074POPC   PO476008  43.558  25.682   5.447
 6074POPC   GL176009  43.917  25.491   5.679
 6074POPC   GL276010  43.740  25.198   5.801
 6074POPC   C1A76011  44.202  25.414   6.067
 6074POPC   D2A76012  44.092  25.261   6.502
 6074POPC   C3A76013  44.148  25.305   6.956
 6074POPC   C4A76014  44.024  25.284   7.424
 6074POPC   C1B76015  43.636  25.270   6.249
 6074POPC   C2B76016  43.633  25.098   6.670
 6074POPC   C3B76017  43.718  25.053   7.096
 6074POPC   C4B76018  43.503  24.920   7.473
 6075POPC   NC376019  21.796   2.126   4.994
 6075POPC   PO476020  22.348   2.091   5.354
 6075POPC   GL176021  22.192   2.033   5.775
 6075POPC   GL276022  21.982   2.255   5.889
 6075POPC   C1A76023  22.190   1.823   6.176
 6075POPC   D2A76024  22.495   1.686   6.480
 6075POPC   C3A76025  22.446   1.865   6.880
 6075POPC   C4A76026  22.108   1.969   7.192
 6075POPC   C1B76027  22.190   2.341   6.236
 6075POPC   C2B76028  22.141   2.233   6.639
 6075POPC   C3B76029  21.870   2.443   6.876
 6075POPC   C4B76030  21.733   2.368   7.241
 6076POPC   NC376031  27.935  22.266   5.119
 6076POPC   PO476032  28.560  22.349   5.460
 6076POPC   GL176033  28.469  22.164   5.859
 6076POPC   GL276034  28.098  22.075   5.879
 6076POPC   C1A76035  28.579  22.285   6.271
 6076POPC   D2A76036  28.596  22.111   6.676
 6076POPC   C3A76037  28.603  22.390   7.016
 6076POPC   C4A76038  28.239  22.386   7.289
 6076POPC   C1B76039  28.247  21.879   6.273
 6076POPC   C2B76040  28.243  21.732   6.703
 6076POPC   C3B76041  28.385  21.906   7.115
 6076POPC   C4B76042  28.512  22.001   7.555
 6077POPC   NC376043  27.674  15.238   5.103
 6077POPC   PO476044  27.937  14.842   5.610
 6077POPC   GL176045  27.756  15.209   5.959
 6077POPC   GL276046  27.588  15.471   5.744
 6077POPC   C1A76047  27.529  15.051   6.369
 6077POPC   D2A76048  27.325  15.091   6.782
 6077POPC   C3A76049  27.632  14.928   7.089
 6077POPC   C4A76050  27.989  15.050   7.323
 6077POPC   C1B76051  27.391  15.528   6.177
 6077POPC   C2B76052  27.409  15.647   6.646
 6077POPC   C3B76053  27.368  15.535   7.104
 6077POPC   C4B76054  27.680  15.510   7.464
 6078POPC   NC376055  23.252  18.435   5.502
 6078POPC   PO476056  23.158  17.840   5.248
 6078POPC   GL176057  23.007  18.044   5.717
 6078POPC   GL276058  22.875  18.403   5.859
 6078POPC   C1A76059  23.133  18.133   6.181
 6078POPC   D2A76060  22.869  18.099   6.549
 6078POPC   C3A76061  22.982  18.346   6.879
 6078POPC   C4A76062  23.149  18.328   7.289
 6078POPC   C1B76063  23.013  18.633   6.254
 6078POPC   C2B76064  22.909  18.801   6.660
 6078POPC   C3B76065  22.967  18.799   7.118
 6078POPC   C4B76066  22.828  18.764   7.563
 6079POPC   NC376067  34.823  25.529   5.400
 6079POPC   PO476068  34.872  24.917   5.411
 6079POPC   GL176069  34.634  25.177   5.725
 6079POPC   GL276070  34.816  25.474   5.893
 6079POPC   C1A76071  34.673  25.078   6.182
 6079POPC   D2A76072  34.775  24.854   6.568
 6079POPC   C3A76073  34.735  25.136   6.954
 6079POPC   C4A76074  34.361  25.295   7.201
 6079POPC   C1B76075  35.005  25.454   6.291
 6079POPC   C2B76076  34.785  25.569   6.638
 6079POPC   C3B76077  34.649  25.702   7.018
 6079POPC   C4B76078  34.846  25.486   7.348
 6080POPC   NC376079   6.447  41.056   5.349
 6080POPC   PO476080   6.350  40.353   5.489
 6080POPC   GL176081   6.699  40.663   5.570
 6080POPC   GL276082   6.479  40.818   5.809
 6080POPC   C1A76083   6.932  40.779   5.988
 6080POPC   D2A76084   6.885  40.877   6.459
 6080POPC   C3A76085   6.690  40.625   6.784
 6080POPC   C4A76086   6.756  40.645   7.226
 6080POPC   C1B76087   6.419  40.984   6.227
 6080POPC   C2B76088   6.431  41.082   6.668
 6080POPC   C3B76089   6.542  41.081   7.097
 6080POPC   C4B76090   6.464  40.912   7.536
 6081POPC   NC376091  27.617  13.330   5.447
 6081POPC   PO476092  27.953  13.879   5.340
 6081POPC   GL176093  27.620  13.828   5.673
 6081POPC   GL276094  27.843  13.645   5.785
 6081POPC   C1A76095  27.507  13.507   6.105
 6081POPC   D2A76096  27.497  13.651   6.540
 6081POPC   C3A76097  27.508  13.391   6.883
 6081POPC   C4A76098  27.544  13.482   7.295
 6081POPC   C1B76099  27.789  13.932   6.158
 6081POPC   C2B76100  27.790  14.056   6.600
 6081POPC   C3B76101  27.732  13.843   6.968
 6081POPC   C4B76102  27.803  13.922   7.379
 6082POPC   NC376103  41.843  16.265   5.348
 6082POPC   PO476104  41.623  15.612   5.116
 6082POPC   GL176105  41.625  15.847   5.577
 6082POPC   GL276106  41.345  15.981   5.836
 6082POPC   C1A76107  41.842  15.847   6.025
 6082POPC   D2A76108  41.972  15.740   6.501
 6082POPC   C3A76109  41.720  15.776   6.883
 6082POPC   C4A76110  41.541  16.130   7.152
 6082POPC   C1B76111  41.391  15.652   6.219
 6082POPC   C2B76112  41.282  15.512   6.661
 6082POPC   C3B76113  41.234  15.733   7.041
 6082POPC   C4B76114  41.323  15.791   7.461
 6083POPC   NC376115   7.270  41.971   5.519
 6083POPC   PO476116   7.392  42.594   5.214
 6083POPC   GL176117   7.284  42.515   5.646
 6083POPC   GL276118   7.582  42.405   5.728
 6083POPC   C1A76119   7.215  42.470   6.108
 6083POPC   D2A76120   7.307  42.753   6.475
 6083POPC   C3A76121   7.320  42.532   6.871
 6083POPC   C4A76122   7.214  42.314   7.234
 6083POPC   C1B76123   7.726  42.581   6.111
 6083POPC   C2B76124   7.821  42.417   6.523
 6083POPC   C3B76125   7.718  42.148   6.858
 6083POPC   C4B76126   7.711  42.427   7.181
 6084POPC   NC376127  18.739   1.753   5.470
 6084POPC   PO476128  19.289   2.162   5.568
 6084POPC   GL176129  19.046   1.924   5.877
 6084POPC   GL276130  18.742   2.074   5.940
 6084POPC   C1A76131  19.077   1.990   6.328
 6084POPC   D2A76132  19.342   2.048   6.665
 6084POPC   C3A76133  19.106   2.036   7.040
 6084POPC   C4A76134  19.048   2.365   7.341
 6084POPC   C1B76135  18.649   1.710   6.245
 6084POPC   C2B76136  18.850   1.640   6.679
 6084POPC   C3B76137  18.644   1.711   7.089
 6084POPC   C4B76138  18.692   2.020   7.394
 6085POPC   NC376139  40.719   3.234   5.496
 6085POPC   PO476140  40.861   2.666   5.172
 6085POPC   GL176141  40.948   2.752   5.643
 6085POPC   GL276142  41.032   2.369   5.688
 6085POPC   C1A76143  40.782   2.996   6.077
 6085POPC   D2A76144  40.449   2.957   6.464
 6085POPC   C3A76145  40.550   3.055   6.922
 6085POPC   C4A76146  40.690   2.798   7.277
 6085POPC   C1B76147  40.755   2.481   6.050
 6085POPC   C2B76148  40.895   2.683   6.440
 6085POPC   C3B76149  40.894   2.639   6.832
 6085POPC   C4B76150  41.245   2.576   7.038
 6086POPC   NC376151  25.395  31.236   5.155
 6086POPC   PO476152  24.961  31.710   5.420
 6086POPC   GL176153  25.231  31.581   5.770
 6086POPC   GL276154  25.379  31.282   5.664
 6086POPC   C1A76155  25.308  31.537   6.241
 6086POPC   D2A76156  25.500  31.553   6.628
 6086POPC   C3A76157  25.234  31.560   6.970
 6086POPC   C4A76158  25.345  31.672   7.394
 6086POPC   C1B76159  25.446  31.091   6.061
 6086POPC   C2B76160  25.654  31.103   6.474
 6086POPC   C3B76161  25.495  31.098   6.891
 6086POPC   C4B76162  25.282  31.151   7.283
 6087POPC   NC376163  21.478  18.792   5.541
 6087POPC   PO476164  21.352  19.386   5.516
 6087POPC   GL176165  21.255  19.144   5.856
 6087POPC   GL276166  21.588  19.069   5.946
 6087POPC   C1A76167  21.221  19.078   6.304
 6087POPC   D2A76168  21.455  18.953   6.663
 6087POPC   C3A76169  21.262  19.054   7.014
 6087POPC   C4A76170  20.995  19.424   7.111
 6087POPC   C1B76171  21.823  19.027   6.286
 6087POPC   C2B76172  21.923  18.766   6.635
 6087POPC   C3B76173  21.951  18.909   7.031
 6087POPC   C4B76174  21.637  18.919   7.331
 6088POPC   NC376175  14.733  20.100   5.413
 6088POPC   PO476176  14.049  20.209   5.443
 6088POPC   GL176177  14.243  20.009   5.822
 6088POPC   GL276178  14.504  19.772   5.760
 6088POPC   C1A76179  14.211  19.670   6.182
 6088POPC   D2A76180  13.957  19.546   6.532
 6088POPC   C3A76181  14.168  19.606   6.931
 6088POPC   C4A76182  14.593  19.593   7.109
 6088POPC   C1B76183  14.633  19.947   6.192
 6088POPC   C2B76184  14.537  19.831   6.611
 6088POPC   C3B76185  14.435  20.053   6.976
 6088POPC   C4B76186  14.691  20.041   7.342
 6089POPC   NC376187  15.974  12.946   5.336
 6089POPC   PO476188  16.445  12.536   5.430
 6089POPC   GL176189  16.134  12.707   5.749
 6089POPC   GL276190  15.763  12.592   5.695
 6089POPC   C1A76191  16.186  12.864   6.169
 6089POPC   D2A76192  16.218  12.709   6.578
 6089POPC   C3A76193  16.049  12.999   6.881
 6089POPC   C4A76194  16.186  12.974   7.324
 6089POPC   C1B76195  15.728  12.956   5.990
 6089POPC   C2B76196  15.730  13.056   6.445
 6089POPC   C3B76197  15.515  12.947   6.823
 6089POPC   C4B76198  15.688  12.931   7.237
 6090POPC   NC376199  25.237  28.480   5.379
 6090POPC   PO476200  25.240  27.839   5.410
 6090POPC   GL176201  25.131  28.137   5.758
 6090POPC   GL276202  25.425  28.375   5.820
 6090POPC   C1A76203  25.206  28.163   6.219
 6090POPC   D2A76204  25.120  28.381   6.591
 6090POPC   C3A76205  25.268  28.193   6.959
 6090POPC   C4A76206  25.193  28.452   7.311
 6090POPC   C1B76207  25.682  28.357   6.142
 6090POPC   C2B76208  25.622  28.283   6.544
 6090POPC   C3B76209  25.556  28.592   6.836
 6090POPC   C4B76210  25.691  28.431   7.206
 6091POPC   NC376211  23.238  33.370   5.404
 6091POPC   PO476212  22.761  32.935   5.522
 6091POPC   GL176213  22.863  33.050   5.901
 6091POPC   GL276214  22.833  33.382   5.827
 6091POPC   C1A76215  22.804  33.031   6.331
 6091POPC   D2A76216  23.082  32.806   6.597
 6091POPC   C3A76217  23.216  32.973   6.959
 6091POPC   C4A76218  22.847  33.082   7.191
 6091POPC   C1B76219  23.096  33.436   6.231
 6091POPC   C2B76220  23.025  33.359   6.693
 6091POPC   C3B76221  23.070  33.511   7.145
 6091POPC   C4B76222  22.962  33.332   7.622
 6092POPC   NC376223  17.321  33.918   5.432
 6092POPC   PO476224  17.872  33.526   5.271
 6092POPC   GL176225  17.723  33.657   5.689
 6092POPC   GL276226  17.428  33.437   5.717
 6092POPC   C1A76227  17.497  33.851   6.071
 6092POPC   D2A76228  17.198  33.898   6.428
 6092POPC   C3A76229  17.370  33.909   6.839
 6092POPC   C4A76230  17.532  33.972   7.258
 6092POPC   C1B76231  17.589  33.349   6.169
 6092POPC   C2B76232  17.516  33.437   6.637
 6092POPC   C3B76233  17.558  33.496   7.098
 6092POPC   C4B76234  17.430  33.570   7.551
 6093POPC   NC376235  41.793   7.663   5.420
 6093POPC   PO476236  41.481   7.115   5.496
 6093POPC   GL176237  41.649   7.351   5.844
 6093POPC   GL276238  41.351   7.266   5.986
 6093POPC   C1A76239  41.749   7.312   6.307
 6093POPC   D2A76240  41.696   7.240   6.763
 6093POPC   C3A76241  41.595   7.624   7.026
 6093POPC   C4A76242  41.765   7.726   7.391
 6093POPC   C1B76243  41.232   7.349   6.340
 6093POPC   C2B76244  41.242   7.458   6.715
 6093POPC   C3B76245  41.258   7.223   7.071
 6093POPC   C4B76246  41.392   7.355   7.430
 6094POPC   NC376247  32.714   2.039   5.444
 6094POPC   PO476248  33.252   1.572   5.435
 6094POPC   GL176249  33.064   1.745   5.832
 6094POPC   GL276250  32.711   1.708   5.854
 6094POPC   C1A76251  33.191   1.914   6.264
 6094POPC   D2A76252  33.376   2.090   6.646
 6094POPC   C3A76253  33.262   1.859   7.064
 6094POPC   C4A76254  33.233   1.772   7.550
 6094POPC   C1B76255  32.738   2.095   6.103
 6094POPC   C2B76256  32.742   2.164   6.545
 6094POPC   C3B76257  32.938   2.230   6.943
 6094POPC   C4B76258  32.849   2.034   7.313
 6095POPC   NC376259  28.472  43.242   5.459
 6095POPC   PO476260  28.312  42.500   5.414
 6095POPC   GL176261  28.471  42.791   5.706
 6095POPC   GL276262  28.166  42.966   5.754
 6095POPC   C1A76263  28.645  42.840   6.139
 6095POPC   D2A76264  28.629  43.155   6.484
 6095POPC   C3A76265  28.772  43.085   6.902
 6095POPC   C4A76266  28.713  43.049   7.329
 6095POPC   C1B76267  28.232  43.158   6.150
 6095POPC   C2B76268  28.059  43.255   6.539
 6095POPC   C3B76269  28.249  43.159   6.924
 6095POPC   C4B76270  28.219  43.176   7.365
 6096POPC   NC376271  41.254  15.871   5.078
 6096POPC   PO476272  40.741  15.911   5.481
 6096POPC   GL176273  40.728  15.978   5.879
 6096POPC   GL276274  40.406  16.054   5.917
 6096POPC   C1A76275  40.901  16.173   6.228
 6096POPC   D2A76276  41.130  15.997   6.568
 6096POPC   C3A76277  41.111  16.253   6.907
 6096POPC   C4A76278  40.929  16.100   7.255
 6096POPC   C1B76279  40.408  16.098   6.336
 6096POPC   C2B76280  40.630  16.162   6.708
 6096POPC   C3B76281  40.445  16.053   7.073
 6096POPC   C4B76282  40.481  15.966   7.513
 6097POPC   NC376283  39.346  36.396   5.434
 6097POPC   PO476284  39.028  35.781   5.235
 6097POPC   GL176285  39.093  35.970   5.679
 6097POPC   GL276286  38.973  36.299   5.768
 6097POPC   C1A76287  39.127  35.854   6.126
 6097POPC   D2A76288  39.130  35.745   6.595
 6097POPC   C3A76289  39.228  35.904   7.004
 6097POPC   C4A76290  39.320  35.806   7.457
 6097POPC   C1B76291  39.266  36.343   6.126
 6097POPC   C2B76292  39.335  36.244   6.565
 6097POPC   C3B76293  39.429  36.375   6.996
 6097POPC   C4B76294  39.093  36.302   7.309
 6098POPC   NC376295  25.802  10.117   5.430
 6098POPC   PO476296  26.219  10.696   5.423
 6098POPC   GL176297  25.969  10.546   5.766
 6098POPC   GL276298  25.703  10.781   5.841
 6098POPC   C1A76299  26.041  10.458   6.225
 6098POPC   D2A76300  26.253  10.499   6.648
 6098POPC   C3A76301  25.998  10.487   7.027
 6098POPC   C4A76302  25.806  10.177   7.317
 6098POPC   C1B76303  25.904  10.950   6.216
 6098POPC   C2B76304  25.899  10.848   6.636
 6098POPC   C3B76305  25.851  11.004   7.030
 6098POPC   C4B76306  25.857  10.816   7.448
 6099POPC   NC376307   1.952  15.684   5.716
 6099POPC   PO476308   2.004  16.179   5.171
 6099POPC   GL176309   1.877  16.240   5.645
 6099POPC   GL276310   2.182  16.125   5.769
 6099POPC   C1A76311   1.857  16.160   6.149
 6099POPC   D2A76312   1.971  16.257   6.576
 6099POPC   C3A76313   1.872  16.020   6.960
 6099POPC   C4A76314   1.674  16.037   7.386
 6099POPC   C1B76315   2.355  16.026   6.202
 6099POPC   C2B76316   2.246  15.833   6.598
 6099POPC   C3B76317   2.368  16.043   6.990
 6099POPC   C4B76318   2.178  15.878   7.367
 6100POPC   NC376319  12.831  23.542   5.239
 6100POPC   PO476320  13.187  23.960   5.613
 6100POPC   GL176321  12.980  23.685   5.891
 6100POPC   GL276322  12.709  23.528   5.752
 6100POPC   C1A76323  12.729  23.741   6.240
 6100POPC   D2A76324  12.662  23.825   6.656
 6100POPC   C3A76325  12.806  23.610   7.011
 6100POPC   C4A76326  12.728  23.755   7.353
 6100POPC   C1B76327  12.585  23.268   6.113
 6100POPC   C2B76328  12.336  23.466   6.458
 6100POPC   C3B76329  12.376  23.401   6.884
 6100POPC   C4B76330  12.679  23.089   7.028
 6101POPC   NC376331  20.593  33.988   5.293
 6101POPC   PO476332  21.110  33.742   5.595
 6101POPC   GL176333  20.695  33.771   5.753
 6101POPC   GL276334  20.567  34.104   5.832
 6101POPC   C1A76335  20.656  33.694   6.146
 6101POPC   D2A76336  20.897  33.985   6.386
 6101POPC   C3A76337  20.890  33.900   6.803
 6101POPC   C4A76338  20.833  33.722   7.194
 6101POPC   C1B76339  20.329  34.053   6.222
 6101POPC   C2B76340  20.399  33.808   6.611
 6101POPC   C3B76341  20.399  33.957   7.056
 6101POPC   C4B76342  20.413  33.785   7.511
 6102POPC   NC376343  17.548  20.144   5.198
 6102POPC   PO476344  17.590  20.789   5.061
 6102POPC   GL176345  17.488  20.755   5.564
 6102POPC   GL276346  17.457  20.403   5.698
 6102POPC   C1A76347  17.280  20.746   6.018
 6102POPC   D2A76348  17.370  20.852   6.454
 6102POPC   C3A76349  17.413  20.706   6.869
 6102POPC   C4A76350  17.285  20.951   7.220
 6102POPC   C1B76351  17.345  20.210   6.130
 6102POPC   C2B76352  17.540  20.237   6.570
 6102POPC   C3B76353  17.441  20.214   7.019
 6102POPC   C4B76354  17.630  20.506   7.318
 6103POPC   NC376355  40.245   8.541   5.432
 6103POPC   PO476356  39.890   9.068   5.569
 6103POPC   GL176357  39.916   8.959   5.959
 6103POPC   GL276358  40.169   8.683   5.933
 6103POPC   C1A76359  40.105   9.105   6.342
 6103POPC   D2A76360  40.428   9.207   6.672
 6103POPC   C3A76361  40.290   9.209   7.137
 6103POPC   C4A76362  40.062   9.029   7.507
 6103POPC   C1B76363  39.877   8.561   6.274
 6103POPC   C2B76364  39.855   8.668   6.718
 6103POPC   C3B76365  40.122   8.687   7.086
 6103POPC   C4B76366  40.139   8.530   7.531
 6104POPC   NC376367  15.406  37.893   5.020
 6104POPC   PO476368  15.976  37.679   5.346
 6104POPC   GL176369  15.734  37.691   5.717
 6104POPC   GL276370  15.910  37.474   5.872
 6104POPC   C1A76371  15.791  37.863   6.171
 6104POPC   D2A76372  15.997  37.689   6.558
 6104POPC   C3A76373  15.878  37.816   6.985
 6104POPC   C4A76374  16.057  37.865   7.403
 6104POPC   C1B76375  15.789  37.339   6.243
 6104POPC   C2B76376  16.033  37.130   6.552
 6104POPC   C3B76377  16.047  37.315   6.954
 6104POPC   C4B76378  16.188  37.241   7.362
 6105POPC   NC376379  36.460   7.935   5.422
 6105POPC   PO476380  36.339   8.561   5.653
 6105POPC   GL176381  36.362   8.193   5.876
 6105POPC   GL276382  36.056   8.079   5.736
 6105POPC   C1A76383  36.218   8.239   6.292
 6105POPC   D2A76384  36.104   8.281   6.704
 6105POPC   C3A76385  36.347   8.326   7.016
 6105POPC   C4A76386  36.166   8.200   7.352
 6105POPC   C1B76387  35.884   7.877   6.106
 6105POPC   C2B76388  36.009   7.796   6.566
 6105POPC   C3B76389  35.899   7.893   7.013
 6105POPC   C4B76390  35.765   7.837   7.483
 6106POPC   NC376391  35.961   8.792   5.551
 6106POPC   PO476392  36.292   9.285   5.226
 6106POPC   GL176393  36.160   9.258   5.686
 6106POPC   GL276394  36.292   8.999   5.929
 6106POPC   C1A76395  35.890   9.273   6.076
 6106POPC   D2A76396  35.662   9.159   6.457
 6106POPC   C3A76397  35.935   9.136   6.837
 6106POPC   C4A76398  35.842   9.144   7.275
 6106POPC   C1B76399  35.973   8.756   6.213
 6106POPC   C2B76400  35.793   8.682   6.627
 6106POPC   C3B76401  35.944   8.655   7.040
 6106POPC   C4B76402  36.303   8.891   7.169
 6107POPC   NC376403   8.677  43.986   5.421
 6107POPC   PO476404   8.010  43.779   5.411
 6107POPC   GL176405   8.076  43.943   5.795
 6107POPC   GL276406   8.388  43.927   5.845
 6107POPC   C1A76407   7.997  43.720   6.174
 6107POPC   D2A76408   7.803  43.801   6.565
 6107POPC   C3A76409   8.079  43.747   6.910
 6107POPC   C4A76410   8.111  43.972   7.256
 6107POPC   C1B76411   8.509  43.661   6.172
 6107POPC   C2B76412   8.340  43.518   6.527
 6107POPC   C3B76413   8.550  43.492   6.903
 6107POPC   C4B76414   8.386  43.567   7.312
 6108POPC   NC376415  22.639  26.986   5.458
 6108POPC   PO476416  23.050  26.473   5.546
 6108POPC   GL176417  22.949  26.789   5.849
 6108POPC   GL276418  22.618  26.741   5.920
 6108POPC   C1A76419  23.054  26.972   6.258
 6108POPC   D2A76420  22.950  26.831   6.664
 6108POPC   C3A76421  23.037  27.022   7.037
 6108POPC   C4A76422  23.409  27.188   7.096
 6108POPC   C1B76423  22.675  26.536   6.330
 6108POPC   C2B76424  22.918  26.331   6.678
 6108POPC   C3B76425  23.034  26.502   7.052
 6108POPC   C4B76426  22.755  26.574   7.388
 6109POPC   NC376427  27.103  34.081   5.438
 6109POPC   PO476428  26.796  33.455   5.536
 6109POPC   GL176429  27.063  33.708   5.818
 6109POPC   GL276430  26.964  34.041   5.904
 6109POPC   C1A76431  27.223  33.789   6.249
 6109POPC   D2A76432  26.962  33.857   6.618
 6109POPC   C3A76433  27.084  33.873   7.049
 6109POPC   C4A76434  26.869  33.582   7.360
 6109POPC   C1B76435  26.685  33.908   6.179
 6109POPC   C2B76436  26.538  34.160   6.514
 6109POPC   C3B76437  26.762  34.262   6.875
 6109POPC   C4B76438  26.621  34.015   7.212
 6110POPC   NC376439  31.792  41.626   4.919
 6110POPC   PO476440  31.291  41.504   5.386
 6110POPC   GL176441  31.520  41.478   5.767
 6110POPC   GL276442  31.687  41.773   5.898
 6110POPC   C1A76443  31.672  41.282   6.156
 6110POPC   D2A76444  31.663  41.362   6.609
 6110POPC   C3A76445  31.792  41.251   7.072
 6110POPC   C4A76446  31.563  41.176   7.459
 6110POPC   C1B76447  31.319  41.732   6.171
 6110POPC   C2B76448  31.296  41.801   6.604
 6110POPC   C3B76449  31.527  41.665   6.981
 6110POPC   C4B76450  31.447  41.661   7.402
 6111POPC   NC376451  29.614  31.216   5.289
 6111POPC   PO476452  28.947  31.532   5.443
 6111POPC   GL176453  29.076  31.331   5.803
 6111POPC   GL276454  29.431  31.303   5.780
 6111POPC   C1A76455  29.080  31.237   6.248
 6111POPC   D2A76456  29.144  31.536   6.595
 6111POPC   C3A76457  29.052  31.339   6.977
 6111POPC   C4A76458  28.900  31.195   7.365
 6111POPC   C1B76459  29.599  31.197   6.225
 6111POPC   C2B76460  29.529  31.194   6.721
 6111POPC   C3B76461  29.552  31.430   7.122
 6111POPC   C4B76462  29.220  31.693   7.305
 6112POPC   NC376463  34.547  14.076   5.626
 6112POPC   PO476464  34.607  13.428   5.372
 6112POPC   GL176465  34.639  13.406   5.803
 6112POPC   GL276466  34.420  13.650   5.907
 6112POPC   C1A76467  34.756  13.402   6.228
 6112POPC   D2A76468  34.526  13.425   6.602
 6112POPC   C3A76469  34.710  13.539   6.972
 6112POPC   C4A76470  34.869  13.739   7.318
 6112POPC   C1B76471  34.220  13.351   6.186
 6112POPC   C2B76472  33.997  13.305   6.582
 6112POPC   C3B76473  34.213  13.292   6.980
 6112POPC   C4B76474  34.119  13.356   7.373
 6113POPC   NC376475  21.891  42.362   5.354
 6113POPC   PO476476  22.501  42.107   5.366
 6113POPC   GL176477  22.351  42.399   5.720
 6113POPC   GL276478  22.052  42.616   5.750
 6113POPC   C1A76479  22.267  42.466   6.201
 6113POPC   D2A76480  22.142  42.245   6.608
 6113POPC   C3A76481  22.155  42.344   7.054
 6113POPC   C4A76482  22.294  42.431   7.486
 6113POPC   C1B76483  21.778  42.672   6.105
 6113POPC   C2B76484  21.890  42.685   6.517
 6113POPC   C3B76485  21.774  42.686   6.925
 6113POPC   C4B76486  21.765  42.537   7.322
 6114POPC   NC376487  23.823   3.898   5.304
 6114POPC   PO476488  23.989   4.574   5.392
 6114POPC   GL176489  23.804   4.334   5.729
 6114POPC   GL276490  24.112   4.189   5.786
 6114POPC   C1A76491  23.523   4.388   6.114
 6114POPC   D2A76492  23.251   4.242   6.463
 6114POPC   C3A76493  23.304   4.425   6.891
 6114POPC   C4A76494  23.251   4.179   7.269
 6114POPC   C1B76495  24.024   4.381   6.216
 6114POPC   C2B76496  23.766   4.265   6.579
 6114POPC   C3B76497  23.763   4.136   6.990
 6114POPC   C4B76498  23.866   4.499   7.255
 6115POPC   NC376499  33.785  26.871   5.400
 6115POPC   PO476500  33.604  26.262   5.590
 6115POPC   GL176501  33.673  26.633   5.823
 6115POPC   GL276502  34.031  26.608   5.881
 6115POPC   C1A76503  33.714  26.952   6.165
 6115POPC   D2A76504  33.833  26.800   6.575
 6115POPC   C3A76505  33.753  26.821   7.000
 6115POPC   C4A76506  33.523  27.087   7.264
 6115POPC   C1B76507  33.804  26.396   6.246
 6115POPC   C2B76508  33.568  26.313   6.617
 6115POPC   C3B76509  33.658  26.304   7.037
 6115POPC   C4B76510  33.988  26.480   7.291
 6116POPC   NC376511  35.787  31.712   5.428
 6116POPC   PO476512  36.208  31.230   5.295
 6116POPC   GL176513  36.045  31.321   5.674
 6116POPC   GL276514  36.370  31.248   5.802
 6116POPC   C1A76515  35.897  31.389   6.097
 6116POPC   D2A76516  36.047  31.549   6.500
 6116POPC   C3A76517  36.038  31.326   6.865
 6116POPC   C4A76518  35.905  31.397   7.255
 6116POPC   C1B76519  36.360  31.637   6.055
 6116POPC   C2B76520  36.501  31.789   6.462
 6116POPC   C3B76521  36.389  31.707   6.871
 6116POPC   C4B76522  36.365  31.663   7.327
 6117POPC   NC376523  20.924   2.518   5.370
 6117POPC   PO476524  21.488   2.813   5.351
 6117POPC   GL176525  21.329   2.674   5.730
 6117POPC   GL276526  21.104   2.912   5.695
 6117POPC   C1A76527  21.454   2.724   6.179
 6117POPC   D2A76528  21.698   2.849   6.572
 6117POPC   C3A76529  21.462   2.751   6.972
 6117POPC   C4A76530  21.344   2.653   7.377
 6117POPC   C1B76531  21.232   3.152   6.013
 6117POPC   C2B76532  21.282   3.153   6.466
 6117POPC   C3B76533  21.096   3.119   6.888
 6117POPC   C4B76534  21.112   3.082   7.280
 6118POPC   NC376535  22.038  44.905   5.304
 6118POPC   PO476536  22.354  44.345   5.200
 6118POPC   GL176537  22.374  44.652   5.604
 6118POPC   GL276538  22.033  44.681   5.788
 6118POPC   C1A76539  22.446  44.769   6.073
 6118POPC   D2A76540  22.326  44.627   6.490
 6118POPC   C3A76541  22.425  44.776   6.872
 6118POPC   C4A76542  22.107  44.777   7.175
 6118POPC   C1B76543  21.934  44.835   6.222
 6118POPC   C2B76544  21.926  44.957   6.684
 6118POPC   C3B76545  21.656  44.964   7.047
 6118POPC   C4B76546  21.559  44.725   7.417
 6119POPC   NC376547  22.998   5.357   5.452
 6119POPC   PO476548  22.999   4.665   5.280
 6119POPC   GL176549  22.886   4.910   5.651
 6119POPC   GL276550  23.211   5.038   5.800
 6119POPC   C1A76551  22.781   5.076   6.074
 6119POPC   D2A76552  22.725   5.024   6.513
 6119POPC   C3A76553  22.845   5.242   6.873
 6119POPC   C4A76554  22.823   5.137   7.299
 6119POPC   C1B76555  23.359   4.957   6.235
 6119POPC   C2B76556  23.216   4.930   6.680
 6119POPC   C3B76557  23.271   4.923   7.132
 6119POPC   C4B76558  23.273   5.036   7.594
 6120POPC   NC376559  41.221  35.994   5.302
 6120POPC   PO476560  40.549  36.227   5.290
 6120POPC   GL176561  40.859  36.158   5.654
 6120POPC   GL276562  40.854  36.469   5.829
 6120POPC   C1A76563  40.893  35.987   6.108
 6120POPC   D2A76564  40.979  35.809   6.568
 6120POPC   C3A76565  40.788  36.024   6.932
 6120POPC   C4A76566  40.673  36.278   7.283
 6120POPC   C1B76567  41.065  36.515   6.211
 6120POPC   C2B76568  40.996  36.361   6.608
 6120POPC   C3B76569  41.056  36.487   7.016
 6120POPC   C4B76570  41.199  36.373   7.438
 6121POPC   NC376571  12.116  38.351   5.411
 6121POPC   PO476572  11.983  38.984   5.562
 6121POPC   GL176573  11.904  38.617   5.817
 6121POPC   GL276574  12.268  38.607   5.841
 6121POPC   C1A76575  12.008  38.339   6.207
 6121POPC   D2A76576  12.178  38.487   6.614
 6121POPC   C3A76577  12.188  38.293   7.055
 6121POPC   C4A76578  11.885  38.291   7.433
 6121POPC   C1B76579  12.133  38.849   6.229
 6121POPC   C2B76580  12.168  39.011   6.659
 6121POPC   C3B76581  11.988  38.758   7.014
 6121POPC   C4B76582  12.187  38.681   7.445
 6122POPC   NC376583  41.076  32.696   5.479
 6122POPC   PO476584  40.348  32.855   5.415
 6122POPC   GL176585  40.712  32.942   5.767
 6122POPC   GL276586  40.827  33.317   5.811
 6122POPC   C1A76587  40.690  32.948   6.245
 6122POPC   D2A76588  40.610  32.858   6.671
 6122POPC   C3A76589  40.881  32.888   6.985
 6122POPC   C4A76590  40.741  33.166   7.206
 6122POPC   C1B76591  41.117  33.158   6.099
 6122POPC   C2B76592  41.133  33.105   6.552
 6122POPC   C3B76593  41.216  33.266   6.980
 6122POPC   C4B76594  41.224  33.076   7.400
 6123POPC   NC376595  15.170  25.961   5.307
 6123POPC   PO476596  15.678  26.363   5.486
 6123POPC   GL176597  15.440  26.087   5.774
 6123POPC   GL276598  15.087  26.036   5.806
 6123POPC   C1A76599  15.422  25.923   6.209
 6123POPC   D2A76600  15.581  25.856   6.632
 6123POPC   C3A76601  15.324  25.985   6.992
 6123POPC   C4A76602  15.404  26.327   7.286
 6123POPC   C1B76603  14.919  25.973   6.233
 6123POPC   C2B76604  14.988  25.812   6.633
 6123POPC   C3B76605  14.794  25.960   6.995
 6123POPC   C4B76606  14.905  26.097   7.382
 6124POPC   NC376607   0.128  33.149   5.608
 6124POPC   PO476608   0.713  32.943   5.352
 6124POPC   GL176609   0.712  33.025   5.792
 6124POPC   GL276610   0.456  32.763   5.829
 6124POPC   C1A76611   0.686  32.982   6.260
 6124POPC   D2A76612   0.489  32.839   6.634
 6124POPC   C3A76613   0.514  33.089   6.987
 6124POPC   C4A76614   0.566  33.019   7.408
 6124POPC   C1B76615   0.299  32.598   6.209
 6124POPC   C2B76616   0.014  32.588   6.549
 6124POPC   C3B76617   0.045  32.812   6.926
 6124POPC   C4B76618   0.365  32.625   7.143
 6125POPC   NC376619  13.293  27.640   5.520
 6125POPC   PO476620  13.821  27.268   5.338
 6125POPC   GL176621  13.804  27.455   5.756
 6125POPC   GL276622  13.742  27.840   5.748
 6125POPC   C1A76623  13.753  27.520   6.218
 6125POPC   D2A76624  13.444  27.387   6.541
 6125POPC   C3A76625  13.603  27.430   6.972
 6125POPC   C4A76626  13.952  27.426   7.262
 6125POPC   C1B76627  13.694  28.034   6.177
 6125POPC   C2B76628  13.866  27.887   6.592
 6125POPC   C3B76629  13.832  27.876   7.038
 6125POPC   C4B76630  13.401  27.866   7.237
 6126POPC   NC376631  22.838  15.632   5.396
 6126POPC   PO476632  22.640  16.213   5.317
 6126POPC   GL176633  22.773  16.010   5.757
 6126POPC   GL276634  23.109  15.800   5.790
 6126POPC   C1A76635  22.854  16.012   6.226
 6126POPC   D2A76636  22.871  15.889   6.679
 6126POPC   C3A76637  23.166  16.057   6.983
 6126POPC   C4A76638  23.091  16.202   7.404
 6126POPC   C1B76639  23.102  15.559   6.170
 6126POPC   C2B76640  23.258  15.497   6.587
 6126POPC   C3B76641  23.040  15.500   6.973
 6126POPC   C4B76642  22.729  15.682   7.203
 6127POPC   NC376643  38.581  23.487   5.447
 6127POPC   PO476644  39.015  23.976   5.346
 6127POPC   GL176645  38.526  23.923   5.698
 6127POPC   GL276646  38.342  23.595   5.874
 6127POPC   C1A76647  38.224  24.026   6.105
 6127POPC   D2A76648  38.184  23.799   6.533
 6127POPC   C3A76649  38.131  24.017   6.952
 6127POPC   C4A76650  38.404  23.931   7.285
 6127POPC   C1B76651  38.432  23.298   6.235
 6127POPC   C2B76652  38.491  23.234   6.666
 6127POPC   C3B76653  38.385  23.365   7.068
 6127POPC   C4B76654  38.287  23.477   7.496
 6128POPC   NC376655  29.458  35.028   5.556
 6128POPC   PO476656  29.833  35.509   5.191
 6128POPC   GL176657  29.683  35.509   5.649
 6128POPC   GL276658  29.895  35.270   5.819
 6128POPC   C1A76659  29.669  35.601   6.140
 6128POPC   D2A76660  29.877  35.406   6.513
 6128POPC   C3A76661  29.992  35.470   6.942
 6128POPC   C4A76662  30.229  35.297   7.267
 6128POPC   C1B76663  29.717  35.052   6.169
 6128POPC   C2B76664  29.598  34.985   6.579
 6128POPC   C3B76665  29.525  35.229   6.943
 6128POPC   C4B76666  29.489  35.104   7.361
 6129POPC   NC376667   7.705   8.352   5.344
 6129POPC   PO476668   7.100   8.394   5.233
 6129POPC   GL176669   7.279   8.311   5.719
 6129POPC   GL276670   7.524   8.081   5.823
 6129POPC   C1A76671   7.069   8.138   6.136
 6129POPC   D2A76672   7.026   7.905   6.557
 6129POPC   C3A76673   6.985   8.174   6.927
 6129POPC   C4A76674   7.305   8.134   7.232
 6129POPC   C1B76675   7.753   8.128   6.217
 6129POPC   C2B76676   7.837   8.301   6.636
 6129POPC   C3B76677   7.817   8.111   7.053
 6129POPC   C4B76678   7.750   8.138   7.505
 6130POPC   NC376679  43.182  28.551   5.422
 6130POPC   PO476680  42.949  27.906   5.456
 6130POPC   GL176681  43.002  28.163   5.830
 6130POPC   GL276682  43.345  28.249   5.892
 6130POPC   C1A76683  42.893  28.327   6.242
 6130POPC   D2A76684  43.041  28.512   6.577
 6130POPC   C3A76685  43.189  28.248   6.838
 6130POPC   C4A76686  42.937  28.265   7.174
 6130POPC   C1B76687  43.447  28.235   6.361
 6130POPC   C2B76688  43.561  28.561   6.695
 6130POPC   C3B76689  43.307  28.657   7.112
 6130POPC   C4B76690  43.446  28.483   7.549
 6131POPC   NC376691  24.754  33.612   5.417
 6131POPC   PO476692  24.553  32.899   5.388
 6131POPC   GL176693  24.446  32.993   5.826
 6131POPC   GL276694  24.629  33.282   5.784
 6131POPC   C1A76695  24.333  32.908   6.288
 6131POPC   D2A76696  24.241  32.686   6.715
 6131POPC   C3A76697  24.436  32.883   7.104
 6131POPC   C4A76698  24.457  33.155   7.485
 6131POPC   C1B76699  24.608  33.401   6.190
 6131POPC   C2B76700  24.718  33.289   6.578
 6131POPC   C3B76701  24.566  33.361   6.992
 6131POPC   C4B76702  24.820  33.507   7.305
 6132POPC   NC376703  44.235  29.590   5.006
 6132POPC   PO476704  43.916  29.104   5.462
 6132POPC   GL176705  43.845  29.266   5.841
 6132POPC   GL276706  43.616  29.019   5.906
 6132POPC   C1A76707  44.059  29.201   6.229
 6132POPC   D2A76708  44.229  28.965   6.571
 6132POPC   C3A76709  44.148  29.192   6.958
 6132POPC   C4A76710  44.304  29.064   7.326
 6132POPC   C1B76711  43.524  29.237   6.276
 6132POPC   C2B76712  43.729  29.124   6.650
 6132POPC   C3B76713  43.722  28.932   7.037
 6132POPC   C4B76714  43.797  29.201   7.373
 6133POPC   NC376715  19.596  31.831   5.367
 6133POPC   PO476716  19.997  31.335   5.269
 6133POPC   GL176717  20.086  31.582   5.609
 6133POPC   GL276718  19.769  31.466   5.733
 6133POPC   C1A76719  20.072  31.665   6.075
 6133POPC   D2A76720  19.747  31.664   6.433
 6133POPC   C3A76721  19.879  31.517   6.832
 6133POPC   C4A76722  19.999  31.506   7.238
 6133POPC   C1B76723  19.825  31.210   6.158
 6133POPC   C2B76724  19.795  31.042   6.600
 6133POPC   C3B76725  19.725  31.075   7.075
 6133POPC   C4B76726  19.726  31.198   7.539
 6134POPC   NC376727  19.390   9.911   5.464
 6134POPC   PO476728  18.764   9.712   5.497
 6134POPC   GL176729  19.082   9.648   5.818
 6134POPC   GL276730  19.410   9.456   5.752
 6134POPC   C1A76731  19.142   9.803   6.237
 6134POPC   D2A76732  19.166  10.012   6.627
 6134POPC   C3A76733  18.971   9.840   6.985
 6134POPC   C4A76734  19.216   9.923   7.331
 6134POPC   C1B76735  19.524   9.461   6.210
 6134POPC   C2B76736  19.345   9.485   6.653
 6134POPC   C3B76737  19.296   9.459   7.120
 6134POPC   C4B76738  19.379   9.387   7.564
 6135POPC   NC376739  33.153  36.910   5.351
 6135POPC   PO476740  32.694  36.350   5.268
 6135POPC   GL176741  32.863  36.614   5.655
 6135POPC   GL276742  32.706  36.936   5.735
 6135POPC   C1A76743  33.129  36.850   6.028
 6135POPC   D2A76744  33.054  37.076   6.460
 6135POPC   C3A76745  33.277  37.036   6.888
 6135POPC   C4A76746  33.478  37.126   7.300
 6135POPC   C1B76747  32.651  36.706   6.143
 6135POPC   C2B76748  32.630  36.835   6.574
 6135POPC   C3B76749  32.767  36.992   6.982
 6135POPC   C4B76750  32.676  36.698   7.284
 6136POPC   NC376751  13.811   1.469   5.500
 6136POPC   PO476752  13.256   1.084   5.514
 6136POPC   GL176753  13.443   1.278   5.846
 6136POPC   GL276754  13.814   1.264   5.958
 6136POPC   C1A76755  13.422   1.424   6.242
 6136POPC   D2A76756  13.613   1.270   6.548
 6136POPC   C3A76757  13.551   1.516   6.896
 6136POPC   C4A76758  13.641   1.295   7.254
 6136POPC   C1B76759  13.700   0.878   6.151
 6136POPC   C2B76760  13.843   0.699   6.530
 6136POPC   C3B76761  13.718   0.906   6.912
 6136POPC   C4B76762  13.862   0.779   7.311
 6137POPC   NC376763  43.741   1.773   5.336
 6137POPC   PO476764  44.311   2.193   5.426
 6137POPC   GL176765  44.002   2.189   5.764
 6137POPC   GL276766  43.644   2.064   5.759
 6137POPC   C1A76767  43.946   2.079   6.195
 6137POPC   D2A76768  43.954   2.280   6.598
 6137POPC   C3A76769  43.739   2.102   6.954
 6137POPC   C4A76770  44.011   2.220   7.291
 6137POPC   C1B76771  43.600   1.679   6.051
 6137POPC   C2B76772  43.780   1.457   6.437
 6137POPC   C3B76773  43.993   1.595   6.833
 6137POPC   C4B76774  43.953   1.692   7.260
 6138POPC   NC376775  14.010  37.227   5.547
 6138POPC   PO476776  14.592  36.864   5.459
 6138POPC   GL176777  14.671  36.880   5.887
 6138POPC   GL276778  14.304  36.945   5.896
 6138POPC   C1A76779  14.579  36.764   6.324
 6138POPC   D2A76780  14.324  36.586   6.654
 6138POPC   C3A76781  14.414  36.705   7.049
 6138POPC   C4A76782  14.164  36.624   7.395
 6138POPC   C1B76783  14.084  37.103   6.241
 6138POPC   C2B76784  14.223  37.087   6.656
 6138POPC   C3B76785  14.047  37.055   7.056
 6138POPC   C4B76786  14.062  37.409   7.313
 6139POPC   NC376787  36.339  18.145   5.173
 6139POPC   PO476788  37.014  18.231   5.319
 6139POPC   GL176789  36.834  18.439   5.699
 6139POPC   GL276790  36.871  18.111   5.815
 6139POPC   C1A76791  36.700  18.416   6.176
 6139POPC   D2A76792  36.724  18.231   6.590
 6139POPC   C3A76793  36.744  18.477   6.960
 6139POPC   C4A76794  36.639  18.494   7.381
 6139POPC   C1B76795  36.994  17.985   6.220
 6139POPC   C2B76796  37.248  18.064   6.562
 6139POPC   C3B76797  37.065  18.060   6.957
 6139POPC   C4B76798  36.825  18.022   7.329
 6140POPC   NC376799  27.008  26.815   5.168
 6140POPC   PO476800  26.414  26.664   5.399
 6140POPC   GL176801  26.729  26.850   5.680
 6140POPC   GL276802  26.814  26.575   5.879
 6140POPC   C1A76803  26.729  26.975   6.167
 6140POPC   D2A76804  26.763  26.808   6.598
 6140POPC   C3A76805  26.750  27.081   6.971
 6140POPC   C4A76806  26.890  27.038   7.393
 6140POPC   C1B76807  26.651  26.393   6.294
 6140POPC   C2B76808  26.483  26.201   6.671
 6140POPC   C3B76809  26.650  26.247   7.060
 6140POPC   C4B76810  26.918  26.604   7.126
 6141POPC   NC376811  34.090  27.793   5.523
 6141POPC   PO476812  33.581  27.281   5.543
 6141POPC   GL176813  33.782  27.547   5.847
 6141POPC   GL276814  33.687  27.902   5.828
 6141POPC   C1A76815  33.921  27.508   6.252
 6141POPC   D2A76816  33.694  27.312   6.569
 6141POPC   C3A76817  33.940  27.290   6.926
 6141POPC   C4A76818  33.798  27.544   7.227
 6141POPC   C1B76819  34.040  28.005   6.134
 6141POPC   C2B76820  34.224  27.873   6.535
 6141POPC   C3B76821  34.044  27.926   6.958
 6141POPC   C4B76822  34.104  27.892   7.424
 6142POPC   NC376823  22.225   1.643   5.443
 6142POPC   PO476824  21.575   1.471   5.393
 6142POPC   GL176825  21.943   1.267   5.706
 6142POPC   GL276826  21.981   0.895   5.660
 6142POPC   C1A76827  22.184   1.206   6.153
 6142POPC   D2A76828  22.333   1.185   6.639
 6142POPC   C3A76829  22.203   1.426   7.025
 6142POPC   C4A76830  22.260   1.201   7.417
 6142POPC   C1B76831  21.840   0.810   6.085
 6142POPC   C2B76832  21.876   0.935   6.521
 6142POPC   C3B76833  21.983   0.967   6.955
 6142POPC   C4B76834  21.921   0.795   7.327
 6143POPC   NC376835  12.088  11.406   5.235
 6143POPC   PO476836  12.167  10.832   5.324
 6143POPC   GL176837  12.054  11.151   5.674
 6143POPC   GL276838  12.177  11.501   5.727
 6143POPC   C1A76839  11.895  11.151   6.105
 6143POPC   D2A76840  11.838  11.322   6.531
 6143POPC   C3A76841  12.004  11.097   6.841
 6143POPC   C4A76842  11.917  11.209   7.252
 6143POPC   C1B76843  11.987  11.654   6.119
 6143POPC   C2B76844  12.077  11.790   6.565
 6143POPC   C3B76845  12.163  11.573   6.963
 6143POPC   C4B76846  12.401  11.529   7.362
 6144POPC   NC376847  14.121  23.383   5.598
 6144POPC   PO476848  14.507  22.768   5.376
 6144POPC   GL176849  14.524  22.706   5.807
 6144POPC   GL276850  14.537  23.054   5.840
 6144POPC   C1A76851  14.303  22.802   6.228
 6144POPC   D2A76852  14.468  22.866   6.605
 6144POPC   C3A76853  14.373  22.990   6.962
 6144POPC   C4A76854  14.469  22.885   7.339
 6144POPC   C1B76855  14.780  22.941   6.193
 6144POPC   C2B76856  14.868  23.164   6.496
 6144POPC   C3B76857  14.730  23.320   6.845
 6144POPC   C4B76858  14.883  23.194   7.242
 6145POPC   NC376859   9.673  10.892   5.450
 6145POPC   PO476860   9.305  10.349   5.360
 6145POPC   GL176861   9.474  10.523   5.747
 6145POPC   GL276862   9.801  10.359   5.882
 6145POPC   C1A76863   9.513  10.732   6.161
 6145POPC   D2A76864   9.703  10.625   6.546
 6145POPC   C3A76865   9.644  10.887   6.906
 6145POPC   C4A76866   9.950  10.984   7.221
 6145POPC   C1B76867  10.064  10.309   6.297
 6145POPC   C2B76868  10.052  10.324   6.796
 6145POPC   C3B76869   9.888  10.457   7.232
 6145POPC   C4B76870   9.970  10.306   7.671
 6146POPC   NC376871  33.487  14.254   5.300
 6146POPC   PO476872  32.892  14.628   5.366
 6146POPC   GL176873  33.119  14.425   5.671
 6146POPC   GL276874  33.431  14.630   5.620
 6146POPC   C1A76875  33.039  14.342   6.098
 6146POPC   D2A76876  33.082  14.560   6.486
 6146POPC   C3A76877  32.992  14.377   6.882
 6146POPC   C4A76878  33.010  14.553   7.308
 6146POPC   C1B76879  33.460  14.608   6.050
 6146POPC   C2B76880  33.576  14.364   6.401
 6146POPC   C3B76881  33.530  14.345   6.816
 6146POPC   C4B76882  33.426  14.311   7.231
 6147POPC   NC376883  13.138  28.523   5.407
 6147POPC   PO476884  12.688  28.085   5.437
 6147POPC   GL176885  12.758  28.251   5.852
 6147POPC   GL276886  12.966  28.546   5.891
 6147POPC   C1A76887  12.636  28.234   6.295
 6147POPC   D2A76888  12.726  27.905   6.607
 6147POPC   C3A76889  12.820  28.031   7.011
 6147POPC   C4A76890  12.705  28.423   7.169
 6147POPC   C1B76891  13.148  28.318   6.237
 6147POPC   C2B76892  13.056  28.351   6.711
 6147POPC   C3B76893  13.227  28.360   7.161
 6147POPC   C4B76894  13.203  28.567   7.573
 6148POPC   NC376895   2.476   7.685   5.451
 6148POPC   PO476896   2.941   7.317   5.559
 6148POPC   GL176897   2.812   7.345   5.956
 6148POPC   GL276898   2.547   7.631   5.974
 6148POPC   C1A76899   2.659   7.299   6.353
 6148POPC   D2A76900   2.624   7.562   6.700
 6148POPC   C3A76901   2.818   7.356   7.039
 6148POPC   C4A76902   2.774   7.406   7.437
 6148POPC   C1B76903   2.909   7.758   6.246
 6148POPC   C2B76904   3.001   7.996   6.648
 6148POPC   C3B76905   2.886   7.849   7.082
 6148POPC   C4B76906   2.433   7.676   7.177
 6149POPC   NC376907  13.213  35.345   5.413
 6149POPC   PO476908  13.803  34.996   5.160
 6149POPC   GL176909  13.836  35.100   5.641
 6149POPC   GL276910  13.655  35.431   5.729
 6149POPC   C1A76911  13.730  35.036   6.109
 6149POPC   D2A76912  13.418  35.127   6.446
 6149POPC   C3A76913  13.396  35.131   6.909
 6149POPC   C4A76914  13.425  35.305   7.337
 6149POPC   C1B76915  13.745  35.581   6.168
 6149POPC   C2B76916  13.596  35.585   6.600
 6149POPC   C3B76917  13.783  35.507   7.002
 6149POPC   C4B76918  13.699  35.728   7.364
 6150POPC   NC376919  18.207   6.289   5.427
 6150POPC   PO476920  18.462   5.575   5.383
 6150POPC   GL176921  18.292   5.850   5.671
 6150POPC   GL276922  18.567   6.063   5.695
 6150POPC   C1A76923  18.220   6.048   6.101
 6150POPC   D2A76924  18.176   6.127   6.568
 6150POPC   C3A76925  18.107   5.855   6.933
 6150POPC   C4A76926  18.114   5.931   7.372
 6150POPC   C1B76927  18.662   5.817   6.036
 6150POPC   C2B76928  18.618   5.873   6.456
 6150POPC   C3B76929  18.587   5.990   6.869
 6150POPC   C4B76930  18.611   5.797   7.254
 6151POPC   NC376931  10.120  27.816   5.535
 6151POPC   PO476932  10.486  27.272   5.349
 6151POPC   GL176933  10.484  27.521   5.731
 6151POPC   GL276934  10.695  27.298   5.865
 6151POPC   C1A76935  10.375  27.728   6.153
 6151POPC   D2A76936  10.546  27.809   6.590
 6151POPC   C3A76937  10.404  27.974   6.980
 6151POPC   C4A76938  10.524  27.730   7.301
 6151POPC   C1B76939  10.349  27.212   6.173
 6151POPC   C2B76940  10.213  27.398   6.571
 6151POPC   C3B76941  10.394  27.319   6.986
 6151POPC   C4B76942  10.401  27.055   7.354
 6152POPC   NC376943  24.933  43.380   5.474
 6152POPC   PO476944  24.455  42.918   5.129
 6152POPC   GL176945  24.467  43.182   5.575
 6152POPC   GL276946  24.649  42.956   5.810
 6152POPC   C1A76947  24.587  43.422   6.030
 6152POPC   D2A76948  24.502  43.371   6.491
 6152POPC   C3A76949  24.622  43.125   6.862
 6152POPC   C4A76950  24.814  42.882   7.179
 6152POPC   C1B76951  24.305  43.025   6.145
 6152POPC   C2B76952  24.178  42.952   6.593
 6152POPC   C3B76953  24.170  42.958   7.057
 6152POPC   C4B76954  24.128  42.871   7.512
 6153POPC   NC376955  37.900   7.631   5.425
 6153POPC   PO476956  37.350   7.292   5.214
 6153POPC   GL176957  37.410   7.472   5.665
 6153POPC   GL276958  37.720   7.566   5.896
 6153POPC   C1A76959  37.331   7.371   6.137
 6153POPC   D2A76960  37.541   7.592   6.474
 6153POPC   C3A76961  37.453   7.541   6.912
 6153POPC   C4A76962  37.532   7.694   7.328
 6153POPC   C1B76963  37.916   7.278   6.228
 6153POPC   C2B76964  38.210   7.096   6.576
 6153POPC   C3B76965  38.107   7.112   7.026
 6153POPC   C4B76966  37.686   7.204   7.232
 6154POPC   NC376967  34.902  23.872   5.655
 6154POPC   PO476968  34.507  23.472   5.295
 6154POPC   GL176969  34.467  23.626   5.790
 6154POPC   GL276970  34.395  23.919   5.853
 6154POPC   C1A76971  34.710  23.691   6.243
 6154POPC   D2A76972  34.781  23.763   6.701
 6154POPC   C3A76973  34.595  23.384   6.875
 6154POPC   C4A76974  34.228  23.219   7.121
 6154POPC   C1B76975  34.233  23.856   6.249
 6154POPC   C2B76976  34.340  23.993   6.657
 6154POPC   C3B76977  34.301  23.766   7.064
 6154POPC   C4B76978  34.709  23.676   7.306
 6155POPC   NC376979  13.293   0.621   5.385
 6155POPC   PO476980  13.841   0.267   5.413
 6155POPC   GL176981  13.654   0.125   5.794
 6155POPC   GL276982  13.496   0.458   5.840
 6155POPC   C1A76983  13.713   0.208   6.243
 6155POPC   D2A76984  13.523   0.278   6.626
 6155POPC   C3A76985  13.778   0.394   6.958
 6155POPC   C4A76986  13.729   0.297   7.394
 6155POPC   C1B76987  13.216   0.663   6.118
 6155POPC   C2B76988  13.343   0.760   6.537
 6155POPC   C3B76989  13.307   0.602   6.970
 6155POPC   C4B76990  13.371   0.700   7.434
 6156POPC   NC376991  34.855  17.611   5.610
 6156POPC   PO476992  34.222  17.877   5.607
 6156POPC   GL176993  34.403  17.606   5.891
 6156POPC   GL276994  34.439  17.259   5.775
 6156POPC   C1A76995  34.450  17.699   6.325
 6156POPC   D2A76996  34.535  17.625   6.734
 6156POPC   C3A76997  34.244  17.691   6.968
 6156POPC   C4A76998  34.487  17.692   7.289
 6156POPC   C1B76999  34.633  17.241   6.207
 6156POPC   C2B77000  34.595  17.103   6.632
 6156POPC   C3B77001  34.478  17.214   7.056
 6156POPC   C4B77002  34.820  17.078   7.313
 6157POPC   NC377003  41.893  19.489   5.548
 6157POPC   PO477004  42.223  20.077   5.412
 6157POPC   GL177005  42.160  19.833   5.809
 6157POPC   GL277006  42.339  19.521   5.865
 6157POPC   C1A77007  42.189  19.933   6.258
 6157POPC   D2A77008  42.493  19.839   6.598
 6157POPC   C3A77009  42.339  19.872   6.998
 6157POPC   C4A77010  41.894  20.001   7.078
 6157POPC   C1B77011  42.263  19.431   6.316
 6157POPC   C2B77012  42.019  19.653   6.669
 6157POPC   C3B77013  42.002  19.508   7.124
 6157POPC   C4B77014  42.117  19.374   7.559
 6158POPC   NC377015  12.387  22.872   5.518
 6158POPC   PO477016  11.806  23.315   5.550
 6158POPC   GL177017  11.994  23.016   5.827
 6158POPC   GL277018  11.764  22.781   5.754
 6158POPC   C1A77019  12.276  22.843   6.160
 6158POPC   D2A77020  12.447  22.970   6.546
 6158POPC   C3A77021  12.149  22.937   6.869
 6158POPC   C4A77022  12.281  22.927   7.291
 6158POPC   C1B77023  11.894  22.509   6.092
 6158POPC   C2B77024  12.019  22.502   6.524
 6158POPC   C3B77025  11.762  22.551   6.868
 6158POPC   C4B77026  11.806  22.777   7.215
 6159POPC   NC377027  22.317  33.099   5.477
 6159POPC   PO477028  21.679  33.130   5.722
 6159POPC   GL177029  22.059  33.048   5.987
 6159POPC   GL277030  22.380  33.199   5.985
 6159POPC   C1A77031  22.172  32.976   6.438
 6159POPC   D2A77032  21.870  33.008   6.799
 6159POPC   C3A77033  21.836  32.806   7.195
 6159POPC   C4A77034  21.764  33.013   7.631
 6159POPC   C1B77035  22.456  32.732   6.069
 6159POPC   C2B77036  22.565  32.610   6.473
 6159POPC   C3B77037  22.563  32.929   6.786
 6159POPC   C4B77038  22.343  32.955   7.175
 6160POPC   NC377039  18.446  37.369   5.039
 6160POPC   PO477040  18.280  36.785   5.347
 6160POPC   GL177041  18.245  36.697   5.773
 6160POPC   GL277042  17.886  36.701   5.768
 6160POPC   C1A77043  18.421  36.895   6.156
 6160POPC   D2A77044  18.667  36.894   6.521
 6160POPC   C3A77045  18.465  36.992   6.905
 6160POPC   C4A77046  18.384  36.727   7.238
 6160POPC   C1B77047  17.923  37.032   6.119
 6160POPC   C2B77048  18.125  37.147   6.523
 6160POPC   C3B77049  17.958  37.014   6.928
 6160POPC   C4B77050  17.880  36.835   7.344
 6161POPC   NC377051  37.754   9.177   5.368
 6161POPC   PO477052  37.864   8.503   5.509
 6161POPC   GL177053  37.605   8.844   5.747
 6161POPC   GL277054  37.520   9.246   5.814
 6161POPC   C1A77055  37.711   8.948   6.187
 6161POPC   D2A77056  37.542   8.778   6.561
 6161POPC   C3A77057  37.769   8.885   6.926
 6161POPC   C4A77058  37.627   8.813   7.336
 6161POPC   C1B77059  37.404   9.354   6.262
 6161POPC   C2B77060  37.377   9.256   6.701
 6161POPC   C3B77061  37.522   9.255   7.145
 6161POPC   C4B77062  37.274   9.221   7.540
 6162POPC   NC377063  38.999   8.204   5.359
 6162POPC   PO477064  39.673   8.384   5.403
 6162POPC   GL177065  39.344   8.432   5.679
 6162POPC   GL277066  39.292   8.102   5.801
 6162POPC   C1A77067  39.377   8.524   6.094
 6162POPC   D2A77068  39.434   8.397   6.516
 6162POPC   C3A77069  39.103   8.360   6.810
 6162POPC   C4A77070  39.194   8.455   7.225
 6162POPC   C1B77071  39.085   8.118   6.202
 6162POPC   C2B77072  39.134   7.893   6.562
 6162POPC   C3B77073  39.125   7.857   7.003
 6162POPC   C4B77074  39.171   7.995   7.440
 6163POPC   NC377075  10.204  26.894   5.359
 6163POPC   PO477076   9.579  26.885   5.180
 6163POPC   GL177077   9.781  27.006   5.622
 6163POPC   GL277078   9.515  27.135   5.838
 6163POPC   C1A77079   9.900  26.885   6.080
 6163POPC   D2A77080   9.951  26.944   6.547
 6163POPC   C3A77081   9.845  26.640   6.867
 6163POPC   C4A77082   9.969  26.597   7.290
 6163POPC   C1B77083   9.305  26.927   6.184
 6163POPC   C2B77084   9.449  26.791   6.554
 6163POPC   C3B77085   9.428  26.978   6.927
 6163POPC   C4B77086   9.521  26.820   7.281
 6164POPC   NC377087  18.757  29.761   5.283
 6164POPC   PO477088  19.210  30.211   5.446
 6164POPC   GL177089  19.105  29.906   5.723
 6164POPC   GL277090  18.800  29.701   5.793
 6164POPC   C1A77091  19.272  29.830   6.137
 6164POPC   D2A77092  19.056  29.916   6.514
 6164POPC   C3A77093  19.188  30.233   6.784
 6164POPC   C4A77094  19.148  30.184   7.213
 6164POPC   C1B77095  18.863  29.521   6.207
 6164POPC   C2B77096  18.826  29.484   6.663
 6164POPC   C3B77097  19.013  29.718   7.027
 6164POPC   C4B77098  18.973  29.756   7.512
 6165POPC   NC377099  36.104   2.329   5.140
 6165POPC   PO477100  36.013   1.676   5.218
 6165POPC   GL177101  35.970   1.932   5.609
 6165POPC   GL277102  35.956   2.311   5.690
 6165POPC   C1A77103  35.951   1.963   6.070
 6165POPC   D2A77104  35.832   1.795   6.477
 6165POPC   C3A77105  36.030   1.947   6.853
 6165POPC   C4A77106  36.115   1.714   7.241
 6165POPC   C1B77107  36.249   2.393   6.066
 6165POPC   C2B77108  36.400   2.256   6.470
 6165POPC   C3B77109  36.478   2.403   6.873
 6165POPC   C4B77110  36.280   2.215   7.227
 6166POPC   NC377111  44.055  31.801   5.426
 6166POPC   PO477112  43.500  32.153   5.366
 6166POPC   GL177113  43.718  32.052   5.760
 6166POPC   GL277114  44.038  32.223   5.732
 6166POPC   C1A77115  43.684  32.224   6.174
 6166POPC   D2A77116  43.676  32.456   6.541
 6166POPC   C3A77117  43.699  32.151   6.866
 6166POPC   C4A77118  43.770  32.276   7.262
 6166POPC   C1B77119  44.174  32.081   6.135
 6166POPC   C2B77120  44.108  32.181   6.542
 6166POPC   C3B77121  44.214  32.223   6.977
 6166POPC   C4B77122  44.156  31.923   7.304
 6167POPC   NC377123  26.931  17.138   5.420
 6167POPC   PO477124  26.557  17.681   5.446
 6167POPC   GL177125  26.650  17.383   5.786
 6167POPC   GL277126  26.999  17.254   5.903
 6167POPC   C1A77127  26.659  17.505   6.225
 6167POPC   D2A77128  26.620  17.279   6.610
 6167POPC   C3A77129  26.537  17.456   7.001
 6167POPC   C4A77130  26.863  17.335   7.230
 6167POPC   C1B77131  27.246  17.489   6.185
 6167POPC   C2B77132  27.079  17.508   6.558
 6167POPC   C3B77133  27.019  17.711   6.890
 6167POPC   C4B77134  27.240  17.703   7.260
 6168POPC   NC377135  16.682  28.492   5.268
 6168POPC   PO477136  16.331  27.930   5.422
 6168POPC   GL177137  16.528  28.243   5.755
 6168POPC   GL277138  16.535  28.609   5.750
 6168POPC   C1A77139  16.768  28.312   6.188
 6168POPC   D2A77140  16.793  28.556   6.608
 6168POPC   C3A77141  16.808  28.374   7.039
 6168POPC   C4A77142  17.100  28.044   7.140
 6168POPC   C1B77143  16.332  28.609   6.136
 6168POPC   C2B77144  16.297  28.423   6.557
 6168POPC   C3B77145  16.359  28.620   6.950
 6168POPC   C4B77146  16.489  28.754   7.362
 6169POPC   NC377147   2.608  44.107   5.358
 6169POPC   PO477148   3.079  43.638   5.399
 6169POPC   GL177149   3.147  43.720   5.880
 6169POPC   GL277150   3.028  44.056   5.965
 6169POPC   C1A77151   3.105  43.657   6.338
 6169POPC   D2A77152   2.942  44.007   6.570
 6169POPC   C3A77153   2.985  43.904   6.995
 6169POPC   C4A77154   3.123  43.620   7.334
 6169POPC   C1B77155   2.663  43.810   6.166
 6169POPC   C2B77156   2.412  43.942   6.549
 6169POPC   C3B77157   2.384  43.816   6.983
 6169POPC   C4B77158   2.616  43.638   7.323
 6170POPC   NC377159  18.243  18.029   5.141
 6170POPC   PO477160  18.491  18.507   5.512
 6170POPC   GL177161  18.261  18.389   5.832
 6170POPC   GL277162  18.116  18.058   5.797
 6170POPC   C1A77163  18.442  18.427   6.258
 6170POPC   D2A77164  18.435  18.148   6.601
 6170POPC   C3A77165  18.373  18.351   6.980
 6170POPC   C4A77166  18.516  18.105   7.287
 6170POPC   C1B77167  18.034  18.121   6.215
 6170POPC   C2B77168  17.960  17.911   6.581
 6170POPC   C3B77169  18.058  17.957   6.961
 6170POPC   C4B77170  18.002  18.171   7.319
 6171POPC   NC377171   3.337  37.176   5.392
 6171POPC   PO477172   3.919  36.863   5.494
 6171POPC   GL177173   3.801  36.959   5.905
 6171POPC   GL277174   3.431  36.960   5.866
 6171POPC   C1A77175   3.808  37.022   6.371
 6171POPC   D2A77176   3.656  37.223   6.765
 6171POPC   C3A77177   3.621  36.920   7.101
 6171POPC   C4A77178   3.354  36.621   7.272
 6171POPC   C1B77179   3.476  36.658   6.205
 6171POPC   C2B77180   3.431  36.729   6.651
 6171POPC   C3B77181   3.149  36.961   6.907
 6171POPC   C4B77182   3.181  37.096   7.322
 6172POPC   NC377183  20.066  44.075   5.429
 6172POPC   PO477184  19.389  43.833   5.381
 6172POPC   GL177185  19.653  43.938   5.738
 6172POPC   GL277186  19.853  43.735   5.965
 6172POPC   C1A77187  19.553  44.101   6.166
 6172POPC   D2A77188  19.707  43.929   6.527
 6172POPC   C3A77189  19.573  43.905   6.944
 6172POPC   C4A77190  19.607  43.525   7.203
 6172POPC   C1B77191  20.070  44.133   6.148
 6172POPC   C2B77192  20.078  44.295   6.571
 6172POPC   C3B77193  20.065  44.002   6.910
 6172POPC   C4B77194  19.887  44.003   7.339
 6173POPC   NC377195   2.736   5.279   5.370
 6173POPC   PO477196   3.211   4.887   5.539
 6173POPC   GL177197   2.997   5.021   5.886
 6173POPC   GL277198   2.655   5.124   5.849
 6173POPC   C1A77199   2.832   4.845   6.283
 6173POPC   D2A77200   2.722   5.173   6.571
 6173POPC   C3A77201   2.865   5.253   6.989
 6173POPC   C4A77202   3.008   4.868   7.213
 6173POPC   C1B77203   2.380   5.127   6.200
 6173POPC   C2B77204   2.169   5.121   6.575
 6173POPC   C3B77205   2.332   5.248   6.915
 6173POPC   C4B77206   2.438   5.174   7.285
 6174POPC   NC377207   5.379  34.487   5.578
 6174POPC   PO477208   4.751  34.187   5.494
 6174POPC   GL177209   4.898  34.397   5.858
 6174POPC   GL277210   5.020  34.726   5.849
 6174POPC   C1A77211   5.086  34.426   6.271
 6174POPC   D2A77212   5.376  34.290   6.585
 6174POPC   C3A77213   5.181  34.281   6.985
 6174POPC   C4A77214   4.792  34.401   7.041
 6174POPC   C1B77215   4.914  34.904   6.212
 6174POPC   C2B77216   4.817  34.728   6.609
 6174POPC   C3B77217   5.120  34.808   6.937
 6174POPC   C4B77218   5.233  35.085   7.298
 6175POPC   NC377219   7.586  15.824   4.962
 6175POPC   PO477220   7.097  16.266   5.163
 6175POPC   GL177221   7.396  16.077   5.613
 6175POPC   GL277222   7.133  15.863   5.851
 6175POPC   C1A77223   7.512  16.089   6.090
 6175POPC   D2A77224   7.338  16.137   6.530
 6175POPC   C3A77225   7.596  16.066   6.916
 6175POPC   C4A77226   7.527  16.043   7.371
 6175POPC   C1B77227   7.084  15.696   6.304
 6175POPC   C2B77228   7.235  15.670   6.761
 6175POPC   C3B77229   7.116  15.816   7.170
 6175POPC   C4B77230   6.919  15.614   7.548
 6176POPC   NC377231  31.334   3.575   5.368
 6176POPC   PO477232  31.994   3.410   5.438
 6176POPC   GL177233  31.697   3.458   5.746
 6176POPC   GL277234  31.718   3.808   5.717
 6176POPC   C1A77235  31.435   3.454   6.124
 6176POPC   D2A77236  31.479   3.234   6.523
 6176POPC   C3A77237  31.482   3.557   6.831
 6176POPC   C4A77238  31.394   3.563   7.247
 6176POPC   C1B77239  31.862   3.744   6.147
 6176POPC   C2B77240  31.743   3.926   6.535
 6176POPC   C3B77241  31.867   3.905   6.969
 6176POPC   C4B77242  31.696   3.943   7.383
 6177POPC   NC377243  32.085  39.179   5.380
 6177POPC   PO477244  32.706  39.207   5.161
 6177POPC   GL177245  32.560  39.324   5.640
 6177POPC   GL277246  32.221  39.426   5.831
 6177POPC   C1A77247  32.529  39.132   6.101
 6177POPC   D2A77248  32.568  38.928   6.519
 6177POPC   C3A77249  32.410  39.046   6.903
 6177POPC   C4A77250  32.361  39.334   7.200
 6177POPC   C1B77251  32.011  39.443   6.286
 6177POPC   C2B77252  32.041  39.411   6.770
 6177POPC   C3B77253  31.828  39.202   7.116
 6177POPC   C4B77254  31.663  39.072   7.528
 6178POPC   NC377255  10.359  30.833   5.342
 6178POPC   PO477256  10.986  30.564   5.443
 6178POPC   GL177257  10.714  30.812   5.702
 6178POPC   GL277258  10.517  30.545   5.725
 6178POPC   C1A77259  10.501  30.894   6.106
 6178POPC   D2A77260  10.519  30.939   6.536
 6178POPC   C3A77261  10.590  30.688   6.873
 6178POPC   C4A77262  10.479  30.753   7.257
 6178POPC   C1B77263  10.789  30.490   6.109
 6178POPC   C2B77264  10.698  30.346   6.508
 6178POPC   C3B77265  10.806  30.221   6.934
 6178POPC   C4B77266  10.768  30.355   7.335
 6179POPC   NC377267  19.025   8.384   5.353
 6179POPC   PO477268  19.247   7.783   5.608
 6179POPC   GL177269  19.192   8.132   5.818
 6179POPC   GL277270  18.849   8.207   5.816
 6179POPC   C1A77271  19.124   8.065   6.251
 6179POPC   D2A77272  19.289   8.194   6.610
 6179POPC   C3A77273  19.111   8.040   6.947
 6179POPC   C4A77274  19.285   8.180   7.306
 6179POPC   C1B77275  18.832   8.462   6.203
 6179POPC   C2B77276  18.842   8.404   6.657
 6179POPC   C3B77277  19.113   8.546   7.008
 6179POPC   C4B77278  18.993   8.605   7.463
 6180POPC   NC377279  44.455  27.151   5.458
 6180POPC   PO477280   0.069  27.252   5.181
 6180POPC   GL177281  44.907  26.969   5.647
 6180POPC   GL277282  44.665  26.674   5.701
 6180POPC   C1A77283  44.588  26.987   6.077
 6180POPC   D2A77284  44.691  26.978   6.527
 6180POPC   C3A77285  44.433  26.947   6.910
 6180POPC   C4A77286  44.476  27.161   7.317
 6180POPC   C1B77287  44.923  26.610   6.096
 6180POPC   C2B77288  44.953  26.511   6.545
 6180POPC   C3B77289  44.907  26.767   6.949
 6180POPC   C4B77290  44.740  26.739   7.371
 6181POPC   NC377291  16.388  13.854   5.399
 6181POPC   PO477292  15.865  13.381   5.376
 6181POPC   GL177293  15.872  13.648   5.731
 6181POPC   GL277294  16.121  13.898   5.854
 6181POPC   C1A77295  15.798  13.482   6.138
 6181POPC   D2A77296  15.661  13.654   6.525
 6181POPC   C3A77297  15.702  13.412   6.889
 6181POPC   C4A77298  15.774  13.425   7.310
 6181POPC   C1B77299  16.120  13.837   6.325
 6181POPC   C2B77300  16.144  13.488   6.645
 6181POPC   C3B77301  16.239  13.442   7.105
 6181POPC   C4B77302  16.497  13.595   7.478
 6182POPC   NC377303  15.803   3.396   5.181
 6182POPC   PO477304  15.822   3.979   5.418
 6182POPC   GL177305  15.929   3.579   5.700
 6182POPC   GL277306  15.733   3.268   5.725
 6182POPC   C1A77307  16.073   3.644   6.150
 6182POPC   D2A77308  16.228   3.531   6.591
 6182POPC   C3A77309  16.032   3.678   6.981
 6182POPC   C4A77310  16.063   3.778   7.424
 6182POPC   C1B77311  15.622   3.337   6.195
 6182POPC   C2B77312  15.501   3.317   6.660
 6182POPC   C3B77313  15.677   3.320   7.109
 6182POPC   C4B77314  15.613   3.561   7.547
 6183POPC   NC377315  24.045  12.639   5.596
 6183POPC   PO477316  24.643  13.023   5.393
 6183POPC   GL177317  24.534  12.709   5.727
 6183POPC   GL277318  24.370  12.970   5.888
 6183POPC   C1A77319  24.471  12.485   6.156
 6183POPC   D2A77320  24.585  12.587   6.605
 6183POPC   C3A77321  24.521  12.358   7.013
 6183POPC   C4A77322  24.558  12.502   7.447
 6183POPC   C1B77323  24.166  12.898   6.288
 6183POPC   C2B77324  24.085  12.653   6.656
 6183POPC   C3B77325  24.266  12.790   6.987
 6183POPC   C4B77326  24.237  12.870   7.363
 6184POPC   NC377327   9.166  32.128   5.245
 6184POPC   PO477328   8.489  32.125   5.375
 6184POPC   GL177329   8.675  32.240   5.772
 6184POPC   GL277330   8.986  32.443   5.738
 6184POPC   C1A77331   8.776  32.244   6.211
 6184POPC   D2A77332   9.015  32.214   6.582
 6184POPC   C3A77333   8.876  32.133   7.020
 6184POPC   C4A77334   9.058  32.223   7.448
 6184POPC   C1B77335   9.114  32.646   6.150
 6184POPC   C2B77336   9.302  32.647   6.560
 6184POPC   C3B77337   9.262  32.472   6.967
 6184POPC   C4B77338   9.463  32.535   7.350
 6185POPC   NC377339  20.154   6.304   5.463
 6185POPC   PO477340  19.838   6.973   5.633
 6185POPC   GL177341  19.573   6.905   5.970
 6185POPC   GL277342  19.807   6.642   6.030
 6185POPC   C1A77343  19.737   6.955   6.406
 6185POPC   D2A77344  20.015   6.643   6.621
 6185POPC   C3A77345  20.002   6.802   7.011
 6185POPC   C4A77346  19.534   6.924   7.128
 6185POPC   C1B77347  19.994   6.309   6.236
 6185POPC   C2B77348  19.814   6.069   6.531
 6185POPC   C3B77349  19.773   6.248   6.887
 6185POPC   C4B77350  19.756   6.443   7.257
 6186POPC   NC377351  10.769  26.195   5.513
 6186POPC   PO477352  10.102  26.106   5.359
 6186POPC   GL177353  10.307  26.084   5.756
 6186POPC   GL277354  10.556  25.806   5.794
 6186POPC   C1A77355  10.530  26.245   6.123
 6186POPC   D2A77356  10.678  26.043   6.491
 6186POPC   C3A77357  10.647  26.218   6.914
 6186POPC   C4A77358  10.719  26.031   7.308
 6186POPC   C1B77359  10.311  25.760   6.186
 6186POPC   C2B77360  10.146  25.872   6.598
 6186POPC   C3B77361  10.275  25.820   7.028
 6186POPC   C4B77362  10.234  26.176   7.264
 6187POPC   NC377363  28.043  18.960   5.422
 6187POPC   PO477364  28.681  19.190   5.224
 6187POPC   GL177365  28.427  19.238   5.621
 6187POPC   GL277366  28.200  19.486   5.655
 6187POPC   C1A77367  28.359  19.012   6.044
 6187POPC   D2A77368  28.263  19.014   6.497
 6187POPC   C3A77369  28.637  19.059   6.775
 6187POPC   C4A77370  28.701  18.768   7.091
 6187POPC   C1B77371  28.143  19.461   6.116
 6187POPC   C2B77372  28.309  19.536   6.548
 6187POPC   C3B77373  28.211  19.303   6.930
 6187POPC   C4B77374  28.018  19.437   7.315
 6188POPC   NC377375  26.589  38.322   5.398
 6188POPC   PO477376  27.159  38.765   5.499
 6188POPC   GL177377  27.029  38.561   5.910
 6188POPC   GL277378  26.716  38.479   5.856
 6188POPC   C1A77379  26.914  38.371   6.300
 6188POPC   D2A77380  26.816  38.053   6.545
 6188POPC   C3A77381  26.959  38.222   6.917
 6188POPC   C4A77382  26.801  38.136   7.252
 6188POPC   C1B77383  26.523  38.672   6.198
 6188POPC   C2B77384  26.619  38.663   6.640
 6188POPC   C3B77385  26.623  38.648   7.083
 6188POPC   C4B77386  26.891  38.635   7.401
 6189POPC   NC377387   9.139  13.152   5.622
 6189POPC   PO477388   9.081  13.712   5.238
 6189POPC   GL177389   8.932  13.636   5.661
 6189POPC   GL277390   9.212  13.736   5.815
 6189POPC   C1A77391   8.797  13.695   6.144
 6189POPC   D2A77392   8.636  13.537   6.559
 6189POPC   C3A77393   8.803  13.632   6.956
 6189POPC   C4A77394   8.958  13.325   7.206
 6189POPC   C1B77395   9.257  13.492   6.182
 6189POPC   C2B77396   9.320  13.656   6.556
 6189POPC   C3B77397   9.308  13.502   6.913
 6189POPC   C4B77398   9.331  13.662   7.314
 6190POPC   NC377399  38.008   3.159   5.517
 6190POPC   PO477400  37.609   3.680   5.305
 6190POPC   GL177401  37.691   3.503   5.727
 6190POPC   GL277402  37.517   3.203   5.830
 6190POPC   C1A77403  37.898   3.390   6.143
 6190POPC   D2A77404  37.872   3.660   6.495
 6190POPC   C3A77405  37.821   3.515   6.909
 6190POPC   C4A77406  37.828   3.790   7.269
 6190POPC   C1B77407  37.421   3.582   6.157
 6190POPC   C2B77408  37.340   3.761   6.594
 6190POPC   C3B77409  37.332   3.653   7.053
 6190POPC   C4B77410  37.529   3.320   7.291
 6191POPC   NC377411  41.191   7.469   5.562
 6191POPC   PO477412  40.650   7.130   5.259
 6191POPC   GL177413  40.703   7.305   5.694
 6191POPC   GL277414  40.382   7.443   5.801
 6191POPC   C1A77415  40.800   7.530   6.116
 6191POPC   D2A77416  40.781   7.355   6.561
 6191POPC   C3A77417  40.827   7.518   6.996
 6191POPC   C4A77418  40.885   7.331   7.408
 6191POPC   C1B77419  40.366   7.265   6.247
 6191POPC   C2B77420  40.313   7.464   6.671
 6191POPC   C3B77421  40.370   7.306   7.092
 6191POPC   C4B77422  40.410   7.474   7.512
 6192POPC   NC377423  37.889  22.354   5.491
 6192POPC   PO477424  37.601  21.742   5.401
 6192POPC   GL177425  37.584  22.017   5.788
 6192POPC   GL277426  37.923  22.108   5.972
 6192POPC   C1A77427  37.463  22.124   6.220
 6192POPC   D2A77428  37.739  21.981   6.582
 6192POPC   C3A77429  37.522  21.915   6.980
 6192POPC   C4A77430  37.394  22.271   7.253
 6192POPC   C1B77431  37.840  22.454   6.311
 6192POPC   C2B77432  37.865  22.468   6.790
 6192POPC   C3B77433  37.896  22.208   7.168
 6192POPC   C4B77434  38.007  22.223   7.606
 6193POPC   NC377435  10.979  29.384   5.472
 6193POPC   PO477436  11.429  28.915   5.221
 6193POPC   GL177437  11.446  28.880   5.701
 6193POPC   GL277438  11.350  29.231   5.812
 6193POPC   C1A77439  11.679  28.948   6.089
 6193POPC   D2A77440  11.666  29.112   6.473
 6193POPC   C3A77441  11.353  29.027   6.761
 6193POPC   C4A77442  11.396  29.182   7.156
 6193POPC   C1B77443  11.174  29.046   6.214
 6193POPC   C2B77444  10.887  29.174   6.574
 6193POPC   C3B77445  10.996  29.455   6.922
 6193POPC   C4B77446  11.025  29.427   7.380
 6194POPC   NC377447  12.333  13.067   5.492
 6194POPC   PO477448  12.006  12.462   5.254
 6194POPC   GL177449  12.027  12.658   5.660
 6194POPC   GL277450  11.823  12.943   5.779
 6194POPC   C1A77451  12.130  12.676   6.099
 6194POPC   D2A77452  12.300  12.708   6.505
 6194POPC   C3A77453  12.064  12.695   6.870
 6194POPC   C4A77454  11.751  12.615   7.177
 6194POPC   C1B77455  12.007  13.179   6.159
 6194POPC   C2B77456  11.963  13.106   6.591
 6194POPC   C3B77457  11.822  13.138   7.026
 6194POPC   C4B77458  12.106  13.014   7.302
 6195POPC   NC377459  18.389  25.745   5.360
 6195POPC   PO477460  18.250  26.399   5.353
 6195POPC   GL177461  18.384  26.169   5.706
 6195POPC   GL277462  18.093  26.202   5.916
 6195POPC   C1A77463  18.557  26.272   6.148
 6195POPC   D2A77464  18.389  26.304   6.578
 6195POPC   C3A77465  18.547  26.023   6.897
 6195POPC   C4A77466  18.279  25.839   7.201
 6195POPC   C1B77467  17.934  26.141   6.357
 6195POPC   C2B77468  17.942  26.204   6.823
 6195POPC   C3B77469  17.941  26.278   7.280
 6195POPC   C4B77470  17.801  26.331   7.690
 6196POPC   NC377471  12.255  19.034   5.552
 6196POPC   PO477472  11.799  19.456   5.589
 6196POPC   GL177473  11.900  19.231   5.932
 6196POPC   GL277474  11.914  18.851   5.868
 6196POPC   C1A77475  12.050  19.321   6.343
 6196POPC   D2A77476  12.406  19.305   6.639
 6196POPC   C3A77477  12.283  19.423   7.054
 6196POPC   C4A77478  11.873  19.396   7.252
 6196POPC   C1B77479  12.025  18.832   6.286
 6196POPC   C2B77480  11.870  19.004   6.706
 6196POPC   C3B77481  11.963  18.910   7.125
 6196POPC   C4B77482  12.324  18.695   7.217
 6197POPC   NC377483  31.767   0.757   5.441
 6197POPC   PO477484  31.418   1.312   5.301
 6197POPC   GL177485  31.474   1.126   5.697
 6197POPC   GL277486  31.543   1.449   5.825
 6197POPC   C1A77487  31.261   1.027   6.097
 6197POPC   D2A77488  31.451   0.976   6.526
 6197POPC   C3A77489  31.291   1.028   6.958
 6197POPC   C4A77490  31.600   1.085   7.291
 6197POPC   C1B77491  31.599   1.383   6.227
 6197POPC   C2B77492  31.430   1.478   6.584
 6197POPC   C3B77493  31.639   1.426   6.913
 6197POPC   C4B77494  31.496   1.613   7.258
 6198POPC   NC377495  15.321  29.326   5.599
 6198POPC   PO477496  14.963  28.827   5.318
 6198POPC   GL177497  14.959  29.012   5.748
 6198POPC   GL277498  14.862  29.400   5.804
 6198POPC   C1A77499  15.261  28.947   6.113
 6198POPC   D2A77500  15.431  28.925   6.512
 6198POPC   C3A77501  15.095  28.845   6.816
 6198POPC   C4A77502  15.183  29.032   7.215
 6198POPC   C1B77503  15.007  29.373   6.212
 6198POPC   C2B77504  15.136  29.333   6.636
 6198POPC   C3B77505  14.909  29.413   7.012
 6198POPC   C4B77506  14.867  29.403   7.458
 6199POPC   NC377507  12.933  43.440   5.318
 6199POPC   PO477508  12.989  42.653   5.444
 6199POPC   GL177509  12.866  42.930   5.758
 6199POPC   GL277510  13.118  42.956   6.025
 6199POPC   C1A77511  12.629  42.879   6.146
 6199POPC   D2A77512  12.829  43.022   6.496
 6199POPC   C3A77513  12.634  43.047   6.878
 6199POPC   C4A77514  12.640  42.893   7.271
 6199POPC   C1B77515  13.302  42.848   6.426
 6199POPC   C2B77516  13.218  43.066   6.818
 6199POPC   C3B77517  13.156  42.973   7.248
 6199POPC   C4B77518  13.223  42.811   7.665
 6200POPC   NC377519   0.070  17.959   5.315
 6200POPC   PO477520   0.043  17.208   5.492
 6200POPC   GL177521   0.325  17.353   5.806
 6200POPC   GL277522   0.355  17.701   5.713
 6200POPC   C1A77523   0.447  17.229   6.218
 6200POPC   D2A77524   0.644  17.184   6.606
 6200POPC   C3A77525   0.427  17.310   6.947
 6200POPC   C4A77526   0.557  17.437   7.362
 6200POPC   C1B77527   0.570  17.712   6.118
 6200POPC   C2B77528   0.390  17.687   6.547
 6200POPC   C3B77529   0.465  17.810   6.985
 6200POPC   C4B77530   0.543  18.019   7.365
 6201POPC   NC377531  23.739  42.681   5.234
 6201POPC   PO477532  24.111  42.232   5.474
 6201POPC   GL177533  23.876  42.435   5.735
 6201POPC   GL277534  23.642  42.177   5.778
 6201POPC   C1A77535  24.027  42.606   6.141
 6201POPC   D2A77536  23.926  42.490   6.545
 6201POPC   C3A77537  24.029  42.463   6.949
 6201POPC   C4A77538  23.767  42.662   7.224
 6201POPC   C1B77539  23.537  42.495   6.115
 6201POPC   C2B77540  23.420  42.463   6.537
 6201POPC   C3B77541  23.509  42.321   6.945
 6201POPC   C4B77542  23.337  42.403   7.340
 6202POPC   NC377543  23.039  24.192   5.484
 6202POPC   PO477544  23.129  23.515   5.420
 6202POPC   GL177545  22.912  23.677   5.780
 6202POPC   GL277546  22.734  24.007   5.841
 6202POPC   C1A77547  23.054  23.722   6.208
 6202POPC   D2A77548  23.052  23.484   6.583
 6202POPC   C3A77549  23.154  23.705   6.957
 6202POPC   C4A77550  23.286  23.471   7.302
 6202POPC   C1B77551  22.745  24.115   6.295
 6202POPC   C2B77552  22.736  23.906   6.712
 6202POPC   C3B77553  22.828  24.073   7.129
 6202POPC   C4B77554  23.124  23.950   7.444
 6203POPC   NC377555   8.795  26.817   5.356
 6203POPC   PO477556   9.453  26.638   5.618
 6203POPC   GL177557   9.097  26.676   5.756
 6203POPC   GL277558   9.015  27.022   5.754
 6203POPC   C1A77559   8.982  26.486   6.116
 6203POPC   D2A77560   9.082  26.427   6.519
 6203POPC   C3A77561   8.977  26.755   6.797
 6203POPC   C4A77562   9.030  26.689   7.221
 6203POPC   C1B77563   8.832  27.178   6.109
 6203POPC   C2B77564   8.649  27.211   6.525
 6203POPC   C3B77565   8.729  27.364   6.922
 6203POPC   C4B77566   9.035  27.192   7.216
 6204POPC   NC377567  37.041  41.063   5.288
 6204POPC   PO477568  36.451  40.782   5.386
 6204POPC   GL177569  36.838  40.890   5.735
 6204POPC   GL277570  36.968  41.251   5.768
 6204POPC   C1A77571  36.994  40.872   6.206
 6204POPC   D2A77572  36.823  40.590   6.569
 6204POPC   C3A77573  36.803  40.729   6.979
 6204POPC   C4A77574  37.171  40.735   7.179
 6204POPC   C1B77575  36.685  41.255   6.125
 6204POPC   C2B77576  36.715  41.133   6.571
 6204POPC   C3B77577  36.817  41.265   6.972
 6204POPC   C4B77578  36.877  41.092   7.351
 6205POPC   NC377579   4.596   9.961   5.456
 6205POPC   PO477580   4.008   9.525   5.324
 6205POPC   GL177581   4.264   9.601   5.712
 6205POPC   GL277582   4.194   9.957   5.769
 6205POPC   C1A77583   4.326   9.599   6.193
 6205POPC   D2A77584   4.143   9.447   6.594
 6205POPC   C3A77585   4.172   9.688   6.980
 6205POPC   C4A77586   4.542   9.816   7.223
 6205POPC   C1B77587   4.357  10.108   6.171
 6205POPC   C2B77588   4.419   9.977   6.593
 6205POPC   C3B77589   4.315  10.186   6.936
 6205POPC   C4B77590   4.080  10.135   7.271
 6206POPC   NC377591  42.356   6.847   5.551
 6206POPC   PO477592  42.754   6.290   5.482
 6206POPC   GL177593  42.476   6.441   5.858
 6206POPC   GL277594  42.148   6.262   5.975
 6206POPC   C1A77595  42.540   6.797   6.169
 6206POPC   D2A77596  42.830   6.908   6.474
 6206POPC   C3A77597  42.651   6.871   6.870
 6206POPC   C4A77598  42.245   6.808   7.129
 6206POPC   C1B77599  42.042   6.670   6.180
 6206POPC   C2B77600  42.214   6.738   6.593
 6206POPC   C3B77601  42.168   6.369   6.863
 6206POPC   C4B77602  41.930   6.408   7.229
 6207POPC   NC377603  11.720  27.021   5.472
 6207POPC   PO477604  11.192  26.581   5.498
 6207POPC   GL177605  11.240  26.783   5.923
 6207POPC   GL277606  11.190  27.140   5.967
 6207POPC   C1A77607  11.237  26.783   6.393
 6207POPC   D2A77608  10.971  26.912   6.753
 6207POPC   C3A77609  10.978  26.615   7.047
 6207POPC   C4A77610  11.337  26.638   7.262
 6207POPC   C1B77611  11.589  27.109   6.204
 6207POPC   C2B77612  11.680  26.906   6.620
 6207POPC   C3B77613  11.563  27.032   7.028
 6207POPC   C4B77614  11.604  27.265   7.408
 6208POPC   NC377615  22.877  36.511   5.418
 6208POPC   PO477616  22.856  35.819   5.385
 6208POPC   GL177617  23.012  36.021   5.794
 6208POPC   GL277618  23.122  36.366   5.866
 6208POPC   C1A77619  23.028  36.040   6.270
 6208POPC   D2A77620  22.972  36.458   6.491
 6208POPC   C3A77621  23.112  36.434   6.899
 6208POPC   C4A77622  23.182  36.168   7.200
 6208POPC   C1B77623  22.693  36.363   6.056
 6208POPC   C2B77624  22.550  36.162   6.424
 6208POPC   C3B77625  22.675  36.134   6.835
 6208POPC   C4B77626  22.680  36.383   7.196
 6209POPC   NC377627  44.580  17.314   5.524
 6209POPC   PO477628  44.649  17.831   5.156
 6209POPC   GL177629  44.787  17.755   5.676
 6209POPC   GL277630  44.516  17.660   5.910
 6209POPC   C1A77631   0.021  17.614   6.107
 6209POPC   D2A77632   0.007  17.369   6.516
 6209POPC   C3A77633  44.956  17.590   6.928
 6209POPC   C4A77634  44.671  17.525   7.303
 6209POPC   C1B77635  44.224  17.832   6.236
 6209POPC   C2B77636  43.995  17.654   6.587
 6209POPC   C3B77637  44.269  17.640   6.947
 6209POPC   C4B77638  44.486  17.973   7.135
 6210POPC   NC377639  17.455  37.450   5.097
 6210POPC   PO477640  17.586  37.976   5.487
 6210POPC   GL177641  17.411  37.663   5.780
 6210POPC   GL277642  17.714  37.573   5.915
 6210POPC   C1A77643  17.330  37.737   6.231
 6210POPC   D2A77644  17.295  37.497   6.619
 6210POPC   C3A77645  17.382  37.640   7.052
 6210POPC   C4A77646  17.382  37.689   7.513
 6210POPC   C1B77647  17.809  37.545   6.331
 6210POPC   C2B77648  17.822  37.648   6.738
 6210POPC   C3B77649  17.865  37.496   7.123
 6210POPC   C4B77650  17.669  37.278   7.456
 6211POPC   NC377651  23.297   3.688   5.610
 6211POPC   PO477652  22.614   3.560   5.492
 6211POPC   GL177653  22.858   3.447   5.847
 6211POPC   GL277654  23.170   3.218   5.736
 6211POPC   C1A77655  22.769   3.615   6.266
 6211POPC   D2A77656  22.955   3.770   6.626
 6211POPC   C3A77657  22.744   3.700   7.007
 6211POPC   C4A77658  23.059   3.698   7.307
 6211POPC   C1B77659  23.208   3.357   6.189
 6211POPC   C2B77660  23.294   3.299   6.581
 6211POPC   C3B77661  23.082   3.312   6.932
 6211POPC   C4B77662  23.373   3.292   7.243
 6212POPC   NC377663  32.857  22.183   5.356
 6212POPC   PO477664  33.473  22.385   5.368
 6212POPC   GL177665  33.205  22.177   5.730
 6212POPC   GL277666  33.426  21.930   5.877
 6212POPC   C1A77667  32.876  22.064   6.126
 6212POPC   D2A77668  32.916  21.959   6.625
 6212POPC   C3A77669  32.763  22.273   6.979
 6212POPC   C4A77670  32.733  22.339   7.478
 6212POPC   C1B77671  33.334  21.992   6.281
 6212POPC   C2B77672  33.473  22.103   6.637
 6212POPC   C3B77673  33.294  21.960   6.992
 6212POPC   C4B77674  33.210  22.170   7.321
 6213POPC   NC377675  15.428  24.921   5.181
 6213POPC   PO477676  15.097  25.479   5.350
 6213POPC   GL177677  14.877  25.390   5.752
 6213POPC   GL277678  14.865  25.059   5.981
 6213POPC   C1A77679  15.049  25.498   6.155
 6213POPC   D2A77680  15.281  25.420   6.512
 6213POPC   C3A77681  15.051  25.327   6.869
 6213POPC   C4A77682  15.252  25.473   7.209
 6213POPC   C1B77683  15.203  24.948   6.298
 6213POPC   C2B77684  15.386  24.947   6.728
 6213POPC   C3B77685  15.242  24.899   7.161
 6213POPC   C4B77686  14.927  25.074   7.452
 6214POPC   NC377687  22.758   4.277   5.363
 6214POPC   PO477688  23.421   4.108   5.450
 6214POPC   GL177689  23.128   4.206   5.766
 6214POPC   GL277690  23.199   4.527   5.755
 6214POPC   C1A77691  22.844   4.125   6.136
 6214POPC   D2A77692  22.586   4.158   6.523
 6214POPC   C3A77693  22.831   4.196   6.933
 6214POPC   C4A77694  22.749   4.129   7.384
 6214POPC   C1B77695  23.005   4.611   6.147
 6214POPC   C2B77696  22.877   4.561   6.574
 6214POPC   C3B77697  22.781   4.720   6.985
 6214POPC   C4B77698  22.969   4.613   7.393
 6215POPC   NC377699   9.991   2.680   5.461
 6215POPC   PO477700   9.362   2.661   5.581
 6215POPC   GL177701   9.689   2.852   5.874
 6215POPC   GL277702  10.057   3.037   5.861
 6215POPC   C1A77703   9.723   2.688   6.297
 6215POPC   D2A77704   9.963   2.514   6.643
 6215POPC   C3A77705   9.769   2.629   7.032
 6215POPC   C4A77706   9.853   2.795   7.455
 6215POPC   C1B77707   9.878   3.178   6.242
 6215POPC   C2B77708   9.895   3.037   6.681
 6215POPC   C3B77709   9.694   3.149   7.094
 6215POPC   C4B77710   9.607   3.220   7.585
 6216POPC   NC377711   5.563   6.256   5.679
 6216POPC   PO477712   5.986   5.758   5.577
 6216POPC   GL177713   5.910   5.980   5.910
 6216POPC   GL277714   6.205   6.007   6.082
 6216POPC   C1A77715   5.731   6.146   6.283
 6216POPC   D2A77716   5.850   6.113   6.677
 6216POPC   C3A77717   5.649   6.244   7.016
 6216POPC   C4A77718   5.911   6.223   7.340
 6216POPC   C1B77719   5.957   5.693   6.328
 6216POPC   C2B77720   5.845   5.606   6.751
 6216POPC   C3B77721   5.881   5.757   7.162
 6216POPC   C4B77722   6.208   5.767   7.439
 6217POPC   NC377723   0.665  35.690   5.388
 6217POPC   PO477724   0.371  36.330   5.293
 6217POPC   GL177725   0.421  36.206   5.734
 6217POPC   GL277726   0.746  36.101   5.747
 6217POPC   C1A77727   0.448  35.979   6.149
 6217POPC   D2A77728   0.538  35.776   6.539
 6217POPC   C3A77729   0.414  36.009   6.907
 6217POPC   C4A77730   0.249  35.910   7.307
 6217POPC   C1B77731   0.816  36.343   6.128
 6217POPC   C2B77732   0.609  36.350   6.530
 6217POPC   C3B77733   0.793  36.347   6.940
 6217POPC   C4B77734   0.603  36.305   7.347
 6218POPC   NC377735  13.930  41.643   5.561
 6218POPC   PO477736  14.554  41.648   5.350
 6218POPC   GL177737  14.368  41.460   5.771
 6218POPC   GL277738  14.080  41.203   5.802
 6218POPC   C1A77739  14.504  41.519   6.198
 6218POPC   D2A77740  14.688  41.841   6.486
 6218POPC   C3A77741  14.634  41.671   6.894
 6218POPC   C4A77742  14.403  41.721   7.316
 6218POPC   C1B77743  14.020  41.298   6.264
 6218POPC   C2B77744  14.338  41.253   6.623
 6218POPC   C3B77745  14.393  41.274   7.069
 6218POPC   C4B77746  14.041  41.194   7.274
 6219POPC   NC377747  25.026  14.346   5.374
 6219POPC   PO477748  25.676  14.363   5.270
 6219POPC   GL177749  25.380  14.467   5.721
 6219POPC   GL277750  25.124  14.756   5.696
 6219POPC   C1A77751  25.243  14.249   6.140
 6219POPC   D2A77752  25.061  14.083   6.527
 6219POPC   C3A77753  25.273  14.211   6.871
 6219POPC   C4A77754  25.392  14.467   7.169
 6219POPC   C1B77755  24.935  14.645   6.075
 6219POPC   C2B77756  24.838  14.549   6.507
 6219POPC   C3B77757  24.922  14.576   6.940
 6219POPC   C4B77758  24.929  14.500   7.363
 6220POPC   NC377759  24.120  24.698   5.177
 6220POPC   PO477760  23.527  24.392   5.383
 6220POPC   GL177761  23.624  24.283   5.813
 6220POPC   GL277762  23.641  24.573   6.042
 6220POPC   C1A77763  23.712  24.133   6.252
 6220POPC   D2A77764  23.577  24.442   6.566
 6220POPC   C3A77765  23.827  24.536   6.914
 6220POPC   C4A77766  23.925  24.274   7.254
 6220POPC   C1B77767  23.364  24.798   6.256
 6220POPC   C2B77768  23.460  24.951   6.670
 6220POPC   C3B77769  23.392  24.773   7.066
 6220POPC   C4B77770  23.605  24.612   7.432
 6221POPC   NC377771  12.238   4.011   5.356
 6221POPC   PO477772  11.879   4.587   5.488
 6221POPC   GL177773  12.027   4.299   5.756
 6221POPC   GL277774  12.268   4.476   5.824
 6221POPC   C1A77775  12.059   4.136   6.185
 6221POPC   D2A77776  11.896   3.959   6.583
 6221POPC   C3A77777  12.098   4.148   6.941
 6221POPC   C4A77778  12.309   4.283   7.307
 6221POPC   C1B77779  12.040   4.650   6.173
 6221POPC   C2B77780  12.203   4.511   6.557
 6221POPC   C3B77781  12.415   4.589   6.916
 6221POPC   C4B77782  12.406   4.814   7.274
 6222POPC   NC377783  37.442  20.425   5.330
 6222POPC   PO477784  37.983  20.824   5.507
 6222POPC   GL177785  37.586  20.716   5.751
 6222POPC   GL277786  37.487  20.360   5.841
 6222POPC   C1A77787  37.493  20.769   6.189
 6222POPC   D2A77788  37.709  20.751   6.568
 6222POPC   C3A77789  37.426  20.667   6.902
 6222POPC   C4A77790  37.510  20.928   7.262
 6222POPC   C1B77791  37.829  20.393   6.165
 6222POPC   C2B77792  37.895  20.265   6.625
 6222POPC   C3B77793  37.889  20.478   7.007
 6222POPC   C4B77794  37.589  20.394   7.307
 6223POPC   NC377795   3.820  41.439   5.419
 6223POPC   PO477796   4.482  41.633   5.402
 6223POPC   GL177797   4.328  41.525   5.815
 6223POPC   GL277798   3.983  41.678   5.849
 6223POPC   C1A77799   4.554  41.419   6.222
 6223POPC   D2A77800   4.650  41.670   6.591
 6223POPC   C3A77801   4.452  41.674   6.991
 6223POPC   C4A77802   4.236  41.621   7.356
 6223POPC   C1B77803   4.048  41.468   6.252
 6223POPC   C2B77804   4.239  41.328   6.643
 6223POPC   C3B77805   4.089  41.248   7.048
 6223POPC   C4B77806   4.046  41.192   7.521
 6224POPC   NC377807  27.808  17.237   5.447
 6224POPC   PO477808  27.188  17.560   5.514
 6224POPC   GL177809  27.574  17.535   5.784
 6224POPC   GL277810  27.556  17.185   5.875
 6224POPC   C1A77811  27.813  17.479   6.188
 6224POPC   D2A77812  27.613  17.308   6.553
 6224POPC   C3A77813  27.821  17.532   6.884
 6224POPC   C4A77814  27.727  17.592   7.291
 6224POPC   C1B77815  27.358  16.987   6.201
 6224POPC   C2B77816  27.137  16.998   6.578
 6224POPC   C3B77817  27.290  17.055   7.011
 6224POPC   C4B77818  27.293  17.223   7.449
 6225POPC   NC377819  33.311  31.286   5.383
 6225POPC   PO477820  32.801  31.797   5.456
 6225POPC   GL177821  33.136  31.686   5.723
 6225POPC   GL277822  32.979  31.375   5.758
 6225POPC   C1A77823  33.153  31.628   6.184
 6225POPC   D2A77824  32.840  31.520   6.544
 6225POPC   C3A77825  33.038  31.454   6.934
 6225POPC   C4A77826  32.970  31.465   7.371
 6225POPC   C1B77827  32.845  31.212   6.141
 6225POPC   C2B77828  32.855  30.960   6.530
 6225POPC   C3B77829  33.105  30.951   6.902
 6225POPC   C4B77830  32.963  30.976   7.330
 6226POPC   NC377831  10.928  35.109   5.549
 6226POPC   PO477832  10.290  35.445   5.442
 6226POPC   GL177833  10.402  35.281   5.840
 6226POPC   GL277834  10.132  35.053   5.941
 6226POPC   C1A77835  10.700  35.388   6.184
 6226POPC   D2A77836  10.750  35.609   6.576
 6226POPC   C3A77837  10.668  35.404   6.962
 6226POPC   C4A77838  10.390  35.582   7.242
 6226POPC   C1B77839  10.377  35.015   6.339
 6226POPC   C2B77840  10.397  34.996   6.801
 6226POPC   C3B77841  10.376  35.066   7.233
 6226POPC   C4B77842  10.535  34.933   7.640
 6227POPC   NC377843  35.298  30.833   5.034
 6227POPC   PO477844  35.455  31.335   5.476
 6227POPC   GL177845  35.403  31.472   5.894
 6227POPC   GL277846  35.510  31.804   5.855
 6227POPC   C1A77847  35.370  31.281   6.324
 6227POPC   D2A77848  35.036  31.214   6.641
 6227POPC   C3A77849  35.119  31.450   6.994
 6227POPC   C4A77850  35.411  31.262   7.239
 6227POPC   C1B77851  35.594  31.753   6.311
 6227POPC   C2B77852  35.582  31.657   6.790
 6227POPC   C3B77853  35.500  31.775   7.261
 6227POPC   C4B77854  35.455  31.879   7.744
 6228POPC   NC377855   0.303   4.768   5.594
 6228POPC   PO477856   0.780   5.209   5.446
 6228POPC   GL177857   0.578   5.124   5.836
 6228POPC   GL277858   0.241   5.232   5.836
 6228POPC   C1A77859   0.425   4.982   6.240
 6228POPC   D2A77860   0.622   4.744   6.529
 6228POPC   C3A77861   0.560   4.776   6.971
 6228POPC   C4A77862   0.370   5.143   7.123
 6228POPC   C1B77863   0.265   5.480   6.165
 6228POPC   C2B77864   0.307   5.361   6.591
 6228POPC   C3B77865   0.220   5.597   6.941
 6228POPC   C4B77866   0.185   5.564   7.379
 6229POPC   NC377867  12.565  18.604   5.181
 6229POPC   PO477868  12.945  18.116   5.412
 6229POPC   GL177869  13.078  18.051   5.832
 6229POPC   GL277870  12.802  17.903   6.009
 6229POPC   C1A77871  13.140  18.199   6.280
 6229POPC   D2A77872  13.258  18.256   6.721
 6229POPC   C3A77873  13.012  18.137   7.089
 6229POPC   C4A77874  13.177  18.269   7.507
 6229POPC   C1B77875  12.631  18.263   6.299
 6229POPC   C2B77876  12.704  18.344   6.729
 6229POPC   C3B77877  12.464  18.215   7.094
 6229POPC   C4B77878  12.336  17.904   7.423
 6230POPC   NC377879  42.270  37.246   5.482
 6230POPC   PO477880  42.703  37.668   5.400
 6230POPC   GL177881  42.537  37.591   5.831
 6230POPC   GL277882  42.158  37.535   5.903
 6230POPC   C1A77883  42.574  37.654   6.293
 6230POPC   D2A77884  42.321  37.522   6.648
 6230POPC   C3A77885  42.469  37.755   7.034
 6230POPC   C4A77886  42.344  38.090   7.330
 6230POPC   C1B77887  41.928  37.299   6.250
 6230POPC   C2B77888  41.905  37.188   6.682
 6230POPC   C3B77889  41.879  37.522   6.986
 6230POPC   C4B77890  42.114  37.621   7.361
 6231POPC   NC377891  40.405  19.932   5.381
 6231POPC   PO477892  40.992  19.888   5.305
 6231POPC   GL177893  40.761  19.851   5.739
 6231POPC   GL277894  40.592  20.151   5.821
 6231POPC   C1A77895  40.550  19.636   6.099
 6231POPC   D2A77896  40.738  19.518   6.462
 6231POPC   C3A77897  40.620  19.511   6.882
 6231POPC   C4A77898  40.590  19.767   7.227
 6231POPC   C1B77899  40.773  20.064   6.240
 6231POPC   C2B77900  40.535  19.959   6.619
 6231POPC   C3B77901  40.489  20.194   6.964
 6231POPC   C4B77902  40.849  20.206   7.184
 6232W        W77903  35.873  43.600  12.038
 6233W        W77904  29.497  31.956  11.994
 6234W        W77905  20.647  43.371   1.824
 6235W        W77906   7.416  26.233  14.999
 6236W        W77907  32.972  31.485   4.812
 6237W        W77908  39.506  39.701   1.284
 6238W        W77909  21.218  35.596  14.809
 6239W        W77910  31.643   9.610  12.365
 6240W        W77911  36.473   1.412   0.355
 6241W        W77912  27.016  40.502  13.342
 6242W        W77913  29.635  26.431   0.911
 6243W        W77914   8.244   1.918  10.536
 6244W        W77915  43.909  38.602  13.271
 6245W        W77916   9.204  25.297   0.887
 6246W        W77917  15.132  33.936   3.529
 6247W        W77918  31.586  30.186  14.307
 6248W        W77919  28.082   7.598  12.413
 6249W        W77920  37.832  24.039  11.097
 6250W        W77921  29.089  17.662   0.829
 6251W        W77922  15.321  32.657   4.117
 6252W        W77923  24.564  14.201   3.205
 6253W        W77924  27.684   8.305  13.602
 6254W        W77925  32.933   5.807  11.114
 6255W        W77926  25.573  30.989   4.275
 6256W        W77927  15.315  23.547  10.817
 6257W        W77928  26.472  17.360  10.542
 6258W        W77929  20.945  37.489   4.474
 6259W        W77930   4.349  40.131   3.864
 6260W        W77931   2.914  22.055  14.370
 6261W        W77932  25.185  28.898  12.923
 6262W        W77933   9.044   6.952   3.243
 6263W        W77934   2.720  34.084  11.097
 6264W        W77935  16.198  13.642  12.945
 6265W        W77936  15.987  25.546  11.434
 6266W        W77937   1.726  37.077   1.912
 6267W        W77938  41.612   4.011   0.892
 6268W        W77939  26.625   8.442  14.314
 6269W        W77940  40.185  21.225  12.752
 6270W        W77941  12.804  10.678  12.447
 6271W        W77942  35.941  10.730   0.805
 6272W        W77943  15.531  24.019  10.701
 6273W        W77944  27.268  38.810   4.441
 6274W        W77945  29.938  33.074   0.447
 6275W        W77946  18.488  14.753  14.299
 6276W        W77947  32.670  30.218   4.139
 6277W        W77948  31.821   6.170   0.410
 6278W        W77949  13.594   8.673  11.144
 6279W        W77950  25.124  40.153  12.459
 6280W        W77951   6.630  11.627   1.385
 6281W        W77952   6.639  33.537  12.187
 6282W        W77953  27.632  20.228  11.180
 6283W        W77954  16.406  40.580   3.792
 6284W        W77955  15.677  40.029   3.024
 6285W        W77956   8.442  14.308  14.874
 6286W        W77957  25.102  35.867   1.480
 6287W        W77958  30.452   9.289   2.351
 6288W        W77959   5.620  25.023   2.914
 6289W        W77960  40.802   2.332   2.371
 6290W        W77961  32.977  41.559  10.681
 6291W        W77962  41.750  19.029  12.851
 6292W        W77963  18.158  13.377  14.847
 6293W        W77964   3.503  19.935   2.683
 6294W        W77965   6.469  22.787   4.104
 6295W        W77966  19.305  13.587  14.444
 6296W        W77967  18.301  35.899   1.782
 6297W        W77968  22.263  22.946   1.832
 6298W        W77969  38.566   3.737  10.691
 6299W        W77970   0.285   1.864   0.931
 6300W        W77971  43.056  23.473  14.392
 6301W        W77972  31.114  22.632   4.912
 6302W        W77973  18.342   5.233  14.911
 6303W        W77974  43.394  24.752   4.370
 6304W        W77975  13.953   8.734   0.799
 6305W        W77976   9.514   6.550   9.994
 6306W        W77977   6.222  29.188   4.589
 6307W        W77978   4.002  34.061   2.872
 6308W        W77979  17.383  22.300  14.109
 6309W        W77980  28.078   3.904  14.998
 6310W        W77981  13.631  14.092   4.327
 6311W        W77982  37.579  23.736   1.730
 6312W        W77983  10.020  39.778  12.626
 6313W        W77984  37.503  14.265   4.629
 6314W        W77985   6.528  27.316   1.753
 6315W        W77986   6.367   4.177   4.088
 6316W        W77987   3.460  42.344   3.644
 6317W        W77988  24.791  13.956   2.223
 6318W        W77989  11.552  22.569  14.640
 6319W        W77990  16.825   7.248  13.917
 6320W        W77991  24.648  17.221   1.452
 6321W        W77992  42.338   6.949   0.276
 6322W        W77993   0.951  26.590   1.534
 6323W        W77994  16.196  29.248   0.489
 6324W        W77995  31.501  38.270   3.331
 6325W        W77996  18.843  43.716  11.900
 6326W        W77997  43.988  33.125   3.628
 6327W        W77998  27.359  34.748  14.012
 6328W        W77999  10.303  25.181  10.720
 6329W        W78000  25.179  11.780  10.764
 6330W        W78001  24.320  27.612   4.526
 6331W        W78002  27.791  32.515  10.960
 6332W        W78003  29.213   1.211   3.735
 6333W        W78004   3.331   6.214  10.647
 6334W        W78005  39.120  32.227   3.765
 6335W        W78006  20.304  38.491  14.821
 6336W        W78007   2.387   6.400  14.905
 6337W        W78008  18.025  14.038  13.385
 6338W        W78009  16.769  13.770  12.930
 6339W        W78010  44.005  34.335   2.873
 6340W        W78011  14.096  14.895   2.688
 6341W        W78012  43.938  31.354  11.211
 6342W        W78013   7.989  42.836  10.762
 6343W        W78014  26.026   1.124  13.805
 6344W        W78015   1.737  17.948   0.936
 6345W        W78016  12.702  13.311  12.858
 6346W        W78017   4.739  41.989  10.580
 6347W        W78018  21.763  38.806  12.886
 6348W        W78019  43.663  32.735  11.572
 6349W        W78020   5.046  19.774   4.026
 6350W        W78021  40.002   5.102   1.800
 6351W        W78022  31.244  44.482  10.962
 6352W        W78023  37.971   7.028  10.580
 6353W        W78024   6.955  20.185  12.579
 6354W        W78025   8.426  30.028   2.231
 6355W        W78026  42.902  13.234   5.032
 6356W        W78027  26.932  31.602   0.542
 6357W        W78028  44.744  11.754  14.091
 6358W        W78029  41.816  41.383   3.784
 6359W        W78030  25.665  18.139  14.957
 6360W        W78031  21.057  43.170  14.521
 6361W        W78032   3.171   5.878  14.022
 6362W        W78033   7.497  13.437   4.920
 6363W        W78034  33.208   3.476  10.188
 6364W        W78035  29.142  17.768  12.130
 6365W        W78036   3.646  29.843  12.905
 6366W        W78037  42.770   4.188  13.322
 6367W        W78038  26.839  21.476  11.108
 6368W        W78039  15.162  38.085  10.767
 6369W        W78040  34.332  11.849   3.412
 6370W        W78041  14.758  27.959  14.273
 6371W        W78042   0.618  31.098   1.483
 6372W        W78043  41.400  27.553   3.565
 6373W        W78044  37.372   6.808   2.428
 6374W        W78045  26.890  43.709   1.440
 6375W        W78046  34.272  40.993   3.337
 6376W        W78047  26.690   7.279   1.339
 6377W        W78048  21.682  27.680   4.350
 6378W        W78049   2.146  16.334  11.292
 6379W        W78050  44.330   3.841   4.642
 6380W        W78051  15.994  26.723  14.850
 6381W        W78052  14.222  33.846   1.144
 6382W        W78053  25.505   1.848   1.464
 6383W        W78054  28.997  43.911   2.245
 6384W        W78055  30.583   6.499   0.066
 6385W        W78056  37.850   0.255  10.728
 6386W        W78057  37.747  20.596  12.681
 6387W        W78058  22.956   8.277   0.473
 6388W        W78059  38.654   4.421   0.382
 6389W        W78060  40.545  30.028  10.625
 6390W        W78061  21.487  38.924   4.994
 6391W        W78062   1.578   2.694  11.153
 6392W        W78063  28.772  31.644   2.227
 6393W        W78064  23.637  24.203  12.434
 6394W        W78065  16.706   9.689  14.406
 6395W        W78066  20.499  31.154   1.639
 6396W        W78067  32.479  17.868  11.706
 6397W        W78068   2.853  17.121   0.560
 6398W        W78069  34.790  26.044   3.181
 6399W        W78070  34.976  21.995   4.593
 6400W        W78071  23.618   4.599   0.285
 6401W        W78072   1.956  44.829  11.485
 6402W        W78073  16.956   9.187   3.422
 6403W        W78074  22.460  35.604  11.220
 6404W        W78075  27.934  44.375   4.977
 6405W        W78076   4.211  24.442  13.044
 6406W        W78077  11.057  18.712   2.077
 6407W        W78078   8.239  35.005  14.254
 6408W        W78079   6.350  20.238  14.828
 6409W        W78080  33.660   9.475  14.406
 6410W        W78081  27.159   7.218  14.366
 6411W        W78082   5.460  11.414  10.230
 6412W        W78083  25.054  43.375  12.914
 6413W        W78084  18.312   8.286   3.279
 6414W        W78085   5.384  17.515  11.518
 6415W        W78086  25.530  28.596   3.755
 6416W        W78087  34.937   1.879  14.936
 6417W        W78088  35.830  17.326  11.275
 6418W        W78089  43.850  21.295   5.623
 6419W        W78090  38.841  17.223   0.386
 6420W        W78091  28.504  33.613   0.796
 6421W        W78092  18.307  29.447  11.987
 6422W        W78093  30.636  22.157   3.253
 6423W        W78094  11.201  16.262   0.556
 6424W        W78095  31.363   9.604  11.037
 6425W        W78096  34.963  13.879   1.795
 6426W        W78097   2.799  39.036   0.446
 6427W        W78098   4.739  30.134   2.776
 6428W        W78099  40.359  13.192  13.015
 6429W        W78100  22.577  13.529   4.603
 6430W        W78101  16.587  23.246   1.197
 6431W        W78102  14.733  16.623  14.547
 6432W        W78103  44.387  43.821   3.279
 6433W        W78104  40.350  22.078   3.794
 6434W        W78105  31.949  25.994   1.793
 6435W        W78106  43.926  37.013   0.073
 6436W        W78107  33.497  33.697  13.913
 6437W        W78108   2.684   7.033  14.341
 6438W        W78109  37.626  20.839   4.172
 6439W        W78110  28.934  19.172  12.986
 6440W        W78111  23.504  38.842   5.004
 6441W        W78112  36.995  41.572  11.560
 6442W        W78113  29.752  33.519   3.028
 6443W        W78114  15.239   8.445   4.514
 6444W        W78115  41.491  32.070   3.798
 6445W        W78116  41.773  33.987   1.347
 6446W        W78117  25.524   8.759   3.090
 6447W        W78118   2.759  13.589   0.311
 6448W        W78119  23.147   9.351   4.934
 6449W        W78120  17.474  11.927  10.229
 6450W        W78121  38.825  33.648  11.686
 6451W        W78122  24.782  25.184  13.352
 6452W        W78123   7.652  29.032  11.217
 6453W        W78124   0.915  11.396   4.092
 6454W        W78125  37.306  40.806   4.188
 6455W        W78126  42.869   5.448  11.654
 6456W        W78127  23.263  13.791   2.378
 6457W        W78128  34.069  31.747  14.122
 6458W        W78129  22.008  39.141  12.584
 6459W        W78130  38.969  25.715  14.019
 6460W        W78131   3.728   1.038   2.714
 6461W        W78132  39.980   3.946   4.001
 6462W        W78133  14.476  32.079   4.849
 6463W        W78134  36.377  44.983   3.305
 6464W        W78135  44.486  28.627   0.017
 6465W        W78136  12.972  36.120   4.172
 6466W        W78137  13.429   1.462  14.475
 6467W        W78138   9.193  39.063  14.423
 6468W        W78139   7.937  41.798  11.512
 6469W        W78140  26.363  10.353  12.928
 6470W        W78141  39.978  43.756   4.733
 6471W        W78142  25.733  40.800  13.611
 6472W        W78143   6.175  28.363  10.978
 6473W        W78144   4.507  44.895  11.085
 6474W        W78145  31.393  27.998  12.403
 6475W        W78146  19.564  11.341  14.235
 6476W        W78147  10.394  39.933   4.145
 6477W        W78148  10.106  36.949  13.970
 6478W        W78149  36.690  18.367   3.982
 6479W        W78150   2.269  40.728   4.225
 6480W        W78151  35.015  41.619   1.796
 6481W        W78152  10.304   8.665  13.348
 6482W        W78153  24.339   5.755  10.283
 6483W        W78154  37.025   5.628  11.059
 6484W        W78155   2.144  38.432  12.162
 6485W        W78156  15.384  38.559   3.815
 6486W        W78157   9.571  38.393   1.355
 6487W        W78158   5.376  21.160   3.314
 6488W        W78159   2.805  33.790  14.927
 6489W        W78160  31.473  27.998   3.053
 6490W        W78161   7.300   2.263  12.872
 6491W        W78162  16.843  15.298   0.940
 6492W        W78163  11.669   7.132  14.081
 6493W        W78164  12.389   5.219  11.525
 6494W        W78165   4.209  41.905   1.435
 6495W        W78166  10.124  16.066   0.638
 6496W        W78167  12.152  41.254   3.694
 6497W        W78168  13.051  26.002  10.753
 6498W        W78169  31.029  42.908  12.941
 6499W        W78170  32.496  44.716  12.800
 6500W        W78171   5.661  19.819  11.715
 6501W        W78172  27.681  20.008   3.613
 6502W        W78173  30.063  18.012   1.830
 6503W        W78174  28.593  38.288  14.103
 6504W        W78175  20.797  23.220   3.152
 6505W        W78176  35.779   3.864  14.306
 6506W        W78177  43.808  11.431  10.595
 6507W        W78178  29.698  38.293   0.311
 6508W        W78179   5.144  20.999  10.617
 6509W        W78180  36.169  33.585   2.764
 6510W        W78181  22.070  20.595  10.855
 6511W        W78182  32.580  14.849   3.948
 6512W        W78183   1.762  14.239   3.092
 6513W        W78184  43.911  15.460  12.192
 6514W        W78185   1.231  15.220  12.849
 6515W        W78186  12.627  20.650   1.662
 6516W        W78187  12.680  11.607   4.558
 6517W        W78188  23.200  18.749  10.866
 6518W        W78189  14.307  26.920   2.906
 6519W        W78190   0.044   4.956  12.024
 6520W        W78191   7.917  14.250   1.851
 6521W        W78192  34.203  17.212  13.728
 6522W        W78193  28.056  11.236  10.915
 6523W        W78194   7.745  38.247  12.865
 6524W        W78195  30.062  24.636  10.733
 6525W        W78196  30.657  43.423   0.442
 6526W        W78197   8.466   1.963  13.401
 6527W        W78198   2.949  28.252  10.911
 6528W        W78199  44.436  10.260   1.275
 6529W        W78200   9.300  32.141  14.085
 6530W        W78201  11.220  15.317   0.371
 6531W        W78202  32.210  19.518   3.780
 6532W        W78203   9.680   3.321  10.728
 6533W        W78204   7.355  31.900   4.215
 6534W        W78205  12.764  10.310  10.414
 6535W        W78206  31.451  12.157  14.848
 6536W        W78207  27.042  17.313  13.507
 6537W        W78208  27.137  24.433  14.582
 6538W        W78209  39.250  25.303   2.709
 6539W        W78210  33.393  10.798   3.765
 6540W        W78211  34.491  35.554   3.686
 6541W        W78212   8.847  38.091  12.058
 6542W        W78213  10.957  22.444  10.359
 6543W        W78214   1.244  44.271  14.878
 6544W        W78215  12.724  15.132   3.815
 6545W        W78216  40.338  26.396   2.699
 6546W        W78217  38.178  24.650  12.119
 6547W        W78218  32.280  29.980  13.338
 6548W        W78219  21.982  36.844   0.328
 6549W        W78220   7.644   0.232  10.493
 6550W        W78221  20.088  26.007  12.838
 6551W        W78222  44.891  30.890  14.826
 6552W        W78223  34.527   4.702  14.798
 6553W        W78224  28.702  42.900  12.588
 6554W        W78225  38.802  34.115  13.544
 6555W        W78226  25.682   7.391   4.558
 6556W        W78227  16.246  31.045  10.664
 6557W        W78228  10.881  17.919  10.589
 6558W        W78229   7.315   0.429   4.423
 6559W        W78230   7.248  37.271   2.827
 6560W        W78231  10.546  11.300  14.821
 6561W        W78232  26.541  13.166   1.530
 6562W        W78233   1.761  25.488   2.417
 6563W        W78234  36.072  31.064  14.673
 6564W        W78235  29.118  44.272   1.875
 6565W        W78236   0.642  42.831   2.214
 6566W        W78237  31.494  18.982   2.205
 6567W        W78238  40.829  37.102   2.365
 6568W        W78239   9.222   6.568  11.921
 6569W        W78240  31.612  16.680   4.044
 6570W        W78241  16.226   4.875   1.491
 6571W        W78242  15.205  22.787   3.276
 6572W        W78243  32.059  18.136  14.824
 6573W        W78244   9.749   6.581   1.843
 6574W        W78245  15.139   4.910  13.785
 6575W        W78246  30.415  34.990  14.761
 6576W        W78247  13.846  19.373  12.397
 6577W        W78248  32.580   3.546  12.334
 6578W        W78249   0.727  22.431  14.985
 6579W        W78250  42.555  27.847   0.828
 6580W        W78251  14.717   5.487   4.971
 6581W        W78252   9.739  28.016  11.006
 6582W        W78253  31.395  12.602  12.082
 6583W        W78254   2.911  23.351   0.462
 6584W        W78255   8.143  29.852  11.156
 6585W        W78256  15.327  44.883  11.716
 6586W        W78257  21.078  14.210   4.510
 6587W        W78258   2.989   6.955  12.706
 6588W        W78259  21.754  15.999  14.835
 6589W        W78260  32.435   5.316   1.739
 6590W        W78261  34.340  23.157   1.332
 6591W        W78262  40.900  32.981  11.014
 6592W        W78263  33.201  37.526   4.545
 6593W        W78264  25.592  20.643  11.536
 6594W        W78265  33.020  43.993   0.614
 6595W        W78266  37.942  30.943   1.989
 6596W        W78267  44.430  25.012  12.510
 6597W        W78268  43.794   1.280  11.192
 6598W        W78269  20.276   4.990   3.585
 6599W        W78270  24.113  29.395   4.259
 6600W        W78271  12.347   3.755  13.620
 6601W        W78272  43.265  23.117  11.884
 6602W        W78273   9.303  23.308  10.569
 6603W        W78274  13.213   4.703  10.795
 6604W        W78275  27.475   4.061  12.884
 6605W        W78276  41.822  11.592  11.235
 6606W        W78277  16.085  27.916   4.237
 6607W        W78278  28.165  14.179  11.084
 6608W        W78279  15.830  24.709  11.673
 6609W        W78280  18.115   2.825  12.455
 6610W        W78281  17.732  23.764  11.463
 6611W        W78282  25.602  42.376   0.429
 6612W        W78283  42.489  40.538  10.937
 6613W        W78284  15.159  43.485  13.872
 6614W        W78285   7.262  12.772   0.981
 6615W        W78286  37.568  41.005  14.045
 6616W        W78287  28.963  21.278   4.216
 6617W        W78288   7.586  32.871   0.798
 6618W        W78289   6.616  19.248   1.863
 6619W        W78290  35.531  13.136  12.427
 6620W        W78291  32.130   0.605  14.336
 6621W        W78292   8.080  20.044   3.290
 6622W        W78293  38.998  20.535  11.474
 6623W        W78294  31.112  19.203   0.464
 6624W        W78295  40.399   7.815   2.853
 6625W        W78296  44.036  16.841  11.126
 6626W        W78297  40.760  25.829  14.301
 6627W        W78298  22.110  14.831  11.659
 6628W        W78299  28.022  12.118  11.415
 6629W        W78300   1.081  30.212  13.536
 6630W        W78301  23.097  16.968   0.511
 6631W        W78302  34.494  12.551  11.406
 6632W        W78303  21.755   6.025  10.791
 6633W        W78304   4.868  20.069   0.523
 6634W        W78305   5.840   8.893   3.391
 6635W        W78306  32.051   2.818   2.141
 6636W        W78307  25.541  11.287  12.473
 6637W        W78308  42.678  17.791  13.056
 6638W        W78309  12.029  25.547  14.318
 6639W        W78310   9.773  16.517   2.165
 6640W        W78311   7.271  29.259  14.831
 6641W        W78312  18.166  39.036   3.309
 6642W        W78313   3.782  41.511  14.258
 6643W        W78314  26.759  24.054  14.767
 6644W        W78315  28.176   7.214   1.388
 6645W        W78316  44.075  18.682  14.922
 6646W        W78317  25.307  43.238   1.725
 6647W        W78318  34.997  12.965   1.457
 6648W        W78319  42.132  15.870  11.050
 6649W        W78320   3.053   7.187  14.893
 6650W        W78321  18.550  33.864  13.920
 6651W        W78322  29.143   3.725   4.676
 6652W        W78323   3.271  18.788  14.170
 6653W        W78324  44.228   6.421   3.518
 6654W        W78325   7.630   7.505  14.021
 6655W        W78326  13.722  44.255   1.220
 6656W        W78327  20.038  34.823   1.726
 6657W        W78328  15.013   3.397   3.460
 6658W        W78329  20.628  21.382   0.905
 6659W        W78330  28.416  21.698  13.215
 6660W        W78331  10.980  36.343  10.549
 6661W        W78332  44.797  26.982   0.514
 6662W        W78333  44.960  13.111   4.238
 6663W        W78334   4.332  30.051   3.307
 6664W        W78335  21.614  41.950  14.342
 6665W        W78336  12.689   0.274  11.228
 6666W        W78337   8.181  14.648  11.567
 6667W        W78338  36.786  41.903  13.009
 6668W        W78339  17.682  43.573  15.000
 6669W        W78340  13.667   0.678  13.358
 6670W        W78341  28.636  26.201   3.111
 6671W        W78342  24.069   2.136  12.086
 6672W        W78343  28.663  26.571   1.859
 6673W        W78344   1.545  29.011  13.962
 6674W        W78345   7.705   7.861   0.832
 6675W        W78346  21.206  12.685  10.660
 6676W        W78347  36.476  20.754   3.747
 6677W        W78348  38.381  32.084  12.077
 6678W        W78349  17.489  44.484   5.241
 6679W        W78350   3.876  25.307   4.189
 6680W        W78351  20.541  16.249   3.887
 6681W        W78352  35.389  31.050   1.806
 6682W        W78353  10.129  44.007  12.449
 6683W        W78354  22.194   8.583   0.854
 6684W        W78355  36.769   6.459   0.943
 6685W        W78356  29.892   1.557  10.919
 6686W        W78357  28.888  11.600   0.134
 6687W        W78358  21.612   0.773   1.265
 6688W        W78359  29.962  18.844  11.558
 6689W        W78360  11.142  20.124  13.964
 6690W        W78361  25.580  36.140   3.190
 6691W        W78362  10.465  29.479   2.822
 6692W        W78363   8.835   0.477   4.759
 6693W        W78364   3.235  34.898  13.308
 6694W        W78365  36.045  41.409  12.549
 6695W        W78366   4.783  10.150   4.589
 6696W        W78367  20.777   3.761   1.885
 6697W        W78368   5.195  30.097   2.508
 6698W        W78369  20.143  30.691  14.865
 6699W        W78370   4.153  41.515   2.252
 6700W        W78371  36.142  19.083  14.818
 6701W        W78372  38.342  18.961   0.929
 6702W        W78373  35.652  29.651  13.940
 6703W        W78374   7.327  26.943  14.288
 6704W        W78375  29.832  14.385  13.875
 6705W        W78376  31.545   1.429   1.228
 6706W        W78377  14.282  41.672  14.785
 6707W        W78378  22.574  14.364  11.210
 6708W        W78379  31.241  20.706  11.255
 6709W        W78380   0.237   4.413  13.256
 6710W        W78381  11.899  38.646  14.994
 6711W        W78382  19.399  37.978  12.911
 6712W        W78383  34.027  22.617   3.264
 6713W        W78384   8.933  29.603   2.663
 6714W        W78385  32.305  38.220   0.947
 6715W        W78386  38.580  35.436  10.527
 6716W        W78387   4.905  39.533  11.576
 6717W        W78388  30.235  26.354  11.105
 6718W        W78389  23.037  21.105  13.898
 6719W        W78390  34.518  44.044   4.873
 6720W        W78391   2.735  13.151   1.980
 6721W        W78392  15.828  41.372  13.351
 6722W        W78393  37.590   7.834   2.441
 6723W        W78394  37.114  38.077  14.886
 6724W        W78395  20.777   1.185   4.467
 6725W        W78396  11.080  24.124   0.848
 6726W        W78397  22.702   5.460  12.028
 6727W        W78398  42.984   5.773  13.460
 6728W        W78399  35.959  30.099   3.212
 6729W        W78400   2.966   9.355  14.407
 6730W        W78401  15.674  16.259  12.123
 6731W        W78402  20.507  27.092  10.934
 6732W        W78403  27.032   7.706   3.330
 6733W        W78404  34.899  14.355  12.675
 6734W        W78405  33.354  28.953   0.802
 6735W        W78406  21.395  12.082   0.221
 6736W        W78407  34.145  32.113  13.768
 6737W        W78408  28.164  42.602  14.854
 6738W        W78409  17.612  12.260  10.863
 6739W        W78410   2.021  42.974  13.103
 6740W        W78411  13.434  19.461  14.530
 6741W        W78412  40.383  29.396   0.542
 6742W        W78413  24.007   6.881   0.103
 6743W        W78414   1.415  31.508   0.539
 6744W        W78415  37.383  43.766   0.383
 6745W        W78416  29.103  22.065   2.271
 6746W        W78417  32.131   9.465   1.533
 6747W        W78418  42.574  35.881   4.120
 6748W        W78419  16.788  23.421  11.653
 6749W        W78420  23.095  39.027  11.064
 6750W        W78421   9.411   1.455  13.619
 6751W        W78422  11.299  30.625  12.014
 6752W        W78423  43.218  21.652  14.003
 6753W        W78424   0.225  44.866   4.714
 6754W        W78425  18.709  25.726   3.794
 6755W        W78426  28.121   2.209   3.712
 6756W        W78427  25.560  24.040  14.335
 6757W        W78428  20.540  42.233  11.338
 6758W        W78429  12.956  33.044   4.208
 6759W        W78430   7.443  16.630   2.893
 6760W        W78431  37.984  31.291   3.834
 6761W        W78432  31.234  37.010   1.468
 6762W        W78433  15.183  34.698  11.950
 6763W        W78434  20.609  16.589   2.340
 6764W        W78435  23.122  18.669  13.809
 6765W        W78436  42.808   0.787  14.487
 6766W        W78437   7.312  35.313  13.948
 6767W        W78438  12.257  30.755   2.704
 6768W        W78439  23.137  29.463   2.200
 6769W        W78440  44.509  11.869   4.559
 6770W        W78441  44.035  24.115  11.074
 6771W        W78442   0.010   1.561  12.982
 6772W        W78443  17.554  44.135  10.796
 6773W        W78444  19.700  33.168   1.389
 6774W        W78445  13.893   9.301   1.474
 6775W        W78446  44.298  42.234  10.211
 6776W        W78447  16.784  17.786   4.194
 6777W        W78448  23.470  11.114   3.682
 6778W        W78449  43.480  40.455   3.808
 6779W        W78450  30.883  42.816   4.672
 6780W        W78451  27.970  42.531  12.113
 6781W        W78452  11.322  43.291  11.476
 6782W        W78453  23.467  17.354   2.133
 6783W        W78454   3.014  17.719   2.916
 6784W        W78455   9.109  21.737  10.641
 6785W        W78456  17.692  42.439   3.259
 6786W        W78457  25.996  30.681  11.078
 6787W        W78458  13.381   6.208   1.902
 6788W        W78459   1.863   4.147   3.699
 6789W        W78460   0.770   9.138   3.208
 6790W        W78461  14.777  10.772  11.239
 6791W        W78462  19.256  13.862   0.949
 6792W        W78463  20.560  40.221   4.606
 6793W        W78464   3.750   0.004   4.483
 6794W        W78465  11.246  20.542  11.351
 6795W        W78466  21.553  14.354  11.561
 6796W        W78467   9.120  26.480   2.349
 6797W        W78468  12.694  18.926  14.393
 6798W        W78469  33.423  27.248   2.702
 6799W        W78470  20.970  34.401   4.799
 6800W        W78471   5.440  15.952   0.200
 6801W        W78472   5.263   2.892  14.543
 6802W        W78473  29.697  23.462  12.419
 6803W        W78474  38.848  20.067  13.968
 6804W        W78475   6.253  26.531  12.891
 6805W        W78476  10.397  17.615  12.113
 6806W        W78477   3.739   1.982   2.634
 6807W        W78478  32.030  24.926   4.353
 6808W        W78479  28.475  26.208   2.300
 6809W        W78480  26.499  11.699  12.941
 6810W        W78481  24.217  34.696   1.911
 6811W        W78482  15.857  34.324   0.056
 6812W        W78483  43.206  31.063  11.599
 6813W        W78484  15.250  23.256  13.401
 6814W        W78485  18.705  29.621  11.596
 6815W        W78486  36.486  21.626  12.960
 6816W        W78487  21.882  42.096   3.217
 6817W        W78488  29.910   4.482   2.945
 6818W        W78489   4.809  18.975  12.141
 6819W        W78490  20.317  43.661   0.905
 6820W        W78491   4.458  14.070  12.510
 6821W        W78492   0.584  20.777   2.303
 6822W        W78493  21.149  27.252   3.699
 6823W        W78494  26.523  18.384  10.722
 6824W        W78495  12.638  22.227  13.225
 6825W        W78496   4.709   3.918  11.825
 6826W        W78497  37.614  26.065   0.535
 6827W        W78498  29.397  13.095   2.890
 6828W        W78499  16.421  37.958  14.345
 6829W        W78500   5.159  29.604   4.464
 6830W        W78501  31.425  22.784  14.428
 6831W        W78502  12.242  11.796  13.604
 6832W        W78503   1.450  44.979  10.942
 6833W        W78504  41.572   1.347  12.884
 6834W        W78505  39.014  10.758  14.303
 6835W        W78506  28.140  25.025   2.611
 6836W        W78507  17.327  20.510  14.165
 6837W        W78508  28.139  24.565   0.760
 6838W        W78509  27.004   9.877  13.330
 6839W        W78510  39.623  42.482   4.923
 6840W        W78511  31.638   5.517   2.247
 6841W        W78512   5.468   7.707  11.199
 6842W        W78513  25.419   4.925  12.733
 6843W        W78514  33.440  18.138   4.433
 6844W        W78515  26.818  13.878   4.505
 6845W        W78516  41.958  43.794   2.696
 6846W        W78517  40.746  22.554   4.838
 6847W        W78518  31.541  25.112  11.654
 6848W        W78519  17.856  18.693  10.642
 6849W        W78520   6.235  30.861   3.330
 6850W        W78521  29.348  33.093   4.057
 6851W        W78522  11.756  11.054   3.061
 6852W        W78523  40.239  30.371   3.181
 6853W        W78524  28.332  37.421   1.246
 6854W        W78525  34.296  11.602  12.830
 6855W        W78526  10.271  20.475   0.456
 6856W        W78527  19.635  15.127  10.299
 6857W        W78528  32.501  28.560   3.099
 6858W        W78529  21.801  24.604   4.101
 6859W        W78530  43.373  41.437  10.616
 6860W        W78531  40.751  17.682  10.732
 6861W        W78532  13.583  17.349  11.224
 6862W        W78533  36.861  20.554  14.899
 6863W        W78534  26.453  10.242   0.132
 6864W        W78535  34.968   3.452  10.039
 6865W        W78536  42.843   6.762  14.233
 6866W        W78537  13.780  37.851  13.399
 6867W        W78538  18.860  12.422  11.109
 6868W        W78539  32.574  44.212   0.439
 6869W        W78540  25.982  40.531   4.118
 6870W        W78541  35.080  42.368   2.566
 6871W        W78542  18.839  26.730   0.402
 6872W        W78543  22.560  25.415  13.877
 6873W        W78544  32.457  21.451  12.633
 6874W        W78545  32.904   4.818  11.942
 6875W        W78546  16.505  11.111  11.240
 6876W        W78547  33.812   5.823  11.706
 6877W        W78548  32.726   2.944  12.984
 6878W        W78549   2.563  39.586  13.907
 6879W        W78550  22.007  31.749   2.829
 6880W        W78551  31.446  16.511  13.286
 6881W        W78552   2.193  21.207   2.158
 6882W        W78553  27.969   0.996   4.261
 6883W        W78554  43.918  41.645   4.636
 6884W        W78555  40.968  21.504  13.462
 6885W        W78556  26.804  38.598   3.159
 6886W        W78557   9.453  17.248  14.027
 6887W        W78558  21.456   1.731   4.280
 6888W        W78559  26.570  32.984   2.805
 6889W        W78560  28.011  43.291   3.999
 6890W        W78561  41.418  23.886  11.601
 6891W        W78562   6.735  23.663  12.161
 6892W        W78563   4.896  25.200   1.946
 6893W        W78564   9.883  10.103   1.963
 6894W        W78565   3.421  34.698  14.307
 6895W        W78566  36.944  16.555   0.340
 6896W        W78567  36.538   9.962  10.522
 6897W        W78568   5.790  17.532   3.607
 6898W        W78569  29.329  32.817   2.821
 6899W        W78570  21.302   9.328   2.699
 6900W        W78571  41.849  22.012   0.751
 6901W        W78572  16.399  34.892  11.004
 6902W        W78573   5.734  29.693   0.432
 6903W        W78574  38.537  42.440   0.885
 6904W        W78575   9.193  28.082  12.314
 6905W        W78576  44.775  18.760   4.327
 6906W        W78577   5.228  36.427  12.906
 6907W        W78578  18.683  13.584  11.996
 6908W        W78579  44.489   1.569   0.790
 6909W        W78580  21.540   5.706  13.485
 6910W        W78581  27.203  25.572   2.394
 6911W        W78582  24.697  29.919   1.310
 6912W        W78583  39.952  13.836  13.983
 6913W        W78584  14.613  38.199  14.576
 6914W        W78585  29.746  10.913  14.346
 6915W        W78586  32.662  15.826  12.929
 6916W        W78587  38.364  11.336   0.757
 6917W        W78588   3.423   9.591  12.117
 6918W        W78589   3.424  41.410   1.797
 6919W        W78590  44.363  21.018   3.322
 6920W        W78591   8.760  21.990   4.814
 6921W        W78592  33.648  11.737   3.435
 6922W        W78593  20.107  16.639   0.467
 6923W        W78594  17.109  35.636   0.379
 6924W        W78595  38.539  15.817  12.504
 6925W        W78596  25.541  23.704   0.825
 6926W        W78597  25.951   2.778   3.210
 6927W        W78598  42.316   1.996  14.446
 6928W        W78599  37.914  35.551  10.726
 6929W        W78600  32.400  11.862  13.657
 6930W        W78601  19.811  21.071   1.233
 6931W        W78602  14.658  18.779  12.544
 6932W        W78603  16.386  24.775  11.020
 6933W        W78604  16.044  29.687   3.614
 6934W        W78605  34.842  27.693  13.418
 6935W        W78606   7.695  16.552  13.039
 6936W        W78607  35.020  15.512  11.955
 6937W        W78608  18.493  23.002  11.532
 6938W        W78609  14.716  10.324   1.013
 6939W        W78610  32.399  43.821   1.974
 6940W        W78611  37.888  13.428   4.933
 6941W        W78612  42.391  42.150  12.606
 6942W        W78613   9.279  37.353   4.161
 6943W        W78614  36.232  44.137  13.857
 6944W        W78615  31.764   0.981   4.429
 6945W        W78616  25.059   6.609  14.264
 6946W        W78617  23.133  23.217  10.641
 6947W        W78618   6.856   7.135  10.688
 6948W        W78619  29.423  44.514   1.039
 6949W        W78620  36.404  26.513   0.021
 6950W        W78621  40.480   1.940  10.802
 6951W        W78622  34.644  44.321  11.142
 6952W        W78623   3.973  20.815   9.871
 6953W        W78624  36.896  14.282  11.360
 6954W        W78625  37.500  15.535  14.800
 6955W        W78626   1.170  18.207   3.402
 6956W        W78627  32.455  42.979  10.199
 6957W        W78628   2.464  25.561  11.448
 6958W        W78629  28.098  24.541   4.472
 6959W        W78630  44.438  17.191   5.028
 6960W        W78631   0.218  25.194   1.403
 6961W        W78632  20.085  44.176  12.517
 6962W        W78633  12.938  16.046  10.691
 6963W        W78634   4.021  28.574  12.741
 6964W        W78635  34.079  13.286   0.651
 6965W        W78636  18.352  41.084   1.968
 6966W        W78637  39.064   7.292   2.891
 6967W        W78638   7.614  26.295  12.919
 6968W        W78639  37.327  42.354  11.980
 6969W        W78640   5.491  44.015  12.631
 6970W        W78641   8.707  19.054   2.440
 6971W        W78642  29.699   6.867  13.995
 6972W        W78643  30.036  42.693   4.286
 6973W        W78644  38.987  30.531   3.810
 6974W        W78645  16.595  38.291  14.915
 6975W        W78646   1.965  20.053   1.228
 6976W        W78647  41.271  31.372  13.372
 6977W        W78648  44.993  15.583  12.885
 6978W        W78649  12.749  26.748  10.716
 6979W        W78650   0.975  25.972  13.130
 6980W        W78651  43.468  34.892  12.976
 6981W        W78652  30.173   1.947  14.315
 6982W        W78653  11.378  30.439   3.694
 6983W        W78654  19.581  25.845   4.257
 6984W        W78655  18.701  44.816  11.249
 6985W        W78656  40.344  40.032   2.898
 6986W        W78657  11.245  44.723   3.565
 6987W        W78658  23.664   5.491   4.763
 6988W        W78659  26.255  15.389  14.250
 6989W        W78660  11.529  42.229  13.045
 6990W        W78661  28.920  24.766  13.040
 6991W        W78662  43.818  42.824   1.942
 6992W        W78663  20.761  27.131   0.284
 6993W        W78664  37.870  33.233  12.042
 6994W        W78665  24.383  14.753  12.308
 6995W        W78666  41.499  28.948  13.483
 6996W        W78667   1.161   0.780   2.759
 6997W        W78668  40.816  16.460  13.327
 6998W        W78669  37.541  17.519   0.754
 6999W        W78670  19.614  44.360  12.614
 7000W        W78671  43.999  34.319   4.501
 7001W        W78672   8.811  38.622   1.486
 7002W        W78673  36.546  37.334   2.442
 7003W        W78674  30.714  26.969  11.504
 7004W        W78675   0.502  30.182  14.096
 7005W        W78676  20.277  25.738   4.613
 7006W        W78677  35.095  17.683  14.762
 7007W        W78678   8.841  34.817   0.842
 7008W        W78679  26.048  13.296   4.081
 7009W        W78680  40.955  12.628  11.593
 7010W        W78681  36.185  43.384   2.347
 7011W        W78682  26.483   4.662  10.892
 7012W        W78683  44.183  31.429   1.273
 7013W        W78684  41.159  28.180  10.452
 7014W        W78685   6.351   1.231   0.752
 7015W        W78686  34.524   5.452   1.482
 7016W        W78687  26.739   1.852  11.886
 7017W        W78688  21.544  16.859  10.825
 7018W        W78689   5.323   0.985   0.658
 7019W        W78690  17.451  35.468  11.597
 7020W        W78691  26.502  14.274   0.342
 7021W        W78692   7.005  18.814   4.944
 7022W        W78693   3.825  17.928  12.182
 7023W        W78694  25.993  16.806  12.886
 7024W        W78695  32.215   9.991   3.333
 7025W        W78696  20.224   5.804  10.736
 7026W        W78697  33.208  17.394  13.858
 7027W        W78698  37.845  39.033  13.921
 7028W        W78699  11.248  13.199   1.396
 7029W        W78700  21.632  27.267   4.052
 7030W        W78701  19.671  16.617   0.838
 7031W        W78702  34.947  34.505   0.705
 7032W        W78703   1.759   9.804   0.248
 7033W        W78704  33.071  12.181   4.299
 7034W        W78705  28.049  14.527   0.317
 7035W        W78706  37.419  44.945  11.472
 7036W        W78707   1.016  38.965   2.244
 7037W        W78708  17.218   4.497  10.754
 7038W        W78709  35.120  14.261  11.523
 7039W        W78710  14.768   7.259  13.102
 7040W        W78711  10.128   4.794  11.554
 7041W        W78712  42.489  18.782  11.898
 7042W        W78713  24.604  34.624  12.514
 7043W        W78714  38.909  23.931   0.907
 7044W        W78715  37.969   0.275   4.773
 7045W        W78716  14.821   2.369  12.871
 7046W        W78717  26.981  13.872  14.358
 7047W        W78718  27.849  32.890  12.668
 7048W        W78719  43.815  14.264  13.042
 7049W        W78720  33.177  11.324   0.780
 7050W        W78721  20.819  28.381  10.718
 7051W        W78722  29.018  21.117  10.706
 7052W        W78723  40.274   6.120  11.025
 7053W        W78724   0.086  31.573  12.213
 7054W        W78725  20.134   9.821   1.270
 7055W        W78726  15.068  28.531  11.157
 7056W        W78727  34.136   7.740   4.260
 7057W        W78728  15.717   4.197  12.952
 7058W        W78729   3.396  11.779   4.529
 7059W        W78730  23.985  16.508   3.594
 7060W        W78731  31.441   5.907   3.654
 7061W        W78732  42.292  41.229   0.838
 7062W        W78733  31.096  22.354   0.713
 7063W        W78734  35.356  18.740  12.573
 7064W        W78735  19.632   3.702  12.026
 7065W        W78736  38.669  13.251  14.935
 7066W        W78737   9.017  27.108  14.881
 7067W        W78738  40.496  43.794  12.164
 7068W        W78739  43.290  39.059   1.522
 7069W        W78740  25.681  42.300   2.299
 7070W        W78741  37.386   3.032  11.859
 7071W        W78742  15.104   2.421   1.848
 7072W        W78743  36.793  10.625   0.894
 7073W        W78744   2.502  35.485  14.433
 7074W        W78745  33.067  13.653   2.477
 7075W        W78746  38.286  44.384   0.361
 7076W        W78747  16.850  26.117   3.449
 7077W        W78748  16.735  38.071  13.933
 7078W        W78749   9.553   6.347   1.400
 7079W        W78750  36.998  36.010  10.630
 7080W        W78751  33.191   9.610   4.923
 7081W        W78752   6.875  41.239   1.466
 7082W        W78753  30.079  38.863   0.770
 7083W        W78754   5.911  21.168   3.325
 7084W        W78755  22.690  22.368   1.296
 7085W        W78756   6.310  40.501  10.299
 7086W        W78757  39.943  24.069  13.032
 7087W        W78758   6.719  14.720  11.155
 7088W        W78759  15.296   9.920  13.045
 7089W        W78760  35.492   2.935   4.620
 7090W        W78761  28.278   4.849  13.124
 7091W        W78762   3.426  28.154  14.395
 7092W        W78763  40.814  42.089   4.362
 7093W        W78764  40.001  38.260   4.532
 7094W        W78765   5.000  15.696  13.017
 7095W        W78766  29.106  36.095  13.439
 7096W        W78767  13.555  15.188  10.426
 7097W        W78768   2.241  10.575   2.302
 7098W        W78769  42.600  39.861  14.117
 7099W        W78770   1.836  35.410   3.269
 7100W        W78771  12.086  36.446  13.826
 7101W        W78772   8.660  41.922   3.317
 7102W        W78773  18.548  40.323  12.889
 7103W        W78774  13.388  18.579  14.819
 7104W        W78775  27.176  10.783  13.790
 7105W        W78776  41.055   6.305   2.763
 7106W        W78777  21.134  30.890  11.772
 7107W        W78778  33.737   5.918  10.136
 7108W        W78779   9.721  31.993   4.414
 7109W        W78780  29.890  35.856   1.844
 7110W        W78781  23.610  23.590   1.358
 7111W        W78782   0.742   2.024  10.256
 7112W        W78783  32.138   4.436   4.270
 7113W        W78784  42.236  19.202   2.703
 7114W        W78785  42.043   9.799   3.758
 7115W        W78786  43.948  42.894   0.527
 7116W        W78787  26.453   7.764  11.989
 7117W        W78788  13.138   3.775   3.554
 7118W        W78789   9.785   7.681  14.243
 7119W        W78790  20.418  20.122   4.566
 7120W        W78791  14.089  26.186   4.572
 7121W        W78792   7.775  11.411  14.877
 7122W        W78793  28.579   5.919  14.544
 7123W        W78794  13.776   6.967   1.268
 7124W        W78795   1.969  21.956  10.682
 7125W        W78796   9.289  13.354  14.376
 7126W        W78797  22.637  28.409  14.982
 7127W        W78798  27.625   9.878  10.541
 7128W        W78799  40.398  19.093  10.562
 7129W        W78800  39.513  29.030   4.140
 7130W        W78801  20.632  34.414  13.125
 7131W        W78802  23.212   2.065  13.608
 7132W        W78803   3.245  42.884   4.359
 7133W        W78804   0.835  41.441  14.822
 7134W        W78805  43.498  21.791   5.045
 7135W        W78806   1.050  39.488   2.285
 7136W        W78807  21.747   4.416  12.583
 7137W        W78808  28.901  13.829   3.393
 7138W        W78809   6.414  27.547  12.013
 7139W        W78810  25.350  36.854  12.342
 7140W        W78811  17.270  37.463  12.418
 7141W        W78812  11.813  36.924   3.399
 7142W        W78813   0.768  12.421   5.101
 7143W        W78814  19.095  22.299  14.913
 7144W        W78815  12.253  10.235  10.795
 7145W        W78816   1.773   9.817  11.470
 7146W        W78817  37.929  34.524  10.878
 7147W        W78818  31.156  13.129   3.334
 7148W        W78819  13.814  17.157   2.758
 7149W        W78820  12.831  38.061  14.317
 7150W        W78821  44.041  42.824  12.522
 7151W        W78822   5.669  21.185  14.470
 7152W        W78823  16.567   3.919  12.705
 7153W        W78824  36.154   7.801  12.541
 7154W        W78825  27.434  39.579   0.289
 7155W        W78826  15.141  29.644  11.387
 7156W        W78827  34.338  41.916  14.470
 7157W        W78828  15.463  14.134   5.016
 7158W        W78829  24.017  24.688   2.636
 7159W        W78830  22.296  17.101  11.467
 7160W        W78831  26.427  22.195   1.915
 7161W        W78832  23.672  39.535  14.069
 7162W        W78833  18.251  32.668  11.983
 7163W        W78834  35.884  41.442   0.814
 7164W        W78835   1.428   1.848  12.178
 7165W        W78836  33.573  24.011  10.599
 7166W        W78837   2.219  17.197  14.223
 7167W        W78838  18.262   8.637  10.704
 7168W        W78839  39.503   6.260  13.092
 7169W        W78840  27.021   8.339   1.855
 7170W        W78841  38.485  26.099   4.941
 7171W        W78842  18.584  34.024  12.866
 7172W        W78843   7.177   2.805   0.292
 7173W        W78844  14.115  23.251  12.425
 7174W        W78845  39.519  38.991  12.618
 7175W        W78846  33.934   4.133   4.707
 7176W        W78847  17.676  40.460  11.417
 7177W        W78848  26.776  35.455  12.071
 7178W        W78849  36.773  43.499   1.809
 7179W        W78850  23.185  31.824  12.959
 7180W        W78851  16.027  21.586  11.912
 7181W        W78852  10.363   1.891   3.768
 7182W        W78853   1.436  37.895   1.429
 7183W        W78854  26.713  25.749   2.427
 7184W        W78855   5.808  21.562   2.636
 7185W        W78856  40.083   3.402   4.696
 7186W        W78857  18.121  37.518  14.239
 7187W        W78858  29.836  36.683   1.570
 7188W        W78859   0.532   4.729  14.861
 7189W        W78860   7.178  24.806  11.310
 7190W        W78861  44.757  25.572  12.006
 7191W        W78862  40.876   2.217  11.124
 7192W        W78863  42.606  25.003  10.491
 7193W        W78864  42.779  24.590  13.040
 7194W        W78865  19.722  15.510  13.382
 7195W        W78866  26.748  29.740   9.878
 7196W        W78867   0.534   4.300   1.889
 7197W        W78868  39.220  34.417  13.497
 7198W        W78869  18.539  39.954   2.859
 7199W        W78870  29.764  16.667   3.576
 7200W        W78871  24.367  10.722  14.239
 7201W        W78872  20.764  26.415  14.784
 7202W        W78873  36.369  14.621   0.102
 7203W        W78874   8.206  12.891  12.822
 7204W        W78875  11.281  26.657   0.975
 7205W        W78876  22.974  12.323   1.247
 7206W        W78877  39.620  40.038   3.676
 7207W        W78878  36.306  22.074  14.504
 7208W        W78879  33.942  33.147  14.690
 7209W        W78880  42.734  16.143   1.136
 7210W        W78881  17.302  33.477   5.170
 7211W        W78882  10.386  32.829  13.031
 7212W        W78883   1.182  25.130  12.195
 7213W        W78884  35.507  28.455   1.802
 7214W        W78885  14.463   6.512  10.729
 7215W        W78886  10.930  19.222   0.855
 7216W        W78887  41.077  13.629  14.617
 7217W        W78888  28.151  19.162   1.364
 7218W        W78889  33.070  36.374  13.440
 7219W        W78890  24.973  11.860  14.725
 7220W        W78891   1.409  14.144   0.518
 7221W        W78892   3.338  16.949   0.448
 7222W        W78893  17.573  16.266  12.977
 7223W        W78894  43.394  37.441  10.571
 7224W        W78895  23.262  21.726  11.516
 7225W        W78896   3.965   1.769   5.025
 7226W        W78897  24.634  34.855  10.950
 7227W        W78898   9.238  29.041   3.604
 7228W        W78899  11.614  42.944  12.594
 7229W        W78900  27.659   2.770   4.592
 7230W        W78901  20.474  10.400   3.817
 7231W        W78902  11.885  26.868  14.081
 7232W        W78903  39.938  35.735  11.658
 7233W        W78904  12.388   7.310  10.607
 7234W        W78905  19.967  26.620  11.555
 7235W        W78906  36.051  19.559  13.927
 7236W        W78907  15.071  31.495  12.501
 7237W        W78908   2.889   4.258  10.495
 7238W        W78909   6.035  17.343  14.068
 7239W        W78910  40.091  17.065   0.840
 7240W        W78911  37.989  21.045  11.649
 7241W        W78912  22.428   3.548  12.953
 7242W        W78913  31.964  28.957  12.993
 7243W        W78914  16.794   7.947   1.314
 7244W        W78915  35.615  35.029   0.202
 7245W        W78916   1.187  23.511  13.406
 7246W        W78917   5.182  13.088  12.446
 7247W        W78918   4.434   7.158   3.364
 7248W        W78919   7.900  12.443  14.830
 7249W        W78920  38.994  43.982  12.376
 7250W        W78921   4.732  31.443   1.236
 7251W        W78922   2.199  40.686  11.543
 7252W        W78923  15.661   5.159   3.206
 7253W        W78924  44.483  41.500   2.811
 7254W        W78925  27.959   6.241  11.132
 7255W        W78926  34.363  18.155   4.600
 7256W        W78927  36.272  11.899   1.342
 7257W        W78928  17.555  19.206  11.463
 7258W        W78929  11.991  16.601   0.368
 7259W        W78930  23.752   8.475   1.613
 7260W        W78931  23.248  39.691  11.724
 7261W        W78932   2.249  15.809   2.984
 7262W        W78933  18.477  35.473   2.391
 7263W        W78934  40.449  22.502  10.685
 7264W        W78935  11.847  11.447  11.654
 7265W        W78936  25.019  17.515  10.631
 7266W        W78937  32.829  16.545   0.183
 7267W        W78938   5.452   5.835   4.662
 7268W        W78939   6.366   6.933  10.796
 7269W        W78940  35.405  26.477   3.237
 7270W        W78941  31.966  17.208  13.643
 7271W        W78942  12.650  29.116  13.165
 7272W        W78943   2.804   7.928  10.425
 7273W        W78944   6.299  12.714  13.348
 7274W        W78945  44.512   4.093   1.957
 7275W        W78946   1.292  38.555   0.937
 7276W        W78947  38.354  18.634  14.762
 7277W        W78948  11.409   5.292  10.327
 7278W        W78949  28.106   0.015   4.621
 7279W        W78950   9.647  35.209  12.188
 7280W        W78951  28.911  19.882  10.921
 7281W        W78952  24.068  14.042   3.189
 7282W        W78953   9.251  32.193   1.322
 7283W        W78954  26.210  10.891  11.062
 7284W        W78955  15.400  20.249  12.627
 7285W        W78956  15.040   8.611  12.418
 7286W        W78957  34.019   8.225  10.621
 7287W        W78958  24.483   0.357   3.272
 7288W        W78959  34.980  37.045   4.066
 7289W        W78960  29.707   5.464   3.569
 7290W        W78961   5.513  25.052  10.768
 7291W        W78962  30.733   7.024  14.969
 7292W        W78963   1.287  44.304  12.767
 7293W        W78964   8.847  30.399   4.568
 7294W        W78965  17.258  33.623  14.007
 7295W        W78966  29.549  38.139  14.822
 7296W        W78967  28.272  13.403   1.650
 7297W        W78968   9.489  14.850   2.894
 7298W        W78969  20.984   5.679  11.696
 7299W        W78970  19.740  37.852  11.965
 7300W        W78971  28.007  16.172  11.613
 7301W        W78972  24.574   3.513   3.870
 7302W        W78973  21.083   9.962  10.721
 7303W        W78974  44.191  15.742  12.542
 7304W        W78975  16.812  31.044  11.555
 7305W        W78976   8.688   4.725  11.425
 7306W        W78977  11.064  42.515  11.256
 7307W        W78978   5.612   5.368  13.823
 7308W        W78979  43.365  30.556   2.248
 7309W        W78980   7.145  29.990   2.772
 7310W        W78981  44.462  22.961  11.569
 7311W        W78982  31.295   4.583   3.679
 7312W        W78983  16.736   8.749   3.644
 7313W        W78984  42.031   9.754   1.715
 7314W        W78985  25.122  23.772   1.773
 7315W        W78986  26.955  39.648  12.304
 7316W        W78987  32.284  44.443  11.321
 7317W        W78988   3.314  41.294  12.634
 7318W        W78989   5.254  23.850   3.534
 7319W        W78990  23.460  16.604  11.093
 7320W        W78991  39.388   3.357  11.066
 7321W        W78992  41.971  35.347   3.887
 7322W        W78993  40.328  31.469  13.599
 7323W        W78994  41.769  24.860  14.518
 7324W        W78995  32.590  10.170   1.742
 7325W        W78996   7.290  28.124   4.874
 7326W        W78997   6.895  22.956  13.690
 7327W        W78998  20.158  29.069   0.945
 7328W        W78999  31.634   0.768   0.214
 7329W        W79000  34.866  27.515  14.358
 7330W        W79001   6.699  36.392  14.553
 7331W        W79002   4.285  17.628   3.512
 7332W        W79003  43.810  39.859   4.096
 7333W        W79004  18.610  10.056   3.725
 7334W        W79005  27.689  18.142  11.307
 7335W        W79006   5.085  26.470   2.429
 7336W        W79007  36.944  30.313   3.160
 7337W        W79008  22.552  11.697  14.036
 7338W        W79009  43.004  40.113   3.705
 7339W        W79010  20.157   8.274   4.501
 7340W        W79011  27.898   9.663   4.613
 7341W        W79012  20.168  19.319  11.588
 7342W        W79013  19.480  33.608   1.229
 7343W        W79014  34.861  13.359   1.809
 7344W        W79015  30.425  28.074   2.791
 7345W        W79016  35.983  39.215   4.974
 7346W        W79017  24.039  42.743   1.444
 7347W        W79018   0.466  25.672   1.644
 7348W        W79019  21.675  10.548   4.289
 7349W        W79020   9.137  37.616   0.952
 7350W        W79021  20.250  36.099  10.823
 7351W        W79022  10.844  20.995   0.440
 7352W        W79023  32.058  25.515   1.587
 7353W        W79024  28.373  34.464  12.524
 7354W        W79025   2.351  34.567   3.062
 7355W        W79026   7.749  25.509  13.428
 7356W        W79027  28.770  38.770  11.152
 7357W        W79028  17.267  21.043  13.471
 7358W        W79029  15.354  31.873   3.759
 7359W        W79030  13.839  41.551  14.528
 7360W        W79031  13.717   4.561  10.689
 7361W        W79032  20.971  36.704  12.904
 7362W        W79033  40.252  14.335  14.886
 7363W        W79034  24.963  27.193   1.693
 7364W        W79035  44.814  21.176  10.727
 7365W        W79036  22.313  39.087  12.186
 7366W        W79037  44.173  43.203   1.969
 7367W        W79038  10.359   3.391  14.969
 7368W        W79039  41.021  31.965   1.457
 7369W        W79040  14.689   4.445   1.201
 7370W        W79041   9.140  12.557  12.451
 7371W        W79042  24.434  34.025  11.772
 7372W        W79043  26.616   9.105   0.866
 7373W        W79044  16.970  15.731   2.877
 7374W        W79045  36.877  32.837   0.929
 7375W        W79046   7.703  26.966   3.525
 7376W        W79047  24.462  38.692   5.525
 7377W        W79048  16.987   3.552   4.616
 7378W        W79049  20.107  42.821   1.780
 7379W        W79050  15.305  13.658   2.848
 7380W        W79051  29.808   0.198  12.945
 7381W        W79052   4.088  10.300  14.296
 7382W        W79053  32.986  14.747   1.722
 7383W        W79054   0.313  28.095   2.642
 7384W        W79055  39.453  32.987   3.082
 7385W        W79056  33.429  14.997   1.493
 7386W        W79057   5.556  33.330  12.028
 7387W        W79058  12.643  33.794   1.820
 7388W        W79059   0.335  35.378   0.664
 7389W        W79060  39.700  32.617  11.114
 7390W        W79061  11.658  10.755   3.717
 7391W        W79062  25.521  19.512  11.050
 7392W        W79063  40.018  24.356  14.505
 7393W        W79064  19.020  35.537  14.630
 7394W        W79065   9.261  22.587  13.932
 7395W        W79066  29.852   5.603  10.337
 7396W        W79067  34.224  28.788  11.656
 7397W        W79068  38.545  10.268  11.269
 7398W        W79069  12.246   2.641  11.594
 7399W        W79070   1.634   4.318  12.875
 7400W        W79071   3.466  12.713   4.057
 7401W        W79072  27.283  12.421  14.428
 7402W        W79073  25.930  25.012  10.784
 7403W        W79074  19.571   4.706   0.411
 7404W        W79075  34.379  34.115  11.036
 7405W        W79076   6.317   7.703   0.476
 7406W        W79077  27.923  29.023   2.965
 7407W        W79078  28.863  31.882   0.722
 7408W        W79079  34.072  41.585  12.402
 7409W        W79080  41.622  10.057  12.879
 7410W        W79081   4.305   0.180   1.007
 7411W        W79082   4.025  22.690  12.122
 7412W        W79083   2.576  39.638  10.279
 7413W        W79084  41.254  43.013   0.708
 7414W        W79085  31.373  43.895   0.888
 7415W        W79086  12.842  41.416   3.946
 7416W        W79087  34.389  17.223  14.943
 7417W        W79088  40.580  42.913  12.487
 7418W        W79089  23.954  30.565  13.313
 7419W        W79090  26.515  30.684  12.829
 7420W        W79091  14.704  21.710   1.145
 7421W        W79092  25.994  19.060  11.716
 7422W        W79093  11.129  21.092  11.170
 7423W        W79094  34.857  37.877   4.440
 7424W        W79095   6.836  14.019   1.466
 7425W        W79096  19.372  30.390  14.536
 7426W        W79097  33.140  18.755  13.994
 7427W        W79098  22.864  13.000  13.907
 7428W        W79099   2.218  27.490  13.042
 7429W        W79100  41.692  29.677  12.970
 7430W        W79101  14.096  32.417   4.719
 7431W        W79102  11.735  44.370  12.270
 7432W        W79103   9.787  31.498   4.609
 7433W        W79104  44.587   0.886  14.134
 7434W        W79105   4.850  37.983  10.602
 7435W        W79106   8.464   1.616   4.162
 7436W        W79107  23.172  11.548  10.999
 7437W        W79108  24.412  29.192   0.920
 7438W        W79109  41.234  37.953   0.976
 7439W        W79110  24.225  12.905   1.589
 7440W        W79111  17.695   5.951  11.821
 7441W        W79112  23.535  29.035   0.700
 7442W        W79113  32.385  23.728   0.451
 7443W        W79114   6.410  42.299  10.631
 7444W        W79115   3.259  22.239  12.448
 7445W        W79116  20.592  25.428   2.326
 7446W        W79117  39.414  17.793  10.989
 7447W        W79118   6.977  32.536   4.215
 7448W        W79119  38.980  41.071  10.725
 7449W        W79120  31.017  14.155  12.506
 7450W        W79121  25.347  16.158  12.669
 7451W        W79122  38.043  41.285  12.455
 7452W        W79123  11.836  13.656  12.430
 7453W        W79124  31.171  12.826  12.489
 7454W        W79125  39.005   3.916   1.779
 7455W        W79126  11.291   7.367   4.304
 7456W        W79127  31.353  33.646  13.798
 7457W        W79128   4.767  22.910   0.346
 7458W        W79129  13.263  27.941   3.716
 7459W        W79130  29.860  27.870  12.504
 7460W        W79131   4.635  19.748   0.185
 7461W        W79132  41.377  22.597  12.515
 7462W        W79133  16.822  21.620   0.922
 7463W        W79134  19.282  39.318  13.071
 7464W        W79135  24.177  30.069  14.499
 7465W        W79136  37.319  38.678   0.375
 7466W        W79137  43.280  44.876   2.205
 7467W        W79138  43.125  42.849  14.785
 7468W        W79139  12.844  37.459  14.760
 7469W        W79140   1.729  23.393   1.884
 7470W        W79141  21.289  39.873   0.900
 7471W        W79142  25.545   4.327   3.041
 7472W        W79143  22.494  35.941   4.061
 7473W        W79144   4.223  33.844  10.987
 7474W        W79145  38.104  19.580   3.217
 7475W        W79146  13.669   6.722   4.189
 7476W        W79147  13.129  11.864   1.759
 7477W        W79148  14.818  11.102  10.806
 7478W        W79149  31.851  36.867   2.774
 7479W        W79150  29.400  11.692   4.905
 7480W        W79151   7.684   2.252  12.512
 7481W        W79152  16.369  16.648  13.031
 7482W        W79153   6.228  11.111   2.833
 7483W        W79154  34.926   4.206  12.682
 7484W        W79155  30.135  23.618   1.897
 7485W        W79156   7.428  14.436  13.564
 7486W        W79157  12.597   5.705  12.250
 7487W        W79158  14.415   2.008   3.295
 7488W        W79159  28.994  20.655  11.897
 7489W        W79160  28.005   2.353   4.613
 7490W        W79161  32.218  31.066  12.643
 7491W        W79162   2.878  37.293  14.723
 7492W        W79163  16.214   4.535  11.705
 7493W        W79164  18.677  27.061  11.158
 7494W        W79165   8.648   8.100   1.312
 7495W        W79166  14.362   4.394   0.695
 7496W        W79167  12.633   6.444  12.574
 7497W        W79168  41.568  39.069   4.317
 7498W        W79169   9.784  26.771   4.725
 7499W        W79170  25.270  17.275  14.886
 7500W        W79171  35.326  37.462   2.652
 7501W        W79172  27.695   4.687   2.255
 7502W        W79173  44.361  33.674   0.827
 7503W        W79174  20.581  21.558  11.583
 7504W        W79175  19.777  37.529   2.441
 7505W        W79176  28.257  42.956  13.526
 7506W        W79177  10.745  32.662  14.351
 7507W        W79178  19.679  29.655   3.250
 7508W        W79179  24.785  21.536  14.896
 7509W        W79180  10.295  36.507  12.254
 7510W        W79181  29.964  26.305   4.519
 7511W        W79182  39.621  24.692  14.489
 7512W        W79183   6.968  25.524   1.915
 7513W        W79184  20.621  37.217  10.471
 7514W        W79185  19.474  36.638   3.793
 7515W        W79186  31.333   9.745   0.312
 7516W        W79187  36.088  40.539  11.976
 7517W        W79188  21.732  39.955  14.056
 7518W        W79189  24.198  35.788  10.726
 7519W        W79190   9.644  13.592   4.031
 7520W        W79191  32.913  17.661  14.785
 7521W        W79192  16.113  11.406  13.512
 7522W        W79193  37.446  27.963  12.080
 7523W        W79194   4.644   6.499   3.652
 7524W        W79195  44.391  18.763  10.685
 7525W        W79196  38.280   3.919  12.033
 7526W        W79197  24.263  41.905  12.406
 7527W        W79198  42.363  36.445  14.853
 7528W        W79199  42.949  16.724  12.946
 7529W        W79200  21.026  16.584  11.514
 7530W        W79201   9.406  15.828   4.518
 7531W        W79202  27.310  35.658   5.037
 7532W        W79203   3.574  37.477   3.604
 7533W        W79204  12.414  21.260  12.979
 7534W        W79205  36.240  15.551   1.886
 7535W        W79206  42.967  33.640  14.073
 7536W        W79207   6.070   3.143  14.891
 7537W        W79208  26.596   6.747   3.060
 7538W        W79209  26.130  44.317  10.381
 7539W        W79210   1.944  27.571  14.774
 7540W        W79211   4.499  40.731   2.345
 7541W        W79212   3.525  21.640  13.511
 7542W        W79213  10.998  15.687  13.584
 7543W        W79214  32.615  29.675  13.092
 7544W        W79215  44.784  43.920  13.542
 7545W        W79216  43.575  40.284   1.376
 7546W        W79217   2.332  29.044  10.327
 7547W        W79218   5.945  36.547  12.644
 7548W        W79219  27.678  36.798  13.151
 7549W        W79220   6.570  22.001   4.718
 7550W        W79221  26.276   6.680   2.167
 7551W        W79222  38.562   6.971   0.835
 7552W        W79223  41.260   4.754  13.033
 7553W        W79224  33.065   9.902  12.137
 7554W        W79225  18.305  36.424  11.627
 7555W        W79226  41.533  40.014   3.749
 7556W        W79227   0.783  32.112  12.092
 7557W        W79228  39.925  17.619   2.597
 7558W        W79229  40.232   4.875  10.842
 7559W        W79230  38.702  17.944  12.012
 7560W        W79231  36.534  27.209   2.889
 7561W        W79232  26.533  35.959   4.540
 7562W        W79233  30.040  12.376  11.728
 7563W        W79234  29.565  29.206  14.013
 7564W        W79235   9.797   1.920  11.694
 7565W        W79236  23.470  22.478  11.162
 7566W        W79237  14.363   4.839   2.398
 7567W        W79238  31.663  13.262  10.756
 7568W        W79239   9.353  26.334   1.907
 7569W        W79240  29.914  15.988   4.520
 7570W        W79241  30.141   3.133  12.326
 7571W        W79242  15.975   9.823  11.556
 7572W        W79243   0.848  22.359  13.076
 7573W        W79244   9.416  10.362   2.634
 7574W        W79245   0.846  18.020  14.798
 7575W        W79246  15.442  29.579   0.131
 7576W        W79247  21.053  22.759   3.213
 7577W        W79248  18.373   0.078   4.266
 7578W        W79249   3.653  33.010   1.773
 7579W        W79250  23.772  30.211   1.764
 7580W        W79251  27.415  35.963   1.365
 7581W        W79252  23.547  40.025  14.830
 7582W        W79253   5.343  16.824   0.616
 7583W        W79254  21.923  33.189   3.685
 7584W        W79255  36.635  17.941  13.421
 7585W        W79256   9.175  36.472   1.432
 7586W        W79257  13.186  34.018   0.466
 7587W        W79258  18.016  36.465  14.373
 7588W        W79259   3.635  41.808   3.659
 7589W        W79260  19.207  21.195  12.350
 7590W        W79261  19.745  39.374  12.047
 7591W        W79262  21.660  11.267   0.967
 7592W        W79263  33.959  25.290  12.056
 7593W        W79264   9.430   0.534   4.125
 7594W        W79265  18.137  40.692   1.673
 7595W        W79266  24.513   4.883   1.682
 7596W        W79267  15.234  26.572   4.622
 7597W        W79268  16.190  33.005  14.538
 7598W        W79269   3.953  10.663   1.245
 7599W        W79270  15.610  34.668  10.686
 7600W        W79271   3.168   6.947  11.368
 7601W        W79272  16.811  25.461  13.474
 7602W        W79273  31.228  31.412  13.972
 7603W        W79274  27.697  39.841   0.637
 7604W        W79275   2.717   1.835   2.742
 7605W        W79276  26.139   3.215  12.539
 7606W        W79277  12.432  11.368  13.821
 7607W        W79278  18.332  43.814   4.579
 7608W        W79279   5.309   9.201  14.485
 7609W        W79280  33.342  37.299  14.853
 7610W        W79281  25.489  38.486  14.311
 7611W        W79282   0.854   0.523   4.073
 7612W        W79283  14.305  33.548  10.557
 7613W        W79284  19.481  33.587  10.963
 7614W        W79285  23.255  10.139   1.725
 7615W        W79286  30.117   7.703  14.384
 7616W        W79287   4.833  29.637   1.792
 7617W        W79288  22.990  34.970   2.600
 7618W        W79289  36.067  27.749   1.751
 7619W        W79290   9.268  17.028   2.845
 7620W        W79291  38.245  20.877  13.886
 7621W        W79292  43.270   7.902  14.985
 7622W        W79293  36.684  37.282   4.159
 7623W        W79294  43.364  37.279  13.692
 7624W        W79295   5.742  39.104  10.707
 7625W        W79296  38.554  38.330   4.917
 7626W        W79297  25.004  17.993  12.845
 7627W        W79298   1.766  20.989  11.505
 7628W        W79299  29.610  17.233  10.777
 7629W        W79300  29.084  35.421  13.889
 7630W        W79301   0.931   2.951   2.288
 7631W        W79302  23.122  40.003   0.404
 7632W        W79303   9.718  28.019   4.388
 7633W        W79304  10.983  27.524  13.168
 7634W        W79305  20.286  23.734   3.605
 7635W        W79306  15.073  12.099   3.291
 7636W        W79307  31.662  11.018  12.607
 7637W        W79308   5.831  16.289   4.300
 7638W        W79309  39.750   1.812   1.358
 7639W        W79310  24.036  23.547  11.356
 7640W        W79311  38.818  14.168  14.925
 7641W        W79312  13.111  41.314   0.335
 7642W        W79313  30.534  21.777   3.580
 7643W        W79314  25.638  29.916  13.544
 7644W        W79315   4.771  21.412  13.863
 7645W        W79316   0.228  28.940  14.373
 7646W        W79317  31.890  17.751   0.183
 7647W        W79318   6.688  42.958  11.046
 7648W        W79319  32.421  36.660  11.547
 7649W        W79320  32.925   4.635  10.502
 7650W        W79321   2.832  16.467   2.695
 7651W        W79322  36.265  15.270   1.373
 7652W        W79323  21.035  16.792  10.683
 7653W        W79324  17.244   6.049   5.462
 7654W        W79325  13.141  28.548   3.854
 7655W        W79326  21.002   0.526  14.964
 7656W        W79327  20.037  38.777   0.505
 7657W        W79328  20.103  19.614   1.872
 7658W        W79329  27.020  41.844   1.233
 7659W        W79330   2.392  38.887   1.666
 7660W        W79331  37.792  39.914   4.115
 7661W        W79332  33.525  42.663   3.426
 7662W        W79333  32.197  17.803  14.309
 7663W        W79334  43.707  25.494   1.170
 7664W        W79335   1.568  40.023  11.657
 7665W        W79336  21.016   2.499  11.584
 7666W        W79337  14.164  19.739   0.529
 7667W        W79338   2.683  42.014   0.749
 7668W        W79339  34.288  38.593   5.004
 7669W        W79340   5.858  16.068   3.185
 7670W        W79341   8.675  18.351  11.031
 7671W        W79342  35.449   3.414  13.329
 7672W        W79343  32.536   6.646   0.814
 7673W        W79344  11.843  41.002  14.790
 7674W        W79345  29.432  14.579   3.655
 7675W        W79346  43.655   3.823   2.411
 7676W        W79347   5.458  11.581   2.844
 7677W        W79348  41.402   6.392  13.763
 7678W        W79349  28.631   5.823  11.286
 7679W        W79350  24.683  15.124  11.571
 7680W        W79351  34.945  18.349   4.129
 7681W        W79352  25.986  37.323   3.875
 7682W        W79353   9.851  13.971  12.809
 7683W        W79354  12.773  12.230  13.547
 7684W        W79355  41.290  30.545   1.508
 7685W        W79356  36.357  44.976  12.412
 7686W        W79357  28.674   0.257  13.823
 7687W        W79358  11.186  14.226  13.141
 7688W        W79359   5.018  27.213   4.541
 7689W        W79360  14.992  43.188  12.536
 7690W        W79361  40.023  19.609   0.707
 7691W        W79362  35.358  38.029   4.507
 7692W        W79363  28.053  22.103  10.464
 7693W        W79364  31.112   5.437   3.599
 7694W        W79365  25.562  43.335  12.057
 7695W        W79366  19.602   2.514  11.637
 7696W        W79367  29.053  30.756   1.971
 7697W        W79368   0.659  44.780   2.355
 7698W        W79369  27.647  28.192   0.569
 7699W        W79370  27.449  18.114   3.721
 7700W        W79371  18.175  11.583   1.729
 7701W        W79372  32.004   8.493   0.001
 7702W        W79373  21.707   8.461  14.916
 7703W        W79374  15.526  30.420   2.920
 7704W        W79375  36.070  29.479  11.576
 7705W        W79376  31.434  10.887   2.813
 7706W        W79377  23.492   6.335  12.359
 7707W        W79378   2.709  38.661  10.782
 7708W        W79379   3.630  38.354  10.903
 7709W        W79380  36.003  41.205  11.140
 7710W        W79381  19.159  18.975   1.390
 7711W        W79382  20.695  34.473   3.769
 7712W        W79383  35.399   4.382   2.028
 7713W        W79384   7.983   7.419  11.885
 7714W        W79385  10.656  33.423   3.210
 7715W        W79386  42.959  27.190  10.976
 7716W        W79387  24.525  38.746   3.325
 7717W        W79388  31.792  36.018   1.962
 7718W        W79389   5.641  17.610   1.104
 7719W        W79390  30.408   7.778   1.185
 7720W        W79391  31.750  26.771   1.294
 7721W        W79392  21.381  39.219  10.631
 7722W        W79393  33.913  16.614   3.409
 7723W        W79394  19.707   0.788   0.021
 7724W        W79395  27.779  13.192   3.795
 7725W        W79396  21.970  36.009  10.670
 7726W        W79397  22.458   6.023  13.028
 7727W        W79398  42.782  43.499   4.223
 7728W        W79399  22.592  39.206  10.978
 7729W        W79400  40.404  33.998  13.573
 7730W        W79401  44.420  40.116  10.150
 7731W        W79402  39.498  15.268   2.800
 7732W        W79403  38.563  41.479   0.965
 7733W        W79404  18.254  11.174   5.118
 7734W        W79405  44.972  40.729  12.001
 7735W        W79406   1.196  43.651   3.700
 7736W        W79407  32.243  17.810   3.093
 7737W        W79408  17.360  31.107   0.665
 7738W        W79409  18.191  42.537   3.090
 7739W        W79410  23.965   3.916   4.209
 7740W        W79411  41.122  42.357  12.207
 7741W        W79412  27.200   3.645   2.638
 7742W        W79413  33.650  15.614  12.889
 7743W        W79414  42.042  22.775   0.370
 7744W        W79415   3.491  24.683  11.647
 7745W        W79416  36.115  11.188   1.013
 7746W        W79417   9.252  36.431  11.525
 7747W        W79418  24.975  16.080  11.601
 7748W        W79419  28.797  16.408  14.787
 7749W        W79420  33.663   6.338  11.586
 7750W        W79421  31.276  40.109  12.119
 7751W        W79422  23.920  14.720   2.699
 7752W        W79423  17.306  26.193  10.503
 7753W        W79424   5.528  41.076   3.587
 7754W        W79425   2.075   3.912  14.491
 7755W        W79426  13.841  11.203   4.158
 7756W        W79427  24.019  17.321   0.335
 7757W        W79428  44.725  22.235   3.853
 7758W        W79429  41.930  13.694  10.404
 7759W        W79430  34.375  15.194  11.216
 7760W        W79431  27.214  24.503   3.934
 7761W        W79432   5.442  26.120  13.340
 7762W        W79433  24.886  39.891   0.847
 7763W        W79434  23.589   3.400   2.331
 7764W        W79435  27.483  16.208  11.001
 7765W        W79436  39.946  27.493   2.229
 7766W        W79437  33.747  25.191  11.114
 7767W        W79438  27.616  21.279  13.223
 7768W        W79439  30.735  14.346   1.782
 7769W        W79440  44.989  33.063   0.944
 7770W        W79441  25.528  14.935  14.853
 7771W        W79442  36.947  33.953  10.731
 7772W        W79443  24.053   2.052   5.089
 7773W        W79444  31.994  19.301   0.427
 7774W        W79445  27.404  16.584  10.598
 7775W        W79446  31.429  13.151   2.883
 7776W        W79447  41.013   4.273   1.691
 7777W        W79448  25.555   2.253  14.954
 7778W        W79449  31.351  10.562   1.436
 7779W        W79450  20.489  12.623   3.653
 7780W        W79451  21.067  36.142   3.319
 7781W        W79452  32.621  25.988   1.401
 7782W        W79453  14.895  32.079   3.090
 7783W        W79454  32.211  19.856  11.609
 7784W        W79455  26.132   8.382   2.950
 7785W        W79456  25.686  18.097  13.450
 7786W        W79457   6.287  21.528   4.560
 7787W        W79458  17.963   0.863  14.402
 7788W        W79459  20.592  33.307  11.142
 7789W        W79460   0.458  38.688  11.799
 7790W        W79461  42.818  14.533  11.966
 7791W        W79462  41.785  14.339   2.718
 7792W        W79463  19.797  11.193  12.105
 7793W        W79464  24.228  26.897   4.152
 7794W        W79465  37.795  36.342   3.024
 7795W        W79466  15.013  28.185  13.675
 7796W        W79467   8.562   6.819  13.508
 7797W        W79468  23.719   5.194   0.695
 7798W        W79469  37.994  42.566   4.806
 7799W        W79470   4.876  28.603   2.776
 7800W        W79471  29.924  10.409  11.114
 7801W        W79472  18.113  30.769  14.866
 7802W        W79473   6.469   3.838  13.566
 7803W        W79474  42.423   0.950  11.475
 7804W        W79475   8.951  35.698  12.953
 7805W        W79476  38.145  26.394   3.223
 7806W        W79477  15.738   6.563  13.419
 7807W        W79478   0.801  35.648   4.488
 7808W        W79479  11.715  27.577  12.632
 7809W        W79480   9.721  42.322  14.994
 7810W        W79481  34.802  44.873   4.181
 7811W        W79482  32.181  39.926   2.272
 7812W        W79483   9.776  32.077  13.414
 7813W        W79484  44.052   3.830   3.768
 7814W        W79485  38.303  12.357  13.015
 7815W        W79486   4.199  44.005  10.671
 7816W        W79487  27.911  44.778  14.456
 7817W        W79488  43.297  15.170  13.130
 7818W        W79489  39.386  25.631   2.351
 7819W        W79490   2.470  11.352  13.825
 7820W        W79491   6.665  25.201  12.079
 7821W        W79492  41.991  18.488   4.731
 7822W        W79493   3.954  25.617  13.467
 7823W        W79494  22.066   9.405  11.436
 7824W        W79495  40.948   1.316   4.830
 7825W        W79496   2.391  40.593  14.604
 7826W        W79497  17.863  20.248  13.480
 7827W        W79498  26.984  36.492   2.406
 7828W        W79499  12.812  43.992   1.378
 7829W        W79500  18.976  24.600  11.691
 7830W        W79501  29.942   0.434   2.323
 7831W        W79502   8.769  31.786   5.093
 7832W        W79503   9.251  36.294   3.603
 7833W        W79504   6.776  34.654  11.239
 7834W        W79505   0.183  22.637  12.404
 7835W        W79506   5.915   2.704  13.086
 7836W        W79507  24.461  22.784  11.116
 7837W        W79508  21.740   8.724   3.849
 7838W        W79509  36.510  14.692  14.589
 7839W        W79510  24.134  40.955  14.531
 7840W        W79511  11.890  12.422  12.010
 7841W        W79512  38.017  13.878  13.582
 7842W        W79513  22.681   6.915   1.828
 7843W        W79514  36.424  33.818   4.151
 7844W        W79515  18.017  26.490  11.978
 7845W        W79516  11.731  10.148  13.538
 7846W        W79517  38.198  38.051   1.890
 7847W        W79518   9.688  26.068  11.398
 7848W        W79519   1.293  19.204  10.168
 7849W        W79520  13.688  25.986  13.935
 7850W        W79521  11.126  23.036   0.837
 7851W        W79522  11.824  31.625   4.625
 7852W        W79523  14.225   7.694   2.289
 7853W        W79524  24.189  31.946  13.958
 7854W        W79525  18.218  13.358   3.753
 7855W        W79526  44.936  17.051  13.008
 7856W        W79527  17.109  32.490  12.586
 7857W        W79528  14.703  44.499  12.350
 7858W        W79529  25.185  31.682   3.387
 7859W        W79530  22.082  35.906   3.747
 7860W        W79531  20.575   6.560  14.406
 7861W        W79532  38.488  30.925  12.026
 7862W        W79533  18.088  15.329   4.599
 7863W        W79534  33.439   9.391  13.399
 7864W        W79535  23.689  40.811   5.792
 7865W        W79536  31.309  37.039  11.929
 7866W        W79537   9.111   2.443   4.234
 7867W        W79538  43.775  12.166   3.344
 7868W        W79539  28.670  36.953  11.151
 7869W        W79540   5.739  25.683  11.756
 7870W        W79541   5.388  43.831  12.146
 7871W        W79542   7.983  23.881  14.159
 7872W        W79543   3.853  39.794  13.539
 7873W        W79544  21.025  39.537  10.472
 7874W        W79545   4.177  38.078  15.000
 7875W        W79546   6.604   2.343  11.074
 7876W        W79547  41.928   8.763  10.322
 7877W        W79548   2.265  19.675  12.128
 7878W        W79549   0.710  17.899  12.603
 7879W        W79550  43.012  19.509   2.390
 7880W        W79551   7.447  43.427  11.174
 7881W        W79552  17.335   1.325   4.968
 7882W        W79553  35.560   5.759   1.241
 7883W        W79554   7.166  22.130   4.158
 7884W        W79555   0.714  44.488  12.868
 7885W        W79556  31.378  12.335   1.279
 7886W        W79557  41.017  29.551   3.596
 7887W        W79558   9.705   0.406  12.145
 7888W        W79559  27.310  33.113   4.700
 7889W        W79560  12.510   0.496   2.251
 7890W        W79561  43.292  41.516   0.782
 7891W        W79562   2.794  21.668   2.195
 7892W        W79563  42.527  26.786   1.745
 7893W        W79564   7.926  33.995  13.806
 7894W        W79565   6.213  38.414  12.145
 7895W        W79566  16.713  27.564  11.335
 7896W        W79567  12.139  15.044   0.689
 7897W        W79568  26.894  39.807   3.466
 7898W        W79569   9.158  12.172   2.342
 7899W        W79570   1.780  41.563  12.938
 7900W        W79571  40.947  15.099  10.768
 7901W        W79572   4.565  10.320  11.693
 7902W        W79573   4.273  17.842  13.863
 7903W        W79574  11.549  22.326   2.347
 7904W        W79575  17.717  16.555  12.527
 7905W        W79576  22.920   5.229   1.316
 7906W        W79577  12.592  39.962   0.398
 7907W        W79578   1.818  41.213  14.813
 7908W        W79579  12.151   4.944   1.886
 7909W        W79580  22.231  19.285   1.465
 7910W        W79581  24.131  40.810  10.186
 7911W        W79582   7.257  33.153   0.381
 7912W        W79583  24.495  41.233  12.850
 7913W        W79584  41.670   5.310   2.966
 7914W        W79585   8.260  18.355  12.267
 7915W        W79586   2.531  29.710   1.384
 7916W        W79587   0.986   5.648  10.675
 7917W        W79588   8.310  17.764  12.628
 7918W        W79589  27.154   6.148  11.471
 7919W        W79590  14.616  26.594   0.472
 7920W        W79591  25.044  44.354  14.389
 7921W        W79592  42.021  42.848  12.442
 7922W        W79593  36.580  21.766   2.775
 7923W        W79594  29.015  25.164  11.666
 7924W        W79595  11.299  30.641  14.005
 7925W        W79596  28.503   1.290   4.816
 7926W        W79597   5.150   4.152   0.310
 7927W        W79598  13.827  41.757  12.601
 7928W        W79599  34.421  42.782  10.590
 7929W        W79600  15.344  12.814   0.755
 7930W        W79601  40.901  11.874  14.071
 7931W        W79602   3.212  20.238  11.532
 7932W        W79603  23.797  10.370   4.133
 7933W        W79604   6.443  30.632  10.738
 7934W        W79605   2.016   1.257   3.214
 7935W        W79606  36.636  23.142   2.804
 7936W        W79607  23.173  19.634   2.670
 7937W        W79608  33.151  12.633  13.507
 7938W        W79609  15.602  11.093   0.535
 7939W        W79610  24.007  16.625  12.587
 7940W        W79611  27.925  12.354  13.936
 7941W        W79612   6.782  38.007  10.795
 7942W        W79613  28.202  22.759   0.898
 7943W        W79614  10.910  24.967  13.274
 7944W        W79615  40.321  38.699  10.627
 7945W        W79616   9.975  35.611  13.056
 7946W        W79617  15.109  31.182  13.627
 7947W        W79618   6.289  35.798   0.306
 7948W        W79619  17.476  37.945   2.212
 7949W        W79620  39.224  40.197  10.881
 7950W        W79621  24.036   7.170   1.375
 7951W        W79622  38.431  37.916   4.632
 7952W        W79623  34.945  28.213  12.149
 7953W        W79624  41.085  29.055   4.668
 7954W        W79625  24.213  20.970  11.862
 7955W        W79626  32.024  15.813  14.836
 7956W        W79627  13.235  37.301  12.979
 7957W        W79628   2.462  32.633  14.301
 7958W        W79629   8.356  30.347  11.132
 7959W        W79630  18.242  44.945   0.772
 7960W        W79631  21.528  16.241  13.354
 7961W        W79632  20.512   3.762   2.903
 7962W        W79633  24.256  44.222   0.964
 7963W        W79634  15.072  34.400  11.543
 7964W        W79635  16.333  32.458  10.732
 7965W        W79636  39.909  21.473  14.388
 7966W        W79637  29.342   6.473   1.204
 7967W        W79638  34.376  29.733  13.832
 7968W        W79639   6.994  30.939   3.780
 7969W        W79640  41.293  34.387   0.783
 7970W        W79641  32.134   2.820  14.842
 7971W        W79642   3.497  17.849   0.256
 7972W        W79643  16.582  33.427   1.770
 7973W        W79644  11.549  11.265   1.152
 7974W        W79645   3.850  13.848   4.826
 7975W        W79646  14.729  18.856  12.028
 7976W        W79647  18.098  12.735  10.513
 7977W        W79648  12.653  35.863   1.855
 7978W        W79649  27.171  11.854   2.816
 7979W        W79650  33.980   5.503  12.163
 7980W        W79651  44.365  34.165  12.608
 7981W        W79652   5.191  24.634   4.907
 7982W        W79653  40.851  10.741   1.351
 7983W        W79654  27.859  42.319   4.160
 7984W        W79655  14.285  39.528   2.562
 7985W        W79656  40.394  13.014  14.707
 7986W        W79657  12.422  29.373   4.546
 7987W        W79658  13.767  11.847   3.648
 7988W        W79659   8.297  41.289  12.664
 7989W        W79660  20.545   9.853   4.697
 7990W        W79661  14.941  27.939   2.280
 7991W        W79662  34.491   9.636  14.747
 7992W        W79663  15.536   7.899   9.696
 7993W        W79664   7.404  42.329   1.704
 7994W        W79665  33.037  35.948   0.083
 7995W        W79666  38.788  32.266  11.416
 7996W        W79667  27.682  30.041  11.273
 7997W        W79668  20.955  23.108  14.984
 7998W        W79669  30.082  21.169  11.578
 7999W        W79670  17.188  42.270   3.225
 8000W        W79671  36.421  31.700   2.346
 8001W        W79672  41.837  28.044   4.329
 8002W        W79673   5.257   4.411  12.860
 8003W        W79674  43.000  24.586   0.671
 8004W        W79675  31.672  44.895   3.734
 8005W        W79676   1.747  24.773   3.999
 8006W        W79677  12.301   1.290  13.509
 8007W        W79678   6.772   0.740   1.029
 8008W        W79679  41.515  23.546   3.334
 8009W        W79680  25.637  15.917   2.177
 8010W        W79681  11.122  32.308   4.202
 8011W        W79682  38.526  29.666  11.144
 8012W        W79683  27.151  14.763  11.983
 8013W        W79684  33.863   6.715   3.347
 8014W        W79685  44.465  33.821   1.761
 8015W        W79686  43.116  25.608   2.784
 8016W        W79687  11.063  42.991   3.706
 8017W        W79688  41.421   9.862   0.382
 8018W        W79689  29.890  21.878   0.950
 8019W        W79690   0.011  17.864   0.827
 8020W        W79691  22.109  23.150   2.281
 8021W        W79692  41.612  19.752  11.484
 8022W        W79693  19.717   4.901  13.753
 8023W        W79694  14.427  38.065   3.086
 8024W        W79695  43.368  21.031   4.518
 8025W        W79696  35.260  13.758  11.544
 8026W        W79697  26.551  31.624  11.914
 8027W        W79698   1.176  22.549  14.774
 8028W        W79699   2.961   4.656  12.942
 8029W        W79700  11.383   1.318   3.076
 8030W        W79701  21.211  10.918  11.111
 8031W        W79702  17.761   6.131  14.918
 8032W        W79703  31.576   6.687   0.400
 8033W        W79704  20.784  44.006  12.394
 8034W        W79705   5.396   0.081   0.879
 8035W        W79706   0.349  19.304   3.805
 8036W        W79707   6.902  17.845  10.767
 8037W        W79708  42.024  30.444   3.613
 8038W        W79709  44.867  23.152   1.492
 8039W        W79710  12.616  42.070   1.611
 8040W        W79711  43.062  10.179   3.056
 8041W        W79712  11.436   9.798  13.273
 8042W        W79713  24.993  28.520  11.117
 8043W        W79714   4.863   9.483  10.579
 8044W        W79715  15.595   7.073  11.447
 8045W        W79716  37.810   8.171  12.893
 8046W        W79717  28.679  36.965   3.866
 8047W        W79718  40.578  40.531   2.832
 8048W        W79719  22.431  38.543   5.520
 8049W        W79720   3.459  22.017   1.234
 8050W        W79721  22.589  22.099  11.243
 8051W        W79722  26.160  16.747   4.752
 8052W        W79723  14.075  15.307   4.055
 8053W        W79724  37.918  35.525   0.717
 8054W        W79725   2.224  42.863  14.518
 8055W        W79726  21.989  39.481  12.963
 8056W        W79727   5.831  19.816   0.324
 8057W        W79728  18.456  34.438  12.149
 8058W        W79729  19.227  25.569   0.897
 8059W        W79730  38.878  40.538  13.166
 8060W        W79731  29.912  35.586   0.227
 8061W        W79732   0.724  42.029   3.292
 8062W        W79733   1.052  10.699   1.788
 8063W        W79734  37.838  40.854   4.152
 8064W        W79735  41.369  34.729  10.575
 8065W        W79736   7.874  22.648  13.963
 8066W        W79737  28.265  40.520   4.627
 8067W        W79738  36.603  37.824   2.597
 8068W        W79739  21.766  16.166   1.191
 8069W        W79740  16.079  27.502   4.567
 8070W        W79741  44.887  37.925   3.401
 8071W        W79742   7.395  12.087   3.814
 8072W        W79743  18.779  19.189   3.261
 8073W        W79744  16.788  18.901  14.391
 8074W        W79745  23.897  25.647   1.923
 8075W        W79746  35.099  44.585   0.966
 8076W        W79747   8.175  17.177   2.813
 8077W        W79748  21.737   5.799  12.447
 8078W        W79749  15.343  37.163  11.619
 8079W        W79750   3.675  28.529   3.623
 8080W        W79751  31.057  25.497   0.265
 8081W        W79752   5.573  43.463  13.788
 8082W        W79753  11.327  19.594   4.005
 8083W        W79754   7.908  35.641  14.190
 8084W        W79755   0.669  27.577   2.794
 8085W        W79756  21.508  13.564  14.014
 8086W        W79757   8.348   8.712  12.071
 8087W        W79758  35.384   3.287   5.062
 8088W        W79759  33.211  37.010   4.571
 8089W        W79760  15.335  31.900   0.565
 8090W        W79761   1.909  24.404  13.135
 8091W        W79762  34.175   3.214  13.047
 8092W        W79763  12.802  11.264   3.508
 8093W        W79764  23.697  20.036   1.368
 8094W        W79765  19.007  14.578   4.978
 8095W        W79766   6.941  10.231   2.295
 8096W        W79767  13.378  38.728   0.994
 8097W        W79768  24.237  30.365   2.623
 8098W        W79769   6.665   6.962   0.708
 8099W        W79770   2.992  44.356   0.905
 8100W        W79771  37.604   7.479   2.826
 8101W        W79772  29.564  11.436  12.010
 8102W        W79773  33.704  14.395  14.855
 8103W        W79774  12.841  28.366   4.664
 8104W        W79775  35.137  21.630  12.446
 8105W        W79776  10.836  36.571   0.868
 8106W        W79777  17.012  27.343  13.994
 8107W        W79778  33.053  40.752  13.108
 8108W        W79779  35.514  34.571  12.340
 8109W        W79780   7.822  23.004  12.885
 8110W        W79781  33.179  15.722   2.440
 8111W        W79782  14.429  33.992  11.978
 8112W        W79783   2.452  16.123  10.369
 8113W        W79784  23.646   9.329  12.445
 8114W        W79785  17.076  17.326   4.362
 8115W        W79786   7.832  41.487  12.785
 8116W        W79787  30.049  20.673   2.414
 8117W        W79788  26.699  33.944   1.386
 8118W        W79789  12.969  34.383   1.321
 8119W        W79790   6.921  12.881   3.746
 8120W        W79791  28.069  21.963   3.635
 8121W        W79792   3.331   7.376  11.596
 8122W        W79793  44.840   2.270  14.306
 8123W        W79794  37.070  11.730  11.457
 8124W        W79795  12.694  29.043  10.735
 8125W        W79796  24.506   7.607   2.967
 8126W        W79797  11.684  34.007  12.250
 8127W        W79798   9.596  36.056  14.803
 8128W        W79799  24.947  41.000   3.401
 8129W        W79800  14.995   7.337  14.314
 8130W        W79801  19.530   2.202  14.475
 8131W        W79802  18.598  17.344  14.297
 8132W        W79803   9.701  21.996   2.748
 8133W        W79804  23.063  33.649   2.403
 8134W        W79805  30.219   7.330   3.612
 8135W        W79806  20.588  43.443   4.638
 8136W        W79807  13.507  24.242  11.642
 8137W        W79808   6.163  36.293   0.398
 8138W        W79809  32.722  29.827  13.576
 8139W        W79810  38.405   5.420  11.221
 8140W        W79811  13.698  36.987  13.722
 8141W        W79812  41.833  11.154  13.377
 8142W        W79813  23.976  26.998   1.415
 8143W        W79814   6.314  25.445   4.633
 8144W        W79815  27.626  38.085  11.842
 8145W        W79816  37.743   2.756   0.630
 8146W        W79817  37.081  12.150  11.144
 8147W        W79818  10.690  22.797   2.450
 8148W        W79819  35.487  13.511  13.421
 8149W        W79820  22.049  37.076   2.485
 8150W        W79821  26.435  40.279   4.076
 8151W        W79822  24.733  22.471   2.755
 8152W        W79823  29.122  44.859   2.402
 8153W        W79824   8.801  17.197   1.419
 8154W        W79825   8.437   9.355   4.045
 8155W        W79826  12.852   4.812   1.261
 8156W        W79827  40.109  42.232  11.059
 8157W        W79828  15.960  39.748  14.951
 8158W        W79829  44.043  20.702  11.604
 8159W        W79830   9.754  16.065   2.441
 8160W        W79831  11.463   9.819   2.880
 8161W        W79832   7.367   9.958   4.343
 8162W        W79833  18.053  19.059  11.478
 8163W        W79834  31.055  12.287  10.732
 8164W        W79835   1.746   0.506   1.822
 8165W        W79836  10.505   3.729   4.078
 8166W        W79837  28.238  33.687   4.699
 8167W        W79838  33.798  29.957  12.385
 8168W        W79839  44.470  22.041  14.933
 8169W        W79840  31.449  38.615  14.898
 8170W        W79841  11.677  13.804  14.431
 8171W        W79842   8.383  43.774   4.629
 8172W        W79843  19.167  23.575   0.342
 8173W        W79844  14.737  44.479   2.740
 8174W        W79845  22.013  10.200   0.369
 8175W        W79846  38.599  34.109  10.571
 8176W        W79847  24.743  30.615   4.131
 8177W        W79848  10.279  20.206   4.010
 8178W        W79849   9.287  31.612  10.447
 8179W        W79850  24.770  37.210   4.207
 8180W        W79851  19.130  42.804  13.406
 8181W        W79852  39.338  10.150   1.409
 8182W        W79853  27.497  13.837  14.338
 8183W        W79854  34.995  41.658  13.511
 8184W        W79855   8.281   4.203   2.709
 8185W        W79856  43.462  21.541  12.113
 8186W        W79857  42.984   6.466  13.848
 8187W        W79858  38.303   5.800  12.409
 8188W        W79859  18.653  19.650   3.068
 8189W        W79860  18.503  20.627   0.938
 8190W        W79861  32.059  43.522   1.678
 8191W        W79862  14.209  20.560   0.273
 8192W        W79863  24.692  40.249  14.599
 8193W        W79864  41.732  35.463  11.954
 8194W        W79865   3.620  31.735  10.011
 8195W        W79866  35.311  39.314   2.228
 8196W        W79867  18.021  14.438   3.956
 8197W        W79868  41.469  20.050   3.911
 8198W        W79869  25.745  39.041   3.770
 8199W        W79870   7.858   2.734   3.643
 8200W        W79871  42.975  22.314  11.994
 8201W        W79872  39.514   2.727  13.398
 8202W        W79873   7.123   3.707  11.566
 8203W        W79874   2.904  28.003   0.928
 8204W        W79875   0.976   6.480   1.909
 8205W        W79876  31.076  34.999   1.745
 8206W        W79877  24.774  22.531  11.454
 8207W        W79878  34.736   9.850   2.212
 8208W        W79879  18.867  40.124   1.814
 8209W        W79880  43.037  40.194  12.587
 8210W        W79881  25.023   8.915   3.312
 8211W        W79882  39.518  18.861   1.720
 8212W        W79883  10.142  30.718   0.442
 8213W        W79884  19.305  28.366   1.392
 8214W        W79885  12.379  21.041  11.537
 8215W        W79886  37.556   1.331  11.450
 8216W        W79887  36.420   5.426  13.768
 8217W        W79888  29.154  17.130   0.391
 8218W        W79889  15.173  23.290   3.889
 8219W        W79890  13.903  25.989  11.172
 8220W        W79891  25.117  23.177   4.833
 8221W        W79892  32.536  26.205   3.434
 8222W        W79893  12.488  10.673   0.901
 8223W        W79894   0.578  10.179   3.112
 8224W        W79895  18.731  35.505  11.136
 8225W        W79896  23.051  36.385   1.933
 8226W        W79897   1.289  17.197   0.871
 8227W        W79898  43.591  18.237   1.362
 8228W        W79899  34.641   8.605  10.454
 8229W        W79900  11.691  17.058   2.580
 8230W        W79901  27.931  25.611   1.920
 8231W        W79902  17.255  10.545  11.561
 8232W        W79903  44.376  39.543  10.864
 8233W        W79904  26.779  41.842  12.848
 8234W        W79905  35.362  36.026   3.704
 8235W        W79906  27.168   2.919  12.470
 8236W        W79907  11.900   4.800   0.372
 8237W        W79908   3.877   1.763  13.472
 8238W        W79909   6.420  12.428   2.583
 8239W        W79910  23.869  44.907  13.341
 8240W        W79911  16.162  25.039  13.748
 8241W        W79912  25.922  34.613  12.902
 8242W        W79913   2.213  37.575  14.785
 8243W        W79914   5.319   0.809   3.186
 8244W        W79915  38.958  15.701   3.539
 8245W        W79916   1.716  44.681   2.110
 8246W        W79917  24.593  29.671   3.148
 8247W        W79918   3.788   8.760  12.495
 8248W        W79919  42.776  37.792  13.056
 8249W        W79920  18.841   8.284   3.284
 8250W        W79921  17.443  42.099   2.318
 8251W        W79922  15.764  42.905   0.258
 8252W        W79923  39.741   6.762  13.545
 8253W        W79924  42.354   1.388  12.080
 8254W        W79925   4.789  17.770  10.280
 8255W        W79926   0.311   4.801  10.603
 8256W        W79927  34.113  30.209  13.833
 8257W        W79928  22.194  18.843  11.981
 8258W        W79929  12.612  20.494   4.645
 8259W        W79930  35.211   8.170  12.479
 8260W        W79931  24.542  29.055  12.711
 8261W        W79932  28.491  21.894  12.679
 8262W        W79933  27.798  32.964  13.528
 8263W        W79934  41.798  19.541  11.041
 8264W        W79935  18.473  24.688   3.780
 8265W        W79936   6.229  23.643   3.597
 8266W        W79937  37.335   0.424  12.580
 8267W        W79938  35.177   7.807   0.747
 8268W        W79939  27.648  10.860  12.016
 8269W        W79940  22.271  15.283  12.410
 8270W        W79941  40.069  41.554   2.526
 8271W        W79942   5.753  39.982   0.232
 8272W        W79943  19.080   0.401   0.853
 8273W        W79944  16.238  13.775   2.184
 8274W        W79945  13.672  15.197   2.821
 8275W        W79946  22.595  32.030   2.427
 8276W        W79947  31.619  22.049  12.504
 8277W        W79948  33.190  18.575   4.215
 8278W        W79949   7.411  24.061  14.903
 8279W        W79950  34.060  39.962  14.788
 8280W        W79951   4.777  24.562  10.521
 8281W        W79952  26.425  41.267  13.475
 8282W        W79953  32.054  43.508   2.246
 8283W        W79954  16.212  27.309  10.524
 8284W        W79955   8.824  27.601  10.762
 8285W        W79956  25.314  29.062  14.506
 8286W        W79957  11.226  13.534  14.471
 8287W        W79958  42.908  15.796  14.709
 8288W        W79959   9.838  12.052  13.905
 8289W        W79960  25.992  30.051   0.293
 8290W        W79961  39.786  29.873   4.198
 8291W        W79962  22.807  22.517  13.916
 8292W        W79963  22.697  12.807   2.171
 8293W        W79964  29.718   4.320  10.787
 8294W        W79965  13.500  22.426   0.337
 8295W        W79966  25.023  40.972   4.841
 8296W        W79967  39.866  11.159   2.890
 8297W        W79968  41.892   5.291   0.039
 8298W        W79969  34.602  26.169  10.678
 8299W        W79970  23.267  44.641   4.613
 8300W        W79971  35.493  28.544  11.633
 8301W        W79972  35.267   0.130  12.964
 8302W        W79973  37.146   5.777  14.271
 8303W        W79974  40.834  22.734   2.589
 8304W        W79975  24.625  40.316  13.099
 8305W        W79976  40.539  41.001   0.452
 8306W        W79977   7.743  20.680  11.546
 8307W        W79978  27.142  10.148   5.009
 8308W        W79979  10.692  11.663   2.698
 8309W        W79980  26.623  23.775   5.101
 8310W        W79981  10.739  17.668   1.337
 8311W        W79982  12.785  33.673   2.738
 8312W        W79983   0.902  33.606  10.684
 8313W        W79984  39.065  35.272  14.475
 8314W        W79985  40.481  44.411  11.387
 8315W        W79986  27.561   6.942  14.205
 8316W        W79987  41.331  31.648  14.318
 8317W        W79988  41.506  24.985   1.492
 8318W        W79989  14.624   5.623  13.454
 8319W        W79990  42.798   2.422   4.517
 8320W        W79991  12.320  29.422   4.054
 8321W        W79992   0.935   0.323   2.742
 8322W        W79993  16.282  30.701  11.051
 8323W        W79994  37.002  44.495  13.460
 8324W        W79995  19.052  34.442  14.650
 8325W        W79996  24.458  38.951  11.345
 8326W        W79997  34.390   4.248   4.052
 8327W        W79998  34.492  40.638   2.379
 8328W        W79999  16.918  41.890  13.780
 8329W        W80000   8.300  15.500   2.748
 8330W        W80001  29.566   1.452  13.927
 8331W        W80002  26.580  11.927   0.846
 8332W        W80003  24.955   7.188  14.026
 8333W        W80004  24.097  17.996  14.245
 8334W        W80005   7.750  38.422  14.256
 8335W        W80006  44.130  41.873   1.927
 8336W        W80007   1.306  15.594   1.507
 8337W        W80008  29.445   9.379  10.608
 8338W        W80009  32.356  37.937  13.808
 8339W        W80010  33.944  39.121  13.397
 8340W        W80011  21.744   9.541   4.275
 8341W        W80012  14.257   4.011   1.805
 8342W        W80013  35.033  44.749   4.637
 8343W        W80014   6.905  33.991   1.563
 8344W        W80015   0.332  13.154  11.755
 8345W        W80016  32.670  14.020  14.137
 8346W        W80017  19.483   4.256  13.521
 8347W        W80018  14.271   5.465   4.649
 8348W        W80019  27.700  42.752  11.576
 8349W        W80020  18.070  41.402  13.861
 8350W        W80021  35.130   0.595  12.022
 8351W        W80022  23.067   7.042   1.160
 8352W        W80023  22.674   2.758   1.950
 8353W        W80024  36.950  27.151   3.215
 8354W        W80025  42.371  42.219  10.757
 8355W        W80026  16.809  39.519   3.692
 8356W        W80027   9.847  37.773   2.342
 8357W        W80028  14.222  37.991   2.589
 8358W        W80029  24.684  14.830   2.349
 8359W        W80030  38.444  31.929  11.204
 8360W        W80031  24.060  10.297  14.308
 8361W        W80032  40.461  15.803   4.576
 8362W        W80033   9.672  32.202   2.442
 8363W        W80034  40.650  31.577   1.305
 8364W        W80035  11.183  30.907  14.500
 8365W        W80036  35.392  31.397  12.142
 8366W        W80037   9.218  39.924   2.332
 8367W        W80038  39.296  24.754  14.915
 8368W        W80039  31.660  29.507   1.794
 8369W        W80040  38.591   2.480  13.460
 8370W        W80041  21.656  34.519   0.018
 8371W        W80042  27.160   6.028   2.326
 8372W        W80043  33.002  36.932   4.112
 8373W        W80044  21.899   6.282  11.593
 8374W        W80045  29.601  42.286  13.341
 8375W        W80046  28.935  26.598  14.559
 8376W        W80047  17.852  43.867   2.357
 8377W        W80048  18.603  43.993  10.783
 8378W        W80049  17.157  39.124  13.111
 8379W        W80050  40.372  12.972  11.097
 8380W        W80051   6.499  28.149  12.435
 8381W        W80052  10.262   9.332  10.903
 8382W        W80053  42.062  31.675  12.433
 8383W        W80054  40.443  34.756   5.093
 8384W        W80055   0.932  18.954   2.110
 8385W        W80056   3.047  29.417  14.388
 8386W        W80057  14.625  26.183   4.503
 8387W        W80058  38.223   8.942  10.642
 8388W        W80059   5.395  32.135   1.171
 8389W        W80060   6.710  27.497   4.673
 8390W        W80061  25.995   0.785   3.736
 8391W        W80062  10.740   4.789  14.507
 8392W        W80063  40.841  40.490   9.908
 8393W        W80064   1.244  24.217  12.113
 8394W        W80065  44.932  32.813  10.763
 8395W        W80066   7.265  36.601   2.358
 8396W        W80067  40.425  44.083   0.727
 8397W        W80068  44.924  31.435  10.355
 8398W        W80069  11.887  37.369   1.831
 8399W        W80070  30.973  28.045   0.758
 8400W        W80071  18.121  34.041   4.249
 8401W        W80072  14.614   2.249   1.814
 8402W        W80073  21.207   9.819   2.467
 8403W        W80074  21.222   3.290  10.479
 8404W        W80075  36.282  28.049  12.469
 8405W        W80076  31.580  23.762   2.345
 8406W        W80077  15.546  12.992  14.846
 8407W        W80078  35.029  12.150   2.289
 8408W        W80079  21.446   1.877   3.502
 8409W        W80080   0.337  23.091  10.715
 8410W        W80081  16.878  36.515   0.413
 8411W        W80082  36.935  39.398  12.348
 8412W        W80083  25.437   3.741  11.740
 8413W        W80084  14.091  43.546   1.318
 8414W        W80085  40.106  39.482  11.657
 8415W        W80086  29.715  16.060  14.452
 8416W        W80087  26.038  38.437   4.495
 8417W        W80088  28.918   3.047  11.012
 8418W        W80089  30.104  38.830   3.745
 8419W        W80090  24.304  25.603  14.838
 8420W        W80091  21.021  27.797  11.995
 8421W        W80092  38.095  20.715  10.423
 8422W        W80093  27.442  35.331   2.722
 8423W        W80094  11.610  35.969  10.167
 8424W        W80095  13.050   5.232   0.982
 8425W        W80096   3.874  26.456  10.999
 8426W        W80097  43.561  37.373   4.368
 8427W        W80098  16.551   6.335   5.028
 8428W        W80099   7.824  28.492   0.718
 8429W        W80100   7.964  13.612  10.666
 8430W        W80101   1.508  19.673  10.121
 8431W        W80102   4.982  11.323  12.825
 8432W        W80103  20.053  24.588   2.212
 8433W        W80104  13.677  11.657   4.665
 8434W        W80105  38.237   5.871   0.357
 8435W        W80106  37.672  16.273   0.888
 8436W        W80107  44.906  36.344   3.080
 8437W        W80108  14.150   8.023  10.891
 8438W        W80109   2.708  42.635  10.957
 8439W        W80110  39.920  35.380   3.690
 8440W        W80111  26.285  25.846   4.171
 8441W        W80112  32.429  26.431   4.876
 8442W        W80113  15.138   5.054  11.846
 8443W        W80114  12.275   0.462   1.811
 8444W        W80115  40.385  23.678  14.927
 8445W        W80116  25.143  41.567   2.269
 8446W        W80117  22.670  15.907  12.455
 8447W        W80118  31.676  10.451   2.661
 8448W        W80119  39.983   4.180   1.743
 8449W        W80120   1.983  42.486  12.592
 8450W        W80121  19.754  33.555   2.300
 8451W        W80122  17.187  40.184   4.875
 8452W        W80123  28.093  30.289   9.898
 8453W        W80124   4.365  40.331   3.402
 8454W        W80125  32.331  21.531   0.498
 8455W        W80126  42.868   9.492   1.368
 8456W        W80127  34.829  32.571  13.408
 8457W        W80128  27.049   8.348   2.753
 8458W        W80129  17.641  16.795  11.615
 8459W        W80130  40.886  14.306  14.089
 8460W        W80131  23.760  24.578  11.470
 8461W        W80132  15.644  22.277  14.871
 8462W        W80133  20.156   1.918   2.373
 8463W        W80134  19.017  11.369   3.261
 8464W        W80135  43.019  39.714  12.393
 8465W        W80136  14.660   6.830  11.651
 8466W        W80137  31.562  34.369   4.589
 8467W        W80138  33.587  34.338  14.680
 8468W        W80139  36.408  12.530   4.255
 8469W        W80140  28.472  24.998  10.714
 8470W        W80141   4.509  37.617   2.830
 8471W        W80142  37.848  32.209   4.110
 8472W        W80143   6.410   9.205   2.906
 8473W        W80144   4.853  22.203   1.367
 8474W        W80145   0.894  40.515   4.044
 8475W        W80146  12.309   2.786  13.959
 8476W        W80147   4.973  20.653   4.763
 8477W        W80148  32.598  41.776  12.800
 8478W        W80149  18.216  22.044  11.700
 8479W        W80150   8.466   1.697   1.738
 8480W        W80151  36.304  28.949   2.332
 8481W        W80152  17.645   6.037   9.741
 8482W        W80153  37.371   9.844  11.711
 8483W        W80154  43.611  17.596  13.790
 8484W        W80155  41.867  38.731   2.773
 8485W        W80156   9.895  13.411  13.923
 8486W        W80157  37.848  43.890  12.089
 8487W        W80158  40.998   8.231  12.886
 8488W        W80159   9.084  25.909  13.803
 8489W        W80160  15.182   6.374  13.920
 8490W        W80161  10.371  26.621  14.064
 8491W        W80162   5.392  26.397   4.711
 8492W        W80163  19.015  38.465  10.976
 8493W        W80164  10.078  38.813   4.742
 8494W        W80165  21.727   6.883  10.873
 8495W        W80166  40.866  26.663  14.637
 8496W        W80167  18.595  31.136   4.650
 8497W        W80168  12.771  24.181   3.022
 8498W        W80169  28.000  35.013  10.681
 8499W        W80170   4.298   5.121   3.099
 8500W        W80171  15.110  23.162   2.916
 8501W        W80172  35.873  28.818   2.596
 8502W        W80173   7.919  22.609  12.565
 8503W        W80174   4.890   6.195  11.225
 8504W        W80175   4.735  22.603   2.181
 8505W        W80176  10.610  30.671   2.169
 8506W        W80177   8.299   2.006   1.317
 8507W        W80178  15.420  24.680   0.859
 8508W        W80179  28.316  13.176   2.709
 8509W        W80180   8.062  16.001  13.401
 8510W        W80181  28.676  17.975   2.614
 8511W        W80182  33.054  17.738   0.962
 8512W        W80183   6.714  33.054   1.220
 8513W        W80184  13.192  26.012  13.009
 8514W        W80185  23.966  15.109  12.879
 8515W        W80186  10.790  42.795  14.772
 8516W        W80187  34.066   2.176  12.954
 8517W        W80188  36.989  38.029   2.332
 8518W        W80189   8.235  40.266   0.899
 8519W        W80190  24.315  41.398   4.474
 8520W        W80191  19.878  34.836  11.489
 8521W        W80192  31.983  16.762  12.416
 8522W        W80193  21.085  10.766  14.416
 8523W        W80194  11.702   1.521   4.478
 8524W        W80195   1.400  32.158   1.716
 8525W        W80196  37.399  21.128  13.837
 8526W        W80197   6.724  42.468   0.364
 8527W        W80198  15.611   3.697  13.096
 8528W        W80199  18.098  17.316   0.202
 8529W        W80200  19.250   2.273  12.854
 8530W        W80201  31.457  19.799  13.808
 8531W        W80202  37.166  30.685  11.733
 8532W        W80203   7.134  18.798  13.418
 8533W        W80204  25.683   2.280  10.684
 8534W        W80205  17.783  26.138  14.931
 8535W        W80206  42.190  44.090  14.438
 8536W        W80207  18.000   0.143   4.622
 8537W        W80208  34.869  34.253   1.177
 8538W        W80209  10.966  36.802  14.484
 8539W        W80210  19.212   7.864   0.345
 8540W        W80211  35.014  33.586   4.984
 8541W        W80212  32.606  43.000  14.734
 8542W        W80213  27.129   0.997  10.759
 8543W        W80214  20.138  35.320   1.691
 8544W        W80215  16.993  12.916  11.172
 8545W        W80216  26.072   6.420   4.636
 8546W        W80217  29.688  15.036   4.165
 8547W        W80218  19.222  24.086   0.271
 8548W        W80219  44.402  30.543   1.480
 8549W        W80220  39.663  34.519   2.716
 8550W        W80221   7.719  43.506  14.281
 8551W        W80222  29.462   6.437  13.815
 8552W        W80223  32.363  16.105  12.013
 8553W        W80224  35.573  18.792  14.066
 8554W        W80225   7.696  11.585  11.578
 8555W        W80226  19.157  36.032   0.985
 8556W        W80227  15.353   4.527   0.763
 8557W        W80228   0.057  36.894  10.639
 8558W        W80229   6.720   8.420  13.455
 8559W        W80230  12.741  36.377   2.926
 8560W        W80231  29.664  13.986   4.020
 8561W        W80232   2.111  23.806   4.324
 8562W        W80233  24.840   7.208   1.940
 8563W        W80234   5.943   6.680   2.587
 8564W        W80235  38.951  30.752  14.946
 8565W        W80236  19.536   0.942  14.031
 8566W        W80237  44.972  22.743   0.405
 8567W        W80238  42.416  33.860   4.383
 8568W        W80239  17.268  29.404   3.156
 8569W        W80240  35.854   4.357   3.631
 8570W        W80241  30.426   3.320   4.633
 8571W        W80242  17.029   5.720   5.048
 8572W        W80243  23.737  43.350   0.242
 8573W        W80244  19.579  44.283  13.701
 8574W        W80245  12.318   3.206  13.270
 8575W        W80246  34.296   8.712   3.418
 8576W        W80247  41.810  12.856  12.194
 8577W        W80248  21.085  26.618  10.707
 8578W        W80249  24.413  13.276   4.172
 8579W        W80250   1.918  44.790  10.981
 8580W        W80251   8.010  17.776  11.101
 8581W        W80252  35.386  19.606  12.634
 8582W        W80253  31.039   6.738  11.566
 8583W        W80254  17.650  11.202  14.553
 8584W        W80255   5.293   6.271  12.505
 8585W        W80256  34.376  24.121  11.028
 8586W        W80257  37.335  18.015   2.068
 8587W        W80258  28.696  31.529  12.901
 8588W        W80259  31.504  18.771   1.280
 8589W        W80260  24.669  13.324  14.114
 8590W        W80261  15.211   5.167  10.930
 8591W        W80262  25.963  22.239   0.263
 8592W        W80263  19.809   5.428  10.570
 8593W        W80264  26.468  21.737   3.972
 8594W        W80265  41.439  41.244  10.120
 8595W        W80266  15.344  25.170  14.441
 8596W        W80267  37.877  37.587   5.086
 8597W        W80268   2.916  24.301  11.878
 8598W        W80269  21.684  37.094   3.727
 8599W        W80270   1.735  30.550  12.183
 8600W        W80271  42.805   3.835   3.374
 8601W        W80272  43.385  17.556  11.666
 8602W        W80273  43.522  32.642  11.065
 8603W        W80274  36.781  17.976  10.220
 8604W        W80275  19.145  38.578  14.756
 8605W        W80276  40.726  31.617   0.780
 8606W        W80277   2.475  31.667  12.517
 8607W        W80278  35.918   8.253   2.684
 8608W        W80279  33.084   7.436  14.004
 8609W        W80280  31.036  25.094   3.728
 8610W        W80281  22.180   6.863  13.481
 8611W        W80282  10.206  43.377  11.452
 8612W        W80283  42.870  16.799   3.330
 8613W        W80284  28.060   4.665   2.883
 8614W        W80285  30.697  29.877  12.491
 8615W        W80286   5.988   4.568   1.674
 8616W        W80287  15.383  32.659   1.796
 8617W        W80288  27.042   8.997  11.092
 8618W        W80289  24.735   2.660   2.289
 8619W        W80290   4.211   3.097   1.910
 8620W        W80291  20.264  34.617  12.776
 8621W        W80292  30.094  42.380  12.039
 8622W        W80293   1.793  21.289   4.903
 8623W        W80294  16.081   2.043   1.672
 8624W        W80295  26.229  37.458  10.564
 8625W        W80296  21.683  24.117  14.386
 8626W        W80297  15.782  28.528   4.893
 8627W        W80298  11.414  41.432   2.387
 8628W        W80299  25.762   9.423   0.462
 8629W        W80300  29.500   4.828  10.636
 8630W        W80301  35.335  14.318  12.400
 8631W        W80302  20.125   0.994   3.667
 8632W        W80303  10.888  24.249  12.853
 8633W        W80304   5.691  24.249  13.977
 8634W        W80305  27.069  41.078  13.088
 8635W        W80306   0.988  22.682   0.364
 8636W        W80307  24.765  26.976  10.603
 8637W        W80308  41.955  20.324   4.250
 8638W        W80309  43.531  23.604  12.979
 8639W        W80310  43.821  23.476  13.928
 8640W        W80311  27.105   7.546   2.266
 8641W        W80312  31.334   4.335   1.488
 8642W        W80313  14.839  20.351  13.922
 8643W        W80314   1.836   9.172   2.370
 8644W        W80315  28.092  32.174  14.472
 8645W        W80316  34.454  31.975  12.358
 8646W        W80317  26.131  43.331  11.471
 8647W        W80318   4.603   9.464   2.271
 8648W        W80319  34.301  31.702   0.824
 8649W        W80320  15.653   4.148   4.549
 8650W        W80321   1.064   4.993  14.022
 8651W        W80322  19.111  16.057  10.370
 8652W        W80323  42.917  22.028  10.692
 8653W        W80324  39.781  16.451  11.311
 8654W        W80325  37.949  14.732  13.523
 8655W        W80326  20.781  42.818  10.723
 8656W        W80327  18.694   9.209  14.717
 8657W        W80328  22.566  31.667   4.247
 8658W        W80329  14.683  12.603  10.577
 8659W        W80330  17.207  44.312  13.895
 8660W        W80331  40.806   0.089   0.478
 8661W        W80332  40.420  21.178   5.163
 8662W        W80333  26.326  41.314  10.745
 8663W        W80334  42.043   6.813   0.684
 8664W        W80335   5.321  32.623   1.325
 8665W        W80336  17.690  38.992   3.711
 8666W        W80337  11.125  16.349  12.326
 8667W        W80338   0.483  43.864   2.348
 8668W        W80339  12.372  35.487   0.986
 8669W        W80340  10.468   7.512  14.354
 8670W        W80341  20.681  33.473   3.685
 8671W        W80342  22.201  40.574   9.670
 8672W        W80343  19.729  20.258  10.961
 8673W        W80344  26.672  18.350  12.470
 8674W        W80345  37.360   8.921  11.505
 8675W        W80346  12.892  11.892   4.140
 8676W        W80347  15.933   7.224   0.848
 8677W        W80348  25.273  15.254   0.815
 8678W        W80349  41.894   2.895   4.563
 8679W        W80350  22.040  44.981   1.258
 8680W        W80351  42.341  20.584  14.016
 8681W        W80352   1.358  42.373   5.002
 8682W        W80353  33.971  37.596   3.268
 8683W        W80354  44.284   6.287   0.837
 8684W        W80355  35.051  37.509  13.231
 8685W        W80356   7.938  11.706   1.876
 8686W        W80357  35.467  27.394   1.749
 8687W        W80358  39.089   1.701   3.680
 8688W        W80359  43.292  25.749   3.279
 8689W        W80360  31.447  24.179  12.653
 8690W        W80361   5.266  41.993   1.202
 8691W        W80362  19.233  43.857   0.007
 8692W        W80363   1.268   5.844  14.418
 8693W        W80364  15.726  29.140   1.355
 8694W        W80365  30.494   4.187   1.160
 8695W        W80366  29.351  31.150   1.738
 8696W        W80367  36.604  11.468   3.419
 8697W        W80368   4.930  19.138   3.672
 8698W        W80369  37.133   2.446   2.870
 8699W        W80370   0.241  13.823   3.897
 8700W        W80371  14.873  15.719  14.425
 8701W        W80372  44.579  22.977  12.948
 8702W        W80373  41.908  19.467   3.157
 8703W        W80374  39.383  17.649  10.481
 8704W        W80375  34.876  21.449  12.023
 8705W        W80376  28.454  27.403   0.386
 8706W        W80377  42.834  29.945  13.738
 8707W        W80378  15.857  41.043  12.960
 8708W        W80379   3.371  42.026  14.478
 8709W        W80380  14.076  18.722  13.018
 8710W        W80381  24.043  24.786  13.818
 8711W        W80382   1.483  26.719   0.952
 8712W        W80383  41.009  13.690  10.708
 8713W        W80384  12.821  11.394   4.080
 8714W        W80385   7.956  40.885  12.103
 8715W        W80386  23.027  42.368   4.912
 8716W        W80387  23.093  44.647   0.189
 8717W        W80388  21.522   1.484  12.526
 8718W        W80389  10.439  18.293   0.807
 8719W        W80390   2.793   5.878  10.653
 8720W        W80391  37.335  41.520  14.163
 8721W        W80392  23.593  35.152   0.320
 8722W        W80393  20.817  17.779   1.746
 8723W        W80394   8.389  35.339   2.704
 8724W        W80395  30.900  34.451   1.175
 8725W        W80396  10.195  30.586  10.790
 8726W        W80397  18.695  19.836  13.458
 8727W        W80398  32.637  21.779  10.633
 8728W        W80399  40.445  31.488   3.566
 8729W        W80400  17.693  16.005  12.530
 8730W        W80401  43.414  27.705  14.819
 8731W        W80402   3.866  11.149  14.922
 8732W        W80403  16.780  14.616  11.152
 8733W        W80404  28.898  24.959   2.175
 8734W        W80405  34.454  31.366  11.542
 8735W        W80406   3.932  21.201  10.209
 8736W        W80407   8.932   3.930  13.424
 8737W        W80408  27.374   9.370   9.793
 8738W        W80409   3.040  24.214   0.918
 8739W        W80410  39.507  19.008  13.403
 8740W        W80411  14.189  41.210  13.384
 8741W        W80412  25.631  33.425  10.690
 8742W        W80413  25.139  10.350   3.400
 8743W        W80414  40.489   2.948  10.665
 8744W        W80415  25.708   4.638  13.039
 8745W        W80416  28.066  34.404   4.125
 8746W        W80417  29.569  15.766  11.131
 8747W        W80418  10.953  26.226  12.986
 8748W        W80419  43.565   7.381  13.935
 8749W        W80420   3.344  40.475   3.623
 8750W        W80421  35.678  13.685   4.627
 8751W        W80422   8.904  29.358   2.202
 8752W        W80423  32.433  25.736   1.866
 8753W        W80424   1.792  23.665   4.740
 8754W        W80425  16.100   1.701   3.977
 8755W        W80426  40.150  40.716  14.484
 8756W        W80427  13.590   2.909   2.987
 8757W        W80428  12.132  40.397  13.899
 8758W        W80429   2.947   9.727  14.051
 8759W        W80430  30.474  32.056  14.798
 8760W        W80431  13.832  25.203   0.403
 8761W        W80432  40.457   8.907  14.742
 8762W        W80433  24.151   6.779   0.610
 8763W        W80434  16.646  18.688   3.392
 8764W        W80435  11.644   0.711  13.394
 8765W        W80436  44.559  29.938  13.893
 8766W        W80437  42.500  40.455   4.516
 8767W        W80438  29.341   4.453  14.961
 8768W        W80439  27.433  42.667   0.771
 8769W        W80440   5.452  43.657   0.339
 8770W        W80441   6.218   1.534  10.692
 8771W        W80442  16.487  31.317   3.236
 8772W        W80443  29.436  23.255  10.513
 8773W        W80444  12.867  15.488   0.858
 8774W        W80445  15.904   8.898  13.877
 8775W        W80446  20.326  27.918   2.243
 8776W        W80447  16.145  31.569   0.399
 8777W        W80448   3.007  32.992   0.315
 8778W        W80449   5.550  29.916   4.266
 8779W        W80450  26.500  12.202  12.812
 8780W        W80451  36.625  13.721   0.468
 8781W        W80452  12.104  31.118   2.018
 8782W        W80453  42.008   1.959   1.926
 8783W        W80454  25.192  34.887  14.570
 8784W        W80455  39.893   6.241  13.428
 8785W        W80456  14.515   0.230   1.181
 8786W        W80457  20.787  17.487  13.699
 8787W        W80458   4.158  11.635   3.273
 8788W        W80459  40.381  20.967   2.880
 8789W        W80460  26.024  14.388   2.853
 8790W        W80461   8.488  43.544   4.182
 8791W        W80462  22.751  30.156   4.126
 8792W        W80463   8.815  12.458  13.514
 8793W        W80464  42.035  13.280  14.493
 8794W        W80465  30.631  14.764  14.942
 8795W        W80466   3.060  24.328  14.531
 8796W        W80467  35.328   9.590   0.837
 8797W        W80468  43.767  29.950   1.588
 8798W        W80469  20.972  12.878  14.977
 8799W        W80470  28.166  42.003  13.478
 8800W        W80471   4.309  23.158   0.481
 8801W        W80472  15.887   1.272   4.713
 8802W        W80473  20.336   4.177  12.562
 8803W        W80474   6.554   5.402   1.305
 8804W        W80475  35.549  43.455  13.883
 8805W        W80476  22.902  11.906  12.943
 8806W        W80477  40.081  22.463   4.059
 8807W        W80478   6.837   9.454  12.023
 8808W        W80479   6.789   7.715  14.697
 8809W        W80480  28.194  23.707   0.277
 8810W        W80481  17.119   5.520  10.523
 8811W        W80482  24.579  17.781   0.556
 8812W        W80483  19.650  14.302   1.154
 8813W        W80484   9.311  12.226   2.841
 8814W        W80485  42.424  38.031   4.095
 8815W        W80486  20.754  22.272  13.224
 8816W        W80487  34.170   0.512  11.571
 8817W        W80488  43.777  35.334  12.909
 8818W        W80489  31.433   6.927   3.346
 8819W        W80490   3.754  17.184  12.963
 8820W        W80491  27.675   3.270  13.378
 8821W        W80492  21.682   5.368  12.173
 8822W        W80493  39.202  21.330  11.876
 8823W        W80494  35.035   0.208  14.703
 8824W        W80495  10.297  40.400   3.368
 8825W        W80496  42.732   3.385  11.838
 8826W        W80497  37.839  24.792   0.281
 8827W        W80498  16.311   3.811   1.947
 8828W        W80499  42.238  12.114   2.776
 8829W        W80500  27.038  41.811  10.405
 8830W        W80501  24.439  29.739  12.905
 8831W        W80502  15.059  18.457  12.047
 8832W        W80503  10.450  42.780   0.778
 8833W        W80504  13.273  41.562   0.785
 8834W        W80505  25.518   2.735  13.953
 8835W        W80506  31.171  39.840  13.205
 8836W        W80507  42.838  38.327   9.694
 8837W        W80508  24.486  22.230  13.651
 8838W        W80509  27.505  12.590  11.958
 8839W        W80510  10.078  37.418   3.163
 8840W        W80511   8.402  25.294   3.630
 8841W        W80512  41.867  11.302   1.732
 8842W        W80513   4.528   8.729  14.827
 8843W        W80514  17.627  31.751   3.922
 8844W        W80515  25.390  39.396  12.026
 8845W        W80516  42.064   1.784  13.708
 8846W        W80517  26.484   0.804   4.656
 8847W        W80518   2.355  23.178   1.160
 8848W        W80519   7.223  22.204  13.600
 8849W        W80520   3.553  14.242   4.559
 8850W        W80521  33.200   1.520  13.843
 8851W        W80522   5.506  42.592  12.879
 8852W        W80523  19.015  15.724   2.660
 8853W        W80524   6.122  38.506   4.147
 8854W        W80525  40.296  19.284  14.894
 8855W        W80526  43.522  25.600   4.079
 8856W        W80527  22.689  31.688   3.341
 8857W        W80528  12.646  12.717   3.667
 8858W        W80529   6.792  41.513   1.900
 8859W        W80530  15.354  11.939  13.814
 8860W        W80531  25.540  10.937  13.589
 8861W        W80532  26.235  21.144   4.545
 8862W        W80533   9.651  31.541   0.801
 8863W        W80534  34.658   5.792   2.702
 8864W        W80535  20.256  16.134  13.919
 8865W        W80536  22.452  29.571   1.718
 8866W        W80537  22.476  43.951  10.678
 8867W        W80538  35.655  38.264   1.405
 8868W        W80539  43.410  33.837  11.003
 8869W        W80540  20.649  39.505  10.839
 8870W        W80541   7.335   8.594   1.146
 8871W        W80542  28.705   5.179  12.958
 8872W        W80543  39.106  37.605  11.083
 8873W        W80544  31.443   7.751   2.813
 8874W        W80545  27.706  11.321  10.038
 8875W        W80546  23.117  19.318  14.868
 8876W        W80547   8.620  17.921  12.994
 8877W        W80548  11.810   8.138   3.232
 8878W        W80549  21.747  38.339  13.115
 8879W        W80550  15.082  21.998  13.906
 8880W        W80551  12.162  29.256  14.916
 8881W        W80552  41.255  26.364  13.071
 8882W        W80553  20.585  25.081   3.252
 8883W        W80554  18.312  16.243   2.641
 8884W        W80555  22.998  35.026  11.480
 8885W        W80556  44.061  38.118  12.463
 8886W        W80557  31.909   2.714   4.976
 8887W        W80558   7.672   3.466   1.698
 8888W        W80559  22.027  34.203   0.769
 8889W        W80560   8.394  20.253  13.153
 8890W        W80561  32.901   4.232  12.581
 8891W        W80562  26.577   9.436  11.182
 8892W        W80563   1.814  36.568   4.467
 8893W        W80564   5.218  37.691  11.153
 8894W        W80565   3.820  41.716  13.781
 8895W        W80566   5.004  34.026  12.273
 8896W        W80567  40.096  28.991  13.439
 8897W        W80568  41.027  14.343   3.199
 8898W        W80569  10.489   7.897  11.606
 8899W        W80570  42.442  28.544  12.351
 8900W        W80571  11.328  13.706  12.446
 8901W        W80572   0.694  20.342  11.743
 8902W        W80573  43.467  40.477   4.333
 8903W        W80574  20.230  21.177  14.482
 8904W        W80575   4.233  34.962  12.317
 8905W        W80576  41.823  13.317  12.926
 8906W        W80577   0.402   9.393  14.379
 8907W        W80578   4.960   4.186  13.445
 8908W        W80579  10.209  36.468  13.766
 8909W        W80580  19.034  33.372  10.805
 8910W        W80581  23.621  20.899   0.108
 8911W        W80582  22.099  41.220  14.419
 8912W        W80583  43.902   7.152   2.253
 8913W        W80584  17.850  39.173  10.753
 8914W        W80585   7.758  22.489   4.937
 8915W        W80586   3.191   7.860  12.793
 8916W        W80587  10.207  25.217  13.462
 8917W        W80588   0.483  10.772  12.440
 8918W        W80589  29.996   7.660  11.652
 8919W        W80590  24.270  44.693   1.721
 8920W        W80591   0.293  24.560  12.820
 8921W        W80592  24.702  35.360  13.871
 8922W        W80593  30.143   8.648  14.271
 8923W        W80594  26.088  16.145  14.234
 8924W        W80595  36.658  24.583  13.052
 8925W        W80596  22.136   2.742  12.987
 8926W        W80597  26.347  35.200  12.101
 8927W        W80598  31.577  35.474  14.822
 8928W        W80599  21.523  35.032   2.928
 8929W        W80600  27.159  13.486   4.578
 8930W        W80601  31.217  21.465   0.264
 8931W        W80602   1.265  35.505  12.792
 8932W        W80603  13.749  33.524   2.721
 8933W        W80604  23.418  32.662   4.487
 8934W        W80605  10.498  26.355  12.559
 8935W        W80606  16.700  28.621  10.827
 8936W        W80607  10.092   9.633   0.749
 8937W        W80608  10.710  44.517  14.899
 8938W        W80609  10.705  34.338   3.620
 8939W        W80610  10.135  22.705   0.773
 8940W        W80611  37.293  41.984  11.621
 8941W        W80612  25.749  24.588   3.098
 8942W        W80613   6.896  25.535  13.436
 8943W        W80614  43.034  37.529   0.972
 8944W        W80615  12.629  14.604  14.903
 8945W        W80616  32.215  43.364  14.791
 8946W        W80617  18.130  37.603  10.899
 8947W        W80618  27.747  20.906  14.941
 8948W        W80619  20.055   4.922  13.013
 8949W        W80620  35.513  34.122   3.606
 8950W        W80621  26.405  35.379   0.896
 8951W        W80622  26.024  20.747   4.257
 8952W        W80623  14.193   3.843  11.324
 8953W        W80624   2.886  20.156   4.592
 8954W        W80625  39.739  12.300   3.843
 8955W        W80626  35.861  30.433  11.512
 8956W        W80627  26.472   0.937   4.150
 8957W        W80628  35.052  43.015  13.792
 8958W        W80629  27.850  40.799  14.442
 8959W        W80630  38.358  11.965   2.785
 8960W        W80631  19.600  42.765   4.303
 8961W        W80632   0.411  38.795   0.882
 8962W        W80633   9.881   3.679  13.293
 8963W        W80634  37.533  25.646   4.549
 8964W        W80635  27.842  15.703  14.924
 8965W        W80636  44.793  38.411  13.192
 8966W        W80637  14.975   3.250   5.043
 8967W        W80638  27.227  22.231  10.888
 8968W        W80639  13.757  40.069   1.836
 8969W        W80640  22.013  10.859  11.586
 8970W        W80641  31.908  33.008   3.244
 8971W        W80642   2.891   9.481   0.222
 8972W        W80643  33.552  44.052  12.549
 8973W        W80644  30.183  25.559   0.466
 8974W        W80645  19.932   4.879   0.059
 8975W        W80646  20.184   4.146   2.354
 8976W        W80647  13.813  19.117  14.417
 8977W        W80648   1.256   2.522   0.202
 8978W        W80649  27.126  16.145  10.623
 8979W        W80650  22.274  24.413   3.274
 8980W        W80651  36.188  11.787   1.849
 8981W        W80652  35.887  21.340   3.390
 8982W        W80653  34.587  33.633   2.408
 8983W        W80654  23.760   3.904  10.690
 8984W        W80655  21.274  34.905   4.640
 8985W        W80656   6.381  19.953   3.842
 8986W        W80657   3.975  17.024   3.189
 8987W        W80658   7.960  41.451   0.906
 8988W        W80659   4.721  34.911  13.344
 8989W        W80660  44.341  14.353   0.742
 8990W        W80661  20.185   0.924   1.557
 8991W        W80662   4.304  38.918   1.458
 8992W        W80663  24.153  22.046   3.579
 8993W        W80664  34.620   7.232  12.666
 8994W        W80665   7.324  21.969  10.769
 8995W        W80666   5.675   7.199  10.699
 8996W        W80667   2.448   5.173   1.347
 8997W        W80668   7.839   5.406   2.870
 8998W        W80669  41.062  19.660  11.520
 8999W        W80670  16.095  33.335  11.583
 9000W        W80671  41.072   7.335  11.506
 9001W        W80672  39.477  36.979  13.497
 9002W        W80673  32.511  12.830   4.237
 9003W        W80674  30.086  20.666  14.410
 9004W        W80675  15.982  28.053  12.027
 9005W        W80676  32.342  37.094   0.355
 9006W        W80677  31.612  35.398  12.255
 9007W        W80678  18.355   0.489   2.915
 9008W        W80679  38.549  13.327   1.292
 9009W        W80680  17.959   0.876   1.800
 9010W        W80681  28.660  12.320  11.092
 9011W        W80682  14.754  37.580  12.521
 9012W        W80683  42.731  13.757  13.370
 9013W        W80684  36.933  21.753   4.390
 9014W        W80685  29.732  33.373   4.511
 9015W        W80686  26.616  13.669   1.407
 9016W        W80687   6.302   0.365   3.676
 9017W        W80688  39.978  12.174   2.947
 9018W        W80689  25.151  21.711  13.487
 9019W        W80690  27.478   6.870   4.150
 9020W        W80691   9.300  21.118   2.372
 9021W        W80692  27.893  24.243   2.406
 9022W        W80693  39.592  17.068   0.874
 9023W        W80694  19.951  24.476   2.750
 9024W        W80695   0.860  17.761   0.422
 9025W        W80696  16.574   8.712   4.162
 9026W        W80697  34.884  11.344  14.716
 9027W        W80698  31.049   2.888   3.555
 9028W        W80699  16.312  15.689  13.566
 9029W        W80700  13.113  10.798   2.621
 9030W        W80701   3.982  42.321  11.086
 9031W        W80702  20.048  19.731  14.444
 9032W        W80703   6.679   0.860   4.736
 9033W        W80704  27.435  15.026   0.675
 9034W        W80705   5.383  44.063   2.985
 9035W        W80706  17.350  38.538  14.500
 9036W        W80707  12.675   3.352  13.624
 9037W        W80708  42.646  16.403  14.724
 9038W        W80709  29.638   0.549  11.658
 9039W        W80710  40.346  41.016  14.939
 9040W        W80711  33.950  27.725   4.048
 9041W        W80712  10.840  27.062   3.050
 9042W        W80713  32.914   7.158  13.584
 9043W        W80714  43.320   3.758  13.861
 9044W        W80715  41.588  32.023   0.536
 9045W        W80716  35.621   3.854  11.002
 9046W        W80717  24.171  16.098   4.511
 9047W        W80718  28.006   6.000  13.091
 9048W        W80719  22.594  32.378  11.154
 9049W        W80720  13.983  13.826   3.295
 9050W        W80721   1.325   1.358  11.127
 9051W        W80722   1.769   3.549  13.577
 9052W        W80723  35.297  37.163  12.912
 9053W        W80724   0.152  12.569  10.349
 9054W        W80725  32.491  12.603   0.679
 9055W        W80726   2.011  16.802   0.999
 9056W        W80727   2.784  27.950   4.162
 9057W        W80728  32.457   7.974   4.509
 9058W        W80729  24.245  22.215   4.090
 9059W        W80730  29.153  22.756   0.434
 9060W        W80731  24.105  11.307   0.761
 9061W        W80732   4.934  27.007   3.543
 9062W        W80733  37.092  22.043  12.871
 9063W        W80734  16.655  16.010   1.194
 9064W        W80735   1.717   1.456  10.712
 9065W        W80736   2.190  15.792  11.319
 9066W        W80737  19.564   0.568   0.849
 9067W        W80738  33.171  36.361  12.109
 9068W        W80739  16.572  40.796   2.158
 9069W        W80740  22.063  24.145   0.527
 9070W        W80741   2.836   6.243   4.764
 9071W        W80742   4.738  20.566   1.968
 9072W        W80743  19.564   7.951  12.532
 9073W        W80744  17.335  33.052   3.802
 9074W        W80745  31.931  20.831   2.036
 9075W        W80746   3.139  29.929   2.763
 9076W        W80747  33.473   1.011   4.720
 9077W        W80748  27.754  16.687   3.153
 9078W        W80749  30.021  11.806   2.372
 9079W        W80750  17.986  14.618  14.425
 9080W        W80751  22.259  20.644  13.830
 9081W        W80752  34.473  39.616  14.799
 9082W        W80753  21.278  28.261  12.870
 9083W        W80754  33.076   3.436   3.770
 9084W        W80755  22.214  43.795   2.339
 9085W        W80756   3.722  20.793   0.819
 9086W        W80757  23.309  36.746  13.477
 9087W        W80758   6.312   4.107  13.011
 9088W        W80759  25.920  13.077   2.328
 9089W        W80760  13.069  25.141   1.820
 9090W        W80761  22.014   0.476   1.373
 9091W        W80762  35.952  21.704  14.267
 9092W        W80763  21.397   1.394  10.346
 9093W        W80764  44.741  10.171  14.492
 9094W        W80765  11.293  17.017  12.928
 9095W        W80766  35.945  19.786   1.894
 9096W        W80767  36.186  10.525   2.763
 9097W        W80768  17.182   8.109   4.063
 9098W        W80769  17.854  28.921   3.842
 9099W        W80770  40.983  21.670   0.486
 9100W        W80771  14.554  14.636   2.755
 9101W        W80772  29.504  14.686  13.113
 9102W        W80773  24.729  28.473   0.423
 9103W        W80774  32.578  43.252  12.895
 9104W        W80775  37.864  26.686  12.407
 9105W        W80776  24.660  30.456  11.182
 9106W        W80777  19.717  30.642  13.261
 9107W        W80778  30.995   1.585   3.911
 9108W        W80779   2.918  24.475   1.386
 9109W        W80780  27.699  25.706   2.395
 9110W        W80781  35.227  41.148   1.570
 9111W        W80782   3.464  37.373  11.606
 9112W        W80783  17.538  43.902   2.797
 9113W        W80784  14.548  26.001   3.601
 9114W        W80785   3.422  17.784   3.238
 9115W        W80786   9.898  34.580  10.552
 9116W        W80787   8.281  41.965   4.999
 9117W        W80788  34.133  30.454  13.388
 9118W        W80789   9.922   6.907   2.853
 9119W        W80790  22.665  40.119   0.145
 9120W        W80791  41.517   6.190  11.180
 9121W        W80792   1.791   5.923   4.067
 9122W        W80793  36.480  20.128  14.240
 9123W        W80794   6.797  37.631   4.042
 9124W        W80795  13.690  34.355   4.808
 9125W        W80796  36.344  31.031   3.203
 9126W        W80797   8.625  39.027   1.720
 9127W        W80798  28.684   4.411   3.862
 9128W        W80799  11.100  22.242  10.818
 9129W        W80800  35.988  42.477   1.934
 9130W        W80801  40.790   6.755   2.783
 9131W        W80802   1.459  22.705   3.094
 9132W        W80803  10.701  26.885   0.314
 9133W        W80804   6.437  25.811  12.533
 9134W        W80805   5.606  16.546  10.400
 9135W        W80806  10.731  35.614  11.961
 9136W        W80807  42.592  44.543   4.616
 9137W        W80808  27.895   9.378  12.934
 9138W        W80809  36.443  32.306  11.884
 9139W        W80810  14.122   4.021   4.372
 9140W        W80811  26.544  21.508   2.167
 9141W        W80812  27.394  34.080   4.354
 9142W        W80813  36.423   1.823  12.994
 9143W        W80814   8.054  30.903   3.707
 9144W        W80815  30.655  34.864  10.627
 9145W        W80816  16.703   1.829   2.834
 9146W        W80817  10.768   4.016   1.453
 9147W        W80818  33.621  41.465  14.946
 9148W        W80819  33.257  41.416  13.492
 9149W        W80820  28.577   5.911   1.208
 9150W        W80821  29.694  10.409  14.429
 9151W        W80822   7.723  10.653  12.862
 9152W        W80823   7.711  31.401   0.856
 9153W        W80824  42.676  39.318  12.531
 9154W        W80825  23.773  29.885  12.350
 9155W        W80826   3.177   3.458   3.079
 9156W        W80827  39.076   4.328   3.935
 9157W        W80828   1.401   1.189  11.599
 9158W        W80829   4.981  11.860  14.377
 9159W        W80830  36.119  11.416   2.230
 9160W        W80831   0.845  36.809  13.095
 9161W        W80832  36.662  22.804  14.787
 9162W        W80833  17.519   3.108  12.641
 9163W        W80834  44.550   2.691  14.252
 9164W        W80835  39.039  14.642   4.657
 9165W        W80836  19.077  43.477  11.514
 9166W        W80837   0.242  27.215  12.188
 9167W        W80838  28.589  44.912   3.769
 9168W        W80839  16.217  36.158  12.145
 9169W        W80840   9.197  33.426   2.189
 9170W        W80841  32.566  41.316   1.448
 9171W        W80842  10.309  28.559  11.176
 9172W        W80843  26.893  36.313  13.510
 9173W        W80844  32.991   3.349  14.907
 9174W        W80845  24.128  44.870   3.233
 9175W        W80846  39.505   9.149  11.743
 9176W        W80847  29.737  35.646   1.216
 9177W        W80848  41.257  39.112  12.500
 9178W        W80849   6.256  10.918  13.081
 9179W        W80850  30.648  40.484   2.871
 9180W        W80851   0.205  31.979   3.830
 9181W        W80852  19.157  34.319  11.149
 9182W        W80853  13.108   5.541  12.504
 9183W        W80854  18.769  14.509   2.299
 9184W        W80855   2.970  19.555   3.312
 9185W        W80856  19.337  24.153  13.050
 9186W        W80857  21.337  24.714   3.377
 9187W        W80858   4.036  32.349  12.028
 9188W        W80859  32.022   7.305  12.412
 9189W        W80860   4.294  41.334  14.892
 9190W        W80861  22.536   9.635   4.609
 9191W        W80862   6.563   1.567   0.411
 9192W        W80863  34.932  15.307   0.155
 9193W        W80864  30.908  33.139  13.815
 9194W        W80865   6.888  20.978   1.905
 9195W        W80866  25.102  26.055  13.694
 9196W        W80867  39.369  26.120  11.800
 9197W        W80868  21.111  42.098  10.638
 9198W        W80869  22.119  30.528  14.455
 9199W        W80870  38.369   0.692  13.090
 9200W        W80871  37.449  37.668   5.461
 9201W        W80872  17.026   6.107   4.143
 9202W        W80873  30.715  36.613  10.711
 9203W        W80874  25.974   8.871   5.234
 9204W        W80875  13.835  39.992  10.507
 9205W        W80876  39.785  44.695   2.773
 9206W        W80877   0.239   5.778   4.727
 9207W        W80878  40.417  21.744   1.238
 9208W        W80879  26.197  21.444  11.625
 9209W        W80880  18.646   3.178  13.242
 9210W        W80881  42.809  39.878   2.735
 9211W        W80882  34.098  42.481  12.128
 9212W        W80883  11.324   4.263   4.164
 9213W        W80884  29.005  41.338   2.632
 9214W        W80885  23.487  38.004  11.564
 9215W        W80886  19.376   6.382  12.821
 9216W        W80887  17.449  10.138   4.556
 9217W        W80888  11.025  22.669  12.891
 9218W        W80889  31.658   3.131  12.090
 9219W        W80890  16.665  31.896  13.796
 9220W        W80891  40.814   1.116  11.860
 9221W        W80892  21.294   9.780   3.379
 9222W        W80893  16.643  29.267   2.481
 9223W        W80894   1.684  29.917   3.690
 9224W        W80895   2.187  23.334   4.489
 9225W        W80896  34.923  26.519   3.068
 9226W        W80897  39.085  26.009  14.465
 9227W        W80898  36.145  28.369  12.088
 9228W        W80899  30.075  25.290   4.183
 9229W        W80900  43.878   1.513   4.377
 9230W        W80901  16.975  34.854   0.879
 9231W        W80902   5.844  10.935  14.308
 9232W        W80903  14.562  10.291   2.495
 9233W        W80904  23.966  10.907   4.777
 9234W        W80905  31.585  37.895  11.546
 9235W        W80906  22.654  19.235   3.163
 9236W        W80907  43.953  44.511  11.976
 9237W        W80908   9.211   7.205   5.251
 9238W        W80909  14.546  37.453   3.697
 9239W        W80910  38.719  34.240  14.071
 9240W        W80911   4.733  33.574  12.441
 9241W        W80912  25.219  37.463   3.288
 9242W        W80913  23.700  26.658   4.559
 9243W        W80914  14.113  27.622  12.351
 9244W        W80915   4.859  29.138  14.767
 9245W        W80916  15.157  41.764  12.279
 9246W        W80917  25.037  15.520  14.717
 9247W        W80918  33.539   1.871   5.063
 9248W        W80919   0.452   6.476   2.873
 9249W        W80920  39.237  15.590  13.301
 9250W        W80921  29.402  19.893  14.109
 9251W        W80922  13.715   4.610  11.512
 9252W        W80923  34.940  22.794   4.263
 9253W        W80924  19.635  30.995   3.021
 9254W        W80925  13.433  26.026   2.173
 9255W        W80926  26.549  20.835   2.761
 9256W        W80927   1.428  37.817   0.859
 9257W        W80928   4.375  38.969   4.924
 9258W        W80929  40.536  25.205  13.626
 9259W        W80930  20.527   1.233   3.986
 9260W        W80931  41.899  22.988   1.724
 9261W        W80932   7.839  31.201   4.061
 9262W        W80933   4.909  27.687  13.864
 9263W        W80934   2.966  42.264   4.761
 9264W        W80935  23.115  35.535   0.302
 9265W        W80936  10.611  37.529   4.577
 9266W        W80937  31.061  18.852   3.866
 9267W        W80938  33.233  35.656  11.365
 9268W        W80939  43.899  28.957  13.460
 9269W        W80940  39.904  41.760   0.801
 9270W        W80941   2.112  21.210  11.139
 9271W        W80942  10.814  12.759   2.339
 9272W        W80943  43.361   5.938   0.586
 9273W        W80944   2.388  34.545  14.059
 9274W        W80945  39.410  17.279   1.813
 9275W        W80946  27.989  15.564  14.428
 9276W        W80947  12.105   2.248  13.469
 9277W        W80948   5.947   2.862  12.141
 9278W        W80949  39.488  12.856  10.436
 9279W        W80950  22.536  25.836   2.802
 9280W        W80951   7.677   4.228  13.222
 9281W        W80952  30.985  13.681  13.503
 9282W        W80953   3.231  33.012  13.788
 9283W        W80954  25.749  22.130   2.106
 9284W        W80955  10.809   9.370  13.039
 9285W        W80956  25.497   8.182  14.926
 9286W        W80957   1.835  40.536   0.315
 9287W        W80958  16.793  23.265  13.461
 9288W        W80959   8.355  41.480   1.225
 9289W        W80960  21.392   6.711  12.918
 9290W        W80961  19.958   8.900  12.544
 9291W        W80962  32.611  41.804  14.304
 9292W        W80963  40.731  20.405   3.306
 9293W        W80964  17.591  42.396   0.263
 9294W        W80965  22.928   6.542   1.199
 9295W        W80966  30.127  29.640  14.113
 9296W        W80967   1.696  19.395   3.663
 9297W        W80968  41.858  15.842  14.314
 9298W        W80969  15.688  13.153   4.656
 9299W        W80970  28.895   6.882  13.155
 9300W        W80971  11.409   4.050   2.760
 9301W        W80972  42.769  23.585  13.967
 9302W        W80973   4.984  44.583   0.343
 9303W        W80974  37.128   7.688   2.681
 9304W        W80975  13.829  12.621   1.843
 9305W        W80976  32.633  32.435  11.488
 9306W        W80977  31.480  27.473  11.343
 9307W        W80978   0.705  21.587  14.490
 9308W        W80979   1.976   6.719   0.619
 9309W        W80980   3.386  44.650   2.784
 9310W        W80981  14.103  44.770  13.332
 9311W        W80982  13.351   0.990  11.953
 9312W        W80983  16.573  21.528   3.405
 9313W        W80984  33.923  22.807  11.018
 9314W        W80985  38.985  32.080  13.338
 9315W        W80986  43.275   3.413  10.084
 9316W        W80987  25.527   1.199  12.608
 9317W        W80988  38.468   1.021   3.615
 9318W        W80989  12.544  33.534   3.163
 9319W        W80990  28.890  42.504   0.147
 9320W        W80991  34.850   7.113  11.255
 9321W        W80992  12.477   1.394  14.310
 9322W        W80993   2.820  15.730   0.941
 9323W        W80994  35.830   8.888   3.261
 9324W        W80995  42.922   9.475   3.813
 9325W        W80996  37.490  17.981   3.409
 9326W        W80997  32.390  17.348  13.377
 9327W        W80998   2.816  24.626  10.685
 9328W        W80999   7.780   3.032  12.957
 9329W        W81000  12.810  43.436   1.663
 9330W        W81001  25.909  18.233   0.907
 9331W        W81002  24.319  31.526   2.813
 9332W        W81003  38.945   2.344   0.363
 9333W        W81004  20.979  24.680  10.660
 9334W        W81005   0.768  31.554   0.231
 9335W        W81006  12.876   9.262  12.341
 9336W        W81007  14.381  12.211  13.880
 9337W        W81008  23.310  37.385   2.799
 9338W        W81009  24.664  36.180   3.249
 9339W        W81010   1.166  14.548  11.716
 9340W        W81011  17.603  33.677  14.445
 9341W        W81012  16.051  22.571  14.611
 9342W        W81013  39.738  28.917   1.921
 9343W        W81014  43.877  40.650   4.575
 9344W        W81015  24.256  34.516   0.369
 9345W        W81016   3.111  44.167   5.059
 9346W        W81017  44.728  18.859   0.649
 9347W        W81018  15.797  28.320  14.239
 9348W        W81019   4.732  24.142  11.441
 9349W        W81020   3.305  41.585  11.976
 9350W        W81021  36.151  21.630  11.594
 9351W        W81022   8.253  13.874  11.012
 9352W        W81023  15.171  41.442   0.759
 9353W        W81024  21.961  25.686  11.749
 9354W        W81025   2.633  30.626  13.431
 9355W        W81026   3.707  31.082  10.585
 9356W        W81027  37.821   5.134  14.811
 9357W        W81028  14.449  21.823  11.084
 9358W        W81029   2.236  11.305   4.455
 9359W        W81030  12.316  21.216   0.921
 9360W        W81031  13.822  25.996   3.257
 9361W        W81032  39.587  22.508  14.348
 9362W        W81033   2.927  10.707  10.708
 9363W        W81034  18.082  33.671  14.002
 9364W        W81035  33.178  32.661   0.397
 9365W        W81036  36.541  15.181   2.881
 9366W        W81037  29.319   8.711  13.663
 9367W        W81038  36.043  32.090  13.081
 9368W        W81039  19.849  24.223  10.601
 9369W        W81040  31.150  21.207  12.892
 9370W        W81041  28.760   7.389  12.952
 9371W        W81042  41.371  43.078   4.928
 9372W        W81043  16.251  39.537  14.566
 9373W        W81044  14.684  27.907  12.202
 9374W        W81045  10.677   4.915  12.897
 9375W        W81046   0.343   2.446  14.555
 9376W        W81047  25.778  11.180  10.934
 9377W        W81048  14.247  18.041   2.019
 9378W        W81049  32.521  33.818  11.387
 9379W        W81050  43.952  27.777   4.033
 9380W        W81051   4.514   2.880  14.884
 9381W        W81052  16.405  36.736   1.770
 9382W        W81053   6.684  14.426  12.222
 9383W        W81054  42.392  26.407  12.966
 9384W        W81055  19.180   5.753   3.325
 9385W        W81056   2.505  20.121  11.944
 9386W        W81057  34.677  31.425  14.818
 9387W        W81058  33.100  11.435  11.062
 9388W        W81059  40.054   7.390  11.514
 9389W        W81060  10.509   5.830   0.825
 9390W        W81061  38.436  13.524   3.736
 9391W        W81062  33.350  22.242   0.989
 9392W        W81063  12.428  35.430  11.803
 9393W        W81064  17.825  31.019   4.238
 9394W        W81065   1.365   7.696  13.363
 9395W        W81066  34.548  15.355   1.874
 9396W        W81067   5.960   8.950   4.741
 9397W        W81068  28.933  44.475  12.034
 9398W        W81069   4.889  13.657  12.550
 9399W        W81070  18.984  19.721   4.542
 9400W        W81071  14.402  16.682  11.329
 9401W        W81072  17.011  42.848  13.064
 9402W        W81073  14.606  32.701  13.999
 9403W        W81074   9.845  16.356  12.092
 9404W        W81075  23.609   0.328   1.189
 9405W        W81076  20.220   7.200   3.239
 9406W        W81077  27.026  24.988   4.799
 9407W        W81078  12.147  29.455   1.852
 9408W        W81079   5.858   8.651  14.144
 9409W        W81080  25.523  36.149   1.419
 9410W        W81081   4.292  39.904  13.889
 9411W        W81082  13.105   2.807   4.156
 9412W        W81083  42.946  11.354  10.626
 9413W        W81084   2.488  33.509   2.233
 9414W        W81085  14.618   1.914   4.599
 9415W        W81086  38.479  14.145   0.381
 9416W        W81087  17.323   5.213  11.417
 9417W        W81088  28.510  29.211   1.563
 9418W        W81089  27.664  42.594  11.037
 9419W        W81090  24.578  17.605   1.971
 9420W        W81091  19.695  23.185   5.102
 9421W        W81092  31.068  20.209  14.308
 9422W        W81093   7.196  22.914  11.525
 9423W        W81094   6.310  20.491  14.377
 9424W        W81095   6.185  18.636   1.403
 9425W        W81096  25.660   5.751  13.354
 9426W        W81097   5.286  41.900   1.711
 9427W        W81098  10.155   6.211   0.344
 9428W        W81099  23.732  32.015  11.665
 9429W        W81100   2.673  13.272  12.331
 9430W        W81101  43.296  31.883  14.226
 9431W        W81102  26.261   8.651  11.496
 9432W        W81103   2.819  23.828   0.272
 9433W        W81104  13.218   5.290  13.952
 9434W        W81105  40.555  21.993  14.577
 9435W        W81106  37.934  40.073  13.842
 9436W        W81107  18.613  35.106  12.879
 9437W        W81108  27.005  27.564  10.631
 9438W        W81109  41.830  38.297  11.652
 9439W        W81110  26.652   2.104  12.338
 9440W        W81111  18.022  35.422  10.769
 9441W        W81112   6.064   2.436   4.052
 9442W        W81113  39.339  44.923   0.764
 9443W        W81114   0.419  11.117   3.226
 9444W        W81115   1.764  44.360  11.626
 9445W        W81116  38.343  41.273   1.424
 9446W        W81117  23.739  20.972   4.574
 9447W        W81118  40.751   4.838  12.944
 9448W        W81119  19.622   5.447   0.862
 9449W        W81120  39.527   8.803   1.513
 9450W        W81121  29.643  43.013  12.888
 9451W        W81122  28.504  10.743  12.513
 9452W        W81123   0.160  18.556   1.457
 9453W        W81124  38.794  44.775  11.953
 9454W        W81125  18.091   5.294  12.850
 9455W        W81126   5.369  16.704  12.135
 9456W        W81127  35.598  43.054   2.323
 9457W        W81128  40.527   2.036  14.720
 9458W        W81129   7.942   7.961   4.560
 9459W        W81130  16.033  23.409  11.929
 9460W        W81131  35.196  34.030   0.754
 9461W        W81132   9.065  24.414   3.157
 9462W        W81133  33.153  22.873  14.764
 9463W        W81134  34.341  26.005   1.360
 9464W        W81135  25.538   1.266  13.103
 9465W        W81136   8.514  16.578   0.270
 9466W        W81137  31.838   9.162  12.495
 9467W        W81138   8.400   4.333  13.053
 9468W        W81139  11.778  37.022   4.892
 9469W        W81140  18.243  42.577  13.502
 9470W        W81141  33.780   0.938   3.872
 9471W        W81142  41.034  37.518   2.833
 9472W        W81143  26.496  23.615  12.876
 9473W        W81144  39.099  23.778  13.442
 9474W        W81145  22.343  39.229   1.285
 9475W        W81146   3.274   7.922  10.640
 9476W        W81147   9.339  13.240  13.049
 9477W        W81148   2.568   3.386   4.500
 9478W        W81149  33.063  39.410  11.362
 9479W        W81150  19.956   0.220   1.168
 9480W        W81151  16.249  37.930  13.840
 9481W        W81152  20.465  24.031  14.818
 9482W        W81153  38.327  13.909   2.825
 9483W        W81154  31.033  23.083   3.594
 9484W        W81155  19.831  14.857   1.809
 9485W        W81156   9.161  14.620  14.879
 9486W        W81157  23.184  42.019  12.953
 9487W        W81158  24.537  18.247  11.511
 9488W        W81159   4.186  16.811  12.117
 9489W        W81160   0.925  43.136  10.511
 9490W        W81161  34.286   8.359  13.080
 9491W        W81162  33.960  38.336  10.586
 9492W        W81163  18.873  25.487   3.110
 9493W        W81164  20.625  36.458  14.795
 9494W        W81165  20.747  28.690  11.903
 9495W        W81166  29.690   7.372   4.637
 9496W        W81167   7.914  35.724  14.695
 9497W        W81168   9.124   3.922  11.278
 9498W        W81169  17.834  43.966  12.151
 9499W        W81170  21.035  35.866   0.378
 9500W        W81171  15.476  44.066  14.318
 9501W        W81172  40.472  13.444   0.761
 9502W        W81173  33.606  33.540   1.767
 9503W        W81174  22.563  18.218   0.532
 9504W        W81175  25.609   9.862   4.106
 9505W        W81176  35.512  12.893   2.353
 9506W        W81177   0.014  29.540   4.407
 9507W        W81178   6.318  17.232   5.063
 9508W        W81179  16.324  17.960  11.111
 9509W        W81180  17.053  23.907  12.864
 9510W        W81181  31.589  28.555   0.848
 9511W        W81182  20.050   8.248   1.266
 9512W        W81183  15.095   6.615  12.509
 9513W        W81184  37.439  18.238  11.564
 9514W        W81185  43.388  30.134   4.119
 9515W        W81186  33.507   4.419   0.604
 9516W        W81187  25.701  18.211   4.123
 9517W        W81188   5.675  37.085   4.699
 9518W        W81189  33.863  14.996   3.483
 9519W        W81190  10.912   5.455  14.926
 9520W        W81191  29.697  36.449   0.568
 9521W        W81192   8.171   6.540   2.171
 9522W        W81193  41.369  38.142  14.358
 9523W        W81194  29.466  43.550   3.238
 9524W        W81195  17.243  30.996  12.824
 9525W        W81196  32.862  41.913  11.039
 9526W        W81197   9.073   0.954   4.103
 9527W        W81198   2.394  17.537  14.922
 9528W        W81199  19.701  19.559  14.803
 9529W        W81200  17.256  40.872  14.779
 9530W        W81201  11.129  33.629   1.419
 9531W        W81202  12.296  18.028  13.541
 9532W        W81203   8.390  39.560  12.220
 9533W        W81204   0.533  37.097  14.362
 9534W        W81205  33.906  39.753   1.276
 9535W        W81206  20.763   5.756  10.703
 9536W        W81207  40.796  25.567   1.125
 9537W        W81208   8.398  25.068   4.090
 9538W        W81209   0.457   1.449  11.249
 9539W        W81210  23.205  36.183  14.889
 9540W        W81211  28.515  42.854   5.109
 9541W        W81212  37.577  37.450   3.150
 9542W        W81213  12.307  31.544   2.733
 9543W        W81214  23.977  42.859   3.467
 9544W        W81215  37.846   4.289  10.690
 9545W        W81216  30.936   3.447  10.616
 9546W        W81217  14.210  28.594   1.431
 9547W        W81218   0.910   8.029  12.585
 9548W        W81219  18.115   8.285  14.413
 9549W        W81220  14.318  10.190   3.795
 9550W        W81221   0.289  31.905   2.673
 9551W        W81222  32.046  27.025   2.217
 9552W        W81223  19.004  39.097  10.413
 9553W        W81224  32.651   4.903  12.405
 9554W        W81225   4.205   9.318   1.345
 9555W        W81226   6.849  27.115   3.855
 9556W        W81227  30.634   3.785   2.690
 9557W        W81228  15.680  32.575   3.780
 9558W        W81229  16.998  29.586   1.290
 9559W        W81230   3.906   3.941  11.543
 9560W        W81231  42.818  12.769  14.371
 9561W        W81232   1.015  18.961  10.535
 9562W        W81233  10.844   4.922   2.816
 9563W        W81234  29.312  36.984  12.072
 9564W        W81235  15.110  10.831  10.446
 9565W        W81236  23.022   1.937  14.095
 9566W        W81237   1.235  31.622  12.737
 9567W        W81238  39.308  20.933   2.136
 9568W        W81239   3.418  17.282  13.761
 9569W        W81240   8.749  32.870  14.854
 9570W        W81241   2.694  28.777   1.259
 9571W        W81242  16.621  22.105   4.079
 9572W        W81243  12.125  25.301   2.183
 9573W        W81244  27.599  20.486   1.732
 9574W        W81245  19.821  44.686  11.121
 9575W        W81246  30.810  41.742  11.231
 9576W        W81247   4.971  21.868  12.313
 9577W        W81248   4.778   7.387  11.661
 9578W        W81249  10.922  29.936   4.066
 9579W        W81250   2.968  12.593   4.259
 9580W        W81251  39.086   1.933   1.897
 9581W        W81252  25.089  24.938  12.982
 9582W        W81253   6.209  18.989   3.124
 9583W        W81254  26.046  19.487  12.087
 9584W        W81255  36.131   3.763   0.223
 9585W        W81256  18.991   7.852   3.578
 9586W        W81257  11.337  38.042  14.994
 9587W        W81258   8.792  27.526  11.751
 9588W        W81259   4.553   7.405   4.044
 9589W        W81260  28.543  17.117  13.321
 9590W        W81261  20.241  31.384   4.164
 9591W        W81262   4.008  32.567   4.119
 9592W        W81263  18.341  27.543   3.295
 9593W        W81264  21.471  21.947  11.273
 9594W        W81265  17.816  21.773  11.914
 9595W        W81266  21.536   7.761   0.291
 9596W        W81267  43.608  34.415  13.302
 9597W        W81268  33.507  29.022  14.849
 9598W        W81269  43.218  25.494  11.137
 9599W        W81270  12.823  32.162  11.526
 9600W        W81271  16.716  22.919  11.599
 9601W        W81272  34.976  13.392   4.604
 9602W        W81273   7.317  38.329   2.185
 9603W        W81274  16.903  26.745   2.205
 9604W        W81275  33.177   0.454   2.942
 9605W        W81276  13.330  17.703   2.326
 9606W        W81277  25.515  21.866  10.714
 9607W        W81278  41.412  28.566   2.146
 9608W        W81279  42.800  31.837   2.367
 9609W        W81280   9.686  41.092   2.881
 9610W        W81281   6.861  36.279   1.643
 9611W        W81282   0.903   7.769  11.917
 9612W        W81283  33.914  12.880  12.341
 9613W        W81284  40.763  23.300  12.194
 9614W        W81285   9.668   8.119  14.610
 9615W        W81286  22.152  41.329  13.416
 9616W        W81287  34.543  37.360   2.239
 9617W        W81288  29.589  23.300  11.954
 9618W        W81289  16.567  37.761   2.150
 9619W        W81290  23.537  18.362  11.611
 9620W        W81291  26.802   8.156  11.967
 9621W        W81292   3.208  15.785  14.970
 9622W        W81293  22.631   2.924   1.461
 9623W        W81294  22.490   3.307   5.041
 9624W        W81295  42.032   2.971  10.755
 9625W        W81296   7.646  38.430   3.309
 9626W        W81297   5.335  20.202  12.167
 9627W        W81298  30.934  37.987   0.540
 9628W        W81299  34.819   6.427   1.409
 9629W        W81300  24.542  44.364  13.570
 9630W        W81301  44.272  14.061   2.903
 9631W        W81302   0.065  27.441   1.930
 9632W        W81303  25.184  42.234  12.971
 9633W        W81304   6.702  11.168  13.290
 9634W        W81305   6.379  25.294  12.556
 9635W        W81306  11.269  20.577  11.855
 9636W        W81307  18.245  43.073  12.490
 9637W        W81308  31.853  41.274  11.288
 9638W        W81309   2.989  18.523   0.875
 9639W        W81310  24.375  37.581   0.403
 9640W        W81311  19.716  29.799  11.748
 9641W        W81312  12.747  17.122   0.429
 9642W        W81313  18.065  31.576   1.799
 9643W        W81314  40.886  22.264   3.624
 9644W        W81315  23.611  14.360  12.675
 9645W        W81316  42.336  42.313   1.849
 9646W        W81317  14.756  33.018  11.005
 9647W        W81318   6.942  39.054   0.831
 9648W        W81319  32.483  17.574   1.635
 9649W        W81320  42.953  26.558   2.264
 9650W        W81321  34.913  20.681   0.371
 9651W        W81322  15.129  40.446   0.818
 9652W        W81323   5.240  23.660  10.491
 9653W        W81324  35.041  28.868  10.975
 9654W        W81325  35.071  13.245  14.639
 9655W        W81326  29.972   2.777   3.220
 9656W        W81327  43.950  10.168   4.412
 9657W        W81328  29.969  18.862  10.660
 9658W        W81329   3.423   5.887   3.258
 9659W        W81330  43.537  28.487   0.424
 9660W        W81331  24.523  40.760  11.123
 9661W        W81332  43.187  18.169   1.723
 9662W        W81333  11.902  38.319   0.897
 9663W        W81334  15.856   6.686   3.308
 9664W        W81335   9.289  13.610   1.202
 9665W        W81336  44.222  37.795  11.386
 9666W        W81337  15.306   9.858  12.418
 9667W        W81338  15.127  15.209  13.213
 9668W        W81339  25.160  38.411   4.609
 9669W        W81340  21.950   9.375  10.697
 9670W        W81341  18.108   2.748  14.765
 9671W        W81342   5.391  26.075   0.876
 9672W        W81343  38.814  32.735  10.606
 9673W        W81344   8.705  31.352  13.109
 9674W        W81345  40.227  29.350  13.033
 9675W        W81346  43.976   7.855   2.749
 9676W        W81347  16.823   8.805   0.120
 9677W        W81348  16.285  22.497  12.588
 9678W        W81349  20.963  10.750   2.698
 9679W        W81350   4.620  38.293  14.809
 9680W        W81351  18.848   7.187  11.532
 9681W        W81352  10.890  22.343   4.037
 9682W        W81353  36.375  23.086  12.050
 9683W        W81354  22.730  39.018  11.900
 9684W        W81355   3.766  32.538   4.581
 9685W        W81356   3.438  15.174  13.504
 9686W        W81357  16.127  10.899   4.424
 9687W        W81358  30.909   4.365   1.831
 9688W        W81359  11.351  40.599   2.292
 9689W        W81360  14.919  10.762  14.386
 9690W        W81361  38.067   7.334   4.115
 9691W        W81362  36.314  28.746   1.408
 9692W        W81363  13.078  13.970   2.772
 9693W        W81364  18.848  37.636  12.032
 9694W        W81365  44.871  39.849  14.461
 9695W        W81366  27.266   0.331   3.969
 9696W        W81367   7.781   9.782   3.618
 9697W        W81368  42.143   3.474  13.614
 9698W        W81369  43.724   8.730  13.994
 9699W        W81370  42.833  15.271  10.732
 9700W        W81371  35.741  44.447   3.075
 9701W        W81372  36.041  42.868  14.847
 9702W        W81373  19.866   8.779   2.844
 9703W        W81374  41.854  13.315   0.350
 9704W        W81375  12.136  38.945  13.816
 9705W        W81376  32.818   7.841   2.264
 9706W        W81377  32.417  16.687  12.675
 9707W        W81378  18.252  15.156   0.914
 9708W        W81379  16.370  43.228  14.989
 9709W        W81380   3.878  12.624  14.250
 9710W        W81381   0.852  38.789   1.356
 9711W        W81382  34.056  13.807   3.235
 9712W        W81383  32.444  20.100  11.173
 9713W        W81384  41.730   9.228  14.509
 9714W        W81385  17.558  18.309  11.896
 9715W        W81386  10.574  18.126  12.557
 9716W        W81387  14.348  26.581  13.137
 9717W        W81388  20.018  43.819   0.492
 9718W        W81389   3.802  21.669   4.653
 9719W        W81390  14.424   1.147  11.178
 9720W        W81391  32.325  21.438   4.580
 9721W        W81392  37.941   2.672  12.923
 9722W        W81393  13.921  12.914  11.270
 9723W        W81394  27.437   5.446   3.594
 9724W        W81395   3.245  25.626  13.041
 9725W        W81396  39.060   6.035   0.763
 9726W        W81397  37.517  11.517   1.893
 9727W        W81398  22.513   4.343  14.503
 9728W        W81399  27.045  12.220  13.465
 9729W        W81400  24.681   5.010   3.828
 9730W        W81401   2.444  41.702   4.338
 9731W        W81402  31.849  35.448   3.165
 9732W        W81403  23.179   5.964   3.775
 9733W        W81404   7.408  25.514   0.698
 9734W        W81405  21.255   4.326  10.740
 9735W        W81406  12.764  23.569  14.026
 9736W        W81407  11.066  18.521   1.600
 9737W        W81408  34.879  37.822  11.860
 9738W        W81409  24.531  26.558  14.376
 9739W        W81410   2.079  33.949  11.777
 9740W        W81411   6.198  44.437  14.207
 9741W        W81412   7.223  43.806  13.404
 9742W        W81413  43.310  38.545   0.345
 9743W        W81414  19.032  42.588   3.231
 9744W        W81415  26.195  43.481   1.949
 9745W        W81416  28.516  18.744   0.973
 9746W        W81417  44.563   4.023  11.198
 9747W        W81418  12.002  11.924  14.031
 9748W        W81419  38.945  28.728  12.962
 9749W        W81420  17.312  42.084  14.115
 9750W        W81421  21.251  34.901   2.508
 9751W        W81422  26.047  26.988   1.338
 9752W        W81423  27.704  12.691  10.313
 9753W        W81424  15.680   6.857  10.277
 9754W        W81425  34.006  19.844  10.715
 9755W        W81426  41.190  30.901   3.813
 9756W        W81427   2.194  21.006  14.913
 9757W        W81428  13.279  21.781  14.728
 9758W        W81429  26.877   9.828   0.928
 9759W        W81430  26.984  10.616   3.380
 9760W        W81431  34.160  33.940   3.155
 9761W        W81432  14.327  41.792  12.117
 9762W        W81433  41.957  37.490   0.972
 9763W        W81434   2.518  24.298  11.495
 9764W        W81435  27.576  20.789  12.886
 9765W        W81436  36.949  15.072   5.058
 9766W        W81437  43.257  27.044   3.890
 9767W        W81438   5.507   3.421   2.580
 9768W        W81439   7.549  19.666   4.986
 9769W        W81440  13.207  36.322   2.611
 9770W        W81441  36.050  36.471   3.245
 9771W        W81442  27.090  38.134  12.429
 9772W        W81443  19.687  32.801   3.212
 9773W        W81444  31.289  43.893  10.758
 9774W        W81445  20.239  38.760  11.042
 9775W        W81446  20.780  15.085  11.168
 9776W        W81447  44.782  10.664  11.047
 9777W        W81448  17.986   0.829   3.806
 9778W        W81449  31.083  28.740   0.020
 9779W        W81450  24.885  41.114  12.534
 9780W        W81451  27.671  32.392  12.100
 9781W        W81452   1.656   9.072  11.987
 9782W        W81453  38.103   3.839   0.944
 9783W        W81454  33.526  17.201   4.498
 9784W        W81455   9.702   2.038  14.868
 9785W        W81456  37.406  38.918   4.381
 9786W        W81457  21.185  14.707  11.372
 9787W        W81458  14.068  12.297   0.898
 9788W        W81459  40.459   5.413  12.914
 9789W        W81460   1.667  28.409   3.911
 9790W        W81461   7.650  36.344   2.119
 9791W        W81462   9.328   0.736  11.961
 9792W        W81463  21.228  25.264   1.845
 9793W        W81464  32.378  35.341  14.496
 9794W        W81465  35.776   7.553  12.262
 9795W        W81466  12.347   3.146  10.229
 9796W        W81467  44.489  19.608   2.865
 9797W        W81468  12.084  27.555   0.412
 9798W        W81469  32.969  14.091  13.416
 9799W        W81470  10.383  31.721   0.386
 9800W        W81471  38.932  28.228  13.028
 9801W        W81472  18.354  27.979   4.947
 9802W        W81473  17.520  33.222  11.484
 9803W        W81474  13.678  22.966  13.109
 9804W        W81475  17.767  24.666   0.836
 9805W        W81476  13.139  42.399  13.923
 9806W        W81477  29.268  21.141  13.974
 9807W        W81478  10.847  26.667  12.365
 9808W        W81479  25.212   0.850  12.374
 9809W        W81480  28.144  41.432  11.992
 9810W        W81481  41.017  13.703   3.585
 9811W        W81482   8.409   1.264  12.114
 9812W        W81483  29.108  16.889   2.597
 9813W        W81484  31.988  18.738   1.442
 9814W        W81485  32.553  42.569   0.082
 9815W        W81486   2.417  35.211  10.788
 9816W        W81487   5.774  23.307  12.557
 9817W        W81488  37.613  12.881  11.545
 9818W        W81489  22.537  13.065   4.343
 9819W        W81490   0.342  16.607   3.593
 9820W        W81491  29.030   0.473  14.563
 9821W        W81492  40.020  16.599   1.049
 9822W        W81493   8.283  42.579  11.551
 9823W        W81494  10.202  25.771   1.732
 9824W        W81495   7.778  20.185   1.005
 9825W        W81496  36.917  21.187  13.595
 9826W        W81497  32.379  32.484  11.984
 9827W        W81498   2.184  33.720   1.892
 9828W        W81499  43.730  31.927   2.303
 9829W        W81500  19.130  25.299  11.801
 9830W        W81501   0.647   0.504   3.123
 9831W        W81502  16.571  23.005  13.864
 9832W        W81503   5.774  10.557   1.843
 9833W        W81504  23.635  34.275   3.850
 9834W        W81505  41.827  40.534   0.992
 9835W        W81506  11.206  36.478  12.245
 9836W        W81507  40.002   1.629  10.694
 9837W        W81508  20.454  31.868   1.010
 9838W        W81509  19.589  10.193  12.783
 9839W        W81510  20.273  14.687   0.017
 9840W        W81511  25.411  39.773  11.604
 9841W        W81512   0.345  28.937  13.505
 9842W        W81513  31.862  15.749  12.650
 9843W        W81514  29.967   6.720   5.000
 9844W        W81515  23.156  26.914  13.484
 9845W        W81516  30.516  40.800  14.817
 9846W        W81517  16.034  43.276   4.208
 9847W        W81518  12.302  31.137  14.532
 9848W        W81519  21.715  38.076   1.819
 9849W        W81520  10.625  13.221  10.514
 9850W        W81521  27.061  15.512   0.919
 9851W        W81522  34.613  13.624  14.003
 9852W        W81523  24.316  31.635   3.621
 9853W        W81524  32.516  26.113  14.935
 9854W        W81525  26.381  27.188   0.989
 9855W        W81526  34.816  30.021   1.298
 9856W        W81527  35.878  36.560  11.551
 9857W        W81528   0.885  26.293  13.515
 9858W        W81529  28.462  15.147   0.894
 9859W        W81530  17.953   8.520   1.670
 9860W        W81531  22.703  17.724   2.191
 9861W        W81532  29.874  25.990  11.015
 9862W        W81533   0.218  23.309   5.111
 9863W        W81534   4.759  33.429   5.069
 9864W        W81535  43.915  29.603  12.388
 9865W        W81536  29.043  38.630  12.573
 9866W        W81537  29.204  20.763   2.723
 9867W        W81538  18.034   4.503  11.168
 9868W        W81539  10.377   6.668   2.698
 9869W        W81540  36.136  24.391  12.849
 9870W        W81541  34.074  30.697  11.074
 9871W        W81542  10.657  16.134  12.430
 9872W        W81543  32.544  40.589  12.049
 9873W        W81544  23.015  27.161   2.400
 9874W        W81545   0.862   6.381   4.273
 9875W        W81546  38.735  33.490  12.453
 9876W        W81547  33.398  40.243   0.445
 9877W        W81548  28.170  21.611  10.640
 9878W        W81549   9.998  26.590  10.668
 9879W        W81550  38.128   4.341  13.447
 9880W        W81551   3.309  41.565  13.092
 9881W        W81552   2.726  21.785  11.988
 9882W        W81553   5.998   9.575   4.095
 9883W        W81554  24.196  42.122  13.807
 9884W        W81555   3.703  43.809  11.485
 9885W        W81556  22.205   8.575   4.053
 9886W        W81557  44.255  14.087   3.415
 9887W        W81558  44.180  19.795   2.468
 9888W        W81559  21.721  26.198  13.448
 9889W        W81560  44.506  38.377  14.455
 9890W        W81561  38.334  11.116   2.218
 9891W        W81562  40.993  17.132  11.592
 9892W        W81563  29.969  23.652  11.529
 9893W        W81564   2.167   1.800  12.883
 9894W        W81565  13.345  21.251   3.789
 9895W        W81566  35.973  18.881  12.979
 9896W        W81567  33.767   8.183  13.101
 9897W        W81568  16.585  39.216   2.425
 9898W        W81569  19.583  21.530   1.361
 9899W        W81570  44.007  29.604  14.251
 9900W        W81571  29.578  28.197   3.187
 9901W        W81572  14.790   5.268  11.228
 9902W        W81573  24.074  27.172  12.192
 9903W        W81574  41.904  29.250  13.326
 9904W        W81575  14.042  27.219  12.059
 9905W        W81576  13.110   6.453   1.511
 9906W        W81577  17.769  24.433   4.490
 9907W        W81578  40.636   1.624   1.238
 9908W        W81579  11.496  38.999  11.494
 9909W        W81580   1.132  22.653   9.713
 9910W        W81581  23.623   5.197  12.462
 9911W        W81582   7.832  26.953   4.315
 9912W        W81583  43.742  44.218   0.352
 9913W        W81584  22.630  25.174  10.144
 9914W        W81585  33.932  25.508   0.633
 9915W        W81586  22.630  32.677  14.238
 9916W        W81587  13.190  17.517  11.520
 9917W        W81588  15.354   5.864  13.952
 9918W        W81589  40.974  10.603  13.351
 9919W        W81590  35.642  31.069   0.017
 9920W        W81591  41.922  17.094   2.317
 9921W        W81592  37.312  32.607  12.456
 9922W        W81593  24.156  14.381  13.856
 9923W        W81594  13.586  22.965  11.176
 9924W        W81595  31.564  10.713  13.290
 9925W        W81596   6.684  35.395  10.701
 9926W        W81597  17.314  27.635   3.140
 9927W        W81598  38.041  12.357   2.942
 9928W        W81599  20.096  14.948  10.449
 9929W        W81600  10.852  40.835   4.123
 9930W        W81601  28.494   0.032   0.905
 9931W        W81602  23.232  15.009  10.886
 9932W        W81603  14.815  41.276  14.355
 9933W        W81604  14.728   6.612   4.688
 9934W        W81605  16.391  12.254   3.172
 9935W        W81606  41.100  10.740   4.481
 9936W        W81607  42.697  41.467  14.903
 9937W        W81608  21.092  12.800  14.028
 9938W        W81609  13.660  44.390  10.879
 9939W        W81610  11.774   9.547  11.060
 9940W        W81611   7.852  25.780  14.478
 9941W        W81612  35.543  15.236  12.534
 9942W        W81613  37.641   3.714  14.987
 9943W        W81614  43.125  20.494   9.749
 9944W        W81615  11.258  25.299   2.390
 9945W        W81616  41.047  11.769   2.910
 9946W        W81617   5.715   9.563   2.123
 9947W        W81618  21.119  31.422  14.425
 9948W        W81619  23.763   2.315   0.309
 9949W        W81620  13.758  42.500   2.202
 9950W        W81621   2.247  12.927  12.995
 9951W        W81622  28.656  23.122  14.424
 9952W        W81623  22.102  42.844   2.147
 9953W        W81624  18.553  16.060  14.527
 9954W        W81625  25.955   4.012  13.539
 9955W        W81626   6.886  37.771   0.110
 9956W        W81627  26.586  10.300  11.174
 9957W        W81628  44.066  29.495  13.514
 9958W        W81629  23.083  36.539  12.518
 9959W        W81630  33.924   0.778   4.859
 9960W        W81631  37.396   0.471   1.225
 9961W        W81632  28.668  33.462   2.909
 9962W        W81633  23.046  25.593  13.856
 9963W        W81634   5.055  26.476  13.424
 9964W        W81635  23.246  40.920  13.770
 9965W        W81636  15.637  37.913  10.628
 9966W        W81637   2.278  18.029   2.356
 9967W        W81638   0.431  30.025   2.388
 9968W        W81639  39.235  14.103   0.782
 9969W        W81640  28.468  38.408   4.118
 9970W        W81641   6.673  33.427   0.860
 9971W        W81642  16.589   9.679  13.432
 9972W        W81643  25.693  17.137   1.674
 9973W        W81644  44.417   5.680   1.476
 9974W        W81645  20.525  28.339   4.626
 9975W        W81646   2.233   0.469  14.417
 9976W        W81647  22.326  15.861  13.359
 9977W        W81648  42.046  27.739   0.867
 9978W        W81649  16.714   1.978  12.444
 9979W        W81650  15.662  38.235  11.482
 9980W        W81651  40.799  10.846  12.140
 9981W        W81652  17.219  22.165  11.642
 9982W        W81653  29.491  40.591  10.409
 9983W        W81654  20.906  37.521  12.053
 9984W        W81655  16.306  19.066  12.114
 9985W        W81656  39.150  32.810  10.123
 9986W        W81657  26.201  19.325   0.054
 9987W        W81658  38.774  10.889   1.888
 9988W        W81659  21.141  40.854  13.356
 9989W        W81660  36.407  15.700  13.899
 9990W        W81661  40.224  35.464   4.105
 9991W        W81662  18.950  42.811  12.934
 9992W        W81663   8.795  27.669  14.846
 9993W        W81664   1.924  14.774   4.484
 9994W        W81665  31.077  26.977   2.270
 9995W        W81666  30.379  22.141  12.953
 9996W        W81667   4.584  17.284   4.861
 9997W        W81668  34.573  17.243   3.841
 9998W        W81669  33.503  16.097  12.868
 9999W        W81670   7.556   3.979   2.850
10000W        W81671  13.883  37.364   0.885
10001W        W81672   3.903  28.177  13.779
10002W        W81673  18.582  23.039   3.736
10003W        W81674  15.110   0.762   0.286
10004W        W81675  35.939  44.109   1.882
10005W        W81676   9.734   5.337   2.284
10006W        W81677  34.455  14.118  12.845
10007W        W81678   2.011  19.950  13.412
10008W        W81679  44.392  27.438  12.504
10009W        W81680  40.827  33.162   0.621
10010W        W81681   4.407   8.114   0.964
10011W        W81682  43.519  11.806  10.894
10012W        W81683  39.839  18.534   3.677
10013W        W81684  27.047  24.474  13.482
10014W        W81685  19.006  44.425  12.356
10015W        W81686  39.821  36.997   2.413
10016W        W81687  21.266  27.965   4.203
10017W        W81688  40.496  13.107  13.856
10018W        W81689  41.500   9.314  11.634
10019W        W81690  29.700  25.563   0.626
10020W        W81691  33.379   2.338   3.309
10021W        W81692  18.496  39.882  14.504
10022W        W81693  23.665  41.841   0.433
10023W        W81694   8.722  13.129   1.933
10024W        W81695   7.806  20.309  11.139
10025W        W81696  44.446  26.676   3.161
10026W        W81697  24.054  23.668  12.357
10027W        W81698  30.394  29.706  13.020
10028W        W81699   5.483  11.738   3.653
10029W        W81700  19.488  14.340  11.415
10030W        W81701   0.742  15.131  12.924
10031W        W81702   8.387  11.175   4.566
10032W        W81703  25.780  32.958   4.555
10033W        W81704  19.054  37.990  12.507
10034W        W81705  38.415   6.248   2.566
10035W        W81706  20.300   6.447   2.780
10036W        W81707  38.258  21.467  12.665
10037W        W81708  11.157  29.938  13.053
10038W        W81709  14.385  32.159  12.549
10039W        W81710   7.756  38.469   2.403
10040W        W81711   4.559   2.276  13.916
10041W        W81712  12.153  27.972   2.249
10042W        W81713  35.352   7.398   3.674
10043W        W81714  17.744  39.572   0.249
10044W        W81715   8.832  21.433   2.350
10045W        W81716  33.123  29.530  13.438
10046W        W81717  21.167  37.214   0.717
10047W        W81718  39.477  35.322   0.848
10048W        W81719   2.138  34.768   5.127
10049W        W81720  22.997  22.771   4.443
10050W        W81721  14.838   3.554  11.553
10051W        W81722  10.698   3.674  13.297
10052W        W81723  21.132  12.421   2.217
10053W        W81724  33.648   8.350   3.164
10054W        W81725   9.365  23.479  12.443
10055W        W81726  37.384  35.790   1.743
10056W        W81727  11.738  37.456   4.149
10057W        W81728   3.116   3.773  13.461
10058W        W81729  43.499  15.865   3.817
10059W        W81730  14.164  29.396   3.844
10060W        W81731   3.460  29.333   1.014
10061W        W81732  24.229  38.592   2.686
10062W        W81733  32.469  41.823   1.266
10063W        W81734   2.258  33.651  10.692
10064W        W81735  27.442  41.571  12.617
10065W        W81736  44.486  33.509  12.067
10066W        W81737   7.763  32.114   2.785
10067W        W81738  24.316  19.442  11.217
10068W        W81739  11.357  20.443   4.361
10069W        W81740  15.291  25.668   0.899
10070W        W81741  15.840  23.026  14.455
10071W        W81742  19.179  18.334  11.164
10072W        W81743  28.352  38.389  10.642
10073W        W81744  32.888  28.879  11.385
10074W        W81745  34.358   1.703  11.027
10075W        W81746   3.486  12.065   2.903
10076W        W81747  12.725   4.002  11.834
10077W        W81748  11.084  26.223  13.950
10078W        W81749  44.846  30.949  13.839
10079W        W81750   1.912   8.883  11.085
10080W        W81751  15.576  28.246  11.037
10081W        W81752  16.138  41.241  12.578
10082W        W81753  17.540  10.051  13.139
10083W        W81754   1.962  30.616  14.444
10084W        W81755  43.516  41.459  13.516
10085W        W81756  25.832  18.693  11.112
10086W        W81757  21.595   8.538  12.535
10087W        W81758  35.457  43.471  10.368
10088W        W81759  23.786  42.433   1.772
10089W        W81760   2.729   2.447  11.585
10090W        W81761   1.119  40.004   3.324
10091W        W81762  35.863   5.930  14.351
10092W        W81763  37.829  11.899   2.776
10093W        W81764  27.422  11.738   1.909
10094W        W81765   0.372  30.828  13.497
10095W        W81766  12.009   1.500  10.708
10096W        W81767   3.365  30.712  11.136
10097W        W81768  42.775  28.276   3.557
10098W        W81769  40.382  40.770   3.236
10099W        W81770   6.182  10.590   0.077
10100W        W81771  18.393  38.448   4.572
10101W        W81772  36.679   1.741  10.600
10102W        W81773  10.146  23.727  10.911
10103W        W81774  13.288  17.339   1.298
10104W        W81775  21.027  17.509   1.357
10105W        W81776  19.842   8.045   3.241
10106W        W81777  33.497  24.063   3.176
10107W        W81778   9.288  17.625  10.558
10108W        W81779  44.263  10.992   0.067
10109W        W81780  41.085  21.569   5.192
10110W        W81781  38.311  24.481  14.958
10111W        W81782   7.682  10.809   2.284
10112W        W81783  10.172  40.487  11.475
10113W        W81784   2.469  19.165   1.382
10114W        W81785   8.181   0.249   3.609
10115W        W81786   6.164  21.902  11.797
10116W        W81787  36.491  13.049  13.527
10117W        W81788  12.661   7.197   4.267
10118W        W81789  30.220  40.614  12.776
10119W        W81790  16.703   5.379  12.590
10120W        W81791  19.256  13.081  12.139
10121W        W81792  41.875   6.318  14.814
10122W        W81793  23.742  12.932  12.841
10123W        W81794  43.345  21.889   3.202
10124W        W81795  23.573  41.671  14.340
10125W        W81796  42.852   2.339  10.963
10126W        W81797  24.732  42.380   2.112
10127W        W81798  17.172  18.633   0.908
10128W        W81799  44.035  39.835   5.049
10129W        W81800  21.438   4.818   4.665
10130W        W81801   5.701  38.481  11.260
10131W        W81802  32.477  33.144  13.805
10132W        W81803  27.190  43.303   3.823
10133W        W81804  21.380  10.706   1.762
10134W        W81805  12.712  21.810  11.510
10135W        W81806   5.869   0.006   1.063
10136W        W81807  29.664  35.709   3.038
10137W        W81808  39.217  22.626   4.556
10138W        W81809  28.691   6.334  14.233
10139W        W81810  15.858  11.670  14.245
10140W        W81811  17.482   7.226   0.991
10141W        W81812  31.078   2.520   0.364
10142W        W81813   7.153  12.143   0.146
10143W        W81814  10.315  41.315  14.248
10144W        W81815   2.943  38.452  14.150
10145W        W81816  16.309  25.381   0.795
10146W        W81817  18.480   8.801  13.369
10147W        W81818  11.690  36.476  11.612
10148W        W81819  34.516  37.300   4.147
10149W        W81820   1.332  28.818  11.506
10150W        W81821  16.544   9.094   2.689
10151W        W81822  29.929  22.509   3.384
10152W        W81823  17.001  23.373  12.996
10153W        W81824  40.229  43.025  11.533
10154W        W81825  12.847  26.883   3.806
10155W        W81826  36.595  27.516   4.764
10156W        W81827  34.599  34.077  12.950
10157W        W81828  23.136  13.665  12.209
10158W        W81829  37.139   5.678  12.872
10159W        W81830   7.825  27.800  11.611
10160W        W81831  35.340  28.702   4.611
10161W        W81832   6.880  32.203  11.194
10162W        W81833  28.511   3.458   3.601
10163W        W81834  34.132  18.733   0.445
10164W        W81835   1.518   4.492   0.182
10165W        W81836  12.120  13.249   3.725
10166W        W81837  44.251  34.952   4.533
10167W        W81838  23.750  29.530  11.499
10168W        W81839   2.276   2.840  14.403
10169W        W81840   5.148  21.524  13.544
10170W        W81841  22.716  14.638   2.318
10171W        W81842  40.069  10.856   4.741
10172W        W81843   9.741  29.037   4.933
10173W        W81844  29.583   5.932  10.661
10174W        W81845   5.955   4.383  13.993
10175W        W81846  24.777  22.229   4.179
10176W        W81847  17.579  33.498   3.774
10177W        W81848  26.560  16.412   0.852
10178W        W81849  39.792  12.821  12.193
10179W        W81850   4.262  29.592   0.561
10180W        W81851  39.192  27.961  10.758
10181W        W81852  28.585  29.814   3.311
10182W        W81853  23.802   1.379   3.296
10183W        W81854   4.213   1.452   2.239
10184W        W81855   4.416  44.468   1.472
10185W        W81856  21.556   4.858   1.140
10186W        W81857  11.989  10.573  11.912
10187W        W81858  19.565   6.939   2.396
10188W        W81859  43.318   7.659  11.357
10189W        W81860   6.896  10.623   0.300
10190W        W81861  22.232  34.494   3.548
10191W        W81862   7.958  30.517  12.895
10192W        W81863   0.371  17.650  11.822
10193W        W81864  22.106  30.946  14.767
10194W        W81865  29.727  44.366  15.000
10195W        W81866  28.850  16.720   0.224
10196W        W81867  44.978   3.627  12.598
10197W        W81868  17.794  35.799  13.300
10198W        W81869   3.791  21.999  11.698
10199W        W81870  21.644  19.789   4.103
10200W        W81871  14.802   1.855  12.008
10201W        W81872   3.749  37.778   1.343
10202W        W81873  25.444  40.941   0.151
10203W        W81874  25.949  41.976   3.119
10204W        W81875   2.886  38.367  14.735
10205W        W81876  31.538  18.441  13.303
10206W        W81877  35.036   8.615  13.413
10207W        W81878  30.967   1.925  12.413
10208W        W81879  28.758   4.223   1.454
10209W        W81880  42.460   5.028  14.468
10210W        W81881  40.343  23.267  11.104
10211W        W81882  35.472  42.137  14.756
10212W        W81883  39.739   6.351   2.359
10213W        W81884  14.662  30.534  13.845
10214W        W81885  40.359  10.778   1.522
10215W        W81886  16.740  42.847  12.641
10216W        W81887   5.259  11.759  13.487
10217W        W81888  26.567  18.507  13.793
10218W        W81889   4.963  11.105  10.308
10219W        W81890  21.535   1.239   0.754
10220W        W81891  29.698  30.195  12.520
10221W        W81892   7.226  20.011  12.082
10222W        W81893  31.879   0.709  10.608
10223W        W81894  30.727  17.059  10.402
10224W        W81895  28.191   9.327   1.703
10225W        W81896  37.038  40.186   4.538
10226W        W81897   1.357   1.256   2.756
10227W        W81898  43.476  24.959   2.251
10228W        W81899  37.790   8.495   3.270
10229W        W81900  30.460  17.852  14.908
10230W        W81901  35.134  30.116   0.350
10231W        W81902  29.952  44.504   2.267
10232W        W81903  39.820  20.903   4.219
10233W        W81904   5.201   2.763   1.772
10234W        W81905  29.036  19.945   3.112
10235W        W81906  40.377  40.027  10.662
10236W        W81907   0.703  13.788  11.033
10237W        W81908  33.103  25.492  12.043
10238W        W81909  19.633  35.412  13.070
10239W        W81910  19.471  31.616  10.614
10240W        W81911  35.572  38.515   4.620
10241W        W81912  29.951  29.349  13.696
10242W        W81913  15.387   8.847  13.940
10243W        W81914  38.785  27.075   2.185
10244W        W81915  41.198  13.120   5.137
10245W        W81916   4.721  41.418   0.506
10246W        W81917   2.791  15.498  14.884
10247W        W81918  16.388  43.310  11.507
10248W        W81919   8.460   4.701   2.642
10249W        W81920  30.622  10.122   1.536
10250W        W81921  44.433  43.789  11.662
10251W        W81922  13.560  27.997   3.256
10252W        W81923  26.595  36.834   1.806
10253W        W81924   9.238  31.114  10.700
10254W        W81925   4.640  27.482  12.758
10255W        W81926  22.162  10.944  12.906
10256W        W81927  11.393  43.689  14.708
10257W        W81928  14.249  25.413   4.951
10258W        W81929  34.498  19.802  14.431
10259W        W81930  40.380   2.174  13.382
10260W        W81931  13.717   0.657  11.633
10261W        W81932  19.025   4.507  10.938
10262W        W81933  33.951  16.761  12.487
10263W        W81934  24.251  23.034   0.316
10264W        W81935  41.073  27.490  12.062
10265W        W81936   7.857  39.924   0.804
10266W        W81937  31.699   6.498  11.249
10267W        W81938   9.623  12.813   0.537
10268W        W81939  37.420   5.372  12.211
10269W        W81940  38.410  41.806  14.711
10270W        W81941   3.283  22.908  13.974
10271W        W81942  31.070   6.274   4.317
10272W        W81943   6.371  36.889   0.247
10273W        W81944  17.880  15.288  10.892
10274W        W81945  19.813  38.646  11.593
10275W        W81946  26.508  31.509   4.834
10276W        W81947  12.774   5.664   1.225
10277W        W81948  38.316   6.140   1.012
10278W        W81949  44.030  18.223   4.829
10279W        W81950   0.768  26.088   4.725
10280W        W81951  19.292   3.809   3.535
10281W        W81952  23.965  37.920   1.080
10282W        W81953  23.618  39.544  12.082
10283W        W81954   9.683  35.114   2.833
10284W        W81955  13.077  38.445   1.328
10285W        W81956  33.293  11.699   3.060
10286W        W81957  32.118  30.130  14.377
10287W        W81958  17.683  43.123  13.754
10288W        W81959  41.532  41.871   1.683
10289W        W81960  12.367   8.203   2.693
10290W        W81961   5.636  38.053  10.936
10291W        W81962  33.929  38.526   2.436
10292W        W81963  29.646  27.121  14.971
10293W        W81964  22.826  41.016  14.062
10294W        W81965  39.871  13.105   2.281
10295W        W81966   7.398  26.607   0.423
10296W        W81967  33.174  37.800  10.580
10297W        W81968  26.124   6.390  12.284
10298W        W81969   8.661  34.229  14.296
10299W        W81970  41.898  27.163  10.555
10300W        W81971  29.546  37.621   4.536
10301W        W81972  19.731  34.720   3.262
10302W        W81973   0.197  17.203  14.402
10303W        W81974  40.639  35.544   1.700
10304W        W81975  26.450   2.469   0.739
10305W        W81976   0.245  26.408  12.382
10306W        W81977  37.814   3.309   1.491
10307W        W81978  29.560   1.355   2.901
10308W        W81979  14.075  43.798   1.826
10309W        W81980   7.004  43.183  12.833
10310W        W81981  22.983  38.051  11.631
10311W        W81982   1.396  17.845   0.242
10312W        W81983  43.433  19.138   1.255
10313W        W81984  19.026  36.949   0.269
10314W        W81985   8.009  20.458   4.109
10315W        W81986  24.551  20.928   2.698
10316W        W81987  43.277  42.761   3.219
10317W        W81988   5.427  10.157  14.300
10318W        W81989   5.461   8.197   3.791
10319W        W81990  18.768  32.569  11.883
10320W        W81991  17.309  35.172   1.289
10321W        W81992   1.814  33.013  13.913
10322W        W81993  12.530   3.376   2.354
10323W        W81994  36.892  19.062  10.603
10324W        W81995  43.311   9.305  11.054
10325W        W81996  19.872  11.723   3.401
10326W        W81997  35.237   0.349  11.597
10327W        W81998   8.477  26.908  12.479
10328W        W81999  41.054  10.614  11.718
10329W        W82000  30.706  29.280  12.990
10330W        W82001  17.949  24.436  13.839
10331W        W82002  17.512  40.770   2.176
10332W        W82003  18.200  29.850  11.568
10333W        W82004  35.560  17.603   2.122
10334W        W82005  16.823   2.307   3.646
10335W        W82006  28.964  16.629  12.600
10336W        W82007   3.573   6.123   2.734
10337W        W82008  41.661  40.348   4.511
10338W        W82009   5.467  30.940   0.914
10339W        W82010  28.986  11.693   4.168
10340W        W82011  13.482  15.452  14.793
10341W        W82012  41.922  26.157  11.448
10342W        W82013   1.296   7.791  12.849
10343W        W82014   2.764  38.609  11.625
10344W        W82015  22.004  30.345   0.420
10345W        W82016  30.622  22.813  13.552
10346W        W82017   0.338  44.333   0.419
10347W        W82018   1.199  39.551   4.572
10348W        W82019  24.559  16.298   4.123
10349W        W82020  31.188  39.496  11.387
10350W        W82021  14.259  33.378  14.855
10351W        W82022  18.055  36.122  14.762
10352W        W82023  13.085  23.834  14.847
10353W        W82024  33.316  26.450   4.764
10354W        W82025  32.088  25.255  11.929
10355W        W82026  21.551   9.511  11.509
10356W        W82027  13.350   5.238   3.823
10357W        W82028  18.188  43.270  12.014
10358W        W82029   3.281   8.554   0.351
10359W        W82030   9.600   9.731   3.757
10360W        W82031  15.793  10.896  14.203
10361W        W82032   1.408  23.223  10.716
10362W        W82033  32.984  35.062  11.201
10363W        W82034  23.569   3.443  10.514
10364W        W82035   6.976   9.689   4.150
10365W        W82036  21.170   4.144   3.640
10366W        W82037  19.573   0.334  12.334
10367W        W82038  15.074  21.148   1.421
10368W        W82039   7.095   6.449  12.660
10369W        W82040  37.082  25.613  10.761
10370W        W82041  28.963  19.582  14.090
10371W        W82042  31.990  38.560  10.927
10372W        W82043  14.041  21.597  12.837
10373W        W82044  41.702   8.860  10.775
10374W        W82045  13.788  38.587   1.821
10375W        W82046  17.345  23.842  14.616
10376W        W82047   7.157   8.736   2.745
10377W        W82048  26.429  34.549  12.815
10378W        W82049  19.667   5.284  12.042
10379W        W82050  17.826  14.100   2.201
10380W        W82051   0.397  36.102  12.020
10381W        W82052   2.248  39.877   1.063
10382W        W82053  41.372  15.139   3.162
10383W        W82054  31.933  23.668  14.709
10384W        W82055  11.111  18.839   1.193
10385W        W82056   1.719  32.401  11.691
10386W        W82057  15.702   2.761   1.242
10387W        W82058  21.115  11.826   4.566
10388W        W82059   4.332  27.375   4.225
10389W        W82060  24.024  25.467  14.403
10390W        W82061  21.718  42.299   0.198
10391W        W82062   7.634  17.075   3.679
10392W        W82063  16.782   1.714  10.888
10393W        W82064   5.767  24.184  12.676
10394W        W82065  20.545  18.009   3.647
10395W        W82066  15.149  42.400  10.719
10396W        W82067  24.552   3.279   2.948
10397W        W82068  17.295  11.427  11.161
10398W        W82069  11.857  14.635  13.104
10399W        W82070  21.465  39.956   1.904
10400W        W82071  25.433  37.119  14.004
10401W        W82072  26.611  12.061  14.843
10402W        W82073  27.205  18.283  12.503
10403W        W82074  25.520  14.997  13.786
10404W        W82075   3.552  23.024   3.080
10405W        W82076   8.629  44.647  13.274
10406W        W82077  26.625  27.647  13.454
10407W        W82078  32.778  31.403   2.416
10408W        W82079  17.225  11.879  12.011
10409W        W82080   2.694   2.671  13.761
10410W        W82081  18.308  22.283   1.195
10411W        W82082  44.529   9.826   1.878
10412W        W82083   3.631  11.106   2.845
10413W        W82084   7.641  32.217   0.443
10414W        W82085  17.841  13.215   5.156
10415W        W82086  12.937  18.880  12.495
10416W        W82087  16.099   4.842   0.916
10417W        W82088  43.868  28.220  10.976
10418W        W82089   6.978  20.673  13.974
10419W        W82090  14.554   7.104   3.146
10420W        W82091  11.340   6.388  12.026
10421W        W82092  32.370  21.645  13.134
10422W        W82093  23.546  20.121  13.894
10423W        W82094   1.439  14.102   3.948
10424W        W82095  43.296  36.363  12.676
10425W        W82096  42.842  33.544  12.044
10426W        W82097   9.788  39.804   4.627
10427W        W82098   3.241  29.490   0.302
10428W        W82099  42.284  37.350   1.421
10429W        W82100  31.643   3.327   0.362
10430W        W82101   9.252  18.764  13.563
10431W        W82102  32.554  34.679  12.511
10432W        W82103  27.040   8.457  11.055
10433W        W82104  26.523  33.198  12.860
10434W        W82105   6.835   1.736  12.324
10435W        W82106  30.082  24.033   4.851
10436W        W82107  36.434  22.010   2.343
10437W        W82108  21.243  24.030  11.936
10438W        W82109  19.193  11.946   0.896
10439W        W82110  37.319  31.984   0.275
10440W        W82111  18.639   1.951  11.193
10441W        W82112  27.397   0.801   3.448
10442W        W82113  44.249  17.253  11.340
10443W        W82114  15.181  29.590   0.560
10444W        W82115  38.924  34.462  10.736
10445W        W82116  15.968  42.627   2.302
10446W        W82117  18.693  21.245  10.714
10447W        W82118  21.174  25.538   3.399
10448W        W82119   7.229  28.075   1.861
10449W        W82120  14.316  34.525  12.103
10450W        W82121  13.098  16.600   1.326
10451W        W82122  23.666  26.298   3.302
10452W        W82123  33.459  26.578  11.121
10453W        W82124  24.639  25.481   1.210
10454W        W82125  17.100  29.635  11.704
10455W        W82126  18.782  19.571   5.030
10456W        W82127   4.876  22.997  11.935
10457W        W82128  37.878  18.782  12.830
10458W        W82129  30.915  14.841   1.745
10459W        W82130  27.961  37.639   1.520
10460W        W82131  12.601  36.347  11.660
10461W        W82132   6.918  15.034  14.625
10462W        W82133  30.923  30.635   1.835
10463W        W82134  43.852   6.275  12.138
10464W        W82135  15.209   9.041   3.747
10465W        W82136  33.535  14.687   0.649
10466W        W82137  42.961   1.810   1.932
10467W        W82138   4.270   6.117   3.092
10468W        W82139   4.814  44.205   2.256
10469W        W82140  18.196  38.824  11.567
10470W        W82141  30.634   3.644  13.315
10471W        W82142  22.994  44.858  11.591
10472W        W82143   8.445  17.917   1.194
10473W        W82144  15.756  27.088   0.750
10474W        W82145  22.622  21.997  12.140
10475W        W82146  21.049  18.544  13.413
10476W        W82147  22.240  44.577   3.696
10477W        W82148  18.247   1.968   1.294
10478W        W82149  29.032  16.658  11.185
10479W        W82150  40.140  20.744  12.534
10480W        W82151   1.760  19.042   4.945
10481W        W82152  20.083  26.036  12.326
10482W        W82153  11.332  41.804   0.037
10483W        W82154   2.832  41.720  13.326
10484W        W82155  13.142  38.343   3.348
10485W        W82156  29.921  28.551   1.476
10486W        W82157  36.255  38.114   4.985
10487W        W82158  14.127  26.773  14.664
10488W        W82159  40.278  21.647   4.550
10489W        W82160  23.674  39.916  10.192
10490W        W82161  39.425  10.806  12.908
10491W        W82162  37.734   4.875  12.830
10492W        W82163   9.428  10.326   3.195
10493W        W82164  19.300  24.163   2.295
10494W        W82165  21.294  21.732  14.834
10495W        W82166  11.457  28.525   0.904
10496W        W82167  11.177  28.746  10.848
10497W        W82168  13.877   2.458   1.004
10498W        W82169   3.002  21.199   2.297
10499W        W82170  11.820  29.624   0.030
10500W        W82171  34.209  11.164  13.091
10501W        W82172  12.643  16.549  12.970
10502W        W82173  19.757   6.426   4.494
10503W        W82174  14.731  12.787   1.413
10504W        W82175   0.542  27.306  11.157
10505W        W82176  24.585   0.884   3.138
10506W        W82177  33.581  29.029   1.249
10507W        W82178  26.312   4.339   0.847
10508W        W82179  43.054   7.975  13.058
10509W        W82180  13.150   6.824  13.005
10510W        W82181   8.353  13.708   2.577
10511W        W82182  42.013  22.597   5.007
10512W        W82183  34.574  27.441  12.720
10513W        W82184  42.575  19.064  11.069
10514W        W82185   0.974  41.746  13.309
10515W        W82186   1.460  33.012  10.439
10516W        W82187  37.573   3.638   0.739
10517W        W82188  41.306   1.300  13.529
10518W        W82189   8.386  37.788  11.477
10519W        W82190  10.429  24.955  13.042
10520W        W82191  16.390  20.909  14.020
10521W        W82192   2.856   4.675   0.649
10522W        W82193  42.563  25.149   3.384
10523W        W82194  30.362  22.108   1.030
10524W        W82195   8.227  10.788   0.248
10525W        W82196  17.519  25.719  13.081
10526W        W82197  21.695  21.608  10.701
10527W        W82198  25.536  30.533   4.631
10528W        W82199  11.907   6.285  12.895
10529W        W82200   8.037  33.583  13.019
10530W        W82201   9.906  25.932  10.961
10531W        W82202   7.823  29.271  10.789
10532W        W82203   8.491   3.730   3.412
10533W        W82204  12.646   6.337  13.530
10534W        W82205   9.210  43.861  10.788
10535W        W82206  13.320   6.022   0.302
10536W        W82207   9.867  28.508  10.867
10537W        W82208  15.993  26.472  10.585
10538W        W82209   3.494  23.481   1.381
10539W        W82210   8.453  26.484   4.059
10540W        W82211  39.518  23.771  14.756
10541W        W82212  41.830  10.617   2.849
10542W        W82213  29.625  39.778  13.605
10543W        W82214  41.883  10.641   3.384
10544W        W82215  18.337  19.609  10.767
10545W        W82216  14.872   4.382   0.733
10546W        W82217   8.293  33.640   1.921
10547W        W82218  16.361  41.805  13.800
10548W        W82219  22.096  20.697  12.510
10549W        W82220  17.718   6.339  12.169
10550W        W82221  41.835  40.308  14.569
10551W        W82222   2.563  32.022   3.199
10552W        W82223  38.812  36.324  12.963
10553W        W82224   7.904  22.213   3.688
10554W        W82225  17.025  13.757  13.383
10555W        W82226  32.956  33.388   4.802
10556W        W82227  22.669   0.547   2.201
10557W        W82228  34.610  30.014   3.273
10558W        W82229  38.372  44.308   3.197
10559W        W82230  42.572  21.120  10.670
10560W        W82231  32.382  10.059  12.480
10561W        W82232  16.276  28.407  14.397
10562W        W82233   4.302  12.690   2.952
10563W        W82234   8.682  10.483   0.443
10564W        W82235  26.189  21.969  11.621
10565W        W82236  43.983  17.609   3.318
10566W        W82237  36.396  22.110  13.077
10567W        W82238  17.875  38.883  11.173
10568W        W82239   0.180  41.435   1.315
10569W        W82240  31.982   6.471   4.147
10570W        W82241  14.578  38.854  13.817
10571W        W82242   7.790  28.270   4.361
10572W        W82243  44.411  23.575   4.081
10573W        W82244   3.949   7.292   4.622
10574W        W82245  33.401  21.173  14.992
10575W        W82246  30.576  21.776  13.309
10576W        W82247  40.610  18.673   3.369
10577W        W82248   4.578  23.028   3.407
10578W        W82249  38.897   7.622  12.951
10579W        W82250  25.081   7.311   0.909
10580W        W82251  25.104  19.007   1.931
10581W        W82252  27.755  14.564  14.312
10582W        W82253   1.858  21.284   1.224
10583W        W82254  26.101  31.615  11.007
10584W        W82255  23.589  35.399  14.829
10585W        W82256  14.661  10.329   3.411
10586W        W82257  20.753  21.238  12.953
10587W        W82258  19.995  34.340  12.425
10588W        W82259  34.615  18.716   2.867
10589W        W82260  34.623  25.825  11.686
10590W        W82261  18.088   8.887  12.111
10591W        W82262  12.870  26.150  11.216
10592W        W82263   6.329   3.870   0.912
10593W        W82264  39.837   8.667   0.875
10594W        W82265  26.624  22.380   3.104
10595W        W82266   1.701   6.489   1.328
10596W        W82267  17.270  38.365  11.472
10597W        W82268   8.229   1.914   0.002
10598W        W82269   6.039   8.252   0.748
10599W        W82270  16.977  20.184  13.958
10600W        W82271  36.682   6.360  12.240
10601W        W82272  21.256  15.851   0.559
10602W        W82273  14.553  25.167   0.897
10603W        W82274  44.836  33.605   4.599
10604W        W82275   3.806  43.193   1.474
10605W        W82276  26.849   4.012   1.432
10606W        W82277  38.427  40.309  13.907
10607W        W82278  23.638  28.461  14.240
10608W        W82279  32.876  27.960   3.097
10609W        W82280  17.447   4.360  12.422
10610W        W82281  26.042   7.854   3.113
10611W        W82282   0.906  12.666   2.691
10612W        W82283  34.885  23.287   4.065
10613W        W82284  11.918  31.070  12.135
10614W        W82285  18.761  40.312   4.174
10615W        W82286   6.393  21.061  11.890
10616W        W82287   4.886   1.854   2.001
10617W        W82288   2.979  25.651  14.904
10618W        W82289   8.583  11.151   3.222
10619W        W82290  21.663  26.266   0.364
10620W        W82291  27.045  25.288  11.165
10621W        W82292   5.817  19.484  12.952
10622W        W82293  37.097  16.590   4.205
10623W        W82294  25.437  30.199  12.589
10624W        W82295  41.374  43.728   2.267
10625W        W82296  21.491  39.860   0.397
10626W        W82297  13.218  17.642  10.552
10627W        W82298  19.678  14.988  14.246
10628W        W82299  35.110  16.082  10.395
10629W        W82300  40.789  13.555   3.150
10630W        W82301  19.528  20.626   3.379
10631W        W82302  15.594  25.938  12.933
10632W        W82303  30.370  12.816   2.185
10633W        W82304  27.449   6.230  13.782
10634W        W82305  26.671  19.391   3.258
10635W        W82306  25.790  24.063  12.335
10636W        W82307  27.488  34.001  11.131
10637W        W82308  42.269  21.996   2.160
10638W        W82309  37.765  29.895  12.487
10639W        W82310  22.600  14.283  13.659
10640W        W82311   0.282  27.493   3.681
10641W        W82312  19.225  39.327   3.747
10642W        W82313  19.762  30.140   2.342
10643W        W82314  35.540  39.145   2.853
10644W        W82315  21.257  39.897  10.156
10645W        W82316   7.746   0.423   4.128
10646W        W82317  12.721  27.607   4.178
10647W        W82318  12.077  21.198   1.371
10648W        W82319  44.278  26.179  11.668
10649W        W82320  22.595   3.967   1.698
10650W        W82321   3.461  44.087   1.304
10651W        W82322   9.162  35.749  10.901
10652W        W82323  36.247  41.792   1.006
10653W        W82324  13.798   6.641   3.203
10654W        W82325   3.801   6.270   0.883
10655W        W82326  19.436  24.287  13.939
10656W        W82327  36.444  11.782  12.156
10657W        W82328  15.654  39.105  13.960
10658W        W82329   4.478  31.949  11.261
10659W        W82330  11.180  17.778  14.815
10660W        W82331   3.840  37.996  14.054
10661W        W82332  34.685  11.319   0.191
10662W        W82333   6.110   6.901   4.628
10663W        W82334   5.572  27.003   0.185
10664W        W82335  38.410  22.282   1.427
10665W        W82336  25.796  24.235   2.581
10666W        W82337  12.966  38.564  10.696
10667W        W82338   4.285  16.087  13.370
10668W        W82339  40.308   6.464  11.993
10669W        W82340  17.262  43.094   2.272
10670W        W82341  38.010   3.535  13.973
10671W        W82342  37.518  15.780  13.525
10672W        W82343  33.514   7.168  13.854
10673W        W82344  44.402  23.342   2.159
10674W        W82345  22.684   5.873   0.903
10675W        W82346  43.815  35.146  14.378
10676W        W82347  11.074  23.276   0.379
10677W        W82348  19.905   3.987  11.642
10678W        W82349  26.986   2.938   3.269
10679W        W82350  18.127  17.603   3.885
10680W        W82351  39.034  13.157   1.939
10681W        W82352  21.613   0.529  14.472
10682W        W82353  23.819   1.378  13.367
10683W        W82354   2.119  23.103   0.248
10684W        W82355  43.799  26.744  14.010
10685W        W82356  37.743  10.078  14.342
10686W        W82357  26.438  39.625  12.156
10687W        W82358  44.312   5.386  13.076
10688W        W82359  44.318  40.554  13.426
10689W        W82360  19.156  43.548   1.232
10690W        W82361  12.984  44.466  13.397
10691W        W82362   8.227   7.822  11.668
10692W        W82363  14.056   5.199  14.526
10693W        W82364  36.612  10.247   2.721
10694W        W82365  17.039   6.616   3.427
10695W        W82366  42.094  34.169  12.965
10696W        W82367  34.635  20.792   1.224
10697W        W82368  15.675   4.837   5.096
10698W        W82369  15.213   1.916  14.342
10699W        W82370  18.828   9.764  14.314
10700W        W82371  32.245  31.635  13.650
10701W        W82372   4.965   7.654  11.224
10702W        W82373  20.498  19.620   0.453
10703W        W82374  31.199  44.970   2.208
10704W        W82375  41.358  41.409   1.891
10705W        W82376  20.809  28.740  13.015
10706W        W82377   0.683  22.518   0.933
10707W        W82378   7.716   1.242   1.469
10708W        W82379  36.279  15.293   0.822
10709W        W82380  10.627  21.742  13.465
10710W        W82381  41.519  43.576   3.622
10711W        W82382  27.025  37.279   1.398
10712W        W82383  13.298  24.270  14.090
10713W        W82384  15.180  11.306  13.110
10714W        W82385  41.338  28.713  13.053
10715W        W82386  24.431  16.145  11.573
10716W        W82387  24.290  11.661  14.006
10717W        W82388  31.695  24.629  12.553
10718W        W82389  38.908  31.629  13.084
10719W        W82390  18.038   6.179   3.163
10720W        W82391  44.299  25.541  13.861
10721W        W82392  31.920  36.184   5.100
10722W        W82393   8.806  32.405   0.035
10723W        W82394  33.550   7.414  14.317
10724W        W82395  23.227   7.513  14.317
10725W        W82396  22.685   5.745   2.472
10726W        W82397  29.000  22.483   3.267
10727W        W82398  11.210  27.946  11.588
10728W        W82399  16.294  42.974  11.116
10729W        W82400  28.041  39.160   3.171
10730W        W82401  21.997   7.772  13.433
10731W        W82402   7.353   9.564   0.809
10732W        W82403  42.340  26.176  14.313
10733W        W82404  40.393  32.492   1.955
10734W        W82405  35.327  40.807   4.716
10735W        W82406   4.733  38.471  11.089
10736W        W82407  32.858  37.419  14.705
10737W        W82408  17.212   1.692  10.608
10738W        W82409  33.954  38.099  13.551
10739W        W82410  12.778  33.525  11.419
10740W        W82411  32.325  27.130  10.825
10741W        W82412  39.884  19.917  12.096
10742W        W82413  23.102  40.189  11.707
10743W        W82414   2.784  16.654   3.178
10744W        W82415  14.265  16.079   1.208
10745W        W82416  33.376   0.452  12.057
10746W        W82417  42.675  38.436   1.001
10747W        W82418   7.141   3.127  12.498
10748W        W82419  42.454  27.191  11.136
10749W        W82420  25.169  23.065   3.748
10750W        W82421  29.476  28.600  10.454
10751W        W82422  33.437   6.907   0.269
10752W        W82423  34.223  19.622  13.981
10753W        W82424  29.387   0.284   2.813
10754W        W82425  10.015   1.169   2.228
10755W        W82426   2.031   1.192  12.059
10756W        W82427   1.406  20.369  13.869
10757W        W82428  15.068   4.827  11.397
10758W        W82429  40.605  33.541  11.991
10759W        W82430  23.573  38.015  14.698
10760W        W82431  31.101  21.986  11.616
10761W        W82432  28.839  24.024   1.620
10762W        W82433   6.208  17.919  11.818
10763W        W82434  22.772  43.473   4.319
10764W        W82435  42.773  19.115  12.958
10765W        W82436  16.135  31.134   3.751
10766W        W82437  40.033  43.829  12.403
10767W        W82438  36.793  30.211  14.432
10768W        W82439   2.539   8.318  13.454
10769W        W82440  22.781  30.240   1.418
10770W        W82441  27.573  22.172  11.713
10771W        W82442  43.083  41.945   5.538
10772W        W82443  30.020  44.745   4.056
10773W        W82444  29.394  18.007   4.219
10774W        W82445  16.185  12.532   4.098
10775W        W82446  11.147  13.065  13.585
10776W        W82447  18.093  10.204  13.884
10777W        W82448  23.035   7.983   3.005
10778W        W82449  26.941  38.375   4.323
10779W        W82450  15.373  11.551  14.127
10780W        W82451  30.982   7.665   2.601
10781W        W82452  30.484  23.871   3.784
10782W        W82453  10.728  34.958   4.159
10783W        W82454  35.457  32.672  13.855
10784W        W82455   5.711  14.389   0.813
10785W        W82456  21.301   0.981   2.332
10786W        W82457   2.755  21.317  11.123
10787W        W82458  11.392   5.502  13.609
10788W        W82459  41.861  19.241  13.765
10789W        W82460  37.392  10.480  14.348
10790W        W82461  26.500   9.962   1.783
10791W        W82462  14.806  12.894   4.415
10792W        W82463  32.326  23.674   3.624
10793W        W82464  24.985  25.683  11.364
10794W        W82465  11.107   0.593  12.046
10795W        W82466   5.548  33.174  13.483
10796W        W82467  10.229  39.210  10.724
10797W        W82468  44.270   8.757   0.885
10798W        W82469  17.147  38.370  14.015
10799W        W82470  17.256  21.141   2.759
10800W        W82471  16.077   9.322  11.619
10801W        W82472   0.252  12.310   5.213
10802W        W82473  32.645  12.650  13.354
10803W        W82474   9.771  34.568  11.051
10804W        W82475  34.285  11.974  14.494
10805W        W82476   2.401  10.814   4.321
10806W        W82477  36.412  38.815  14.969
10807W        W82478  12.614  25.314  12.045
10808W        W82479  40.110   4.792  14.912
10809W        W82480   2.226   9.225  14.984
10810W        W82481  33.116  42.411   4.661
10811W        W82482  43.986  43.648   3.744
10812W        W82483  41.714  20.123  11.905
10813W        W82484  24.550  12.129   0.445
10814W        W82485   8.196  43.550  14.900
10815W        W82486  41.006  20.675  11.778
10816W        W82487  36.592  41.100  13.403
10817W        W82488   8.789  14.069  13.538
10818W        W82489  29.380  44.969   0.769
10819W        W82490  25.609   5.567  12.094
10820W        W82491  31.618   3.693  11.096
10821W        W82492  18.923  36.909   1.250
10822W        W82493  19.023   7.898  13.420
10823W        W82494  12.323  12.253  13.283
10824W        W82495  25.553  24.132   3.421
10825W        W82496  34.087  27.252  12.933
10826W        W82497  10.242  21.015   2.316
10827W        W82498  16.635  43.763  11.483
10828W        W82499  41.494  14.181  12.420
10829W        W82500   0.299  15.579   2.286
10830W        W82501  25.571  11.593   3.705
10831W        W82502   1.250  27.097  10.545
10832W        W82503  29.486  32.547   1.901
10833W        W82504  34.429   6.648  13.865
10834W        W82505  37.854  30.948  12.469
10835W        W82506  38.348  19.945   1.830
10836W        W82507  43.218   9.386   4.223
10837W        W82508  22.498  32.449   0.622
10838W        W82509  21.439  11.767   0.973
10839W        W82510  32.945  22.522   1.156
10840W        W82511  34.891   2.972  11.916
10841W        W82512   1.461  39.814   4.206
10842W        W82513   0.965  20.612  14.389
10843W        W82514  11.136  27.580   1.853
10844W        W82515   9.866  27.689  13.844
10845W        W82516  41.408  26.630  11.995
10846W        W82517  18.332  11.451   0.809
10847W        W82518  12.734  18.003   1.662
10848W        W82519  20.259  24.668   4.595
10849W        W82520  31.427  33.023   1.967
10850W        W82521  10.547  35.977  14.949
10851W        W82522  15.364   0.052   2.701
10852W        W82523  10.740  20.754  11.169
10853W        W82524  21.679  18.014  14.707
10854W        W82525  19.360   8.121  13.001
10855W        W82526  26.193  40.825  12.315
10856W        W82527  13.411  16.598   1.790
10857W        W82528  31.076  24.426   2.047
10858W        W82529  22.455  41.634  11.054
10859W        W82530  23.569  31.386   2.086
10860W        W82531  21.233  30.644   0.871
10861W        W82532  32.911  13.904   0.782
10862W        W82533  44.391  12.745   4.927
10863W        W82534  14.103  31.784  12.774
10864W        W82535  20.467  19.827  10.797
10865W        W82536   9.419   4.708   2.771
10866W        W82537  22.321  22.784  10.077
10867W        W82538   5.473  25.035   4.646
10868W        W82539  40.297  25.116   0.686
10869W        W82540  39.937  44.455  10.568
10870W        W82541  22.677  30.862  11.041
10871W        W82542  14.743  29.271   9.905
10872W        W82543  17.940   0.430  14.853
10873W        W82544  28.463  12.251  12.950
10874W        W82545   3.321  23.808   4.079
10875W        W82546  41.665  14.113  10.499
10876W        W82547   6.767  44.288  12.068
10877W        W82548  34.953  24.390  14.436
10878W        W82549   7.345  12.258  10.983
10879W        W82550  13.584  12.379   1.171
10880W        W82551  14.226  22.563   1.401
10881W        W82552   4.221  14.331   0.583
10882W        W82553  25.375   1.946  11.530
10883W        W82554  36.185  13.222   1.600
10884W        W82555   4.922   7.321   0.750
10885W        W82556  25.957  43.906   2.178
10886W        W82557  13.220  13.357   1.782
10887W        W82558  24.057  33.047  14.474
10888W        W82559   2.184  42.910  13.583
10889W        W82560  36.588  26.167  12.519
10890W        W82561  30.246  12.818  11.556
10891W        W82562  31.240   5.221   3.144
10892W        W82563  18.533  24.511   5.545
10893W        W82564  31.073  31.709   4.916
10894W        W82565  30.496  18.443   1.279
10895W        W82566  15.177   2.935  13.342
10896W        W82567   6.780  32.855  11.621
10897W        W82568  18.332  26.888   1.737
10898W        W82569  25.953   8.580   4.263
10899W        W82570  38.052  27.707   3.372
10900W        W82571  14.546  44.063  11.694
10901W        W82572  18.798  22.212   1.409
10902W        W82573  26.435  12.639  11.576
10903W        W82574   8.426  30.671   4.909
10904W        W82575  15.719  40.500   3.240
10905W        W82576  25.298  11.072  11.498
10906W        W82577  34.935   8.016   0.332
10907W        W82578  28.010  26.960   1.193
10908W        W82579   9.094   1.761  11.416
10909W        W82580  30.833  32.944   2.784
10910W        W82581  30.123   9.922  11.068
10911W        W82582  38.058  41.621  14.385
10912W        W82583  40.691  13.830  14.300
10913W        W82584  29.720  15.304  11.271
10914W        W82585  36.943  25.645   2.226
10915W        W82586  25.014  38.883   4.857
10916W        W82587  14.322  27.437   2.860
10917W        W82588  29.025   2.438  11.620
10918W        W82589  17.582  38.617  12.887
10919W        W82590  33.623  41.302   5.477
10920W        W82591  42.955  23.213   2.291
10921W        W82592  35.573   0.739  14.320
10922W        W82593  42.932  44.496   4.223
10923W        W82594  19.697  14.351   1.672
10924W        W82595  22.980  37.415   1.986
10925W        W82596  12.481  28.082   1.855
10926W        W82597  17.454  19.450  11.021
10927W        W82598  22.232  37.800  14.381
10928W        W82599  18.431   2.753   4.406
10929W        W82600  37.918  36.688  14.398
10930W        W82601   5.455  26.224  13.839
10931W        W82602  39.977  26.460   4.581
10932W        W82603   9.656  30.475   1.516
10933W        W82604  20.197  32.414  12.294
10934W        W82605  39.455  29.224  10.990
10935W        W82606  15.095  35.601   4.106
10936W        W82607   5.240  13.700  13.125
10937W        W82608  25.982  16.126  13.629
10938W        W82609  38.900  21.132  14.481
10939W        W82610  41.863  37.585  13.147
10940W        W82611  16.105   1.688   4.488
10941W        W82612  25.466  10.355  12.535
10942W        W82613   0.946  37.884   1.601
10943W        W82614  35.542  30.366   3.106
10944W        W82615  20.225  22.252  14.908
10945W        W82616   3.705  16.570  10.646
10946W        W82617  26.345  20.515  11.253
10947W        W82618  44.596   9.653  14.559
10948W        W82619  24.089  26.479  11.623
10949W        W82620   3.878  15.230   2.398
10950W        W82621   3.620  39.541   0.412
10951W        W82622  15.232  22.524  13.957
10952W        W82623  24.036  23.637   1.615
10953W        W82624  40.838  44.107   0.268
10954W        W82625  30.822  24.031   0.783
10955W        W82626   1.549   6.358  12.446
10956W        W82627   5.533  22.497  12.008
10957W        W82628  42.401   3.035   0.265
10958W        W82629  15.950   3.684  11.514
10959W        W82630  32.870  35.507  10.976
10960W        W82631  23.736  14.919  13.559
10961W        W82632  10.551  17.844   4.685
10962W        W82633   9.851  31.686   1.648
10963W        W82634  34.820  24.663  14.870
10964W        W82635  40.809  16.615   4.245
10965W        W82636  20.035   1.927   2.880
10966W        W82637   6.001  39.583  10.728
10967W        W82638  39.361  29.963  14.577
10968W        W82639   3.119  44.994  14.259
10969W        W82640  27.933   1.087  12.857
10970W        W82641  35.100  20.631   4.635
10971W        W82642  38.535  30.957   4.614
10972W        W82643  35.318   1.134   1.878
10973W        W82644  13.395  30.635   5.049
10974W        W82645  31.496   0.026   4.544
10975W        W82646  21.977  13.394   1.355
10976W        W82647   6.836  14.714   3.626
10977W        W82648  35.301  17.426   2.956
10978W        W82649  22.022  34.141  12.909
10979W        W82650  44.424  42.340  14.598
10980W        W82651  11.525  22.797  12.980
10981W        W82652   5.102  23.838   2.643
10982W        W82653  44.479  13.132   3.993
10983W        W82654   3.629   7.309  11.186
10984W        W82655  11.212  30.961   3.523
10985W        W82656   2.802  10.136  12.586
10986W        W82657   8.442  22.648   2.381
10987W        W82658   0.996  34.665   1.373
10988W        W82659  42.801  27.091   4.129
10989W        W82660  15.857   7.284  14.022
10990W        W82661  16.110  23.192   1.375
10991W        W82662  17.773   8.873  12.504
10992W        W82663  11.703   7.908   2.781
10993W        W82664   3.843  16.354  12.683
10994W        W82665  22.034  36.944  10.566
10995W        W82666  44.940  34.139   3.894
10996W        W82667  17.655  27.704   1.805
10997W        W82668   8.179  21.576  10.713
10998W        W82669  29.488  35.548   2.006
10999W        W82670   3.158  31.368  13.227
11000W        W82671  20.801  38.936   1.452
11001W        W82672  41.937  29.978  14.432
11002W        W82673  17.847  29.375   4.118
11003W        W82674  20.714   6.373   3.639
11004W        W82675  32.960  16.399  13.830
11005W        W82676   8.632   3.795   4.320
11006W        W82677  28.175  10.734   1.149
11007W        W82678  28.976  27.411  11.664
11008W        W82679   2.227  41.003  10.677
11009W        W82680  29.554  40.113   3.834
11010W        W82681  20.747  36.763   4.662
11011W        W82682  22.527  25.118  10.704
11012W        W82683   2.724  33.174   1.462
11013W        W82684  25.110  30.912  12.427
11014W        W82685  41.310   1.470  11.079
11015W        W82686  12.329  10.349   4.891
11016W        W82687  37.026  22.463  12.552
11017W        W82688  37.139   2.997  14.499
11018W        W82689  20.660   1.876  13.461
11019W        W82690   4.461   0.451   4.145
11020W        W82691  28.234  42.798  10.687
11021W        W82692  15.037   1.892  12.833
11022W        W82693  44.990  12.793  14.455
11023W        W82694  21.456   7.287   1.070
11024W        W82695   6.868  12.305  11.395
11025W        W82696   4.911   3.098  13.759
11026W        W82697  36.112  27.064  14.299
11027W        W82698  33.261  39.088  11.976
11028W        W82699  44.559   0.435   9.825
11029W        W82700  36.090  41.156  13.958
11030W        W82701  43.894   3.005   2.802
11031W        W82702  13.755  10.289   0.182
11032W        W82703   4.320  38.383  11.367
11033W        W82704   6.691  22.969   1.878
11034W        W82705  33.455  15.062   2.790
11035W        W82706  20.088  30.218  12.421
11036W        W82707  15.243  38.012   0.876
11037W        W82708   7.833  41.060   3.547
11038W        W82709  33.436  27.118  12.408
11039W        W82710   1.345   2.147   1.468
11040W        W82711  36.960  18.346   1.856
11041W        W82712  40.270  43.350  12.339
11042W        W82713   1.661  30.219  14.280
11043W        W82714  14.329  32.499   0.851
11044W        W82715   6.899  34.863   1.440
11045W        W82716  21.247  29.118   0.252
11046W        W82717  37.756   7.228  10.148
11047W        W82718   7.174   8.101  13.940
11048W        W82719  38.859  29.190   1.426
11049W        W82720  19.148  27.619   3.105
11050W        W82721   8.262  34.912  11.504
11051W        W82722  26.582  37.914  14.002
11052W        W82723  27.199  28.073  10.657
11053W        W82724   7.903  44.539   4.159
11054W        W82725  18.379  40.738  13.135
11055W        W82726  37.831   8.775  11.470
11056W        W82727  21.237   8.460   0.892
11057W        W82728  38.312  40.494  11.070
11058W        W82729  22.720  29.889  12.931
11059W        W82730  35.110   4.953  11.545
11060W        W82731   6.433  27.490   1.260
11061W        W82732  44.712  15.365   2.747
11062W        W82733  23.512  30.981  13.223
11063W        W82734  13.304  37.949   3.039
11064W        W82735  34.639   8.756  10.946
11065W        W82736   4.757   0.230   1.728
11066W        W82737  30.652  29.432  11.279
11067W        W82738  44.122  25.477   0.185
11068W        W82739   9.752  11.421  12.385
11069W        W82740  38.878  18.732  12.009
11070W        W82741  15.611  21.242  10.622
11071W        W82742  16.402  10.441  14.772
11072W        W82743  35.483  10.250  13.248
11073W        W82744  33.616   5.161  14.810
11074W        W82745   7.835  32.885   4.833
11075W        W82746  11.588  20.771  12.512
11076W        W82747   8.806  36.601   4.534
11077W        W82748   1.271   5.662   2.393
11078W        W82749  28.104   2.495   1.404
11079W        W82750  35.635  36.094  11.481
11080W        W82751  15.862  17.387  13.447
11081W        W82752   5.219  23.120   0.172
11082W        W82753  41.811  13.855   3.173
11083W        W82754   7.965  42.838  14.954
11084W        W82755  33.293   2.816   0.431
11085W        W82756  31.967  10.109  11.640
11086W        W82757   7.936  13.064   4.760
11087W        W82758  33.397   0.688   1.944
11088W        W82759  17.724   6.443   1.898
11089W        W82760  35.555  29.082  12.853
11090W        W82761  16.751  40.367   1.313
11091W        W82762  33.620   8.873  11.634
11092W        W82763   5.619   2.463   2.783
11093W        W82764  16.661  12.745   4.235
11094W        W82765  12.712  40.858   1.549
11095W        W82766   8.098  20.300  14.776
11096W        W82767  19.494  38.476  10.729
11097W        W82768  35.598  35.983  12.336
11098W        W82769  15.575  25.373   5.053
11099W        W82770   8.254  34.091   4.262
11100W        W82771  27.675  37.346   1.890
11101W        W82772  25.883  23.537  12.547
11102W        W82773  11.631  30.150  12.937
11103W        W82774   4.996  36.491   3.818
11104W        W82775   5.301  44.574  14.467
11105W        W82776  31.391  11.728   3.773
11106W        W82777  28.858  19.170   2.220
11107W        W82778  12.275  26.674  14.394
11108W        W82779  27.944  41.936  11.989
11109W        W82780  38.574  16.666  13.889
11110W        W82781   9.123  43.639  14.852
11111W        W82782  13.858  44.028  12.219
11112W        W82783  18.791  39.240   4.990
11113W        W82784  42.478  21.632  10.654
11114W        W82785  31.218  11.292  14.368
11115W        W82786   4.405  27.742  14.802
11116W        W82787  40.502   7.715   4.405
11117W        W82788  28.484  35.626   1.825
11118W        W82789  24.180  23.786   3.161
11119W        W82790   5.718  28.172  11.169
11120W        W82791  43.020  17.326  10.648
11121W        W82792  29.584   3.775  13.507
11122W        W82793  32.364  11.831  12.893
11123W        W82794   6.817  25.976  13.775
11124W        W82795  44.686  42.442  10.510
11125W        W82796  10.360  29.085  11.381
11126W        W82797   4.721  43.767   1.965
11127W        W82798  17.256   6.992  13.669
11128W        W82799  10.858   7.636   4.112
11129W        W82800  22.688  37.336  11.548
11130W        W82801  17.103  11.802  14.977
11131W        W82802  38.475  10.406   3.210
11132W        W82803  17.142  28.615   2.979
11133W        W82804  42.797  26.051  12.957
11134W        W82805  12.657  15.156   3.304
11135W        W82806  11.101  23.282  13.694
11136W        W82807   3.090  18.205   3.380
11137W        W82808  44.327  38.544  11.082
11138W        W82809  34.898  23.609  12.885
11139W        W82810  26.175  11.565  14.530
11140W        W82811  41.475  37.470   1.896
11141W        W82812  17.541  35.773   4.674
11142W        W82813  16.690   0.695   0.462
11143W        W82814  44.084  27.975   1.150
11144W        W82815  38.905  40.837  11.619
11145W        W82816  28.525  37.417   3.584
11146W        W82817   0.041  38.463  11.575
11147W        W82818  41.407  41.450   2.935
11148W        W82819  23.783  29.418  13.354
11149W        W82820   6.681  43.346  11.599
11150W        W82821  38.422   0.458   4.591
11151W        W82822  40.630  40.073   3.770
11152W        W82823  17.811  14.757  11.036
11153W        W82824  30.940  12.223   3.319
11154W        W82825  38.407   3.509  12.883
11155W        W82826  22.216  20.681  14.826
11156W        W82827   5.970  38.566  12.661
11157W        W82828  44.438  41.835  12.948
11158W        W82829  13.707  27.046  13.857
11159W        W82830  12.022  42.068   4.365
11160W        W82831  40.523  41.565  11.642
11161W        W82832  12.334  37.213   0.976
11162W        W82833   5.755  41.265  13.941
11163W        W82834  15.310   8.418  12.831
11164W        W82835  24.945  29.983   2.376
11165W        W82836  37.434  39.497  14.779
11166W        W82837   4.768  34.903  14.830
11167W        W82838  12.197  33.419  11.489
11168W        W82839  42.061  10.221   3.141
11169W        W82840   3.957  37.021  13.865
11170W        W82841  23.513  24.489   4.199
11171W        W82842   4.362  10.051   3.251
11172W        W82843   9.194   3.661  13.068
11173W        W82844  17.138  44.757  11.480
11174W        W82845   2.409  21.609  11.391
11175W        W82846   7.262  39.788  13.311
11176W        W82847  16.075  31.057   0.612
11177W        W82848  35.015  39.772  12.836
11178W        W82849  35.680   1.383  11.992
11179W        W82850   9.378  36.753   3.347
11180W        W82851  12.160   7.723   2.654
11181W        W82852  37.916  16.083  12.439
11182W        W82853   9.182  41.821   0.424
11183W        W82854   8.039  12.462  13.919
11184W        W82855   4.855  31.107  12.201
11185W        W82856  39.444  26.426  13.781
11186W        W82857  23.379  39.829  12.799
11187W        W82858  15.359  30.589   1.966
11188W        W82859  18.773  10.435   3.356
11189W        W82860  29.400  21.147   3.036
11190W        W82861  18.182  19.795   2.881
11191W        W82862   2.512  15.664   4.228
11192W        W82863  32.852  24.604  10.973
11193W        W82864  21.657  24.012   1.399
11194W        W82865  40.310   2.181  12.503
11195W        W82866  37.515  31.673  14.863
11196W        W82867  16.219  25.473   4.549
11197W        W82868   5.092   1.734   0.978
11198W        W82869  31.239  16.754  14.160
11199W        W82870  42.579  10.238   3.199
11200W        W82871  32.021  29.133   0.129
11201W        W82872   4.825  12.334   1.740
11202W        W82873  28.637  27.895  14.277
11203W        W82874  13.376  27.642  11.679
11204W        W82875   8.730  40.556  12.470
11205W        W82876  29.449  42.279  10.988
11206W        W82877  14.415  21.098  14.476
11207W        W82878  44.444  33.044   1.251
11208W        W82879  42.706   2.022   0.982
11209W        W82880  31.417  12.924   3.788
11210W        W82881   2.059  19.564   2.624
11211W        W82882   1.690  14.939   0.827
11212W        W82883  40.361  11.289   4.589
11213W        W82884   1.346  13.233   4.181
11214W        W82885  34.421   3.692  13.787
11215W        W82886  31.902   9.051   5.057
11216W        W82887  24.493  41.188  13.765
11217W        W82888   7.255   1.846   2.171
11218W        W82889  38.358   7.398  10.666
11219W        W82890   6.968   4.795   2.831
11220W        W82891  37.880   6.252  13.602
11221W        W82892   1.073  14.825   4.387
11222W        W82893  10.609  29.993   1.917
11223W        W82894  29.883  29.425   2.934
11224W        W82895   7.347  24.680  14.852
11225W        W82896  13.518  23.481   4.161
11226W        W82897  16.647  41.950   0.933
11227W        W82898  28.115   4.468  12.419
11228W        W82899   2.319   2.326  13.605
11229W        W82900   7.748   8.684   1.929
11230W        W82901  14.197   1.940  10.973
11231W        W82902  27.949   1.439  14.818
11232W        W82903   6.271  26.693  13.881
11233W        W82904  21.173  39.600   3.149
11234W        W82905  37.748  33.184  13.976
11235W        W82906  23.129  33.800   1.892
11236W        W82907  12.757   7.954   2.389
11237W        W82908  27.416  40.888   0.422
11238W        W82909   2.924  27.971  14.260
11239W        W82910  43.245  11.674  14.950
11240W        W82911  22.741  22.053   0.883
11241W        W82912   4.669  36.415  10.589
11242W        W82913  28.006   4.483   0.002
11243W        W82914   9.480  19.217  14.503
11244W        W82915   4.938   9.700  12.124
11245W        W82916  14.120  33.991  13.757
11246W        W82917  23.902   4.408   2.177
11247W        W82918  31.730  31.867   0.245
11248W        W82919  21.676  21.628   2.850
11249W        W82920  20.768  34.892  12.020
11250W        W82921  21.050  25.497  13.961
11251W        W82922  12.321   1.244  12.029
11252W        W82923  37.827  26.596  10.717
11253W        W82924   7.638  38.777  12.861
11254W        W82925  35.028  27.430   0.236
11255W        W82926   0.068  26.564  11.566
11256W        W82927   4.551   7.364   4.549
11257W        W82928  15.438  24.768  11.239
11258W        W82929  27.743  22.663   3.702
11259W        W82930  28.796   2.224   1.906
11260W        W82931  11.399  10.739   4.682
11261W        W82932   1.523  33.831   1.159
11262W        W82933  17.585  28.954  13.133
11263W        W82934  37.114   3.447  11.684
11264W        W82935   5.654  28.554  13.805
11265W        W82936  26.077  30.924  12.969
11266W        W82937  42.846  38.896   2.533
11267W        W82938  32.365  29.964  14.814
11268W        W82939   1.533  17.769   4.699
11269W        W82940   7.869  31.481   4.919
11270W        W82941  35.772  40.925   0.240
11271W        W82942  26.479  28.300   0.536
11272W        W82943  42.449  19.070  12.361
11273W        W82944  25.283  25.472   5.037
11274W        W82945  34.626  24.493   1.212
11275W        W82946   6.668  40.366   3.846
11276W        W82947  14.887  10.023  10.717
11277W        W82948   1.202  17.062  10.617
11278W        W82949   9.426  31.762   2.229
11279W        W82950   4.264  37.640   1.298
11280W        W82951  25.103   7.678  13.371
11281W        W82952  20.282  22.722  11.763
11282W        W82953  18.604  42.813  14.416
11283W        W82954  38.412   7.772  12.084
11284W        W82955   5.650   2.781   1.424
11285W        W82956   5.389  10.751   2.595
11286W        W82957  43.765  33.993   3.650
11287W        W82958  19.690   2.028   4.298
11288W        W82959   3.450  32.974  13.323
11289W        W82960  20.209  20.267  10.741
11290W        W82961  30.984  38.081  13.979
11291W        W82962  37.481  35.234  11.493
11292W        W82963  28.401  18.309   2.868
11293W        W82964   9.903  36.675   3.262
11294W        W82965   8.358   6.796   4.722
11295W        W82966  33.363  19.054  14.331
11296W        W82967   8.899  39.397  11.009
11297W        W82968  26.664  14.461  11.168
11298W        W82969  15.596  27.493   4.799
11299W        W82970  36.611  30.712  13.397
11300W        W82971  43.071  11.019  11.910
11301W        W82972  27.426  20.134  11.641
11302W        W82973  42.911  20.105   0.860
11303W        W82974  12.172   8.850   3.656
11304W        W82975  33.510  38.954  11.529
11305W        W82976  43.262  35.182  11.581
11306W        W82977  43.436  22.666   1.347
11307W        W82978  43.547   1.368   3.280
11308W        W82979  37.653  36.350   3.603
11309W        W82980  39.861  17.039  13.569
11310W        W82981  38.079  43.088  14.869
11311W        W82982  40.345   5.233  12.447
11312W        W82983  29.592  43.937   2.823
11313W        W82984  43.266  22.197   4.179
11314W        W82985  39.543  13.615   2.662
11315W        W82986  41.750  43.572  13.344
11316W        W82987  19.260  29.957  12.940
11317W        W82988  20.474  33.398   1.349
11318W        W82989  30.448  38.427  14.299
11319W        W82990  29.221  30.186  11.763
11320W        W82991  29.987   0.687  14.685
11321W        W82992  38.530  43.859  10.959
11322W        W82993  24.028  28.077  13.518
11323W        W82994  24.751  22.538  14.013
11324W        W82995   2.700  13.256  13.557
11325W        W82996  34.985  31.717  12.139
11326W        W82997  28.152  24.257   0.349
11327W        W82998  18.857  22.182   0.337
11328W        W82999  29.682  10.284   4.888
11329W        W83000  41.917   4.330   0.558
11330W        W83001  30.685  20.394  12.861
11331W        W83002   3.910   2.740   2.123
11332W        W83003  31.099   6.685  14.219
11333W        W83004  11.859   4.911  13.616
11334W        W83005  14.326  33.070   4.703
11335W        W83006  41.618  30.170   2.390
11336W        W83007  14.391  27.548  10.717
11337W        W83008   7.225  13.791  14.732
11338W        W83009  23.983  11.236  10.732
11339W        W83010  15.053  22.507  14.484
11340W        W83011   2.971   2.290   2.737
11341W        W83012  16.711   0.050  12.096
11342W        W83013  12.423  19.010  12.536
11343W        W83014   9.268  36.858   2.840
11344W        W83015  28.604  24.712  11.126
11345W        W83016  36.730  21.466   3.173
11346W        W83017  28.511  39.067   2.956
11347W        W83018  26.632  13.116  14.109
11348W        W83019  26.054   4.633  11.246
11349W        W83020  30.238  18.057  11.686
11350W        W83021  36.516  11.779  10.883
11351W        W83022  32.918  37.463   3.189
11352W        W83023  32.173  35.651  11.601
11353W        W83024  23.597  43.459   4.795
11354W        W83025  39.487  42.837  13.486
11355W        W83026  17.214  32.927   3.328
11356W        W83027  26.702   4.900  13.565
11357W        W83028   3.927  41.305   4.482
11358W        W83029  11.727   8.145   4.018
11359W        W83030   1.352   7.348   0.402
11360W        W83031  41.916  44.490   0.881
11361W        W83032  39.904  29.593  14.247
11362W        W83033  27.801  27.415  14.097
11363W        W83034   5.928  10.747   1.387
11364W        W83035  40.581   1.370  14.432
11365W        W83036  17.625   4.230   1.789
11366W        W83037  42.568  25.680  13.446
11367W        W83038   7.835  13.803   3.181
11368W        W83039  28.747   3.869  11.035
11369W        W83040  20.341  21.157   3.235
11370W        W83041  24.018   6.055   2.721
11371W        W83042  42.231  40.491   1.889
11372W        W83043  39.532  15.800  11.940
11373W        W83044   3.768  38.633   3.441
11374W        W83045  33.419   3.274  11.088
11375W        W83046  18.223  40.138  11.259
11376W        W83047  12.871  20.465  11.147
11377W        W83048  34.572  25.127  12.523
11378W        W83049   4.735   8.430  12.470
11379W        W83050  21.943   8.638  11.914
11380W        W83051   5.497  41.489  10.853
11381W        W83052  18.119  21.838  12.590
11382W        W83053  21.961  38.972   4.807
11383W        W83054  38.588  43.524  14.299
11384W        W83055  38.320  40.314   3.608
11385W        W83056  17.075  40.782  13.449
11386W        W83057  36.077  20.017   2.887
11387W        W83058  32.717   9.699   4.069
11388W        W83059  29.446   2.853   3.478
11389W        W83060  10.375  22.471  13.613
11390W        W83061  40.584  31.522  14.628
11391W        W83062  42.286  27.458   1.227
11392W        W83063  43.194  30.902   1.825
11393W        W83064  40.315  43.891  10.656
11394W        W83065   4.843  26.721   1.809
11395W        W83066   8.859  24.106   0.356
11396W        W83067   3.169  22.690   1.446
11397W        W83068   6.356   0.188  11.409
11398W        W83069   6.310  35.862   2.834
11399W        W83070  25.618   8.317  13.014
11400W        W83071  18.486  42.726   5.104
11401W        W83072   7.253  11.421   2.743
11402W        W83073   0.384  18.255  14.833
11403W        W83074  10.948   1.370   4.123
11404W        W83075   0.273  20.115  13.348
11405W        W83076   5.948   3.051   1.751
11406W        W83077  43.663  44.867  12.248
11407W        W83078  43.062  34.973  14.877
11408W        W83079   7.346   5.665   1.924
11409W        W83080   1.997  17.798  13.499
11410W        W83081  44.897  17.094  10.963
11411W        W83082  12.254  21.862   3.546
11412W        W83083  25.717  20.676   0.551
11413W        W83084   5.727  13.036   2.664
11414W        W83085  21.458  43.239   1.265
11415W        W83086   2.826  33.390  11.745
11416W        W83087  14.784  37.771  10.979
11417W        W83088   5.019  14.894  10.345
11418W        W83089  27.115   9.137  13.363
11419W        W83090   9.821   7.943   0.081
11420W        W83091   9.790  14.217   0.508
11421W        W83092  15.425   6.865   5.268
11422W        W83093  42.024   8.150  11.261
11423W        W83094  38.618   6.522  12.903
11424W        W83095  16.683  32.023  11.454
11425W        W83096  23.696   0.829   1.001
11426W        W83097   4.758  25.134  12.237
11427W        W83098  23.402   7.254  12.028
11428W        W83099  21.610  44.715   1.254
11429W        W83100   8.439  38.220  11.754
11430W        W83101  23.126  36.262   2.851
11431W        W83102  16.798  31.529   4.627
11432W        W83103  38.940  37.476   4.676
11433W        W83104  13.566  30.057  14.304
11434W        W83105   2.194  14.690  13.409
11435W        W83106   9.354  33.963   1.103
11436W        W83107  17.814  10.545  14.818
11437W        W83108  17.557  11.278   0.047
11438W        W83109  19.266  25.969  13.365
11439W        W83110  39.703  28.584   3.179
11440W        W83111  27.388  39.844   1.955
11441W        W83112  23.905  37.378  13.299
11442W        W83113  38.482  20.366   4.192
11443W        W83114   0.195   5.248   3.216
11444W        W83115  21.573  26.049  14.819
11445W        W83116  20.040  44.283  10.365
11446W        W83117   1.670  32.938  12.945
11447W        W83118   4.570  26.108  11.502
11448W        W83119  36.545  18.060  11.494
11449W        W83120   9.306  28.882  11.025
11450W        W83121  39.318  22.256  12.205
11451W        W83122   2.371  24.972   0.772
11452W        W83123  18.586   0.271   0.939
11453W        W83124  32.034  15.568   0.790
11454W        W83125  35.921   5.661  14.788
11455W        W83126  26.707   9.654   1.385
11456W        W83127  17.190  19.918  11.030
11457W        W83128  30.167  11.276  13.392
11458W        W83129   0.693  16.145   2.202
11459W        W83130  22.985  16.708  13.979
11460W        W83131  33.627  15.653  14.329
11461W        W83132   6.755  25.504   2.376
11462W        W83133  13.199   7.060  13.476
11463W        W83134  42.861   4.736  14.277
11464W        W83135   3.854   9.914   0.764
11465W        W83136  41.943  15.353   3.917
11466W        W83137  22.783  20.268   0.385
11467W        W83138  22.274  14.665  10.719
11468W        W83139  28.963  13.561   2.277
11469W        W83140  20.279  19.974   3.289
11470W        W83141  36.921   8.441  11.796
11471W        W83142  43.943  28.432  14.359
11472W        W83143   1.645  32.544  13.799
11473W        W83144  17.545  18.273  13.954
11474W        W83145  25.943  21.068   1.332
11475W        W83146  18.738  20.623   4.563
11476W        W83147  16.307   7.788   3.231
11477W        W83148   3.005  25.568  12.587
11478W        W83149  23.226  43.594   1.745
11479W        W83150   6.182  26.536  14.902
11480W        W83151  19.819  29.148  10.612
11481W        W83152  37.912  40.031   0.988
11482W        W83153  11.857  26.068   2.732
11483W        W83154  33.148  37.251   1.369
11484W        W83155   1.946  20.846  14.472
11485W        W83156  15.619  41.918   0.856
11486W        W83157  29.059  12.338   1.387
11487W        W83158  32.132  30.969   0.517
11488W        W83159  16.263  23.222   4.832
11489W        W83160   8.159   7.832  14.825
11490W        W83161  42.814  38.870  10.992
11491W        W83162   8.732  10.316   2.751
11492W        W83163  11.452   2.363   0.892
11493W        W83164  21.672  12.512   0.345
11494W        W83165  11.358  12.731   1.214
11495W        W83166  31.930  10.376   2.171
11496W        W83167  26.255  29.028   3.222
11497W        W83168  28.485  17.670   0.511
11498W        W83169  20.348   3.353  14.242
11499W        W83170  39.006  21.805   3.219
11500W        W83171  37.459   5.182   3.787
11501W        W83172  17.088  39.872   2.457
11502W        W83173  10.770  41.510  14.126
11503W        W83174  19.866  25.575   0.805
11504W        W83175  32.903  28.014   2.324
11505W        W83176  19.863  15.379  10.675
11506W        W83177  11.197  38.017  12.524
11507W        W83178  20.122  23.626  14.937
11508W        W83179  31.405  44.084  11.233
11509W        W83180   5.639  15.561  14.930
11510W        W83181  18.667   4.263   0.057
11511W        W83182  42.508  42.451   3.184
11512W        W83183   4.862   5.399   3.932
11513W        W83184   2.427  30.923   3.180
11514W        W83185  40.952   4.569   3.109
11515W        W83186  42.168  17.239   2.831
11516W        W83187  31.354  35.321   3.126
11517W        W83188  28.546  19.700   5.178
11518W        W83189  27.510  28.862  13.416
11519W        W83190  43.741  36.868  13.592
11520W        W83191  44.415  42.953   3.685
11521W        W83192  20.681  22.478  11.154
11522W        W83193   2.859  26.285  11.962
11523W        W83194  10.111  30.086  14.759
11524W        W83195  24.250   8.585  11.069
11525W        W83196   4.270  29.560  10.609
11526W        W83197  38.329  16.238  12.735
11527W        W83198   2.577  24.080   0.729
11528W        W83199  29.879  24.306   3.162
11529W        W83200  14.036  17.049  11.219
11530W        W83201   7.481  28.464  10.999
11531W        W83202  43.116   3.923   1.699
11532W        W83203   9.745   3.492   2.257
11533W        W83204  43.253  38.597  11.168
11534W        W83205   0.751  38.975  14.845
11535W        W83206   1.060  28.598  14.153
11536W        W83207  43.030  23.628   3.399
11537W        W83208  39.896  16.557  10.821
11538W        W83209   8.846  42.430  11.886
11539W        W83210  24.517  19.172   2.740
11540W        W83211  19.340  37.784   2.375
11541W        W83212  29.129  35.619  12.034
11542W        W83213  13.944  38.073  12.926
11543W        W83214  40.083  41.405  11.919
11544W        W83215  11.288   8.645   1.143
11545W        W83216  14.847  34.485  13.579
11546W        W83217   2.295  24.500  14.853
11547W        W83218  42.370   6.610   2.756
11548W        W83219  12.639  22.732   3.266
11549W        W83220   7.284   1.982   0.950
11550W        W83221  37.570  38.500   4.110
11551W        W83222  27.410  41.895   1.948
11552W        W83223  32.011  35.485  13.011
11553W        W83224  31.588  26.865   2.442
11554W        W83225  21.104  25.002   0.830
11555W        W83226  12.642  10.747  10.717
11556W        W83227   7.359  29.006   2.811
11557W        W83228  10.043  11.313   4.783
11558W        W83229   2.707  38.398   2.421
11559W        W83230  42.542  11.765  14.422
11560W        W83231  24.151  24.528   1.140
11561W        W83232  12.698  30.014  11.513
11562W        W83233   7.887  34.895   0.469
11563W        W83234  32.102  40.066   0.033
11564W        W83235  38.381  34.602  11.586
11565W        W83236  22.122   1.329   1.654
11566W        W83237  25.950  15.213   0.196
11567W        W83238  33.798  29.110  14.415
11568W        W83239   2.258   4.159   1.230
11569W        W83240  14.748   1.605   3.169
11570W        W83241  44.320  25.226  11.965
11571W        W83242  25.015   4.382   2.832
11572W        W83243   8.689   2.361   1.452
11573W        W83244  34.157  10.724  13.411
11574W        W83245  39.495  10.773   0.927
11575W        W83246  19.954  23.636   3.222
11576W        W83247  19.229  23.705  12.796
11577W        W83248  11.936  16.075  14.838
11578W        W83249  20.634  40.908   0.981
11579W        W83250  42.866  14.560  13.841
11580W        W83251   5.236  19.491   2.361
11581W        W83252   8.720  31.577   0.028
11582W        W83253  14.728  13.858  14.159
11583W        W83254   9.515  44.194  11.048
11584W        W83255  17.122  27.866   1.727
11585W        W83256   9.630  31.772  11.203
11586W        W83257  37.676   4.401   4.142
11587W        W83258  28.295  26.397  11.271
11588W        W83259  16.652  27.689  12.365
11589W        W83260   9.707  44.465  10.630
11590W        W83261  38.857  23.978  11.017
11591W        W83262  24.439  35.970   3.669
11592W        W83263  32.547  36.885  12.917
11593W        W83264  41.120  17.324   2.714
11594W        W83265  38.948   2.519  11.144
11595W        W83266  12.464   8.897  14.404
11596W        W83267  43.293  32.455   3.585
11597W        W83268  29.473  34.822   3.648
11598W        W83269  43.730   2.543   4.906
11599W        W83270  18.718  35.028  11.906
11600W        W83271  30.523  22.097  13.979
11601W        W83272  26.386  34.791   1.792
11602W        W83273  22.048  16.308  13.297
11603W        W83274  27.928   7.577   4.086
11604W        W83275  30.364  23.335   2.292
11605W        W83276  34.364  20.562   1.603
11606W        W83277  44.072  20.374   3.786
11607W        W83278  34.875   9.558  11.669
11608W        W83279  24.432  27.293  12.617
11609W        W83280  31.032   6.118   2.350
11610W        W83281  41.558  38.591   4.688
11611W        W83282  34.336  32.132   3.683
11612W        W83283   3.416  10.145   0.888
11613W        W83284  36.869  14.710   1.731
11614W        W83285  10.141  25.372  12.459
11615W        W83286  40.062  15.685  10.236
11616W        W83287  11.088  38.453   1.393
11617W        W83288   6.764  27.232  13.048
11618W        W83289  27.862  31.522   0.834
11619W        W83290  17.541  13.925   9.712
11620W        W83291   3.769  20.557  12.932
11621W        W83292  36.794  22.440  13.073
11622W        W83293  12.743  20.631  14.175
11623W        W83294   4.310  33.391   1.806
11624W        W83295  29.225  33.899   1.279
11625W        W83296  29.236   5.189  12.440
11626W        W83297  15.250  23.502  13.881
11627W        W83298  27.955  39.516   1.384
11628W        W83299   3.902   5.226  12.018
11629W        W83300  12.851  29.889   4.675
11630W        W83301  13.836  29.987  13.872
11631W        W83302   0.233  32.957  13.032
11632W        W83303   9.149  31.317   2.356
11633W        W83304  44.549  30.951   4.577
11634W        W83305  27.982  42.609  13.119
11635W        W83306  14.124  40.775  14.520
11636W        W83307  21.954   5.857  11.947
11637W        W83308  18.762  23.446   2.172
11638W        W83309  14.867   7.970  10.425
11639W        W83310   4.253  44.764   2.845
11640W        W83311  28.944  32.933  12.871
11641W        W83312  40.385  35.500   2.371
11642W        W83313  18.203  14.351  14.001
11643W        W83314  38.065  38.887  14.367
11644W        W83315  15.664   3.503  13.802
11645W        W83316  14.127  14.032   4.549
11646W        W83317   9.185   2.991   4.288
11647W        W83318  29.135  41.935  14.476
11648W        W83319   9.604   2.837   4.571
11649W        W83320  14.068  38.805   4.048
11650W        W83321   9.393   9.877   1.065
11651W        W83322  33.549   8.412   0.357
11652W        W83323  35.060  13.247   3.157
11653W        W83324   6.396  18.449   0.975
11654W        W83325  10.415  21.827  12.398
11655W        W83326  44.357   5.680  11.225
11656W        W83327   7.966  12.995  11.052
11657W        W83328  40.257  36.163   4.643
11658W        W83329  21.133  41.181   3.804
11659W        W83330  18.702  30.579  11.651
11660W        W83331  24.586  43.007   2.742
11661W        W83332   6.663  16.241   3.697
11662W        W83333  17.545  41.997   0.711
11663W        W83334  44.105  36.097  13.342
11664W        W83335  40.555  22.014   2.699
11665W        W83336  15.326  42.570   3.850
11666W        W83337  23.616  24.716  12.415
11667W        W83338  36.650   1.721   0.855
11668W        W83339  38.315  38.027   4.132
11669W        W83340  15.087  32.004  14.071
11670W        W83341  39.678  37.296  13.060
11671W        W83342   9.774  42.638   4.491
11672W        W83343  43.706   6.705   1.594
11673W        W83344  22.824  14.832   4.968
11674W        W83345  22.041  32.416  13.425
11675W        W83346  29.034  35.861  14.152
11676W        W83347  21.584  39.438  11.039
11677W        W83348  26.964  35.501   0.217
11678W        W83349  41.046  37.307   4.181
11679W        W83350  13.212  10.481  11.193
11680W        W83351  43.709  27.719  11.020
11681W        W83352  41.571  17.790   1.780
11682W        W83353  38.531  29.482   4.613
11683W        W83354   2.859  20.638  12.736
11684W        W83355  37.542  33.012  12.639
11685W        W83356  14.879  44.981   3.633
11686W        W83357  25.445  15.390  11.130
11687W        W83358  38.626   2.933   0.320
11688W        W83359   3.177   2.232   1.818
11689W        W83360  41.824  37.695   2.406
11690W        W83361  24.971  33.523  14.907
11691W        W83362  28.398   2.399  10.412
11692W        W83363  40.843  10.760  10.761
11693W        W83364  28.068  26.037   4.487
11694W        W83365  24.093  13.863   4.993
11695W        W83366  23.245   4.427  12.631
11696W        W83367   9.242  28.106   4.109
11697W        W83368  26.980   9.545  11.905
11698W        W83369  21.663  40.290   4.165
11699W        W83370  40.137   3.360  13.080
11700W        W83371  32.595  21.710   4.952
11701W        W83372  22.655  21.835   1.339
11702W        W83373   3.651  20.479   2.762
11703W        W83374  33.458  16.124   3.229
11704W        W83375  39.876  18.371   1.246
11705W        W83376  42.014  14.585  14.925
11706W        W83377  35.455  22.323   3.397
11707W        W83378  39.777   1.485   2.363
11708W        W83379   4.291   4.409  14.965
11709W        W83380   9.309  42.608  14.846
11710W        W83381  32.938   8.850  13.010
11711W        W83382  34.195   4.053  14.844
11712W        W83383  36.786   8.226   2.281
11713W        W83384   0.798  40.605  12.469
11714W        W83385  23.917  14.070  11.044
11715W        W83386  43.345  22.374   1.782
11716W        W83387   2.373  35.025  13.154
11717W        W83388  35.126  38.153   1.360
11718W        W83389  37.315  31.515   2.339
11719W        W83390   5.883   7.156   3.616
11720W        W83391  13.525  12.840  10.298
11721W        W83392   4.801  40.356   0.737
11722W        W83393  37.493   4.922  11.890
11723W        W83394  34.079  10.785  12.443
11724W        W83395  38.729   4.008  11.102
11725W        W83396   5.552   2.623   4.046
11726W        W83397  21.950  28.457  11.499
11727W        W83398   2.410  28.071  14.443
11728W        W83399  18.277  15.579  13.322
11729W        W83400  22.180  39.902  11.140
11730W        W83401  32.457  23.495  13.096
11731W        W83402  19.526  34.379  12.093
11732W        W83403  28.152  27.163  11.939
11733W        W83404  34.072  32.266   1.697
11734W        W83405   2.617  12.830   1.164
11735W        W83406  13.116  35.111  14.866
11736W        W83407  30.140  20.788  10.336
11737W        W83408  15.598  17.959   4.856
11738W        W83409  21.289   2.763   3.358
11739W        W83410  44.474   1.739   3.318
11740W        W83411  22.127   7.456  12.765
11741W        W83412  42.909   5.756  14.064
11742W        W83413  18.512  27.078  13.406
11743W        W83414   8.861  27.672   0.783
11744W        W83415  15.555  27.368  14.352
11745W        W83416  25.106  41.403   1.372
11746W        W83417  12.304  44.948   0.940
11747W        W83418  21.671  17.826  12.484
11748W        W83419  26.409  18.513  14.764
11749W        W83420  40.697  12.658   0.785
11750W        W83421  23.975  13.227   1.259
11751W        W83422  11.368   9.519   0.850
11752W        W83423   9.632  38.580   4.358
11753W        W83424  27.148  12.433  10.990
11754W        W83425  35.999  38.301  12.336
11755W        W83426  18.275  42.344   2.573
11756W        W83427   9.176  19.224  12.604
11757W        W83428  41.391  32.965  14.121
11758W        W83429  44.893  12.750  13.313
11759W        W83430   4.385  10.864  13.429
11760W        W83431  22.521   6.155   1.334
11761W        W83432  18.465   7.159  13.302
11762W        W83433  39.595  32.495   4.992
11763W        W83434  31.660  13.085  12.485
11764W        W83435  22.514  29.150  13.593
11765W        W83436  33.108  23.300   4.883
11766W        W83437   6.232  32.132   0.484
11767W        W83438  42.003  31.670   1.863
11768W        W83439  29.006  35.654   1.849
11769W        W83440  30.406  31.566   1.734
11770W        W83441  31.989  26.485  13.290
11771W        W83442   2.509  30.105   3.587
11772W        W83443  24.083  28.036  12.001
11773W        W83444  13.137  24.883   0.006
11774W        W83445  13.874   4.773   2.210
11775W        W83446  24.162  32.516   3.789
11776W        W83447   3.938  40.312   2.638
11777W        W83448  21.950  19.363   3.780
11778W        W83449  33.530  40.898  13.316
11779W        W83450   7.532  23.205   1.433
11780W        W83451   8.167  21.603  13.455
11781W        W83452  21.194  42.031  13.943
11782W        W83453  34.524  15.748   3.293
11783W        W83454   9.929  40.535   0.532
11784W        W83455  18.486  10.732   2.219
11785W        W83456  22.134  11.229   0.743
11786W        W83457   5.349  30.186  12.564
11787W        W83458  17.606  15.502  12.265
11788W        W83459   5.664   9.246   1.307
11789W        W83460  31.522  14.072   1.287
11790W        W83461  19.188  32.872  12.946
11791W        W83462   2.920  28.664  12.974
11792W        W83463  25.708   5.249  10.550
11793W        W83464  40.525  40.016   4.761
11794W        W83465  40.792  37.066   2.883
11795W        W83466   3.337  36.874  11.604
11796W        W83467  25.517  42.076  10.713
11797W        W83468  11.656   1.068   3.666
11798W        W83469  33.438  44.016   3.163
11799W        W83470   6.796  41.760  14.487
11800W        W83471  20.708  32.939   2.949
11801W        W83472  12.730  27.662   1.685
11802W        W83473  42.749  21.651  13.047
11803W        W83474  17.120  22.895   1.848
11804W        W83475  17.862  17.821   4.272
11805W        W83476  35.253   3.471   1.302
11806W        W83477   8.915  19.742   2.716
11807W        W83478   4.352  16.258   0.712
11808W        W83479   1.095   9.946  12.202
11809W        W83480   7.213  32.683   3.764
11810W        W83481   3.605  24.124  14.397
11811W        W83482  44.428  16.742   4.251
11812W        W83483  36.379  41.103  11.936
11813W        W83484  30.920  29.418  12.486
11814W        W83485  38.470   8.871   4.872
11815W        W83486  27.793   5.760  12.259
11816W        W83487   0.039  24.704  11.507
11817W        W83488  36.766   3.976  12.583
11818W        W83489  19.930  14.169   4.146
11819W        W83490  23.127  25.409  12.756
11820W        W83491   2.711  38.726  13.767
11821W        W83492  26.432  17.134   3.212
11822W        W83493  14.748  22.647  14.896
11823W        W83494   3.975  40.779   2.361
11824W        W83495  44.391  40.780   1.225
11825W        W83496  43.744  19.948  12.920
11826W        W83497  25.490  19.701   2.216
11827W        W83498   5.658  40.255  14.770
11828W        W83499  39.367  14.884   4.228
11829W        W83500  42.290   9.373   2.290
11830W        W83501   1.455  29.977  13.856
11831W        W83502  36.486  10.800  11.137
11832W        W83503  24.328   8.171   3.296
11833W        W83504   1.447   6.954   4.754
11834W        W83505  31.654   9.381   4.608
11835W        W83506  26.452  24.765  12.442
11836W        W83507   9.407  23.752  14.918
11837W        W83508  42.764   6.814  14.728
11838W        W83509  33.884  29.071  12.955
11839W        W83510  10.382  29.959   4.176
11840W        W83511  32.089  12.591   4.423
11841W        W83512  22.958  29.341   1.019
11842W        W83513  21.567   0.935  14.072
11843W        W83514  26.192   3.469  10.661
11844W        W83515  27.182  28.681   0.404
11845W        W83516  35.359  36.873   0.893
11846W        W83517   7.719  11.754   4.634
11847W        W83518  29.583   8.211   1.883
11848W        W83519   1.394  28.403  12.491
11849W        W83520  27.282   5.648  11.369
11850W        W83521  24.901  27.032  12.240
11851W        W83522  17.093  34.473  11.701
11852W        W83523   8.346  22.579  11.803
11853W        W83524  40.941  38.920   3.583
11854W        W83525  13.580  28.548  14.169
11855W        W83526  39.424  35.615   0.389
11856W        W83527  16.296   6.759  11.846
11857W        W83528  20.116   1.477   1.076
11858W        W83529  21.165  28.467   4.265
11859W        W83530  12.463  12.837   0.450
11860W        W83531  27.555  44.187   0.863
11861W        W83532   5.786  19.818   3.115
11862W        W83533  37.460  13.615  13.349
11863W        W83534  41.006  25.512   1.592
11864W        W83535   8.384  27.496   2.469
11865W        W83536   9.728  33.020  10.734
11866W        W83537  21.237  33.401  13.596
11867W        W83538  32.441  28.112   3.339
11868W        W83539  36.836  31.417   0.772
11869W        W83540  12.623   7.064  11.969
11870W        W83541   3.692  43.162  10.236
11871W        W83542  15.787  25.696   4.747
11872W        W83543  33.898  42.577  12.591
11873W        W83544  25.655  30.860   3.751
11874W        W83545   1.374   8.460   0.608
11875W        W83546  39.861  37.664  12.765
11876W        W83547  39.766  42.984   2.391
11877W        W83548  21.248   2.280  13.911
11878W        W83549  12.605  10.286   1.820
11879W        W83550   5.832  14.762  14.136
11880W        W83551  25.651  10.821  12.707
11881W        W83552  42.606  22.040  13.361
11882W        W83553  18.125  22.478   2.380
11883W        W83554  31.151  16.599   2.323
11884W        W83555  25.927  34.344  11.493
11885W        W83556   0.859  19.970  14.401
11886W        W83557  20.537  11.654  12.515
11887W        W83558  12.777   3.594  12.171
11888W        W83559   1.417  20.250   1.873
11889W        W83560  33.658  27.027   3.115
11890W        W83561  27.273  32.886   2.159
11891W        W83562   3.236  35.377  11.641
11892W        W83563  44.802  28.207  14.962
11893W        W83564  29.743  42.222  10.569
11894W        W83565  25.494  28.772  14.085
11895W        W83566  30.998   1.687   2.879
11896W        W83567  33.179  37.152  14.372
11897W        W83568  31.167  37.063   4.700
11898W        W83569  27.724  25.515  11.528
11899W        W83570   3.768   4.124   2.360
11900W        W83571  38.864  21.310   3.264
11901W        W83572  29.418  18.774   2.802
11902W        W83573  31.300  13.321   2.341
11903W        W83574  12.751   9.426  12.831
11904W        W83575  34.065  40.826   0.432
11905W        W83576   6.670  44.758  13.488
11906W        W83577  32.128  26.451   1.503
11907W        W83578  10.698  10.140  13.544
11908W        W83579  32.472  23.666  11.182
11909W        W83580  37.416  23.024  13.099
11910W        W83581  16.224  40.466  13.591
11911W        W83582  27.611  40.841   4.095
11912W        W83583  16.065   0.211   0.822
11913W        W83584  18.470  41.875  10.799
11914W        W83585  35.078  33.139  14.663
11915W        W83586  34.474  30.193   2.326
11916W        W83587  17.793   4.848   4.327
11917W        W83588  30.864  31.630   3.477
11918W        W83589  34.926  20.798  12.998
11919W        W83590  32.545  14.357   4.074
11920W        W83591  25.481  21.520  11.093
11921W        W83592  41.288  37.904  12.902
11922W        W83593  18.639  34.864   2.870
11923W        W83594  23.731  18.561   2.116
11924W        W83595  23.266  35.521  12.549
11925W        W83596   8.353  30.595   3.425
11926W        W83597   1.218  28.959  10.766
11927W        W83598  24.853  27.597   4.503
11928W        W83599  19.172  38.421  12.758
11929W        W83600  23.160   4.337   0.812
11930W        W83601   3.911   4.841  10.360
11931W        W83602  27.967  29.828  12.956
11932W        W83603  29.941   0.423   1.425
11933W        W83604  28.717  32.094  12.477
11934W        W83605  29.070   4.505   1.771
11935W        W83606  30.137  28.397   0.587
11936W        W83607  16.039  36.710  14.983
11937W        W83608  34.812  25.303  11.861
11938W        W83609   0.338  14.768  11.177
11939W        W83610  34.785   3.294  13.857
11940W        W83611  33.566  39.561   3.702
11941W        W83612  15.821  44.550   4.214
11942W        W83613  10.240  27.709   1.955
11943W        W83614   2.007  31.340   3.778
11944W        W83615  28.791   6.540   5.105
11945W        W83616  15.383  21.721  11.222
11946W        W83617  24.200   9.308   0.394
11947W        W83618  27.604  20.953   3.914
11948W        W83619  38.026  27.277   1.336
11949W        W83620  17.737   7.633   0.172
11950W        W83621  13.659  34.166  14.826
11951W        W83622  18.602   5.690  14.903
11952W        W83623  10.146  36.595  12.897
11953W        W83624  33.904  44.341   0.344
11954W        W83625  29.300  34.497  12.509
11955W        W83626  12.303   9.151   2.439
11956W        W83627  20.873   4.606   5.071
11957W        W83628  22.831   7.600   4.623
11958W        W83629  38.430   3.705  13.658
11959W        W83630  16.276   2.926  11.194
11960W        W83631  32.964  29.919  11.537
11961W        W83632  30.316  41.007  12.432
11962W        W83633   9.582  28.257   1.837
11963W        W83634   6.832  20.774   1.212
11964W        W83635  39.230  19.441   0.932
11965W        W83636   8.783  44.201   3.127
11966W        W83637  10.309  12.801   2.074
11967W        W83638  13.790  38.829   3.304
11968W        W83639  42.524  44.542  12.952
11969W        W83640  35.831  27.586  13.546
11970W        W83641  25.503  33.609  12.664
11971W        W83642  23.229  40.087   2.186
11972W        W83643  15.725  37.835  11.154
11973W        W83644  41.385  33.075   3.731
11974W        W83645  37.078  16.538   3.379
11975W        W83646  36.904  34.118  13.389
11976W        W83647  34.166   9.639  10.713
11977W        W83648  13.175  16.222   4.764
11978W        W83649   1.004  20.718   0.005
11979W        W83650  23.237  34.784   0.329
11980W        W83651  11.226  13.260   0.883
11981W        W83652  15.132  33.054   3.809
11982W        W83653   7.861  28.160   1.140
11983W        W83654  22.012  25.202   1.386
11984W        W83655  39.589  31.906  14.981
11985W        W83656  38.038  19.496  10.868
11986W        W83657  28.732  25.758   2.276
11987W        W83658  31.382   5.957  12.832
11988W        W83659  40.354  24.059  11.621
11989W        W83660  21.581  31.128   0.898
11990W        W83661   8.557  13.933   3.286
11991W        W83662   7.711  21.465   4.344
11992W        W83663  34.317  37.078  14.045
11993W        W83664  33.391  41.464  14.494
11994W        W83665   8.327  35.832  14.980
11995W        W83666  14.691  15.836   1.380
11996W        W83667  25.536  44.464   3.239
11997W        W83668  16.652  20.514  11.931
11998W        W83669   3.732   3.869   1.462
11999W        W83670  15.803  39.586   4.544
12000W        W83671  36.324  20.127  11.848
12001W        W83672  18.169  11.270   4.626
12002W        W83673  34.793  25.808  13.833
12003W        W83674  11.175  38.110  14.490
12004W        W83675  13.641  21.473   4.918
12005W        W83676  33.129  24.700   2.198
12006W        W83677  37.556  13.755   4.640
12007W        W83678   2.347  29.984  12.580
12008W        W83679  34.710  29.295   3.189
12009W        W83680  15.097  24.449  14.865
12010W        W83681  35.958  20.459   4.754
12011W        W83682  21.132   0.468   3.234
12012W        W83683  39.661  30.122   2.770
12013W        W83684  23.202   5.618   4.172
12014W        W83685  24.130  40.149   5.066
12015W        W83686  22.870  44.821   3.830
12016W        W83687  15.629  35.171   0.471
12017W        W83688  24.379   7.760   4.699
12018W        W83689  17.517  35.178   2.721
12019W        W83690  29.607  18.693   4.494
12020W        W83691  17.174  16.258  12.183
12021W        W83692   7.303   1.376  13.434
12022W        W83693  21.140   0.486   2.296
12023W        W83694  42.353  22.727   0.833
12024W        W83695  22.000  16.890   1.743
12025W        W83696  17.694  21.359  14.117
12026W        W83697  33.826  14.416   3.694
12027W        W83698  14.589  26.082   0.006
12028W        W83699  25.058  41.287  12.072
12029W        W83700  13.880   9.846   1.991
12030W        W83701  29.705  18.565   3.720
12031W        W83702  36.041  29.336  12.479
12032W        W83703   7.297  10.424   2.622
12033W        W83704  24.664  40.611   3.591
12034W        W83705   6.516   8.911  13.359
12035W        W83706   7.685  10.664   1.789
12036W        W83707   3.717   8.123   2.324
12037W        W83708  43.891  23.751   0.460
12038W        W83709  33.751   5.710   0.978
12039W        W83710   0.791  10.345  12.401
12040W        W83711  16.461  10.407  11.228
12041W        W83712  42.864   1.328   1.756
12042W        W83713  19.978   1.276   0.605
12043W        W83714  39.112  32.092   0.135
12044W        W83715   7.931  28.916   0.419
12045W        W83716  29.246  34.039  10.659
12046W        W83717  10.242  34.495   1.144
12047W        W83718  19.242  20.776   4.150
12048W        W83719  16.225   9.610   2.393
12049W        W83720  24.292  42.531  11.107
12050W        W83721  43.122   6.400  12.513
12051W        W83722  31.092  44.969  11.141
12052W        W83723  30.036  41.296  12.050
12053W        W83724  13.237  30.668  14.950
12054W        W83725  42.329  42.581   2.291
12055W        W83726   0.424  43.020   0.895
12056W        W83727  38.038  28.944  13.789
12057W        W83728  10.456   4.857  12.411
12058W        W83729  14.685  39.727  10.531
12059W        W83730  31.491  44.453   9.977
12060W        W83731  36.974   9.892   4.309
12061W        W83732  28.741   2.824   4.452
12062W        W83733  25.690  29.811   1.327
12063W        W83734  10.671  39.075  11.761
12064W        W83735  24.595  26.626   3.216
12065W        W83736  30.633   1.804  13.379
12066W        W83737  24.540  43.729   0.626
12067W        W83738  11.880  25.412  12.108
12068W        W83739   8.465  31.001   1.704
12069W        W83740  39.771  43.793   4.242
12070W        W83741  41.783  16.417   1.231
12071W        W83742   0.220   9.485  13.007
12072W        W83743  27.714  25.679   3.259
12073W        W83744  30.378   8.868   1.803
12074W        W83745  26.246  13.551   1.787
12075W        W83746  36.771  19.910  10.360
12076W        W83747  32.427  18.772   1.127
12077W        W83748  39.220  27.945   1.267
12078W        W83749  44.922  25.182  11.680
12079W        W83750   8.279  12.768  12.325
12080W        W83751  33.908   3.762   0.704
12081W        W83752  40.911  12.657  13.549
12082W        W83753  17.672  33.130  13.546
12083W        W83754  25.798  22.661  13.992
12084W        W83755  16.350   6.414   4.393
12085W        W83756  31.971   3.949   2.947
12086W        W83757   9.735   8.205  12.028
12087W        W83758  24.030   9.308  14.413
12088W        W83759   4.403  38.560  14.413
12089W        W83760  38.849   2.857   3.955
12090W        W83761  19.223  12.152  13.009
12091W        W83762   1.331  36.425   3.274
12092W        W83763  39.404  38.505  14.295
12093W        W83764  16.728  10.794   1.511
12094W        W83765  16.041  37.529  13.027
12095W        W83766  16.116  25.718   2.531
12096W        W83767  29.067   2.311  12.557
12097W        W83768   2.884  12.050   3.542
12098W        W83769  18.208  31.620  14.929
12099W        W83770  35.168  35.582  11.743
12100W        W83771  23.277  22.669   2.713
12101W        W83772  14.293  14.874  10.410
12102W        W83773  30.830  13.611  11.530
12103W        W83774  34.591  37.662  10.547
12104W        W83775   5.669  27.398   3.350
12105W        W83776  26.887   7.334   0.448
12106W        W83777  36.894  28.969   0.767
12107W        W83778   2.341   4.804   2.326
12108W        W83779  13.581  29.089  11.952
12109W        W83780  18.551   8.131   3.708
12110W        W83781  43.978  37.893   0.219
12111W        W83782  40.826   9.197  14.993
12112W        W83783  24.077  37.246   4.598
12113W        W83784  33.837  20.355  10.671
12114W        W83785  27.391  36.346   4.417
12115W        W83786  37.738  24.552  13.558
12116W        W83787   2.975  30.215  13.395
12117W        W83788  16.026  32.908   0.040
12118W        W83789  40.163   7.366   1.317
12119W        W83790  28.158   6.208   1.245
12120W        W83791   1.831  15.759  12.612
12121W        W83792  25.553  17.882   2.170
12122W        W83793  41.369  43.867  11.665
12123W        W83794  38.559  39.603   0.272
12124W        W83795  22.797   8.322  11.183
12125W        W83796  32.646  19.127   2.394
12126W        W83797  25.514  26.673  13.478
12127W        W83798  20.842   5.478  12.820
12128W        W83799  41.937  44.705  14.019
12129W        W83800   6.172  21.571  11.167
12130W        W83801   5.195   7.903   3.112
12131W        W83802  17.309  22.102   2.783
12132W        W83803  38.596  34.009   3.835
12133W        W83804   2.428   4.915   5.139
12134W        W83805  19.543  23.082   1.364
12135W        W83806  12.847  19.801   4.099
12136W        W83807  44.961  23.018   4.614
12137W        W83808  32.394   1.992   2.371
12138W        W83809   9.450   6.814  12.326
12139W        W83810  41.533   5.743   1.238
12140W        W83811  25.400  20.019   3.223
12141W        W83812   8.269  23.134  13.850
12142W        W83813  31.590  30.104   0.485
12143W        W83814  37.760  40.039  10.509
12144W        W83815  32.549  32.815  14.617
12145W        W83816  43.085  26.188  11.984
12146W        W83817   1.661  38.279   0.712
12147W        W83818   4.549  28.845   4.546
12148W        W83819   1.707   3.267  10.688
12149W        W83820  35.546  33.945   4.501
12150W        W83821   9.664  18.285   1.295
12151W        W83822  38.004  31.717  12.051
12152W        W83823  36.560   0.214   2.692
12153W        W83824  23.644  18.031  14.835
12154W        W83825  38.089   5.313  13.537
12155W        W83826   4.744  24.004   1.688
12156W        W83827  27.204   6.011   4.391
12157W        W83828   9.050  35.042  13.986
12158W        W83829  40.670   5.906  14.799
12159W        W83830  10.186  35.131  12.510
12160W        W83831  36.170   9.299  12.074
12161W        W83832  16.068  19.973   0.968
12162W        W83833  20.438  16.226  13.400
12163W        W83834   6.922   8.766  12.394
12164W        W83835   4.273   9.182  14.979
12165W        W83836  18.533  34.122   2.270
12166W        W83837  36.182  18.625   2.633
12167W        W83838  10.609  25.301   0.923
12168W        W83839   4.193   7.046  13.364
12169W        W83840  36.054   1.422  13.850
12170W        W83841  30.045  21.989  14.956
12171W        W83842  18.560  11.785  14.566
12172W        W83843  27.124   7.369   4.593
12173W        W83844  22.725  34.593  14.471
12174W        W83845  26.492   7.874   4.632
12175W        W83846  42.456   7.707   5.065
12176W        W83847  29.630  31.257  12.512
12177W        W83848  24.503  13.092   0.414
12178W        W83849  36.783  38.441  10.223
12179W        W83850  27.181  15.740  14.021
12180W        W83851   1.161  21.590  14.264
12181W        W83852   4.324  39.852   2.253
12182W        W83853   0.368  29.227  13.080
12183W        W83854   1.954  38.934   0.023
12184W        W83855  35.938  43.083  12.002
12185W        W83856  18.692   8.612   3.628
12186W        W83857  15.075   9.356   0.792
12187W        W83858  12.260  40.567  11.857
12188W        W83859  13.305  33.614   3.812
12189W        W83860   8.758  42.889  11.646
12190W        W83861   6.288  19.320  10.748
12191W        W83862  19.771  38.114   2.381
12192W        W83863  44.421  12.025  14.392
12193W        W83864  10.171  16.902  11.086
12194W        W83865  30.536  18.565  12.357
12195W        W83866  23.734  38.315  10.197
12196W        W83867  17.309  37.557  14.612
12197W        W83868  34.438  20.194   4.240
12198W        W83869   5.735  42.551   3.876
12199W        W83870  32.124  38.551  11.528
12200W        W83871  31.437  10.828  11.923
12201W        W83872  36.682  40.874   0.980
12202W        W83873  21.136   1.428  10.796
12203W        W83874  44.682  35.785   1.745
12204W        W83875  33.925  38.881  14.278
12205W        W83876  16.410  25.436   1.627
12206W        W83877  43.708  29.996   1.076
12207W        W83878   5.830  32.650  11.106
12208W        W83879  43.930  18.337  12.885
12209W        W83880  30.126  25.767   2.265
12210W        W83881   9.998  12.547  14.049
12211W        W83882  21.244  13.818  11.348
12212W        W83883   2.745  36.360  10.530
12213W        W83884   4.778  35.897   4.104
12214W        W83885   3.131  21.433   0.831
12215W        W83886  36.392  29.965  11.593
12216W        W83887  29.906  22.058  11.120
12217W        W83888  26.174  31.017   1.693
12218W        W83889  36.963  20.284   3.133
12219W        W83890  44.234   9.366   4.257
12220W        W83891  44.522  28.354  11.215
12221W        W83892  10.789   8.453   1.855
12222W        W83893  19.771  12.402  11.022
12223W        W83894  12.375   2.216   0.835
12224W        W83895  33.475  16.381   0.054
12225W        W83896  42.899  24.354  12.570
12226W        W83897  25.942  25.521   0.434
12227W        W83898   9.756  11.376   0.375
12228W        W83899  27.297  16.367  12.204
12229W        W83900  36.624   3.956  13.557
12230W        W83901   7.883  36.020  13.827
12231W        W83902   6.503  31.316   1.264
12232W        W83903  31.614  23.996   4.680
12233W        W83904   7.407  38.576  11.979
12234W        W83905  14.432  17.585   1.899
12235W        W83906   3.452   6.901  13.242
12236W        W83907  22.800  24.585  12.330
12237W        W83908  33.532  26.768  12.975
12238W        W83909  19.260  10.383  11.521
12239W        W83910  21.359   7.099  12.154
12240W        W83911  10.206  42.742   1.754
12241W        W83912  22.033  35.312   3.060
12242W        W83913  32.539  16.070  11.039
12243W        W83914  38.279  40.018   1.892
12244W        W83915   5.232  23.280   2.691
12245W        W83916  26.811   2.982  14.556
12246W        W83917  15.057  23.174   4.894
12247W        W83918  39.838  40.512   3.699
12248W        W83919  19.390  19.306  11.111
12249W        W83920  30.015  30.340   3.810
12250W        W83921  29.403  11.788  11.154
12251W        W83922  24.245  21.724   1.659
12252W        W83923  39.927  22.981   3.951
12253W        W83924  32.862  20.019  14.958
12254W        W83925   5.403  30.600   0.444
12255W        W83926  20.171  12.074   4.255
12256W        W83927  42.019  36.984  10.756
12257W        W83928  36.290  25.774  10.829
12258W        W83929  33.427  44.803   0.890
12259W        W83930  23.964  31.527   2.446
12260W        W83931  31.031  10.436   3.385
12261W        W83932  30.620  41.309  13.431
12262W        W83933  20.661   4.195   2.149
12263W        W83934  39.160  20.666  14.481
12264W        W83935   5.232  13.741   1.257
12265W        W83936   4.659  21.246  14.346
12266W        W83937  32.010  24.575   2.132
12267W        W83938  36.559  38.992  13.557
12268W        W83939  32.251  20.292  12.497
12269W        W83940  12.021  29.082  14.441
12270W        W83941  15.691   8.264  10.913
12271W        W83942  35.184   7.833   4.091
12272W        W83943  11.105  41.163  11.413
12273W        W83944  16.125  16.831  10.621
12274W        W83945   7.633  43.940   4.130
12275W        W83946  26.065  19.175   4.644
12276W        W83947  33.041   7.176   2.561
12277W        W83948  11.999  43.795   1.683
12278W        W83949   1.408   5.015   0.018
12279W        W83950   0.332  10.637   2.303
12280W        W83951  38.093  17.178   1.837
12281W        W83952   9.167  17.520   2.179
12282W        W83953  28.000  44.977   1.190
12283W        W83954  26.508   7.719   3.398
12284W        W83955  24.210   0.088  13.726
12285W        W83956  25.221  31.325  11.191
12286W        W83957  31.246  31.658   3.865
12287W        W83958  12.686   0.305   3.579
12288W        W83959  24.644  37.036  14.532
12289W        W83960  21.133  23.044   2.792
12290W        W83961   7.852   6.714   0.100
12291W        W83962  41.446  27.180   5.094
12292W        W83963  25.535  16.678  12.601
12293W        W83964  28.565  31.919   4.503
12294W        W83965  12.476  19.709   3.203
12295W        W83966  30.158  42.985  13.002
12296W        W83967  10.977  28.068   1.580
12297W        W83968  15.593  12.651  14.450
12298W        W83969   6.432  30.093   0.933
12299W        W83970  44.405   6.791   0.760
12300W        W83971  10.269  10.946   3.183
12301W        W83972  28.727  22.938  11.921
12302W        W83973  40.503  44.889   3.292
12303W        W83974  35.127  14.923  11.105
12304W        W83975  29.541  32.301  11.536
12305W        W83976   1.731  11.373   1.823
12306W        W83977  12.319  37.064   4.366
12307W        W83978  15.152   9.956   2.637
12308W        W83979  34.525  22.101   3.407
12309W        W83980  32.853  23.970  13.236
12310W        W83981  32.498  14.514  14.090
12311W        W83982  27.285  43.830  10.636
12312W        W83983  39.929  26.946   4.508
12313W        W83984   5.588   4.858  10.862
12314W        W83985  42.285  21.065  11.124
12315W        W83986  36.890   0.922  14.039
12316W        W83987  24.164  23.687   2.113
12317W        W83988  29.372  15.284  12.148
12318W        W83989   3.539  44.845  11.357
12319W        W83990  13.546  18.034   2.724
12320W        W83991  36.135  44.043   0.863
12321W        W83992  24.902  34.032   2.124
12322W        W83993  26.026  12.380  12.522
12323W        W83994   2.653  39.949  12.511
12324W        W83995  18.066  28.875  11.337
12325W        W83996  29.728   4.850  13.660
12326W        W83997   1.930   0.341   1.297
12327W        W83998  21.251  33.660   3.316
12328W        W83999  26.593  14.967  11.113
12329W        W84000   6.176   8.925  10.284
12330W        W84001   9.267  28.527  12.086
12331W        W84002  36.871   7.809   1.694
12332W        W84003  10.920  16.713  11.992
12333W        W84004  42.750  25.947  11.649
12334W        W84005  13.598  13.302   0.945
12335W        W84006   8.661   4.729   1.636
12336W        W84007  40.971  24.140  12.412
12337W        W84008  16.258  24.150   3.140
12338W        W84009  31.182   0.411  12.464
12339W        W84010   1.788  13.243   4.472
12340W        W84011   2.954  33.603  12.618
12341W        W84012   9.235  33.433   4.265
12342W        W84013  11.120   2.485   3.764
12343W        W84014   3.293  35.365   3.353
12344W        W84015  10.036  22.992  14.499
12345W        W84016  40.432  20.317  13.375
12346W        W84017  18.711  31.519   2.385
12347W        W84018  18.715  21.544   4.124
12348W        W84019  17.873   1.804  13.509
12349W        W84020  20.743  18.059   0.756
12350W        W84021  15.649  37.396   2.082
12351W        W84022  23.290   7.135   3.243
12352W        W84023   2.398  26.170   1.094
12353W        W84024  26.902  16.576  10.453
12354W        W84025  21.153  27.347   2.753
12355W        W84026   7.037  19.175  13.044
12356W        W84027  43.784   1.502   3.789
12357W        W84028  26.717  34.523   0.790
12358W        W84029   1.788  27.005   4.633
12359W        W84030  28.900  23.168   1.767
12360W        W84031  42.947   5.363   0.114
12361W        W84032  23.875  28.212   2.378
12362W        W84033  40.034  12.794  14.001
12363W        W84034  34.407  43.374  13.398
12364W        W84035  26.128  43.286  12.945
12365W        W84036   9.806  32.108  14.428
12366W        W84037  27.784  36.127  12.042
12367W        W84038  14.182   1.520   4.285
12368W        W84039  12.392  23.554   1.798
12369W        W84040  22.537  39.204   1.781
12370W        W84041  16.694  20.112   3.773
12371W        W84042  18.640  12.580  10.355
12372W        W84043  34.624  15.905   2.788
12373W        W84044  31.205  14.312  14.255
12374W        W84045  23.328  39.944  12.178
12375W        W84046  19.319  33.196   0.515
12376W        W84047  29.943   9.314  14.963
12377W        W84048  28.114   0.537   0.981
12378W        W84049  33.534   2.333  10.855
12379W        W84050  23.215   5.495  11.876
12380W        W84051   2.310  13.934  11.198
12381W        W84052  34.510  15.533  12.016
12382W        W84053  29.880  10.216  12.193
12383W        W84054  31.134  18.156   3.804
12384W        W84055  29.429  40.263   2.353
12385W        W84056  33.955  31.540   1.188
12386W        W84057  18.323  42.762  14.897
12387W        W84058  19.096  16.226   1.844
12388W        W84059  17.036  14.651  11.610
12389W        W84060  10.927  37.539   2.691
12390W        W84061  15.875   7.356  11.093
12391W        W84062   1.031  14.436   3.990
12392W        W84063   1.700  22.716  13.129
12393W        W84064  37.753   0.506   2.367
12394W        W84065   6.689  31.890  11.609
12395W        W84066  34.480   7.898   4.657
12396W        W84067  33.421  21.640   2.717
12397W        W84068  29.023  44.512   1.432
12398W        W84069  18.148  39.228   3.823
12399W        W84070  44.830  18.787  12.439
12400W        W84071   6.354  19.993   0.277
12401W        W84072  26.659  10.447   4.219
12402W        W84073   8.664   5.373  14.896
12403W        W84074  43.546  27.085   4.841
12404W        W84075  11.817  34.601   4.625
12405W        W84076  29.675  19.264   3.034
12406W        W84077  23.168  35.166   0.674
12407W        W84078  37.097  17.770  14.501
12408W        W84079  29.520   1.638  11.620
12409W        W84080  10.959  11.673  14.778
12410W        W84081  38.961  28.510   3.691
12411W        W84082  42.642  22.033   1.208
12412W        W84083  38.134   7.730   0.342
12413W        W84084   0.126  39.992  11.948
12414W        W84085  19.688  40.056   2.365
12415W        W84086  23.577  36.460   3.682
12416W        W84087  32.688  17.816   3.399
12417W        W84088  20.319  33.657   0.888
12418W        W84089  32.898  12.041   4.752
12419W        W84090  18.762  36.107   1.811
12420W        W84091   6.921  35.946   3.935
12421W        W84092  25.864  15.543  10.776
12422W        W84093   0.946   3.636  13.140
12423W        W84094  36.547   3.404   5.060
12424W        W84095   2.908  37.629   1.758
12425W        W84096  15.270   5.158   1.457
12426W        W84097  41.775  11.880  12.682
12427W        W84098  16.066  30.975  11.951
12428W        W84099  13.137  19.226  13.120
12429W        W84100   0.928  26.020   1.723
12430W        W84101   4.984  12.797   1.497
12431W        W84102  15.310  34.330  10.430
12432W        W84103   4.613  27.953   1.245
12433W        W84104  32.489  39.440   4.736
12434W        W84105  22.041  27.022  12.753
12435W        W84106   2.226  34.341   2.595
12436W        W84107  19.703  43.325  13.953
12437W        W84108  27.974   3.994  12.833
12438W        W84109   2.395  15.973   4.842
12439W        W84110  34.801   9.173   4.169
12440W        W84111  17.452   9.105   3.771
12441W        W84112  38.102  39.722  13.508
12442W        W84113   5.960  25.102  14.040
12443W        W84114  34.568  12.832  14.953
12444W        W84115  25.834  23.561   1.230
12445W        W84116  26.926  10.350  13.058
12446W        W84117  41.992  44.909  13.541
12447W        W84118  25.052  33.413  10.049
12448W        W84119  41.905  13.825   4.040
12449W        W84120   2.726  42.942  12.470
12450W        W84121  29.012  41.795   4.095
12451W        W84122   0.201  31.535  12.972
12452W        W84123  41.745  10.368  14.374
12453W        W84124  25.592  14.910   2.092
12454W        W84125  11.094   9.972   0.943
12455W        W84126  21.609  42.897  11.924
12456W        W84127  36.409  23.680  13.128
12457W        W84128  20.541  29.576   1.327
12458W        W84129  34.471  24.437   3.174
12459W        W84130  39.257  33.866  13.522
12460W        W84131   7.110  39.323   1.829
12461W        W84132  25.732  41.846   1.199
12462W        W84133  14.017  39.280  12.500
12463W        W84134  23.237  20.667   0.857
12464W        W84135  31.195  35.509   1.606
12465W        W84136  29.824  13.892  13.002
12466W        W84137  19.423  36.986  13.650
12467W        W84138  22.174  14.568  14.357
12468W        W84139  13.122   4.528  12.617
12469W        W84140  33.901  44.431  12.575
12470W        W84141  27.510  43.055  11.208
12471W        W84142   2.486  18.635   4.627
12472W        W84143  28.956  42.056  10.955
12473W        W84144  33.078  30.406   3.693
12474W        W84145  32.392  26.227  10.711
12475W        W84146  27.944   1.569  13.025
12476W        W84147  39.388  41.245   1.407
12477W        W84148  41.196  39.753  10.310
12478W        W84149   2.998   2.787   0.420
12479W        W84150  20.646  20.725  12.641
12480W        W84151  28.510  28.991   0.520
12481W        W84152   1.065   5.400   4.592
12482W        W84153  31.872   6.760   4.611
12483W        W84154  34.850  30.874  12.866
12484W        W84155  14.101  41.992  14.402
12485W        W84156  13.005  23.400   3.835
12486W        W84157  31.823  42.159   2.843
12487W        W84158  28.167  28.685   2.652
12488W        W84159  43.700  43.530   2.233
12489W        W84160  25.334   2.803  10.692
12490W        W84161  23.438  16.727   0.201
12491W        W84162  24.482   3.438  14.304
12492W        W84163   1.722   6.021  13.506
12493W        W84164  11.427   4.360  11.588
12494W        W84165  14.141   1.447   0.855
12495W        W84166  27.440   6.929  14.710
12496W        W84167  28.121  18.410  11.260
12497W        W84168  21.455  15.171  10.640
12498W        W84169   5.017  11.593  11.544
12499W        W84170  19.599  16.336   1.967
12500W        W84171  39.345  10.419  12.073
12501W        W84172  24.866  25.779  13.316
12502W        W84173  38.537  20.567   3.717
12503W        W84174  31.271   4.737  14.880
12504W        W84175  36.572  33.617  11.474
12505W        W84176  24.234  19.981  12.128
12506W        W84177  26.050  34.253   0.240
12507W        W84178  32.376  30.229  11.831
12508W        W84179   6.193  23.522   4.466
12509W        W84180  19.701  35.602   0.357
12510W        W84181  40.923  40.065  10.696
12511W        W84182  27.889  12.669  14.876
12512W        W84183  37.841  39.766  14.499
12513W        W84184  41.474  12.302  12.500
12514W        W84185  12.815  13.589   2.006
12515W        W84186  36.945  29.343   3.407
12516W        W84187   8.130  14.289   2.441
12517W        W84188  36.862  37.890   0.894
12518W        W84189  32.055  44.834   1.671
12519W        W84190  42.484  36.508   3.653
12520W        W84191  21.536  29.941  14.105
12521W        W84192  27.227  36.041   2.276
12522W        W84193  20.938  34.011  13.829
12523W        W84194  41.663  21.733   3.344
12524W        W84195  27.917  11.219  13.038
12525W        W84196  15.583  14.111  14.356
12526W        W84197   2.866   3.692  13.972
12527W        W84198  26.048  20.157  11.541
12528W        W84199  36.320  25.715  12.457
12529W        W84200  16.256  23.154  10.648
12530W        W84201  34.864  13.644   3.872
12531W        W84202  38.338  37.069  12.953
12532W        W84203  40.293   2.454  13.999
12533W        W84204  37.244  41.100  14.459
12534W        W84205  28.211   6.456  14.968
12535W        W84206  21.536  18.808   1.763
12536W        W84207  37.520   5.422   0.381
12537W        W84208  32.605  44.079   3.727
12538W        W84209  19.264  11.187  12.895
12539W        W84210   6.263   5.411   0.863
12540W        W84211   6.177   6.532  14.566
12541W        W84212  10.218  18.467  12.970
12542W        W84213  44.598  23.268   2.771
12543W        W84214  44.945  15.311   1.911
12544W        W84215   0.820  19.526   3.783
12545W        W84216   8.353  23.929  13.691
12546W        W84217  22.252   2.292  10.651
12547W        W84218  41.010  16.054   4.656
12548W        W84219  14.407  32.998   3.308
12549W        W84220  14.195  23.983   1.754
12550W        W84221  39.739  41.327   2.850
12551W        W84222  32.382   8.382  10.853
12552W        W84223  23.044  25.899  12.962
12553W        W84224   6.483   2.193   3.183
12554W        W84225  13.331   7.256   2.867
12555W        W84226  33.440  23.001  11.073
12556W        W84227  22.156  16.395   4.837
12557W        W84228  31.905  30.033  13.921
12558W        W84229  38.528  40.283  12.417
12559W        W84230  19.169  13.893   3.703
12560W        W84231  15.173  12.266   2.331
12561W        W84232  16.073  22.191  10.722
12562W        W84233  25.445   7.321  13.941
12563W        W84234  35.439  14.553   0.241
12564W        W84235  26.714  24.551   4.139
12565W        W84236  26.138  28.033  12.468
12566W        W84237  42.057  20.624  10.378
12567W        W84238  42.490   8.955  13.355
12568W        W84239  27.242  35.842   4.473
12569W        W84240  16.999  13.726  12.473
12570W        W84241   0.174   9.907   2.718
12571W        W84242  43.724  30.881   1.738
12572W        W84243  26.090  28.976   4.028
12573W        W84244   3.749   5.914  13.359
12574W        W84245  32.947  12.597   3.566
12575W        W84246   0.530  11.281   0.126
12576W        W84247  38.689  41.975  11.703
12577W        W84248  32.119  25.977   0.269
12578W        W84249  38.750  11.675  14.150
12579W        W84250  36.355  35.855   0.276
12580W        W84251  27.103   9.276  10.245
12581W        W84252   9.183  33.571  11.615
12582W        W84253  41.552  36.797   4.935
12583W        W84254  15.094  36.394   3.154
12584W        W84255  13.352   2.846  13.340
12585W        W84256  12.862  42.309  12.931
12586W        W84257  32.131  14.739   3.145
12587W        W84258  18.375  43.677   3.747
12588W        W84259  23.271   0.280  11.468
12589W        W84260  13.273  35.026  12.910
12590W        W84261   5.968   1.530   2.826
12591W        W84262  19.995  39.870   2.849
12592W        W84263  15.065  19.233   4.865
12593W        W84264  26.706  40.060  12.071
12594W        W84265  30.518   3.290  12.650
12595W        W84266   9.765   0.964   1.203
12596W        W84267   5.392   6.805  12.649
12597W        W84268  43.478   0.870   2.071
12598W        W84269  26.719  40.568  14.476
12599W        W84270  39.545   1.439  11.607
12600W        W84271   8.112  39.883   0.329
12601W        W84272   8.766  11.056  12.541
12602W        W84273  44.465  43.250   1.550
12603W        W84274  43.813  16.293   3.064
12604W        W84275  23.534  34.873   1.671
12605W        W84276   3.734   0.420  11.521
12606W        W84277  41.809  39.096   3.105
12607W        W84278  32.656  13.218   2.855
12608W        W84279   5.890  32.804   1.332
12609W        W84280  12.780  12.383  12.028
12610W        W84281  20.351  18.720   0.540
12611W        W84282  13.717  38.264  12.467
12612W        W84283  30.672  43.365   0.953
12613W        W84284  21.924  35.721  11.531
12614W        W84285   4.687  33.280  13.260
12615W        W84286  36.552  39.881   4.593
12616W        W84287  23.891  34.349  11.642
12617W        W84288  35.451  31.641  13.903
12618W        W84289  19.835  24.456   1.447
12619W        W84290  20.757  18.096  14.398
12620W        W84291  33.895  26.614   0.395
12621W        W84292  21.601  28.423   3.341
12622W        W84293  18.662  32.935   4.681
12623W        W84294   6.866  38.081   2.357
12624W        W84295  35.348   8.792   1.578
12625W        W84296  35.894   6.502   0.242
12626W        W84297  15.841  30.591   3.334
12627W        W84298  34.027  19.555  11.577
12628W        W84299   8.414  40.041  14.898
12629W        W84300  25.929  22.715   2.127
12630W        W84301  21.972  37.804   5.228
12631W        W84302  23.058  24.229   0.251
12632W        W84303  20.041   4.241  11.161
12633W        W84304  34.404  12.210   0.605
12634W        W84305  11.305  38.512  12.647
12635W        W84306  34.454  23.060   0.265
12636W        W84307   5.753  10.195  10.686
12637W        W84308   3.684  11.640   0.257
12638W        W84309  41.264   8.726   5.100
12639W        W84310  27.731  26.550  13.498
12640W        W84311  13.855  27.190   0.267
12641W        W84312  44.383  17.712  11.547
12642W        W84313   5.796  37.198  11.941
12643W        W84314  44.901  16.735   0.786
12644W        W84315  18.211  18.151  13.116
12645W        W84316  29.242  21.072  12.077
12646W        W84317  35.168  34.487   3.775
12647W        W84318  39.423  16.742  14.874
12648W        W84319  14.615  31.529   0.244
12649W        W84320   3.559  30.390  11.650
12650W        W84321   8.354  33.375   3.679
12651W        W84322  18.308  40.842   2.767
12652W        W84323  10.332  18.720  11.173
12653W        W84324   4.990  42.289   1.883
12654W        W84325  15.748  15.311   0.974
12655W        W84326  23.792  20.579  14.757
12656W        W84327  31.416   3.329   1.216
12657W        W84328  17.152  35.654   3.560
12658W        W84329  31.322  33.097  10.736
12659W        W84330  15.154  24.913   2.651
12660W        W84331  14.767  11.735  11.241
12661W        W84332  26.279  17.767   1.445
12662W        W84333  41.522  33.428   0.275
12663W        W84334  43.791  37.952  14.321
12664W        W84335   5.476   0.502  14.348
12665W        W84336   9.612   8.819   0.369
12666W        W84337   8.241  44.456   2.289
12667W        W84338  40.256  41.411   0.284
12668W        W84339  37.342  22.034  10.615
12669W        W84340  19.574   3.433  12.461
12670W        W84341   2.253  14.161   3.265
12671W        W84342  21.522  32.559  10.610
12672W        W84343  37.114  31.641  12.173
12673W        W84344  32.208  43.733   3.694
12674W        W84345  36.389  12.360  11.673
12675W        W84346  30.381  38.710  12.518
12676W        W84347  32.611  37.398   1.479
12677W        W84348   6.518  39.388  10.646
12678W        W84349  30.712  15.847   2.868
12679W        W84350  39.271  29.510   1.437
12680W        W84351  27.429  25.028  13.007
12681W        W84352  26.909  33.767  12.802
12682W        W84353  11.973   8.715  10.715
12683W        W84354   5.785  29.143   3.760
12684W        W84355  41.545   5.724  12.125
12685W        W84356  36.904  16.117   3.087
12686W        W84357   6.775  33.027   4.130
12687W        W84358  17.043  15.116   3.756
12688W        W84359  27.564  21.505  14.268
12689W        W84360  10.848  40.950  13.835
12690W        W84361  14.813  43.599  11.649
12691W        W84362   9.332  36.637  10.468
12692W        W84363  14.705   2.819  13.614
12693W        W84364  39.308  32.362   0.797
12694W        W84365   4.055  30.618  12.504
12695W        W84366  15.183   7.886   0.244
12696W        W84367  40.504   2.002   4.805
12697W        W84368  44.270   4.175   2.423
12698W        W84369   1.036   6.938   1.686
12699W        W84370  17.139  31.893  11.656
12700W        W84371   0.797  12.658   3.785
12701W        W84372   8.217  44.731   1.707
12702W        W84373  36.887   9.817  11.829
12703W        W84374   1.782  27.137  14.518
12704W        W84375  18.970  18.700   1.810
12705W        W84376  42.408   7.869   1.308
12706W        W84377  44.196  32.348   0.455
12707W        W84378  19.939  24.787  10.590
12708W        W84379  27.011  12.399  13.963
12709W        W84380  37.910   0.914  11.588
12710W        W84381  44.148  15.892   3.183
12711W        W84382   3.986  22.287   4.682
12712W        W84383   3.719  41.273   3.594
12713W        W84384  44.848  20.362  12.398
12714W        W84385  20.820  41.015  11.372
12715W        W84386   3.333  34.473  13.832
12716W        W84387  17.363  43.818  13.108
12717W        W84388  41.407  32.391   3.136
12718W        W84389   9.969  24.523  13.870
12719W        W84390   8.150  20.696  12.939
12720W        W84391  29.895  26.039   2.654
12721W        W84392  22.263  22.151   2.930
12722W        W84393  38.987  15.138  11.616
12723W        W84394  41.406  22.277  12.074
12724W        W84395  28.542  14.785  13.154
12725W        W84396  34.889   9.766  12.155
12726W        W84397  26.622  13.234  13.621
12727W        W84398  16.032  33.528   1.823
12728W        W84399  40.049  28.425   1.351
12729W        W84400  32.573  34.820   2.840
12730W        W84401   0.754   3.371   4.661
12731W        W84402   6.291  25.308  10.318
12732W        W84403   3.777  38.324   2.800
12733W        W84404  33.544  38.082   3.847
12734W        W84405  43.326  19.469  13.949
12735W        W84406  42.009  41.791  11.604
12736W        W84407  18.356  17.590  12.496
12737W        W84408  16.094  20.180   3.383
12738W        W84409  42.326  36.278  11.431
12739W        W84410  44.235   7.584   2.232
12740W        W84411  17.827  15.076  12.445
12741W        W84412   5.197  38.558  11.315
12742W        W84413  26.220  20.256   3.109
12743W        W84414  36.589  26.746  13.368
12744W        W84415   1.976   1.434  14.564
12745W        W84416  38.905  39.783   1.340
12746W        W84417  20.551  30.063   3.624
12747W        W84418  22.085   7.265  10.852
12748W        W84419  42.030   9.623  13.304
12749W        W84420  31.462  24.006  10.573
12750W        W84421   5.319  28.661  12.631
12751W        W84422  18.306   2.248   4.283
12752W        W84423  35.131   7.858  14.857
12753W        W84424  20.779  12.171   5.117
12754W        W84425   8.323   1.310  14.943
12755W        W84426  18.531  19.786   0.345
12756W        W84427  32.684  44.311   4.627
12757W        W84428  18.286  20.203   3.779
12758W        W84429  17.173   1.395  11.050
12759W        W84430   4.922  20.763  14.474
12760W        W84431  36.654  22.680  11.875
12761W        W84432  20.261  16.600  12.669
12762W        W84433  44.114  40.314   1.346
12763W        W84434  29.186   8.223  14.432
12764W        W84435  36.911  28.498   2.751
12765W        W84436  25.245  14.240  11.437
12766W        W84437  21.804  44.888   0.806
12767W        W84438  29.455  18.744  10.602
12768W        W84439  44.997   3.832  13.074
12769W        W84440   6.268  42.950  12.423
12770W        W84441  21.005  26.844  11.588
12771W        W84442  27.590  23.257   1.488
12772W        W84443  19.688  22.553  12.522
12773W        W84444  23.136  34.817  11.993
12774W        W84445  30.621  22.005  10.573
12775W        W84446   2.485   0.603  13.032
12776W        W84447  23.811  36.848  13.394
12777W        W84448  11.341  40.667   4.755
12778W        W84449  16.848  34.863  13.586
12779W        W84450  12.808  31.667   0.625
12780W        W84451  12.887  29.009   0.884
12781W        W84452  14.077  26.669  13.642
12782W        W84453  19.157  14.185  12.693
12783W        W84454   9.206  13.367   2.649
12784W        W84455  26.903   8.860   2.764
12785W        W84456  16.678  34.104  14.463
12786W        W84457  12.810  29.704   2.400
12787W        W84458  14.148   6.942   3.434
12788W        W84459   0.831  35.454  14.330
12789W        W84460  41.279  41.616   0.759
12790W        W84461  12.208   6.269  10.656
12791W        W84462   2.458   5.470  11.445
12792W        W84463   3.939   6.463   0.008
12793W        W84464   9.653  24.784  12.822
12794W        W84465  25.409  31.819   0.925
12795W        W84466  38.765  33.010   0.186
12796W        W84467  22.458  36.885   4.285
12797W        W84468  19.358  39.427  14.523
12798W        W84469  16.813   2.213   4.784
12799W        W84470  43.082  27.116   1.208
12800W        W84471  11.939  42.963   0.569
12801W        W84472   2.852  24.253   4.588
12802W        W84473  33.683  16.968  12.868
12803W        W84474  11.449  11.124  11.609
12804W        W84475  11.691   0.524   2.689
12805W        W84476   0.066   5.542   0.396
12806W        W84477  26.316  44.103  12.541
12807W        W84478   3.551   6.307  11.118
12808W        W84479  25.680  39.316  14.864
12809W        W84480   6.903  43.776   4.585
12810W        W84481   5.440  15.738  14.484
12811W        W84482   2.001   2.446   2.994
12812W        W84483  19.586  31.970   4.594
12813W        W84484   6.292  21.793  14.800
12814W        W84485   6.411   6.194  14.913
12815W        W84486  21.729   5.347  14.369
12816W        W84487  44.509  41.487  14.985
12817W        W84488   7.425  26.653   4.132
12818W        W84489   7.968  16.196  13.924
12819W        W84490  30.966  35.633   3.130
12820W        W84491   6.756  26.051  11.578
12821W        W84492  38.294  16.608   0.078
12822W        W84493  29.218  14.601   4.586
12823W        W84494  31.152  38.755  14.449
12824W        W84495  35.435  21.078   0.927
12825W        W84496   7.756  19.975   0.027
12826W        W84497   3.090  27.737  12.952
12827W        W84498  41.427  38.875  12.070
12828W        W84499  20.725   2.265  13.875
12829W        W84500  16.880  15.653   1.854
12830W        W84501  39.456  17.470  11.455
12831W        W84502  10.300   1.461   1.891
12832W        W84503   8.722  30.330   3.694
12833W        W84504  20.547   6.024  11.085
12834W        W84505   5.224   5.461   2.382
12835W        W84506  25.009  18.030  10.549
12836W        W84507   1.232  30.393  14.037
12837W        W84508  16.757  30.397   4.866
12838W        W84509  33.532  37.932   1.060
12839W        W84510  36.782  32.074   2.213
12840W        W84511   7.278  19.763  11.629
12841W        W84512  31.580  29.466  14.877
12842W        W84513   3.794  37.803   2.729
12843W        W84514  42.273  35.475  12.788
12844W        W84515  19.750  12.574   1.200
12845W        W84516   7.420  10.827   4.801
12846W        W84517   9.234  28.167  12.826
12847W        W84518  36.325  24.076  14.528
12848W        W84519   9.809  41.022   3.388
12849W        W84520  33.087  34.545  14.687
12850W        W84521  36.613  17.559  11.442
12851W        W84522  10.816  39.236   2.313
12852W        W84523  40.357  12.300   2.599
12853W        W84524   0.691  32.893   0.238
12854W        W84525  16.381  22.648   4.598
12855W        W84526  25.932  38.779  14.331
12856W        W84527  19.867   7.140   0.087
12857W        W84528  21.145  34.229  10.590
12858W        W84529  19.410  41.938   0.474
12859W        W84530  19.042  23.242   1.326
12860W        W84531  27.896   5.879  10.662
12861W        W84532  42.811  37.468  11.186
12862W        W84533   0.540   4.532   0.726
12863W        W84534  16.659  44.670  11.709
12864W        W84535  23.103   5.778   1.702
12865W        W84536   7.178   0.561   0.737
12866W        W84537   0.966  42.730   1.246
12867W        W84538  32.417  21.991  12.723
12868W        W84539   0.828  41.890   0.676
12869W        W84540  20.933  13.905   4.087
12870W        W84541  18.245  20.717   3.867
12871W        W84542  20.568  17.092   2.449
12872W        W84543  16.069  19.603  14.743
12873W        W84544  35.571   3.650   3.189
12874W        W84545  33.306  29.672   2.289
12875W        W84546  37.535  17.081  13.070
12876W        W84547  11.830  28.596   1.858
12877W        W84548   3.132   5.216  12.859
12878W        W84549  42.168   7.080   1.514
12879W        W84550  20.796  28.289   1.892
12880W        W84551  13.123   3.553   1.468
12881W        W84552  20.276  20.132   0.410
12882W        W84553  21.354  44.546   1.688
12883W        W84554  22.175  23.575   3.821
12884W        W84555  19.296  24.247   9.880
12885W        W84556  34.837  21.103   3.240
12886W        W84557  16.788  24.984  14.266
12887W        W84558  20.625  25.100  10.529
12888W        W84559  18.678  25.557   5.742
12889W        W84560  28.928  19.447   3.063
12890W        W84561  32.551  25.777  11.164
12891W        W84562  20.606  18.911  12.953
12892W        W84563   8.325  23.549  13.298
12893W        W84564  24.269   0.823  14.620
12894W        W84565  32.496   4.854   4.538
12895W        W84566  37.032  25.585   0.762
12896W        W84567  11.183  23.537   3.757
12897W        W84568  22.052  23.988  13.774
12898W        W84569   7.305  41.465  13.808
12899W        W84570   3.944   9.216  11.731
12900W        W84571  44.738   4.248  13.293
12901W        W84572  14.864   5.376   2.706
12902W        W84573   1.407  12.938  13.035
12903W        W84574  43.403   4.766   4.646
12904W        W84575   7.206  14.398   2.355
12905W        W84576  36.955  34.407   2.627
12906W        W84577  29.476  27.643  13.975
12907W        W84578  36.412  10.155   3.733
12908W        W84579  15.084   4.181   2.347
12909W        W84580  13.357   3.229  11.603
12910W        W84581  19.299  17.728  14.026
12911W        W84582  43.363  34.863   4.916
12912W        W84583   3.190   9.059   0.344
12913W        W84584  26.913   8.775  10.651
12914W        W84585  16.585  23.823  14.737
12915W        W84586   5.876  14.622   3.186
12916W        W84587  35.136  26.198  13.743
12917W        W84588  30.124  13.739   2.629
12918W        W84589  16.421   7.730  14.176
12919W        W84590  28.071  34.622   4.598
12920W        W84591  28.497  34.591   1.434
12921W        W84592  43.844  22.222   1.799
12922W        W84593  15.677  33.415  11.889
12923W        W84594  32.640  28.444  11.206
12924W        W84595  33.011  31.670   4.285
12925W        W84596   7.266   1.776  13.077
12926W        W84597  11.727  36.328  11.107
12927W        W84598  19.144  18.559  14.547
12928W        W84599  44.297  16.748  10.210
12929W        W84600  31.008   8.648   1.017
12930W        W84601  11.105   6.310  14.222
12931W        W84602  16.886   5.628  12.012
12932W        W84603  31.360  42.894  11.020
12933W        W84604  29.547   7.699   1.813
12934W        W84605   3.315  36.624   3.242
12935W        W84606  12.555  28.128   3.315
12936W        W84607  37.749  13.217  13.126
12937W        W84608   1.308  16.170  12.365
12938W        W84609  22.043  21.314   4.682
12939W        W84610  25.305  40.529   4.788
12940W        W84611  14.837  33.033   4.623
12941W        W84612  29.120  37.957  10.751
12942W        W84613  42.026  40.753  14.759
12943W        W84614  39.968  29.581   5.007
12944W        W84615   3.243  10.614   4.652
12945W        W84616   3.555   8.898   3.953
12946W        W84617  18.105  42.051   5.009
12947W        W84618  44.009  33.385  13.074
12948W        W84619   4.716  18.127   4.575
12949W        W84620  43.273   6.640  14.485
12950W        W84621  21.992  38.059   4.044
12951W        W84622   2.547  34.671   1.739
12952W        W84623  21.602   1.706  10.697
12953W        W84624  18.048   4.784  10.744
12954W        W84625  43.022  10.376  10.607
12955W        W84626  19.663   7.589  14.898
12956W        W84627  44.448  16.338  11.383
12957W        W84628  39.621  13.274  14.786
12958W        W84629  22.116  41.830  13.615
12959W        W84630  41.792  18.410   1.356
12960W        W84631  30.824  10.547   4.836
12961W        W84632  30.151   9.833  13.320
12962W        W84633  31.620  33.444   0.838
12963W        W84634   7.841  11.187  13.574
12964W        W84635  24.951  23.733  12.505
12965W        W84636  28.525  21.040  12.557
12966W        W84637   2.098  28.695  11.160
12967W        W84638   5.372  15.734   2.429
12968W        W84639   5.353  13.404  11.403
12969W        W84640  39.741  16.007  10.988
12970W        W84641  43.789   8.335  13.321
12971W        W84642   5.663  22.507   3.247
12972W        W84643   7.795   4.161   2.447
12973W        W84644  43.934  21.051  10.730
12974W        W84645  29.153   9.270   1.919
12975W        W84646  44.037  40.380   4.981
12976W        W84647  18.556  13.733   1.603
12977W        W84648  22.550  18.741  10.234
12978W        W84649   8.835  13.046   2.838
12979W        W84650  38.062  29.128  11.995
12980W        W84651  26.396  42.257   1.760
12981W        W84652   6.185  10.713   3.172
12982W        W84653  29.393   1.204   4.347
12983W        W84654  38.678   9.602   1.269
12984W        W84655  26.573  15.989  10.947
12985W        W84656  36.617   4.799   2.686
12986W        W84657  28.041  38.986   1.333
12987W        W84658  41.062  11.867   2.037
12988W        W84659  28.167  36.206   4.134
12989W        W84660  12.468  40.183  12.169
12990W        W84661  33.083   8.351   2.209
12991W        W84662  21.023  38.597  10.427
12992W        W84663  30.900  35.038   4.688
12993W        W84664   8.429   8.339  11.668
12994W        W84665  39.075  25.995   1.269
12995W        W84666  39.107   8.721  11.963
12996W        W84667  20.520   7.654   4.178
12997W        W84668  18.760  35.016  10.902
12998W        W84669  21.023  43.693  14.533
12999W        W84670  34.615  21.719  14.809
13000W        W84671  44.900  42.516   1.998
13001W        W84672   9.601  32.542  14.654
13002W        W84673   0.916   9.968   2.182
13003W        W84674  22.086   3.224  12.066
13004W        W84675  15.466  18.112  11.991
13005W        W84676  35.579  35.862   0.971
13006W        W84677  24.537   6.775   2.338
13007W        W84678  28.718  38.407   3.644
13008W        W84679  32.232  37.402   4.110
13009W        W84680  28.716  19.178  13.868
13010W        W84681  37.362  13.351  11.472
13011W        W84682  41.247  15.755   4.214
13012W        W84683  23.560  22.767  12.840
13013W        W84684  33.046  27.943  13.604
13014W        W84685  28.924  16.247  11.557
13015W        W84686  15.322  30.059   0.381
13016W        W84687  31.036  15.366   1.631
13017W        W84688  17.211  29.060   2.734
13018W        W84689  11.404  37.159  13.084
13019W        W84690   2.228   0.249   1.794
13020W        W84691  15.171  12.638  11.346
13021W        W84692  43.912  16.690   0.446
13022W        W84693   0.249  11.433  13.419
13023W        W84694  27.625  13.313   4.729
13024W        W84695   8.493   3.421   1.280
13025W        W84696  23.108  15.630   3.268
13026W        W84697  13.422   6.946  12.085
13027W        W84698  17.076  40.578  14.390
13028W        W84699  14.827  11.948  13.852
13029W        W84700  35.359  22.138  13.490
13030W        W84701   1.468  27.566   3.192
13031W        W84702  37.018  34.442   0.986
13032W        W84703  23.479  29.427   2.609
13033W        W84704  29.875  29.405   0.307
13034W        W84705  38.022  27.381   2.949
13035W        W84706  12.272   6.917   1.683
13036W        W84707  30.829   9.687   0.401
13037W        W84708  37.903  19.186  10.484
13038W        W84709  25.040  19.589   3.862
13039W        W84710   9.649  15.279  13.541
13040W        W84711  14.123  32.437   0.316
13041W        W84712  35.510  21.690   1.771
13042W        W84713  36.547  19.026  14.349
13043W        W84714   3.346   4.811   2.366
13044W        W84715  32.176  28.599   1.362
13045W        W84716  12.727  38.558  12.536
13046W        W84717  17.410   6.910   5.011
13047W        W84718  21.549   2.907   0.095
13048W        W84719  39.068  30.899  13.562
13049W        W84720  12.050  21.036  11.940
13050W        W84721  18.148  31.948  14.469
13051W        W84722  42.868  23.682   2.434
13052W        W84723   4.903  15.105   2.275
13053W        W84724  10.787   9.911   4.320
13054W        W84725  22.537  32.412  12.113
13055W        W84726  31.357  43.022   2.868
13056W        W84727   9.225  29.908   1.766
13057W        W84728  39.488  13.313  10.691
13058W        W84729  30.585  42.240   1.116
13059W        W84730   5.461  18.763  10.557
13060W        W84731  28.494  13.640   4.789
13061W        W84732   3.891  16.655  14.273
13062W        W84733  28.763  26.514  11.097
13063W        W84734  22.190   6.200  11.104
13064W        W84735   4.394  23.600   3.230
13065W        W84736   7.345  41.617  11.191
13066W        W84737  13.453   0.960   0.751
13067W        W84738  33.818  23.245  13.439
13068W        W84739  15.930  37.049   1.477
13069W        W84740   1.483  15.411   3.303
13070W        W84741  24.966  15.440  12.388
13071W        W84742   3.857  38.152   0.946
13072W        W84743  24.638  29.913  14.314
13073W        W84744   1.389  35.870   3.673
13074W        W84745   6.774  31.433   3.816
13075W        W84746  23.504  24.766  11.864
13076W        W84747  10.531  40.994   2.034
13077W        W84748  31.055   2.651  14.866
13078W        W84749  33.566  40.058   1.920
13079W        W84750  32.831  37.949  14.665
13080W        W84751  21.024  39.996   0.223
13081W        W84752  12.636  38.400   3.334
13082W        W84753  22.927  38.527   0.732
13083W        W84754  30.246  22.360   0.281
13084W        W84755  16.324  22.651  13.525
13085W        W84756   1.018  17.638  14.474
13086W        W84757  36.958  36.159  12.469
13087W        W84758  16.224  21.627   2.748
13088W        W84759  38.014   5.989   4.725
13089W        W84760  23.608   3.752   1.848
13090W        W84761  15.723  27.517  10.439
13091W        W84762  22.089  38.308   0.402
13092W        W84763  28.624  10.396   4.998
13093W        W84764   6.048   8.451  14.590
13094W        W84765  30.373  32.858  11.551
13095W        W84766  34.355  18.496   3.669
13096W        W84767   7.343  40.238   2.628
13097W        W84768   6.826  20.553   4.743
13098W        W84769  34.462  21.276   2.300
13099W        W84770  36.605   4.307   0.401
13100W        W84771  13.158  43.916  14.068
13101W        W84772  40.343  24.218  13.310
13102W        W84773  22.702   7.881  12.168
13103W        W84774  32.833  27.134   3.637
13104W        W84775  29.431   9.211   2.363
13105W        W84776  21.091  36.049  11.203
13106W        W84777  21.666  36.126   3.981
13107W        W84778  11.833  31.172   3.814
13108W        W84779  15.486  11.396   1.365
13109W        W84780   3.436  25.095  10.688
13110W        W84781  28.088   9.465   0.811
13111W        W84782  33.172   1.321  12.636
13112W        W84783  18.608  18.061   0.365
13113W        W84784  32.517  35.931   5.011
13114W        W84785  40.261   2.779   3.954
13115W        W84786  36.930  32.127   3.898
13116W        W84787  28.024  14.896  12.035
13117W        W84788  17.329  42.468   0.733
13118W        W84789  22.193  32.943  11.448
13119W        W84790  31.893   4.878   1.270
13120W        W84791  24.786   3.880  14.357
13121W        W84792   5.447  42.958   0.852
13122W        W84793  23.249  18.786  13.303
13123W        W84794  14.681  43.759  12.941
13124W        W84795  32.861   2.960   4.541
13125W        W84796  40.223  29.470   3.085
13126W        W84797  13.338  43.311   2.392
13127W        W84798  33.510  36.029   2.879
13128W        W84799  36.488  15.104  12.302
13129W        W84800  13.906  43.854   4.293
13130W        W84801  21.048  32.925  13.487
13131W        W84802   0.794  14.111   3.193
13132W        W84803  41.584   1.849   3.721
13133W        W84804   5.701  39.301  11.982
13134W        W84805  36.530   9.772  14.927
13135W        W84806  13.151  31.068   4.074
13136W        W84807  23.269  29.307   4.020
13137W        W84808  27.097  21.198   3.306
13138W        W84809  37.362  13.195   0.472
13139W        W84810   6.211  23.554   0.161
13140W        W84811  30.071  32.526   3.099
13141W        W84812  17.826  27.843   1.341
13142W        W84813  22.908  37.968   2.023
13143W        W84814  30.040  12.236  14.937
13144W        W84815  27.466   5.616  11.891
13145W        W84816  41.413  38.997   2.741
13146W        W84817  31.572  20.048   4.044
13147W        W84818  43.536   0.367   4.527
13148W        W84819  12.613  43.039  14.591
13149W        W84820  19.499   6.591  11.472
13150W        W84821  38.974  44.536   0.884
13151W        W84822  32.213  21.023  11.963
13152W        W84823  41.978   5.769  12.494
13153W        W84824  39.797  22.289  13.095
13154W        W84825  21.236  16.144  12.932
13155W        W84826  22.049  16.597   1.214
13156W        W84827  20.137  21.667  14.270
13157W        W84828  13.550  16.870  14.537
13158W        W84829   5.272   5.691  10.703
13159W        W84830  24.874  44.643  14.799
13160W        W84831   6.374  17.564   1.790
13161W        W84832  21.001  16.201  13.393
13162W        W84833  18.812  38.557   0.994
13163W        W84834  36.002  10.193   3.434
13164W        W84835  35.098  28.587  14.416
13165W        W84836  31.701   7.206   3.721
13166W        W84837  29.410  44.939   3.361
13167W        W84838   3.314  30.503   4.829
13168W        W84839  16.688  36.964  13.001
13169W        W84840   0.374  36.879   4.593
13170W        W84841  20.619  12.660  10.825
13171W        W84842  10.739   3.278  14.125
13172W        W84843  13.499   7.429   2.408
13173W        W84844  26.876  15.677  10.676
13174W        W84845  26.575  32.351  12.614
13175W        W84846  26.003  14.015   1.872
13176W        W84847   8.946   3.718   3.160
13177W        W84848  26.142  42.978  14.219
13178W        W84849   0.741  17.394   1.738
13179W        W84850  44.035  23.627  14.909
13180W        W84851  36.276   7.102  10.384
13181W        W84852  39.329  26.433  12.781
13182W        W84853  34.904  43.508  13.570
13183W        W84854   2.114   3.303   1.741
13184W        W84855   8.762   6.155   2.064
13185W        W84856   1.764   6.267   0.754
13186W        W84857  39.343   6.756  13.930
13187W        W84858  14.221  18.730  12.053
13188W        W84859  36.215  39.612   0.255
13189W        W84860  29.192  43.276  10.669
13190W        W84861  26.617  22.247  14.176
13191W        W84862  25.464   7.395   5.025
13192W        W84863   6.458  42.550   0.862
13193W        W84864  20.648  38.853  12.113
13194W        W84865  19.873   6.756  12.110
13195W        W84866   7.406  15.063  11.701
13196W        W84867  22.379   5.914   5.001
13197W        W84868  33.792  23.515  12.219
13198W        W84869  15.158   2.500  14.567
13199W        W84870  38.325  26.539  12.700
13200W        W84871  32.669  30.387   1.535
13201W        W84872  15.280  43.254   3.370
13202W        W84873  24.400  37.164  12.743
13203W        W84874  12.207   5.347  11.072
13204W        W84875  36.872   4.722   2.202
13205W        W84876  39.794  41.985   2.453
13206W        W84877  41.045  25.028  14.051
13207W        W84878  31.197  26.194  13.648
13208W        W84879  37.068   4.916   3.599
13209W        W84880  40.335   8.915  13.243
13210W        W84881   3.019  31.570  10.515
13211W        W84882  26.516  14.651  14.485
13212W        W84883   7.823  22.560  11.927
13213W        W84884  41.568   4.802  12.542
13214W        W84885   5.437  38.883  12.047
13215W        W84886  42.101   8.790   0.283
13216W        W84887  31.168  35.936   2.779
13217W        W84888  23.471  29.552  12.090
13218W        W84889  13.140  34.029   2.782
13219W        W84890  10.569  24.512  13.844
13220W        W84891  14.218  42.684   2.361
13221W        W84892  10.122   6.611   5.248
13222W        W84893  36.897  15.103   2.514
13223W        W84894  38.131  20.534   2.265
13224W        W84895  31.443   7.103  11.202
13225W        W84896  31.244  41.491  12.136
13226W        W84897   6.272   4.802   2.070
13227W        W84898  29.373  33.412   1.161
13228W        W84899   7.110  25.034   1.884
13229W        W84900  35.204  25.710  13.509
13230W        W84901  12.435  14.887   2.209
13231W        W84902  16.301  17.100  13.340
13232W        W84903  35.211  27.622   4.599
13233W        W84904  34.609  26.965  13.477
13234W        W84905  22.891  25.686  10.262
13235W        W84906  13.861   8.049   1.790
13236W        W84907  35.339  16.281   1.356
13237W        W84908  44.418  11.310   3.124
13238W        W84909   7.629  40.371   3.384
13239W        W84910  44.454   0.446   2.802
13240W        W84911  31.957  34.522  12.950
13241W        W84912   3.871  15.022  13.815
13242W        W84913  40.835  35.840   3.308
13243W        W84914  39.428  37.551  10.697
13244W        W84915   4.225  44.581   0.057
13245W        W84916  39.996  20.879   1.180
13246W        W84917  15.069  29.651  10.879
13247W        W84918  14.082   6.797  10.956
13248W        W84919  14.437  36.128   0.304
13249W        W84920   8.242   7.838   2.789
13250W        W84921   6.839  37.635  11.159
13251W        W84922   6.199  37.634   3.413
13252W        W84923  25.197   8.401  10.537
13253W        W84924   3.450  28.199   3.967
13254W        W84925   2.696   7.581   1.421
13255W        W84926  22.589   8.557   0.226
13256W        W84927  15.102  14.369  10.588
13257W        W84928  21.563  33.949  13.032
13258W        W84929  31.353  32.895   2.862
13259W        W84930  32.900  35.062  12.036
13260W        W84931  29.491  12.665  10.985
13261W        W84932  36.075  16.727  10.869
13262W        W84933  34.046   4.527   3.738
13263W        W84934  33.006   8.236   0.384
13264W        W84935  41.444  34.893   0.843
13265W        W84936  31.155  16.859  11.144
13266W        W84937  37.879  10.422   4.596
13267W        W84938  31.008  13.629   2.625
13268W        W84939  37.513  20.318  11.974
13269W        W84940   9.285   9.296   0.325
13270W        W84941  18.582  23.043   0.129
13271W        W84942  35.635  13.878   2.204
13272W        W84943  19.022  18.191   2.748
13273W        W84944  21.530  29.691   4.119
13274W        W84945  44.858  14.514   9.816
13275W        W84946  22.044  24.108   3.775
13276W        W84947   4.365   8.273  13.911
13277W        W84948   1.425  25.120  10.882
13278W        W84949  32.642  13.536  14.303
13279W        W84950  12.504  21.735  13.434
13280W        W84951  19.176  15.552  14.434
13281W        W84952  11.220   3.267  13.935
13282W        W84953  27.029  13.337  14.360
13283W        W84954  11.451  29.609  13.366
13284W        W84955   3.060  16.639   3.609
13285W        W84956  29.068  25.604  14.347
13286W        W84957  16.208  41.831   2.801
13287W        W84958  41.547  10.320  10.536
13288W        W84959  33.628  26.127  14.304
13289W        W84960  19.614  40.597   2.381
13290W        W84961   1.911   6.734  14.221
13291W        W84962   3.951  13.714  10.381
13292W        W84963  18.092   0.368  13.962
13293W        W84964   1.130  43.391   3.228
13294W        W84965  28.784  40.025  13.537
13295W        W84966   5.043  43.573  14.480
13296W        W84967  31.641  42.599   4.117
13297W        W84968  38.493  32.497   2.360
13298W        W84969   8.417   7.270  10.981
13299W        W84970  39.092   7.827   3.556
13300W        W84971  17.636   4.871   2.369
13301W        W84972   4.799  35.530   3.735
13302W        W84973   2.089  31.816  12.221
13303W        W84974  23.713  25.655  11.292
13304W        W84975  21.856  15.775   4.186
13305W        W84976  28.075  16.371   4.160
13306W        W84977  18.269  37.663  14.737
13307W        W84978  24.797   2.258   4.498
13308W        W84979  40.186   1.537   0.398
13309W        W84980  14.237  12.292  14.762
13310W        W84981  27.470  11.100  13.257
13311W        W84982   5.248  37.562   1.814
13312W        W84983   1.051   0.735  12.877
13313W        W84984  29.421  42.920   0.851
13314W        W84985  21.182   3.410  12.036
13315W        W84986  17.168   7.606   3.167
13316W        W84987   6.711   0.279   0.666
13317W        W84988  42.204  14.390  11.061
13318W        W84989  41.521  40.508   2.828
13319W        W84990  39.454  37.032  12.563
13320W        W84991  27.376  15.703  10.676
13321W        W84992   8.744  10.234  13.279
13322W        W84993  22.318  35.571   1.953
13323W        W84994  16.596  32.869   1.783
13324W        W84995  28.796  40.945   3.841
13325W        W84996  15.064  13.242   2.595
13326W        W84997  24.872  19.292  13.304
13327W        W84998  43.996  30.098  12.301
13328W        W84999  16.270   7.012  14.847
13329W        W85000  34.384  27.502  10.640
13330W        W85001  27.652  43.895  10.989
13331W        W85002  26.850  40.924   1.247
13332W        W85003  30.395  13.866  11.554
13333W        W85004   9.618  32.946   3.525
13334W        W85005  42.264   3.250  11.639
13335W        W85006  43.002   8.832   1.977
13336W        W85007  44.958  14.263  13.598
13337W        W85008  28.751  25.622  11.599
13338W        W85009  22.108  32.863   1.464
13339W        W85010  15.890  24.359  12.035
13340W        W85011  11.125  44.317   1.391
13341W        W85012   1.234  22.601  13.311
13342W        W85013  14.279   0.349   1.612
13343W        W85014  31.257  42.534   0.973
13344W        W85015  25.720  40.260   3.265
13345W        W85016  20.048  38.420  13.813
13346W        W85017  30.035  40.955   2.430
13347W        W85018   8.135  12.167   3.742
13348W        W85019   3.619  10.092   4.220
13349W        W85020  23.752  13.363  13.555
13350W        W85021   8.833  20.917   2.264
13351W        W85022   4.359  15.837   0.365
13352W        W85023   6.822  20.099   2.777
13353W        W85024  35.548  40.549  11.736
13354W        W85025  37.137  32.880   4.128
13355W        W85026   8.365   5.330  13.034
13356W        W85027   9.667   4.211  12.516
13357W        W85028  42.724  40.333  14.354
13358W        W85029   7.791  16.550   3.265
13359W        W85030  43.863  33.628   0.828
13360W        W85031  28.460  12.758  10.831
13361W        W85032  17.065  13.409   0.845
13362W        W85033   9.129  41.433  11.587
13363W        W85034  16.793  16.305   0.235
13364W        W85035  18.230  27.861  14.935
13365W        W85036  35.004   5.979  14.967
13366W        W85037  34.020  39.090   3.328
13367W        W85038  43.574  35.539   0.930
13368W        W85039  31.884   8.378   0.815
13369W        W85040   1.375   6.140   1.100
13370W        W85041   2.188   8.701   1.191
13371W        W85042   7.645   7.858   3.693
13372W        W85043  18.854   8.222   0.490
13373W        W85044  28.238  18.711  11.718
13374W        W85045   8.365  38.635  12.083
13375W        W85046  37.816   0.991  11.080
13376W        W85047   6.691   8.252  14.949
13377W        W85048  31.865  35.700   4.272
13378W        W85049  42.265  37.008   1.846
13379W        W85050  42.026  23.294   0.338
13380W        W85051  18.514  28.918   2.188
13381W        W85052  36.327  32.415  14.405
13382W        W85053  32.452   4.043  12.393
13383W        W85054  11.155  30.939  11.621
13384W        W85055  24.059  25.207   2.744
13385W        W85056  42.497  42.972  11.096
13386W        W85057   8.156  17.528   3.189
13387W        W85058  15.348  14.804  13.459
13388W        W85059  35.947  24.612   3.233
13389W        W85060  14.835  44.849  11.138
13390W        W85061  13.524  10.669  13.504
13391W        W85062  30.977  17.668  13.361
13392W        W85063  18.833  20.782   1.347
13393W        W85064  15.704  26.126  12.047
13394W        W85065  36.914  23.025   3.231
13395W        W85066   3.229  32.060  10.517
13396W        W85067  38.060  10.723   3.384
13397W        W85068  32.094  36.033   4.637
13398W        W85069  21.639  24.345   0.368
13399W        W85070  40.806  24.606   1.225
13400W        W85071  22.054  44.926  10.560
13401W        W85072   8.155   3.767   0.493
13402W        W85073  41.418  43.350   1.821
13403W        W85074  44.799   7.191  12.511
13404W        W85075  44.956  42.721  11.662
13405W        W85076  17.339   3.151  10.472
13406W        W85077   8.862  41.060   1.134
13407W        W85078  17.718  20.709  13.896
13408W        W85079  28.548  15.680  12.632
13409W        W85080  28.266  23.730   3.168
13410W        W85081   6.759   3.477   3.729
13411W        W85082  22.905  16.548  10.221
13412W        W85083  38.913   5.229  13.100
13413W        W85084  24.135   7.168   5.059
13414W        W85085   0.508  35.459  13.914
13415W        W85086  11.477   8.608  10.746
13416W        W85087  38.401  12.429  13.942
13417W        W85088  20.564   0.512  14.368
13418W        W85089  35.559  32.036   4.536
13419W        W85090  28.144  17.705  13.894
13420W        W85091  30.148  34.114   1.369
13421W        W85092  38.379  10.273   4.722
13422W        W85093  44.303  44.257   1.209
13423W        W85094  42.289   2.244  13.677
13424W        W85095  30.557   6.775   1.382
13425W        W85096  38.115  24.041   2.202
13426W        W85097   3.864  25.158   3.692
13427W        W85098  37.227   0.639   3.194
13428W        W85099  33.933   9.304   2.649
13429W        W85100   0.972  35.711   4.966
13430W        W85101  10.221  18.759   1.709
13431W        W85102  25.979   9.224   5.616
13432W        W85103  10.781  24.197   2.297
13433W        W85104  20.346  13.877  11.861
13434W        W85105  13.060  40.499  10.738
13435W        W85106  15.170  41.551   1.282
13436W        W85107  42.753  38.878   1.282
13437W        W85108  11.294  16.389   3.266
13438W        W85109   1.395   7.484   3.833
13439W        W85110  26.116   5.995   2.801
13440W        W85111   9.777  13.519   5.051
13441W        W85112   6.476  21.519   1.302
13442W        W85113  36.453  12.837  12.981
13443W        W85114  36.642  15.344   3.366
13444W        W85115  26.539   3.603   2.383
13445W        W85116  23.285  44.893   1.884
13446W        W85117  27.392   9.329   1.223
13447W        W85118  32.715  31.515  13.464
13448W        W85119   0.603  25.753  12.855
13449W        W85120  10.635  12.263   3.853
13450W        W85121  15.690   4.907   4.197
13451W        W85122   6.367  17.012   1.815
13452W        W85123   0.784  19.032   3.893
13453W        W85124  30.030  20.991  12.643
13454W        W85125   6.868   3.446  10.619
13455W        W85126   9.164  19.807   3.189
13456W        W85127  35.417  17.742   2.582
13457W        W85128  25.456   1.885  13.675
13458W        W85129  42.307  44.745   2.171
13459W        W85130  25.054   2.733   4.541
13460W        W85131  20.791  17.234  10.825
13461W        W85132  37.033  34.267   4.053
13462W        W85133  25.816  27.858  13.656
13463W        W85134  23.188  14.145   0.384
13464W        W85135  29.767  35.034  13.125
13465W        W85136  32.504   9.281   1.253
13466W        W85137   7.117   4.375   4.056
13467W        W85138  33.797  26.132   3.473
13468W        W85139  31.289  31.734  11.637
13469W        W85140   0.738   6.583   2.378
13470W        W85141  16.099  39.948   2.621
13471W        W85142  16.112  18.706   0.217
13472W        W85143   7.209   6.247   0.476
13473W        W85144   5.710   9.490   0.409
13474W        W85145  13.654   9.653   3.195
13475W        W85146  13.082  20.353  14.963
13476W        W85147   9.344  33.527   0.748
13477W        W85148  31.019  20.203  11.148
13478W        W85149  30.856  36.421  12.492
13479W        W85150   2.420  34.624  11.617
13480W        W85151   3.883  19.077  12.925
13481W        W85152  21.730  28.425  10.133
13482W        W85153  12.185  20.716   4.926
13483W        W85154  44.599  32.513  11.968
13484W        W85155  22.807  27.452   1.949
13485W        W85156  38.811  27.490   0.328
13486W        W85157   0.118  12.371   3.756
13487W        W85158   2.825   2.257  13.477
13488W        W85159  26.185  21.779  13.963
13489W        W85160  12.845  26.174   5.002
13490W        W85161   6.388  38.884   2.840
13491W        W85162  37.027  38.715  14.321
13492W        W85163  38.400  37.463   1.945
13493W        W85164  44.812  24.684   4.538
13494W        W85165  38.401  34.454  14.476
13495W        W85166  29.124  23.633   1.825
13496W        W85167   1.328  44.673   1.778
13497W        W85168   3.803  33.897  13.542
13498W        W85169  21.841  25.779   4.614
13499W        W85170  29.224  20.573  13.005
13500W        W85171  10.711  14.352   3.790
13501W        W85172  35.278  18.504  14.432
13502W        W85173  21.642  19.285   4.211
13503W        W85174  16.767  23.179  11.155
13504W        W85175  40.500  36.693  12.003
13505W        W85176  33.026   8.731   4.561
13506W        W85177  38.910  17.455  12.046
13507W        W85178  19.544  33.804  14.361
13508W        W85179  36.260  38.640  10.272
13509W        W85180  21.029  24.960  13.283
13510W        W85181  37.456  38.523   1.167
13511W        W85182  23.535  12.808   0.855
13512W        W85183   5.937  26.591   1.376
13513W        W85184  29.596  25.973  11.950
13514W        W85185  15.323  36.471   2.702
13515W        W85186  31.440  36.993   3.730
13516W        W85187  16.066  38.376  11.184
13517W        W85188  24.559  36.078  14.278
13518W        W85189  30.378  32.898   1.874
13519W        W85190  18.466  35.427  11.575
13520W        W85191  26.097  41.284   2.590
13521W        W85192  42.419  29.375   2.683
13522W        W85193  41.088  39.309  10.520
13523W        W85194   9.214   5.466   3.191
13524W        W85195  33.941  34.765  12.460
13525W        W85196   2.043  31.927   3.287
13526W        W85197   9.355  36.551  14.767
13527W        W85198  20.186  41.613   0.777
13528W        W85199  29.051  16.195   4.640
13529W        W85200  17.286  15.542   0.352
13530W        W85201   6.299  35.131  13.567
13531W        W85202  39.551  44.035   2.935
13532W        W85203  22.066  39.428   1.684
13533W        W85204  39.847  31.565  11.948
13534W        W85205  27.649   3.957  14.752
13535W        W85206  32.869  38.549  11.066
13536W        W85207   6.759   0.514  11.426
13537W        W85208  27.227  27.716   4.159
13538W        W85209  35.000  32.195  14.383
13539W        W85210  39.670  24.938  13.937
13540W        W85211  23.016  41.414   5.353
13541W        W85212  10.411  36.365  13.290
13542W        W85213  25.729  24.677   0.302
13543W        W85214  18.568  12.765   0.984
13544W        W85215  23.068  23.726  14.363
13545W        W85216  19.276  28.972   0.292
13546W        W85217  25.091   6.875  10.706
13547W        W85218  38.956  31.976   0.643
13548W        W85219  39.830   9.286  13.906
13549W        W85220  22.859  24.850   4.742
13550W        W85221  22.150  30.733   4.229
13551W        W85222   6.339  39.336  14.053
13552W        W85223  35.883  19.004   2.842
13553W        W85224   4.896  33.458  14.671
13554W        W85225  18.729  32.445   4.888
13555W        W85226  26.849  13.511  12.473
13556W        W85227   8.653   0.348  11.124
13557W        W85228   7.601  15.126   4.869
13558W        W85229   7.723  10.929   0.043
13559W        W85230  12.798  18.815   2.893
13560W        W85231   9.287   0.446   0.007
13561W        W85232   1.453  16.170   1.502
13562W        W85233  33.512  12.444   0.791
13563W        W85234  14.844  10.836   0.331
13564W        W85235  35.577  36.555   4.563
13565W        W85236  19.819  18.068  11.061
13566W        W85237  19.943  33.696  11.131
13567W        W85238  28.591  28.520   2.368
13568W        W85239  20.230  20.633   3.710
13569W        W85240   2.411  41.281  14.187
13570W        W85241  11.759   6.596   4.205
13571W        W85242  41.078   5.081   2.236
13572W        W85243  25.806  28.898  14.708
13573W        W85244  22.942  26.429  12.952
13574W        W85245  36.499  13.157  14.901
13575W        W85246  32.072  32.081  13.185
13576W        W85247   9.106  25.704   4.213
13577W        W85248  22.937  21.014   2.720
13578W        W85249  30.647  35.346   3.929
13579W        W85250  39.315  24.773   2.838
13580W        W85251  11.972  16.204   3.945
13581W        W85252  38.831  19.425  14.298
13582W        W85253   8.279  22.877   1.043
13583W        W85254  21.146  41.448   0.493
13584W        W85255  32.550   2.493   2.333
13585W        W85256  44.042  28.290   4.073
13586W        W85257  12.080  13.178  12.431
13587W        W85258  21.652  10.325  11.901
13588W        W85259  16.270  31.003   1.619
13589W        W85260  39.896  17.558   3.091
13590W        W85261  17.403  18.784  13.957
13591W        W85262  41.125  33.496   1.372
13592W        W85263  25.980  32.423   1.230
13593W        W85264   4.935  19.911  11.163
13594W        W85265  30.949   0.948   0.822
13595W        W85266   6.466  29.837   1.393
13596W        W85267  27.099   3.967  10.707
13597W        W85268  17.482  10.418  10.994
13598W        W85269  31.609  41.717  14.819
13599W        W85270  27.831  30.893   2.817
13600W        W85271  18.307   2.120  10.651
13601W        W85272  37.925   1.500  11.093
13602W        W85273   6.309  23.112   3.577
13603W        W85274  10.148  22.455   1.208
13604W        W85275  24.170  30.132  13.119
13605W        W85276  16.357  40.437   0.414
13606W        W85277  17.255  29.614   2.277
13607W        W85278  25.530  20.916   0.146
13608W        W85279  15.580  29.882   3.693
13609W        W85280  22.989  10.815   4.091
13610W        W85281  20.304  41.580  10.695
13611W        W85282  44.984   3.325   2.245
13612W        W85283  19.708   6.170  13.441
13613W        W85284  32.139  39.467  12.429
13614W        W85285  32.522  38.236   2.851
13615W        W85286  37.893  35.960   3.353
13616W        W85287   0.607  16.246  14.633
13617W        W85288  36.569  42.267  14.796
13618W        W85289  26.075  34.555  14.826
13619W        W85290   9.806   4.379   1.826
13620W        W85291   9.127  15.496  11.450
13621W        W85292  30.655  27.131   0.853
13622W        W85293  12.717  11.697  13.430
13623W        W85294   0.120  23.085  11.176
13624W        W85295   8.331  31.687   4.794
13625W        W85296  12.171   8.846   2.829
13626W        W85297  16.407  11.230  10.747
13627W        W85298  31.373  30.063  14.992
13628W        W85299  26.105   9.564   4.171
13629W        W85300  16.264  41.482   3.741
13630W        W85301  43.538  17.141   2.600
13631W        W85302  19.802  33.206  11.260
13632W        W85303   1.924  20.996   3.672
13633W        W85304  10.339   7.166   0.316
13634W        W85305  25.622  30.480  10.793
13635W        W85306  17.140  13.175  11.619
13636W        W85307  16.300  30.357   3.218
13637W        W85308  12.311  17.426   2.203
13638W        W85309  34.460  36.689  14.871
13639W        W85310  10.075  28.159   1.818
13640W        W85311   8.189  17.146  14.526
13641W        W85312  32.068  33.173   5.056
13642W        W85313  38.461   6.065   1.514
13643W        W85314  12.631  41.736  11.112
13644W        W85315   1.824   6.845  10.727
13645W        W85316  14.515   0.925   4.737
13646W        W85317  21.092  30.593   1.961
13647W        W85318   5.915   0.888  11.167
13648W        W85319  31.899  27.132  10.524
13649W        W85320  42.043  14.704   4.537
13650W        W85321  19.065   9.026  12.109
13651W        W85322  31.934  15.904   1.474
13652W        W85323  38.169  42.296  11.598
13653W        W85324  43.609  27.516   3.143
13654W        W85325  41.307  43.859   3.167
13655W        W85326  20.544  25.126  12.545
13656W        W85327  20.718  38.506  11.157
13657W        W85328  22.560  19.818  11.634
13658W        W85329   3.260  33.089   2.707
13659W        W85330  20.863  30.537  12.568
13660W        W85331  31.885   1.182  11.667
13661W        W85332   0.642  37.987  14.281
13662W        W85333  15.976  23.592   4.134
13663W        W85334   2.997   7.829  12.268
13664W        W85335   4.472  12.786  10.257
13665W        W85336  24.740  28.877  13.157
13666W        W85337  43.574  34.483   3.647
13667W        W85338  28.014  40.910  12.000
13668W        W85339  43.167  36.578   0.191
13669W        W85340   2.439  33.504   0.852
13670W        W85341  15.645   0.231   1.498
13671W        W85342  34.345  43.016  11.029
13672W        W85343   2.686  31.751  13.027
13673W        W85344  28.076  35.499   4.444
13674W        W85345  24.596  15.862  10.646
13675W        W85346  19.012  25.685  12.929
13676W        W85347  36.071  21.611   3.813
13677W        W85348  32.134  41.148  12.452
13678W        W85349   2.872  35.953  10.842
13679W        W85350  26.959  42.454  13.608
13680W        W85351  26.809  20.210  13.831
13681W        W85352  21.079  27.872  14.353
13682W        W85353  31.599   6.404   0.840
13683W        W85354  14.120   8.228  12.409
13684W        W85355   4.331  30.609   4.900
13685W        W85356  16.117  43.388   3.113
13686W        W85357  38.475  43.973  14.518
13687W        W85358  33.793  42.861   1.812
13688W        W85359  15.763  25.687  14.687
13689W        W85360  40.922  43.751  10.993
13690W        W85361  10.300  35.966   3.601
13691W        W85362  28.205   5.857  14.108
13692W        W85363   4.594  35.885  12.223
13693W        W85364  39.818  29.249   0.221
13694W        W85365  33.194  25.149  14.335
13695W        W85366   3.463  27.010  13.474
13696W        W85367  36.243  10.317  11.218
13697W        W85368  23.626  31.124  12.744
13698W        W85369  41.497  22.154   1.749
13699W        W85370  42.346  11.970  13.559
13700W        W85371  22.506  29.252   1.295
13701W        W85372  41.250   2.427   2.647
13702W        W85373  30.910  36.879  12.250
13703W        W85374  36.511  10.183   0.760
13704W        W85375  20.632  44.812   3.800
13705W        W85376  32.627  24.765  12.504
13706W        W85377  21.276   8.226   3.141
13707W        W85378  34.084  34.397   4.827
13708W        W85379  15.049  11.721  13.426
13709W        W85380  33.160  37.755   0.008
13710W        W85381  22.955   0.589  13.852
13711W        W85382  10.714  43.618   2.355
13712W        W85383  12.291  43.744  13.080
13713W        W85384  11.308  16.625  13.273
13714W        W85385   0.535  21.975   1.442
13715W        W85386  10.177  34.800  13.168
13716W        W85387  36.358  28.732   2.806
13717W        W85388  14.365  38.212  11.842
13718W        W85389  44.230  43.191   4.991
13719W        W85390  24.028   3.298  10.261
13720W        W85391  19.693  21.452  11.503
13721W        W85392  18.782  23.320   4.653
13722W        W85393   5.849  39.470   1.105
13723W        W85394  25.559  39.120   1.346
13724W        W85395  28.832  35.829   2.800
13725W        W85396  34.150   2.245  14.282
13726W        W85397  33.076  30.492   4.886
13727W        W85398   8.574  30.190   3.199
13728W        W85399   9.173  23.979   1.248
13729W        W85400  41.552   5.924  13.895
13730W        W85401  37.430   7.865  11.116
13731W        W85402  40.949   9.693   0.078
13732W        W85403  40.995  30.079   1.335
13733W        W85404   1.733  33.324  13.285
13734W        W85405  17.762  17.377  11.578
13735W        W85406  28.700  10.375   2.090
13736W        W85407   0.055  29.595  12.862
13737W        W85408  42.713  18.185  12.567
13738W        W85409  16.092  17.046   0.487
13739W        W85410  13.264   9.244  12.675
13740W        W85411  13.336  25.247   3.267
13741W        W85412  44.637  32.334   5.027
13742W        W85413  20.646  38.079  13.439
13743W        W85414  11.038   9.291   1.733
13744W        W85415   3.439  13.393   1.262
13745W        W85416  13.813  31.519  13.960
13746W        W85417   9.630  13.668   2.643
13747W        W85418   6.747   9.227  11.568
13748W        W85419  32.487  44.995   1.902
13749W        W85420  37.914  42.306   1.293
13750W        W85421   1.981  25.291   0.898
13751W        W85422  12.787  29.520  11.945
13752W        W85423  39.068  17.094  11.088
13753W        W85424  44.427   6.196  11.173
13754W        W85425  35.169  30.960   0.228
13755W        W85426  18.047  11.113  13.729
13756W        W85427  36.043  24.105   1.350
13757W        W85428  27.101  26.547   1.944
13758W        W85429   6.721   1.300  12.555
13759W        W85430  26.992  10.182   1.961
13760W        W85431  16.597  19.051   1.325
13761W        W85432  28.151  14.235  13.580
13762W        W85433  25.805   0.511  11.541
13763W        W85434  23.034  42.515  12.844
13764W        W85435  31.365   1.443  14.478
13765W        W85436  17.612  34.678   2.840
13766W        W85437  29.324   2.764  12.428
13767W        W85438   1.288   7.785  10.980
13768W        W85439  43.940  40.671   3.681
13769W        W85440  25.110  43.288   3.580
13770W        W85441  36.774   9.180   2.429
13771W        W85442  35.996  26.468   4.381
13772W        W85443  29.663  42.734   1.268
13773W        W85444  29.634  30.121   1.725
13774W        W85445  23.471  22.101   3.392
13775W        W85446   6.865  39.037   4.227
13776W        W85447  35.461  31.428  12.985
13777W        W85448  39.162  28.664  14.934
13778W        W85449  18.310  30.786   4.364
13779W        W85450   6.882  21.067   4.739
13780W        W85451  27.236  22.783   4.615
13781W        W85452   0.963  44.797   0.439
13782W        W85453  19.540   2.023   0.727
13783W        W85454  42.783  40.085   3.235
13784W        W85455  11.739  32.111  12.823
13785W        W85456  25.551  13.359   0.708
13786W        W85457  13.177   9.299   4.341
13787W        W85458  21.674  31.814  13.798
13788W        W85459  19.979  14.479   0.395
13789W        W85460   7.296  33.020  14.887
13790W        W85461  14.478  37.105   4.597
13791W        W85462   4.281  18.108  11.105
13792W        W85463  39.604  18.763  11.248
13793W        W85464  28.020  30.235  12.605
13794W        W85465  24.113  23.454  13.360
13795W        W85466  12.319   1.720  11.761
13796W        W85467   0.886  40.082  13.836
13797W        W85468  34.142  30.191  11.109
13798W        W85469  28.408  43.783  12.899
13799W        W85470  16.633  17.787  11.583
13800W        W85471  40.021  31.002  13.533
13801W        W85472  24.648  24.503  11.679
13802W        W85473  20.634  36.771  13.808
13803W        W85474  13.277  22.637  10.881
13804W        W85475  40.062  32.372  13.175
13805W        W85476  10.345  40.124  12.851
13806W        W85477  30.584  12.352  10.491
13807W        W85478  43.920  21.980   4.810
13808W        W85479  44.035  41.155   1.912
13809W        W85480  40.499  37.754   3.349
13810W        W85481  39.437  40.023   0.451
13811W        W85482  38.700  10.344  13.122
13812W        W85483   7.293  11.723   4.935
13813W        W85484  44.167  22.443  12.455
13814W        W85485  36.799   1.781   4.198
13815W        W85486  31.306  18.149  12.680
13816W        W85487  22.801  31.463   3.810
13817W        W85488  15.847  22.900  11.865
13818W        W85489  15.562  34.135  13.917
13819W        W85490  29.089  41.730   0.890
13820W        W85491  41.938  35.904  14.521
13821W        W85492   1.414   2.706  14.263
13822W        W85493  12.034   1.090  14.963
13823W        W85494  27.886   8.236   2.279
13824W        W85495   5.764  29.675   1.880
13825W        W85496  42.299  27.413  11.607
13826W        W85497  10.615  15.374   2.919
13827W        W85498  38.519  27.303  10.793
13828W        W85499   8.114  21.245   0.314
13829W        W85500  44.228   4.953  14.378
13830W        W85501   4.049  27.615   3.868
13831W        W85502  43.867  32.313  10.852
13832W        W85503  36.625  12.836  11.684
13833W        W85504  37.626  13.133   1.366
13834W        W85505   1.735  22.210  10.144
13835W        W85506  11.797  32.607  13.014
13836W        W85507  17.462  12.739  11.067
13837W        W85508  10.597  29.106   4.144
13838W        W85509  17.169  36.077  13.091
13839W        W85510  43.848  28.230  13.829
13840W        W85511  37.487  10.351   5.332
13841W        W85512  20.515  12.212  11.733
13842W        W85513  19.295   2.010   1.829
13843W        W85514  41.923  14.684  12.269
13844W        W85515  23.446  11.718  13.678
13845W        W85516  15.544  35.882  10.970
13846W        W85517   3.859  32.155  10.271
13847W        W85518  33.104  39.308   3.609
13848W        W85519  10.128  34.810  14.070
13849W        W85520  40.254   7.152   3.293
13850W        W85521  32.426  10.530   4.617
13851W        W85522  42.300   8.148   2.724
13852W        W85523   4.854   6.457  14.372
13853W        W85524   3.609  11.292  10.739
13854W        W85525  32.088  11.270   4.820
13855W        W85526  42.063  20.926  14.967
13856W        W85527  39.512  26.095   3.750
13857W        W85528  36.130  40.134   0.961
13858W        W85529   1.904  15.335   1.598
13859W        W85530  20.498   4.852  10.499
13860W        W85531   5.715  10.837   4.571
13861W        W85532  29.574   0.151  13.403
13862W        W85533  37.188  17.470   1.374
13863W        W85534   4.852   2.179  11.510
13864W        W85535  30.909   7.854  10.896
13865W        W85536  43.359  11.933  12.605
13866W        W85537  10.132  38.892   3.375
13867W        W85538  44.587  43.784  12.313
13868W        W85539  31.144  25.057  11.977
13869W        W85540  21.675  33.351   3.251
13870W        W85541  25.261  30.529   4.184
13871W        W85542   4.277   3.214  11.985
13872W        W85543   1.108   4.466  12.852
13873W        W85544  25.679  22.984   3.635
13874W        W85545  32.130  14.319  13.348
13875W        W85546  18.069  12.238  14.004
13876W        W85547  11.477  20.548   0.983
13877W        W85548  26.645  17.581   2.995
13878W        W85549  19.003  35.585   4.114
13879W        W85550   6.059  22.002   4.557
13880W        W85551  39.997  32.289   4.678
13881W        W85552  15.662  16.621  13.944
13882W        W85553   5.121  18.066  13.847
13883W        W85554  17.530  22.274  12.064
13884W        W85555  44.860  26.374  14.810
13885W        W85556  37.429  18.542   2.141
13886W        W85557  41.419  42.258   0.345
13887W        W85558  28.001  36.898   0.568
13888W        W85559  39.030   0.213   1.104
13889W        W85560  31.594  10.847  14.615
13890W        W85561  19.365  27.192   1.789
13891W        W85562   9.018  32.918  12.691
13892W        W85563  44.862  22.663   1.278
13893W        W85564   5.287   6.700   4.050
13894W        W85565  28.019   3.953  11.518
13895W        W85566  25.713   3.202   1.529
13896W        W85567  12.562  32.111   0.411
13897W        W85568  24.602  23.643  14.627
13898W        W85569  26.083  38.374  13.793
13899W        W85570  12.418  32.015   4.987
13900W        W85571  41.809  32.662   1.736
13901W        W85572  29.190  16.663   1.681
13902W        W85573   5.283  44.820   1.310
13903W        W85574  29.116  32.660  12.452
13904W        W85575  37.260  37.064   1.305
13905W        W85576   4.424   8.872   3.589
13906W        W85577  36.570  23.192  13.060
13907W        W85578  40.918  39.693   1.790
13908W        W85579   1.645  19.513  14.072
13909W        W85580  42.518  38.649   2.833
13910W        W85581   8.548   1.179   1.842
13911W        W85582  22.603  18.531  14.708
13912W        W85583  11.567  31.945   2.821
13913W        W85584   6.432   9.186  11.112
13914W        W85585  14.374  44.060   4.161
13915W        W85586  36.157  26.525  13.540
13916W        W85587  31.156   2.216   4.732
13917W        W85588  35.838  16.981   3.339
13918W        W85589  27.176  38.795  13.368
13919W        W85590  37.435   6.889  13.130
13920W        W85591  39.081  16.928  13.917
13921W        W85592  41.740  43.928   0.280
13922W        W85593   9.379   5.934  13.823
13923W        W85594   2.481  41.961  14.978
13924W        W85595  19.998  38.327   0.218
13925W        W85596  14.239  27.170  11.590
13926W        W85597   6.815  22.341   3.365
13927W        W85598  13.613  42.267   4.796
13928W        W85599  34.355  20.299  10.619
13929W        W85600  36.001  12.747   2.387
13930W        W85601   3.823  27.164  13.812
13931W        W85602  11.354  31.578  12.878
13932W        W85603   4.161  35.801   3.314
13933W        W85604  26.374   9.013   4.098
13934W        W85605  36.449  37.283   1.932
13935W        W85606  23.314  42.328  13.796
13936W        W85607   4.281  19.195   0.866
13937W        W85608  17.334  38.035  14.416
13938W        W85609  33.533   9.886   0.750
13939W        W85610  17.150  17.674  10.355
13940W        W85611  41.376  12.511   4.319
13941W        W85612  16.339  27.583   2.127
13942W        W85613  35.855   4.537   3.092
13943W        W85614  27.648  37.833   3.221
13944W        W85615  33.337   6.906  13.426
13945W        W85616  32.052  41.391  13.579
13946W        W85617  25.009  16.003  14.532
13947W        W85618  17.252  14.899  12.188
13948W        W85619  26.182  32.926  13.768
13949W        W85620   8.220  41.869   4.086
13950W        W85621  27.719  36.661  11.175
13951W        W85622  36.658  30.110  11.198
13952W        W85623  26.638  31.223   0.834
13953W        W85624  42.250  25.069   0.351
13954W        W85625   9.651  14.678  11.455
13955W        W85626  14.221  30.263  12.461
13956W        W85627  19.301   7.235  10.591
13957W        W85628  26.563   3.030   2.396
13958W        W85629  17.015  44.335   0.267
13959W        W85630  23.241  41.820  13.928
13960W        W85631  25.700  44.736  13.027
13961W        W85632  41.626  33.445   1.286
13962W        W85633  39.807  25.163  11.073
13963W        W85634  33.120  17.839  10.656
13964W        W85635  23.970  37.149  11.966
13965W        W85636  26.715  10.725  10.910
13966W        W85637   3.387  44.459  10.588
13967W        W85638  25.065  42.442  13.897
13968W        W85639   7.805  16.559   4.533
13969W        W85640   0.251  23.967   4.584
13970W        W85641  26.550  30.384  13.274
13971W        W85642  23.109  33.609  13.793
13972W        W85643  16.840  18.784  10.630
13973W        W85644  41.925  40.841  13.765
13974W        W85645  39.105  15.850   4.550
13975W        W85646  44.173   8.570   3.180
13976W        W85647  16.630  39.050  10.690
13977W        W85648   0.690  26.588   0.560
13978W        W85649   2.178  36.409  12.230
13979W        W85650  13.865   6.733  12.277
13980W        W85651   8.720  37.631   4.720
13981W        W85652  38.132  23.303  13.781
13982W        W85653  38.556  11.932  13.148
13983W        W85654  32.271   6.875   4.268
13984W        W85655   1.312  39.435   2.764
13985W        W85656   3.626  38.888  14.276
13986W        W85657  32.093  42.955  14.018
13987W        W85658  13.562  28.866   3.662
13988W        W85659   8.751  40.077   0.917
13989W        W85660   9.345   7.294  12.098
13990W        W85661  41.458  36.024  13.375
13991W        W85662   1.324  24.078   0.922
13992W        W85663  22.980  26.603  10.796
13993W        W85664  23.754  38.795   2.823
13994W        W85665  26.015  24.641  14.868
13995W        W85666   8.883  40.985   0.114
13996W        W85667  27.615  42.099  14.293
13997W        W85668  10.565  38.353   1.407
13998W        W85669  18.622  26.237   3.697
13999W        W85670  43.374  30.741   0.767
14000W        W85671  17.596  10.620   4.588
14001W        W85672  35.059  29.415  14.926
14002W        W85673  24.652  24.699  13.129
14003W        W85674   0.867  42.247   3.814
14004W        W85675  27.633  34.091  12.115
14005W        W85676  25.772  16.558   4.415
14006W        W85677  14.407  30.672   0.996
14007W        W85678  13.761  20.228   4.534
14008W        W85679  37.390  44.154  14.327
14009W        W85680  43.051  25.691   4.255
14010W        W85681  29.464  34.815   3.099
14011W        W85682  21.305  32.606   3.689
14012W        W85683  10.598  42.131  12.885
14013W        W85684   5.392  19.780  12.954
14014W        W85685  20.584   8.487   3.523
14015W        W85686  25.072  31.026   4.083
14016W        W85687  18.781   7.709   4.760
14017W        W85688  18.137  35.389  13.399
14018W        W85689  11.554  37.274  11.241
14019W        W85690  16.531  20.412   1.650
14020W        W85691   8.962  19.172  14.547
14021W        W85692  16.519  18.477  11.143
14022W        W85693   1.516  27.593  12.092
14023W        W85694  26.385  27.655   0.779
14024W        W85695  42.450   2.041   0.413
14025W        W85696  36.356  39.370  13.868
14026W        W85697   6.576  21.513  10.650
14027W        W85698  13.587  32.003  10.872
14028W        W85699   0.736  41.546  10.674
14029W        W85700   6.210  31.859  10.251
14030W        W85701  41.509  21.963  10.699
14031W        W85702  38.515  12.295  10.422
14032W        W85703  17.591  41.333  11.518
14033W        W85704  28.993  23.144   3.745
14034W        W85705  44.393  32.989   3.319
14035W        W85706   3.901  32.142   1.171
14036W        W85707  26.567  39.494  12.621
14037W        W85708   3.037  24.569   3.034
14038W        W85709  30.961  36.384  13.040
14039W        W85710   2.699  21.106  10.671
14040W        W85711  12.895   8.277  12.981
14041W        W85712  34.204  28.685  13.016
14042W        W85713  29.665   0.896   1.601
14043W        W85714  21.158   0.160  12.091
14044W        W85715  10.437  14.220   1.802
14045W        W85716  39.532  44.455  11.798
14046W        W85717  35.300  24.071   4.154
14047W        W85718  36.334   3.370   4.589
14048W        W85719  40.521   7.215  14.364
14049W        W85720  34.258  44.762  10.535
14050W        W85721  12.630  30.950   4.018
14051W        W85722  12.751  26.822   4.486
14052W        W85723  29.608  17.650   2.651
14053W        W85724   7.138  29.335  12.484
14054W        W85725   0.368  22.454   1.356
14055W        W85726  24.586  22.773   3.149
14056W        W85727  35.674  27.819  14.433
14057W        W85728  15.362   9.681   0.003
14058W        W85729  12.329  42.488   4.210
14059W        W85730   2.466  18.082   4.663
14060W        W85731  12.941   4.363   0.969
14061W        W85732  13.201  18.225  12.904
14062W        W85733  14.302  41.701  13.509
14063W        W85734  27.405  44.803  14.430
14064W        W85735  10.495  27.700  12.974
14065W        W85736  28.023  10.830   2.624
14066W        W85737  33.555  11.448  14.381
14067W        W85738   5.198  14.312  14.956
14068W        W85739  23.176   3.122  13.521
14069W        W85740   6.738   3.955   0.516
14070W        W85741  41.815  21.205  11.590
14071W        W85742   7.910  26.124  14.872
14072W        W85743  32.647  16.370  14.486
14073W        W85744  12.807  37.384   0.761
14074W        W85745  16.097   0.891  11.247
14075W        W85746  43.255  13.701  13.414
14076W        W85747  22.939  40.107   4.531
14077W        W85748  32.422  25.231   3.739
14078W        W85749  33.976   6.798   3.825
14079W        W85750  24.062   3.268  13.396
14080W        W85751  27.472  35.160  13.011
14081W        W85752  21.543  16.587   4.290
14082W        W85753  24.970  26.481  10.665
14083W        W85754  36.930  26.207   1.331
14084W        W85755   2.978  21.782  11.129
14085W        W85756  41.972  27.061  11.895
14086W        W85757  43.794  25.223  13.092
14087W        W85758   5.331  23.636   3.070
14088W        W85759   3.597  42.427  11.540
14089W        W85760  42.277  40.709   0.571
14090W        W85761  42.976  34.113  12.025
14091W        W85762  22.708  30.579   0.838
14092W        W85763  29.128  33.242  10.941
14093W        W85764  16.830  22.758  13.446
14094W        W85765  41.661  15.243   0.411
14095W        W85766  41.054  29.929   4.247
14096W        W85767  10.708  14.831  10.579
14097W        W85768  35.911  26.641  12.822
14098W        W85769  34.333  33.615  11.950
14099W        W85770  17.998  28.854  14.878
14100W        W85771  24.055  24.264   2.920
14101W        W85772   5.145  17.248   0.384
14102W        W85773  17.392  42.255  11.493
14103W        W85774  23.224  18.096  10.341
14104W        W85775   5.956   5.050  13.623
14105W        W85776   6.976  14.262   3.846
14106W        W85777  26.091  29.011   0.496
14107W        W85778   9.286  23.532   1.902
14108W        W85779  41.009   2.777  10.867
14109W        W85780   9.882  40.582  12.308
14110W        W85781  24.172  38.704  12.062
14111W        W85782   2.958   4.152   0.688
14112W        W85783  28.435  40.576   3.675
14113W        W85784   3.748  22.322   0.245
14114W        W85785   8.410  41.696  13.514
14115W        W85786  43.240  44.684   3.758
14116W        W85787   3.849  14.480  13.908
14117W        W85788  16.117  37.104   1.995
14118W        W85789  30.645  21.969   2.378
14119W        W85790   3.292  18.887   4.008
14120W        W85791  41.248  38.935  10.822
14121W        W85792  42.428  13.840  12.395
14122W        W85793  24.816  44.059   5.133
14123W        W85794  29.973  39.827  12.165
14124W        W85795   8.955  17.056  13.485
14125W        W85796  11.131  10.710  14.289
14126W        W85797   4.310  15.383  14.007
14127W        W85798  14.285   2.365  14.420
14128W        W85799  32.529   9.212   2.330
14129W        W85800   4.255  34.378   3.430
14130W        W85801  39.963   3.299  14.088
14131W        W85802  44.736  34.496  13.413
14132W        W85803  30.024  36.963  12.405
14133W        W85804  38.611  38.033  14.473
14134W        W85805  11.557   4.342   4.650
14135W        W85806  40.993  28.226  13.013
14136W        W85807   2.642   9.207   4.630
14137W        W85808  43.961  15.825  14.789
14138W        W85809  33.287  42.068   1.860
14139W        W85810  44.006  26.617   2.925
14140W        W85811  16.349  12.737   3.540
14141W        W85812  35.429   6.237   1.084
14142W        W85813  31.872  38.991   1.447
14143W        W85814  44.349   0.070   4.605
14144W        W85815  29.231  40.875   2.031
14145W        W85816  32.734  17.768  12.970
14146W        W85817  43.634  39.022  13.343
14147W        W85818  40.351  22.812  13.488
14148W        W85819  42.785  37.010   1.798
14149W        W85820  38.532  40.329   4.132
14150W        W85821  43.927  33.064   3.103
14151W        W85822  42.228  16.038   0.439
14152W        W85823  20.629  27.075  13.563
14153W        W85824   5.489  44.714   4.355
14154W        W85825  25.994   6.198   0.406
14155W        W85826  18.272   2.767  14.282
14156W        W85827  24.723  34.616  10.497
14157W        W85828  15.307  23.931   0.387
14158W        W85829  43.699  10.734   1.458
14159W        W85830   3.516  44.388   0.872
14160W        W85831   8.262  15.786  13.816
14161W        W85832   8.291   0.475  13.577
14162W        W85833  30.921   9.204  14.474
14163W        W85834  21.152   6.676   0.774
14164W        W85835  24.139   3.936  12.377
14165W        W85836  15.027  35.666  13.148
14166W        W85837  22.584  30.685   3.199
14167W        W85838  26.755  37.754  13.226
14168W        W85839  31.623   8.483   0.381
14169W        W85840  19.306  42.406  12.944
14170W        W85841  34.833  32.374   1.312
14171W        W85842  26.694  35.851  13.326
14172W        W85843  22.907  26.514   0.300
14173W        W85844  15.241  34.556  13.914
14174W        W85845  28.661   6.437  14.734
14175W        W85846  24.931  15.091   1.721
14176W        W85847  11.879  32.420   0.962
14177W        W85848  36.114  33.674  14.448
14178W        W85849  15.678   9.758  10.119
14179W        W85850  34.552  26.494   4.575
14180W        W85851  28.496  12.502  12.140
14181W        W85852  44.945  29.235  13.374
14182W        W85853   6.279   0.217  14.818
14183W        W85854   2.907  34.297  14.913
14184W        W85855  44.350  12.490   1.155
14185W        W85856  18.730  16.118   1.475
14186W        W85857  39.567  11.302  13.980
14187W        W85858  13.121  39.755  11.188
14188W        W85859  24.535   6.748  14.309
14189W        W85860  10.185  29.915   3.670
14190W        W85861  17.305  40.047  12.832
14191W        W85862  18.321  37.057  13.086
14192W        W85863  30.494  28.902  11.121
14193W        W85864  44.198  15.834  10.069
14194W        W85865  16.462   0.781   3.859
14195W        W85866   3.164  38.960  10.739
14196W        W85867  18.619  24.497  12.088
14197W        W85868  33.374  16.616   3.367
14198W        W85869  21.869  41.029   9.608
14199W        W85870  17.248   1.341   3.585
14200W        W85871   8.202  22.344  12.238
14201W        W85872   2.740  23.085  14.596
14202W        W85873  11.323   2.972   3.659
14203W        W85874   6.930  22.481   3.857
14204W        W85875   4.932   3.522  12.063
14205W        W85876  13.103  18.032   4.297
14206W        W85877  39.872  33.902   1.970
14207W        W85878  25.620  38.340  12.083
14208W        W85879  21.234  25.009  13.772
14209W        W85880   8.547  29.008   2.289
14210W        W85881   5.512  29.113   2.742
14211W        W85882  23.303  24.193  14.404
14212W        W85883  36.019  42.846  10.678
14213W        W85884  26.226   8.136   4.275
14214W        W85885   6.461  13.262   2.232
14215W        W85886  33.084   0.290   1.972
14216W        W85887   3.200  37.313   2.141
14217W        W85888  43.327  44.784  10.622
14218W        W85889   7.671  19.825  11.073
14219W        W85890  10.321  20.736   2.737
14220W        W85891   2.766  42.010  14.333
14221W        W85892  19.070   7.909   1.494
14222W        W85893  29.593  28.990   1.227
14223W        W85894  15.767  33.593   1.392
14224W        W85895   0.412   1.503  12.659
14225W        W85896  42.264  37.962  13.119
14226W        W85897  32.150   3.641   4.671
14227W        W85898  16.519  19.199  12.946
14228W        W85899  40.214  14.749  11.205
14229W        W85900   4.717  29.361   4.576
14230W        W85901   3.337  44.336   4.229
14231W        W85902  17.171   1.648  11.561
14232W        W85903   4.297   1.340   0.340
14233W        W85904  32.875  37.705   2.708
14234W        W85905  38.970  17.575   4.361
14235W        W85906  29.957  23.182   0.185
14236W        W85907  33.875  30.963   1.853
14237W        W85908  26.565   6.046   4.569
14238W        W85909  34.752  25.953  11.128
14239W        W85910  37.034  20.141   4.200
14240W        W85911  29.773  15.668   2.792
14241W        W85912  24.491  15.837   3.240
14242W        W85913  40.081  17.312  13.951
14243W        W85914  14.860  13.035   0.876
14244W        W85915  39.328  32.579  13.907
14245W        W85916  35.135  13.927  13.451
14246W        W85917   3.479  34.941   3.581
14247W        W85918  27.015   1.200   2.229
14248W        W85919  25.562  10.770  14.992
14249W        W85920  18.224   4.703  14.148
14250W        W85921  17.439  35.998   3.114
14251W        W85922  20.111   0.690  10.975
14252W        W85923  30.300  22.775  11.615
14253W        W85924  31.910  22.271   3.714
14254W        W85925  43.267   5.950   1.908
14255W        W85926   8.574  29.633   0.334
14256W        W85927   4.200  10.327   2.836
14257W        W85928  20.805   4.196  13.505
14258W        W85929  24.976  22.734  14.427
14259W        W85930  23.692  23.559   2.400
14260W        W85931  23.699  29.715   3.090
14261W        W85932   1.299  33.086   4.816
14262W        W85933  27.295  10.635  14.872
14263W        W85934   8.196  39.283   4.126
14264W        W85935  29.282  44.769   2.888
14265W        W85936  40.558  16.679  12.906
14266W        W85937   2.884  29.565   3.159
14267W        W85938  12.274  30.637  14.181
14268W        W85939  27.495  21.168   2.949
14269W        W85940  42.388  11.329   2.436
14270W        W85941  18.777  30.835  13.970
14271W        W85942  38.781   3.481  10.249
14272W        W85943  31.351  13.826  14.411
14273W        W85944  39.635   1.891   1.877
14274W        W85945  10.845  31.129  13.536
14275W        W85946   8.149  37.861   0.192
14276W        W85947  17.317  12.613  10.207
14277W        W85948  43.274   1.829   3.220
14278W        W85949  10.875  26.400   9.984
14279W        W85950  37.831  23.754  13.886
14280W        W85951  37.906  39.781   2.807
14281W        W85952  30.607  43.720   3.817
14282W        W85953  37.282  25.402   4.966
14283W        W85954  17.072   4.962   5.529
14284W        W85955  28.152   0.191  13.507
14285W        W85956   3.378  38.467   3.129
14286W        W85957  15.658  32.929  13.275
14287W        W85958  16.431  19.235   1.759
14288W        W85959  15.721  38.774  10.748
14289W        W85960  37.946   7.171  13.091
14290W        W85961  28.633   7.393   0.329
14291W        W85962  34.882  40.012  12.361
14292W        W85963  33.501  30.002   2.633
14293W        W85964  38.283  42.892   3.651
14294W        W85965  35.589   2.653   1.670
14295W        W85966  22.325  32.962   2.840
14296W        W85967  30.488  32.992   3.172
14297W        W85968  18.502  18.454   5.005
14298W        W85969   2.889  36.106   1.023
14299W        W85970  23.521  23.942  11.510
14300W        W85971  12.508  13.664  10.782
14301W        W85972  36.757   7.844  13.471
14302W        W85973  41.540  42.839   1.463
14303W        W85974  16.019  22.241   0.836
14304W        W85975  33.175   8.224   1.300
14305W        W85976   0.588  39.925   3.389
14306W        W85977  14.113  12.031   1.387
14307W        W85978  39.354  14.093   2.716
14308W        W85979  26.043  11.600  11.731
14309W        W85980  36.273  42.041  13.170
14310W        W85981  23.934  28.225   1.814
14311W        W85982   8.689  22.362   0.895
14312W        W85983  26.996  13.241  10.717
14313W        W85984  31.989  17.705   3.581
14314W        W85985  13.727  12.216  12.502
14315W        W85986  28.817   9.425  14.450
14316W        W85987  25.961  40.527  11.982
14317W        W85988   2.028  31.646   2.667
14318W        W85989  21.153  31.995   0.904
14319W        W85990  26.121  35.483  13.911
14320W        W85991   6.728  30.661  14.885
14321W        W85992   9.831  40.807  13.818
14322W        W85993   7.852  39.560   2.325
14323W        W85994  11.874  23.154  11.341
14324W        W85995  40.239   5.367   2.405
14325W        W85996  38.295  23.218   0.898
14326W        W85997   2.196  38.490  14.835
14327W        W85998  32.431  32.185   0.798
14328W        W85999  11.988  13.622  10.663
14329W        W86000  27.030  30.098   1.383
14330W        W86001  31.706  14.747  12.692
14331W        W86002  39.411   1.418   3.348
14332W        W86003   4.456  26.113   4.959
14333W        W86004  20.831  33.544   4.228
14334W        W86005  20.987  23.228  13.808
14335W        W86006   3.636   3.684  13.482
14336W        W86007   7.651   8.835   5.122
14337W        W86008  41.860  31.696   3.214
14338W        W86009  43.898  30.234   0.083
14339W        W86010  28.887  38.044  11.201
14340W        W86011  36.905  36.607   3.434
14341W        W86012  13.612  36.447  10.995
14342W        W86013   1.318   3.703  11.876
14343W        W86014  30.076  24.594   4.926
14344W        W86015   9.583  33.876   1.604
14345W        W86016  19.193   1.079   1.454
14346W        W86017  12.166  20.739  14.792
14347W        W86018   2.887  23.738  11.019
14348W        W86019  16.210  33.122  12.038
14349W        W86020  34.615   6.166   1.834
14350W        W86021   0.993  11.837  13.881
14351W        W86022  30.565  28.208  12.895
14352W        W86023  14.071  14.374   2.702
14353W        W86024  28.141  35.477  14.034
14354W        W86025  41.946   2.655   2.563
14355W        W86026  29.609  44.715  13.090
14356W        W86027  33.027   3.709  12.521
14357W        W86028  22.180  30.601  10.918
14358W        W86029   7.778  43.019   4.178
14359W        W86030  38.034  14.548   2.812
14360W        W86031  43.299  27.455   2.304
14361W        W86032  38.049  22.795   0.676
14362W        W86033  21.201  24.137  10.455
14363W        W86034  19.598  22.773   0.956
14364W        W86035  37.906  19.064  13.721
14365W        W86036  34.628  18.241  12.399
14366W        W86037  39.080  35.885  12.512
14367W        W86038   7.743   6.246   2.227
14368W        W86039   6.468   0.866   4.256
14369W        W86040  12.843  40.398  12.558
14370W        W86041  24.335  24.518  13.497
14371W        W86042  37.638  39.410   4.116
14372W        W86043  17.078  39.360   0.789
14373W        W86044  44.436  20.037   3.135
14374W        W86045  43.866   7.324   4.890
14375W        W86046   4.077   6.860   2.520
14376W        W86047  30.099  12.129   3.709
14377W        W86048  32.086  23.025   1.460
14378W        W86049  39.340  30.685   0.278
14379W        W86050   4.094  41.798   4.469
14380W        W86051  18.224   1.549  13.058
14381W        W86052  27.242  36.310   3.699
14382W        W86053  42.094  20.207   0.710
14383W        W86054  30.146  29.400   1.766
14384W        W86055  26.466  22.748  12.998
14385W        W86056  18.829  30.948  11.073
14386W        W86057  29.940  22.617  11.957
14387W        W86058  33.978  12.679   2.323
14388W        W86059  22.987  39.333   0.715
14389W        W86060  37.296   0.788  13.074
14390W        W86061  42.285   2.974  11.204
14391W        W86062   4.448  15.324   0.518
14392W        W86063  10.727   7.947  14.458
14393W        W86064  13.098  40.453   4.082
14394W        W86065  40.177  10.153  13.065
14395W        W86066  30.385  33.385  11.031
14396W        W86067  43.001   0.336   3.171
14397W        W86068  33.607  24.026  11.506
14398W        W86069  23.003   2.351   2.760
14399W        W86070  30.290  41.774  11.220
14400W        W86071  23.468  20.503  11.228
14401W        W86072  38.022  14.858  10.337
14402W        W86073  17.083   6.777  10.552
14403W        W86074  34.287  32.501   1.290
14404W        W86075   9.788  16.628   4.137
14405W        W86076  32.694  17.942  14.395
14406W        W86077  35.900  17.486   3.325
14407W        W86078  27.093  15.540  12.244
14408W        W86079  23.047  14.597  11.164
14409W        W86080  16.527  31.113   2.314
14410W        W86081   1.714  32.295  10.522
14411W        W86082  11.072  25.302  13.968
14412W        W86083   1.745  41.974  14.429
14413W        W86084   2.272  14.729   2.649
14414W        W86085  10.309  16.878  11.569
14415W        W86086   5.148  15.339   4.585
14416W        W86087   3.284  27.514   2.662
14417W        W86088   6.731  10.299   3.759
14418W        W86089  12.490  38.006  11.123
14419W        W86090  34.057   8.325   1.999
14420W        W86091  14.866   8.446   2.355
14421W        W86092  28.587   0.256  10.969
14422W        W86093   2.587  24.570  14.434
14423W        W86094  20.960  17.729   2.899
14424W        W86095  24.757  44.510  10.660
14425W        W86096  27.230  11.564   1.461
14426W        W86097  29.547   1.679   4.253
14427W        W86098  28.549   7.005   1.669
14428W        W86099  39.942  15.554  11.695
14429W        W86100  42.917  27.257   2.724
14430W        W86101  28.040  29.443   0.969
14431W        W86102  19.696  15.763  12.585
14432W        W86103  15.566  30.981   4.547
14433W        W86104  34.412  15.259  13.769
14434W        W86105  11.722  22.631   4.637
14435W        W86106  19.704   9.157  10.595
14436W        W86107  14.186   4.269   1.225
14437W        W86108   6.661  24.183   2.336
14438W        W86109  14.632  20.615  14.341
14439W        W86110  12.426  31.534   0.300
14440W        W86111  35.529  27.650   0.297
14441W        W86112   9.828  41.048   0.471
14442W        W86113  35.910  36.565   4.133
14443W        W86114   6.852  29.626  10.975
14444W        W86115   4.330  25.712   3.175
14445W        W86116  33.151  39.850   3.671
14446W        W86117  41.879  42.276   1.591
14447W        W86118  23.179  43.285   2.207
14448W        W86119  35.751  34.608   3.714
14449W        W86120   3.732   2.453  12.339
14450W        W86121  36.530   1.945  11.956
14451W        W86122  27.957  21.010  12.402
14452W        W86123  14.642  28.021   0.803
14453W        W86124  41.476  13.026   4.248
14454W        W86125  42.272  18.209  10.623
14455W        W86126   7.859  30.786  11.940
14456W        W86127  20.119  14.460  10.628
14457W        W86128  23.274  21.175   4.616
14458W        W86129   3.603  10.445  14.425
14459W        W86130  21.472   8.044  12.579
14460W        W86131  21.211  14.023   4.943
14461W        W86132   7.088  36.213   4.359
14462W        W86133   5.507  17.178  12.004
14463W        W86134  43.017  30.366   0.781
14464W        W86135  18.075   5.691  14.946
14465W        W86136  16.868  10.075  14.786
14466W        W86137   0.269  11.274  12.415
14467W        W86138  44.528  11.807   3.114
14468W        W86139  18.798  17.825  14.115
14469W        W86140  15.649  32.992   4.695
14470W        W86141  18.570  30.210   2.754
14471W        W86142  36.459  23.008  11.530
14472W        W86143  44.323  20.290   5.106
14473W        W86144  19.595  32.910   0.951
14474W        W86145  42.786  31.151  11.329
14475W        W86146  42.839  12.860   0.869
14476W        W86147   9.827  20.760   1.275
14477W        W86148  13.908   7.032  12.691
14478W        W86149  39.307  26.549   0.375
14479W        W86150  30.745   7.963  12.090
14480W        W86151   3.835  39.502   3.096
14481W        W86152  32.885   0.901  12.521
14482W        W86153   0.339  23.022   2.297
14483W        W86154  29.419  13.151   1.435
14484W        W86155  16.712  35.516   3.287
14485W        W86156  42.098  41.513   4.236
14486W        W86157  32.933  10.705   2.925
14487W        W86158  12.121   1.344   1.775
14488W        W86159   5.480  34.130  14.917
14489W        W86160  18.666  38.604  14.932
14490W        W86161  16.823  21.090   1.432
14491W        W86162  42.892  37.541  11.676
14492W        W86163  15.991  43.806   0.880
14493W        W86164  21.500  36.071  12.092
14494W        W86165  25.340  11.444  13.307
14495W        W86166  28.441  17.547  12.620
14496W        W86167  30.919   8.497  14.739
14497W        W86168  18.059   0.444   3.341
14498W        W86169  24.551  42.220  11.497
14499W        W86170  25.110  11.289   1.386
14500W        W86171  32.814  34.380  14.257
14501W        W86172  32.062  18.768   4.456
14502W        W86173  44.904   9.336  14.226
14503W        W86174   7.319   0.512  14.003
14504W        W86175  42.026  30.382   1.871
14505W        W86176  43.748  12.648   2.388
14506W        W86177  41.892  24.693   0.320
14507W        W86178  15.620  28.196   3.330
14508W        W86179  28.347  27.946   1.744
14509W        W86180  32.093  22.563  13.454
14510W        W86181   2.378  15.952  10.860
14511W        W86182   9.860  28.272   0.867
14512W        W86183   5.316   0.677  10.104
14513W        W86184  14.199  22.873   3.974
14514W        W86185  22.360  36.328   0.339
14515W        W86186  38.953  24.684   3.183
14516W        W86187  17.196  20.564  12.625
14517W        W86188  38.595  19.740   2.784
14518W        W86189  33.204   9.853   2.408
14519W        W86190  11.703   4.695   1.708
14520W        W86191  17.140  41.229   4.118
14521W        W86192  15.106  34.568   0.768
14522W        W86193  12.633  17.100  14.918
14523W        W86194  23.495  26.021  14.943
14524W        W86195  22.219   4.967  12.410
14525W        W86196   2.754  15.260  11.171
14526W        W86197  26.707   8.254   3.740
14527W        W86198  38.340  35.920   3.651
14528W        W86199  12.439  35.351  10.712
14529W        W86200   9.844  41.585   1.976
14530W        W86201  39.764  22.021  12.017
14531W        W86202  25.086  35.258   4.153
14532W        W86203  23.659   0.861   0.432
14533W        W86204  19.136   2.684  11.632
14534W        W86205  15.297  25.932   0.421
14535W        W86206   6.873   7.398  11.136
14536W        W86207  40.072  10.767  13.387
14537W        W86208  18.052  41.502  11.662
14538W        W86209  41.531  19.746   2.963
14539W        W86210  15.287  20.576  11.139
14540W        W86211  20.722  31.925  10.550
14541W        W86212  19.679  10.694   4.190
14542W        W86213  44.380  13.281   0.844
14543W        W86214   6.811  35.850   2.188
14544W        W86215  20.013  40.335   1.245
14545W        W86216   5.532  18.565   0.593
14546W        W86217  25.514  16.352  13.625
14547W        W86218  33.750  38.063   3.365
14548W        W86219  30.578   8.344   4.792
14549W        W86220  14.591   0.817  11.537
14550W        W86221  21.164  16.679   0.939
14551W        W86222  40.104  29.127   4.758
14552W        W86223   9.101  20.476   2.202
14553W        W86224  15.256  12.712  12.771
14554W        W86225  43.852  27.071   3.202
14555W        W86226   6.122  37.018   2.226
14556W        W86227  40.867  19.384  13.122
14557W        W86228   9.381  11.541   1.044
14558W        W86229   5.004   5.480  12.493
14559W        W86230  42.282   6.737  12.532
14560W        W86231  21.224   1.467   1.587
14561W        W86232   7.425  27.088  11.610
14562W        W86233  14.817  37.032  13.755
14563W        W86234  28.291  36.495   0.405
14564W        W86235  25.616  35.718  10.684
14565W        W86236   8.431   8.235   0.471
14566W        W86237  35.252   4.688  13.405
14567W        W86238  35.342  33.876  13.449
14568W        W86239  39.075  35.222  11.597
14569W        W86240   1.010  30.946   4.098
14570W        W86241   2.098   3.957  13.529
14571W        W86242  41.900  10.468  11.419
14572W        W86243  13.086   4.917  10.301
14573W        W86244  17.443  39.044   1.474
14574W        W86245  34.488  43.944  14.892
14575W        W86246  27.332  22.820   0.738
14576W        W86247  33.197  43.881   1.434
14577W        W86248  25.751  41.395   0.873
14578W        W86249  22.084  32.199   3.827
14579W        W86250  12.531  15.921  13.281
14580W        W86251  14.061  38.833   2.211
14581W        W86252  36.898  39.975   4.964
14582W        W86253  19.962  12.322  11.909
14583W        W86254   1.779  23.540  14.319
14584W        W86255  27.963  20.582  13.603
14585W        W86256  40.372  39.548  12.536
14586W        W86257  33.862  12.198   4.631
14587W        W86258  20.923  23.404  14.315
14588W        W86259  38.603  26.710  14.893
14589W        W86260  19.188  11.249   3.738
14590W        W86261  25.565  32.989  12.938
14591W        W86262  33.847  42.290   0.293
14592W        W86263  11.150  10.778   0.322
14593W        W86264   8.014  32.963  13.417
14594W        W86265  15.068   2.641   3.177
14595W        W86266   0.078  21.595   4.492
14596W        W86267   2.759  16.021  13.995
14597W        W86268  32.573  36.374   1.591
14598W        W86269  24.681  19.291  14.414
14599W        W86270   3.689  15.811  11.993
14600W        W86271  39.021  27.726  13.113
14601W        W86272  22.380  11.642   0.032
14602W        W86273  36.750  24.304   3.312
14603W        W86274  41.364  18.176   4.096
14604W        W86275  27.056   9.395   0.115
14605W        W86276  37.287   0.113   3.237
14606W        W86277  25.104  31.913   2.904
14607W        W86278  30.663  13.291   3.304
14608W        W86279  16.548  30.504   2.814
14609W        W86280   2.646  22.809  12.002
14610W        W86281  13.106  33.663  13.022
14611W        W86282  38.041   3.696   3.104
14612W        W86283  39.907  24.130  13.581
14613W        W86284  22.711  32.521   2.111
14614W        W86285  13.134  29.255   0.242
14615W        W86286  25.139   3.796   1.781
14616W        W86287  37.258  12.083  13.113
14617W        W86288   1.497   3.798  14.858
14618W        W86289  43.623  15.810   3.193
14619W        W86290   3.226   3.984  12.163
14620W        W86291  32.999  10.626  14.347
14621W        W86292  44.912  19.580  12.018
14622W        W86293  10.772  27.574  11.624
14623W        W86294  41.022   9.154  13.005
14624W        W86295  39.492  41.003   0.859
14625W        W86296   8.740   9.926   2.124
14626W        W86297  17.737  18.054   3.361
14627W        W86298  37.462  31.953  11.903
14628W        W86299   3.248  42.873  10.264
14629W        W86300  10.563  30.452   3.269
14630W        W86301  14.898  11.429  13.905
14631W        W86302  41.924  27.124   2.324
14632W        W86303  29.694  25.008   4.893
14633W        W86304   1.562  28.886  12.479
14634W        W86305  10.463  10.305  13.992
14635W        W86306  12.654  23.729   1.366
14636W        W86307   8.400  23.169  11.129
14637W        W86308  10.859  21.636  13.970
14638W        W86309  31.566  29.627  13.940
14639W        W86310  20.193  43.326  11.898
14640W        W86311  13.194  28.602   2.850
14641W        W86312   0.017  11.577  11.187
14642W        W86313  18.102  22.053   4.234
14643W        W86314  23.051   8.246  12.452
14644W        W86315   2.415   6.882  12.462
14645W        W86316  20.452  24.614  10.611
14646W        W86317   5.558  25.247   2.009
14647W        W86318  44.198  30.133   1.161
14648W        W86319  17.596  29.624  11.459
14649W        W86320   2.364  29.358   0.972
14650W        W86321  15.791  13.649  10.721
14651W        W86322  25.973  11.391  14.999
14652W        W86323  21.646  19.273  12.487
14653W        W86324  23.262   0.350   1.581
14654W        W86325  12.382  14.712  11.995
14655W        W86326  25.963  29.042  13.414
14656W        W86327  31.846  43.762  13.926
14657W        W86328  23.071  40.969   5.090
14658W        W86329  18.145  31.237   0.308
14659W        W86330  30.046  41.286   5.116
14660W        W86331  37.966  38.170  10.644
14661W        W86332   1.883   2.693  14.002
14662W        W86333   6.803  19.740  11.827
14663W        W86334   9.072  41.325   2.872
14664W        W86335  15.711  22.797  11.378
14665W        W86336  15.517  37.493  12.061
14666W        W86337  31.010  16.674  11.602
14667W        W86338  44.039  20.080   0.252
14668W        W86339  18.727  15.801  13.239
14669W        W86340   7.743  26.000   3.913
14670W        W86341  25.067  41.982   1.942
14671W        W86342  42.865  43.482   3.296
14672W        W86343  11.395  37.789   3.231
14673W        W86344   2.923  27.848  10.603
14674W        W86345  35.985  16.272   2.926
14675W        W86346  32.383  39.555  14.945
14676W        W86347  24.774  23.115   4.118
14677W        W86348  23.581   9.636   1.226
14678W        W86349  38.505  42.041  13.472
14679W        W86350   6.485  34.743   3.724
14680W        W86351  16.077  13.598   1.159
14681W        W86352   0.334   6.828  13.153
14682W        W86353  26.441  43.390  14.332
14683W        W86354  40.868  18.128   1.325
14684W        W86355  25.133   0.517   0.971
14685W        W86356  24.733  24.171  12.340
14686W        W86357   2.822   9.880   4.149
14687W        W86358   6.843   0.703   2.308
14688W        W86359  16.987  13.758   0.481
14689W        W86360  40.850  43.587  11.483
14690W        W86361   0.281   5.199   1.488
14691W        W86362  12.215  25.661   4.560
14692W        W86363  35.040  25.203   3.653
14693W        W86364   4.268  27.039  13.593
14694W        W86365   3.854  22.006   4.268
14695W        W86366  39.273   1.316   2.533
14696W        W86367  37.818  31.202   1.454
14697W        W86368  28.934  36.134  12.660
14698W        W86369  33.554  11.714   1.345
14699W        W86370  15.062  26.934  14.991
14700W        W86371  41.831  30.203  14.955
14701W        W86372  17.651  41.889   1.219
14702W        W86373  18.276  11.735  14.119
14703W        W86374   5.372  17.676   3.248
14704W        W86375  27.109  33.061  10.428
14705W        W86376  21.235  22.725  11.629
14706W        W86377  26.381   9.432  12.962
14707W        W86378  41.463  26.088   1.205
14708W        W86379  28.229  38.496   1.267
14709W        W86380   3.803   4.378  11.777
14710W        W86381  43.515   2.896  11.943
14711W        W86382   1.368  21.677   3.145
14712W        W86383  32.987  41.083   0.524
14713W        W86384  17.302  42.534   3.667
14714W        W86385   5.290  31.814   0.766
14715W        W86386  10.355  40.527  12.506
14716W        W86387  36.544  35.267  11.641
14717W        W86388  26.596  17.017   2.197
14718W        W86389   4.141  37.966  11.124
14719W        W86390  21.914  31.635  11.559
14720W        W86391  18.721  38.848  10.784
14721W        W86392  36.753  41.990   3.655
14722W        W86393  22.770   0.357  10.589
14723W        W86394  32.517  33.858   3.707
14724W        W86395  10.551   2.795  12.021
14725W        W86396  27.857  41.603  13.416
14726W        W86397   0.373  35.845  11.547
14727W        W86398  11.275  14.197   1.148
14728W        W86399   5.931  43.499  11.165
14729W        W86400  37.780   9.527  11.930
14730W        W86401   0.333  19.214  14.221
14731W        W86402  30.569  29.198  12.149
14732W        W86403  10.598   8.962  14.314
14733W        W86404  26.991  14.105  11.406
14734W        W86405  36.051  40.070   0.071
14735W        W86406  35.438   9.787  12.202
14736W        W86407   0.524  19.176   0.245
14737W        W86408   1.000  23.427  12.914
14738W        W86409  16.172  12.309  11.433
14739W        W86410  12.152  23.777   2.271
14740W        W86411  36.538  34.125  11.595
14741W        W86412  29.513  17.979   0.892
14742W        W86413  16.844  43.388  11.767
14743W        W86414  17.571  33.642  11.123
14744W        W86415   9.392  39.254  13.114
14745W        W86416  31.454  37.382  10.805
14746W        W86417  32.580  37.850   0.678
14747W        W86418  34.204  25.651   1.763
14748W        W86419  12.194  16.148   0.966
14749W        W86420  35.922  16.473   1.947
14750W        W86421  30.263  32.345   3.933
14751W        W86422  31.136   9.927   0.785
14752W        W86423  30.987  15.118   4.530
14753W        W86424  40.299  39.756   0.709
14754W        W86425   9.077  19.069   4.700
14755W        W86426  32.262  19.092  12.896
14756W        W86427  11.224  10.123  10.645
14757W        W86428  28.813  36.433   0.332
14758W        W86429  26.591  27.116  10.797
14759W        W86430  33.484  33.916   4.177
14760W        W86431  33.048  29.970   1.944
14761W        W86432   2.442  23.757  11.564
14762W        W86433  21.064  43.568   1.313
14763W        W86434  13.126   5.340  12.980
14764W        W86435  36.002  21.628   1.992
14765W        W86436   5.443  18.353  12.502
14766W        W86437  19.469   1.147  13.337
14767W        W86438  42.514  36.446   2.737
14768W        W86439   0.638  12.741  10.380
14769W        W86440   4.002   5.446   4.385
14770W        W86441  16.559   3.932   0.372
14771W        W86442   8.696  20.499   3.536
14772W        W86443   8.721  29.961  12.493
14773W        W86444  15.116   4.151   1.406
14774W        W86445  38.065  20.558  13.532
14775W        W86446  24.986  30.485   4.620
14776W        W86447  27.276  10.703  12.354
14777W        W86448  41.525  32.955   0.056
14778W        W86449  40.926   9.106   1.907
14779W        W86450  25.167  19.594   0.808
14780W        W86451  12.139  29.989   1.787
14781W        W86452  22.808  22.017   4.655
14782W        W86453  34.973   0.271   4.607
14783W        W86454  43.282  37.930   0.759
14784W        W86455  26.679  19.248  13.388
14785W        W86456  40.101   0.469  14.861
14786W        W86457  12.183   2.367   2.408
14787W        W86458   4.675   9.545   1.228
14788W        W86459  40.382   2.681  11.603
14789W        W86460  44.786  15.916  14.748
14790W        W86461  29.689  12.967   4.109
14791W        W86462   3.282  26.981   3.359
14792W        W86463  43.292  36.025   3.676
14793W        W86464  20.691   5.822  13.823
14794W        W86465  38.612   5.490  12.691
14795W        W86466  36.101  24.179  14.975
14796W        W86467  43.255  40.471  13.349
14797W        W86468   7.761   7.040  12.147
14798W        W86469  39.285   3.909  13.031
14799W        W86470   6.377  24.757  12.539
14800W        W86471  43.288  23.081   4.169
14801W        W86472   7.176  11.193   1.145
14802W        W86473  38.874   6.515   4.526
14803W        W86474  41.018  15.656   2.193
14804W        W86475  25.076   6.155   2.728
14805W        W86476   5.894   9.140   2.903
14806W        W86477  16.544  44.875   3.557
14807W        W86478  42.188   7.588   4.220
14808W        W86479   1.708  20.921  12.066
14809W        W86480  34.549   8.402  14.437
14810W        W86481   5.406  28.156  14.926
14811W        W86482  33.349  37.702  13.779
14812W        W86483  33.914   1.752  14.987
14813W        W86484  44.736  41.061  12.352
14814W        W86485  24.842  34.405  11.054
14815W        W86486   7.741  27.480  13.512
14816W        W86487  25.665   1.865   0.961
14817W        W86488  20.775   3.819   3.681
14818W        W86489  37.479  27.960   4.110
14819W        W86490   8.313  33.021   4.107
14820W        W86491   8.610  38.960  13.109
14821W        W86492  12.520  26.619   0.428
14822W        W86493  36.575  35.949  13.921
14823W        W86494  17.265  35.818   2.658
14824W        W86495  30.618  26.151   4.217
14825W        W86496  13.511  11.234   2.700
14826W        W86497  33.402  43.433   1.226
14827W        W86498  23.475  37.287   0.921
14828W        W86499  13.124  34.066   3.622
14829W        W86500  33.019  23.189  10.699
14830W        W86501  26.616   1.660  12.615
14831W        W86502  11.257  26.248   4.393
14832W        W86503  28.892  11.107  13.331
14833W        W86504  41.183  15.315   5.160
14834W        W86505  15.290  43.785   2.181
14835W        W86506  29.539  22.707   2.963
14836W        W86507  43.137  10.351   4.958
14837W        W86508  17.154  29.933  14.471
14838W        W86509  39.493   2.073   4.555
14839W        W86510  10.459  17.912   3.850
14840W        W86511   3.853  14.860   3.641
14841W        W86512  16.752  33.502  14.814
14842W        W86513  38.412   1.171   1.863
14843W        W86514  11.368  30.075  14.876
14844W        W86515  23.460   3.879   1.350
14845W        W86516   7.591  28.875   0.030
14846W        W86517  41.792   9.916   4.181
14847W        W86518  30.991  36.419  14.815
14848W        W86519  38.932  36.851   3.866
14849W        W86520  22.712  29.748   0.274
14850W        W86521   0.555  36.887  10.754
14851W        W86522  13.593  28.168  13.821
14852W        W86523  28.432  15.268  13.416
14853W        W86524  22.092  10.352  11.639
14854W        W86525   2.296  38.488   2.909
14855W        W86526  40.253  34.549  11.153
14856W        W86527  10.609  30.584   4.524
14857W        W86528  10.590   3.610  10.730
14858W        W86529  19.033  32.818   2.498
14859W        W86530  20.316  24.655   3.126
14860W        W86531  43.832  11.672   1.466
14861W        W86532   5.333  14.176   3.769
14862W        W86533  25.152  15.837  12.039
14863W        W86534  42.540  29.151  12.732
14864W        W86535   1.601  28.004  14.563
14865W        W86536   7.194   5.254  10.771
14866W        W86537   2.090  28.620  10.568
14867W        W86538  18.022  26.353  13.596
14868W        W86539  22.135  30.183  12.135
14869W        W86540   8.704  28.683   0.800
14870W        W86541  18.483  28.093  10.042
14871W        W86542   6.433  11.882  12.763
14872W        W86543  23.285   6.770  12.512
14873W        W86544  17.952  35.978   3.167
14874W        W86545  43.920  34.662   0.006
14875W        W86546   1.331   4.411  11.135
14876W        W86547  25.362  13.958   5.139
14877W        W86548  39.272  21.244  12.412
14878W        W86549   0.364  35.588  12.059
14879W        W86550   7.348  41.298   3.441
14880W        W86551  13.514  35.360   2.924
14881W        W86552  39.122  25.615  13.526
14882W        W86553  23.010  42.238  10.417
14883W        W86554  30.492  41.700   0.257
14884W        W86555  18.806  32.125  10.295
14885W        W86556  22.077  29.144  14.860
14886W        W86557  21.956  18.841   4.630
14887W        W86558  23.106  35.589   2.332
14888W        W86559  35.294  25.283   2.800
14889W        W86560  11.887  17.737   1.895
14890W        W86561  17.824  23.153  13.634
14891W        W86562  41.783  31.372  13.377
14892W        W86563   6.852  18.131  12.884
14893W        W86564   3.899  39.852   0.078
14894W        W86565  30.469  23.081   0.314
14895W        W86566  32.906  30.229  13.964
14896W        W86567  13.626  37.622  12.069
14897W        W86568  15.638  23.782   0.025
14898W        W86569  36.137  41.084   3.614
14899W        W86570  25.744  29.786   2.242
14900W        W86571  11.393   6.348  12.934
14901W        W86572  22.819   0.809   2.790
14902W        W86573  19.161  15.327   0.920
14903W        W86574   3.006  16.947   4.675
14904W        W86575   6.894  37.542  12.013
14905W        W86576  13.786  17.067   0.293
14906W        W86577   3.417   8.412   4.106
14907W        W86578  40.841  36.975  10.758
14908W        W86579  10.329  33.098   2.265
14909W        W86580  12.078   8.807   4.511
14910W        W86581  13.745  23.090   3.182
14911W        W86582  30.974  22.501   2.129
14912W        W86583  29.768   3.790  12.549
14913W        W86584   2.259   3.780   4.386
14914W        W86585  27.094  36.394   0.832
14915W        W86586  36.426  29.248   2.804
14916W        W86587  32.142  38.442   4.092
14917W        W86588   7.620  43.896  12.858
14918W        W86589  44.427  28.180   1.500
14919W        W86590  28.143  41.341   0.503
14920W        W86591   2.297   8.795   4.696
14921W        W86592  21.768  24.730  11.529
14922W        W86593  40.233  38.210  10.681
14923W        W86594  18.267  20.481   4.330
14924W        W86595   6.801  11.245   2.934
14925W        W86596  16.514  31.587   1.375
14926W        W86597  43.331  44.733  14.948
14927W        W86598  30.653  19.674   4.692
14928W        W86599  24.410  20.900   0.686
14929W        W86600  35.279   1.803   0.326
14930W        W86601  42.623  10.378  11.410
14931W        W86602  10.642   9.909   0.226
14932W        W86603   6.793  20.769   3.360
14933W        W86604  16.047  37.314   4.960
14934W        W86605  17.533   9.544  13.187
14935W        W86606   0.357  44.091   1.898
14936W        W86607  24.568  18.214  12.986
14937W        W86608  18.041  32.996  14.844
14938W        W86609  38.086  14.904   3.236
14939W        W86610  44.182  35.844   1.818
14940W        W86611  26.317   8.212   3.396
14941W        W86612  25.061  27.907  12.152
14942W        W86613  40.944  24.787   4.106
14943W        W86614   5.681  25.937  14.525
14944W        W86615  17.071  22.325  12.928
14945W        W86616  34.429  39.775   1.208
14946W        W86617   5.430  12.913  11.526
14947W        W86618  10.178  19.983  11.568
14948W        W86619  39.363  32.387   1.767
14949W        W86620  40.644  15.056   0.462
14950W        W86621  11.605  24.046   0.867
14951W        W86622  29.906   3.313   4.500
14952W        W86623  40.940  39.549   0.436
14953W        W86624  27.638  14.313  12.605
14954W        W86625  23.821  31.368   0.162
14955W        W86626  36.050  28.562   2.108
14956W        W86627  13.611  19.474   2.809
14957W        W86628   3.195  33.449   3.118
14958W        W86629   0.724  19.983   5.014
14959W        W86630  11.299  30.584   0.826
14960W        W86631  22.339  35.554   0.975
14961W        W86632  37.479   8.213   3.956
14962W        W86633   7.701  31.571  14.987
14963W        W86634  36.899  12.686  12.091
14964W        W86635  34.449   1.916   4.142
14965W        W86636  18.538  43.076   2.640
14966W        W86637  35.544   3.224   0.443
14967W        W86638   2.984  44.006   2.296
14968W        W86639   8.919  42.590   0.897
14969W        W86640  36.834  40.431   2.727
14970W        W86641  23.710   2.283  11.403
14971W        W86642  23.252  29.492   4.509
14972W        W86643  32.179  22.049   2.302
14973W        W86644   7.387  44.946   4.138
14974W        W86645   3.509   6.969  12.739
14975W        W86646  37.518  18.585  14.368
14976W        W86647  27.410  18.174   1.401
14977W        W86648   3.333   9.423  10.833
14978W        W86649  35.487   1.853  14.858
14979W        W86650  21.751  32.400  14.320
14980W        W86651  28.531  30.957   4.193
14981W        W86652  20.867  43.506   0.397
14982W        W86653  36.696  16.036  13.124
14983W        W86654  18.580  18.007  12.288
14984W        W86655  14.689   9.355   0.441
14985W        W86656  28.624   6.516   0.310
14986W        W86657  22.641   9.736  11.334
14987W        W86658  24.561  43.533   2.857
14988W        W86659   6.885   9.237  14.086
14989W        W86660   0.883  30.684  12.800
14990W        W86661   9.032   7.845  12.024
14991W        W86662  29.910  17.168   1.462
14992W        W86663   0.795  40.834   2.354
14993W        W86664  33.493   2.752  11.220
14994W        W86665   2.060  14.879  12.959
14995W        W86666  31.214  37.652   0.191
14996W        W86667  32.898  22.308   4.395
14997W        W86668  14.883  15.679   1.838
14998W        W86669  17.320  13.666  11.605
14999W        W86670   0.632  25.238   2.824
15000W        W86671  16.637  17.296   4.086
15001W        W86672  18.196   3.483  13.141
15002W        W86673   8.528  19.529  13.651
15003W        W86674   3.932  14.314   1.892
15004W        W86675  15.999  36.603  14.050
15005W        W86676   8.800   3.829  12.441
15006W        W86677  19.060  20.327  14.933
15007W        W86678  25.113  36.357   2.961
15008W        W86679   6.130  37.726  14.351
15009W        W86680  32.900  29.529   2.586
15010W        W86681  13.950  41.395  12.918
15011W        W86682   7.443  17.168   4.143
15012W        W86683   8.615  10.269   1.320
15013W        W86684   4.283  14.092   1.265
15014W        W86685  36.021   0.913   0.499
15015W        W86686  42.749  18.458   1.902
15016W        W86687   6.132  17.029  11.427
15017W        W86688   6.117  19.615  11.622
15018W        W86689  32.458  23.280   1.200
15019W        W86690  33.169  39.142   2.694
15020W        W86691   4.759  22.147  10.589
15021W        W86692  30.011  29.773  12.663
15022W        W86693   7.329  34.056   0.717
15023W        W86694  14.325   7.488  12.138
15024W        W86695  38.801  42.802  12.856
15025W        W86696   7.718  37.156  11.753
15026W        W86697   5.939  13.828  13.889
15027W        W86698  11.164   9.368  13.974
15028W        W86699  14.701  39.803   2.344
15029W        W86700  30.671  41.520  14.780
15030W        W86701  29.222  43.175   4.013
15031W        W86702  13.636   1.434   0.770
15032W        W86703   2.292   2.809  13.419
15033W        W86704  41.555   5.264  11.901
15034W        W86705  36.530   5.497  10.916
15035W        W86706  31.018  24.763  14.005
15036W        W86707  43.528  13.603  10.624
15037W        W86708  37.362  16.432  14.996
15038W        W86709   1.778  39.040   1.451
15039W        W86710  30.441   7.514  12.600
15040W        W86711   6.177  15.123   0.951
15041W        W86712  20.602  30.749   1.964
15042W        W86713   6.383  36.923  12.705
15043W        W86714  44.472   5.834  13.402
15044W        W86715  33.515   3.274   3.568
15045W        W86716  42.795  21.181   2.368
15046W        W86717  40.500  23.964   4.157
15047W        W86718  17.199  27.126  12.332
15048W        W86719   6.716  36.755   1.845
15049W        W86720  41.799  10.746   1.803
15050W        W86721  32.435  35.087   0.805
15051W        W86722  27.061   2.716  14.964
15052W        W86723  35.579  39.583   0.773
15053W        W86724  26.483  24.477  14.738
15054W        W86725  24.526  10.575  12.836
15055W        W86726  34.824   2.886  14.450
15056W        W86727  28.460  25.841   2.750
15057W        W86728  43.257  27.683   2.763
15058W        W86729  14.537  42.255  14.396
15059W        W86730  29.429   7.885  11.881
15060W        W86731  10.308  32.807   2.701
15061W        W86732  37.611   8.862  12.429
15062W        W86733  28.874  33.493  14.456
15063W        W86734  41.069  39.575  13.985
15064W        W86735  11.209  35.858  10.499
15065W        W86736  26.459   6.777   1.311
15066W        W86737   6.284  25.482   1.658
15067W        W86738  12.476  18.482   0.375
15068W        W86739  24.172  25.594  11.030
15069W        W86740  25.247  28.694   4.194
15070W        W86741  23.462  18.202   0.278
15071W        W86742  11.928  44.466  11.297
15072W        W86743  34.921  28.868   0.734
15073W        W86744  20.345  15.063  12.411
15074W        W86745  21.645  29.484   2.276
15075W        W86746  26.464   7.517   1.743
15076W        W86747  10.621  32.971   1.859
15077W        W86748   7.830  16.174   0.671
15078W        W86749   2.220  25.310   5.005
15079W        W86750  31.961  21.171   4.289
15080W        W86751   1.035  33.304   3.807
15081W        W86752   9.327  13.742  12.878
15082W        W86753  37.942  16.607   4.756
15083W        W86754   6.158  37.325   3.832
15084W        W86755  23.046  17.657  13.089
15085W        W86756  18.544  24.946  12.853
15086W        W86757  32.671  17.820   2.065
15087W        W86758   3.074  26.926   1.806
15088W        W86759   9.874   3.008  13.864
15089W        W86760  11.914  35.085  11.589
15090W        W86761  29.321  10.895  13.566
15091W        W86762  27.186  25.682  14.908
15092W        W86763  18.616  38.481   2.788
15093W        W86764  29.869  16.762   1.131
15094W        W86765  27.190  23.925  14.515
15095W        W86766  34.182  15.411  11.639
15096W        W86767  22.093  39.406  10.967
15097W        W86768  15.296  39.379  14.319
15098W        W86769  13.097  36.031  12.896
15099W        W86770   6.158  31.517  13.435
15100W        W86771   1.914   8.463   0.661
15101W        W86772  10.175  42.740  12.042
15102W        W86773  38.566   9.840  13.055
15103W        W86774   8.343  41.469   3.338
15104W        W86775  34.628  39.357  10.241
15105W        W86776  24.704  44.194  14.026
15106W        W86777  11.243  32.494   4.675
15107W        W86778  36.398  23.294  14.960
15108W        W86779  25.160   9.014  12.869
15109W        W86780  32.128  35.366  13.491
15110W        W86781  16.283  11.283   0.919
15111W        W86782   0.384  13.279  10.664
15112W        W86783  37.569  27.538  10.229
15113W        W86784  14.723  35.146   3.427
15114W        W86785   9.363   5.838  12.510
15115W        W86786  15.093  37.429   2.820
15116W        W86787  27.919  13.644   2.169
15117W        W86788  23.469  40.868   9.667
15118W        W86789  35.314  28.553  10.670
15119W        W86790   4.490  25.803   2.692
15120W        W86791  38.436   6.568   1.266
15121W        W86792  30.554  20.181   3.348
15122W        W86793  27.915  18.229   3.556
15123W        W86794   2.995   2.420   4.492
15124W        W86795  38.536  16.372   1.884
15125W        W86796  39.744  10.180  14.487
15126W        W86797  16.525  15.689  10.222
15127W        W86798  28.945  25.623   2.761
15128W        W86799  20.223  30.654  11.512
15129W        W86800  40.466  22.242  11.181
15130W        W86801   6.278  16.235  14.895
15131W        W86802  14.625  24.085   0.753
15132W        W86803  37.596  27.437  12.991
15133W        W86804  29.601  21.075   1.704
15134W        W86805  31.723  41.667  13.967
15135W        W86806  16.270  44.996  11.555
15136W        W86807  41.896  25.300   1.369
15137W        W86808  13.690  20.811  12.542
15138W        W86809   7.719  10.293   4.485
15139W        W86810   3.330  38.591   0.070
15140W        W86811  37.110  40.213  14.261
15141W        W86812   8.838   8.921  12.074
15142W        W86813   2.707  13.907   2.250
15143W        W86814   0.864  26.999  12.867
15144W        W86815   2.420  23.796  12.480
15145W        W86816   0.165  24.763   4.156
15146W        W86817  25.521  35.357   0.780
15147W        W86818  33.892   1.272  14.419
15148W        W86819   8.507  32.766   2.247
15149W        W86820  23.767   4.887  10.324
15150W        W86821   1.882  15.717  13.154
15151W        W86822  10.379  37.426   2.150
15152W        W86823  36.478  29.431   2.326
15153W        W86824  39.509   6.485  12.635
15154W        W86825   9.282  40.957  10.648
15155W        W86826  23.844  36.828   4.374
15156W        W86827   8.210  12.430  13.042
15157W        W86828  40.309  16.261  14.307
15158W        W86829  16.483   2.346   1.585
15159W        W86830  31.123  42.604   0.331
15160W        W86831  42.985  21.948   1.646
15161W        W86832   1.506  16.208  13.412
15162W        W86833  40.744  20.074  10.752
15163W        W86834  33.104  17.051   2.289
15164W        W86835  40.728  32.023   2.785
15165W        W86836  18.037   4.693  11.641
15166W        W86837  11.276   5.424   1.863
15167W        W86838  34.517   2.128  10.693
15168W        W86839  12.209  32.409  11.387
15169W        W86840  21.583   3.886  12.918
15170W        W86841   8.419  32.699  13.961
15171W        W86842   1.233  23.283  12.024
15172W        W86843  29.092  39.819  11.874
15173W        W86844  19.132   3.831   2.990
15174W        W86845  41.388  28.820  11.200
15175W        W86846  37.417   1.871   1.444
15176W        W86847  27.409  40.090   0.158
15177W        W86848  13.358  40.333  14.447
15178W        W86849  36.602  36.366   2.185
15179W        W86850  26.981  37.793  11.062
15180W        W86851  37.107   3.701   5.056
15181W        W86852  41.065  31.768   3.681
15182W        W86853  13.231  34.534   4.616
15183W        W86854  43.988   5.896   4.233
15184W        W86855  27.346  42.288   2.754
15185W        W86856  42.057  32.483  14.299
15186W        W86857  16.019   4.881  11.376
15187W        W86858   4.722  44.988   0.056
15188W        W86859  20.548  23.974   1.481
15189W        W86860  31.006  39.658   4.158
15190W        W86861  38.239   7.186  11.945
15191W        W86862   8.701  30.891   4.525
15192W        W86863  30.581  28.865   4.850
15193W        W86864  41.545   9.692   2.846
15194W        W86865  12.858   7.135  10.474
15195W        W86866   5.574  25.108   0.204
15196W        W86867  32.446  12.141   0.930
15197W        W86868  15.728  18.535   3.345
15198W        W86869   7.287  33.817   4.085
15199W        W86870  22.564  33.070   1.857
15200W        W86871   5.864  13.536  12.511
15201W        W86872   3.377  44.306  13.420
15202W        W86873  39.339   4.047   4.376
15203W        W86874   3.301  32.348   4.676
15204W        W86875   3.831   2.902  10.712
15205W        W86876  15.920  32.147   3.119
15206W        W86877   9.830  30.409  12.051
15207W        W86878   0.569  15.574   2.717
15208W        W86879  25.440  40.386  13.390
15209W        W86880   3.726   8.700   4.409
15210W        W86881  16.752  26.654   4.220
15211W        W86882  17.513   8.786  13.754
15212W        W86883  14.078   5.255   2.272
15213W        W86884   4.613  20.759   0.079
15214W        W86885   7.821  17.091   0.826
15215W        W86886  27.000  16.309   4.050
15216W        W86887   0.500  41.351  14.404
15217W        W86888  37.546  15.274  12.588
15218W        W86889  27.569  37.619  12.137
15219W        W86890  34.338  39.345  11.606
15220W        W86891  29.711  30.170  11.022
15221W        W86892  42.818   4.008  11.599
15222W        W86893   8.246  42.639   0.409
15223W        W86894  26.533  22.239  14.691
15224W        W86895  27.966  30.007   2.649
15225W        W86896  11.354  17.678   3.647
15226W        W86897  38.818  21.241   5.487
15227W        W86898  21.722  41.335   0.432
15228W        W86899   7.670  43.786   3.212
15229W        W86900  16.789  16.172   3.116
15230W        W86901   4.024  40.940  11.210
15231W        W86902  15.684  11.561   2.311
15232W        W86903  28.857  14.304   3.665
15233W        W86904  14.593   5.592  14.026
15234W        W86905  28.213   9.570   4.986
15235W        W86906   0.919   0.953   4.333
15236W        W86907  25.577   6.063   2.897
15237W        W86908  26.684  25.937  12.907
15238W        W86909  29.438   2.350  11.215
15239W        W86910  42.814  37.544  12.164
15240W        W86911  33.438  12.870   2.266
15241W        W86912  20.192  29.367  13.337
15242W        W86913  20.287  39.544   0.063
15243W        W86914  29.150  11.241   3.878
15244W        W86915  15.663  34.018   4.767
15245W        W86916  11.791  30.490  14.771
15246W        W86917   1.688   4.959   4.055
15247W        W86918   5.523  40.950  10.989
15248W        W86919  39.540  16.520   2.317
15249W        W86920  34.593  36.433  14.432
15250W        W86921  36.513  22.971  11.011
15251W        W86922  28.793  35.097  13.318
15252W        W86923  29.641  34.171   1.434
15253W        W86924  22.898  21.522   4.740
15254W        W86925   3.617  24.210   4.262
15255W        W86926  12.238   7.810  11.987
15256W        W86927  32.851  20.844  12.155
15257W        W86928  27.977   8.752  11.878
15258W        W86929  40.511  34.325  11.543
15259W        W86930  33.921  37.336   1.831
15260W        W86931   7.230   2.360   3.837
15261W        W86932  28.482  40.431   3.160
15262W        W86933  29.245   3.302   3.207
15263W        W86934  29.104  22.664  11.675
15264W        W86935  38.644  28.598  11.096
15265W        W86936   0.696  22.746  12.361
15266W        W86937  39.789  43.443  13.455
15267W        W86938  32.085  10.160   4.519
15268W        W86939  31.462  23.543   3.111
15269W        W86940  28.130   1.832  11.610
15270W        W86941   0.931  18.312  12.900
15271W        W86942  31.472  27.698  12.852
15272W        W86943  12.918  41.239  11.514
15273W        W86944   6.813   4.865   3.710
15274W        W86945  20.682  10.424  14.463
15275W        W86946  11.114  26.622   4.737
15276W        W86947  36.547  14.142  13.290
15277W        W86948  24.290  31.918   3.178
15278W        W86949  28.049  25.513   4.579
15279W        W86950  32.928   5.681   0.595
15280W        W86951  38.355  17.088   1.342
15281W        W86952  19.346  19.535   3.270
15282W        W86953  16.714  27.945   2.776
15283W        W86954  36.918  12.584  10.903
15284W        W86955  21.316   9.429  11.043
15285W        W86956  10.791  32.529   2.766
15286W        W86957  24.245  28.547  13.588
15287W        W86958   8.422   1.566  14.489
15288W        W86959  30.730  33.917  13.141
15289W        W86960   0.186  40.131  14.870
15290W        W86961   7.865  17.468  14.297
15291W        W86962  18.089  23.586   1.277
15292W        W86963  18.973  30.394   0.535
15293W        W86964   5.423   3.622  11.921
15294W        W86965  41.456  35.275   3.842
15295W        W86966   8.481  24.019  13.008
15296W        W86967  43.405  33.608   3.671
15297W        W86968  12.003  39.483   0.045
15298W        W86969  38.084  29.568  13.944
15299W        W86970  20.403  10.850   0.800
15300W        W86971  37.330  33.952  11.063
15301W        W86972   9.245   6.067  13.325
15302W        W86973   2.398  26.243  12.677
15303W        W86974   1.518  21.742   0.349
15304W        W86975   6.895  42.843   0.843
15305W        W86976  32.465   2.462   4.718
15306W        W86977  20.793  23.558   1.706
15307W        W86978  40.933  27.625   3.775
15308W        W86979  36.782   0.896  13.092
15309W        W86980  38.798  23.778   4.928
15310W        W86981  37.008  13.190   3.606
15311W        W86982  40.729  10.270  11.061
15312W        W86983  40.817  15.946  13.283
15313W        W86984   3.697  33.874   2.495
15314W        W86985  11.991   1.334  14.492
15315W        W86986  37.535  40.863  10.968
15316W        W86987  40.239  36.673   4.434
15317W        W86988  25.137  27.886  13.130
15318W        W86989   9.363   4.462  12.871
15319W        W86990  24.591   6.975  13.431
15320W        W86991  29.122  30.704   4.311
15321W        W86992  37.915  25.445   2.724
15322W        W86993  19.988   0.284   4.712
15323W        W86994  22.272  25.426   1.898
15324W        W86995  14.576  19.818  12.186
15325W        W86996  15.763  17.866  11.062
15326W        W86997  29.124  29.208  11.055
15327W        W86998   6.408  22.851  13.825
15328W        W86999  39.335   2.771  11.591
15329W        W87000  11.042  32.031   2.909
15330W        W87001   3.137   4.452   3.840
15331W        W87002  10.915  10.832   4.572
15332W        W87003  43.510   8.386   4.689
15333W        W87004  31.988  41.312  13.075
15334W        W87005   9.436  10.633   1.518
15335W        W87006   7.120  42.305   4.274
15336W        W87007  31.148   7.427  12.115
15337W        W87008  38.902  28.002   3.598
15338W        W87009  22.520  12.583  14.889
15339W        W87010  28.629  18.311  14.350
15340W        W87011   0.300  30.767   0.443
15341W        W87012  27.631   5.324  10.477
15342W        W87013   4.239   3.541  13.231
15343W        W87014  34.420  39.488   5.055
15344W        W87015  21.704  40.429  11.054
15345W        W87016  18.647  36.009  11.069
15346W        W87017  14.522   0.913   3.808
15347W        W87018  30.379  33.570  14.641
15348W        W87019  16.163  40.365  10.044
15349W        W87020  36.150   5.749  12.992
15350W        W87021  35.870   5.450   1.535
15351W        W87022  39.270  18.494  11.563
15352W        W87023  17.588  40.383  13.270
15353W        W87024   4.964  30.756   0.886
15354W        W87025  39.056  15.152   1.379
15355W        W87026   1.380  24.124  14.930
15356W        W87027  31.075  23.993   4.681
15357W        W87028  11.354  31.347   0.465
15358W        W87029  24.630  44.875  13.537
15359W        W87030  40.097  33.089   4.324
15360W        W87031  16.859   5.314   4.135
15361W        W87032  41.443  19.318  12.515
15362W        W87033   1.240  40.416   2.788
15363W        W87034  43.374  17.761   1.412
15364W        W87035  32.932  39.019   4.034
15365W        W87036  25.689  35.445   0.274
15366W        W87037  40.921  40.543   0.477
15367W        W87038  14.701  14.668  14.745
15368W        W87039  34.399  20.799  14.363
15369W        W87040  19.296  17.517   1.808
15370W        W87041  43.226  31.844  12.122
15371W        W87042   5.644  31.079   1.389
15372W        W87043  40.909  27.657  13.416
15373W        W87044   2.347  41.443  12.982
15374W        W87045  30.309  36.514   1.470
15375W        W87046  33.479  29.519  10.725
15376W        W87047  26.150  31.124  12.500
15377W        W87048  22.110  25.260   4.548
15378W        W87049  38.282  24.448   2.529
15379W        W87050  28.704  40.224   4.782
15380W        W87051   9.285  19.654   4.008
15381W        W87052  28.325  30.098  11.618
15382W        W87053  27.094   7.642  11.483
15383W        W87054  15.148   1.807   4.504
15384W        W87055  37.825  35.148  12.090
15385W        W87056  24.484   9.336   3.697
15386W        W87057  14.617  24.804   3.154
15387W        W87058  15.695   5.459  12.358
15388W        W87059  11.402  15.593   1.948
15389W        W87060  12.704  44.769  13.070
15390W        W87061  29.580  44.352   4.594
15391W        W87062  17.639  14.383  13.563
15392W        W87063  24.687  10.708  13.814
15393W        W87064  37.068  15.684   3.340
15394W        W87065   8.797   4.448   0.897
15395W        W87066  25.342   3.165   4.539
15396W        W87067  41.890   3.731  12.367
15397W        W87068  40.775   6.359  11.715
15398W        W87069  20.248  28.548  14.374
15399W        W87070  23.704  22.610  14.816
15400W        W87071  30.571   6.448   4.157
15401W        W87072  32.241   0.079  13.679
15402W        W87073  22.230  31.112  11.069
15403W        W87074  40.563   2.837   1.313
15404W        W87075   8.888  23.158  10.847
15405W        W87076  38.961  18.139   0.351
15406W        W87077  36.941   2.776   4.222
15407W        W87078  20.176  10.454  10.614
15408W        W87079  29.205  42.990  13.787
15409W        W87080  17.807   3.440   4.362
15410W        W87081   1.733  14.801   2.767
15411W        W87082  23.494  37.753   4.173
15412W        W87083   6.884  29.872   3.644
15413W        W87084  36.081  38.802  12.136
15414W        W87085  25.780  28.403  14.964
15415W        W87086  17.056  25.780   4.573
15416W        W87087  36.518  44.345   3.234
15417W        W87088  30.460  22.980  12.335
15418W        W87089  13.259  43.506   3.745
15419W        W87090  32.877   9.313  13.353
15420W        W87091  41.494  32.383  11.212
15421W        W87092  38.352  39.344  10.355
15422W        W87093  22.016  39.424   2.221
15423W        W87094  21.553  17.572   1.281
15424W        W87095   5.806  10.779   0.869
15425W        W87096   6.514  27.004  14.215
15426W        W87097   9.861  36.486  14.722
15427W        W87098  24.075  38.020  14.537
15428W        W87099   1.123   1.270   1.941
15429W        W87100   4.466  10.256  14.645
15430W        W87101   4.611  10.159  14.128
15431W        W87102  10.321   7.447   3.364
15432W        W87103  18.143  21.323  13.371
15433W        W87104  12.582  36.596   0.289
15434W        W87105   3.782  40.526   0.263
15435W        W87106   6.617  14.265   3.507
15436W        W87107  13.403   6.907   4.573
15437W        W87108  23.967  30.381   4.460
15438W        W87109  39.305  22.790  11.001
15439W        W87110  18.160  22.085   2.735
15440W        W87111  36.551  11.291  14.788
15441W        W87112  14.048   1.878  13.876
15442W        W87113   9.772  37.744  11.122
15443W        W87114  26.659  18.507   4.725
15444W        W87115   3.615  31.930   3.404
15445W        W87116  35.307  38.902  14.339
15446W        W87117  33.846   0.667   1.685
15447W        W87118  30.931  18.143   2.445
15448W        W87119  20.997   1.682  11.223
15449W        W87120  14.696  19.655   2.295
15450W        W87121   1.311  42.975   9.907
15451W        W87122  38.166   1.945   0.252
15452W        W87123  22.503   0.963   1.887
15453W        W87124  25.603  35.881   0.926
15454W        W87125  10.688  36.471   0.242
15455W        W87126  36.807  22.243   3.692
15456W        W87127  15.210  43.304   2.363
15457W        W87128  17.084  11.531   0.469
15458W        W87129  14.865  38.081  12.467
15459W        W87130  26.421  18.765   3.909
15460W        W87131  29.131   9.630   2.293
15461W        W87132   0.357  42.443   3.733
15462W        W87133   8.824   8.145  12.896
15463W        W87134   7.903  29.660  12.069
15464W        W87135  18.701  40.698   1.888
15465W        W87136  34.696   4.161  14.901
15466W        W87137   5.456  20.064   4.166
15467W        W87138   4.379  35.233   3.982
15468W        W87139   0.219  19.280  11.579
15469W        W87140  39.573  13.800  14.796
15470W        W87141  21.979  43.797  14.629
15471W        W87142   2.490  19.768   3.260
15472W        W87143   8.427  44.310   1.189
15473W        W87144  29.832  31.820  14.418
15474W        W87145   5.644  21.600  13.402
15475W        W87146  34.858  27.622   3.680
15476W        W87147  16.595  32.248  12.026
15477W        W87148  28.506  10.906  14.777
15478W        W87149  37.550  32.685  14.870
15479W        W87150  35.005  19.679   0.220
15480W        W87151  10.116  24.132  12.536
15481W        W87152  21.416  41.490   0.055
15482W        W87153  40.115  19.911  13.410
15483W        W87154  29.468  16.100   0.887
15484W        W87155  44.359  21.775   4.995
15485W        W87156   7.056  16.729   2.519
15486W        W87157  21.762  26.561   1.347
15487W        W87158  29.146  21.203   3.746
15488W        W87159  42.379  25.099   1.205
15489W        W87160  36.446  18.639   2.125
15490W        W87161  22.860  36.509  13.398
15491W        W87162  19.817  12.678   4.549
15492W        W87163  36.415  33.155   4.822
15493W        W87164  22.666   2.573  12.011
15494W        W87165  21.547   4.297  11.174
15495W        W87166   7.660  37.029  13.506
15496W        W87167  40.027  17.647  13.543
15497W        W87168  18.256  34.599   1.037
15498W        W87169  22.421  21.711   0.525
15499W        W87170   0.871  24.492   1.664
15500W        W87171  34.608  43.771   2.817
15501W        W87172  14.592   7.368   1.488
15502W        W87173  41.481   5.818   3.059
15503W        W87174   7.142  11.275   4.660
15504W        W87175   4.946   9.882  11.133
15505W        W87176  29.653  14.684  14.552
15506W        W87177  18.586  22.269  14.433
15507W        W87178  43.813  13.825   0.405
15508W        W87179  18.181   7.761   3.611
15509W        W87180  21.577  32.188  13.458
15510W        W87181  37.732  21.704   0.468
15511W        W87182  15.897   3.319   2.297
15512W        W87183   0.283  34.787   4.544
15513W        W87184  21.767  33.155   2.792
15514W        W87185   2.411   6.263  12.621
15515W        W87186   8.167   0.812   0.099
15516W        W87187  13.217  23.137  11.497
15517W        W87188  24.518  30.420  12.047
15518W        W87189  25.206   0.613   4.808
15519W        W87190  19.352  37.060   5.083
15520W        W87191  27.133  26.897  11.485
15521W        W87192  33.578  29.545  13.090
15522W        W87193  18.793  19.777   1.136
15523W        W87194  30.314  16.704   4.203
15524W        W87195   3.681  41.154   1.425
15525W        W87196   5.809   2.722  14.155
15526W        W87197  42.678  10.920   0.822
15527W        W87198  13.232  38.023   1.594
15528W        W87199  39.275   1.221   3.863
15529W        W87200  33.028  24.255  11.335
15530W        W87201  26.120  10.355   2.484
15531W        W87202   5.420  25.193   1.236
15532W        W87203  32.497  44.348  13.191
15533W        W87204  18.787  27.101   2.613
15534W        W87205  42.795  17.225   1.859
15535W        W87206  22.161  17.088   4.805
15536W        W87207  20.026  15.309  12.978
15537W        W87208   1.742  30.537  10.868
15538W        W87209  40.487  27.603   1.467
15539W        W87210   5.315  32.882   1.973
15540W        W87211  34.991   1.249  12.632
15541W        W87212   2.495   1.057   3.068
15542W        W87213  31.675  17.076   4.909
15543W        W87214  42.316  20.733   4.281
15544W        W87215  32.879   7.325  11.348
15545W        W87216  31.624   5.922  11.619
15546W        W87217  42.957  15.542   5.389
15547W        W87218  24.487  38.056  12.384
15548W        W87219  40.428  44.280  11.997
15549W        W87220  42.722  37.418   3.769
15550W        W87221  29.604  16.188   2.832
15551W        W87222  19.321  19.208  12.072
15552W        W87223  12.078   8.592  10.045
15553W        W87224  36.079  43.254   1.374
15554W        W87225  33.178  34.914   2.412
15555W        W87226   5.499  23.659   1.398
15556W        W87227  28.019   1.339   4.648
15557W        W87228  36.266   4.397  11.920
15558W        W87229  10.405   2.157   3.099
15559W        W87230  13.890  20.379  11.463
15560W        W87231  32.978  32.595  14.311
15561W        W87232  25.876   1.927   5.055
15562W        W87233  28.874  16.748  11.697
15563W        W87234   2.629  35.882   1.401
15564W        W87235  43.723   1.484   2.374
15565W        W87236  33.320  25.162   5.078
15566W        W87237   6.707  42.697  14.557
15567W        W87238   9.126  29.557  11.603
15568W        W87239  24.397  41.999   3.807
15569W        W87240  25.804   2.949  14.336
15570W        W87241  28.472   5.584   5.004
15571W        W87242  27.924   4.209  12.000
15572W        W87243   0.932  20.044   1.161
15573W        W87244  27.117  22.476   4.215
15574W        W87245  32.161  39.039   1.011
15575W        W87246  42.081  27.498  12.104
15576W        W87247  30.161  15.251   1.578
15577W        W87248  10.630  19.286  13.829
15578W        W87249   2.553  15.321  14.444
15579W        W87250  28.992  14.428   0.147
15580W        W87251  36.847  10.438   0.422
15581W        W87252  31.166   5.912  10.712
15582W        W87253  40.501  41.876   0.223
15583W        W87254  30.267  29.624  11.592
15584W        W87255  16.381  28.073  14.981
15585W        W87256   1.729  36.110   4.689
15586W        W87257  18.493   9.780   4.184
15587W        W87258  11.069  36.107   3.224
15588W        W87259  32.309   4.323   0.336
15589W        W87260   9.698  29.663  11.560
15590W        W87261  32.523  35.113   4.108
15591W        W87262  35.635  17.218  12.401
15592W        W87263  28.997  36.292  13.886
15593W        W87264  27.568  10.340   4.123
15594W        W87265  40.816  17.815   0.878
15595W        W87266  27.658  29.177   4.325
15596W        W87267  35.009  15.782  13.339
15597W        W87268  44.269  19.156  13.291
15598W        W87269  24.942  29.925  10.690
15599W        W87270  14.175   7.907   5.071
15600W        W87271  24.947  39.868   4.054
15601W        W87272  14.593  15.676   2.746
15602W        W87273  11.812  31.785   3.263
15603W        W87274  32.982   7.450   3.347
15604W        W87275  40.113  13.398  14.891
15605W        W87276  27.626  13.097  13.809
15606W        W87277   6.038  31.040  13.264
15607W        W87278  43.712  40.096  11.991
15608W        W87279  11.930  40.340   1.424
15609W        W87280   8.614   3.636   0.244
15610W        W87281  10.692  33.975   5.030
15611W        W87282   0.700  24.724   1.209
15612W        W87283  27.746   7.763   1.813
15613W        W87284  30.010  24.152  12.097
15614W        W87285  40.418  13.827   2.208
15615W        W87286  16.062  34.759  11.457
15616W        W87287  10.555  43.553  12.646
15617W        W87288  33.505  28.547  14.631
15618W        W87289   1.216  41.007   3.672
15619W        W87290  13.245  22.631  11.401
15620W        W87291   1.232  44.400   3.335
15621W        W87292  40.979  42.300  14.830
15622W        W87293  13.820  19.300  14.911
15623W        W87294  14.621  24.977  10.676
15624W        W87295  17.156   6.745   2.924
15625W        W87296  33.973   5.887  14.630
15626W        W87297  11.323  31.627   1.707
15627W        W87298  12.753  44.668   4.269
15628W        W87299  25.412  43.104   1.237
15629W        W87300  37.891   7.633  14.862
15630W        W87301  15.825  40.575   1.617
15631W        W87302  37.555  42.299   3.759
15632W        W87303  27.124   8.153  11.578
15633W        W87304   2.757   9.838   2.455
15634W        W87305  27.429  11.095   1.430
15635W        W87306   6.194  26.436   1.783
15636W        W87307   9.735   6.666  13.359
15637W        W87308  17.088  29.336  13.461
15638W        W87309   7.212  13.070   1.438
15639W        W87310   2.318   1.173  11.639
15640W        W87311  39.631   5.186  14.379
15641W        W87312  16.086  17.260   4.807
15642W        W87313  39.481   8.631  14.465
15643W        W87314   8.568  16.062  13.351
15644W        W87315  20.655  15.197   2.797
15645W        W87316  40.464  43.763  12.670
15646W        W87317  34.822  41.851   2.617
15647W        W87318  23.556  10.087  14.259
15648W        W87319   6.427  39.900   3.776
15649W        W87320   4.968  40.534   0.258
15650W        W87321  19.109  24.998  11.398
15651W        W87322  37.858  23.103   2.286
15652W        W87323  18.931  32.146  13.574
15653W        W87324  27.627  43.676  11.827
15654W        W87325  26.090   8.876  11.073
15655W        W87326  19.810  29.615  13.070
15656W        W87327  14.061   5.684   0.779
15657W        W87328   8.812  32.824  14.318
15658W        W87329  28.966   7.733  10.299
15659W        W87330  10.148   4.221   1.462
15660W        W87331  28.471  35.526  13.353
15661W        W87332  17.997   6.978  12.416
15662W        W87333   3.935   7.824   0.287
15663W        W87334  32.716  21.589   1.896
15664W        W87335  35.826  16.407   0.407
15665W        W87336  37.890  38.781   2.591
15666W        W87337   7.914  42.456  13.774
15667W        W87338  13.397  40.218   2.199
15668W        W87339  41.045  32.816  12.466
15669W        W87340  41.526   2.747  14.882
15670W        W87341   9.849  18.999   1.968
15671W        W87342  35.384  36.546  11.712
15672W        W87343  27.523  33.077  11.762
15673W        W87344  26.181  23.016   3.811
15674W        W87345  32.340  19.310  10.747
15675W        W87346  26.797  44.792  11.140
15676W        W87347  26.515  15.826  14.306
15677W        W87348   9.052   1.025   1.814
15678W        W87349  40.570  15.861  11.062
15679W        W87350  16.769  23.251  12.554
15680W        W87351  24.415  29.161  13.451
15681W        W87352  19.572   0.010  10.786
15682W        W87353  31.015  18.754   2.182
15683W        W87354   3.953   0.315   0.219
15684W        W87355  28.179  29.453   3.278
15685W        W87356  43.268  11.232  11.463
15686W        W87357  44.178   8.342  12.954
15687W        W87358  39.750  12.403   0.881
15688W        W87359  37.850  32.111   1.385
15689W        W87360  36.881  38.783   1.169
15690W        W87361  19.552  35.917   3.871
15691W        W87362   5.206  28.981  12.005
15692W        W87363  25.034  34.472  14.840
15693W        W87364  38.098  14.688  11.339
15694W        W87365   2.013   4.540   1.956
15695W        W87366   4.371   2.419  11.491
15696W        W87367  32.034  44.985   2.166
15697W        W87368  16.114  25.747   3.051
15698W        W87369  13.306  20.006   4.313
15699W        W87370  11.736  19.117   1.760
15700W        W87371  31.020  35.321   4.273
15701W        W87372   8.962  23.607  10.062
15702W        W87373  20.186  22.285  12.507
15703W        W87374   1.551  22.327  13.766
15704W        W87375  37.912  15.179  14.893
15705W        W87376  34.993  30.444  14.948
15706W        W87377  21.104  35.622   3.375
15707W        W87378  21.760  23.575  14.038
15708W        W87379  44.526  16.668   3.366
15709W        W87380   8.112  43.027   2.554
15710W        W87381  20.576   0.957   2.804
15711W        W87382  20.783  11.146   1.035
15712W        W87383   5.634  19.310  11.587
15713W        W87384  43.015  36.473   1.609
15714W        W87385   9.626  38.878  12.779
15715W        W87386  21.212  39.041  13.947
15716W        W87387   8.668   8.888  11.600
15717W        W87388  35.586   4.326  10.598
15718W        W87389   1.256  35.335   2.324
15719W        W87390   3.884  40.372  10.729
15720W        W87391  22.891  40.417  12.105
15721W        W87392  39.474  18.716   4.564
15722W        W87393   8.173  28.142  13.131
15723W        W87394  37.871  37.600  11.463
15724W        W87395  43.447   9.384   1.465
15725W        W87396  35.336   9.424  14.771
15726W        W87397  26.687  25.434  14.891
15727W        W87398   3.653  14.694  13.470
15728W        W87399  26.836  14.678  10.738
15729W        W87400   8.075  22.628  10.474
15730W        W87401  34.892   3.387  11.146
15731W        W87402  41.866  28.425  11.090
15732W        W87403  36.855  44.534   0.378
15733W        W87404   4.317  35.740   3.841
15734W        W87405  41.874  40.286  11.462
15735W        W87406   1.552  36.331   2.774
15736W        W87407  21.583  33.833   0.478
15737W        W87408  22.654  16.210  13.623
15738W        W87409  12.243  33.794  12.909
15739W        W87410  16.823   5.267  11.089
15740W        W87411  10.610  35.538   2.583
15741W        W87412  39.810   3.127   1.729
15742W        W87413   4.645  13.724   3.314
15743W        W87414  18.766   8.366  13.352
15744W        W87415   2.047  22.104   2.664
15745W        W87416  22.375  13.355  11.332
15746W        W87417  12.726   0.033   1.400
15747W        W87418  42.474  19.499   0.432
15748W        W87419  36.384  42.318  11.908
15749W        W87420   6.167  35.628   3.350
15750W        W87421  26.766   8.114   4.255
15751W        W87422  34.490  11.488   3.060
15752W        W87423  27.477  19.091  14.489
15753W        W87424  31.797  27.487  13.194
15754W        W87425  44.971   4.172  10.734
15755W        W87426  39.909  13.645   2.267
15756W        W87427  42.495   6.457  14.467
15757W        W87428  20.030   3.337   4.224
15758W        W87429  25.252  19.521   0.286
15759W        W87430   3.798  15.643  10.688
15760W        W87431  33.960  26.322   1.154
15761W        W87432  22.099  39.271  13.461
15762W        W87433  24.535  24.995  10.882
15763W        W87434  25.655  11.601  12.898
15764W        W87435  15.182  27.950  14.588
15765W        W87436  39.810   1.895   4.172
15766W        W87437  23.653  16.263   0.304
15767W        W87438   0.051  10.750  11.479
15768W        W87439   9.891  15.995   4.247
15769W        W87440  14.002  11.702   4.238
15770W        W87441   7.961  18.583  13.045
15771W        W87442  21.955  33.929  13.788
15772W        W87443  39.846  13.775   4.898
15773W        W87444  25.116  22.267  14.266
15774W        W87445   4.717  34.258  11.910
15775W        W87446   3.492  17.036  10.698
15776W        W87447  34.087  25.505  12.968
15777W        W87448  22.097  32.873   1.976
15778W        W87449   5.511  19.787   3.736
15779W        W87450  29.513  33.868  11.862
15780W        W87451  18.606   2.903   2.280
15781W        W87452   1.768  36.007  13.386
15782W        W87453   3.723  26.436   2.249
15783W        W87454  27.491   2.975  11.542
15784W        W87455  20.652  25.791   3.558
15785W        W87456  36.436   6.454   0.517
15786W        W87457  17.048  19.241  11.553
15787W        W87458   0.361  17.607   1.155
15788W        W87459  29.631  41.043   0.190
15789W        W87460  43.776   3.510   2.836
15790W        W87461  10.671  41.405  13.623
15791W        W87462   4.925  18.194  11.598
15792W        W87463  17.746  37.867  11.128
15793W        W87464  39.528  26.962   0.147
15794W        W87465  17.670  20.944  14.393
15795W        W87466  31.117  31.866  10.354
15796W        W87467  33.625  26.584  12.149
15797W        W87468   8.762  37.740   5.257
15798W        W87469  31.952  39.642  13.865
15799W        W87470  19.063  26.664   2.844
15800W        W87471  37.617  26.567  10.243
15801W        W87472  38.447  24.944  14.777
15802W        W87473  37.269  34.922   1.714
15803W        W87474  38.901  40.593  10.475
15804W        W87475  41.099  17.985   1.778
15805W        W87476   7.105  13.810   4.013
15806W        W87477   1.792   6.900  13.075
15807W        W87478  13.587  14.768  13.574
15808W        W87479   6.262  25.666   2.280
15809W        W87480  12.027  44.213  13.066
15810W        W87481   1.926  18.968  11.537
15811W        W87482  20.598   2.912   4.639
15812W        W87483  20.928  23.068   3.656
15813W        W87484   7.002  41.323  10.885
15814W        W87485  43.720   8.191  12.800
15815W        W87486  22.335  17.256  13.124
15816W        W87487  37.012   5.114   2.940
15817W        W87488  41.492   2.283   3.393
15818W        W87489  10.809   1.493   2.735
15819W        W87490   8.180  21.118  14.290
15820W        W87491  10.152  26.186  13.506
15821W        W87492   7.921  16.063   3.320
15822W        W87493  28.958  13.163  10.636
15823W        W87494   5.203  19.605  11.520
15824W        W87495  39.385   2.763   3.776
15825W        W87496   7.408  15.619   0.346
15826W        W87497  28.157  11.395   2.243
15827W        W87498   0.682  11.471  10.364
15828W        W87499  32.878  21.133  12.593
15829W        W87500   9.743  42.853   0.020
15830W        W87501  40.340  30.895   4.240
15831W        W87502  29.476  26.475  11.824
15832W        W87503   4.917  29.215   4.084
15833W        W87504   6.721  21.553   3.937
15834W        W87505   9.255  38.850   0.342
15835W        W87506   1.622  19.815   2.805
15836W        W87507  38.250  16.695   2.209
15837W        W87508  32.827  25.594  11.593
15838W        W87509   6.810  10.210  12.909
15839W        W87510  35.876  43.987  13.462
15840W        W87511  25.423  18.190   0.739
15841W        W87512  21.511   0.073   3.814
15842W        W87513  28.734  36.904   4.386
15843W        W87514  14.272  36.431  11.176
15844W        W87515  44.806  27.014   2.125
15845W        W87516  20.492  18.067   4.191
15846W        W87517  44.273   9.130  11.017
15847W        W87518  42.586  13.485  11.073
15848W        W87519  25.521  19.066  11.967
15849W        W87520   8.041  44.579  14.925
15850W        W87521  36.650  32.637   2.812
15851W        W87522  19.754  27.531  10.777
15852W        W87523  29.200   0.739  12.552
15853W        W87524  26.486   3.923   4.184
15854W        W87525  30.729  32.031  10.676
15855W        W87526  20.860  39.040  10.673
15856W        W87527  32.715   5.873   1.200
15857W        W87528  11.061  33.550  14.003
15858W        W87529  35.839   7.450  11.710
15859W        W87530  20.455  31.801   0.476
15860W        W87531  16.138  36.572   3.303
15861W        W87532  37.038   5.163   4.213
15862W        W87533  35.899  43.648   1.657
15863W        W87534  22.808  16.073   0.420
15864W        W87535  11.959  16.634   2.730
15865W        W87536   7.196   5.815   3.190
15866W        W87537  31.033  32.712  11.395
15867W        W87538  17.582  18.526   1.922
15868W        W87539  38.230  33.057  13.820
15869W        W87540  19.844  21.767  11.130
15870W        W87541   5.330  10.782  13.541
15871W        W87542  35.554  10.130  12.742
15872W        W87543   4.382  38.426   0.962
15873W        W87544  21.238  36.061   1.994
15874W        W87545   2.277  22.454   4.107
15875W        W87546  23.547  19.024  14.959
15876W        W87547  30.376  37.930  11.321
15877W        W87548  34.581  28.453  11.827
15878W        W87549   0.855  20.232  10.317
15879W        W87550  13.062  36.548   4.478
15880W        W87551  13.594  28.523  12.409
15881W        W87552  20.998   8.332  14.442
15882W        W87553   1.024  12.201   0.041
15883W        W87554  31.325  38.498   1.771
15884W        W87555   1.670   1.500   4.085
15885W        W87556  35.903  23.671  10.508
15886W        W87557  41.924  26.405   3.051
15887W        W87558  31.554  29.565   2.310
15888W        W87559  14.718   8.414  13.568
15889W        W87560  19.387  13.001   4.502
15890W        W87561   8.366  26.197   2.669
15891W        W87562   4.188   0.527   3.685
15892W        W87563  32.415  38.996  12.386
15893W        W87564   3.844   2.730  13.302
15894W        W87565   9.277  30.597   4.309
15895W        W87566  22.702  36.577  12.130
15896W        W87567  24.718  18.972   4.579
15897W        W87568  39.930  32.338  11.481
15898W        W87569  39.648  23.449   3.828
15899W        W87570   9.918  23.143   4.931
15900W        W87571  35.924  34.463   0.471
15901W        W87572  35.520  18.604  13.052
15902W        W87573  27.034  19.334   4.769
15903W        W87574   8.879  18.111  13.877
15904W        W87575  29.642  21.681   3.909
15905W        W87576  15.325  22.809   3.790
15906W        W87577  13.012  17.677   4.646
15907W        W87578  13.573  32.102  13.859
15908W        W87579  18.360  41.943   0.381
15909W        W87580   6.827  24.993  12.537
15910W        W87581   6.938  26.171  13.304
15911W        W87582  43.167  22.347   2.275
15912W        W87583  36.098   4.209   0.488
15913W        W87584   3.480  31.516   2.706
15914W        W87585  21.520  24.975   1.206
15915W        W87586  14.620  35.562  11.774
15916W        W87587   6.942  17.853  12.456
15917W        W87588  16.735  26.539  13.395
15918W        W87589  31.714  24.239  11.562
15919W        W87590  24.498  24.570  10.608
15920W        W87591   1.884   1.198   2.309
15921W        W87592   2.214  40.863  12.526
15922W        W87593  11.592   9.217   1.719
15923W        W87594  40.555   1.934   3.813
15924W        W87595   3.972  29.065   2.750
15925W        W87596  20.418  23.734  13.478
15926W        W87597  17.728  35.643   1.895
15927W        W87598  40.474  13.693  11.946
15928W        W87599  37.721  12.140   3.297
15929W        W87600   8.917  40.481  12.963
15930W        W87601  17.171  22.737  13.890
15931W        W87602  23.000   6.764  12.075
15932W        W87603  38.588  34.791  12.418
15933W        W87604  13.249  20.568  12.415
15934W        W87605  15.769  19.841   4.856
15935W        W87606  30.680  33.034   3.651
15936W        W87607  13.688   6.933  10.654
15937W        W87608  36.231   5.078  12.006
15938W        W87609   9.109  14.551   0.839
15939W        W87610  12.650  13.002  14.925
15940W        W87611  24.606  21.973   1.916
15941W        W87612   0.831  13.717   2.598
15942W        W87613  35.651  18.801  13.533
15943W        W87614   3.256   8.400  14.753
15944W        W87615   6.250  41.450  13.997
15945W        W87616  39.916  22.799   4.576
15946W        W87617  13.094   4.063  13.882
15947W        W87618   0.497  39.364  14.362
15948W        W87619  37.573  39.099   2.889
15949W        W87620  39.058   4.736   1.357
15950W        W87621  43.488  32.953   4.847
15951W        W87622  20.864   7.887  14.218
15952W        W87623  21.429  23.021  12.059
15953W        W87624  13.702  26.610  14.973
15954W        W87625   5.200   1.850  12.598
15955W        W87626   3.050  17.621  11.422
15956W        W87627   9.297  18.915   1.312
15957W        W87628  23.702  40.586  12.998
15958W        W87629  27.322   6.235   5.274
15959W        W87630  43.830   7.218  14.415
15960W        W87631   9.489  32.495   3.299
15961W        W87632  11.352  39.352   3.747
15962W        W87633  13.117  38.835   2.621
15963W        W87634   0.885  34.989   4.434
15964W        W87635  43.341  11.554   9.658
15965W        W87636  36.067  43.104  11.124
15966W        W87637  17.765   7.377   3.187
15967W        W87638   5.292  19.289   4.012
15968W        W87639  25.041   5.698   3.552
15969W        W87640  12.279   3.155  11.494
15970W        W87641   4.407   8.842  12.576
15971W        W87642  34.453   4.248  12.422
15972W        W87643  41.391  16.224  13.943
15973W        W87644  22.220  29.505   0.356
15974W        W87645  30.729  36.850  14.556
15975W        W87646  18.009  19.747   0.519
15976W        W87647  29.397  11.767  14.324
15977W        W87648  19.779   9.694  13.937
15978W        W87649  34.420  11.824  13.956
15979W        W87650  25.097  39.643   1.621
15980W        W87651  37.861   7.675  13.740
15981W        W87652  17.666  16.758   2.978
15982W        W87653   6.036  24.275   1.788
15983W        W87654  34.536  20.283   3.324
15984W        W87655   0.493  38.616   3.093
15985W        W87656  18.063  34.845  12.095
15986W        W87657  12.383  42.786   4.642
15987W        W87658   9.880   0.296   4.117
15988W        W87659  37.058   6.908   1.669
15989W        W87660   5.104  26.982  10.346
15990W        W87661  35.555   8.741  14.245
15991W        W87662   9.861  30.399  14.031
15992W        W87663  15.778  35.673  11.360
15993W        W87664  10.720   9.171   2.259
15994W        W87665   9.364  28.651  10.552
15995W        W87666   0.121  22.054   2.323
15996W        W87667  41.141   3.270   2.340
15997W        W87668   7.827  11.933  14.919
15998W        W87669  24.776   8.905  14.862
15999W        W87670  33.791   8.215   4.430
16000W        W87671  41.454  26.670   0.504
16001W        W87672  21.420  22.950  12.995
16002W        W87673   1.934  33.419  11.519
16003W        W87674  13.701  18.967   2.908
16004W        W87675  15.234   6.012   1.882
16005W        W87676  34.307  11.278   1.712
16006W        W87677  13.394  12.730  12.075
16007W        W87678   0.891  18.855  12.253
16008W        W87679   5.652  31.942  10.680
16009W        W87680  36.138   0.499   1.654
16010W        W87681  21.609  34.130  14.323
16011W        W87682  13.296  22.770  13.846
16012W        W87683  17.737  44.300   2.089
16013W        W87684  32.335  15.280   1.994
16014W        W87685  43.276  39.339  12.602
16015W        W87686  43.093  13.892  10.551
16016W        W87687   1.921  34.149  13.914
16017W        W87688  11.404   8.518   3.157
16018W        W87689  42.867   8.642  11.553
16019W        W87690  43.497  34.300  14.449
16020W        W87691   1.812   5.277  10.792
16021W        W87692  33.051  27.456   3.155
16022W        W87693  38.495  18.768   3.337
16023W        W87694  15.338   3.130   3.159
16024W        W87695  26.953  34.883   4.885
16025W        W87696  30.998  31.034  11.434
16026W        W87697  37.862  35.514  11.676
16027W        W87698  41.901  19.335  11.562
16028W        W87699   0.201  20.113   5.446
16029W        W87700   3.973   6.155  11.838
16030W        W87701  20.223  36.871  12.346
16031W        W87702  44.265  22.757  12.015
16032W        W87703  34.310  29.619   3.131
16033W        W87704  31.681  10.877   3.371
16034W        W87705   2.141  19.172   3.869
16035W        W87706  16.663  41.830  14.212
16036W        W87707  44.407  35.151  10.814
16037W        W87708  35.925  37.398  14.850
16038W        W87709  17.489  25.963  11.375
16039W        W87710  43.401  42.471   3.661
16040W        W87711  10.633  24.550   4.356
16041W        W87712  22.741  13.109  11.597
16042W        W87713   9.353  38.083  14.842
16043W        W87714  27.667  38.961  13.446
16044W        W87715  38.315   9.604   4.099
16045W        W87716  40.604   1.933  12.073
16046W        W87717   7.740  13.557   0.912
16047W        W87718  19.766   0.172  13.318
16048W        W87719  29.891  21.156  14.383
16049W        W87720  44.594  20.499   4.579
16050W        W87721  37.034  24.221  12.498
16051W        W87722  32.590   5.807  12.392
16052W        W87723   1.894   8.503   3.275
16053W        W87724  38.564  23.532  13.466
16054W        W87725  22.497  20.178  13.870
16055W        W87726  14.111  19.273   1.323
16056W        W87727  14.617  24.617  14.148
16057W        W87728  17.578  14.598   4.180
16058W        W87729  15.744   8.924  10.587
16059W        W87730  41.228   3.925  13.507
16060W        W87731  23.974  32.558   3.317
16061W        W87732   5.323  42.778   4.137
16062W        W87733  32.842  17.078  13.345
16063W        W87734  34.286   7.900   1.789
16064W        W87735  23.282  25.480   3.262
16065W        W87736  36.373  44.454  12.923
16066W        W87737   0.787  40.292   3.063
16067W        W87738  32.696  24.626   0.864
16068W        W87739  32.667  18.799   0.675
16069W        W87740   8.560  25.435  12.773
16070W        W87741  43.489   0.230  14.870
16071W        W87742  17.580  15.138   1.271
16072W        W87743  31.236   4.991   4.023
16073W        W87744  24.181  20.002  13.609
16074W        W87745  37.259  31.991  14.412
16075W        W87746  16.534  36.083  13.688
16076W        W87747  21.750  27.752   3.849
16077W        W87748  33.453  17.771   1.358
16078W        W87749  11.841  24.848   0.530
16079W        W87750   6.409  23.752  13.741
16080W        W87751  10.118   4.935  13.303
16081W        W87752  41.386  13.325   0.843
16082W        W87753  30.317  23.113  13.847
16083W        W87754   4.776  26.002   3.189
16084W        W87755  15.751  13.892   3.333
16085W        W87756   5.642  20.934  12.372
16086W        W87757  23.869  18.883  12.809
16087W        W87758   4.358   3.927   4.636
16088W        W87759   1.811   5.240  12.908
16089W        W87760   6.819  13.194  12.379
16090W        W87761  15.197  14.695   3.901
16091W        W87762  21.363  38.851  11.768
16092W        W87763  16.555   5.376  10.668
16093W        W87764  44.589  30.706  10.949
16094W        W87765  16.522  10.168  14.357
16095W        W87766   0.505  26.069  13.811
16096W        W87767  39.422   0.106  10.899
16097W        W87768  13.555  29.735   4.089
16098W        W87769  20.182   4.977   0.517
16099W        W87770  44.172  44.348   2.444
16100W        W87771  21.636  40.275  12.801
16101W        W87772  34.902  36.796   3.612
16102W        W87773  28.561  20.214  13.084
16103W        W87774  21.754  19.125   1.342
16104W        W87775   8.327  43.981  13.814
16105W        W87776  11.187  21.673  10.849
16106W        W87777  39.865  26.587  11.023
16107W        W87778  26.154  42.386   3.565
16108W        W87779  22.991  15.984   1.853
16109W        W87780  14.910  36.540   4.089
16110W        W87781  28.015  10.635  11.592
16111W        W87782  11.630  31.378  12.454
16112W        W87783  25.148  32.894  13.973
16113W        W87784   6.827  10.316   2.839
16114W        W87785   5.243  27.607   4.792
16115W        W87786  40.962  43.385  11.957
16116W        W87787  29.042  11.547  13.141
16117W        W87788  20.695  22.682   1.272
16118W        W87789  34.560   1.911   2.582
16119W        W87790  10.708  13.820   0.263
16120W        W87791  44.208  27.487   2.853
16121W        W87792   1.672  33.055  12.449
16122W        W87793  24.083  31.572  12.324
16123W        W87794  11.391  29.771   3.140
16124W        W87795  16.527   8.271  12.441
16125W        W87796  33.471  17.846   1.975
16126W        W87797   3.928  39.445  10.562
16127W        W87798  22.241  21.562  13.875
16128W        W87799  25.577  13.901   0.632
16129W        W87800  44.921  21.742  12.474
16130W        W87801  16.239  14.700  13.545
16131W        W87802  25.725  12.693  12.813
16132W        W87803  23.325   8.801  13.205
16133W        W87804  26.165  40.754  11.549
16134W        W87805   0.353  12.510   1.358
16135W        W87806  13.233  33.384   2.836
16136W        W87807   5.724  43.769   2.191
16137W        W87808  38.161  29.620   3.345
16138W        W87809  10.097  19.128  10.924
16139W        W87810  11.708  42.256  11.248
16140W        W87811  21.296  16.168  13.818
16141W        W87812  44.999  14.408   0.448
16142W        W87813  16.603  19.931   1.843
16143W        W87814   8.781  13.907   4.453
16144W        W87815   6.706   3.181   0.979
16145W        W87816  10.129  34.165   3.371
16146W        W87817  36.505  18.193   2.406
16147W        W87818  31.046  26.439   1.860
16148W        W87819   6.188   0.866  13.082
16149W        W87820  22.482  11.200   3.557
16150W        W87821  33.965   3.142  14.405
16151W        W87822   9.792  36.155  13.826
16152W        W87823   5.835  16.885  14.326
16153W        W87824   0.418  24.551  13.310
16154W        W87825  28.064   4.600  10.719
16155W        W87826  36.646   2.946  14.740
16156W        W87827  31.498  42.007   2.300
16157W        W87828  38.613  17.213  13.929
16158W        W87829  32.680  28.045   1.707
16159W        W87830  10.668   2.404   4.945
16160W        W87831  23.663  24.282  11.879
16161W        W87832  42.831   6.485   2.536
16162W        W87833  32.396  34.992   1.687
16163W        W87834  24.936  37.860  14.029
16164W        W87835  43.520  14.290   1.667
16165W        W87836  28.171  34.193   4.865
16166W        W87837  44.786   9.677  11.075
16167W        W87838  25.245   7.082   4.587
16168W        W87839   8.403  34.024  14.755
16169W        W87840   7.115  20.375  14.435
16170W        W87841  41.846  40.396   0.486
16171W        W87842   3.366  26.435  14.967
16172W        W87843  19.533  14.765   1.349
16173W        W87844  33.164  39.476  12.540
16174W        W87845  16.445  31.618  11.177
16175W        W87846  21.749   2.541  14.824
16176W        W87847  20.064  14.585  11.412
16177W        W87848  21.244  11.432  11.123
16178W        W87849  44.323  44.010  13.766
16179W        W87850  10.726  37.328  10.646
16180W        W87851  13.850  13.374  11.491
16181W        W87852   0.466  25.168   4.151
16182W        W87853  16.216  30.904  14.770
16183W        W87854  43.483  33.680  14.899
16184W        W87855  26.559  12.553   2.783
16185W        W87856  23.618  36.018  13.831
16186W        W87857  30.681   5.879   2.665
16187W        W87858  19.661  44.816  12.363
16188W        W87859   2.790   9.248   1.259
16189W        W87860   1.241  28.290  11.565
16190W        W87861  37.477  20.574   4.611
16191W        W87862   1.281  35.127  13.141
16192W        W87863  26.518  17.750  11.467
16193W        W87864  36.128  20.908  11.129
16194W        W87865  41.314   7.594  11.112
16195W        W87866  33.595   5.280  11.921
16196W        W87867   6.994  26.624   1.367
16197W        W87868  21.738  23.542   0.699
16198W        W87869   8.526  28.640  11.599
16199W        W87870  34.652  38.861   2.734
16200W        W87871  37.778   9.398   1.258
16201W        W87872  18.796  32.952  12.578
16202W        W87873   0.404   2.441   4.290
16203W        W87874  18.693  26.579  11.963
16204W        W87875  19.017  37.575  10.645
16205W        W87876  40.737  41.753  12.082
16206W        W87877  35.450  41.338   2.012
16207W        W87878  10.351  24.044   1.357
16208W        W87879  36.797  16.389  11.800
16209W        W87880  23.707  26.637   3.717
16210W        W87881  17.565  28.660   1.487
16211W        W87882  34.811   7.016   0.315
16212W        W87883  22.832  11.804  11.998
16213W        W87884  13.249  26.881  10.651
16214W        W87885  10.175   8.438   1.275
16215W        W87886  36.900   6.921  12.612
16216W        W87887  18.561  27.578   4.579
16217W        W87888  33.012   4.908  11.424
16218W        W87889  42.052  32.715   4.865
16219W        W87890   4.865   0.849  12.940
16220W        W87891  32.473  20.014  13.492
16221W        W87892  27.824   1.824  10.437
16222W        W87893  23.306  27.862  12.323
16223W        W87894  41.832  40.337  12.955
16224W        W87895  15.781  21.600  14.396
16225W        W87896   8.093  22.491  14.643
16226W        W87897   5.790  43.260   3.353
16227W        W87898  32.050  29.579  10.463
16228W        W87899  21.507  33.544   1.392
16229W        W87900  22.534  13.167  14.294
16230W        W87901  18.733  41.181   4.723
16231W        W87902  23.560  37.326  11.152
16232W        W87903  30.122  41.216  11.218
16233W        W87904   3.359  44.320  14.979
16234W        W87905  38.172  28.630  10.696
16235W        W87906  42.800   7.885  14.122
16236W        W87907  34.003  12.844   2.825
16237W        W87908  13.367  11.161  10.506
16238W        W87909  31.458  39.974   1.774
16239W        W87910  28.238  16.813   2.874
16240W        W87911  14.118   8.210   2.212
16241W        W87912  23.754  21.757  11.724
16242W        W87913  26.381  16.434   1.910
16243W        W87914  41.485  11.308  14.742
16244W        W87915  31.380   2.366  14.587
16245W        W87916  14.841  39.051   0.275
16246W        W87917  13.201   8.957  10.993
16247W        W87918  12.784  39.119   3.904
16248W        W87919  44.960   6.573  14.317
16249W        W87920  14.556   5.872  11.549
16250W        W87921  20.988   7.792  11.078
16251W        W87922   2.702  14.296   4.553
16252W        W87923  41.516   4.042   3.629
16253W        W87924  20.152  16.325   4.265
16254W        W87925  16.121  26.480   3.380
16255W        W87926  34.047  13.313  13.079
16256W        W87927  19.516  12.383  12.641
16257W        W87928   9.279  22.023  14.671
16258W        W87929  36.819  39.074  13.994
16259W        W87930   0.447  29.959  13.109
16260W        W87931   3.447  10.693   1.766
16261W        W87932   0.048   4.721  13.947
16262W        W87933  19.459  15.063   2.141
16263W        W87934  28.232  16.306   2.688
16264W        W87935   7.004  13.350   2.275
16265W        W87936  42.839  40.405   0.817
16266W        W87937   4.863  13.844  10.579
16267W        W87938  13.106  12.373   0.865
16268W        W87939   2.895  31.926   3.808
16269W        W87940   3.516  38.780   0.512
16270W        W87941  37.826  15.755  12.045
16271W        W87942  30.496  44.320   2.835
16272W        W87943   2.797  26.264   1.408
16273W        W87944  30.278   4.294  14.615
16274W        W87945  12.869  36.399   0.731
16275W        W87946  42.488  30.918  12.521
16276W        W87947  40.532  19.065   2.419
16277W        W87948  30.513  31.033  11.607
16278W        W87949  17.452  23.274   2.295
16279W        W87950   7.839  34.081   0.516
16280W        W87951  32.058  32.429  14.004
16281W        W87952  43.342  20.725   1.185
16282W        W87953  43.294  25.181   1.216
16283W        W87954  36.719  26.243  13.428
16284W        W87955   3.166  42.582  11.821
16285W        W87956   1.644  40.912  10.678
16286W        W87957   5.654  12.678  11.928
16287W        W87958  25.511  32.563   2.214
16288W        W87959  28.931  34.883  11.543
16289W        W87960   4.254  22.827  11.540
16290W        W87961   5.998  32.622  13.443
16291W        W87962  39.286  31.567  10.871
16292W        W87963  35.495  23.281   0.871
16293W        W87964  10.678  40.975   2.806
16294W        W87965  17.112  41.952  14.606
16295W        W87966  27.678  44.431   2.309
16296W        W87967  34.392  33.297  11.504
16297W        W87968  23.555  32.361   2.375
16298W        W87969   7.651  31.612   2.755
16299W        W87970  17.166  29.524   1.774
16300W        W87971  36.090   3.598  11.694
16301W        W87972  15.780  30.891   1.464
16302W        W87973  26.633   2.179  14.278
16303W        W87974   6.453  13.181  13.488
16304W        W87975  18.818  40.354   4.966
16305W        W87976  28.987   7.844  12.190
16306W        W87977  28.512  34.337   0.304
16307W        W87978  24.674  34.849  13.929
16308W        W87979   9.636  10.015   5.125
16309W        W87980  19.950  25.525  13.880
16310W        W87981  14.966  27.809   9.976
16311W        W87982  42.518  29.005   2.325
16312W        W87983   7.158  42.993  12.388
16313W        W87984  20.680   0.989  13.491
16314W        W87985  42.845  28.071  11.110
16315W        W87986  12.184  29.540   0.901
16316W        W87987  25.681  33.590   2.323
16317W        W87988  17.605  39.134   0.693
16318W        W87989  22.635   2.669  11.206
16319W        W87990  22.828  15.787   0.850
16320W        W87991  33.488  44.236  10.835
16321W        W87992  21.630  12.547   1.404
16322W        W87993  16.114  41.078  14.351
16323W        W87994  34.439  20.882  12.803
16324W        W87995  39.746  43.378  12.368
16325W        W87996  32.721  11.239   0.562
16326W        W87997  22.646  24.280  11.045
16327W        W87998  23.926  23.241   0.661
16328W        W87999  20.277  18.807  14.056
16329W        W88000  38.040  16.137  11.429
16330W        W88001  41.946  20.279  11.469
16331W        W88002  11.860  20.493  13.526
16332W        W88003  36.583  22.630  13.623
16333W        W88004  26.459  39.856  11.676
16334W        W88005  22.762  23.544  13.743
16335W        W88006  41.392   3.804  14.994
16336W        W88007  27.629  17.663  11.210
16337W        W88008   6.331  40.320   2.673
16338W        W88009  13.150  20.575  14.513
16339W        W88010  44.758  11.318  12.500
16340W        W88011  27.929   3.655   2.261
16341W        W88012  18.225   7.619  14.469
16342W        W88013  13.651  20.268   3.547
16343W        W88014  12.120  17.364   0.819
16344W        W88015  19.621  18.122  14.039
16345W        W88016   3.454  40.622  11.616
16346W        W88017  28.057  24.140   5.070
16347W        W88018  40.352  40.509   3.704
16348W        W88019  14.705  20.084  10.851
16349W        W88020  23.790  33.044   3.366
16350W        W88021   2.357   3.737   0.948
16351W        W88022  12.286  24.724   0.978
16352W        W88023  24.639   5.275  12.861
16353W        W88024   1.567  31.365   2.591
16354W        W88025  16.835  28.650  13.231
16355W        W88026  31.153  44.860   3.616
16356W        W88027   5.879  22.579   2.766
16357W        W88028   7.723  14.083   0.940
16358W        W88029   0.780  23.471   1.798
16359W        W88030   5.262  44.302  10.906
16360W        W88031  26.117  43.822  13.783
16361W        W88032  25.922  29.998  13.971
16362W        W88033  28.817  39.600  14.798
16363W        W88034  17.685  11.576   4.581
16364W        W88035   7.263   7.709   2.035
16365W        W88036  22.236  42.456   3.007
16366W        W88037  14.490  44.033   0.787
16367W        W88038  30.625  37.501  11.496
16368W        W88039  20.045   4.359  12.945
16369W        W88040   4.764  41.755  14.358
16370W        W88041  23.176  28.824   4.152
16371W        W88042  18.288   6.848   4.916
16372W        W88043  39.545  22.138  13.550
16373W        W88044  43.721  39.953  10.232
16374W        W88045   7.594  21.846   3.994
16375W        W88046  20.513  42.812   3.190
16376W        W88047  25.945  26.635   2.601
16377W        W88048  28.124   2.940   1.003
16378W        W88049  25.633  18.571  13.619
16379W        W88050  19.153  19.292  11.568
16380W        W88051  13.019  10.792   0.811
16381W        W88052  18.670  13.807  11.109
16382W        W88053  36.853  27.761   2.364
16383W        W88054  27.965  20.087  12.449
16384W        W88055  17.885  17.368  10.735
16385W        W88056   8.813  24.466  14.978
16386W        W88057   6.849  19.634  11.330
16387W        W88058  20.522  14.608  11.135
16388W        W88059  43.531  18.745  10.422
16389W        W88060  11.631  26.456   4.674
16390W        W88061  36.634   4.363   4.030
16391W        W88062   4.885  28.180   1.617
16392W        W88063  43.600  14.778  12.163
16393W        W88064  28.941  17.531  12.536
16394W        W88065   1.507  29.538   3.338
16395W        W88066   3.955  28.240  10.753
16396W        W88067  11.287  26.533   1.911
16397W        W88068  13.237  12.300  12.325
16398W        W88069   0.318   3.489   2.969
16399W        W88070  11.109  10.345   4.411
16400W        W88071  42.455   1.461  12.586
16401W        W88072   8.328  21.584   0.984
16402W        W88073   0.029  39.477   0.267
16403W        W88074  34.316  10.337  12.542
16404W        W88075  43.523  17.196   3.848
16405W        W88076   7.884  16.335  12.149
16406W        W88077  41.041  33.139  12.866
16407W        W88078  41.947   5.437   2.036
16408W        W88079   4.415  29.350   0.998
16409W        W88080  21.307   5.403  11.390
16410W        W88081  21.267  12.952   2.271
16411W        W88082  41.419  31.907   3.320
16412W        W88083  28.465  31.581  10.713
16413W        W88084   9.717  22.037   4.131
16414W        W88085  17.587   8.249  14.523
16415W        W88086  28.135  18.753  14.744
16416W        W88087  23.732  13.613   1.482
16417W        W88088  16.548  12.313  12.536
16418W        W88089  38.428   9.580  14.076
16419W        W88090  31.110   8.383  12.023
16420W        W88091  10.990  24.127   3.223
16421W        W88092  27.082  29.569  14.815
16422W        W88093  29.068  11.553  12.099
16423W        W88094   2.388  35.441   1.518
16424W        W88095  34.235   0.997  11.988
16425W        W88096  26.991   1.660   3.794
16426W        W88097  44.802  28.098  10.571
16427W        W88098   3.424  40.560  12.108
16428W        W88099   1.411   3.967   1.587
16429W        W88100  38.596  13.415   1.803
16430W        W88101  42.307  12.621   2.855
16431W        W88102   5.053  30.558   0.092
16432W        W88103  17.178  26.507  13.112
16433W        W88104  19.530  23.735  11.501
16434W        W88105   1.300  25.664   0.709
16435W        W88106  28.648  42.002  11.644
16436W        W88107  11.293  37.532   1.247
16437W        W88108  21.460  35.540   2.228
16438W        W88109  24.815  44.745  12.020
16439W        W88110  34.167  33.868  11.530
16440W        W88111  34.841  10.350  12.523
16441W        W88112  26.473  26.482   0.230
16442W        W88113  27.284  12.862   2.323
16443W        W88114  33.152  11.138   4.519
16444W        W88115  28.235  31.320  11.111
16445W        W88116   4.852   4.145  11.240
16446W        W88117  26.930  44.850  13.802
16447W        W88118  20.559  41.370  14.006
16448W        W88119   7.314  26.653  11.928
16449W        W88120  10.688  25.004   3.986
16450W        W88121  10.306   0.885  12.191
16451W        W88122  35.371  35.070  12.471
16452W        W88123  11.596   4.750  14.504
16453W        W88124   0.538  44.244  11.167
16454W        W88125  39.993  37.888   3.258
16455W        W88126  41.777  26.609  14.058
16456W        W88127   8.301   1.248   4.517
16457W        W88128   5.492  15.626  13.076
16458W        W88129  40.472   9.803  14.892
16459W        W88130  38.771  11.077  13.063
16460W        W88131   1.020  16.540   1.283
16461W        W88132  43.803  11.984  12.893
16462W        W88133  25.392  13.629   4.252
16463W        W88134  18.622  19.814   2.578
16464W        W88135  18.588   5.248  10.536
16465W        W88136  24.854  13.192   1.651
16466W        W88137  33.647  13.641   4.198
16467W        W88138  20.001   9.806  12.338
16468W        W88139  38.992   3.166   3.134
16469W        W88140  32.568   0.415   4.152
16470W        W88141  13.336  23.711  12.467
16471W        W88142  16.551  17.752   1.721
16472W        W88143   1.343  37.788   1.938
16473W        W88144  27.408  39.827   3.315
16474W        W88145  23.482   8.771   2.421
16475W        W88146  20.729  37.799   5.071
16476W        W88147  34.009  27.119   4.521
16477W        W88148  19.095  17.209   3.909
16478W        W88149  14.987   1.794   4.994
16479W        W88150   8.249  39.074  12.339
16480W        W88151   0.913   2.711  13.565
16481W        W88152   1.772  44.309  11.114
16482W        W88153   4.235  13.188   2.842
16483W        W88154  36.007  20.985   3.790
16484W        W88155  38.904  26.405   4.749
16485W        W88156  13.200  27.259  12.975
16486W        W88157  28.968   3.641  12.843
16487W        W88158  10.605  37.448  12.756
16488W        W88159  30.070   5.179  11.697
16489W        W88160  14.282  24.550  11.536
16490W        W88161  25.607  22.700  10.098
16491W        W88162   3.791  26.970   2.163
16492W        W88163  26.062  30.060   4.549
16493W        W88164  32.160  16.295   0.023
16494W        W88165   5.420  17.123  12.994
16495W        W88166  44.930  16.274  13.477
16496W        W88167  10.319  14.821   3.192
16497W        W88168  28.696  35.733  12.932
16498W        W88169  33.799  43.346   1.581
16499W        W88170  40.833  28.174  12.498
16500W        W88171  29.627   4.897  11.462
16501W        W88172  30.484  31.952   4.361
16502W        W88173  21.893  25.626   1.087
16503W        W88174  16.359  13.124   1.267
16504W        W88175   6.019  39.349  11.577
16505W        W88176  11.770  24.091   0.064
16506W        W88177  24.231   5.377   3.173
16507W        W88178  15.060  36.941  14.786
16508W        W88179  33.473  13.540   0.588
16509W        W88180   1.317  22.708   2.136
16510W        W88181  30.347  25.857  11.143
16511W        W88182  22.775  25.446   2.123
16512W        W88183  24.828  18.201  13.839
16513W        W88184  29.658  39.996   0.092
16514W        W88185  24.133   4.786  11.138
16515W        W88186  21.626   9.191  13.075
16516W        W88187  13.229  38.420  12.419
16517W        W88188   2.805  17.305   2.397
16518W        W88189  38.408  32.786  13.414
16519W        W88190  34.112   6.339  12.499
16520W        W88191  38.859  17.572   3.855
16521W        W88192  39.740  31.944  12.435
16522W        W88193  33.638  41.247  11.282
16523W        W88194  18.289  13.579   4.235
16524W        W88195  36.016  41.346  10.653
16525W        W88196  34.815  12.663  11.807
16526W        W88197  33.366  28.601   1.453
16527W        W88198   7.196  37.986  12.083
16528W        W88199  26.393  27.213  13.601
16529W        W88200  35.303  42.240   3.827
16530W        W88201  28.839  40.914   0.551
16531W        W88202  32.541   3.331   2.713
16532W        W88203  35.108  40.531  11.468
16533W        W88204  24.432   2.210   0.734
16534W        W88205  18.259  26.452   0.803
16535W        W88206  20.612  12.597  14.084
16536W        W88207   0.365  43.368   3.678
16537W        W88208  29.003  33.304  12.522
16538W        W88209  31.500   6.345   4.016
16539W        W88210  12.322  22.763   0.813
16540W        W88211  26.811  14.815   0.226
16541W        W88212  39.354  29.203  11.505
16542W        W88213  30.362  11.326   3.161
16543W        W88214  27.911  28.027   4.879
16544W        W88215  31.461  25.778  10.416
16545W        W88216  10.822  19.986   2.704
16546W        W88217  15.225  21.146  14.959
16547W        W88218   7.186   7.171   2.752
16548W        W88219  41.496  19.736  13.700
16549W        W88220  23.118   0.415   4.055
16550W        W88221  25.935   7.807  12.012
16551W        W88222  43.927   9.398   1.701
16552W        W88223   4.588  41.360  11.466
16553W        W88224   3.741  15.652   1.885
16554W        W88225   6.635  16.322   2.758
16555W        W88226  14.564  28.040  11.558
16556W        W88227  40.080   6.844   3.675
16557W        W88228  12.165  18.328  10.669
16558W        W88229   9.155  40.715   1.887
16559W        W88230  25.187  43.011  12.512
16560W        W88231   5.139  21.363   0.855
16561W        W88232  32.451  34.318   2.792
16562W        W88233  11.941  29.649   1.388
16563W        W88234  30.437  31.951   0.736
16564W        W88235  19.416  28.130   1.844
16565W        W88236  21.559  40.086   4.660
16566W        W88237  12.279  39.760   3.395
16567W        W88238  12.089  11.724   3.691
16568W        W88239   9.807  21.362   3.176
16569W        W88240  39.338  21.132   3.107
16570W        W88241   1.162   6.685  12.513
16571W        W88242   0.962   7.533  13.619
16572W        W88243  12.555  33.587  11.914
16573W        W88244  28.678  26.603  13.087
16574W        W88245  13.639  30.339   4.692
16575W        W88246   6.741   0.538   1.820
16576W        W88247  42.250  38.151  14.122
16577W        W88248   5.156  16.610   1.960
16578W        W88249  39.434  12.798  14.726
16579W        W88250  31.363   5.728   1.831
16580W        W88251  17.838  43.786   0.428
16581W        W88252  18.084  30.161  14.088
16582W        W88253  13.646  28.961  13.860
16583W        W88254  13.366  14.398   0.353
16584W        W88255  44.500  27.213  14.807
16585W        W88256  16.571  30.398  10.757
16586W        W88257   0.901  41.818   2.828
16587W        W88258  23.655  40.424   3.897
16588W        W88259  18.301  13.158  10.696
16589W        W88260  20.711  40.437   1.859
16590W        W88261  34.362  42.697   4.114
16591W        W88262  15.752   0.016   1.968
16592W        W88263  30.528  34.545   2.429
16593W        W88264  27.453   1.523   1.335
16594W        W88265  33.656  23.674   0.728
16595W        W88266  36.790  35.773  14.945
16596W        W88267  23.145  17.132  14.232
16597W        W88268  10.629  43.383  11.184
16598W        W88269  38.958  19.568   3.130
16599W        W88270  14.882  17.845   2.184
16600W        W88271  19.306   3.921   1.917
16601W        W88272   8.972  14.973   2.461
16602W        W88273  14.333  32.095  10.877
16603W        W88274  14.639   2.789  14.633
16604W        W88275  26.861  31.951   2.210
16605W        W88276  37.455  11.762   5.085
16606W        W88277  24.788  12.405   1.725
16607W        W88278  41.416   6.458  13.269
16608W        W88279  33.871  38.532  11.042
16609W        W88280  20.144   9.952  10.677
16610W        W88281  37.872  27.242  12.612
16611W        W88282  25.104  43.602  13.556
16612W        W88283  29.024  34.967   3.404
16613W        W88284   2.428  29.480  12.595
16614W        W88285  36.527  35.928   1.251
16615W        W88286  17.132  27.139   4.884
16616W        W88287  35.250  41.509   0.257
16617W        W88288  25.593  16.204  14.451
16618W        W88289  14.722   6.360  12.845
16619W        W88290  28.152  22.224   2.248
16620W        W88291  24.551   4.158   2.746
16621W        W88292  11.635  25.830   0.208
16622W        W88293  20.082  42.912   4.179
16623W        W88294  43.895  19.031  10.676
16624W        W88295  22.209  38.914  10.669
16625W        W88296  27.051  37.274   2.741
16626W        W88297  40.797  13.208  14.411
16627W        W88298  24.965  34.419   2.469
16628W        W88299   9.216   3.267  12.043
16629W        W88300   8.878   8.019  11.083
16630W        W88301  24.292  21.144  14.535
16631W        W88302  38.487  29.427  13.087
16632W        W88303  32.024  41.897  10.650
16633W        W88304  13.147  28.471  14.909
16634W        W88305  22.083  43.953   4.366
16635W        W88306  29.077   0.881   0.346
16636W        W88307  24.299  23.489  14.227
16637W        W88308  41.498  21.725  12.462
16638W        W88309  36.281  19.096   4.773
16639W        W88310  32.796  22.838   2.807
16640W        W88311  39.501   8.713   4.485
16641W        W88312  21.008  37.964  13.813
16642W        W88313   9.837  11.337   1.240
16643W        W88314  28.895  27.046   1.869
16644W        W88315  31.060   9.569   3.969
16645W        W88316  11.423   0.580  10.698
16646W        W88317  35.234  11.317  12.789
16647W        W88318   6.865  24.331   1.353
16648W        W88319  33.898  15.180  13.772
16649W        W88320   1.455  41.808  13.496
16650W        W88321  18.550   9.086  12.012
16651W        W88322  19.182  35.946  13.773
16652W        W88323   0.693  30.406  12.093
16653W        W88324  15.170   2.933   3.608
16654W        W88325  39.931  16.084  11.649
16655W        W88326  37.605  42.907  14.935
16656W        W88327   9.637  20.809   4.609
16657W        W88328  35.090   8.513   0.247
16658W        W88329  43.330  34.492   3.170
16659W        W88330  18.849  43.360   0.843
16660W        W88331   8.061   3.993   3.108
16661W        W88332   5.875   7.144   4.135
16662W        W88333  43.993  19.243  14.283
16663W        W88334  32.537  32.178  13.911
16664W        W88335  19.965  10.960  11.628
16665W        W88336  18.084  39.072   2.385
16666W        W88337   1.491  44.788  12.825
16667W        W88338   1.155  28.034   1.947
16668W        W88339  29.403  29.722  11.899
16669W        W88340  34.381  28.005   0.791
16670W        W88341  16.032  29.065   0.022
16671W        W88342  16.860  28.723  12.643
16672W        W88343  35.919   5.180   4.086
16673W        W88344  12.820   2.682  11.623
16674W        W88345   3.250  31.177   4.018
16675W        W88346  39.288   3.975  12.093
16676W        W88347  44.924  21.121   1.759
16677W        W88348  22.157  26.412   3.251
16678W        W88349  20.441   0.032   1.270
16679W        W88350  35.047  39.512  12.358
16680W        W88351   6.061  10.982   3.594
16681W        W88352   9.687  28.466   4.134
16682W        W88353  15.707  23.475  13.616
16683W        W88354  32.078  29.367   2.341
16684W        W88355   3.469  39.563   2.300
16685W        W88356   8.967  31.028   1.838
16686W        W88357  40.976  17.743   3.971
16687W        W88358  35.853  23.876  14.515
16688W        W88359   8.803   9.582   1.726
16689W        W88360  21.577  31.216  11.585
16690W        W88361  23.742  33.281  13.037
16691W        W88362  34.152  35.165   1.236
16692W        W88363  20.311  35.142   0.684
16693W        W88364  34.086  36.286  14.456
16694W        W88365   2.636   3.160   1.786
16695W        W88366  23.200  43.298  14.573
16696W        W88367  12.632  35.067   0.820
16697W        W88368  22.956   2.903  11.722
16698W        W88369   0.061  21.030   0.783
16699W        W88370  30.865  31.132  14.763
16700W        W88371  17.243  12.590   1.812
16701W        W88372  14.100  30.064   3.108
16702W        W88373   6.970  40.987   3.276
16703W        W88374  19.696   0.042  14.298
16704W        W88375  34.191  28.392  10.176
16705W        W88376  35.770  17.243   1.196
16706W        W88377  23.610  35.417  12.121
16707W        W88378  21.548  36.439   1.333
16708W        W88379  39.839  37.024  12.217
16709W        W88380  10.896  34.997  12.673
16710W        W88381  10.086  18.796   0.020
16711W        W88382  17.355  10.292   3.345
16712W        W88383   1.114  35.606  13.289
16713W        W88384   4.871  35.452   1.311
16714W        W88385  17.527  16.027   1.450
16715W        W88386  42.289   9.343   4.643
16716W        W88387  39.002  22.692  13.014
16717W        W88388  10.627  30.673  11.568
16718W        W88389  31.830  16.144   2.934
16719W        W88390   1.635  11.827   3.117
16720W        W88391  28.978  28.136   2.707
16721W        W88392  11.886  35.029   0.289
16722W        W88393  29.907  10.096  14.062
16723W        W88394  30.368  10.216  10.530
16724W        W88395   1.910  41.427   3.146
16725W        W88396  39.312  21.828  11.824
16726W        W88397  16.157  35.366  11.726
16727W        W88398  40.964  34.423   3.751
16728W        W88399  42.772  42.520  14.458
16729W        W88400   9.498  25.402   0.450
16730W        W88401   7.792  44.320  14.509
16731W        W88402  33.131  24.078  14.240
16732W        W88403   1.432  25.719  13.987
16733W        W88404  10.397  13.359   4.223
16734W        W88405  20.684  22.042  11.743
16735W        W88406  33.601   8.332   2.258
16736W        W88407  39.948   8.137   1.724
16737W        W88408   0.792  11.534   3.217
16738W        W88409  21.495   8.678  11.025
16739W        W88410  15.920   6.810   1.964
16740W        W88411  37.064  33.125  11.081
16741W        W88412  19.982  11.371  13.960
16742W        W88413  31.917  22.729  13.907
16743W        W88414  38.519  25.994   1.238
16744W        W88415  35.111  29.371   0.723
16745W        W88416  15.833  36.520  11.124
16746W        W88417   3.764  12.712  11.866
16747W        W88418   7.946  36.817   1.432
16748W        W88419  30.120  13.633   1.605
16749W        W88420   9.747   1.475  11.970
16750W        W88421   9.028  40.254  10.834
16751W        W88422  11.411   3.306  14.878
16752W        W88423  40.413  14.610   0.308
16753W        W88424  15.201  19.810  14.278
16754W        W88425   5.860  39.872   4.031
16755W        W88426  30.195  18.368  12.660
16756W        W88427  10.823  10.356   0.413
16757W        W88428  17.117  30.346  13.382
16758W        W88429  20.306  41.033   1.369
16759W        W88430  34.823  31.932   3.743
16760W        W88431  20.792  15.226   4.589
16761W        W88432   6.897  17.422  11.630
16762W        W88433  38.694  38.094   1.815
16763W        W88434  38.749  41.865   3.658
16764W        W88435  32.954  11.868   2.718
16765W        W88436  44.959  26.562   1.863
16766W        W88437  44.049   1.404   3.349
16767W        W88438  38.545  26.823  10.616
16768W        W88439   3.850  26.237  14.859
16769W        W88440   9.244   3.195   0.939
16770W        W88441  29.054  32.067   4.676
16771W        W88442   0.235  20.756  10.337
16772W        W88443  29.410  19.803  10.743
16773W        W88444  24.110  11.239  13.775
16774W        W88445  17.700  26.234  10.979
16775W        W88446  38.077  18.150  10.684
16776W        W88447  39.404  36.297   1.848
16777W        W88448  27.090  41.384  14.458
16778W        W88449  20.554  14.837   3.270
16779W        W88450  28.969  17.195   2.216
16780W        W88451  25.175  17.216   1.319
16781W        W88452  22.653   6.190   2.730
16782W        W88453  41.995   4.269   1.934
16783W        W88454  35.340  43.869   0.393
16784W        W88455  43.367  33.493   0.835
16785W        W88456  22.026  40.300  10.676
16786W        W88457  17.609  12.606   3.379
16787W        W88458  29.243  31.890  11.543
16788W        W88459  33.221   9.668  12.574
16789W        W88460  27.872  15.035   4.650
16790W        W88461  25.628  37.639  11.298
16791W        W88462  21.756  31.992   0.697
16792W        W88463  14.717  33.816   2.267
16793W        W88464  23.808  44.870   1.858
16794W        W88465   0.534  30.994   4.304
16795W        W88466   7.959  39.784  14.408
16796W        W88467  28.837   6.923  13.666
16797W        W88468  44.877   2.385   0.351
16798W        W88469  12.775  24.451  13.471
16799W        W88470  44.955  39.667   1.898
16800W        W88471  33.779  44.718  12.142
16801W        W88472  37.227   2.212  10.541
16802W        W88473   0.985  38.956  13.094
16803W        W88474  29.120   1.691   2.802
16804W        W88475  22.642  42.197   2.827
16805W        W88476   3.273  37.602  10.286
16806W        W88477  23.729   4.191   4.653
16807W        W88478  14.577  10.834   3.356
16808W        W88479  15.137   4.461   2.804
16809W        W88480  28.208  44.679  13.611
16810W        W88481   4.904  11.159  13.309
16811W        W88482  39.957   4.012   0.410
16812W        W88483  42.497  39.859  13.589
16813W        W88484  31.089  29.557  13.752
16814W        W88485   2.891  25.595  13.988
16815W        W88486  11.978  13.827   2.307
16816W        W88487  38.467  13.821  13.815
16817W        W88488   5.920  23.316   2.248
16818W        W88489  20.123  41.871  11.918
16819W        W88490   9.897  32.931   0.456
16820W        W88491  18.886  11.173  10.712
16821W        W88492  38.803  33.122  11.916
16822W        W88493  44.532  26.563   4.260
16823W        W88494  21.197  29.753   1.735
16824W        W88495  31.139   0.204  14.770
16825W        W88496  40.719  15.364  11.179
16826W        W88497   6.377  34.416  14.293
16827W        W88498  33.500  36.074  12.940
16828W        W88499   4.130   9.877  10.602
16829W        W88500   5.482  11.932  13.062
16830W        W88501  31.692  32.011  10.951
16831W        W88502  18.192  37.305   3.157
16832W        W88503   6.234  24.763   1.804
16833W        W88504  25.064  33.009   2.755
16834W        W88505  11.732  19.592   1.377
16835W        W88506   7.509  35.160  12.794
16836W        W88507  31.410  12.764  10.760
16837W        W88508  18.124   8.480  13.107
16838W        W88509  16.040   4.853  10.863
16839W        W88510  34.603  34.306   4.366
16840W        W88511  37.867   9.729   0.829
16841W        W88512  16.638  32.579  12.411
16842W        W88513  28.004  34.495  10.630
16843W        W88514   4.362  17.699   4.583
16844W        W88515  15.337   0.925   2.810
16845W        W88516  17.261   7.368  10.844
16846W        W88517  34.019  22.282  11.103
16847W        W88518  27.516  40.422  12.485
16848W        W88519  31.417  37.139   2.638
16849W        W88520  42.214  18.292   2.720
16850W        W88521  31.445  18.490  10.734
16851W        W88522  26.956  42.480   0.857
16852W        W88523  36.799   9.748  14.217
16853W        W88524  42.844  39.777   2.181
16854W        W88525   7.537  25.042  11.063
16855W        W88526  32.099   1.890  11.014
16856W        W88527  26.913  27.938   2.487
16857W        W88528   8.403   7.649  14.425
16858W        W88529  21.181  33.359  11.537
16859W        W88530  25.481  30.602  12.260
16860W        W88531  25.717  23.198  12.888
16861W        W88532  34.070  36.997   4.187
16862W        W88533  36.044   4.056   3.216
16863W        W88534  41.416  15.378   4.704
16864W        W88535  21.555  15.662  12.779
16865W        W88536  42.353  35.961   2.232
16866W        W88537   3.783  20.132   0.439
16867W        W88538  28.010   0.524  12.087
16868W        W88539  13.611  14.224  11.946
16869W        W88540  12.592  36.625  11.228
16870W        W88541  43.911  33.559   3.917
16871W        W88542  32.380  37.631  14.786
16872W        W88543   2.119  10.449  14.381
16873W        W88544  21.773  34.619  14.406
16874W        W88545  11.827   6.218   4.579
16875W        W88546  18.445  25.624   3.361
16876W        W88547   7.888  41.242   1.388
16877W        W88548  44.887  43.088  13.039
16878W        W88549  18.342  43.510   2.986
16879W        W88550  22.546   1.462  13.026
16880W        W88551   4.280  17.783  12.035
16881W        W88552  37.142  32.198  13.533
16882W        W88553  10.679  38.080  13.872
16883W        W88554  23.592   2.694  11.139
16884W        W88555  31.057  29.143   1.735
16885W        W88556  39.712  26.070  13.449
16886W        W88557  29.731  14.052   1.822
16887W        W88558  12.060  38.407  14.495
16888W        W88559   7.377  22.310   4.600
16889W        W88560  30.029   3.926   0.467
16890W        W88561  36.423   2.436  11.920
16891W        W88562   1.240  41.586  12.900
16892W        W88563  39.875  31.123  12.417
16893W        W88564  43.146  17.177  13.751
16894W        W88565   7.678  28.683   2.103
16895W        W88566   9.876  25.465  10.723
16896W        W88567  10.159  21.026   4.087
16897W        W88568  21.141  31.636   3.845
16898W        W88569  33.510  43.133   3.644
16899W        W88570  24.462  11.646   0.867
16900W        W88571  29.469  21.080  12.754
16901W        W88572   8.892   3.211   2.177
16902W        W88573  32.185   6.321  10.497
16903W        W88574  39.470  33.129  12.932
16904W        W88575  32.512   3.062   0.829
16905W        W88576  14.166  32.615   3.660
16906W        W88577  34.997  44.543  10.738
16907W        W88578  27.021  28.982   4.450
16908W        W88579  41.573  13.722  12.664
16909W        W88580  11.837  11.672   1.337
16910W        W88581   1.961   7.937   0.774
16911W        W88582   6.738   3.366   5.269
16912W        W88583  37.541  16.262   4.649
16913W        W88584  35.987  17.177   2.867
16914W        W88585  24.270  13.125   3.311
16915W        W88586  19.605  14.261   4.542
16916W        W88587  22.660  29.564  13.342
16917W        W88588  28.183  40.635   1.381
16918W        W88589   2.522  14.843   0.512
16919W        W88590  41.540  16.014  13.013
16920W        W88591  23.992  15.618   4.329
16921W        W88592   9.722  24.459   0.475
16922W        W88593  24.000  37.972  11.576
16923W        W88594  42.971  14.578  14.390
16924W        W88595  26.015  33.867  12.371
16925W        W88596  19.276   7.746  12.054
16926W        W88597  22.173  21.746  13.328
16927W        W88598   2.891  19.023   0.059
16928W        W88599  34.007  30.437  11.525
16929W        W88600  39.516  13.327   1.697
16930W        W88601  28.703  10.368  11.607
16931W        W88602  23.863  42.559  12.978
16932W        W88603   8.235   9.813  10.703
16933W        W88604   6.253  25.558  12.102
16934W        W88605  17.510   0.832   2.735
16935W        W88606  30.712   4.180   3.082
16936W        W88607  31.889  31.568   3.379
16937W        W88608  30.717   1.056   4.141
16938W        W88609  14.534   4.433   1.695
16939W        W88610  30.683  43.328   4.639
16940W        W88611  27.462   3.296  11.143
16941W        W88612  38.791  39.301  12.215
16942W        W88613  24.967  32.583   3.129
16943W        W88614  29.119  10.871   1.352
16944W        W88615  40.968  12.833  12.067
16945W        W88616  15.347  35.192  12.020
16946W        W88617  37.508   0.355  12.066
16947W        W88618  15.457  18.777   3.708
16948W        W88619  35.802  37.035  14.502
16949W        W88620  10.143  28.538   3.778
16950W        W88621   8.808  14.380  12.432
16951W        W88622   8.849   1.557   2.783
16952W        W88623   7.147  10.247   1.238
16953W        W88624  11.871  36.072   2.803
16954W        W88625   9.897  27.222   2.650
16955W        W88626   6.928  36.819   3.678
16956W        W88627  24.578  35.869  12.951
16957W        W88628  38.961  32.719   3.748
16958W        W88629   8.251  26.009   4.062
16959W        W88630  42.876  15.082   1.739
16960W        W88631  29.400  27.208   4.733
16961W        W88632   3.161  11.787   3.201
16962W        W88633  18.240  37.886   4.870
16963W        W88634  13.207  10.897   4.917
16964W        W88635  10.620  39.893   1.322
16965W        W88636   6.139  42.463   4.180
16966W        W88637  25.887  41.228  12.412
16967W        W88638  44.859  30.634   0.684
16968W        W88639  29.086   2.404  13.575
16969W        W88640  36.965   3.271  10.676
16970W        W88641  32.337   9.327  10.805
16971W        W88642  42.453  35.385   1.535
16972W        W88643  15.119  22.748   0.945
16973W        W88644  28.285  21.915   1.819
16974W        W88645   7.354  33.229   1.270
16975W        W88646  41.831  36.024  10.671
16976W        W88647  23.212  14.535  10.673
16977W        W88648  13.242   1.967  13.422
16978W        W88649  22.196  40.200   2.104
16979W        W88650  36.924   0.219   1.140
16980W        W88651  27.722  13.586   0.285
16981W        W88652  13.750  33.834   2.284
16982W        W88653  12.122  21.534  12.655
16983W        W88654  33.161  34.591   4.955
16984W        W88655   7.874  28.392  11.301
16985W        W88656  13.743  34.367   3.568
16986W        W88657  10.555  44.332  10.105
16987W        W88658  35.324  33.079   2.006
16988W        W88659   6.229  25.308   3.607
16989W        W88660   2.759   0.080   3.177
16990W        W88661   6.917   0.196   2.164
16991W        W88662   4.376  16.303   4.075
16992W        W88663   0.809  10.949   0.897
16993W        W88664  32.187   1.861   3.231
16994W        W88665  33.666  38.995  11.039
16995W        W88666  37.791   0.210   1.445
16996W        W88667   6.660   8.077   1.372
16997W        W88668   8.223  24.825   0.674
16998W        W88669  27.401  24.168  13.254
16999W        W88670  35.016  14.395  13.654
17000W        W88671  31.086  34.522  10.646
17001W        W88672  23.067   6.519   0.299
17002W        W88673   6.321  10.711   3.962
17003W        W88674  29.192  40.560   0.295
17004W        W88675  29.156   0.438   1.878
17005W        W88676  28.035  30.188  13.359
17006W        W88677   9.285  14.304  13.521
17007W        W88678  35.697  21.319  12.949
17008W        W88679  14.708  35.840   2.367
17009W        W88680  41.716  11.612   4.500
17010W        W88681  24.136  30.507   3.603
17011W        W88682  30.560  39.251   3.253
17012W        W88683   9.865   4.453   3.735
17013W        W88684  21.945  41.366  14.961
17014W        W88685  33.713   9.744   2.283
17015W        W88686  39.911  34.178  14.858
17016W        W88687  38.567   0.316   1.387
17017W        W88688  24.147  28.321   5.177
17018W        W88689  43.898   1.922  13.545
17019W        W88690  10.349  26.067   3.889
17020W        W88691   4.650  43.423  12.443
17021W        W88692  27.152  31.548   2.419
17022W        W88693  18.082  44.056  10.760
17023W        W88694  26.169  41.981   4.156
17024W        W88695  30.495  33.379  14.152
17025W        W88696  38.718  15.208   0.353
17026W        W88697  18.818   0.477  14.524
17027W        W88698  30.571  21.115   4.241
17028W        W88699  24.487  31.852   1.252
17029W        W88700  24.889  37.469  10.807
17030W        W88701  25.786  35.338  13.392
17031W        W88702  42.523  11.861   1.786
17032W        W88703  28.591   6.887  10.076
17033W        W88704  29.525  28.962  14.480
17034W        W88705  26.632  35.572  13.778
17035W        W88706  24.785  32.098   3.275
17036W        W88707  36.452  37.633   1.555
17037W        W88708  28.848   1.710  13.875
17038W        W88709   3.901  39.395   4.097
17039W        W88710  33.445   7.958  13.453
17040W        W88711   6.554  19.333  11.651
17041W        W88712  40.079   1.380   4.824
17042W        W88713  19.718  17.322  12.009
17043W        W88714  32.657   2.058  12.082
17044W        W88715  21.283  23.578   0.962
17045W        W88716  30.933  27.055  10.700
17046W        W88717  30.989  18.295  12.308
17047W        W88718  14.486  25.199  11.113
17048W        W88719   6.199  26.618   0.911
17049W        W88720  28.212  30.824   3.175
17050W        W88721  36.377  27.049   1.023
17051W        W88722   7.961  39.448  12.588
17052W        W88723  42.581  11.039   3.405
17053W        W88724  18.197   9.355   4.269
17054W        W88725  21.061  36.799  14.786
17055W        W88726  19.125  38.326   0.203
17056W        W88727  17.610  27.633  12.059
17057W        W88728  29.540  31.144  14.341
17058W        W88729  43.800  39.629   4.559
17059W        W88730  19.625  15.351   1.731
17060W        W88731  42.437  18.746   1.184
17061W        W88732   7.962  43.585  13.839
17062W        W88733   2.558   4.197   0.316
17063W        W88734  43.290   0.231   3.642
17064W        W88735  23.322  26.404   2.925
17065W        W88736  39.275  41.793   1.331
17066W        W88737  37.431  31.218  13.297
17067W        W88738  18.451   0.676   3.620
17068W        W88739  24.188  10.265   1.385
17069W        W88740   9.858  33.106   1.347
17070W        W88741   8.939   4.963  14.667
17071W        W88742  31.581  34.403   2.714
17072W        W88743  25.164  25.872  14.184
17073W        W88744   7.379  31.062   1.957
17074W        W88745  36.932  10.336  12.485
17075W        W88746   5.219   7.763  10.749
17076W        W88747  32.626   6.285   2.108
17077W        W88748  23.217  41.262  11.679
17078W        W88749   9.921  12.088   2.725
17079W        W88750   2.812  28.719   0.012
17080W        W88751   3.261  20.289   0.334
17081W        W88752  39.160   4.942  13.973
17082W        W88753   0.920  13.902   0.340
17083W        W88754  14.564   7.881   3.645
17084W        W88755  10.988  28.367  13.318
17085W        W88756  23.612  32.517   1.894
17086W        W88757   4.339  37.556   4.244
17087W        W88758  40.540  22.012  11.705
17088W        W88759  24.518  43.392  11.169
17089W        W88760  14.375   0.241   2.262
17090W        W88761  12.695  17.405   4.340
17091W        W88762  11.902   1.342   3.112
17092W        W88763  44.967  21.218   1.248
17093W        W88764   8.856  24.244   1.883
17094W        W88765  36.531  25.045   2.232
17095W        W88766   0.401  43.390  14.532
17096W        W88767  33.679  44.405   4.110
17097W        W88768  10.138  33.543  14.418
17098W        W88769   8.690  19.959  12.396
17099W        W88770  14.495  36.447   5.125
17100W        W88771  11.566  25.098  14.025
17101W        W88772  24.503  38.066  11.480
17102W        W88773  42.677  22.682  13.933
17103W        W88774  35.355  10.959   4.619
17104W        W88775  28.503  18.705  13.826
17105W        W88776  35.388  17.348  11.001
17106W        W88777  31.898   6.106  12.827
17107W        W88778  44.207  29.092  14.294
17108W        W88779  17.077   9.825  13.851
17109W        W88780  17.271  22.498  13.408
17110W        W88781  27.557  23.867  10.680
17111W        W88782  32.145  12.146   2.386
17112W        W88783  41.347  38.597  14.092
17113W        W88784  40.929  18.113   4.378
17114W        W88785  32.578  30.048   0.268
17115W        W88786  33.576   4.033  13.123
17116W        W88787  13.153  32.131  11.112
17117W        W88788  24.887  42.575  14.858
17118W        W88789   4.914  18.583  10.636
17119W        W88790   6.123   9.324   3.321
17120W        W88791   0.993   5.754   1.300
17121W        W88792   3.369  24.172  11.651
17122W        W88793   1.132  31.031   1.395
17123W        W88794   7.048  27.612  12.816
17124W        W88795  39.842  17.677  10.686
17125W        W88796   8.684   7.256  12.596
17126W        W88797  18.113  37.353  10.437
17127W        W88798  10.389  25.908   2.593
17128W        W88799  17.582  39.934  13.524
17129W        W88800  40.566  17.853  12.219
17130W        W88801  11.867  28.643   4.309
17131W        W88802  17.054  34.189  13.012
17132W        W88803   2.364  23.987  13.424
17133W        W88804  25.761  28.006   0.913
17134W        W88805  37.987  20.017   0.453
17135W        W88806  22.798   7.865  10.960
17136W        W88807  16.385   3.925   0.857
17137W        W88808  17.841  19.432   1.819
17138W        W88809  24.940  23.149   3.201
17139W        W88810  34.458  15.515  14.237
17140W        W88811  38.407  36.006   4.153
17141W        W88812  41.164  27.161  11.202
17142W        W88813  22.008  37.647   1.744
17143W        W88814  41.394  37.130  11.937
17144W        W88815  28.000  29.514  11.859
17145W        W88816  28.112  27.673  11.912
17146W        W88817   5.139  14.859  13.532
17147W        W88818  20.663  37.294  14.933
17148W        W88819  10.600  35.137  11.863
17149W        W88820  13.598   3.735   1.404
17150W        W88821  23.477  44.355  10.970
17151W        W88822   4.990   1.925  11.960
17152W        W88823   2.206  37.521   2.255
17153W        W88824  16.115   8.266   1.974
17154W        W88825   7.289  14.799  13.237
17155W        W88826  40.775  10.821   1.889
17156W        W88827   4.783  29.848   3.206
17157W        W88828  21.033  15.613  12.269
17158W        W88829  27.506   9.654   0.243
17159W        W88830  27.073  12.420   4.565
17160W        W88831   1.894  42.678   4.648
17161W        W88832  38.496   2.734   2.451
17162W        W88833   3.732   8.390  14.538
17163W        W88834  28.235  12.163   3.761
17164W        W88835  27.710  38.345   0.391
17165W        W88836  39.622  24.957  12.996
17166W        W88837  17.085  22.377   1.812
17167W        W88838   6.189  40.412  14.601
17168W        W88839   8.227  17.305   4.496
17169W        W88840  34.387  44.164   3.076
17170W        W88841  19.183  35.209   0.279
17171W        W88842  31.418  36.954   0.930
17172W        W88843  13.363  43.377  14.855
17173W        W88844   3.699  43.915   0.322
17174W        W88845   9.868   4.966  12.053
17175W        W88846  10.488  36.677   5.119
17176W        W88847  22.783  21.195   1.854
17177W        W88848  25.380  43.367  14.080
17178W        W88849  23.734  25.953  13.378
17179W        W88850  22.043  22.415  14.877
17180W        W88851  28.603  41.463   4.608
17181W        W88852  32.207   6.789   2.142
17182W        W88853  37.918  10.155  14.824
17183W        W88854  21.855  23.694  10.161
17184W        W88855  33.992   7.799   4.784
17185W        W88856  40.269  22.056  12.206
17186W        W88857  33.566   7.394  11.597
17187W        W88858  30.272  16.158   0.202
17188W        W88859  38.033   5.286  12.607
17189W        W88860  17.324   5.152  14.838
17190W        W88861  27.232  17.463   1.771
17191W        W88862  12.412   4.687   0.402
17192W        W88863  28.924  44.750   1.916
17193W        W88864  34.577  25.497   0.086
17194W        W88865  22.083  13.743  13.742
17195W        W88866  31.476  21.991  10.631
17196W        W88867   5.716  21.474  10.430
17197W        W88868  24.357  42.660  12.845
17198W        W88869  24.720  24.982   2.852
17199W        W88870  24.699   6.212   1.720
17200W        W88871  26.962  23.975   1.643
17201W        W88872  15.069  25.143   4.178
17202W        W88873   5.962   4.857  13.143
17203W        W88874  44.351  28.181  10.777
17204W        W88875  21.030  42.940   0.005
17205W        W88876  42.410   0.869   1.321
17206W        W88877   6.529  32.107   1.914
17207W        W88878  11.097  26.618   2.905
17208W        W88879  41.362  16.637  12.545
17209W        W88880   1.771  18.641   3.311
17210W        W88881  12.199  16.351  13.243
17211W        W88882  19.052   8.565   0.891
17212W        W88883  16.325  11.699  12.163
17213W        W88884  43.962  12.455   3.744
17214W        W88885  28.071  35.414   1.026
17215W        W88886  18.810  23.022  13.806
17216W        W88887  36.605   5.338  13.299
17217W        W88888  37.259  34.700  12.803
17218W        W88889   8.522  10.282  10.725
17219W        W88890   6.906  29.562   1.490
17220W        W88891  22.387   1.927  11.592
17221W        W88892   3.515  35.520  11.182
17222W        W88893  19.541   0.722  11.986
17223W        W88894  40.292  16.355   4.170
17224W        W88895  32.501  13.406  10.939
17225W        W88896   8.762   1.717  10.993
17226W        W88897  27.120  36.751   2.834
17227W        W88898  38.411  44.683   0.778
17228W        W88899   9.171  35.954   4.167
17229W        W88900  19.630  18.315  14.508
17230W        W88901   8.419   3.460   4.634
17231W        W88902  19.956   9.836  12.858
17232W        W88903  33.911  36.165  11.190
17233W        W88904  29.594  15.233   2.219
17234W        W88905  32.189   6.911  13.992
17235W        W88906  23.089   6.496   2.639
17236W        W88907  29.132  34.609   4.155
17237W        W88908  33.313  19.515  10.023
17238W        W88909   0.209  20.003   3.278
17239W        W88910  10.083  22.117  12.078
17240W        W88911  40.277  31.315   0.881
17241W        W88912  33.786  25.306   4.160
17242W        W88913  39.902  42.494  13.693
17243W        W88914   9.654   6.897  12.863
17244W        W88915  24.509  27.082  11.401
17245W        W88916  26.077   9.248   4.625
17246W        W88917  36.874  33.925  12.539
17247W        W88918  30.950  43.282   3.114
17248W        W88919  16.053   5.316  10.648
17249W        W88920  18.305  14.312  13.015
17250W        W88921  25.633   3.852   0.929
17251W        W88922  16.310   1.243  14.859
17252W        W88923  39.092  25.259  14.857
17253W        W88924  11.310   1.416  13.767
17254W        W88925  40.284   8.212   2.280
17255W        W88926  26.731   7.368   3.766
17256W        W88927  21.557   4.466   2.935
17257W        W88928   9.772  10.995   1.666
17258W        W88929  21.245  30.211   1.161
17259W        W88930  18.735  23.943   3.178
17260W        W88931  19.502  24.690   4.213
17261W        W88932  42.283  29.472   1.178
17262W        W88933  21.192  38.527   4.792
17263W        W88934  35.744  43.503   2.127
17264W        W88935  17.752   6.451  13.996
17265W        W88936  25.689  15.658   0.394
17266W        W88937   3.342   7.301   2.194
17267W        W88938  14.867   5.892  11.990
17268W        W88939  13.719   8.655  13.074
17269W        W88940  37.555  42.807  12.122
17270W        W88941  36.352  43.292  14.866
17271W        W88942   3.928  43.209  13.898
17272W        W88943   1.117  21.730   4.527
17273W        W88944  31.603   3.932  13.333
17274W        W88945  17.609   6.896  11.521
17275W        W88946  22.585  43.385  10.711
17276W        W88947   2.743  35.359  13.972
17277W        W88948  11.838   3.169   3.115
17278W        W88949   3.062  34.889   3.261
17279W        W88950  28.533  27.667  11.594
17280W        W88951   7.810   9.632  12.117
17281W        W88952  12.141  23.560  11.164
17282W        W88953  42.710  43.832   1.932
17283W        W88954  11.906  37.933   0.540
17284W        W88955  21.310  29.303  13.050
17285W        W88956  19.606   5.826  11.986
17286W        W88957  18.662  11.097   4.645
17287W        W88958  37.789  28.946   3.674
17288W        W88959   6.480  21.943  10.934
17289W        W88960  22.968  28.291  11.456
17290W        W88961  31.950   8.194   4.604
17291W        W88962  17.048   6.593  11.438
17292W        W88963  40.966  42.862   4.571
17293W        W88964  16.896  16.618  11.057
17294W        W88965  43.276  19.207   4.198
17295W        W88966  27.057  10.384   0.378
17296W        W88967   5.372  28.451  13.107
17297W        W88968  29.074   5.344  11.974
17298W        W88969  42.391  31.640  13.163
17299W        W88970  28.488  10.156  10.280
17300W        W88971  30.724   0.822  14.263
17301W        W88972  25.566   9.834  11.526
17302W        W88973  40.590  30.263   2.647
17303W        W88974  17.733  25.909  10.591
17304W        W88975  43.054  18.290   0.675
17305W        W88976   6.175   9.805  14.047
17306W        W88977  22.938  42.077  13.565
17307W        W88978   9.611  27.813  14.263
17308W        W88979  16.158  21.718   2.242
17309W        W88980  16.349  22.996  11.950
17310W        W88981   9.839   7.087  11.251
17311W        W88982   2.741   0.332  14.434
17312W        W88983  30.172  41.900   1.071
17313W        W88984  34.360  36.467   2.350
17314W        W88985  14.169  33.112   3.766
17315W        W88986   5.313   1.503  11.992
17316W        W88987  18.079  43.541  10.778
17317W        W88988  35.386   1.751  11.423
17318W        W88989  14.653  26.171  13.260
17319W        W88990   4.262  31.900  12.707
17320W        W88991  16.323  18.446   2.201
17321W        W88992  35.067  28.959  13.013
17322W        W88993  18.145  30.916  10.504
17323W        W88994  42.230  24.292  13.513
17324W        W88995  32.468  24.707  13.036
17325W        W88996  21.448  28.355  11.516
17326W        W88997   5.375  16.387  14.834
17327W        W88998  39.475  42.451   2.710
17328W        W88999  32.304   8.766  11.240
17329W        W89000  18.579  44.631   2.366
17330W        W89001   8.163  33.169   3.219
17331W        W89002  10.361  38.395  13.614
17332W        W89003  11.347  39.775  11.913
17333W        W89004  27.495  39.978   4.715
17334W        W89005  42.841  34.293   3.174
17335W        W89006  43.939  24.127  14.734
17336W        W89007  38.478  34.558   1.298
17337W        W89008   9.265  35.620  11.374
17338W        W89009  33.314  27.806   4.424
17339W        W89010  16.883  13.257   1.308
17340W        W89011   4.093   8.058  14.319
17341W        W89012  15.112  43.707   2.720
17342W        W89013  19.189  27.120  14.541
17343W        W89014  26.100   4.400  13.247
17344W        W89015  12.574  25.594  13.427
17345W        W89016   0.361  33.687  12.596
17346W        W89017  18.681   2.433   3.202
17347W        W89018  35.980  25.586  11.184
17348W        W89019  18.575  31.901   3.605
17349W        W89020  33.680   5.529   4.654
17350W        W89021  23.209   7.539   1.142
17351W        W89022  34.677   7.422  10.847
17352W        W89023   7.270  34.830  11.152
17353W        W89024  43.922  19.574  10.678
17354W        W89025  20.233   8.063   0.299
17355W        W89026  29.227  24.450   2.835
17356W        W89027  39.071   9.857  12.936
17357W        W89028  37.151  20.671   4.138
17358W        W89029  18.290  35.249   2.800
17359W        W89030  38.914  42.359  10.302
17360W        W89031  41.950  25.968   1.858
17361W        W89032  24.613  21.500  11.485
17362W        W89033   5.871  27.603  14.197
17363W        W89034  34.591  39.888   3.775
17364W        W89035   3.129   2.519  12.436
17365W        W89036  38.504  13.638   2.425
17366W        W89037  19.999  13.861   1.797
17367W        W89038  18.145  19.619   2.388
17368W        W89039  15.405   4.114  12.104
17369W        W89040  44.014   1.184   0.402
17370W        W89041  21.314   1.954  10.352
17371W        W89042  11.678  23.930   3.793
17372W        W89043  37.047   7.596  11.841
17373W        W89044  30.515  27.280  11.973
17374W        W89045  40.166  29.537  11.700
17375W        W89046  18.012   7.790  10.896
17376W        W89047  33.536  39.028   3.752
17377W        W89048  26.919  30.923  11.973
17378W        W89049  38.936  14.575  11.773
17379W        W89050  29.304  42.397  12.390
17380W        W89051  18.683  38.210   4.915
17381W        W89052  24.584  29.174   4.768
17382W        W89053  41.329  30.149  12.955
17383W        W89054   8.321  41.406   1.720
17384W        W89055   1.313  26.446   2.339
17385W        W89056  21.763  23.124   1.887
17386W        W89057  38.459  41.416   3.333
17387W        W89058  18.108  11.252  14.232
17388W        W89059  35.026  29.616   4.846
17389W        W89060  42.856  41.428  10.626
17390W        W89061   9.253   9.356   4.609
17391W        W89062   2.311  26.667   3.286
17392W        W89063  39.642  32.896   4.132
17393W        W89064   3.328  12.477  11.660
17394W        W89065  32.645   4.948  10.122
17395W        W89066  19.069   0.764  11.713
17396W        W89067   1.161  34.097   4.137
17397W        W89068  22.492   2.908  14.773
17398W        W89069  16.797  28.999  13.733
17399W        W89070  15.003  29.606  10.346
17400W        W89071  36.169  22.667  14.879
17401W        W89072  21.767  29.051  13.046
17402W        W89073  34.833  14.421   1.159
17403W        W89074  29.138  41.411  10.488
17404W        W89075  36.764  31.941  12.622
17405W        W89076   5.380  34.510  13.517
17406W        W89077  13.395  24.736   1.876
17407W        W89078  14.096  41.972   5.142
17408W        W89079  19.578  28.524  14.880
17409W        W89080   5.765  40.443  14.290
17410W        W89081  15.637   3.862  12.542
17411W        W89082  11.169  44.965   3.121
17412W        W89083  37.049  43.674   2.229
17413W        W89084  24.244   4.261   1.834
17414W        W89085  20.340  36.516   0.570
17415W        W89086  21.089  19.389  11.324
17416W        W89087  12.137  24.528  10.630
17417W        W89088  12.904   4.723   3.195
17418W        W89089  35.609  17.669  14.853
17419W        W89090   9.152  33.221  14.956
17420W        W89091  24.572  44.264   1.936
17421W        W89092  14.750  28.885  12.402
17422W        W89093  21.185  10.519  11.975
17423W        W89094  42.955  37.567  13.515
17424W        W89095  32.924  44.485   3.930
17425W        W89096  35.528   2.902   3.717
17426W        W89097  32.533  27.675  14.323
17427W        W89098  24.397  24.130  10.875
17428W        W89099   2.265  15.229  12.065
17429W        W89100   4.765  41.798   3.196
17430W        W89101  12.392   8.385  12.096
17431W        W89102  42.216   3.994   0.311
17432W        W89103  32.431   0.059  12.316
17433W        W89104   6.345   9.418  11.865
17434W        W89105  17.152   8.943   1.569
17435W        W89106  31.894  27.711  12.213
17436W        W89107  26.639  19.011   4.818
17437W        W89108  15.139   4.070   5.047
17438W        W89109  19.480   8.844  12.378
17439W        W89110  16.143  16.682   3.641
17440W        W89111  24.994  24.196   3.307
17441W        W89112  10.657   6.164  11.690
17442W        W89113  44.770  23.949  10.758
17443W        W89114   8.608  25.047   1.242
17444W        W89115  32.207  36.418  10.519
17445W        W89116  17.145  17.051   5.179
17446W        W89117  30.487   5.480  12.436
17447W        W89118   1.301  27.370   0.308
17448W        W89119  25.725  42.762   2.728
17449W        W89120  42.469  16.715  12.028
17450W        W89121  38.205  28.500  12.637
17451W        W89122  13.155  12.791  11.646
17452W        W89123   7.104  20.014   0.866
17453W        W89124   6.250  40.354   3.568
17454W        W89125   1.537  40.519  14.389
17455W        W89126   1.827   0.465  11.669
17456W        W89127  14.277  34.543   1.978
17457W        W89128  15.527  19.063  11.633
17458W        W89129  14.119  22.783  14.189
17459W        W89130  26.635  34.077  11.207
17460W        W89131  32.028  37.520  11.413
17461W        W89132   6.110  44.465   2.178
17462W        W89133  27.494  10.075  13.353
17463W        W89134   7.990   7.755   2.338
17464W        W89135  39.447   9.407   2.355
17465W        W89136  17.579  16.635  13.513
17466W        W89137  24.134   0.830   0.669
17467W        W89138  21.731  28.991   2.149
17468W        W89139  41.862  44.050   4.462
17469W        W89140   3.889  25.485   1.303
17470W        W89141  14.030  27.422  11.078
17471W        W89142   6.507  41.313   0.759
17472W        W89143  13.314  18.524  12.478
17473W        W89144  38.458  34.515   4.189
17474W        W89145  27.040  17.005  11.467
17475W        W89146  24.006  13.229   4.482
17476W        W89147   2.444  21.130   3.655
17477W        W89148  37.475  29.164   4.617
17478W        W89149  32.025  17.335   3.087
17479W        W89150   4.608  44.903   0.540
17480W        W89151  38.076  21.354  13.863
17481W        W89152   8.730   3.058   0.910
17482W        W89153  17.879  28.614   0.406
17483W        W89154  29.340  42.885  12.034
17484W        W89155   8.318  14.579   0.312
17485W        W89156   5.719  36.303  14.231
17486W        W89157  26.891   3.281  10.268
17487W        W89158  20.751  32.572   4.603
17488W        W89159  25.694  37.142   3.486
17489W        W89160   4.856  21.300   1.267
17490W        W89161   1.948  22.579  13.556
17491W        W89162   1.321  15.876   3.372
17492W        W89163  35.069  32.152   2.380
17493W        W89164  44.597  15.361  14.201
17494W        W89165  20.257  31.195   0.778
17495W        W89166   1.768  40.494   2.095
17496W        W89167  13.124  37.715  13.963
17497W        W89168  12.367  34.130   2.304
17498W        W89169  37.297  30.076  14.403
17499W        W89170   4.845   2.934  10.790
17500W        W89171  30.642  37.674  12.659
17501W        W89172   7.727  22.308   1.388
17502W        W89173  13.626  26.730   1.939
17503W        W89174  28.639  20.146  13.610
17504W        W89175  34.309   0.426   1.793
17505W        W89176  28.568  16.309   1.458
17506W        W89177  31.850  10.455   1.310
17507W        W89178  22.745  35.220  11.001
17508W        W89179  36.162  15.840  11.681
17509W        W89180  10.224  43.332   4.107
17510W        W89181  43.031  30.375   4.381
17511W        W89182   9.013  44.525   4.986
17512W        W89183  27.115  39.015  10.339
17513W        W89184   6.859  16.094   3.197
17514W        W89185  26.601  42.901   2.372
17515W        W89186  16.183  30.926   1.097
17516W        W89187  31.374  25.205  13.506
17517W        W89188  17.389  32.544   3.655
17518W        W89189  39.950  43.281  13.930
17519W        W89190  20.027  18.142   3.718
17520W        W89191  39.317  14.212   0.038
17521W        W89192  14.960  23.221  11.165
17522W        W89193  23.464  39.601   3.251
17523W        W89194  36.265   7.266   0.479
17524W        W89195   0.364  29.935   4.337
17525W        W89196  33.165  12.133  13.365
17526W        W89197  24.938  24.103  10.915
17527W        W89198  35.037  15.761   1.002
17528W        W89199  27.391  12.483   4.989
17529W        W89200  22.503  27.557   3.245
17530W        W89201  30.539  31.388  12.588
17531W        W89202  34.567   9.776   3.706
17532W        W89203  27.075  40.879  12.377
17533W        W89204   9.885  14.325  11.800
17534W        W89205   6.904  39.277  14.016
17535W        W89206  42.846  22.502  14.419
17536W        W89207  29.668   9.789  13.125
17537W        W89208  39.450  40.127  11.643
17538W        W89209  37.841  18.237   1.241
17539W        W89210   9.690  19.044  14.073
17540W        W89211  42.572   9.893   4.513
17541W        W89212  40.405  10.163   2.330
17542W        W89213  22.641  43.362   2.811
17543W        W89214  16.616  38.088   4.878
17544W        W89215  24.723  36.428  11.190
17545W        W89216  42.304  16.502  14.281
17546W        W89217  29.446  33.076  12.549
17547W        W89218  13.132  13.128  14.082
17548W        W89219  35.684  34.981   2.368
17549W        W89220  38.545  12.193  10.921
17550W        W89221   2.413  36.595   2.682
17551W        W89222  36.208  17.253  11.639
17552W        W89223  35.787  43.327  10.750
17553W        W89224  34.802  39.511  11.481
17554W        W89225  14.859   9.076  12.527
17555W        W89226  12.376  31.914  12.586
17556W        W89227   3.479  16.425   0.501
17557W        W89228   8.867  42.561  12.376
17558W        W89229   9.324  17.913   1.199
17559W        W89230  38.147  12.127   1.434
17560W        W89231  22.753  39.022   4.324
17561W        W89232  14.793  14.589   3.597
17562W        W89233   9.259  25.069  11.151
17563W        W89234  26.506  40.337   1.679
17564W        W89235  24.999   1.785  13.887
17565W        W89236  20.217  35.205  11.408
17566W        W89237  43.961  33.932  13.464
17567W        W89238  37.500  36.718  14.689
17568W        W89239  16.233  28.554   4.584
17569W        W89240  33.096  15.194   4.766
17570W        W89241  35.676   0.941   0.108
17571W        W89242  37.809   3.372   0.381
17572W        W89243  17.625  10.094   1.034
17573W        W89244  30.928  32.912   0.175
17574W        W89245  22.148  14.364   1.511
17575W        W89246  10.594  13.746   1.609
17576W        W89247  11.594  19.281   3.230
17577W        W89248   7.533  29.187   2.162
17578W        W89249  34.086  28.369   1.388
17579W        W89250   8.390   4.474   4.401
17580W        W89251  30.046   9.757   3.261
17581W        W89252  31.881  23.149  10.592
17582W        W89253  24.091  15.556  12.646
17583W        W89254  36.316   6.747   3.631
17584W        W89255  38.932  29.433   3.751
17585W        W89256   2.017  27.903  12.803
17586W        W89257  10.875  40.459   1.307
17587W        W89258  25.966  37.896   2.570
17588W        W89259  29.084   1.175   2.676
17589W        W89260  40.346  26.388  11.018
17590W        W89261  19.816  43.538   2.424
17591W        W89262  15.956  37.850   3.801
17592W        W89263  14.919   8.277   2.816
17593W        W89264  16.751  26.242   2.201
17594W        W89265   3.946  42.025   0.395
17595W        W89266  32.311  36.057  11.903
17596W        W89267  21.653  25.645   2.605
17597W        W89268   8.173  38.410  14.576
17598W        W89269  32.226  17.570   0.538
17599W        W89270  37.772  14.804   4.273
17600W        W89271  16.881  17.629  12.040
17601W        W89272  35.569   0.645  12.297
17602W        W89273  29.327  16.228  11.158
17603W        W89274  21.579  34.963  14.789
17604W        W89275  33.539  18.760   1.668
17605W        W89276  17.177  25.970  10.952
17606W        W89277   3.312  25.912  11.818
17607W        W89278  29.518  35.774  13.393
17608W        W89279  44.906  34.654  11.575
17609W        W89280  33.481  23.675  13.055
17610W        W89281  37.727  39.283  14.388
17611W        W89282  12.156  23.582   3.774
17612W        W89283  37.077  13.608   4.543
17613W        W89284  32.951  35.524  12.293
17614W        W89285  37.168  32.655   2.844
17615W        W89286   0.773  22.219   0.494
17616W        W89287  24.164   4.982  10.669
17617W        W89288  21.805  39.435   4.974
17618W        W89289  10.245  37.861  10.991
17619W        W89290  37.034  24.963   4.488
17620W        W89291  17.681  40.352   4.980
17621W        W89292  44.401  28.361   1.007
17622W        W89293   8.297  15.743  14.997
17623W        W89294   4.864  33.369   0.202
17624W        W89295  36.216  15.590   3.676
17625W        W89296  11.290  39.114   4.571
17626W        W89297  16.455   0.543  14.526
17627W        W89298  12.311  15.172   4.629
17628W        W89299  35.321  37.084  14.222
17629W        W89300  22.733   2.431  10.767
17630W        W89301   5.358  17.048  11.100
17631W        W89302  12.334  10.818  12.223
17632W        W89303  11.272  26.033   1.731
17633W        W89304  16.052   6.271  12.543
17634W        W89305  39.150  37.496   1.272
17635W        W89306  30.652  27.517  14.263
17636W        W89307  42.040  41.265  11.630
17637W        W89308  33.595  17.774  14.005
17638W        W89309   3.226  27.914   2.988
17639W        W89310  20.917  12.687   1.820
17640W        W89311  43.687  19.397   0.833
17641W        W89312  37.871   6.499   4.697
17642W        W89313  34.609  13.360  14.860
17643W        W89314  25.808  23.254  11.079
17644W        W89315  16.517   2.527   0.382
17645W        W89316  37.380  22.226   3.257
17646W        W89317  20.750  30.025  12.015
17647W        W89318   4.422  19.069   3.574
17648W        W89319   2.771  25.172   3.702
17649W        W89320   9.606  40.939  11.039
17650W        W89321  44.802   0.635  12.030
17651W        W89322  31.954  21.787   0.855
17652W        W89323  29.974   7.451   1.878
17653W        W89324  25.462  29.021   1.716
17654W        W89325  11.186  17.404  12.472
17655W        W89326  27.221  35.915   0.070
17656W        W89327   8.761  29.476   5.010
17657W        W89328  22.316  43.693   1.075
17658W        W89329  27.527   2.368  11.084
17659W        W89330  30.082  11.528   1.915
17660W        W89331  16.156  11.232  14.380
17661W        W89332  15.329   0.533  11.656
17662W        W89333  42.743  23.799  14.821
17663W        W89334  31.011   0.208  13.412
17664W        W89335  41.462  15.836   0.902
17665W        W89336  20.800  15.245   1.253
17666W        W89337  26.324  24.045  11.483
17667W        W89338  26.642  18.558   1.003
17668W        W89339  20.031  13.291  12.445
17669W        W89340   7.883  26.512   3.246
17670W        W89341  37.038   9.443  11.496
17671W        W89342  33.385  34.536  13.120
17672W        W89343  44.338  14.750   1.678
17673W        W89344  18.145  37.405   1.348
17674W        W89345   8.331  33.401  10.728
17675W        W89346  25.608  41.292  13.444
17676W        W89347  22.189  18.220   3.328
17677W        W89348   2.756  21.085  14.922
17678W        W89349  14.812  41.787   4.936
17679W        W89350  39.067  30.410   0.822
17680W        W89351  29.384  14.751   1.954
17681W        W89352  43.605  44.700  13.604
17682W        W89353  28.144  25.972   3.136
17683W        W89354  24.474  30.711   3.264
17684W        W89355   3.585  20.930  13.280
17685W        W89356  31.578  10.419   4.521
17686W        W89357  29.626  25.156  14.806
17687W        W89358  12.623  17.076  12.882
17688W        W89359  36.011  39.212   9.539
17689W        W89360   2.856   1.663   4.579
17690W        W89361  18.484  10.972   0.862
17691W        W89362   3.361   7.783  11.885
17692W        W89363  10.790  44.122   2.536
17693W        W89364  41.925  30.934   0.499
17694W        W89365  20.550  40.412  13.910
17695W        W89366   2.927   2.105   4.086
17696W        W89367  31.708  35.946  14.976
17697W        W89368  13.050  28.427  12.437
17698W        W89369   6.289  15.048   0.458
17699W        W89370  30.619  42.312  13.550
17700W        W89371  36.966   9.401   0.369
17701W        W89372  22.632  20.272   1.310
17702W        W89373  31.158  42.885   9.741
17703W        W89374  12.242  17.576   4.153
17704W        W89375  37.767   2.619  10.643
17705W        W89376   0.179  40.895  10.370
17706W        W89377  16.390   4.461   4.119
17707W        W89378  20.301   1.390   0.201
17708W        W89379  17.283   8.688  11.465
17709W        W89380  33.489  19.640  11.995
17710W        W89381  20.425  26.760   4.610
17711W        W89382  37.884  13.613   2.781
17712W        W89383  11.938  23.120   4.688
17713W        W89384  13.336   0.805  10.692
17714W        W89385  21.091  21.029   2.182
17715W        W89386  22.326  29.100   4.347
17716W        W89387  33.913  36.387   0.444
17717W        W89388  14.703   2.737   2.586
17718W        W89389  42.362  29.974  14.932
17719W        W89390  19.014  11.726   2.821
17720W        W89391  31.431  42.527   2.723
17721W        W89392  30.022  22.946   3.115
17722W        W89393  12.684   7.865  14.300
17723W        W89394  35.377  32.342   3.219
17724W        W89395  23.950  17.831   2.724
17725W        W89396  37.174  15.913  14.941
17726W        W89397  38.001  13.027  13.988
17727W        W89398  26.940  38.347  13.531
17728W        W89399  18.224  19.483  12.561
17729W        W89400  33.920   9.317   3.991
17730W        W89401  23.836  29.081   2.395
17731W        W89402   2.889  30.533  11.221
17732W        W89403  10.112   6.202  12.511
17733W        W89404  36.194  22.114   1.893
17734W        W89405  23.800  18.107   1.844
17735W        W89406  15.510   9.838   1.423
17736W        W89407  10.303  39.727   4.630
17737W        W89408  44.986  10.195   3.122
17738W        W89409   6.361  12.125   3.577
17739W        W89410  25.789  16.322  12.909
17740W        W89411   6.139  33.519   1.739
17741W        W89412   2.902  43.498   3.350
17742W        W89413  11.183  28.615   0.451
17743W        W89414  14.263  18.549   0.882
17744W        W89415  14.395   2.266  10.609
17745W        W89416   5.959  40.967   3.145
17746W        W89417  16.753   9.234   1.804
17747W        W89418  23.259  27.190   3.255
17748W        W89419  30.953  20.706   0.886
17749W        W89420   3.404  43.292   3.128
17750W        W89421   4.377  22.640  13.291
17751W        W89422  20.263  17.451  13.079
17752W        W89423  10.865   9.821  14.753
17753W        W89424  34.340  33.430   3.298
17754W        W89425  33.991   3.974  13.505
17755W        W89426  27.247   5.823  12.384
17756W        W89427   4.740  25.730  10.545
17757W        W89428  43.786  33.654   0.311
17758W        W89429  35.691  22.534  13.541
17759W        W89430  13.608  40.867  12.132
17760W        W89431  41.910  34.998   0.412
17761W        W89432  11.152   6.443  13.401
17762W        W89433  18.967   3.602   1.692
17763W        W89434  39.102   2.962  14.667
17764W        W89435  16.122  12.824  11.315
17765W        W89436  38.292  29.080  11.519
17766W        W89437  43.599   6.735  10.962
17767W        W89438  20.616   5.311   4.726
17768W        W89439  14.366  22.600  10.708
17769W        W89440   3.810  30.932   3.706
17770W        W89441  25.928  42.743   3.222
17771W        W89442   9.788  36.652   3.767
17772W        W89443   9.877   1.900  11.202
17773W        W89444  10.231  21.884  11.150
17774W        W89445  32.083  40.453   2.309
17775W        W89446  19.089  14.186  11.712
17776W        W89447   7.363  19.708   1.853
17777W        W89448  29.494  15.874  13.048
17778W        W89449  41.916   9.778   0.685
17779W        W89450  29.354  36.168   1.211
17780W        W89451  27.773  27.332   0.839
17781W        W89452  31.482  31.047   2.102
17782W        W89453  17.070  42.768   4.063
17783W        W89454  27.647  21.544   4.685
17784W        W89455  32.837   3.057   0.365
17785W        W89456  25.698  17.758  11.819
17786W        W89457  13.795   0.423   2.200
17787W        W89458   5.913   9.793   3.104
17788W        W89459  36.574   9.665  13.304
17789W        W89460  27.022   9.553   3.201
17790W        W89461  41.248  32.067  11.508
17791W        W89462  23.544  22.820  14.346
17792W        W89463  14.834  40.772  11.495
17793W        W89464   1.753  23.150   4.678
17794W        W89465  17.532  25.105  14.931
17795W        W89466  36.844   4.356  10.792
17796W        W89467  25.515   5.826  13.852
17797W        W89468  23.566  42.951  13.131
17798W        W89469  31.945  26.280  14.397
17799W        W89470  37.454   2.777  12.792
17800W        W89471  27.234  29.126  10.836
17801W        W89472  38.312  34.793   0.860
17802W        W89473  34.530  33.076   1.785
17803W        W89474  31.076  18.820   4.380
17804W        W89475  44.591  34.775  11.152
17805W        W89476   6.283  41.841  12.293
17806W        W89477   2.488  36.907   4.191
17807W        W89478  19.177  10.708  13.957
17808W        W89479  41.505  39.417   9.620
17809W        W89480  30.123  10.291  13.612
17810W        W89481  41.468   0.015   1.726
17811W        W89482  20.245  40.586   0.863
17812W        W89483  42.617  24.043   2.705
17813W        W89484   5.921  30.830  12.442
17814W        W89485  20.034  19.857   1.381
17815W        W89486   4.425  23.107   1.352
17816W        W89487  22.231  33.423  11.597
17817W        W89488  20.387  43.773  12.629
17818W        W89489  23.246  42.798  11.060
17819W        W89490  11.679  37.175  13.527
17820W        W89491  15.890  15.806  11.949
17821W        W89492  38.971  19.426   2.226
17822W        W89493   4.819  13.102   0.699
17823W        W89494  28.563  29.654  11.514
17824W        W89495  28.571   8.903   1.338
17825W        W89496  36.009   2.293   1.326
17826W        W89497  12.329  34.061   4.548
17827W        W89498  28.032  20.462  10.581
17828W        W89499   3.354  25.453  12.000
17829W        W89500  44.373  11.614   4.112
17830W        W89501  15.094  11.628  11.950
17831W        W89502  10.418  32.583  12.052
17832W        W89503   7.427  19.689   4.484
17833W        W89504  41.001  12.703   2.603
17834W        W89505  34.255  19.003  12.616
17835W        W89506  20.137  36.663  12.819
17836W        W89507  12.796  37.000   4.540
17837W        W89508  19.716  26.141  13.591
17838W        W89509  12.074  11.756   4.570
17839W        W89510  28.039  13.684  13.488
17840W        W89511  40.403   9.507  11.903
17841W        W89512  39.903  19.326   5.363
17842W        W89513  32.004  19.042   3.750
17843W        W89514  11.573  12.674  10.763
17844W        W89515  32.715  21.333   3.702
17845W        W89516  16.308  31.940   2.768
17846W        W89517  19.163   4.454  14.335
17847W        W89518  31.996  13.502   0.811
17848W        W89519  21.684   6.615   2.651
17849W        W89520  40.983  31.229  13.769
17850W        W89521   8.174  16.811  12.984
17851W        W89522  37.569  21.241  11.412
17852W        W89523  11.690   0.954  10.135
17853W        W89524   4.223  15.719  11.630
17854W        W89525  30.249  35.589   1.367
17855W        W89526  15.913   9.715   0.869
17856W        W89527  31.623  40.881   0.196
17857W        W89528  38.309   8.087   3.657
17858W        W89529  22.695  29.887   3.659
17859W        W89530   8.442  37.481   1.539
17860W        W89531  32.982  28.208  14.061
17861W        W89532  15.104  19.638   0.688
17862W        W89533  18.479  14.665  12.330
17863W        W89534  28.379  30.138  12.980
17864W        W89535  22.503  17.656   4.104
17865W        W89536  31.409  15.115   1.885
17866W        W89537  12.519  43.154   3.435
17867W        W89538  38.811  16.763   4.895
17868W        W89539  12.270  16.713   1.733
17869W        W89540  35.219  39.861  10.870
17870W        W89541  32.854  36.430  11.393
17871W        W89542  15.768  37.776  12.489
17872W        W89543  11.400   5.211   1.301
17873W        W89544  25.504  13.855   1.962
17874W        W89545  27.588  15.223   1.665
17875W        W89546  34.546  42.245  11.379
17876W        W89547   7.732  39.714   3.671
17877W        W89548  42.131  33.548   1.288
17878W        W89549   4.569  38.464   1.447
17879W        W89550  22.578  24.242  14.896
17880W        W89551  14.107  13.151  13.893
17881W        W89552   7.356  29.518   2.855
17882W        W89553   1.547   4.313   0.666
17883W        W89554   5.379  10.199   1.705
17884W        W89555  37.577  27.060   3.907
17885W        W89556  37.305  38.318  10.241
17886W        W89557  33.005  37.649   1.766
17887W        W89558  44.154  12.420  10.698
17888W        W89559  22.663  31.013  12.481
17889W        W89560  34.072  37.581  14.945
17890W        W89561  40.995  20.432  14.080
17891W        W89562  41.590  22.252   2.782
17892W        W89563  40.341  18.329   3.641
17893W        W89564  40.783  30.148  12.934
17894W        W89565  26.020  16.760   0.825
17895W        W89566   5.884  18.083   3.657
17896W        W89567   8.782   6.719  14.725
17897W        W89568  23.168  27.001   0.964
17898W        W89569  27.611   1.251   0.911
17899W        W89570   4.818   9.135  12.969
17900W        W89571  32.214   0.024  13.158
17901W        W89572   5.486  27.590   2.895
17902W        W89573  19.538  23.544   2.899
17903W        W89574  35.565  29.271   0.495
17904W        W89575   8.067   6.146  12.614
17905W        W89576   7.297  18.374  12.982
17906W        W89577  13.859   5.491   4.954
17907W        W89578  39.332   8.369  13.838
17908W        W89579  39.946  23.443  10.774
17909W        W89580  39.454  21.698   1.458
17910W        W89581  31.910  14.249   3.646
17911W        W89582  43.946   5.700  13.402
17912W        W89583  30.005  10.215   4.504
17913W        W89584   3.314  23.415  12.167
17914W        W89585  32.876  43.377   2.640
17915W        W89586  39.599  33.139  12.418
17916W        W89587   6.893  13.637   1.806
17917W        W89588  39.287   7.300  12.119
17918W        W89589  25.849  10.400  10.700
17919W        W89590  36.113  30.636  13.162
17920W        W89591  32.113  41.944   3.204
17921W        W89592  31.929  35.537   4.766
17922W        W89593   0.528  12.143  14.949
17923W        W89594   1.492  25.468   4.581
17924W        W89595  34.416   1.298   2.303
17925W        W89596  42.460  31.982  12.539
17926W        W89597  10.016  27.178  13.808
17927W        W89598  15.222   0.476   1.260
17928W        W89599  41.526  35.943  14.822
17929W        W89600   1.370  42.075  11.986
17930W        W89601  14.091  30.550   0.084
17931W        W89602  16.815  19.750  10.694
17932W        W89603  15.886   7.644   1.185
17933W        W89604  43.802   1.760   1.810
17934W        W89605   8.118  18.613   1.871
17935W        W89606  19.971  28.428  11.065
17936W        W89607   2.082  37.971  10.744
17937W        W89608   5.409  11.417   0.495
17938W        W89609  29.967  10.515   0.391
17939W        W89610  19.345  42.194   0.905
17940W        W89611  16.390  37.068  14.804
17941W        W89612   6.613   8.985  12.001
17942W        W89613  35.375  30.991   4.518
17943W        W89614  43.420   3.642  12.365
17944W        W89615  17.108  43.362   1.865
17945W        W89616  11.292  41.341  12.892
17946W        W89617  27.149  31.395   3.304
17947W        W89618  17.152  22.069   3.818
17948W        W89619  36.223  18.204   3.793
17949W        W89620   0.791   8.865  11.531
17950W        W89621   9.661  40.809  14.396
17951W        W89622  37.341   4.599  13.284
17952W        W89623  37.411  29.323   3.718
17953W        W89624  30.395   0.095   4.164
17954W        W89625  32.575   0.546  12.318
17955W        W89626  19.350   3.939   4.932
17956W        W89627  22.839  26.345   2.761
17957W        W89628  32.059  23.271   4.624
17958W        W89629  28.665  24.861   2.705
17959W        W89630   4.397  28.031   3.851
17960W        W89631  38.317  23.674   2.693
17961W        W89632  16.703  16.775  14.318
17962W        W89633  21.486  24.498  10.656
17963W        W89634  15.543   9.099   4.225
17964W        W89635   5.873  14.341  13.833
17965W        W89636  42.687   5.240   3.313
17966W        W89637   6.818   5.226   2.581
17967W        W89638   5.786  43.269   2.391
17968W        W89639  19.522  42.754  14.805
17969W        W89640  37.905  17.265   3.553
17970W        W89641  29.529  32.964   1.378
17971W        W89642  41.057   8.159   0.874
17972W        W89643  10.634   2.175  12.982
17973W        W89644  28.537  21.597   0.824
17974W        W89645   1.138   0.894  11.206
17975W        W89646  33.457   9.164  12.515
17976W        W89647  21.512  21.902   3.254
17977W        W89648  36.597  28.024   4.538
17978W        W89649  16.789  16.521  14.767
17979W        W89650  27.565  33.655  14.823
17980W        W89651  38.940  31.198  11.074
17981W        W89652   1.405  18.665  13.483
17982W        W89653  23.251  12.738   1.290
17983W        W89654  10.786  13.794  14.301
17984W        W89655   9.355  39.362   3.707
17985W        W89656   9.233  17.938   2.923
17986W        W89657  13.105  10.712  10.462
17987W        W89658  16.586  37.967   4.372
17988W        W89659  28.455   5.869  10.331
17989W        W89660  36.649  44.917  12.837
17990W        W89661  42.974  40.490  10.318
17991W        W89662   3.251  36.367  10.703
17992W        W89663  35.529   0.042   3.723
17993W        W89664  16.334  22.997  12.470
17994W        W89665   4.801  40.302  13.432
17995W        W89666  20.595  13.073  12.198
17996W        W89667  17.843  36.630   4.187
17997W        W89668   7.074  25.745   1.459
17998W        W89669  22.467   9.316  10.603
17999W        W89670   4.952  40.912   3.007
18000W        W89671  28.702  31.945   0.233
18001W        W89672  21.099   3.916  14.446
18002W        W89673   2.019  37.350  12.879
18003W        W89674  27.937   8.413  12.804
18004W        W89675  24.592   8.272  13.019
18005W        W89676  41.624  33.360   3.356
18006W        W89677  36.393  19.229  11.528
18007W        W89678  32.942  21.736  13.965
18008W        W89679   1.779  37.444   4.408
18009W        W89680  28.713  39.097  10.167
18010W        W89681   5.153  34.292   2.401
18011W        W89682  26.728  22.507   0.742
18012W        W89683   4.736   4.422   3.708
18013W        W89684  41.529  11.541  12.071
18014W        W89685  38.983  11.052   0.345
18015W        W89686  25.049  20.100  10.758
18016W        W89687   8.119   8.249  12.119
18017W        W89688  38.083  32.448   2.029
18018W        W89689  43.064  26.213   3.465
18019W        W89690  28.949   7.227   3.775
18020W        W89691  13.499  42.915  14.674
18021W        W89692  29.088  44.941  13.801
18022W        W89693  37.918  43.524  12.447
18023W        W89694  11.713   7.992  12.526
18024W        W89695  12.031  14.045   0.669
18025W        W89696  26.785  32.909   1.994
18026W        W89697   0.504  21.087   1.046
18027W        W89698  25.609  41.307   4.258
18028W        W89699  34.426  41.170   4.153
18029W        W89700  18.017  36.323   1.126
18030W        W89701  31.475  28.056   0.836
18031W        W89702  38.297  32.940  11.934
18032W        W89703  11.260   5.653   3.204
18033W        W89704  35.978  17.727   3.768
18034W        W89705  20.272  42.357   1.415
18035W        W89706  26.979  40.067  13.033
18036W        W89707  33.599   0.340  13.604
18037W        W89708  17.744  43.037  12.495
18038W        W89709  38.457  21.777   1.352
18039W        W89710   8.801  41.536   0.933
18040W        W89711  11.717  41.580   3.174
18041W        W89712  35.623  42.487   0.139
18042W        W89713   4.820  31.160   1.797
18043W        W89714   3.346  21.540   0.329
18044W        W89715  18.186  23.564  10.728
18045W        W89716  25.136  32.918  12.670
18046W        W89717  16.275   0.980   0.325
18047W        W89718  31.396  14.588   1.765
18048W        W89719  21.219   9.415   0.783
18049W        W89720  32.852  39.583   3.968
18050W        W89721  40.362  44.419   5.380
18051W        W89722   6.087  36.544  10.453
18052W        W89723  17.801  21.500   0.070
18053W        W89724  35.026  19.393  12.943
18054W        W89725  37.061  19.338   3.109
18055W        W89726  10.081  24.680   3.186
18056W        W89727  21.328  34.161  14.775
18057W        W89728  31.397  18.087   3.338
18058W        W89729   5.322  31.892  12.095
18059W        W89730  23.885  10.137   2.827
18060W        W89731   1.178  30.438   4.258
18061W        W89732   1.297   8.761  10.828
18062W        W89733  38.494  39.760  11.603
18063W        W89734  21.069  12.054  12.972
18064W        W89735  34.291   7.347  13.585
18065W        W89736  42.031   6.776  11.976
18066W        W89737  17.120  39.815  13.269
18067W        W89738  27.912   9.612   3.702
18068W        W89739   8.380  14.047   3.808
18069W        W89740   7.225   0.482  12.553
18070W        W89741  10.340  36.527   4.102
18071W        W89742   6.651  36.679  13.160
18072W        W89743   9.148  24.979   1.319
18073W        W89744   3.203   9.397   2.244
18074W        W89745  36.020  42.350   0.424
18075W        W89746   8.921  33.103  13.231
18076W        W89747  28.243  14.029   2.105
18077W        W89748  25.504  27.672  12.009
18078W        W89749   1.011   5.749   1.817
18079W        W89750  23.064  31.607  12.379
18080W        W89751  25.693  19.860  12.196
18081W        W89752  25.185   1.713  14.362
18082W        W89753  17.151  39.520  14.425
18083W        W89754   5.830  36.834  14.293
18084W        W89755  17.126   2.790  12.533
18085W        W89756  29.520  39.576  12.044
18086W        W89757  41.889  15.693   2.194
18087W        W89758  31.504  37.422   4.485
18088W        W89759  41.736  17.856  12.449
18089W        W89760  25.978  31.359   4.206
18090W        W89761  28.674  18.465  13.414
18091W        W89762  31.948  15.251  11.720
18092W        W89763  17.998  17.750  12.851
18093W        W89764  22.802  17.999  13.817
18094W        W89765  39.064   3.529   2.761
18095W        W89766  19.006  17.460  13.077
18096W        W89767  32.134  13.280   2.275
18097W        W89768  32.698  17.198  14.895
18098W        W89769   7.125  26.754  12.393
18099W        W89770  34.496  42.880   2.728
18100W        W89771   8.153   5.413  14.867
18101W        W89772  30.927  24.137  12.404
18102W        W89773  35.157  35.547   2.864
18103W        W89774  37.080  41.939  14.358
18104W        W89775   8.830   1.040   2.805
18105W        W89776  28.089  28.056  12.807
18106W        W89777  23.968   8.125  13.828
18107W        W89778   4.812  14.675  12.545
18108W        W89779  20.382  31.465   3.137
18109W        W89780   1.553   5.847  11.055
18110W        W89781  16.948  16.664  11.971
18111W        W89782   7.168  24.257   3.783
18112W        W89783  19.610  10.654   1.435
18113W        W89784  38.918  37.340  12.868
18114W        W89785  43.910  35.123   4.136
18115W        W89786  12.090  40.408   2.778
18116W        W89787  41.046  32.137  11.046
18117W        W89788  30.777  21.790   4.045
18118W        W89789  37.430  10.083  10.770
18119W        W89790  18.039  25.070   0.386
18120W        W89791   3.337  22.312   3.772
18121W        W89792  18.169  37.885  10.442
18122W        W89793  21.379  44.453  11.011
18123W        W89794  25.993   6.928   3.718
18124W        W89795   7.108  43.116  13.956
18125W        W89796   5.270   9.204   0.447
18126W        W89797  26.018  12.460   3.884
18127W        W89798  41.244  41.888  12.034
18128W        W89799  43.377  22.147  13.900
18129W        W89800  24.088  35.832   4.916
18130W        W89801  40.783  15.316  14.093
18131W        W89802   2.503  25.469  14.761
18132W        W89803  17.263  13.923  12.049
18133W        W89804  41.470   1.213   0.257
18134W        W89805   4.373  15.563   2.316
18135W        W89806  25.199  24.395   3.747
18136W        W89807  20.579  25.176  13.529
18137W        W89808  32.010   7.598  12.843
18138W        W89809  33.914  20.371   4.459
18139W        W89810  17.187  26.999  14.327
18140W        W89811   2.758  24.415  12.776
18141W        W89812  12.821  20.043   3.629
18142W        W89813  34.592  34.657  14.964
18143W        W89814  39.101  32.347   4.722
18144W        W89815  26.955  35.452   3.199
18145W        W89816  24.395  36.807   0.726
18146W        W89817  13.878  14.556  13.225
18147W        W89818   7.621  38.885  14.622
18148W        W89819  32.828   5.779   3.490
18149W        W89820   2.042  20.087  14.853
18150W        W89821   1.974   9.658  14.782
18151W        W89822  20.080  24.563  11.946
18152W        W89823  31.639  37.577  14.805
18153W        W89824   3.262  32.890   3.705
18154W        W89825  41.847  43.611  11.007
18155W        W89826   8.667   0.182   3.386
18156W        W89827   2.494  12.849   3.580
18157W        W89828  38.875  21.306  11.214
18158W        W89829   9.676  30.696  12.452
18159W        W89830  27.556  24.197  14.235
18160W        W89831  37.348  15.155  11.387
18161W        W89832   1.867  21.815   1.282
18162W        W89833  24.523  34.389  14.810
18163W        W89834  37.582  41.469   1.979
18164W        W89835  32.963   4.935   3.361
18165W        W89836  23.522  36.919   0.535
18166W        W89837  37.045  17.531   3.733
18167W        W89838  22.987  12.776   0.798
18168W        W89839   8.682  43.356  14.837
18169W        W89840   5.475  17.658   2.346
18170W        W89841  24.749  23.473   1.950
18171W        W89842  12.661  43.856   0.873
18172W        W89843  13.213   3.537  12.577
18173W        W89844  11.100  39.023  12.842
18174W        W89845   3.017  19.863  14.884
18175W        W89846   7.279  20.680   2.127
18176W        W89847  20.423  26.421   5.488
18177W        W89848  34.682  36.843   1.458
18178W        W89849  33.118  15.834  11.984
18179W        W89850  23.950   7.087  13.930
18180W        W89851  38.058  37.769  13.152
18181W        W89852  19.053  44.618  14.340
18182W        W89853  20.091  18.283  11.459
18183W        W89854  36.381  28.082   0.946
18184W        W89855   5.549   0.050  14.571
18185W        W89856  13.841  38.754   1.322
18186W        W89857  37.243  21.927   1.808
18187W        W89858  38.541  23.176   4.191
18188W        W89859  41.335  41.867   2.158
18189W        W89860   4.808  14.805  14.580
18190W        W89861  24.595  26.617  13.845
18191W        W89862  30.116  29.854  13.598
18192W        W89863  42.088  20.013  12.252
18193W        W89864  44.293  11.476   0.263
18194W        W89865  40.776   5.738   1.716
18195W        W89866  16.559  27.926   3.289
18196W        W89867  17.227   9.714   2.698
18197W        W89868   3.121  19.547   2.673
18198W        W89869  26.503   0.753   3.675
18199W        W89870  37.329  10.678  13.878
18200W        W89871  12.591   4.411   2.849
18201W        W89872  10.766  41.849   3.400
18202W        W89873  35.025  19.954  12.076
18203W        W89874   5.944  38.937   3.103
18204W        W89875  33.077  44.620  14.764
18205W        W89876  39.393  13.715   3.563
18206W        W89877  21.488  35.604   1.431
18207W        W89878  36.400  30.101  12.600
18208W        W89879  11.888  33.972   2.374
18209W        W89880   5.487  31.088   3.819
18210W        W89881  36.041  41.014  14.730
18211W        W89882  30.860  27.886   1.247
18212W        W89883   7.262  32.709  12.739
18213W        W89884  41.264  24.165  12.000
18214W        W89885  22.183   3.078  12.600
18215W        W89886  23.938  22.517   3.723
18216W        W89887   3.412  35.095   4.076
18217W        W89888   8.975  31.905   3.694
18218W        W89889  17.698  32.603   2.156
18219W        W89890  26.319   8.745   9.799
18220W        W89891   7.297  44.476   2.400
18221W        W89892  16.586  23.935   2.750
18222W        W89893  26.972   0.477  12.072
18223W        W89894  25.043  44.348  12.378
18224W        W89895   9.258  43.296   1.250
18225W        W89896  22.449  26.511   2.126
18226W        W89897  41.483  44.338   3.929
18227W        W89898  44.488   2.944  14.691
18228W        W89899   9.287  21.211  10.548
18229W        W89900  44.359  37.601   4.138
18230W        W89901  17.605  30.376   3.432
18231W        W89902  21.015  35.069  11.136
18232W        W89903  13.697  13.110   4.620
18233W        W89904  40.908  34.416  10.657
18234W        W89905  38.167   7.335  14.469
18235W        W89906  35.610   3.054  14.073
18236W        W89907  12.233  38.859   1.701
18237W        W89908  10.413  16.660  13.321
18238W        W89909  28.062   6.929   9.822
18239W        W89910  14.327  20.498   2.456
18240W        W89911  10.869  30.229  11.137
18241W        W89912  42.765  43.833  12.997
18242W        W89913  15.083  24.717  13.408
18243W        W89914  10.240  32.518  11.566
18244W        W89915  17.174  43.788  12.169
18245W        W89916  14.914  40.028   1.048
18246W        W89917  16.811  36.598  12.274
18247W        W89918  30.785  12.875  14.032
18248W        W89919   1.710  22.158   0.892
18249W        W89920  34.408  38.130   0.812
18250W        W89921  32.020  16.145  13.453
18251W        W89922  15.956  38.830   1.472
18252W        W89923  32.858  10.856  12.037
18253W        W89924  20.774   5.759   3.103
18254W        W89925  24.686  38.513  13.988
18255W        W89926  31.080  31.900  14.009
18256W        W89927  22.236  20.264  13.417
18257W        W89928  43.759  27.570   1.136
18258W        W89929  34.346  38.432   2.775
18259W        W89930  22.962  20.195   4.471
18260W        W89931  14.622  13.815   3.377
18261W        W89932  37.462  27.950   5.050
18262W        W89933  37.912  34.514   0.736
18263W        W89934  14.614  32.387   3.853
18264W        W89935  41.171  29.676  13.018
18265W        W89936  11.625  39.502  11.547
18266W        W89937  25.783  10.837   4.117
18267W        W89938  26.617   2.414  13.246
18268W        W89939  41.368  35.826  11.975
18269W        W89940  44.872  14.978   5.796
18270W        W89941  22.533   4.470   0.441
18271W        W89942  10.896  35.637   1.616
18272W        W89943   4.240  33.422  13.521
18273W        W89944   7.397   5.769   0.335
18274W        W89945  14.636  33.093   0.403
18275W        W89946  23.532  17.525   0.876
18276W        W89947  43.583  17.628   2.409
18277W        W89948  29.489  28.448  11.346
18278W        W89949   4.356  37.081   1.775
18279W        W89950  24.550  28.663   1.816
18280W        W89951   1.709  34.412  14.818
18281W        W89952  24.540  32.953  13.296
18282W        W89953  39.395  44.087  13.465
18283W        W89954  42.893  18.336  11.587
18284W        W89955   9.564  13.246   2.304
18285W        W89956   1.754  32.039  13.881
18286W        W89957  26.194  20.620   1.480
18287W        W89958  20.301  39.834  11.289
18288W        W89959  27.405  31.218   2.726
18289W        W89960  26.653  35.833   0.927
18290W        W89961  17.012  43.388   4.591
18291W        W89962   3.369  37.060  14.683
18292W        W89963  11.589  27.664   1.624
18293W        W89964  13.230   7.669  11.664
18294W        W89965  33.801  14.265  11.006
18295W        W89966  31.152  22.480  11.534
18296W        W89967  33.510  21.971  13.519
18297W        W89968   8.959  21.553   4.617
18298W        W89969  10.739  38.853   1.381
18299W        W89970  35.169   0.961  13.041
18300W        W89971  11.599  31.020   2.226
18301W        W89972   2.326   1.976   4.581
18302W        W89973  29.596  42.530   3.155
18303W        W89974  36.465  35.366   4.146
18304W        W89975  36.457  44.327  10.659
18305W        W89976   9.277  43.317  10.528
18306W        W89977  34.457   4.375   1.590
18307W        W89978  20.799  30.377  13.967
18308W        W89979   7.491   4.272  13.697
18309W        W89980  38.098  14.946   0.353
18310W        W89981  14.881  25.489   1.149
18311W        W89982  13.115   8.390  11.064
18312W        W89983  18.076  30.048   0.971
18313W        W89984  19.564  19.287   2.305
18314W        W89985   8.254  42.824  12.912
18315W        W89986  29.015  28.695  11.080
18316W        W89987  42.579  40.178   4.952
18317W        W89988   2.535   7.077  12.917
18318W        W89989  17.076  38.016   0.326
18319W        W89990  12.810  24.758   0.918
18320W        W89991  10.633  33.193  14.398
18321W        W89992  36.017   8.938  11.516
18322W        W89993   3.465  39.929  12.900
18323W        W89994  28.681  40.491  14.348
18324W        W89995  44.449  31.872  11.577
18325W        W89996  13.410   7.245   3.799
18326W        W89997   0.208   6.705   2.501
18327W        W89998  18.190  39.219  12.324
18328W        W89999  16.499  13.713  13.379
18329W        W90000  19.057  41.888  14.536
18330W        W90001  41.254   5.834   0.815
18331W        W90002  31.251  14.497  14.942
18332W        W90003  20.044   3.909   0.302
18333W        W90004  16.224  39.659   4.014
18334W        W90005   9.553   4.814   1.768
18335W        W90006   6.821  10.835  13.971
18336W        W90007  34.952  17.640  14.278
18337W        W90008   7.712  19.200   4.537
18338W        W90009   4.687  35.151  11.148
18339W        W90010  10.938  28.990   1.294
18340W        W90011  31.581  24.131  11.065
18341W        W90012   2.766   2.332  11.078
18342W        W90013   4.835  22.102   4.354
18343W        W90014  19.745  42.369   0.636
18344W        W90015   1.541   0.189  13.192
18345W        W90016  37.389   2.435  14.161
18346W        W90017  14.879  10.871  13.046
18347W        W90018  39.640  21.769  11.071
18348W        W90019   0.803   3.232  11.135
18349W        W90020   0.928  21.134   0.291
18350W        W90021  18.692  14.477   5.361
18351W        W90022  21.449  19.466   4.999
18352W        W90023  43.778  11.690  14.956
18353W        W90024   0.392  10.658   0.974
18354W        W90025  27.323   0.887   4.369
18355W        W90026  38.214  14.093  10.209
18356W        W90027  42.522  44.438  11.082
18357W        W90028  12.821  12.762  13.370
18358W        W90029  41.443  13.842  14.934
18359W        W90030  32.888  14.244  10.651
18360W        W90031  27.507   7.803   3.788
18361W        W90032  25.578  27.731   1.349
18362W        W90033   4.146  26.196   2.063
18363W        W90034  27.942  12.704   1.307
18364W        W90035  15.661   4.430   0.293
18365W        W90036  40.759  25.513  11.088
18366W        W90037   7.140  32.079   0.433
18367W        W90038  13.694  22.740   1.694
18368W        W90039  19.583  25.144   0.839
18369W        W90040   4.644  18.023  14.221
18370W        W90041   6.021   5.459  13.328
18371W        W90042   9.320   7.138   1.162
18372W        W90043   5.885  32.993   3.289
18373W        W90044   1.559   9.219   2.813
18374W        W90045  43.756  21.452   2.277
18375W        W90046  27.877  14.094  12.059
18376W        W90047  27.008  25.998  13.600
18377W        W90048  17.754  32.557  14.835
18378W        W90049   9.457  17.584  14.461
18379W        W90050  44.734  41.763  14.294
18380W        W90051  44.376  33.970  10.727
18381W        W90052   4.724   1.283   1.746
18382W        W90053  36.727   2.701   1.659
18383W        W90054  37.816  37.324   5.539
18384W        W90055  13.567  25.719   2.891
18385W        W90056   0.288  36.592  12.080
18386W        W90057  39.446  43.299  13.822
18387W        W90058   1.874  13.284   3.430
18388W        W90059  42.357  17.729   2.851
18389W        W90060  43.476   1.363   1.046
18390W        W90061  11.125  29.872  12.518
18391W        W90062  15.973  17.142   3.816
18392W        W90063   7.485  42.395  13.444
18393W        W90064  24.637  27.192   4.100
18394W        W90065  24.018  12.835   2.638
18395W        W90066  34.702  19.651   2.757
18396W        W90067   7.338  13.228  12.169
18397W        W90068  22.741  22.191   2.740
18398W        W90069  42.400  40.880   2.211
18399W        W90070   2.699  14.716  13.340
18400W        W90071  30.178  27.545  12.778
18401W        W90072   6.193  37.322   1.005
18402W        W90073  21.053   4.470   2.359
18403W        W90074   6.826   7.178  14.813
18404W        W90075  38.790  20.819   0.814
18405W        W90076  19.547  33.562   4.625
18406W        W90077  20.230   5.334  14.165
18407W        W90078  31.064  21.219  11.138
18408W        W90079  29.625  26.190  11.436
18409W        W90080  36.447  29.207  14.969
18410W        W90081  44.367  38.488  13.476
18411W        W90082  29.512   1.731   1.168
18412W        W90083  25.050  25.085  13.874
18413W        W90084  26.779  24.597   0.545
18414W        W90085  16.011  24.909  13.269
18415W        W90086  40.692   0.004   3.752
18416W        W90087   6.749  14.574   0.895
18417W        W90088  44.961   7.682   1.472
18418W        W90089   8.523   9.453   9.946
18419W        W90090   4.257  25.774  10.707
18420W        W90091  31.192  32.956  13.409
18421W        W90092  28.404  25.983  13.838
18422W        W90093  42.576  15.229   1.319
18423W        W90094  33.135   1.716   0.685
18424W        W90095  40.516  30.445   4.991
18425W        W90096  28.404   2.146   3.205
18426W        W90097  44.944  26.823  12.388
18427W        W90098   6.191   6.398  11.605
18428W        W90099  36.555  36.125   0.756
18429W        W90100   4.173  12.462   4.623
18430W        W90101  34.995   5.399   4.447
18431W        W90102  29.591  29.871  13.410
18432W        W90103  23.608   5.776  14.584
18433W        W90104  16.547  17.516  12.442
18434W        W90105  34.964  39.997  13.771
18435W        W90106   2.022  42.754   2.278
18436W        W90107  10.928  38.741   2.291
18437W        W90108   1.011   6.722  13.448
18438W        W90109  36.156   2.273  12.873
18439W        W90110  28.502  18.669  12.484
18440W        W90111  24.118   5.874   1.857
18441W        W90112  24.920  33.584   1.013
18442W        W90113  10.614  40.433  13.996
18443W        W90114   1.416  16.785   2.371
18444W        W90115  41.880  30.175  13.033
18445W        W90116   3.924  18.630  14.943
18446W        W90117  33.540  18.527  14.296
18447W        W90118  30.139  22.185  10.631
18448W        W90119  21.185  36.871  14.282
18449W        W90120   3.436  34.289   2.926
18450W        W90121  12.076   2.994  10.661
18451W        W90122  32.322  22.629   3.668
18452W        W90123   2.351  19.635   9.810
18453W        W90124  43.842  41.577  13.930
18454W        W90125   2.233  12.398   3.585
18455W        W90126  28.002   4.659  14.499
18456W        W90127  32.552  28.073   9.853
18457W        W90128  18.733  27.056  11.701
18458W        W90129  44.746  13.157  13.747
18459W        W90130  36.870  37.001   0.971
18460W        W90131  31.017  33.422  13.230
18461W        W90132  17.575  44.282  12.976
18462W        W90133   9.658  13.737   0.307
18463W        W90134  11.502  37.766  11.112
18464W        W90135  28.851   7.832  11.702
18465W        W90136  25.536   2.378  12.824
18466W        W90137  43.472  44.218  13.467
18467W        W90138  13.161  33.872   1.862
18468W        W90139  12.643   3.430   4.685
18469W        W90140   5.005  36.917  11.483
18470W        W90141  40.763  25.045   2.812
18471W        W90142  19.765  12.133   0.841
18472W        W90143  17.632  20.448   3.244
18473W        W90144  26.034  18.386   3.769
18474W        W90145  27.999  39.028  13.051
18475W        W90146  36.609  44.067   3.755
18476W        W90147   6.996  40.585   2.497
18477W        W90148  42.367  27.442   3.646
18478W        W90149  22.062   8.451   3.553
18479W        W90150   2.282  44.990  14.673
18480W        W90151  20.490  36.980   3.125
18481W        W90152  29.756  31.475  11.054
18482W        W90153  12.845  28.049   0.004
18483W        W90154  27.502  20.553  10.644
18484W        W90155  41.774  23.984  14.835
18485W        W90156  20.554  42.188  13.349
18486W        W90157  35.512  17.282  13.839
18487W        W90158  25.529  33.657   3.212
18488W        W90159  10.297  33.639  12.616
18489W        W90160  28.495  17.191  10.658
18490W        W90161  23.407   1.905  11.547
18491W        W90162  26.394  36.591  12.888
18492W        W90163  28.807  23.214  12.929
18493W        W90164  23.888  12.999  13.923
18494W        W90165  33.895  39.355  11.353
18495W        W90166  40.460  39.046   3.786
18496W        W90167  32.006  20.305  10.655
18497W        W90168   7.923  18.652   0.680
18498W        W90169  11.708  10.246   3.036
18499W        W90170   9.197   4.914  10.742
18500W        W90171   2.364  42.583  12.245
18501W        W90172  26.360  30.295  13.962
18502W        W90173  27.129  30.093  13.549
18503W        W90174  11.780  39.755   0.864
18504W        W90175  21.693  32.081   4.546
18505W        W90176  31.646   2.647   0.863
18506W        W90177  26.217  18.513   3.289
18507W        W90178  13.107  12.567   1.346
18508W        W90179  11.219  24.727  10.627
18509W        W90180  42.437   2.783   2.773
18510W        W90181   0.426  30.658  12.500
18511W        W90182  24.716  12.248  14.954
18512W        W90183  41.730  27.558   4.490
18513W        W90184  30.472  12.088   1.260
18514W        W90185   4.830  19.016   1.841
18515W        W90186  21.142  22.994  10.858
18516W        W90187  38.608  41.020   0.677
18517W        W90188  17.612  28.940   3.352
18518W        W90189  22.459  38.176   3.804
18519W        W90190  10.237  34.104   0.296
18520W        W90191  43.963  32.495  12.743
18521W        W90192   8.366  11.695   1.111
18522W        W90193   1.015   3.838  11.033
18523W        W90194  28.529  33.050   2.048
18524W        W90195  40.506  43.047   0.035
18525W        W90196  42.326   6.642   1.692
18526W        W90197  30.536  25.687   2.587
18527W        W90198  34.584  32.868   0.433
18528W        W90199  41.459   6.318   1.772
18529W        W90200   9.721  23.149   4.229
18530W        W90201  18.673  18.836   1.335
18531W        W90202  37.161  24.453  11.203
18532W        W90203  15.584  14.262   2.679
18533W        W90204  40.870  25.532  12.906
18534W        W90205   8.362  25.505   1.237
18535W        W90206  18.168  25.141  13.645
18536W        W90207  18.109  12.264  10.697
18537W        W90208  29.971  23.068  12.213
18538W        W90209   0.676  39.494   4.475
18539W        W90210  25.066  43.512   1.334
18540W        W90211  20.812  13.601  13.107
18541W        W90212   6.356  42.671  14.924
18542W        W90213  42.614  27.944  13.067
18543W        W90214   9.139   7.545  11.633
18544W        W90215  42.459   2.427   4.904
18545W        W90216  28.528   8.243   0.766
18546W        W90217  39.041  13.679   2.454
18547W        W90218  10.847   2.845   2.195
18548W        W90219  10.406  21.259   1.879
18549W        W90220  16.206  25.077  11.534
18550W        W90221  44.400  15.700   0.022
18551W        W90222  42.561  23.412  14.510
18552W        W90223  34.860   0.994   3.282
18553W        W90224  32.959  31.136   2.828
18554W        W90225  44.890  23.565   3.785
18555W        W90226  14.192  10.133  14.937
18556W        W90227  11.740  20.947  13.332
18557W        W90228  29.457   0.340   4.289
18558W        W90229  22.113   4.512   2.742
18559W        W90230  10.473  41.267   4.109
18560W        W90231  17.055  44.352  12.966
18561W        W90232  27.436   0.469   1.328
18562W        W90233  12.000  36.472  10.463
18563W        W90234  43.991  27.458   1.594
18564W        W90235   6.945   1.282  11.160
18565W        W90236  31.415  44.421  12.822
18566W        W90237  20.230  24.198   4.368
18567W        W90238   9.862  32.581  14.213
18568W        W90239  31.652  12.284   3.157
18569W        W90240  25.645  34.129  12.612
18570W        W90241  38.015  13.666   2.261
18571W        W90242  29.663  28.924  13.565
18572W        W90243  13.190  15.127   1.074
18573W        W90244  40.766   9.259   2.806
18574W        W90245  38.976  16.572  11.066
18575W        W90246  22.721  30.069  13.410
18576W        W90247   2.677   1.981  10.657
18577W        W90248   6.333  29.141  13.939
18578W        W90249   8.174   1.731  13.023
18579W        W90250  30.689   9.770  14.073
18580W        W90251  30.454  30.307  14.822
18581W        W90252  15.742  17.288  14.763
18582W        W90253  43.576  12.827  13.062
18583W        W90254  24.242  42.444   3.231
18584W        W90255  17.850  23.972   4.225
18585W        W90256  28.924  32.893  14.913
18586W        W90257  22.582  24.421  14.036
18587W        W90258   6.898  20.220   0.348
18588W        W90259  16.489   2.427   4.017
18589W        W90260  29.532  26.595   1.548
18590W        W90261  34.785  23.601  12.384
18591W        W90262  23.181  28.119  13.843
18592W        W90263  26.043  22.496   3.019
18593W        W90264  17.254  30.348   5.002
18594W        W90265  41.439  32.506  11.707
18595W        W90266  21.265  44.192   3.657
18596W        W90267  25.936  19.646   4.893
18597W        W90268  35.891  19.381  12.019
18598W        W90269  28.135   3.661  14.457
18599W        W90270  25.753   2.414   4.146
18600W        W90271   5.714  24.762   1.890
18601W        W90272   8.179  24.484   4.088
18602W        W90273  28.535  17.373  11.140
18603W        W90274  20.614  11.695  10.996
18604W        W90275  19.335   5.293  11.642
18605W        W90276  10.211  33.965   0.957
18606W        W90277  38.571  14.798  12.472
18607W        W90278  37.320  32.720  10.767
18608W        W90279  36.496  38.594   0.423
18609W        W90280  28.396  33.023  10.487
18610W        W90281  37.477  29.961  12.959
18611W        W90282  13.628  18.154   1.698
18612W        W90283   6.283  12.341  11.998
18613W        W90284  36.889  27.066  11.546
18614W        W90285  10.319  23.609   0.353
18615W        W90286  22.562  23.380   0.626
18616W        W90287  29.642  21.118  14.884
18617W        W90288  29.912  11.693   4.734
18618W        W90289  40.596  28.203  12.039
18619W        W90290  41.969  33.056   1.405
18620W        W90291  16.812  39.821   1.246
18621W        W90292   0.828  28.815   2.259
18622W        W90293   3.603  26.214   0.368
18623W        W90294  29.050  20.798  14.478
18624W        W90295  37.975  30.681   4.932
18625W        W90296   1.388  23.967  12.548
18626W        W90297  36.825  28.552  10.583
18627W        W90298   5.402  42.775  12.398
18628W        W90299  44.833  16.767   2.457
18629W        W90300  18.338  13.939  14.320
18630W        W90301   8.091  32.903   3.659
18631W        W90302   0.187  28.187   0.324
18632W        W90303  37.108   6.247  14.000
18633W        W90304  43.031  35.187  12.897
18634W        W90305  33.653  26.054  12.384
18635W        W90306  28.179  21.212   4.991
18636W        W90307  21.630  32.206   1.688
18637W        W90308  44.947  14.067   5.503
18638W        W90309   7.668  19.069  13.373
18639W        W90310  33.366  21.217   0.880
18640W        W90311  12.287   4.836  10.952
18641W        W90312  43.410  21.987   0.501
18642W        W90313  34.018   8.704  13.356
18643W        W90314  32.015   0.107  14.307
18644W        W90315  30.621  38.445   2.157
18645W        W90316   6.659   3.155  10.989
18646W        W90317  25.068  39.538   3.655
18647W        W90318   2.822  43.238   3.790
18648W        W90319   6.231  18.013   3.263
18649W        W90320  14.220  40.998  11.495
18650W        W90321   3.717   4.187  14.365
18651W        W90322  37.862  42.072  12.413
18652W        W90323  16.595  36.883   3.746
18653W        W90324   0.686  41.731   4.149
18654W        W90325  29.620  37.306  12.401
18655W        W90326  30.074  41.316  13.416
18656W        W90327  28.139  25.689  13.509
18657W        W90328  14.733   4.956   5.005
18658W        W90329  15.110  40.905  10.992
18659W        W90330  21.725  37.212   4.634
18660W        W90331  35.599   8.665   2.798
18661W        W90332  37.545   8.172  10.714
18662W        W90333  43.825   4.921   2.378
18663W        W90334  38.372   6.120   3.720
18664W        W90335   0.308  37.866  10.541
18665W        W90336  11.274  25.960   0.548
18666W        W90337  23.631  17.407   3.985
18667W        W90338   0.224  21.355  10.970
18668W        W90339  33.305   4.602   3.185
18669W        W90340  20.587  38.528  14.377
18670W        W90341  37.690   1.537   2.901
18671W        W90342  27.496  27.194  12.452
18672W        W90343  14.562  31.129   3.736
18673W        W90344  33.118  34.574  11.319
18674W        W90345  40.801  29.575   4.520
18675W        W90346  13.604  26.425   4.525
18676W        W90347  19.578  33.582  11.535
18677W        W90348  24.992  15.716   3.303
18678W        W90349  28.501  35.074   0.920
18679W        W90350   9.486  14.231  13.045
18680W        W90351   4.191  22.889   0.908
18681W        W90352  33.851  30.227   2.938
18682W        W90353  42.393  15.608  14.826
18683W        W90354  21.764   9.759   0.223
18684W        W90355  34.817  28.754   3.878
18685W        W90356   5.410   9.853  11.951
18686W        W90357  38.089  42.501   2.735
18687W        W90358   6.284  37.604   4.253
18688W        W90359  16.623  14.327  11.612
18689W        W90360  19.126  13.165   1.760
18690W        W90361  34.912  36.518  11.440
18691W        W90362  20.273  11.026  12.032
18692W        W90363  26.503  36.440  14.993
18693W        W90364   8.705   9.363  11.033
18694W        W90365   7.879  36.819  12.605
18695W        W90366  10.031  11.223  11.590
18696W        W90367   1.292  21.803   0.882
18697W        W90368  40.390  43.249   2.140
18698W        W90369  34.885  23.888  13.678
18699W        W90370  14.768  44.101  13.310
18700W        W90371  24.217   1.477  12.510
18701W        W90372  11.309  25.820  12.991
18702W        W90373   9.171  32.350  13.620
18703W        W90374  24.227  25.715   3.204
18704W        W90375  35.919  27.609  10.762
18705W        W90376  27.110  23.426   1.713
18706W        W90377  41.386  43.755  11.184
18707W        W90378   0.616  25.213  14.530
18708W        W90379   9.267  25.564   3.171
18709W        W90380   4.440  24.400   1.880
18710W        W90381  43.483  12.379  12.827
18711W        W90382  21.569  42.451   1.166
18712W        W90383   2.280   6.116   4.176
18713W        W90384  27.136  43.345   4.729
18714W        W90385  20.532  10.892  13.438
18715W        W90386  19.633  18.067  10.585
18716W        W90387   4.643  20.170   4.574
18717W        W90388   4.950  13.923  14.049
18718W        W90389  43.340  40.248   3.339
18719W        W90390   1.726  34.182  12.096
18720W        W90391  36.941  19.352   0.778
18721W        W90392  33.478   0.158  14.555
18722W        W90393   7.010  15.183  12.016
18723W        W90394  12.657  34.193   2.736
18724W        W90395  14.279  42.045  12.598
18725W        W90396  13.215  18.638  10.464
18726W        W90397  10.426  41.757   0.944
18727W        W90398  20.324  20.857   4.177
18728W        W90399  23.092  32.397   1.763
18729W        W90400  42.469   4.236  12.362
18730W        W90401   3.994  29.470   3.397
18731W        W90402  16.499   9.220   3.704
18732W        W90403  27.465   9.327   2.152
18733W        W90404  44.673  44.791  11.543
18734W        W90405   2.740   9.947   0.389
18735W        W90406  17.720   2.033  14.321
18736W        W90407  24.947  23.217  12.664
18737W        W90408  37.250  26.154  13.485
18738W        W90409   1.738   0.336   3.276
18739W        W90410  14.650   6.329  11.803
18740W        W90411  14.447  30.450   1.497
18741W        W90412  31.532   4.880  13.409
18742W        W90413  34.982   9.864   0.420
18743W        W90414   7.637  28.684  12.096
18744W        W90415  39.510  31.062   4.892
18745W        W90416  15.645  36.181  11.498
18746W        W90417   6.884  21.196  10.897
18747W        W90418  17.543  11.301  12.442
18748W        W90419  14.059  16.875   2.161
18749W        W90420  37.125  24.618   3.572
18750W        W90421  28.635  35.485  12.052
18751W        W90422  16.581  24.563   2.369
18752W        W90423  15.067  28.685   1.619
18753W        W90424  35.215  22.631  13.708
18754W        W90425  27.543  13.313  14.286
18755W        W90426   0.244  38.266  12.011
18756W        W90427  31.678   8.281  11.373
18757W        W90428  41.802  10.283  12.399
18758W        W90429  14.322   6.494   3.075
18759W        W90430  24.887   6.954   0.032
18760W        W90431  27.417  30.002   0.474
18761W        W90432  39.872  10.074   3.740
18762W        W90433   0.902  33.226  12.010
18763W        W90434   3.551  22.033  13.856
18764W        W90435  18.620  39.508  12.453
18765W        W90436  10.979  28.199  13.937
18766W        W90437   8.164  39.833  13.542
18767W        W90438  16.595  11.217  13.485
18768W        W90439  13.723   1.174  13.473
18769W        W90440   8.768  32.569  10.638
18770W        W90441   7.171  28.759   3.214
18771W        W90442   9.822  12.157  12.047
18772W        W90443  27.936   9.106  14.709
18773W        W90444  15.765   0.338   4.983
18774W        W90445   9.833  30.455  14.534
18775W        W90446  21.523  16.299   3.559
18776W        W90447  15.467  33.386   1.021
18777W        W90448  27.174  38.447   4.805
18778W        W90449   0.347  11.135   2.261
18779W        W90450   4.839  10.569  10.369
18780W        W90451  31.735  39.553   0.868
18781W        W90452  44.363   2.456   0.577
18782W        W90453   8.769  35.941  14.733
18783W        W90454   0.001  10.840   1.940
18784W        W90455  14.141   6.718   3.892
18785W        W90456   8.695  13.673   4.909
18786W        W90457   6.342  12.824   1.442
18787W        W90458   3.410  28.147   1.817
18788W        W90459   8.144  41.668   4.568
18789W        W90460   4.842  41.416  11.029
18790W        W90461   3.649   3.009  11.536
18791W        W90462  23.329  21.687   2.308
18792W        W90463  38.647  38.253   2.822
18793W        W90464  40.474  37.441   1.335
18794W        W90465  21.088   6.230  12.387
18795W        W90466   1.246   2.995   1.702
18796W        W90467  20.821   3.961  12.619
18797W        W90468  18.308  31.059   1.799
18798W        W90469  22.713  44.069  13.997
18799W        W90470  40.188  31.666   2.143
18800W        W90471  33.201  39.572  14.404
18801W        W90472  10.129  28.596   3.242
18802W        W90473   3.277  40.589  14.216
18803W        W90474  44.425  21.512  12.486
18804W        W90475  25.945   8.142   0.406
18805W        W90476  15.912  14.843  12.655
18806W        W90477   0.943  37.832  11.018
18807W        W90478  21.576  21.145   3.769
18808W        W90479  29.441   4.814  14.492
18809W        W90480  35.176  22.648  11.607
18810W        W90481   4.302  14.724   3.845
18811W        W90482  41.718  39.349  12.631
18812W        W90483  19.609  32.099   1.439
18813W        W90484  12.858  41.339   4.490
18814W        W90485  42.802  38.370  11.090
18815W        W90486  39.039  39.457  10.501
18816W        W90487   6.154  30.917   1.409
18817W        W90488  42.880  29.039  13.582
18818W        W90489   8.853  42.815  14.971
18819W        W90490   8.766   2.932  12.033
18820W        W90491  29.081  15.866  13.374
18821W        W90492  17.804  29.941   3.201
18822W        W90493   7.107  27.167  11.186
18823W        W90494   7.840  21.808   2.235
18824W        W90495  13.233  33.708   3.239
18825W        W90496   2.184  18.784  11.126
18826W        W90497   9.301  43.249  11.035
18827W        W90498  26.314  24.488   1.873
18828W        W90499  18.843  27.580   2.329
18829W        W90500   0.585  32.805  11.581
18830W        W90501  39.622  44.276  11.334
18831W        W90502   5.184  44.980   2.832
18832W        W90503   9.600   7.388  11.567
18833W        W90504  40.413  29.711  12.105
18834W        W90505  34.050  25.542   1.267
18835W        W90506  33.056  36.030   3.115
18836W        W90507  44.605  22.026   2.344
18837W        W90508  39.074  15.158  14.073
18838W        W90509  39.190  13.160   2.767
18839W        W90510  36.679   8.894   4.261
18840W        W90511   5.015  42.779   5.051
18841W        W90512  30.159   8.662  13.563
18842W        W90513  15.516  40.008   4.512
18843W        W90514  18.988  32.434  13.133
18844W        W90515  31.363   9.779  11.512
18845W        W90516  16.197   5.494   1.507
18846W        W90517  18.515  23.285   1.375
18847W        W90518  26.638  40.841   1.891
18848W        W90519  22.971  18.526  10.470
18849W        W90520  22.556  38.930  13.483
18850W        W90521  32.975  17.530   1.431
18851W        W90522  42.998  32.130   2.749
18852W        W90523  18.557   1.280  10.546
18853W        W90524  12.579   6.873   0.372
18854W        W90525  21.992  16.316   0.760
18855W        W90526   0.721  30.945   3.258
18856W        W90527   8.649  32.005   0.339
18857W        W90528   5.388  14.763  13.063
18858W        W90529  28.207  17.733   1.734
18859W        W90530  14.193  36.663   4.719
18860W        W90531  11.433  36.076   2.272
18861W        W90532  35.397   7.737   0.280
18862W        W90533  31.074  21.715   3.103
18863W        W90534  23.190  16.739   2.578
18864W        W90535  15.121  42.066  13.338
18865W        W90536  22.738  25.117  12.094
18866W        W90537  31.394  17.404   2.343
18867W        W90538   1.771  34.439   3.420
18868W        W90539  25.036  40.898  11.119
18869W        W90540  23.091  25.170   1.272
18870W        W90541  12.949   1.655  14.739
18871W        W90542   5.863  32.487   0.505
18872W        W90543  36.124  42.444  11.500
18873W        W90544  29.915  22.949  11.260
18874W        W90545   9.451  35.994   4.852
18875W        W90546  43.800  22.300   3.865
18876W        W90547  13.095   0.518   3.785
18877W        W90548  31.027  43.098   0.222
18878W        W90549  31.699  12.342   2.137
18879W        W90550  25.682  37.607   1.260
18880W        W90551   4.110   9.586   3.109
18881W        W90552  37.042  35.177  12.752
18882W        W90553  27.240  29.697   1.720
18883W        W90554  20.244  33.592  14.062
18884W        W90555  36.518  19.820  13.829
18885W        W90556  21.155   0.961  10.506
18886W        W90557  16.817  24.125   0.299
18887W        W90558  28.399  24.013  14.476
18888W        W90559  32.613  12.684   1.706
18889W        W90560  43.587  36.387  13.446
18890W        W90561   1.409  26.000  12.433
18891W        W90562  26.983  38.843  12.060
18892W        W90563  41.162  22.961  10.723
18893W        W90564  36.307   8.821  12.137
18894W        W90565  15.326  14.084  12.420
18895W        W90566  15.610  39.572  10.126
18896W        W90567  10.230  35.865   2.751
18897W        W90568  12.346  35.940   0.403
18898W        W90569  24.730  19.633   2.737
18899W        W90570  12.613  43.034   1.963
18900W        W90571  42.874  40.977   0.029
18901W        W90572  34.445  18.195   4.097
18902W        W90573  33.874  14.253   2.310
18903W        W90574   6.166   9.319   1.413
18904W        W90575  27.452  26.131  10.800
18905W        W90576  38.043  41.229  12.989
18906W        W90577  11.836  19.478  14.901
18907W        W90578  17.678  29.580   1.749
18908W        W90579  18.144  20.848  14.162
18909W        W90580  31.479  20.642   2.800
18910W        W90581  17.267  16.307  11.655
18911W        W90582  20.049   6.123  11.217
18912W        W90583   3.179  23.032   0.163
18913W        W90584   4.770   2.749   2.959
18914W        W90585  41.874  20.765   2.715
18915W        W90586  27.666  38.501   4.597
18916W        W90587   3.945   8.489  10.671
18917W        W90588   3.720  33.343   2.560
18918W        W90589  28.685  31.126  10.663
18919W        W90590  27.098   6.548   0.030
18920W        W90591  36.472   1.017   4.576
18921W        W90592  21.751  35.439   2.653
18922W        W90593  14.565  15.043  11.883
18923W        W90594   1.925  39.228   0.760
18924W        W90595   5.707   7.166  12.957
18925W        W90596  17.561  34.939   4.076
18926W        W90597   1.400  17.051  12.545
18927W        W90598  30.857  27.557   3.788
18928W        W90599  15.164  40.998  10.473
18929W        W90600   5.621  33.439   4.105
18930W        W90601   4.815   6.232  14.853
18931W        W90602  12.590  35.941  14.001
18932W        W90603  19.130  30.461  14.067
18933W        W90604  41.305  21.922   3.683
18934W        W90605  32.920  35.327   1.054
18935W        W90606  36.016  16.995   1.901
18936W        W90607  23.018  23.501   3.184
18937W        W90608   8.425  38.205  14.967
18938W        W90609  10.900  15.903  14.049
18939W        W90610   4.345  34.735   3.076
18940W        W90611   0.718  34.821   0.511
18941W        W90612   0.156  11.271  14.756
18942W        W90613  10.046  37.402  14.215
18943W        W90614  10.819  32.521  12.991
18944W        W90615  12.634  17.328   0.887
18945W        W90616  37.511  40.427   1.967
18946W        W90617  22.042  43.052   3.422
18947W        W90618   3.523  43.099   2.242
18948W        W90619  18.100  20.398  11.584
18949W        W90620  32.881  34.078  11.134
18950W        W90621  27.147  23.312   4.613
18951W        W90622  12.646  39.552   3.122
18952W        W90623  36.957  41.455  11.068
18953W        W90624  12.184  26.605  13.340
18954W        W90625  35.478  38.836   2.286
18955W        W90626   6.175  43.949   1.960
18956W        W90627  44.940  15.730  14.305
18957W        W90628  38.811  20.704   1.739
18958W        W90629  32.647  27.500   3.933
18959W        W90630   1.384  44.988   0.185
18960W        W90631  26.571  23.304   3.239
18961W        W90632  16.748  43.773  14.939
18962W        W90633  12.997  18.770   4.923
18963W        W90634  35.991  38.303  12.852
18964W        W90635  19.113  25.012   4.392
18965W        W90636   9.986  23.483   4.528
18966W        W90637  13.277  40.843   4.362
18967W        W90638  20.688  14.615   2.018
18968W        W90639  34.917  23.117   0.547
18969W        W90640   1.796  15.769   1.318
18970W        W90641  10.519  25.294   1.774
18971W        W90642  19.158  17.081  13.447
18972W        W90643  15.553   6.372  12.542
18973W        W90644   0.685  18.179   4.869
18974W        W90645   3.089  20.545   4.270
18975W        W90646   9.143   9.793   0.556
18976W        W90647  24.277   6.885   1.847
18977W        W90648   7.590  37.496  14.410
18978W        W90649  31.035  43.788   2.612
18979W        W90650   0.968   4.385   3.242
18980W        W90651  29.453   2.492   5.032
18981W        W90652  23.121  25.175   1.801
18982W        W90653   1.356   3.211  14.268
18983W        W90654  44.001  11.579   9.723
18984W        W90655  28.924  23.289   4.282
18985W        W90656  22.433  44.265   3.329
18986W        W90657  22.044  44.042  11.746
18987W        W90658   6.010  26.136   2.414
18988W        W90659   1.706  19.073   4.133
18989W        W90660  36.340  40.443   2.783
18990W        W90661  33.644   9.463  12.120
18991W        W90662   3.506   9.665  14.905
18992W        W90663  12.823  18.353  12.392
18993W        W90664  31.534  14.232  11.469
18994W        W90665   0.550   7.168   1.688
18995W        W90666  44.342  44.543   3.764
18996W        W90667  37.372   2.952  10.605
18997W        W90668  35.160  43.389   0.348
18998W        W90669  19.473   7.756   2.190
18999W        W90670   3.386  35.460  13.603
19000W        W90671  27.039   2.389  14.550
19001W        W90672  43.013   4.730  11.949
19002W        W90673  23.012  12.682   2.889
19003W        W90674  19.713  42.825  13.891
19004W        W90675   3.139  14.755  13.016
19005W        W90676   6.832  27.771  14.915
19006W        W90677  11.211  27.996   3.561
19007W        W90678  27.627  16.688   4.105
19008W        W90679   2.690  33.581   4.726
19009W        W90680   3.871  29.908   3.152
19010W        W90681   5.496  11.902  14.369
19011W        W90682  38.953  36.473   1.643
19012W        W90683  13.822  15.129  13.904
19013W        W90684  16.657  31.478  10.716
19014W        W90685  35.927  43.919  14.532
19015W        W90686   5.446  24.079   4.736
19016W        W90687   9.153  38.383   2.225
19017W        W90688   8.313  25.264  13.915
19018W        W90689  20.345  19.170   1.758
19019W        W90690  44.985  42.503  12.116
19020W        W90691   8.412  10.345  13.960
19021W        W90692  43.080  30.381   4.891
19022W        W90693  40.934  44.003   2.311
19023W        W90694  37.292   6.024   1.781
19024W        W90695  22.726  12.715  10.712
19025W        W90696   1.863  21.305   0.296
19026W        W90697   3.733  24.047   0.351
19027W        W90698  21.774  13.657  13.156
19028W        W90699  14.180  34.850   4.721
19029W        W90700  11.381  23.458   1.850
19030W        W90701  31.097  18.993  13.798
19031W        W90702  12.140  32.425   0.486
19032W        W90703  20.604   7.221   2.844
19033W        W90704  17.543   7.852  11.627
19034W        W90705  20.044   1.815   0.688
19035W        W90706  21.457  10.783   0.814
19036W        W90707  29.503  38.025   0.712
19037W        W90708  10.646   0.449   1.817
19038W        W90709  24.270  34.483   2.812
19039W        W90710  36.080  40.319  13.478
19040W        W90711  43.462  35.294   4.596
19041W        W90712   9.223  24.650  11.587
19042W        W90713  42.718  35.051  13.880
19043W        W90714  39.357  23.814  11.046
19044W        W90715  21.979  19.604  14.417
19045W        W90716  32.909  23.062  11.175
19046W        W90717   4.667  13.722  14.431
19047W        W90718  23.404   0.510   3.625
19048W        W90719  42.257  10.743  11.670
19049W        W90720  26.225  17.871   2.819
19050W        W90721  11.186  42.381   0.193
19051W        W90722  44.552  31.048   1.372
19052W        W90723  19.762  15.800   3.849
19053W        W90724   5.687  42.501   4.407
19054W        W90725  16.690   9.409   2.289
19055W        W90726  33.614  35.954  11.651
19056W        W90727  10.444  37.224   1.318
19057W        W90728  12.238  35.408  14.375
19058W        W90729   6.846  23.468   2.805
19059W        W90730  17.708   9.572   2.846
19060W        W90731   0.487  43.502  13.649
19061W        W90732  38.350  33.838  10.916
19062W        W90733  19.880  25.071   3.909
19063W        W90734  15.582   3.824   1.394
19064W        W90735   0.308  17.253  10.685
19065W        W90736  33.598  43.286   4.724
19066W        W90737  24.087  34.286  14.525
19067W        W90738  41.274   3.319   1.810
19068W        W90739  21.199  22.685   1.327
19069W        W90740   1.169  33.017  12.549
19070W        W90741  19.322  25.000   2.666
19071W        W90742  23.697  28.106  12.938
19072W        W90743  41.951  20.301   1.964
19073W        W90744  35.417  26.168   2.826
19074W        W90745  23.598  37.456   4.617
19075W        W90746  25.890   9.286  12.919
19076W        W90747  23.475   9.407  10.707
19077W        W90748  12.853  19.166   0.940
19078W        W90749  28.857  38.843   4.882
19079W        W90750  24.976  18.720  14.818
19080W        W90751  11.731  26.660  12.213
19081W        W90752   0.451   2.563   3.006
19082W        W90753  30.737  18.248   0.866
19083W        W90754  10.337  28.559  12.044
19084W        W90755  36.111  29.752   1.557
19085W        W90756  16.567  41.005  10.839
19086W        W90757  10.746   6.838   1.397
19087W        W90758   7.832  21.170   2.892
19088W        W90759  20.533  10.832   2.418
19089W        W90760  29.490  42.081  13.913
19090W        W90761  23.996  16.798   1.866
19091W        W90762  38.114   6.543  10.438
19092W        W90763  29.583  25.783   3.037
19093W        W90764   2.929  27.488   0.933
19094W        W90765  24.376   8.787  12.515
19095W        W90766  20.310  37.999  14.526
19096W        W90767  36.898   6.088   0.038
19097W        W90768  14.739  19.315  13.417
19098W        W90769  33.290  14.325   3.596
19099W        W90770  26.451  40.632   3.660
19100W        W90771  31.631  17.476  11.604
19101W        W90772  20.471  35.368  10.301
19102W        W90773   4.993  16.832   3.276
19103W        W90774  13.098  30.387  11.554
19104W        W90775  13.337  16.757   0.901
19105W        W90776  21.414  25.102  11.518
19106W        W90777  21.262  17.247   3.771
19107W        W90778  14.286   4.662   2.870
19108W        W90779  26.468  19.977   2.605
19109W        W90780  20.124   6.763   0.820
19110W        W90781  39.876   5.403   4.304
19111W        W90782  26.685  24.206  11.814
19112W        W90783  36.774  40.067   1.594
19113W        W90784  40.387  35.256   4.929
19114W        W90785  33.478  12.672   2.838
19115W        W90786  27.960  39.767  10.502
19116W        W90787  13.461  26.493   2.407
19117W        W90788   9.590  26.593  10.361
19118W        W90789  15.381  15.781   1.810
19119W        W90790  30.772   3.371   4.248
19120W        W90791   6.837  41.489  11.342
19121W        W90792  42.870  15.444  12.028
19122W        W90793  23.071  37.609   9.908
19123W        W90794  21.637  11.886   4.595
19124W        W90795  30.298  17.061   1.116
19125W        W90796  21.799  17.190  13.045
19126W        W90797  41.930  31.856  13.375
19127W        W90798  38.825   6.811  10.290
19128W        W90799  40.242   0.881   0.684
19129W        W90800   8.731   2.803   3.026
19130W        W90801  36.067  30.019   3.716
19131W        W90802  16.177  29.436  11.114
19132W        W90803  17.037   7.195   4.241
19133W        W90804  19.690  37.117  12.408
19134W        W90805  42.270   1.961   3.242
19135W        W90806  35.595   6.766   2.463
19136W        W90807  18.087  36.346  12.089
19137W        W90808  16.258  29.946  14.490
19138W        W90809  11.653  35.323   3.564
19139W        W90810  33.475  38.079   4.617
19140W        W90811   4.267  22.572   3.452
19141W        W90812   6.163   0.327   0.735
19142W        W90813   7.415  30.504  12.047
19143W        W90814  15.648  18.445   4.671
19144W        W90815  14.217  27.734  14.239
19145W        W90816  42.242  25.084   3.796
19146W        W90817   6.735  31.157  14.063
19147W        W90818  19.276  39.473   1.417
19148W        W90819  18.807   6.522   0.903
19149W        W90820  33.451   3.775   2.286
19150W        W90821  19.641  10.458   0.217
19151W        W90822  20.225   5.173   0.987
19152W        W90823  11.800  36.599  12.604
19153W        W90824   6.637  37.119   2.723
19154W        W90825  33.640  26.116  11.459
19155W        W90826  11.290  29.475   2.192
19156W        W90827  21.669  38.462  11.569
19157W        W90828  18.475   8.483  14.059
19158W        W90829  30.555  14.077   1.299
19159W        W90830   9.721  23.023   0.796
19160W        W90831  30.532   6.078   3.130
19161W        W90832  20.606  35.373  11.787
19162W        W90833  18.527  34.834   4.157
19163W        W90834  43.416  40.133  11.550
19164W        W90835  42.044  12.986   1.283
19165W        W90836  31.134   9.255   0.361
19166W        W90837  37.572   5.958  14.565
19167W        W90838  19.616   9.303   4.549
19168W        W90839  16.603  26.437  14.319
19169W        W90840  10.581   2.837   4.185
19170W        W90841  36.541  15.196  10.729
19171W        W90842  41.859   6.153   0.342
19172W        W90843   1.539  20.062   4.964
19173W        W90844  21.763  17.156   0.325
19174W        W90845   2.433  25.620  14.277
19175W        W90846  18.147  20.568  12.094
19176W        W90847  26.491  33.168  10.997
19177W        W90848  19.122  40.533   2.542
19178W        W90849  18.609  12.193   0.363
19179W        W90850  16.084  36.092  13.960
19180W        W90851  44.868  35.319  13.088
19181W        W90852  36.500  30.918  12.935
19182W        W90853  28.044  43.421  12.555
19183W        W90854  19.864  14.950   4.913
19184W        W90855   8.322  31.172   4.707
19185W        W90856   8.123  19.571   3.045
19186W        W90857  23.399  24.880   2.136
19187W        W90858  11.082  44.245  12.389
19188W        W90859  44.658  24.246   2.809
19189W        W90860  35.569   5.705  12.098
19190W        W90861   7.264  32.583  13.236
19191W        W90862   9.458  44.805   4.856
19192W        W90863   0.900  21.595  11.962
19193W        W90864   6.525  15.753   4.189
19194W        W90865  16.984  27.704   3.547
19195W        W90866  40.082  37.008  14.139
19196W        W90867  24.514  19.093  11.906
19197W        W90868   8.934  12.366   1.535
19198W        W90869   2.173  34.139   3.270
19199W        W90870  25.794  34.542  11.959
19200W        W90871  28.156  41.434   2.280
19201W        W90872  12.181  16.639  11.690
19202W        W90873  10.171  16.694  10.220
19203W        W90874  23.974  22.110  14.692
19204W        W90875  23.978  13.122  11.090
19205W        W90876  34.848  15.754  12.389
19206W        W90877  10.429  16.062  12.904
19207W        W90878  24.656  20.303  14.329
19208W        W90879   0.373  12.794   3.559
19209W        W90880  21.610  19.729   3.591
19210W        W90881  17.638  20.099   4.209
19211W        W90882  20.496   1.727  12.989
19212W        W90883   2.434   1.824  13.481
19213W        W90884  43.834  37.025  14.561
19214W        W90885  19.564   8.253   3.685
19215W        W90886  31.475   1.624  14.946
19216W        W90887  33.007  11.669  11.526
19217W        W90888  14.357  44.681   2.352
19218W        W90889  31.660  34.506  12.511
19219W        W90890  41.102   8.128  11.933
19220W        W90891   0.906  20.431   4.839
19221W        W90892  22.450   4.529  11.397
19222W        W90893  23.213  22.563  14.934
19223W        W90894   2.057  41.658  11.459
19224W        W90895  39.892  38.233   1.226
19225W        W90896   8.276  39.657  11.106
19226W        W90897  20.744   0.003  11.146
19227W        W90898  19.657  36.513   1.990
19228W        W90899  37.890   7.153  12.575
19229W        W90900  25.125   5.941  10.987
19230W        W90901  42.900  33.344   0.995
19231W        W90902  27.653  30.554  14.185
19232W        W90903  23.256   9.209   4.141
19233W        W90904   2.593  40.959   0.521
19234W        W90905  41.517  25.126  11.297
19235W        W90906  39.977  18.127   4.358
19236W        W90907  38.322  26.024   2.936
19237W        W90908  18.288  16.265  12.046
19238W        W90909  18.650  42.776   4.078
19239W        W90910  39.070  12.300   4.504
19240W        W90911   6.563  21.984   2.261
19241W        W90912  42.818   5.614  10.641
19242W        W90913  30.028  31.883  11.107
19243W        W90914   8.725  18.372  12.018
19244W        W90915   9.785   4.587   4.229
19245W        W90916  11.365   9.794  13.787
19246W        W90917  10.196  22.129   2.786
19247W        W90918  38.136  16.174  13.291
19248W        W90919   9.286  38.467   2.737
19249W        W90920   0.982  33.373  11.126
19250W        W90921  37.362  36.896   4.827
19251W        W90922  21.015  29.082  12.692
19252W        W90923   2.430   1.499  14.296
19253W        W90924   7.820  38.089  10.679
19254W        W90925  23.597  42.537  11.672
19255W        W90926  44.490  15.529   3.189
19256W        W90927   7.724   9.321  10.679
19257W        W90928  43.840  13.340   4.008
19258W        W90929   9.130  26.462  10.937
19259W        W90930  29.046  35.021  12.362
19260W        W90931  13.773  40.024   3.226
19261W        W90932  15.530  35.819   5.127
19262W        W90933  22.040  18.834  14.961
19263W        W90934  35.124   5.111  13.705
19264W        W90935  13.680  17.998  12.977
19265W        W90936  36.759  13.220   4.493
19266W        W90937  25.549  31.262   0.938
19267W        W90938  24.208  31.445  13.821
19268W        W90939  19.854   4.690   3.628
19269W        W90940  13.565  19.784   3.221
19270W        W90941  25.210  30.026   1.368
19271W        W90942  19.277  23.619   3.823
19272W        W90943  39.499  37.029  10.727
19273W        W90944  22.986  27.448   0.163
19274W        W90945  44.507  42.725  12.315
19275W        W90946  26.202  43.355   1.043
19276W        W90947  20.145   7.737   0.727
19277W        W90948  10.865  30.611   3.674
19278W        W90949   5.626  41.653   2.678
19279W        W90950  30.927  42.180  14.304
19280W        W90951  23.059  25.887   2.048
19281W        W90952   9.815   9.967  10.797
19282W        W90953  36.882  26.972   1.786
19283W        W90954  44.935  11.304  12.009
19284W        W90955  31.922   1.286  11.161
19285W        W90956  30.391  41.361   1.866
19286W        W90957   6.727  10.877  14.860
19287W        W90958  38.677  25.760   3.752
19288W        W90959  21.585   8.182   2.691
19289W        W90960  40.140  23.506   3.952
19290W        W90961   3.883  33.563  12.616
19291W        W90962  44.955  28.802  10.900
19292W        W90963  29.770  20.135  12.503
19293W        W90964  25.938  25.533  12.899
19294W        W90965  19.695  31.548  13.359
19295W        W90966  41.453   3.713   3.205
19296W        W90967   6.446  26.399   5.158
19297W        W90968  21.755   8.622  14.390
19298W        W90969  16.822  29.519  12.146
19299W        W90970  26.514   1.474  12.151
19300W        W90971   9.781  41.258   2.385
19301W        W90972  22.041  36.456   4.524
19302W        W90973  11.904  34.571  14.001
19303W        W90974  30.433  35.808   3.670
19304W        W90975  12.317  13.208  10.568
19305W        W90976  16.584  24.392  13.993
19306W        W90977  26.634  22.225  11.575
19307W        W90978  32.204  38.830   3.701
19308W        W90979  27.043  33.363   1.997
19309W        W90980  17.677  21.618  14.585
19310W        W90981   2.941   6.456  11.450
19311W        W90982  16.120   8.593  10.726
19312W        W90983   6.699   4.370   3.740
19313W        W90984  20.732  40.136  13.441
19314W        W90985  36.731  35.010   1.764
19315W        W90986  27.765   5.836  11.500
19316W        W90987   4.843  16.705   9.869
19317W        W90988  17.327  42.140   1.548
19318W        W90989  44.518  38.378   3.686
19319W        W90990  12.301  38.323  14.957
19320W        W90991  15.022   4.756  12.517
19321W        W90992   0.420  39.867  12.349
19322W        W90993  30.555  24.058   4.586
19323W        W90994  43.839  15.102   4.300
19324W        W90995   9.797  26.935   3.068
19325W        W90996  15.281   8.629  10.645
19326W        W90997  26.179   1.809  11.042
19327W        W90998  28.164   7.264  11.136
19328W        W90999  20.985  12.758  13.525
19329W        W91000   6.628   7.840   3.174
19330W        W91001   3.254  12.444   2.179
19331W        W91002  40.415   7.941   1.690
19332W        W91003  15.225  20.204   0.651
19333W        W91004  14.266  40.070  11.959
19334W        W91005   6.959  16.112  13.893
19335W        W91006  39.851  21.764  13.938
19336W        W91007  27.254  39.212  13.645
19337W        W91008  20.294  44.683   2.863
19338W        W91009  44.569  14.131   0.330
19339W        W91010  34.577  12.575  10.559
19340W        W91011  18.118  29.474  14.354
19341W        W91012   9.248   0.191   4.550
19342W        W91013  35.804  43.440   4.058
19343W        W91014  15.051  31.705   4.170
19344W        W91015  26.613  31.761   4.188
19345W        W91016   1.443   7.003   1.349
19346W        W91017  39.853  22.936  14.502
19347W        W91018  20.144  41.870  13.394
19348W        W91019  24.187  29.765  14.050
19349W        W91020  27.213   7.246  11.811
19350W        W91021  40.849  39.792  12.105
19351W        W91022  36.918  27.152  14.286
19352W        W91023  39.424  21.648  14.316
19353W        W91024   7.391   4.413  12.832
19354W        W91025   8.802  33.760  13.999
19355W        W91026   6.047  19.465  12.498
19356W        W91027  27.941  31.684   1.822
19357W        W91028  36.013  30.349  12.376
19358W        W91029  27.044  22.235   3.772
19359W        W91030  24.506  34.037  11.239
19360W        W91031  13.365  12.582   2.449
19361W        W91032   2.475  34.888   3.878
19362W        W91033  24.762  29.602  13.283
19363W        W91034  27.661  21.494  11.513
19364W        W91035  37.873  27.368  11.197
19365W        W91036  38.376  25.646   2.607
19366W        W91037  25.942  39.956  11.153
19367W        W91038  38.570  40.560  11.958
19368W        W91039  29.878  33.324  12.428
19369W        W91040  38.339   2.169   3.393
19370W        W91041  41.517  31.567   2.826
19371W        W91042   9.978   0.424  11.447
19372W        W91043  35.067  27.917   1.282
19373W        W91044  38.921  42.826  12.102
19374W        W91045  24.064  16.668  13.128
19375W        W91046   2.118  40.016  10.763
19376W        W91047  41.983  43.090  11.078
19377W        W91048  42.314  40.094  11.189
19378W        W91049   7.621  40.037   4.671
19379W        W91050  18.165  36.571   0.685
19380W        W91051   9.772  31.984  13.923
19381W        W91052  37.289  14.615   0.244
19382W        W91053  41.371   2.200   1.296
19383W        W91054  19.994  10.171  13.984
19384W        W91055  35.409  21.314   0.208
19385W        W91056  38.635  25.774  12.040
19386W        W91057   1.924  16.866  12.474
19387W        W91058  11.148  26.928   3.707
19388W        W91059  21.318  24.155  12.647
19389W        W91060  25.674  41.391   2.918
19390W        W91061  27.028  42.979   0.948
19391W        W91062  24.141  13.246  10.607
19392W        W91063   1.762  42.801   2.744
19393W        W91064  33.136  34.071  13.020
19394W        W91065  43.485  14.536  14.352
19395W        W91066  41.409  27.609  11.088
19396W        W91067   8.086  12.936   2.207
19397W        W91068  34.623   8.946   0.396
19398W        W91069  26.958  41.784   3.726
19399W        W91070  16.792   2.528   3.179
19400W        W91071   9.153   4.840  13.167
19401W        W91072  37.534   8.036   0.019
19402W        W91073  20.629  34.589   2.806
19403W        W91074   1.306   0.755   4.627
19404W        W91075  19.452  34.420  10.636
19405W        W91076  13.632  16.545  10.713
19406W        W91077  24.983  32.504  14.796
19407W        W91078  39.242  26.702  11.913
19408W        W91079   6.471   2.898  11.975
19409W        W91080   8.337  25.800   4.543
19410W        W91081   0.507  17.398   3.944
19411W        W91082   9.384   5.327  12.971
19412W        W91083  32.185  34.327  12.536
19413W        W91084   4.246  19.314  13.508
19414W        W91085  13.890  36.647  12.821
19415W        W91086   0.541  36.389  13.949
19416W        W91087  32.472  31.944   3.728
19417W        W91088  37.503  39.253   5.792
19418W        W91089  10.099  29.089  12.935
19419W        W91090   8.208  32.539  11.713
19420W        W91091  38.136  15.731  14.252
19421W        W91092  38.863  30.460  10.277
19422W        W91093  40.374  14.272   2.622
19423W        W91094   5.381  35.348  11.643
19424W        W91095  30.270  39.408   1.805
19425W        W91096  12.953  33.253  14.492
19426W        W91097  13.200  38.905   4.100
19427W        W91098  40.607  25.527   2.838
19428W        W91099  38.690  15.781   5.063
19429W        W91100  23.744   5.106   0.174
19430W        W91101  18.777   1.363   4.509
19431W        W91102  29.055  26.707  13.860
19432W        W91103  13.317  38.336   3.845
19433W        W91104  30.438  43.660   2.368
19434W        W91105  41.316  37.401   4.643
19435W        W91106  25.749  42.371   1.392
19436W        W91107   1.230  13.764  11.135
19437W        W91108  37.913  42.093  11.127
19438W        W91109  42.067  33.546  14.523
19439W        W91110  34.144   3.252   5.044
19440W        W91111   4.704  12.519   4.549
19441W        W91112  40.552   9.121   1.064
19442W        W91113  23.461   6.275   4.168
19443W        W91114   9.052  31.585   1.486
19444W        W91115  39.830  11.562   2.394
19445W        W91116  43.122  18.715  10.733
19446W        W91117  18.836   5.933  13.414
19447W        W91118  11.873  38.878   0.965
19448W        W91119  23.902   7.283  12.134
19449W        W91120  32.808  10.344  12.077
19450W        W91121  35.354  11.930   1.007
19451W        W91122  39.807  24.533  12.788
19452W        W91123  28.419   3.260  10.823
19453W        W91124  44.777  20.735   1.447
19454W        W91125  30.967   2.505  12.609
19455W        W91126  41.861  23.793  14.371
19456W        W91127  27.836  13.364   2.598
19457W        W91128  36.581  29.753   2.709
19458W        W91129  11.426   8.778  11.233
19459W        W91130   0.468  35.281   4.607
19460W        W91131  24.801  36.666   3.265
19461W        W91132   3.484  25.010   4.797
19462W        W91133  44.780   5.210  13.325
19463W        W91134  24.948  29.177  13.551
19464W        W91135  26.147  42.324   4.555
19465W        W91136  42.793  39.698   1.507
19466W        W91137  18.964   8.710   1.840
19467W        W91138  33.868  39.386  10.334
19468W        W91139  23.181  32.705   2.197
19469W        W91140  44.014   7.900  12.502
19470W        W91141  31.096  14.374   1.316
19471W        W91142  40.819  26.611   3.579
19472W        W91143   4.667  15.566   4.543
19473W        W91144   6.764   5.384  10.526
19474W        W91145   7.844  12.158   2.157
19475W        W91146  28.745   8.679  10.725
19476W        W91147  15.727  12.790   2.863
19477W        W91148  38.317  38.783  13.931
19478W        W91149  25.042  21.663  10.432
19479W        W91150  20.266  21.521   3.613
19480W        W91151  31.692  13.397  11.615
19481W        W91152   1.448   8.806  14.816
19482W        W91153  18.647  14.237  11.422
19483W        W91154  38.804  22.228  12.996
19484W        W91155   4.377  27.983  13.902
19485W        W91156  15.003   8.434  10.240
19486W        W91157  43.299  19.780   1.215
19487W        W91158  23.564   3.720  13.736
19488W        W91159  39.570   3.771  11.331
19489W        W91160   7.494   8.974  13.317
19490W        W91161  39.458   8.296   1.729
19491W        W91162   1.904  32.643   0.702
19492W        W91163  29.377  40.920  11.637
19493W        W91164  30.674  10.588  11.473
19494W        W91165  27.429  39.462   4.762
19495W        W91166  38.113  16.637  14.188
19496W        W91167  30.738  16.803   3.905
19497W        W91168  37.997  30.710  10.790
19498W        W91169  10.808  15.590   4.240
19499W        W91170  28.045  44.036  14.200
19500W        W91171  18.222  16.052   0.339
19501W        W91172  37.901   2.386   3.557
19502W        W91173   6.705   0.961  12.950
19503W        W91174   0.211  34.943  14.067
19504W        W91175  36.048  39.134  11.552
19505W        W91176   3.495   2.411   5.156
19506W        W91177  28.210  41.670   1.477
19507W        W91178   2.412  10.799   0.575
19508W        W91179  27.123   2.435   3.654
19509W        W91180   9.663  17.707  14.006
19510W        W91181  34.460  41.942   4.557
19511W        W91182  42.071  41.564  12.056
19512W        W91183  16.157  18.760   3.194
19513W        W91184  18.352  14.136  10.686
19514W        W91185  16.675  40.951   4.982
19515W        W91186  34.983   6.143  10.443
19516W        W91187   8.836  17.086  12.481
19517W        W91188  44.926  25.590   2.352
19518W        W91189  27.691   8.237   3.366
19519W        W91190  21.846  36.461  14.633
19520W        W91191  20.362  18.389   0.936
19521W        W91192  28.063   8.430   0.926
19522W        W91193  42.924   4.226  12.047
19523W        W91194  13.709   3.250   1.202
19524W        W91195  13.379  20.636   1.938
19525W        W91196  21.101   5.276   0.520
19526W        W91197  37.897  33.430   0.479
19527W        W91198  10.247  11.091   3.662
19528W        W91199   7.964   9.871  13.348
19529W        W91200  43.536  11.472   5.146
19530W        W91201  26.136  37.860   1.255
19531W        W91202   7.713  34.195  11.990
19532W        W91203  14.733  23.317   3.254
19533W        W91204  18.108  38.343  13.873
19534W        W91205   3.210   6.212  12.546
19535W        W91206  41.428  23.950  12.503
19536W        W91207  19.734  30.251  10.343
19537W        W91208   4.235   2.513  13.588
19538W        W91209   2.294  21.204   4.781
19539W        W91210  16.310  25.046   1.307
19540W        W91211  42.732  22.280   2.618
19541W        W91212  41.261  28.066   1.777
19542W        W91213  41.565   9.381   3.346
19543W        W91214   8.338  31.964  14.374
19544W        W91215   8.973  43.906   2.758
19545W        W91216  16.451  34.796   1.056
19546W        W91217  32.796   4.359  13.564
19547W        W91218  37.827   1.447  13.448
19548W        W91219  39.873  26.512  12.484
19549W        W91220  31.199  42.851  14.778
19550W        W91221   0.880  41.087   1.856
19551W        W91222  15.433   8.769  10.163
19552W        W91223  34.180  31.857  13.328
19553W        W91224  14.780   5.072   2.177
19554W        W91225   3.886  17.510  11.797
19555W        W91226  33.006   2.349  13.497
19556W        W91227  21.180  33.535   3.852
19557W        W91228  16.100  38.448   3.084
19558W        W91229  14.539  12.950  10.227
19559W        W91230  35.934  31.195   1.716
19560W        W91231   8.803   6.614  12.936
19561W        W91232  12.769  15.341  11.042
19562W        W91233   5.516  18.005   1.976
19563W        W91234  42.686  33.076  11.825
19564W        W91235  40.304   3.928  11.959
19565W        W91236   1.155  35.655   0.117
19566W        W91237  30.115  10.162   1.632
19567W        W91238  19.787  16.308  11.091
19568W        W91239  23.728  33.482  12.549
19569W        W91240   0.449  20.529  11.186
19570W        W91241  29.791  19.798  11.555
19571W        W91242   3.423  36.966   1.819
19572W        W91243  25.085  26.653   4.942
19573W        W91244   4.026  31.057   4.674
19574W        W91245  36.129  25.141   3.190
19575W        W91246  14.586  36.498  11.569
19576W        W91247  35.954  39.485   2.614
19577W        W91248  23.237   7.931  13.325
19578W        W91249   7.158  10.772   2.184
19579W        W91250  26.112  35.954  12.492
19580W        W91251  35.482  15.881   4.878
19581W        W91252  37.518  39.945   1.303
19582W        W91253  19.002   0.353  12.918
19583W        W91254  41.251  35.818   3.014
19584W        W91255  42.924  44.299  12.011
19585W        W91256   1.819  36.917  13.063
19586W        W91257   0.714  26.591  12.544
19587W        W91258   5.928  18.099  12.568
19588W        W91259  25.423  38.261  12.554
19589W        W91260   0.022  29.700   3.644
19590W        W91261   5.540  22.273   0.143
19591W        W91262  13.605  30.336   2.412
19592W        W91263  31.212  26.059   1.311
19593W        W91264  43.531  21.231   0.987
19594W        W91265  12.017  42.032  13.051
19595W        W91266  25.561   1.693  14.931
19596W        W91267   1.732   8.164   0.312
19597W        W91268  44.940  44.074  13.090
19598W        W91269  14.775  17.345   2.181
19599W        W91270   9.649   4.900  13.011
19600W        W91271  20.992  16.699   0.455
19601W        W91272  30.256  20.161  12.693
19602W        W91273   1.088   0.286  10.712
19603W        W91274  32.873  12.597  10.595
19604W        W91275  29.397   6.955  11.652
19605W        W91276   2.934  31.076  11.132
19606W        W91277  42.993  35.376   1.717
19607W        W91278   3.245   3.750  11.254
19608W        W91279   0.235  30.020  10.777
19609W        W91280  42.065   4.550  11.739
19610W        W91281  41.078  34.378   1.267
19611W        W91282  15.282  18.251   2.143
19612W        W91283   2.974  14.491  13.978
19613W        W91284  11.740   7.620   3.214
19614W        W91285  42.474  18.179  11.086
19615W        W91286   3.531  37.385   2.555
19616W        W91287  29.055  34.488   3.120
19617W        W91288  32.467  21.771   0.951
19618W        W91289  38.837  36.410   4.689
19619W        W91290  38.861   5.017   2.896
19620W        W91291  12.833  34.004  11.180
19621W        W91292  14.063  20.047   3.364
19622W        W91293  14.819   5.253   1.704
19623W        W91294  38.105  30.926   3.398
19624W        W91295  43.040  21.103   1.905
19625W        W91296  39.551  10.893   4.637
19626W        W91297  36.777  11.234  11.071
19627W        W91298  44.642   3.746  14.433
19628W        W91299  16.308  35.869   4.131
19629W        W91300  43.342  25.152  12.869
19630W        W91301  38.955  29.920   3.209
19631W        W91302  11.377   1.484  13.264
19632W        W91303  19.402  18.943  13.015
19633W        W91304   2.890  27.008  12.713
19634W        W91305  34.905  29.729  13.510
19635W        W91306  44.423  42.899   0.725
19636W        W91307   1.218  20.158  11.653
19637W        W91308  41.785   0.451  10.901
19638W        W91309  10.557  12.776  10.803
19639W        W91310  44.555  26.598  11.593
19640W        W91311  11.568   3.795   4.147
19641W        W91312  35.028  22.726   2.304
19642W        W91313  29.535  33.573  10.776
19643W        W91314  34.469   7.973  11.573
19644W        W91315  40.285  40.148  14.485
19645W        W91316  13.844  11.014  12.527
19646W        W91317   3.330  21.747   2.956
19647W        W91318  40.255  25.452  11.021
19648W        W91319  28.125  26.050  14.753
19649W        W91320  27.091  29.598  13.362
19650W        W91321  19.322   0.910  10.707
19651W        W91322   8.440  33.962  11.691
19652W        W91323  20.061  21.819  12.341
19653W        W91324  28.414  42.997   4.194
19654W        W91325  24.247  40.561   4.115
19655W        W91326  26.026  18.170   2.427
19656W        W91327  31.460   4.711  11.085
19657W        W91328  28.089  14.699  11.064
19658W        W91329  22.150  36.864   3.798
19659W        W91330  37.421   2.942   2.903
19660W        W91331   7.357   0.371   4.935
19661W        W91332  22.919  24.004  12.828
19662W        W91333   4.234  28.642  14.269
19663W        W91334  39.365  32.071  14.117
19664W        W91335  31.037  14.087   3.442
19665W        W91336  11.365   1.700   4.150
19666W        W91337  34.413  15.285  14.974
19667W        W91338  11.716  40.741   1.191
19668W        W91339  29.932  38.451  10.647
19669W        W91340  42.449  30.476   3.284
19670W        W91341  40.090  24.767  11.868
19671W        W91342  23.002  36.906  10.998
19672W        W91343  40.685  28.654  12.567
19673W        W91344   3.424  21.349  10.249
19674W        W91345   4.435   6.728   2.851
19675W        W91346  13.432  35.170   0.307
19676W        W91347  11.517  10.200  12.207
19677W        W91348  17.565  41.586  12.457
19678W        W91349  38.290  25.143  13.328
19679W        W91350  17.252  25.611   1.299
19680W        W91351   2.181  29.910   3.934
19681W        W91352  19.742   7.871   4.638
19682W        W91353  44.235  19.695  13.002
19683W        W91354   4.307  31.268  11.531
19684W        W91355   0.689  17.768   3.634
19685W        W91356  28.906  23.985   3.154
19686W        W91357  18.078  37.882  12.532
19687W        W91358   6.270   7.268  14.101
19688W        W91359  34.202  42.319   0.649
19689W        W91360   8.778  18.868  11.100
19690W        W91361  40.256  21.326   3.215
19691W        W91362   1.920  42.993  10.378
19692W        W91363  29.954  42.948   3.722
19693W        W91364  17.246  37.969  13.410
19694W        W91365  21.181  26.325  13.276
19695W        W91366  32.594  26.148  12.572
19696W        W91367  12.806  10.356  14.296
19697W        W91368  34.837  40.810  11.116
19698W        W91369  24.537   4.156   4.109
19699W        W91370  40.750  30.428   4.081
19700W        W91371  44.982  39.327  14.332
19701W        W91372  35.530  15.613   1.177
19702W        W91373  38.099  34.894   0.401
19703W        W91374  36.573   8.943  14.490
19704W        W91375   3.841  37.449   0.355
19705W        W91376   2.010   4.235  12.496
19706W        W91377  25.072  43.466  11.990
19707W        W91378   0.409  26.428  13.431
19708W        W91379  35.738   1.534   0.290
19709W        W91380  38.514   0.247  11.240
19710W        W91381   1.506  14.747   2.305
19711W        W91382  32.156  11.533   3.699
19712W        W91383   7.598  44.504   2.864
19713W        W91384   2.247  17.980  12.436
19714W        W91385  41.504  32.989  12.619
19715W        W91386  12.643  28.914   4.652
19716W        W91387  14.259   3.731   0.417
19717W        W91388  40.569  36.394   2.336
19718W        W91389  27.156  26.632   3.419
19719W        W91390  20.561  36.917   3.654
19720W        W91391  21.736  32.087  10.651
19721W        W91392  24.020  43.170   4.964
19722W        W91393  16.176  35.519   3.302
19723W        W91394  13.299  43.562  10.726
19724W        W91395  19.693  38.305   0.918
19725W        W91396  12.726  22.202   4.165
19726W        W91397  38.627  14.082  11.956
19727W        W91398  29.599   5.890  11.538
19728W        W91399  19.492  11.987   5.450
19729W        W91400  20.069  11.895  12.559
19730W        W91401   6.154  12.847   2.407
19731W        W91402  23.663   6.990  11.625
19732W        W91403   3.942  14.672  10.554
19733W        W91404  44.357  34.890   0.207
19734W        W91405   3.476   3.498  11.648
19735W        W91406  28.308  20.248   2.261
19736W        W91407  24.934  28.679  14.937
19737W        W91408  18.168  13.801   1.257
19738W        W91409  22.836  39.892  12.046
19739W        W91410  23.533  12.118   0.440
19740W        W91411  35.388  11.136   1.808
19741W        W91412  36.849  31.425   1.599
19742W        W91413   2.772  42.405  13.021
19743W        W91414  22.833  35.105   0.286
19744W        W91415  28.336  27.428  14.054
19745W        W91416   9.462   8.839  11.186
19746W        W91417  40.307   2.421   3.112
19747W        W91418  40.045  27.121  13.829
19748W        W91419  21.587  32.173   3.663
19749W        W91420  33.914   8.424  13.981
19750W        W91421  11.102  16.079   1.859
19751W        W91422  18.558   1.808   3.161
19752W        W91423  20.725  27.910  14.831
19753W        W91424  11.801   7.613   4.108
19754W        W91425  33.372   0.888  12.345
19755W        W91426  18.164   6.823  10.913
19756W        W91427  26.214  17.830  13.747
19757W        W91428  42.950  42.957   0.944
19758W        W91429  33.745  32.114   4.312
19759W        W91430  26.121  27.580  13.330
19760W        W91431  35.826   1.272  13.374
19761W        W91432  22.234   6.257   0.336
19762W        W91433  32.522  23.410  13.627
19763W        W91434   5.333  11.107   1.835
19764W        W91435   0.963  15.194   1.762
19765W        W91436  26.937  26.146   3.348
19766W        W91437  10.375   4.133   4.431
19767W        W91438   1.258  27.573  13.844
19768W        W91439  31.655   8.733   4.262
19769W        W91440  30.327  30.507  11.571
19770W        W91441  19.714  30.096  10.832
19771W        W91442  18.210  39.354  13.942
19772W        W91443  12.319  15.332  13.452
19773W        W91444  12.867   5.978  12.612
19774W        W91445  44.870  16.666  14.300
19775W        W91446  15.546  42.418  11.098
19776W        W91447  31.719  42.575  10.809
19777W        W91448  26.093  28.511  13.270
19778W        W91449  10.763  28.848  13.319
19779W        W91450  26.625  32.391   1.957
19780W        W91451  39.749  29.160  11.867
19781W        W91452  17.748   5.878   2.238
19782W        W91453  21.063  32.689   3.232
19783W        W91454  23.980  20.443  11.042
19784W        W91455  20.498   1.239   3.408
19785W        W91456  18.747   9.125   0.227
19786W        W91457  27.068  42.303   5.004
19787W        W91458  39.576   2.426  10.797
19788W        W91459   6.453  31.455  14.434
19789W        W91460  34.559   1.397   0.867
19790W        W91461  30.983  43.798   3.147
19791W        W91462   3.705  21.197  10.679
19792W        W91463  40.849  44.327   0.989
19793W        W91464  16.876  43.032   9.804
19794W        W91465  24.962  22.142   4.675
19795W        W91466  31.913  26.855  10.974
19796W        W91467   1.684  27.140   0.027
19797W        W91468   6.801   2.070  13.310
19798W        W91469  42.381   3.699  14.862
19799W        W91470  35.041  33.595   0.511
19800W        W91471  16.359  39.174   3.811
19801W        W91472  43.371  13.224   0.029
19802W        W91473  20.199  37.265   3.803
19803W        W91474  36.092  30.404   0.136
19804W        W91475  35.040  15.271  12.458
19805W        W91476  35.391  27.236   1.033
19806W        W91477   6.999  23.651  14.214
19807W        W91478   4.834   0.704  13.834
19808W        W91479  26.603  31.819   0.153
19809W        W91480  37.412  30.334   2.911
19810W        W91481  33.443  41.008  14.790
19811W        W91482   7.044  31.470  13.788
19812W        W91483   7.659  24.705   2.857
19813W        W91484   7.865  31.027   4.550
19814W        W91485  44.567   2.728   3.877
19815W        W91486  13.905  41.879  13.837
19816W        W91487  32.916  27.900   4.103
19817W        W91488  23.411  10.233  12.484
19818W        W91489  27.005  43.902  14.782
19819W        W91490  19.901   1.813   3.362
19820W        W91491  39.708  29.451   3.320
19821W        W91492  32.073  22.546   2.366
19822W        W91493  34.305  41.830  11.119
19823W        W91494   6.121  18.617  11.857
19824W        W91495  19.079  33.317   4.697
19825W        W91496  35.008  30.901  13.821
19826W        W91497   4.904  43.301   5.079
19827W        W91498  12.684  26.534  13.535
19828W        W91499  33.287  32.742   1.472
19829W        W91500  30.571  28.077   3.273
19830W        W91501  20.398  31.015  11.194
19831W        W91502  12.315  34.749  12.624
19832W        W91503  25.597  40.857  14.661
19833W        W91504  28.602  43.697  11.097
19834W        W91505  37.873  38.023   3.295
19835W        W91506  40.076  41.295   4.184
19836W        W91507  27.803   5.033  10.876
19837W        W91508  33.152  18.889  13.039
19838W        W91509  18.712   8.913   0.721
19839W        W91510  41.576  41.483  10.931
19840W        W91511   2.169  11.148   3.138
19841W        W91512  33.408  31.558   9.907
19842W        W91513  27.467  33.161   3.267
19843W        W91514  15.763  24.983  12.800
19844W        W91515  22.129   7.928  11.571
19845W        W91516   9.620  15.686  10.700
19846W        W91517  24.139   3.735   1.830
19847W        W91518  10.338  23.658  13.267
19848W        W91519  25.762  26.817  12.223
19849W        W91520  14.083  11.319   4.607
19850W        W91521  38.737  42.950   3.421
19851W        W91522  26.883  16.308  12.496
19852W        W91523   7.634  18.038   4.255
19853W        W91524   7.192  23.664   3.132
19854W        W91525  23.475  42.364   2.187
19855W        W91526  39.364   4.372   2.164
19856W        W91527  12.703  18.572   3.682
19857W        W91528   9.876  39.288   1.071
19858W        W91529  32.572  43.687   0.449
19859W        W91530  43.035  32.485   1.500
19860W        W91531  26.726  23.734  11.582
19861W        W91532  22.438   9.267   3.816
19862W        W91533  32.434  21.811  12.201
19863W        W91534  35.465  14.097   4.412
19864W        W91535  26.954  21.969  14.446
19865W        W91536  39.014  13.982  11.027
19866W        W91537  19.056  24.052   1.274
19867W        W91538  38.970  31.291  10.559
19868W        W91539  33.675   7.753   2.583
19869W        W91540  29.512  20.872   3.592
19870W        W91541  11.369   6.866  11.665
19871W        W91542  37.059   1.395  13.921
19872W        W91543  35.030   1.896   2.810
19873W        W91544  10.250  29.573  14.947
19874W        W91545  36.997  11.835   0.927
19875W        W91546  24.644  14.249   4.176
19876W        W91547   7.063  10.751  13.505
19877W        W91548  14.259  26.702  11.124
19878W        W91549  19.677  42.772   0.319
19879W        W91550  16.822  20.084   1.380
19880W        W91551   0.751  23.979  10.577
19881W        W91552  35.043  31.957  11.682
19882W        W91553   3.136  34.887  14.864
19883W        W91554  26.469  39.945  11.181
19884W        W91555  21.227  39.899   2.361
19885W        W91556   3.224  26.551  13.546
19886W        W91557  22.782  14.865  14.977
19887W        W91558  25.603  41.799  14.358
19888W        W91559  30.895  34.199  13.568
19889W        W91560   4.303  33.285  12.432
19890W        W91561  19.754  35.088   3.643
19891W        W91562   3.497   0.498   2.229
19892W        W91563  17.623  26.237   1.841
19893W        W91564   3.418  31.041  14.535
19894W        W91565  25.403  44.426  13.501
19895W        W91566  37.504  10.179   2.842
19896W        W91567  35.569  19.459   1.754
19897W        W91568   9.550  34.429  14.199
19898W        W91569  29.623  44.649   0.428
19899W        W91570  15.703   1.588   2.806
19900W        W91571  43.834  44.991  10.638
19901W        W91572  21.554  16.720   2.332
19902W        W91573  25.621   8.610  12.047
19903W        W91574  21.110  42.019  12.089
19904W        W91575  37.860   7.090  11.502
19905W        W91576  26.748  30.997  14.945
19906W        W91577  12.819  34.393  10.425
19907W        W91578  41.906   0.672  14.410
19908W        W91579  32.022  12.717   3.071
19909W        W91580  10.786  39.864   4.479
19910W        W91581  42.066  35.149  14.936
19911W        W91582  43.462  17.716   1.912
19912W        W91583  37.088  34.022  12.092
19913W        W91584  27.982  20.134   2.649
19914W        W91585  23.530   9.643   2.639
19915W        W91586  28.014  36.102   3.628
19916W        W91587  14.000  31.754  11.057
19917W        W91588  13.032  19.741   0.265
19918W        W91589  27.677   4.923  14.800
19919W        W91590  29.102   9.312  10.979
19920W        W91591  24.689  11.540  11.221
19921W        W91592   4.239  35.314  11.457
19922W        W91593   2.467  30.129  14.808
19923W        W91594  44.702   9.822  13.314
19924W        W91595   6.907  28.318  14.241
19925W        W91596  20.657  27.183   3.757
19926W        W91597  21.489   5.259   4.971
19927W        W91598  32.210  18.576  11.173
19928W        W91599  35.560  10.381   0.212
19929W        W91600   4.870  29.741   4.938
19930W        W91601  14.520  11.681   4.175
19931W        W91602  41.319  33.729  11.083
19932W        W91603  30.953  29.475   1.336
19933W        W91604  35.058  34.634  12.563
19934W        W91605   3.527  24.685   3.043
19935W        W91606  36.407   0.513   4.606
19936W        W91607   8.738   5.643  10.913
19937W        W91608  17.652  32.617   4.291
19938W        W91609   8.260  34.506  14.489
19939W        W91610  44.198  25.552  10.951
19940W        W91611  13.963  27.201   4.437
19941W        W91612  14.202  22.181   4.582
19942W        W91613  16.635  16.555   1.002
19943W        W91614  25.313  35.387   4.587
19944W        W91615  29.795  32.895   0.928
19945W        W91616  19.506  40.399  13.887
19946W        W91617  25.081  44.318  11.367
19947W        W91618  39.207   0.778   4.139
19948W        W91619   1.946  13.681   4.685
19949W        W91620  39.487  25.943   3.226
19950W        W91621   1.046  20.597   0.550
19951W        W91622   2.360  38.364   4.435
19952W        W91623  39.604  39.982  12.950
19953W        W91624  13.169  20.565  13.321
19954W        W91625   8.213  30.593  13.344
19955W        W91626   0.479  15.071  13.383
19956W        W91627   9.727  23.003  11.471
19957W        W91628  29.548   8.811  11.402
19958W        W91629  20.579  42.810   4.045
19959W        W91630  31.097  12.157   3.863
19960W        W91631   3.887  14.664  14.780
19961W        W91632   6.398  43.120   4.840
19962W        W91633  35.943  31.604  12.920
19963W        W91634  13.788  16.682   5.042
19964W        W91635  42.917   4.689  10.479
19965W        W91636  30.267  28.089  13.729
19966W        W91637  12.258   0.181  11.697
19967W        W91638  34.107  18.137   1.475
19968W        W91639  32.167  14.832   2.226
19969W        W91640  27.933  35.905   3.139
19970W        W91641  37.317  27.538   2.255
19971W        W91642  42.461  41.735   0.981
19972W        W91643  16.967   4.774   5.061
19973W        W91644  43.817  25.587   4.974
19974W        W91645  18.076  30.590   1.777
19975W        W91646   2.301  18.320  12.836
19976W        W91647  37.582   1.422  13.894
19977W        W91648   9.623   5.173   3.249
19978W        W91649  30.034  18.146   1.274
19979W        W91650  26.727  11.612   2.910
19980W        W91651  38.016  18.823  10.143
19981W        W91652  38.271  39.971  14.300
19982W        W91653  17.087  11.376  13.389
19983W        W91654  41.365  17.150   2.232
19984W        W91655  11.873  12.160   1.576
19985W        W91656   2.150  34.065   4.318
19986W        W91657  20.206  36.483  13.598
19987W        W91658  31.608  21.253   1.934
19988W        W91659  12.895  44.712   3.247
19989W        W91660  17.303  41.464   3.670
19990W        W91661  13.846  21.661   1.813
19991W        W91662  18.835  37.746   4.997
19992W        W91663   9.380  37.910   4.130
19993W        W91664  21.763  31.841  12.883
19994W        W91665  31.186  24.643  12.643
19995W        W91666   6.613   6.230  14.428
19996W        W91667  15.040  21.565   2.117
19997W        W91668   9.532  27.057  14.880
19998W        W91669  14.189   9.805   1.582
19999W        W91670  39.736  16.246  12.093
20000W        W91671  36.131  16.638   1.499
20001W        W91672  22.122  20.026   3.186
20002W        W91673  13.370  14.673  10.932
20003W        W91674  12.314  31.331  11.917
20004W        W91675   8.857  27.892  13.599
20005W        W91676  13.704  24.191  13.788
20006W        W91677  18.336   6.596  12.496
20007W        W91678  14.170  13.558   1.447
20008W        W91679  17.106  19.070   1.192
20009W        W91680   4.234  34.827   4.264
20010W        W91681  35.841  44.967   3.242
20011W        W91682   4.169  39.877   1.289
20012W        W91683  19.709  33.221   4.225
20013W        W91684  40.232  28.523  11.825
20014W        W91685  42.307   1.004  14.427
20015W        W91686   8.889  28.318   3.671
20016W        W91687  25.232  22.915  13.486
20017W        W91688   8.424  10.170  12.486
20018W        W91689  26.707  23.933   9.650
20019W        W91690  27.125  26.326   3.844
20020W        W91691   2.454  13.337   2.626
20021W        W91692   6.679  29.545  12.607
20022W        W91693  37.547  24.195  13.914
20023W        W91694   7.985   4.904   2.747
20024W        W91695   4.997   2.331  12.918
20025W        W91696  35.039  18.020   4.553
20026W        W91697   6.913  29.260  11.875
20027W        W91698  18.044  21.748  13.734
20028W        W91699  37.948  44.360   4.384
20029W        W91700  27.567  17.170   2.190
20030W        W91701  15.790  27.188   1.773
20031W        W91702  18.698  22.151  11.790
20032W        W91703  40.280  20.774  11.092
20033W        W91704  32.351  23.692  11.948
20034W        W91705  16.538   4.899  12.400
20035W        W91706  25.728  41.736   4.018
20036W        W91707   4.429  15.723  11.164
20037W        W91708  21.036  27.914  10.705
20038W        W91709  32.059  25.074  11.465
20039W        W91710   7.659  40.272  11.542
20040W        W91711  31.470  35.806   3.329
20041W        W91712   0.109   6.071   0.430
20042W        W91713  14.078  36.111   3.933
20043W        W91714   8.751  28.406   0.339
20044W        W91715  22.734  11.360  11.173
20045W        W91716  25.961   9.810   1.806
20046W        W91717  30.433  19.508   4.268
20047W        W91718  38.367  40.062   2.865
20048W        W91719   9.729   0.361  12.661
20049W        W91720  15.501  23.270  11.948
20050W        W91721  14.771  42.892   2.911
20051W        W91722  28.600  44.965  13.388
20052W        W91723   1.322  40.288   1.892
20053W        W91724  21.881  11.845  12.973
20054W        W91725  32.570  18.255  12.971
20055W        W91726  36.602  20.182   1.267
20056W        W91727  38.958  13.797  13.999
20057W        W91728  26.224  13.321  11.212
20058W        W91729  19.739   0.280   2.960
20059W        W91730  33.558  17.711   0.851
20060W        W91731  18.759   7.441  11.100
20061W        W91732  44.454   5.876  14.782
20062W        W91733  10.075  17.537   3.738
20063W        W91734  27.046  12.610  12.471
20064W        W91735   6.453   7.365  12.056
20065W        W91736  21.120  34.192  12.981
20066W        W91737  44.454  14.607   5.056
20067W        W91738  13.136  15.469   3.741
20068W        W91739   4.670   1.772   4.857
20069W        W91740   7.756  21.669  13.143
20070W        W91741  34.638  44.265  13.887
20071W        W91742  14.087  37.581  13.077
20072W        W91743  29.301  37.441   1.524
20073W        W91744   7.160  37.936  13.587
20074W        W91745   2.497   7.844   0.756
20075W        W91746  13.382   9.337   3.868
20076W        W91747  23.766   3.899  12.012
20077W        W91748  25.583  43.216  12.967
20078W        W91749   4.190   0.293   2.794
20079W        W91750  14.926  36.546   1.007
20080W        W91751  22.646   2.404   2.385
20081W        W91752  43.278  18.670  14.522
20082W        W91753  13.207  37.400  14.371
20083W        W91754  11.850  23.992   3.128
20084W        W91755   9.744   7.427   4.543
20085W        W91756  16.056  21.480   4.136
20086W        W91757  38.506  32.172   1.957
20087W        W91758   9.905   1.442  10.964
20088W        W91759  13.278   0.453  11.446
20089W        W91760  12.277   9.567  13.059
20090W        W91761  10.406   7.363   4.222
20091W        W91762  35.850   1.932  13.752
20092W        W91763  34.409  38.679   9.474
20093W        W91764  41.886  28.120   3.825
20094W        W91765  22.284   1.887   3.725
20095W        W91766  14.802   0.315  13.901
20096W        W91767   3.061  35.613  14.314
20097W        W91768  10.390  26.034   4.388
20098W        W91769  25.949  19.679   1.935
20099W        W91770   8.747  43.470  14.339
20100W        W91771  26.643  23.216  13.272
20101W        W91772  42.955  25.736  10.767
20102W        W91773  26.219  42.957  12.507
20103W        W91774  38.103   8.661  11.062
20104W        W91775  40.650  14.043   3.407
20105W        W91776  34.404  25.858  14.152
20106W        W91777  28.602  14.093  11.373
20107W        W91778  38.499  21.240   4.512
20108W        W91779   1.609  10.203   4.190
20109W        W91780  34.595  16.276   1.893
20110W        W91781  19.575  25.160  13.558
20111W        W91782  12.147   2.764   1.881
20112W        W91783  24.135  39.128   1.985
20113W        W91784   7.303  25.643  14.802
20114W        W91785   8.834  37.165  11.893
20115W        W91786  10.644   2.136  12.076
20116W        W91787  18.711   2.735  13.485
20117W        W91788  31.916  29.539   4.567
20118W        W91789  30.521  23.365  13.453
20119W        W91790  22.221   6.224   3.557
20120W        W91791  35.610  20.305   1.377
20121W        W91792   0.291  36.040  14.984
20122W        W91793  32.637  20.947   2.760
20123W        W91794  21.870  10.637  14.032
20124W        W91795  33.844  25.956   1.545
20125W        W91796  38.003  19.561  14.527
20126W        W91797   2.850  22.299   0.440
20127W        W91798  28.232  27.570   3.370
20128W        W91799  22.770  37.654  11.938
20129W        W91800  10.944  32.043   3.563
20130W        W91801  23.097  14.986  12.389
20131W        W91802   2.796  23.147   3.801
20132W        W91803   8.337  32.883  10.747
20133W        W91804  38.752  35.059   1.694
20134W        W91805   2.756   3.328   3.577
20135W        W91806   1.950  15.290  11.294
20136W        W91807   4.690  17.795  11.156
20137W        W91808  43.113  39.876  14.159
20138W        W91809  25.172  41.879  10.367
20139W        W91810  12.708   4.779  14.358
20140W        W91811  30.543  26.969  12.399
20141W        W91812   6.695  31.466  12.570
20142W        W91813  36.882  36.645  12.348
20143W        W91814   8.258  26.298   4.508
20144W        W91815  27.544  40.613   2.644
20145W        W91816  33.462  26.982   4.544
20146W        W91817   9.769  24.453   2.763
20147W        W91818  44.441  15.264  12.312
20148W        W91819  32.443  16.190  12.539
20149W        W91820  28.591   0.498   3.120
20150W        W91821  38.089   6.622  10.939
20151W        W91822  16.786  24.472  11.701
20152W        W91823  39.102  43.961   2.176
20153W        W91824  33.066  14.252  13.927
20154W        W91825  30.662  28.324  11.935
20155W        W91826  22.531  41.362   3.735
20156W        W91827   4.783  22.249  14.378
20157W        W91828  26.412  39.572   0.260
20158W        W91829  16.159  14.517   1.063
20159W        W91830  25.524  25.518  12.072
20160W        W91831   2.972  23.470   1.310
20161W        W91832  33.597   8.945  13.549
20162W        W91833  43.939  32.982  13.461
20163W        W91834  15.253  20.003  13.790
20164W        W91835  27.442  25.478   3.676
20165W        W91836   4.414   0.804  11.149
20166W        W91837  23.348  26.570  12.099
20167W        W91838  28.555   3.101  12.179
20168W        W91839  37.328  29.553  11.110
20169W        W91840  33.813  10.898   3.393
20170W        W91841  20.405  26.989  10.448
20171W        W91842  19.971  10.669   4.635
20172W        W91843  41.908  39.483  13.081
20173W        W91844  36.310  30.577  11.979
20174W        W91845  13.554   3.052  14.830
20175W        W91846   5.683   1.552  12.433
20176W        W91847  31.524  39.897   2.767
20177W        W91848  20.871  25.749   2.606
20178W        W91849   0.301  15.570   1.276
20179W        W91850   8.238  19.784   2.427
20180W        W91851  33.589  12.868  10.459
20181W        W91852   6.118  15.083   4.637
20182W        W91853  31.555  37.776   3.231
20183W        W91854  31.447  17.987  14.043
20184W        W91855  22.925  34.323  13.065
20185W        W91856  41.914  33.144  12.056
20186W        W91857  26.209  22.296  12.930
20187W        W91858   9.761  10.304  13.520
20188W        W91859  44.373  20.432   0.457
20189W        W91860  35.793   4.970   0.399
20190W        W91861  36.962  10.374   3.107
20191W        W91862   4.375   4.319   0.917
20192W        W91863  26.074  25.649   3.657
20193W        W91864  32.628   7.725  14.054
20194W        W91865  40.825   4.345  11.481
20195W        W91866  23.974  38.228  13.237
20196W        W91867  18.754  20.466   2.171
20197W        W91868  12.389   2.909  12.467
20198W        W91869   2.846  35.045   1.910
20199W        W91870  15.761  44.029   4.284
20200W        W91871  23.059   6.952  13.476
20201W        W91872  30.155  44.984   0.202
20202W        W91873   4.338  39.619  14.312
20203W        W91874   5.234  15.272  13.847
20204W        W91875  31.118  23.624  10.682
20205W        W91876   7.581   2.292  10.761
20206W        W91877  36.809  38.958   0.685
20207W        W91878   2.010  21.058  13.865
20208W        W91879  12.395  40.541  12.814
20209W        W91880  24.084  23.614  10.852
20210W        W91881  15.234  38.830  14.271
20211W        W91882  43.363  39.428  14.837
20212W        W91883  28.705  32.426   0.039
20213W        W91884  33.092  26.145  13.557
20214W        W91885  41.163  35.897  11.257
20215W        W91886   0.458  38.718  13.793
20216W        W91887  22.195   5.682  14.973
20217W        W91888  19.576  25.943  11.637
20218W        W91889  22.011   2.983  14.878
20219W        W91890   1.336  12.777  13.889
20220W        W91891   9.100  17.290   4.669
20221W        W91892  27.146  37.602   3.177
20222W        W91893   5.186  23.386  13.645
20223W        W91894  29.001  21.549  11.966
20224W        W91895  13.290  26.769   4.311
20225W        W91896  12.171  21.376  14.429
20226W        W91897  31.981  27.780   0.853
20227W        W91898  12.392  22.755   2.091
20228W        W91899  25.450  11.866  12.505
20229W        W91900   1.667  25.179   2.811
20230W        W91901  39.944   4.971   4.585
20231W        W91902  26.177  40.065  12.042
20232W        W91903  12.408  42.434  13.397
20233W        W91904  27.503   1.245  12.546
20234W        W91905   7.246  29.863  11.202
20235W        W91906  30.857  28.048  12.355
20236W        W91907  31.277  34.511  11.275
20237W        W91908  27.144  10.338  12.014
20238W        W91909   4.998  33.094   4.787
20239W        W91910  21.736  21.679  13.603
20240W        W91911  34.399  31.535  11.062
20241W        W91912  38.565  27.693  14.810
20242W        W91913  37.778  10.352  13.506
20243W        W91914  33.193  36.891   2.178
20244W        W91915   1.945  24.973  14.871
20245W        W91916  19.696  38.548  12.525
20246W        W91917  19.846   6.300  14.880
20247W        W91918  22.072  43.911   3.345
20248W        W91919  10.201  14.293  14.045
20249W        W91920   1.284  13.222  10.831
20250W        W91921  38.526  37.882   2.265
20251W        W91922  26.786  23.063   1.940
20252W        W91923  10.323  23.556   4.130
20253W        W91924  29.670  13.351   3.241
20254W        W91925  12.223  36.816   1.276
20255W        W91926  43.908   5.182  13.355
20256W        W91927  44.858  12.129  10.298
20257W        W91928   2.772  16.038   4.467
20258W        W91929   0.677  24.871   2.446
20259W        W91930  32.835  19.611   0.718
20260W        W91931   4.323  25.206  11.209
20261W        W91932   6.819  37.377   0.724
20262W        W91933  20.484  44.478  10.552
20263W        W91934  33.155   7.667  11.637
20264W        W91935  12.129  11.319  13.389
20265W        W91936   4.749  17.526  10.731
20266W        W91937  33.961  38.910  14.814
20267W        W91938  42.220   4.703   0.729
20268W        W91939  13.599   8.390   3.498
20269W        W91940   6.827  39.989  14.740
20270W        W91941  32.538  12.607   0.170
20271W        W91942  27.393  44.671   1.852
20272W        W91943  20.021  16.183  11.534
20273W        W91944  31.555   4.362   0.940
20274W        W91945  29.803   3.011  11.929
20275W        W91946   1.936   5.666  12.632
20276W        W91947   6.743   4.840  13.371
20277W        W91948  31.358  29.646   0.344
20278W        W91949  35.747  13.665  14.274
20279W        W91950  18.135  16.860   0.715
20280W        W91951   3.668  41.942  12.136
20281W        W91952  42.030  37.408   2.815
20282W        W91953  27.108  20.129   4.357
20283W        W91954   1.546  12.813  14.370
20284W        W91955   8.522  23.720   0.134
20285W        W91956   3.649  36.350  12.447
20286W        W91957  27.616  16.189   4.333
20287W        W91958   5.840   8.528   4.353
20288W        W91959  38.563  30.216   0.400
20289W        W91960  18.733  42.564   1.945
20290W        W91961  17.169  25.089  13.891
20291W        W91962  33.846  23.129   3.144
20292W        W91963  30.578  20.662  10.600
20293W        W91964  27.426   6.483  13.326
20294W        W91965   1.674  39.079  12.521
20295W        W91966  33.464  30.204  11.679
20296W        W91967  43.547  28.062   1.206
20297W        W91968  40.391  10.389   4.018
20298W        W91969  19.157  44.022  11.133
20299W        W91970  12.179   4.772  14.508
20300W        W91971  35.458  29.893  14.347
20301W        W91972  20.394  24.982   2.143
20302W        W91973   9.748   8.141  13.136
20303W        W91974   4.927  44.751  14.117
20304W        W91975  23.611  38.571   2.351
20305W        W91976  23.767  39.060  12.098
20306W        W91977  36.783  32.183  14.508
20307W        W91978  36.960  42.214   1.484
20308W        W91979  40.640  23.025  10.700
20309W        W91980   6.407  16.069   0.388
20310W        W91981  13.897  11.603  14.568
20311W        W91982   8.956  20.194  14.335
20312W        W91983  31.040   6.721   0.258
20313W        W91984  16.032   9.966   1.321
20314W        W91985  17.267  31.696  14.883
20315W        W91986   0.720   2.241  13.613
20316W        W91987  33.638   9.877  13.505
20317W        W91988  22.621  35.060   1.261
20318W        W91989  21.268  12.921   3.149
20319W        W91990  15.662  30.145  11.903
20320W        W91991   9.453  28.850   1.718
20321W        W91992  19.704   4.235  14.515
20322W        W91993   9.796  19.167   3.815
20323W        W91994   6.162  42.033  10.996
20324W        W91995  21.168  12.750   0.837
20325W        W91996  15.323   8.559   1.030
20326W        W91997  23.665  43.081  11.135
20327W        W91998  41.209  43.954   1.024
20328W        W91999   9.715  36.658  13.795
20329W        W92000  17.990  32.947  11.547
20330W        W92001  26.481  23.969   3.636
20331W        W92002   3.321   2.890   4.628
20332W        W92003  26.713   5.671   2.121
20333W        W92004  22.622  24.315  10.172
20334W        W92005  37.394  35.405  14.489
20335W        W92006  26.988  37.978   0.380
20336W        W92007  22.553  33.365   0.763
20337W        W92008  30.572  29.701  13.814
20338W        W92009   7.346  41.558   2.595
20339W        W92010  44.728  11.677   2.640
20340W        W92011  34.461  38.647   0.801
20341W        W92012  43.197   3.921  10.407
20342W        W92013  17.616  38.504  13.802
20343W        W92014  36.912  23.601   4.524
20344W        W92015  42.840   8.162   3.384
20345W        W92016  24.805  43.361   1.854
20346W        W92017  36.587   9.277   1.063
20347W        W92018   7.780  44.679   2.372
20348W        W92019  38.229  43.486   0.122
20349W        W92020  30.617   9.433  13.687
20350W        W92021  20.153  16.336   2.241
20351W        W92022   0.455  22.970   4.802
20352W        W92023  30.172  13.862  14.735
20353W        W92024  43.510   4.984  12.061
20354W        W92025  28.366   7.281  14.365
20355W        W92026  20.952  42.311  11.621
20356W        W92027  12.801  26.114   2.863
20357W        W92028   7.986  22.521   4.475
20358W        W92029   8.104  41.860   1.495
20359W        W92030  32.430  18.375  13.455
20360W        W92031  23.981  22.583  11.190
20361W        W92032  28.625  33.601   1.698
20362W        W92033  37.575  38.977  13.433
20363W        W92034  33.462  41.879   3.583
20364W        W92035  11.567  33.120   3.857
20365W        W92036  37.040  22.110   0.194
20366W        W92037  31.590   1.325  14.036
20367W        W92038   6.167  38.968   1.377
20368W        W92039  22.258  14.660  13.473
20369W        W92040  12.733  30.229  14.641
20370W        W92041   1.976  26.534  13.933
20371W        W92042  21.489  36.056  10.409
20372W        W92043  33.797  34.795  12.945
20373W        W92044  27.975   9.262   2.253
20374W        W92045  37.900  32.901  11.584
20375W        W92046  12.149  14.294  13.577
20376W        W92047  37.472   7.971   2.952
20377W        W92048  39.879   1.720  14.031
20378W        W92049  15.993  40.052  13.806
20379W        W92050  21.259  28.679   3.753
20380W        W92051  14.593  38.911  11.437
20381W        W92052  16.790   7.257  10.658
20382W        W92053  10.395  14.082  14.914
20383W        W92054  40.822  43.768   1.332
20384W        W92055  26.571   3.760   0.447
20385W        W92056   9.727  14.111   2.392
20386W        W92057  41.547   1.219   1.258
20387W        W92058   9.274   0.407  14.413
20388W        W92059   5.271   7.671  12.181
20389W        W92060  25.303  39.270   4.646
20390W        W92061  44.885  18.566   0.226
20391W        W92062  36.899  41.674  12.544
20392W        W92063  41.778  31.569  12.021
20393W        W92064  12.611  26.604   2.837
20394W        W92065   1.970  16.201   1.661
20395W        W92066  43.491  28.502  10.734
20396W        W92067  12.400   8.801  14.922
20397W        W92068  23.331  11.877  12.160
20398W        W92069  12.439  16.057  10.621
20399W        W92070  41.844  41.984   0.218
20400W        W92071   1.931  14.817   5.027
20401W        W92072  34.771  41.817   1.336
20402W        W92073   0.040  28.295  10.988
20403W        W92074  34.501   7.601   2.145
20404W        W92075  38.257   9.056  13.915
20405W        W92076   0.169  40.410  13.553
20406W        W92077  31.104   4.475   2.804
20407W        W92078  20.753  38.892   2.293
20408W        W92079  38.942  34.256   1.061
20409W        W92080   7.160  41.884  14.143
20410W        W92081  11.298  14.157   4.564
20411W        W92082  42.894  39.050  12.133
20412W        W92083   1.946   6.435  13.282
20413W        W92084  30.457   8.321   4.289
20414W        W92085  21.763  24.425   0.867
20415W        W92086  11.999  12.318  11.015
20416W        W92087  25.507  33.986   1.348
20417W        W92088   3.731   0.514   2.723
20418W        W92089  11.904  12.608   3.272
20419W        W92090   1.463  24.117   2.861
20420W        W92091  42.527  33.433   3.261
20421W        W92092   8.691  23.255   1.853
20422W        W92093  32.566   8.649   1.895
20423W        W92094  13.799  34.355   2.128
20424W        W92095  23.456   1.399  11.048
20425W        W92096  15.883   4.816   2.874
20426W        W92097  13.364  18.102  13.383
20427W        W92098  12.703  40.818   0.285
20428W        W92099  43.924  12.472   0.474
20429W        W92100  20.821  23.626   1.182
20430W        W92101  39.081  30.937   3.002
20431W        W92102  42.429  44.730  10.660
20432W        W92103   6.563  27.870  11.636
20433W        W92104  17.783  41.434  10.518
20434W        W92105   3.387  29.609  13.968
20435W        W92106  31.062  10.216   4.507
20436W        W92107  18.731  32.646   2.109
20437W        W92108  25.054  13.788   4.620
20438W        W92109  24.438   6.946  14.779
20439W        W92110  10.324  42.466   2.389
20440W        W92111   4.891  30.659   9.772
20441W        W92112  44.043  10.105   0.014
20442W        W92113  22.704  40.865  13.595
20443W        W92114  23.514  22.191  11.601
20444W        W92115  10.196  30.313  13.337
20445W        W92116  29.398  35.276  13.420
20446W        W92117  29.983  38.461   3.335
20447W        W92118   5.786  37.428   2.192
20448W        W92119   2.890   1.400   2.922
20449W        W92120  13.767  30.867   4.756
20450W        W92121  19.729  33.539  13.929
20451W        W92122  31.045   1.873   2.305
20452W        W92123  44.715  42.701   2.464
20453W        W92124  44.970  25.914   3.120
20454W        W92125   0.446  22.157   3.256
20455W        W92126  37.344  20.642   0.785
20456W        W92127  41.398  23.740  11.125
20457W        W92128   9.423   3.768  13.541
20458W        W92129   0.034   4.110   2.880
20459W        W92130  42.374   5.873  10.665
20460W        W92131   5.851  44.820  10.658
20461W        W92132  29.044   9.363  11.490
20462W        W92133   5.368  21.131   1.290
20463W        W92134  22.318  44.974  14.960
20464W        W92135  26.953  11.652  12.675
20465W        W92136  40.512  14.295  14.454
20466W        W92137  26.124  37.279  12.093
20467W        W92138  22.133  38.144   4.882
20468W        W92139  22.888  43.489  13.126
20469W        W92140   5.421  41.962   3.247
20470W        W92141   0.268  32.680  14.796
20471W        W92142  41.393  18.659   2.234
20472W        W92143  15.864  44.466   3.280
20473W        W92144  23.499   0.769   4.060
20474W        W92145  41.427  29.045  10.739
20475W        W92146  24.156  19.441   1.766
20476W        W92147  16.637  32.357  12.864
20477W        W92148  23.621  29.995   4.627
20478W        W92149  14.589  31.427   4.189
20479W        W92150  25.185  34.631  13.318
20480W        W92151  41.453  44.048   2.694
20481W        W92152  40.029   3.618  11.152
20482W        W92153  28.380  14.113  12.027
20483W        W92154  40.080   7.923   0.397
20484W        W92155  34.107  30.962   2.360
20485W        W92156  18.989  11.220  13.334
20486W        W92157  37.523  33.297   4.099
20487W        W92158  40.808  23.079  11.725
20488W        W92159   7.784   5.962  13.041
20489W        W92160  44.809  33.316   3.173
20490W        W92161  40.096  30.519  11.804
20491W        W92162  34.929  30.066   2.660
20492W        W92163  31.139   9.708  12.514
20493W        W92164  18.614  44.782   3.063
20494W        W92165  37.098   0.982   1.455
20495W        W92166  20.789   3.984  10.839
20496W        W92167   0.031  38.549  12.390
20497W        W92168  38.257  11.238  14.467
20498W        W92169  35.394  13.693   3.192
20499W        W92170  34.913   2.662  13.521
20500W        W92171  18.555  40.831  12.671
20501W        W92172   8.126  37.931  11.063
20502W        W92173  24.200  20.627  10.602
20503W        W92174   0.893  30.372   4.710
20504W        W92175  39.889  38.023   2.734
20505W        W92176   2.516  44.619  12.944
20506W        W92177  28.831  10.274   2.955
20507W        W92178   5.385   3.254   3.088
20508W        W92179  17.108  35.722  10.175
20509W        W92180  31.942  37.384  13.598
20510W        W92181  27.853  23.014  11.869
20511W        W92182  17.807  31.677   3.233
20512W        W92183  35.531  12.754  13.918
20513W        W92184  29.039  11.434   2.407
20514W        W92185  11.400  23.653   0.267
20515W        W92186   7.845  33.906   1.917
20516W        W92187  32.959   7.817   4.553
20517W        W92188  26.657  31.227  11.586
20518W        W92189   6.183   0.259   4.682
20519W        W92190  23.225  42.761   5.186
20520W        W92191  24.621  12.477  11.066
20521W        W92192  13.695  12.194  11.970
20522W        W92193  35.121  14.508  14.151
20523W        W92194  26.187  32.591   3.749
20524W        W92195   3.059   6.120  11.072
20525W        W92196  17.997  12.131   2.393
20526W        W92197  38.778  40.817   4.140
20527W        W92198  22.612   7.966   9.864
20528W        W92199  28.276  11.197  13.984
20529W        W92200  24.014  11.063   3.730
20530W        W92201  36.483  36.519   5.479
20531W        W92202   6.446   7.153  10.341
20532W        W92203  37.049  34.570  14.418
20533W        W92204  26.038  29.429  12.873
20534W        W92205  12.558  26.282   3.679
20535W        W92206  35.996  44.533   1.010
20536W        W92207  27.246   5.965   3.884
20537W        W92208  44.090  18.960  11.922
20538W        W92209  25.471  43.855   4.482
20539W        W92210  29.546   5.943  14.448
20540W        W92211  14.291  29.131  12.341
20541W        W92212  16.461  13.735   4.899
20542W        W92213  41.122  14.233   0.077
20543W        W92214  28.431  39.456   3.743
20544W        W92215  35.546  38.357  11.565
20545W        W92216  20.131  24.182   0.941
20546W        W92217  19.470  33.465   2.721
20547W        W92218  14.185  17.818  10.476
20548W        W92219   8.377  40.559  12.081
20549W        W92220  18.527  39.484  13.449
20550W        W92221   2.338  42.442   4.506
20551W        W92222   5.613  43.608  11.555
20552W        W92223  15.331  22.709  13.441
20553W        W92224  27.387   3.730  13.461
20554W        W92225  34.385   3.733   3.853
20555W        W92226  22.603   3.407   2.590
20556W        W92227  34.036   7.327   5.023
20557W        W92228  43.796   8.687  14.933
20558W        W92229  17.357   1.325  14.940
20559W        W92230  36.317  24.914  12.816
20560W        W92231  11.709   0.305   0.762
20561W        W92232  42.858  18.020   3.929
20562W        W92233   3.406   3.791  13.021
20563W        W92234  37.990  33.114  11.090
20564W        W92235  41.271   4.447  13.482
20565W        W92236  43.304   4.251  14.512
20566W        W92237  18.106  38.424  12.880
20567W        W92238  11.377  41.850  13.853
20568W        W92239  18.400  17.403   4.920
20569W        W92240  36.602  36.303   1.641
20570W        W92241  12.107  11.422  11.029
20571W        W92242  17.230  37.898  11.696
20572W        W92243  27.027  26.216  13.142
20573W        W92244  17.138  29.888  14.991
20574W        W92245  18.675  40.085  10.990
20575W        W92246  21.677  41.274   2.158
20576W        W92247  26.936  31.053  11.165
20577W        W92248  34.210  35.995  13.992
20578W        W92249  44.531  39.682   3.192
20579W        W92250  39.755  29.019  14.409
20580W        W92251   4.436   9.616  12.013
20581W        W92252  23.919  34.038   4.749
20582W        W92253  41.284  25.982   3.600
20583W        W92254  15.293  16.695  14.344
20584W        W92255  36.432  32.343  12.461
20585W        W92256  27.321  25.967   4.158
20586W        W92257  41.941  23.718   4.131
20587W        W92258   2.054   7.513   1.628
20588W        W92259  24.925  15.330   0.440
20589W        W92260  27.946  40.503  10.977
20590W        W92261  21.229   2.291  13.005
20591W        W92262  25.250  38.833  13.527
20592W        W92263  41.790  33.677  13.838
20593W        W92264  19.257  12.670  12.965
20594W        W92265  26.602  32.306   1.422
20595W        W92266  16.860  10.306   1.353
20596W        W92267  38.129  38.173  12.065
20597W        W92268  11.337  27.247  10.467
20598W        W92269  19.459  34.106  13.884
20599W        W92270  26.981  33.567   4.338
20600W        W92271   8.162   3.962  11.606
20601W        W92272   0.902  35.957  14.765
20602W        W92273  41.856   4.073   3.249
20603W        W92274  21.605  13.287   2.976
20604W        W92275  25.007  16.461   1.211
20605W        W92276  29.854  35.072   3.328
20606W        W92277  19.553  29.161   3.245
20607W        W92278  44.426  36.841   4.615
20608W        W92279  13.405  40.317   0.314
20609W        W92280  12.714  33.514   2.259
20610W        W92281   4.615  20.044  10.544
20611W        W92282  25.612   0.445   5.102
20612W        W92283  27.380   9.434  10.690
20613W        W92284  36.684  21.438  13.964
20614W        W92285  18.186   1.813   0.298
20615W        W92286  21.617  11.048   1.433
20616W        W92287  23.067  11.677  11.525
20617W        W92288   5.254  21.562  13.037
20618W        W92289  42.186  33.536  12.570
20619W        W92290   0.323  17.851   2.175
20620W        W92291   9.678  14.321   1.011
20621W        W92292  44.732  42.275  11.591
20622W        W92293  15.405  10.833  14.537
20623W        W92294  27.986  22.984  10.661
20624W        W92295  41.563  32.549  14.371
20625W        W92296  23.059  38.036   1.539
20626W        W92297   5.964   8.138  13.040
20627W        W92298  26.533  38.588  12.007
20628W        W92299   7.270  13.300   0.974
20629W        W92300   8.733  14.558   5.029
20630W        W92301  41.544  10.420  14.979
20631W        W92302  44.755   6.338  11.533
20632W        W92303   1.358  18.809  12.967
20633W        W92304   0.051  12.858   0.335
20634W        W92305  16.807  30.402  12.083
20635W        W92306  44.258  34.324  14.774
20636W        W92307  39.885  17.577  11.183
20637W        W92308  30.589  24.986   3.451
20638W        W92309  12.130  11.772   0.404
20639W        W92310  40.886   5.311  13.232
20640W        W92311   8.687  41.959   0.415
20641W        W92312   1.314  23.670   3.213
20642W        W92313  41.154  32.986   2.826
20643W        W92314  39.909  37.356   3.218
20644W        W92315  43.499  41.505   3.995
20645W        W92316  20.582   4.960  12.449
20646W        W92317   3.432  14.785  13.983
20647W        W92318  26.519   1.157  12.565
20648W        W92319  18.885   2.263  13.702
20649W        W92320  33.451  19.612   1.269
20650W        W92321  12.242  28.137   2.764
20651W        W92322  40.419   2.566  14.608
20652W        W92323   7.848  27.307   3.916
20653W        W92324   8.725   9.610  13.154
20654W        W92325  11.883   3.561   2.772
20655W        W92326  37.434  24.125  12.170
20656W        W92327  24.985  23.126  14.800
20657W        W92328  34.424  11.119  10.688
20658W        W92329  10.298  17.290   4.667
20659W        W92330   8.849  41.795  10.627
20660W        W92331  28.415  23.105   2.011
20661W        W92332  41.940  44.415   0.350
20662W        W92333   3.294  30.649  12.962
20663W        W92334  29.056   4.837   2.164
20664W        W92335  26.902  24.095   4.055
20665W        W92336  10.683  32.260  11.349
20666W        W92337   4.916  37.299   3.054
20667W        W92338  24.917   5.757   3.039
20668W        W92339  31.046  27.661  12.600
20669W        W92340  32.489  40.755   3.246
20670W        W92341   7.744  10.422  14.935
20671W        W92342  22.330   3.913  14.281
20672W        W92343  18.315  31.615   3.261
20673W        W92344  30.122   2.331  12.335
20674W        W92345   7.725  40.217   0.393
20675W        W92346   1.511  32.618  14.298
20676W        W92347  42.395  28.685  11.073
20677W        W92348  11.401  16.669  10.602
20678W        W92349  10.686  22.218   0.382
20679W        W92350  12.331  33.410   0.332
20680W        W92351  16.058  29.493  11.632
20681W        W92352  13.815  11.382   2.261
20682W        W92353   1.476  41.772   1.915
20683W        W92354  32.200  18.027   2.149
20684W        W92355  19.559  35.196   3.157
20685W        W92356  26.082  38.996  14.832
20686W        W92357   5.474  38.505   1.078
20687W        W92358  16.973  35.627   2.179
20688W        W92359  17.785  18.164   4.841
20689W        W92360  40.456  34.855   2.415
20690W        W92361  19.548   3.142   0.486
20691W        W92362  27.691  16.653   2.279
20692W        W92363  33.982  34.895   2.728
20693W        W92364  14.642  44.977   1.658
20694W        W92365  13.604  44.757  13.494
20695W        W92366  27.714  21.802   4.230
20696W        W92367  31.049  16.771   0.462
20697W        W92368  11.680   1.573   3.541
20698W        W92369  29.222  38.411   3.753
20699W        W92370  44.290  16.596   4.730
20700W        W92371  43.451   8.075  11.692
20701W        W92372   1.677  41.382   2.242
20702W        W92373  36.780  31.919  14.058
20703W        W92374  35.110  15.156  14.206
20704W        W92375  21.192   1.969  10.859
20705W        W92376  15.013  42.896   1.992
20706W        W92377  18.278   4.358  12.846
20707W        W92378   6.377  40.398   1.685
20708W        W92379  30.638  13.229  10.711
20709W        W92380  28.035  11.756   3.098
20710W        W92381  17.763  19.744  13.640
20711W        W92382  30.641  13.866  14.968
20712W        W92383   1.853  24.831  11.655
20713W        W92384   7.356  41.895  10.733
20714W        W92385   4.450  37.844   0.382
20715W        W92386  27.438  39.586   2.800
20716W        W92387  14.083  14.172   4.066
20717W        W92388   8.750  13.686   1.943
20718W        W92389  30.945  19.820   3.412
20719W        W92390  37.882  15.868   1.186
20720W        W92391  26.576  38.069  11.189
20721W        W92392  22.278   9.075   2.940
20722W        W92393  31.229  16.704   3.637
20723W        W92394  35.679  27.920   4.674
20724W        W92395   9.297  24.270  14.825
20725W        W92396   4.261   0.998   4.756
20726W        W92397  32.654  15.050  12.040
20727W        W92398  11.618  34.213  11.271
20728W        W92399   9.461  34.569   2.298
20729W        W92400   1.108  26.534  11.652
20730W        W92401   0.164   0.029  12.403
20731W        W92402  41.642  25.704   0.858
20732W        W92403  27.694  25.171  14.363
20733W        W92404  18.676   6.468  11.147
20734W        W92405  40.036  36.900  11.076
20735W        W92406  42.748  37.479   0.528
20736W        W92407   3.253   1.578   9.908
20737W        W92408  10.338  28.944   1.524
20738W        W92409  42.461   7.368   1.194
20739W        W92410   9.338  30.522   3.758
20740W        W92411   7.089  37.303  14.063
20741W        W92412  16.172  15.993   2.334
20742W        W92413   6.756   7.965   3.645
20743W        W92414  11.670  35.019  13.825
20744W        W92415  27.106  26.210  14.897
20745W        W92416  40.027   6.712  14.894
20746W        W92417  15.442  13.569  12.401
20747W        W92418   3.387   5.271   2.621
20748W        W92419  36.050   2.190  13.354
20749W        W92420   4.372  18.855  14.823
20750W        W92421  24.992  21.836   1.605
20751W        W92422  23.573  12.122   4.175
20752W        W92423  15.554  33.044   0.186
20753W        W92424  40.410   8.672  10.977
20754W        W92425  18.212  35.786   2.742
20755W        W92426   0.004  44.552  12.445
20756W        W92427  28.878   9.726   1.845
20757W        W92428   4.409   6.308   1.661
20758W        W92429  22.711   1.743   5.224
20759W        W92430  28.563  14.676   3.850
20760W        W92431  10.578  20.800  13.769
20761W        W92432  12.203  30.342   4.142
20762W        W92433  28.583  44.332  12.432
20763W        W92434  44.295   2.511   1.810
20764W        W92435  17.121  15.147  13.885
20765W        W92436  40.543   6.861  12.935
20766W        W92437  30.093   5.180  13.482
20767W        W92438  29.100  14.109   1.167
20768W        W92439  42.562  38.264   4.565
20769W        W92440  43.997  20.013  12.083
20770W        W92441  35.635  19.471  14.489
20771W        W92442  20.147  15.134   2.753
20772W        W92443  31.961   0.940  13.889
20773W        W92444  29.406  14.632   2.840
20774W        W92445  27.462   8.881   4.635
20775W        W92446  40.541  21.513  10.645
20776W        W92447  15.363  37.490  13.779
20777W        W92448   7.554   5.271   3.851
20778W        W92449  33.065  37.957   1.346
20779W        W92450   2.715  30.546   0.021
20780W        W92451  14.305  39.466   1.631
20781W        W92452  14.683  37.377   2.343
20782W        W92453  20.472   8.793   0.845
20783W        W92454  37.040  18.811  14.293
20784W        W92455   3.699  13.758   3.807
20785W        W92456   7.436  39.279  13.852
20786W        W92457  24.764  36.941   4.641
20787W        W92458   1.436  29.682   2.248
20788W        W92459   0.953  37.765  13.911
20789W        W92460  35.145  41.280  13.793
20790W        W92461  33.993   7.294   4.011
20791W        W92462  39.977  23.985   1.951
20792W        W92463  24.558  24.442   4.256
20793W        W92464  16.328  32.410   1.801
20794W        W92465  40.430  16.147  11.554
20795W        W92466  41.490  17.029  11.607
20796W        W92467   9.586  19.059   2.831
20797W        W92468  36.516  42.985  13.924
20798W        W92469  15.972  43.367  12.467
20799W        W92470  33.017  20.394  11.985
20800W        W92471   5.875  38.547   3.693
20801W        W92472  16.981  44.279  11.479
20802W        W92473  11.128  38.816  13.812
20803W        W92474   7.836   8.863   3.682
20804W        W92475  16.021   2.568  14.422
20805W        W92476  40.764  38.044   4.841
20806W        W92477  19.056  42.945   2.844
20807W        W92478  17.216  11.799   4.400
20808W        W92479  25.589  35.815  13.324
20809W        W92480  22.462  30.420  11.769
20810W        W92481  34.830  11.648  12.829
20811W        W92482   4.796   7.334   9.898
20812W        W92483  38.272  42.561  12.156
20813W        W92484  43.803  21.466  14.812
20814W        W92485  15.700  34.780  13.136
20815W        W92486  19.424  43.548  12.633
20816W        W92487   2.967   7.397  13.005
20817W        W92488   4.752  33.628   4.581
20818W        W92489  25.428   4.102   1.344
20819W        W92490   5.705  30.448  11.167
20820W        W92491  30.431   9.428  12.226
20821W        W92492  19.691  37.617  11.520
20822W        W92493  10.437  44.412   2.302
20823W        W92494  13.066  40.923   1.180
20824W        W92495   3.316  12.173  12.673
20825W        W92496  21.276  23.572   0.444
20826W        W92497   1.749  31.900   1.405
20827W        W92498  16.303  30.607   2.396
20828W        W92499   9.860   2.816  10.652
20829W        W92500  16.958   9.117   3.943
20830W        W92501   6.509  41.543  13.562
20831W        W92502  14.945  32.081  10.590
20832W        W92503  13.797  30.132  10.553
20833W        W92504   4.907  38.165  11.495
20834W        W92505  32.034   9.012   0.073
20835W        W92506  40.099  42.035   3.411
20836W        W92507  33.398  17.258   4.020
20837W        W92508  35.602   1.475   4.344
20838W        W92509  41.393  27.219   3.959
20839W        W92510   7.857   6.454   1.751
20840W        W92511   5.742  19.049   0.819
20841W        W92512  10.788   6.204   3.283
20842W        W92513  21.760   1.397  14.440
20843W        W92514  28.718  41.129   4.999
20844W        W92515   4.941  19.541  12.887
20845W        W92516  20.612  41.330   0.656
20846W        W92517  14.119   1.366  13.771
20847W        W92518   0.464  17.259   2.867
20848W        W92519  36.852   3.717   2.394
20849W        W92520  13.256  43.595   4.922
20850W        W92521  29.554  37.842  13.363
20851W        W92522  33.586  13.495   3.294
20852W        W92523  24.224  19.622   2.665
20853W        W92524  15.294   0.401  12.629
20854W        W92525  38.650  34.557   1.788
20855W        W92526   5.905  42.441  10.731
20856W        W92527  13.680  21.741  11.634
20857W        W92528  16.831  10.168   2.307
20858W        W92529  13.681  42.683  12.475
20859W        W92530  32.879  40.531  12.437
20860W        W92531  29.750  16.267  12.815
20861W        W92532  43.516  24.754  10.128
20862W        W92533   8.910  20.966  12.587
20863W        W92534  35.965  38.622  11.398
20864W        W92535   2.324  14.662   1.325
20865W        W92536  41.459  33.574  10.619
20866W        W92537  30.542  34.368   1.933
20867W        W92538  19.240  20.625   4.697
20868W        W92539  11.803   3.892  12.315
20869W        W92540  23.699   2.865  13.457
20870W        W92541  15.842  31.939  12.844
20871W        W92542  40.426  43.979   3.161
20872W        W92543  33.386   4.883  12.987
20873W        W92544  31.181  21.624   1.277
20874W        W92545  41.868  18.026   0.016
20875W        W92546  27.209   9.791   1.328
20876W        W92547  24.801  10.157   0.435
20877W        W92548  11.376  23.958  11.022
20878W        W92549  43.319  12.535   0.779
20879W        W92550  15.739  32.801   2.794
20880W        W92551  37.758  25.218   0.558
20881W        W92552  26.703  17.652  11.942
20882W        W92553  27.732  30.654  12.537
20883W        W92554  11.577  32.614  14.899
20884W        W92555  26.075  30.594   1.416
20885W        W92556   3.310   0.953  13.123
20886W        W92557  22.249  37.907   4.447
20887W        W92558  35.986   4.631   0.800
20888W        W92559  37.322  26.722  12.377
20889W        W92560   0.568  24.365   2.627
20890W        W92561  31.967  28.080  10.696
20891W        W92562  16.120  21.683   4.896
20892W        W92563  20.607  29.192   4.047
20893W        W92564  37.883  18.283   4.727
20894W        W92565  30.550  38.748  13.344
20895W        W92566  39.407  37.463  14.336
20896W        W92567  18.789  25.684  12.471
20897W        W92568  22.115  34.330   0.253
20898W        W92569   2.937  14.545  10.991
20899W        W92570  24.362  38.447  13.525
20900W        W92571   5.638   5.341  14.322
20901W        W92572  24.350  12.528   3.639
20902W        W92573  10.247  20.511  10.745
20903W        W92574  39.521   5.712   3.076
20904W        W92575  44.463  41.419   4.049
20905W        W92576   0.525   5.860  13.876
20906W        W92577   8.889   4.052   3.586
20907W        W92578   1.365  14.149   3.391
20908W        W92579  34.844   4.328   3.799
20909W        W92580   9.447  29.150   1.305
20910W        W92581  17.726  25.417   1.285
20911W        W92582  31.642  40.471  14.355
20912W        W92583   1.791  11.650   0.294
20913W        W92584  16.119  34.471   2.309
20914W        W92585   9.375   3.979   3.286
20915W        W92586  26.669  16.557   4.529
20916W        W92587   5.923   7.779  10.986
20917W        W92588  38.050  24.999   0.935
20918W        W92589  41.856  13.599   2.031
20919W        W92590  16.672  24.449   3.646
20920W        W92591   2.404  28.965   0.230
20921W        W92592  33.564   6.153  13.952
20922W        W92593  40.253   0.410  11.091
20923W        W92594  18.785  29.166  13.033
20924W        W92595   3.134  12.753   1.319
20925W        W92596  40.303   4.406  12.619
20926W        W92597  28.142   5.249  11.215
20927W        W92598  17.821  26.700  12.392
20928W        W92599  33.183  31.563  10.475
20929W        W92600  38.769  39.772  12.495
20930W        W92601   0.832   3.449   2.161
20931W        W92602  28.728  20.662  14.864
20932W        W92603   7.723  36.339  12.144
20933W        W92604   8.118  43.859   0.315
20934W        W92605  33.455  12.572  11.730
20935W        W92606  22.166  44.480  11.519
20936W        W92607  11.786   5.395   0.310
20937W        W92608  13.809  15.590  10.180
20938W        W92609   8.759  38.532   2.517
20939W        W92610   3.948   3.674  11.106
20940W        W92611  23.233  41.670  12.538
20941W        W92612  32.798  24.611   1.765
20942W        W92613  33.127  19.654  12.556
20943W        W92614  14.729  28.110   2.705
20944W        W92615  44.640  25.176   4.510
20945W        W92616   1.238   5.829  11.899
20946W        W92617  26.933  44.364   3.596
20947W        W92618   9.156  41.744  11.173
20948W        W92619  10.812   6.344   3.773
20949W        W92620  30.593   5.987   0.839
20950W        W92621  31.173  14.431  10.294
20951W        W92622  43.088  14.296   1.935
20952W        W92623   0.827  28.839   1.373
20953W        W92624  20.748  30.420   2.348
20954W        W92625  19.220  35.750   1.961
20955W        W92626  28.783  25.210  11.119
20956W        W92627  40.302  27.033   4.869
20957W        W92628  19.215  31.802  13.863
20958W        W92629  11.970  11.127   3.531
20959W        W92630  36.574  15.095   0.206
20960W        W92631   3.981  32.976  10.609
20961W        W92632  44.005  28.780  14.812
20962W        W92633  38.824  13.449  13.625
20963W        W92634   1.524  20.269  12.088
20964W        W92635  43.929  35.516   1.501
20965W        W92636  25.945  21.498   1.742
20966W        W92637  42.711  38.129   2.615
20967W        W92638   2.548  27.012   4.067
20968W        W92639  16.748  15.996  13.881
20969W        W92640  27.184  31.882   3.406
20970W        W92641  25.435  21.531  14.475
20971W        W92642  31.280  34.534  13.900
20972W        W92643  19.481  27.574  12.700
20973W        W92644  20.341  10.719   1.944
20974W        W92645  14.364  22.556  11.506
20975W        W92646  35.882  17.111   4.750
20976W        W92647  17.178  13.694   2.735
20977W        W92648  25.611   1.508  12.204
20978W        W92649  16.197   4.168   2.702
20979W        W92650  18.232  38.148  13.402
20980W        W92651  17.213  27.191  10.657
20981W        W92652   3.878   5.490  14.109
20982W        W92653   8.264  24.760   4.516
20983W        W92654  25.000  27.213   0.808
20984W        W92655  31.107   0.239   3.252
20985W        W92656  42.201  19.049   0.019
20986W        W92657   0.646   9.827  13.657
20987W        W92658  43.872  35.085  12.280
20988W        W92659  25.550  19.991  10.874
20989W        W92660   5.720  30.450   3.187
20990W        W92661  17.597  26.663  13.393
20991W        W92662  10.672  16.589   4.043
20992W        W92663  31.415  19.219   3.771
20993W        W92664  35.101  33.224  12.092
20994W        W92665  20.354  17.174   3.344
20995W        W92666  34.999  26.133  11.527
20996W        W92667  41.754  35.486  11.084
20997W        W92668   6.951  15.914   0.296
20998W        W92669   0.338  15.709   3.650
20999W        W92670  21.920  34.440  13.388
21000W        W92671  36.563  11.612  11.371
21001W        W92672  25.642  33.667   4.137
21002W        W92673  41.646   7.733   2.235
21003W        W92674  23.172  34.529  13.472
21004W        W92675  23.130  40.142  13.485
21005W        W92676  12.101   0.394  12.130
21006W        W92677  18.774  40.975  13.974
21007W        W92678   5.707  22.031  12.051
21008W        W92679  13.685  31.498   2.800
21009W        W92680   9.837  20.014   1.823
21010W        W92681  34.313  15.824   1.797
21011W        W92682  40.019  32.565   4.228
21012W        W92683   5.720  12.277   4.748
21013W        W92684  14.892  42.900  14.081
21014W        W92685  18.514   0.655   5.079
21015W        W92686   3.434  36.090   3.770
21016W        W92687  43.858  26.667  10.285
21017W        W92688   1.663   8.410  11.209
21018W        W92689  37.535   2.461   3.191
21019W        W92690  19.044   4.078  13.245
21020W        W92691  31.615  20.653   3.350
21021W        W92692  11.778  17.720  12.982
21022W        W92693  41.228  19.391   1.741
21023W        W92694  12.722  34.433  10.914
21024W        W92695  15.121   6.352  12.054
21025W        W92696  36.454   0.858  12.697
21026W        W92697  24.089   9.699   0.001
21027W        W92698  14.785  18.490  14.019
21028W        W92699  15.284  30.684  13.618
21029W        W92700  26.430  33.674  10.970
21030W        W92701  43.006   2.484  13.039
21031W        W92702  42.970  34.370   4.125
21032W        W92703  19.801   3.914   1.764
21033W        W92704  39.798  28.153   2.479
21034W        W92705  38.714  19.573  13.836
21035W        W92706  18.647   9.114   3.628
21036W        W92707   9.893  21.176   3.666
21037W        W92708  33.531  35.493  10.115
21038W        W92709  29.586  13.717   4.670
21039W        W92710   6.760  22.555  14.865
21040W        W92711  41.803  23.240  12.053
21041W        W92712   0.955  21.382   3.211
21042W        W92713  23.028   6.692  13.929
21043W        W92714  37.779   1.890  11.624
21044W        W92715   5.255  40.111  12.063
21045W        W92716  26.556  16.906   0.085
21046W        W92717  37.110   3.810  14.923
21047W        W92718  12.775  18.119   1.157
21048W        W92719  44.958  25.430  10.559
21049W        W92720  17.128   3.624  10.632
21050W        W92721   0.925  19.846  12.568
21051W        W92722  43.942  26.229   0.772
21052W        W92723  25.260  36.758   1.229
21053W        W92724  16.670  31.001   2.817
21054W        W92725  41.860  40.803  11.494
21055W        W92726   7.420  29.554   1.465
21056W        W92727   0.091   4.889  13.039
21057W        W92728  15.555  19.269   2.744
21058W        W92729  26.301  11.181  11.522
21059W        W92730  13.173  43.816   2.381
21060W        W92731  34.575  35.787   4.293
21061W        W92732   1.304  29.422   0.886
21062W        W92733   5.787  25.538  10.832
21063W        W92734   9.792  15.224  10.872
21064W        W92735  38.515   7.599   2.233
21065W        W92736   4.626   4.604  10.352
21066W        W92737  38.467  39.302   4.957
21067W        W92738  35.392  28.977   1.837
21068W        W92739  11.659  19.010  10.438
21069W        W92740  14.574  17.534  11.572
21070W        W92741  26.394  25.242   4.900
21071W        W92742   3.636  14.960  13.027
21072W        W92743   8.616  38.112   2.235
21073W        W92744   9.234  23.002  13.615
21074W        W92745   4.103   0.994  13.676
21075W        W92746  22.536  19.252  11.000
21076W        W92747  31.046  43.529  13.151
21077W        W92748  19.580  28.039  10.966
21078W        W92749  21.731  35.948   2.892
21079W        W92750   1.837   2.198  12.702
21080W        W92751  19.243  26.618  10.143
21081W        W92752  11.036  34.805  13.596
21082W        W92753  11.932  42.452  10.837
21083W        W92754  19.771  19.297   0.241
21084W        W92755  29.950  40.417   0.015
21085W        W92756   7.091   8.390  11.175
21086W        W92757  42.396  42.419  11.737
21087W        W92758  30.192  10.406  11.547
21088W        W92759  26.575  26.855  12.853
21089W        W92760  33.377  20.559  10.745
21090W        W92761  20.104   6.872   4.559
21091W        W92762   5.822   6.271   4.199
21092W        W92763   0.039  38.036  12.442
21093W        W92764  20.425   4.170   4.239
21094W        W92765  24.085  12.900  11.704
21095W        W92766  28.188  22.294   3.230
21096W        W92767  20.523  23.056  13.979
21097W        W92768   2.304   1.911  12.386
21098W        W92769  18.289  40.110   2.403
21099W        W92770  19.111   5.295  11.188
21100W        W92771   2.982  44.983   2.241
21101W        W92772  16.568  39.382   1.033
21102W        W92773  14.298  32.856  10.803
21103W        W92774  13.100  34.985   3.798
21104W        W92775  41.624  29.079  12.455
21105W        W92776   8.796   5.434   0.925
21106W        W92777  42.795  18.272  10.678
21107W        W92778  33.824  38.425  14.936
21108W        W92779  28.077   8.753   1.386
21109W        W92780   7.271  44.432   1.313
21110W        W92781  43.542  25.968   1.866
21111W        W92782  28.830  30.600  14.873
21112W        W92783  21.454   2.127  11.462
21113W        W92784  30.641  25.073   4.391
21114W        W92785  24.133  18.552  10.458
21115W        W92786  30.777  32.574  12.730
21116W        W92787  15.311  43.321  10.430
21117W        W92788  31.408  33.625   1.302
21118W        W92789  17.868   9.380  12.453
21119W        W92790  22.082   3.385   0.320
21120W        W92791  41.348  21.005   2.183
21121W        W92792  27.925  37.789  11.541
21122W        W92793   5.709   0.443  10.985
21123W        W92794  23.636  36.323   1.225
21124W        W92795  13.758  21.741  13.298
21125W        W92796   3.779   1.942  12.531
21126W        W92797  12.004  39.130  11.546
21127W        W92798  14.549  22.451  12.411
21128W        W92799  39.920   3.049   3.655
21129W        W92800  25.566  28.542   0.939
21130W        W92801   4.361   2.504   4.673
21131W        W92802  34.456   7.902  14.506
21132W        W92803  24.148  22.370   4.602
21133W        W92804  30.685  44.288  14.855
21134W        W92805  10.581   5.652  13.689
21135W        W92806  12.452  41.252   3.276
21136W        W92807  38.663   2.026   1.614
21137W        W92808   4.779   4.394  10.797
21138W        W92809  44.357   8.306  13.446
21139W        W92810  19.009  25.106   0.713
21140W        W92811  34.059  39.289   1.921
21141W        W92812   1.125  28.673   4.752
21142W        W92813   8.834   2.984  11.531
21143W        W92814   2.359  21.273  13.217
21144W        W92815  19.232   8.040  13.894
21145W        W92816  32.508  32.694  14.091
21146W        W92817  30.064  38.304  11.155
21147W        W92818  17.493  35.303   0.395
21148W        W92819   5.636  27.907   1.243
21149W        W92820  40.997   5.136  10.759
21150W        W92821   8.659   2.363  13.886
21151W        W92822  35.590  28.148  10.382
21152W        W92823  11.130  25.060   3.691
21153W        W92824   4.668  43.864   3.279
21154W        W92825   7.199  32.506  14.748
21155W        W92826  11.071   8.009   0.505
21156W        W92827  26.136  25.895   2.112
21157W        W92828   4.959  29.145  10.222
21158W        W92829   8.337  14.729  13.603
21159W        W92830  36.189  44.649   2.965
21160W        W92831  43.911  28.441  13.345
21161W        W92832  14.317  44.289  13.135
21162W        W92833  38.361   9.740   2.611
21163W        W92834   7.921  35.017  10.233
21164W        W92835  32.526  29.633  11.741
21165W        W92836  18.608   3.762   3.109
21166W        W92837  26.018  29.948   3.186
21167W        W92838   2.432  17.637   0.909
21168W        W92839  12.083  35.154  14.803
21169W        W92840  28.203   1.981   1.349
21170W        W92841  37.940  12.177   3.818
21171W        W92842  36.385  17.059   4.591
21172W        W92843   4.158  44.441   3.609
21173W        W92844  38.432  28.405  12.118
21174W        W92845  30.072  33.408   2.636
21175W        W92846  22.916   8.959  12.920
21176W        W92847  38.911   7.040   4.425
21177W        W92848  19.311  22.219  11.156
21178W        W92849  16.059  43.237   2.615
21179W        W92850  17.117  14.315  14.912
21180W        W92851   6.614  22.943  12.682
21181W        W92852  30.911   1.370   1.618
21182W        W92853  21.557  37.901   2.279
21183W        W92854  37.807   9.753  12.368
21184W        W92855  18.315  10.623   3.117
21185W        W92856   2.843   9.245  10.925
21186W        W92857  20.711  34.054   4.102
21187W        W92858   1.981   9.610   0.716
21188W        W92859  11.129  39.092  14.820
21189W        W92860  31.651   9.018  14.728
21190W        W92861  20.579  11.367   3.691
21191W        W92862  36.891  21.923  13.988
21192W        W92863  11.886  24.125   1.297
21193W        W92864  38.999  32.150  10.982
21194W        W92865  43.049  16.966   1.182
21195W        W92866  30.521  30.683   4.119
21196W        W92867  43.435  14.874   0.799
21197W        W92868  10.432  36.477   2.166
21198W        W92869  27.521   1.757  12.779
21199W        W92870  30.174  31.124   0.539
21200W        W92871  23.127  28.428  11.959
21201W        W92872  18.299  16.010   1.759
21202W        W92873  16.837   7.584  13.167
21203W        W92874  40.894   4.823  13.455
21204W        W92875  12.419  40.982  13.079
21205W        W92876   2.912  36.487   0.303
21206W        W92877  36.577  11.061   1.251
21207W        W92878   2.862  22.999   1.980
21208W        W92879  15.858   6.911   9.798
21209W        W92880  28.956  32.159   4.176
21210W        W92881  27.266   5.038  10.196
21211W        W92882  17.513  27.339   4.522
21212W        W92883  34.674  18.065   3.657
21213W        W92884  14.060  28.632  14.362
21214W        W92885   3.190  21.239  10.705
21215W        W92886   6.829  44.197   4.954
21216W        W92887  15.690   3.676   0.005
21217W        W92888  44.972   8.388   4.744
21218W        W92889  26.122   4.867   1.639
21219W        W92890  35.124  29.004   3.319
21220W        W92891   9.714  32.053   0.470
21221W        W92892  39.387  28.951  12.779
21222W        W92893  31.022  21.760  14.436
21223W        W92894  40.274  28.089   1.740
21224W        W92895  44.082   7.859   1.610
21225W        W92896  41.510  28.059   3.455
21226W        W92897  37.520  30.977  12.860
21227W        W92898  27.579  21.921  13.863
21228W        W92899  38.783  30.581  13.228
21229W        W92900   1.213  28.406   3.629
21230W        W92901  35.531  39.509   5.015
21231W        W92902  28.602  34.072   3.340
21232W        W92903  44.015  34.187  11.731
21233W        W92904  32.596  11.402  13.832
21234W        W92905  29.741  18.492  11.877
21235W        W92906  12.900  27.040   2.854
21236W        W92907  10.788  43.363   4.849
21237W        W92908  26.672  11.009  14.942
21238W        W92909  42.955  43.016  13.283
21239W        W92910  36.103  35.520  11.601
21240W        W92911  19.286  18.719  14.041
21241W        W92912  40.037  16.584   2.553
21242W        W92913  43.679  19.099  14.854
21243W        W92914   0.411  34.877  10.739
21244W        W92915  11.653  27.985   4.619
21245W        W92916  32.200  39.723   1.802
21246W        W92917  17.274   2.084   0.400
21247W        W92918  32.571  20.841   3.776
21248W        W92919  21.149  44.332  12.173
21249W        W92920   6.447  44.801   1.970
21250W        W92921  25.422  26.590  12.972
21251W        W92922  43.869  24.687   0.379
21252W        W92923  16.866   5.756  12.925
21253W        W92924   2.164   2.478   2.442
21254W        W92925   5.812   4.399  10.775
21255W        W92926  14.149  43.869  11.398
21256W        W92927  22.060  27.046  12.239
21257W        W92928  17.527   3.184   1.054
21258W        W92929  35.463  41.253  11.112
21259W        W92930  35.170  27.952  14.388
21260W        W92931  11.972  19.786   3.362
21261W        W92932  15.810   5.313  11.551
21262W        W92933  15.153  29.710   3.432
21263W        W92934  11.059  17.808   2.302
21264W        W92935   3.508  42.413   1.787
21265W        W92936   1.761  42.946  10.888
21266W        W92937  22.586  19.320  11.497
21267W        W92938  32.366   3.195  12.660
21268W        W92939  28.163  10.719  10.752
21269W        W92940  27.850  41.280   3.887
21270W        W92941  41.063  17.599   4.472
21271W        W92942  34.950  21.174  10.679
21272W        W92943  42.824  43.385  11.126
21273W        W92944  43.260  23.695  14.803
21274W        W92945  31.191  34.618  14.850
21275W        W92946  22.724  16.093  11.974
21276W        W92947  39.837  44.348  12.568
21277W        W92948   2.840  28.090  13.258
21278W        W92949   5.472  36.877  11.630
21279W        W92950  10.330  17.093  12.040
21280W        W92951  37.983   3.819  14.449
21281W        W92952   1.726  41.379  13.500
21282W        W92953  19.168  23.288  12.508
21283W        W92954  33.573  12.703  14.723
21284W        W92955  22.155   8.707  14.972
21285W        W92956  30.522  18.589  14.318
21286W        W92957  31.548  30.080   2.464
21287W        W92958  11.107   5.314   2.333
21288W        W92959  22.014  10.657  12.066
21289W        W92960   6.890  10.856  10.824
21290W        W92961   7.339  17.902   3.708
21291W        W92962  13.685  21.593  10.484
21292W        W92963  24.154  33.058  12.092
21293W        W92964  27.695  27.534   2.854
21294W        W92965  36.971   3.321   3.265
21295W        W92966  16.875  17.251  10.711
21296W        W92967  37.237  38.388   5.048
21297W        W92968  43.605  39.412   3.266
21298W        W92969  23.157  29.017  14.294
21299W        W92970  20.820  17.757  11.640
21300W        W92971   1.534   7.682  10.542
21301W        W92972  20.639  32.066   1.488
21302W        W92973   6.783  27.389   3.392
21303W        W92974  18.517  44.484  12.495
21304W        W92975   3.470  24.596   3.956
21305W        W92976   9.730  40.785   4.941
21306W        W92977  22.466  39.967   4.739
21307W        W92978  11.317   8.278   4.393
21308W        W92979  28.382  37.243   0.467
21309W        W92980  36.597  43.124  11.145
21310W        W92981  29.143  31.086   3.369
21311W        W92982  35.119  38.692   0.543
21312W        W92983  22.736  18.431   4.547
21313W        W92984  14.669  29.557  11.222
21314W        W92985   9.814  34.082   3.834
21315W        W92986   2.958  42.310   3.826
21316W        W92987  18.753  26.489   4.146
21317W        W92988  39.088   3.722  12.510
21318W        W92989   4.772   6.780   1.778
21319W        W92990  26.107  23.486  10.718
21320W        W92991   8.406  44.483   4.115
21321W        W92992  40.808   4.774   3.691
21322W        W92993  36.351   3.536  13.409
21323W        W92994  14.290   7.704  10.530
21324W        W92995  27.600  15.666   3.684
21325W        W92996  26.135  42.441  12.524
21326W        W92997  27.662   1.903  14.819
21327W        W92998   4.262  34.270  14.616
21328W        W92999  35.640  37.017  11.460
21329W        W93000  18.321  22.878   1.096
21330W        W93001  19.997  36.967  14.935
21331W        W93002   5.881  24.171   0.442
21332W        W93003   2.400  30.768  12.968
21333W        W93004   6.843  16.457   0.667
21334W        W93005  27.986   4.371  14.056
21335W        W93006  21.064  32.641   4.167
21336W        W93007  38.946  33.399  14.280
21337W        W93008  34.939   4.152   2.338
21338W        W93009  44.230  37.150  10.989
21339W        W93010  24.190  41.237   1.412
21340W        W93011  34.029  25.081   1.523
21341W        W93012  16.156  38.493   1.144
21342W        W93013  41.434  16.327   4.856
21343W        W93014  31.537  23.230  11.228
21344W        W93015  20.758  40.020  11.061
21345W        W93016  25.454  35.671  11.549
21346W        W93017   4.356   5.994   0.807
21347W        W93018   5.692  42.742   1.279
21348W        W93019  43.489  28.181  13.192
21349W        W93020  34.812  41.825  11.257
21350W        W93021   0.516   1.831  10.897
21351W        W93022  13.436  23.987   4.305
21352W        W93023  40.919  26.981  10.780
21353W        W93024  12.785  12.816  14.274
21354W        W93025  34.528  26.439   3.847
21355W        W93026   1.981   1.712  12.018
21356W        W93027  24.767  44.349   2.410
21357W        W93028  17.709  28.635  14.513
21358W        W93029  38.805  39.977   1.868
21359W        W93030  16.273  16.625  14.584
21360W        W93031  10.788  42.322  13.487
21361W        W93032   8.865  27.469   3.132
21362W        W93033  44.700  39.241   4.200
21363W        W93034  20.825  18.589   0.696
21364W        W93035  26.959  42.832   4.937
21365W        W93036  31.568   8.764   3.748
21366W        W93037  12.680  37.360  13.911
21367W        W93038  27.721  42.927  12.477
21368W        W93039  16.975   8.790   0.624
21369W        W93040  24.115  26.485  12.468
21370W        W93041  11.584  42.728   2.646
21371W        W93042  26.203   2.454  14.341
21372W        W93043  28.524  11.262   2.582
21373W        W93044   7.811  19.282   1.212
21374W        W93045  31.150  28.839   2.152
21375W        W93046  17.450  10.734   2.119
21376W        W93047  27.931  43.327  11.573
21377W        W93048   6.234  37.401   9.987
21378W        W93049  33.949  26.992  13.911
21379W        W93050   9.843  19.227   3.263
21380W        W93051   5.450  16.584  10.892
21381W        W93052  42.790  12.955   1.733
21382W        W93053   6.221   9.884   1.510
21383W        W93054  17.332   4.181   3.258
21384W        W93055   2.767   6.913   4.111
21385W        W93056  15.802  32.012   4.548
21386W        W93057   9.230  25.960  12.523
21387W        W93058  28.173  15.239  14.821
21388W        W93059   0.435   3.944  13.403
21389W        W93060  34.553  27.373  11.115
21390W        W93061  37.531  35.155  14.038
21391W        W93062  42.559   6.744   4.544
21392W        W93063  29.898  20.619  11.925
21393W        W93064  42.185  20.106  10.520
21394W        W93065  14.966  24.672   5.066
21395W        W93066  36.302  15.724   2.401
21396W        W93067  39.977   8.104   2.724
21397W        W93068   4.857  27.029  12.522
21398W        W93069   7.389  37.493   3.290
21399W        W93070   7.048  42.532  14.936
21400W        W93071  13.084   1.842   0.225
21401W        W93072   5.375  34.585   0.469
21402W        W93073   1.315  14.939  10.782
21403W        W93074  19.018   6.145   4.096
21404W        W93075   0.196  34.150   2.248
21405W        W93076   2.229  38.652  13.978
21406W        W93077   6.744  36.336   3.656
21407W        W93078  40.644  30.444   0.001
21408W        W93079  33.281  14.297   0.887
21409W        W93080  23.743  24.277   4.607
21410W        W93081  39.735   7.727   0.866
21411W        W93082  20.140   1.858   4.615
21412W        W93083  13.749  39.757  12.389
21413W        W93084  18.992  29.169  11.624
21414W        W93085  33.150  20.929  11.722
21415W        W93086  36.834  43.551  13.528
21416W        W93087  34.496  24.735   2.071
21417W        W93088  27.035  34.596   0.365
21418W        W93089  14.385   4.462   3.331
21419W        W93090  40.968  23.488   1.755
21420W        W93091  34.507  35.405  10.439
21421W        W93092   9.449  18.544  11.677
21422W        W93093   5.145  41.057   0.603
21423W        W93094  19.107  33.846   4.551
21424W        W93095  19.351  25.054   0.356
21425W        W93096  40.421  20.453   2.900
21426W        W93097  13.210  43.669   1.391
21427W        W93098  27.674  14.912  12.422
21428W        W93099  37.916   6.146   2.947
21429W        W93100  27.928  17.631  14.389
21430W        W93101  15.227  25.609   0.003
21431W        W93102  14.224  37.335  10.861
21432W        W93103  17.745  24.744  12.919
21433W        W93104  32.461   9.213  14.884
21434W        W93105  10.901  19.262  14.925
21435W        W93106  13.356  42.225   3.323
21436W        W93107   7.653   3.878   4.528
21437W        W93108  14.846  41.760   0.488
21438W        W93109   1.288   6.853  14.320
21439W        W93110  39.037  41.423   2.241
21440W        W93111  22.381  44.067  14.863
21441W        W93112  42.231  11.696   0.675
21442W        W93113  26.527  29.643  12.013
21443W        W93114  36.397  31.403  14.253
21444W        W93115  29.963   3.264   1.857
21445W        W93116  37.507  42.964  10.526
21446W        W93117  24.560  37.786   3.176
21447W        W93118   2.560  23.198  13.530
21448W        W93119  38.866  21.077  12.160
21449W        W93120  40.364   1.647  13.395
21450W        W93121  14.191  32.848   2.802
21451W        W93122   6.636  39.328   2.609
21452W        W93123  36.458  18.698  13.030
21453W        W93124  17.368  19.125  12.472
21454W        W93125   2.812  40.783   0.969
21455W        W93126  10.535   2.618   3.342
21456W        W93127  29.238   8.284   1.400
21457W        W93128  36.467   3.911  13.031
21458W        W93129  41.594  26.590  13.426
21459W        W93130  40.769   3.885  11.713
21460W        W93131  26.955   0.386  13.478
21461W        W93132  35.889   0.384   3.572
21462W        W93133  17.535  38.391   1.947
21463W        W93134  42.935   7.291   1.439
21464W        W93135  19.836   2.680   1.376
21465W        W93136  16.030   8.954  14.795
21466W        W93137  19.754  32.430  14.510
21467W        W93138  17.528  30.823  14.230
21468W        W93139  13.887   4.266  11.085
21469W        W93140   3.840  29.694   0.884
21470W        W93141  28.693  42.427   3.112
21471W        W93142   0.280  20.365  10.711
21472W        W93143  35.116  39.861   0.743
21473W        W93144  28.635   8.207  12.605
21474W        W93145   6.129  44.052   2.459
21475W        W93146   1.306  17.317   0.364
21476W        W93147  22.740   3.467   1.564
21477W        W93148  37.991  19.322  11.369
21478W        W93149  21.160   5.431   0.006
21479W        W93150  29.128   3.521  10.973
21480W        W93151  37.468  29.605   2.200
21481W        W93152  30.880  21.093   2.446
21482W        W93153  11.529   6.148   4.132
21483W        W93154  38.419  13.267  12.509
21484W        W93155  36.471  29.604  12.496
21485W        W93156  31.888   2.318  14.591
21486W        W93157  38.112  43.568  14.560
21487W        W93158  16.391  31.377  13.884
21488W        W93159  11.490  14.138  11.579
21489W        W93160  19.688  27.474   3.749
21490W        W93161   4.175  39.938  10.599
21491W        W93162  26.440  11.171  14.131
21492W        W93163  43.353  37.496  11.464
21493W        W93164  38.379  19.548   3.712
21494W        W93165   4.488   9.806   3.691
21495W        W93166  11.786  24.643  10.995
21496W        W93167   8.208  20.127   4.678
21497W        W93168  26.862   9.868   4.596
21498W        W93169  41.837  24.291   1.227
21499W        W93170  24.194  29.518   2.201
21500W        W93171  30.921  40.734   3.351
21501W        W93172  16.269  41.456  13.037
21502W        W93173   6.244  25.511  13.025
21503W        W93174   7.485  41.451  13.330
21504W        W93175  33.117  42.953  11.031
21505W        W93176  22.612   2.274   3.347
21506W        W93177  35.401  41.255   0.679
21507W        W93178  38.865  37.119  10.176
21508W        W93179  44.967   0.854  12.917
21509W        W93180  36.605  40.074  13.510
21510W        W93181  12.827  37.892   4.836
21511W        W93182   4.171  26.650  12.478
21512W        W93183  23.003  40.123  12.528
21513W        W93184   4.321  40.641  14.486
21514W        W93185  38.361  32.551  13.900
21515W        W93186   6.386  22.206   0.761
21516W        W93187  23.044  13.176  10.726
21517W        W93188  29.740  13.229   0.956
21518W        W93189   7.758  24.113  13.725
21519W        W93190  16.270   2.387  14.903
21520W        W93191  38.123   3.388   4.954
21521W        W93192  32.911  36.364  13.934
21522W        W93193  24.736  17.122   1.960
21523W        W93194  12.777  34.450   3.575
21524W        W93195  26.737  22.587   4.546
21525W        W93196  17.461  36.127  10.172
21526W        W93197   3.164  42.079  11.988
21527W        W93198   7.785  40.615   3.845
21528W        W93199  31.701  44.897  13.012
21529W        W93200   4.996   4.868  12.944
21530W        W93201   0.823  36.548   1.226
21531W        W93202  24.478  41.747  12.861
21532W        W93203  14.731  18.324   2.129
21533W        W93204  34.398  14.214   1.381
21534W        W93205  29.638  24.662   2.570
21535W        W93206  16.055  26.106  13.101
21536W        W93207  20.624  13.950  10.229
21537W        W93208  37.943  26.165   0.120
21538W        W93209  25.128  43.737  10.652
21539W        W93210  28.654  35.562   3.688
21540W        W93211   2.282  22.711   0.876
21541W        W93212  38.786  36.537   1.156
21542W        W93213  22.612  14.228  10.704
21543W        W93214  44.539  35.023  11.622
21544W        W93215  43.882  26.191   2.660
21545W        W93216  43.908  41.408  11.867
21546W        W93217  31.743  17.333   0.530
21547W        W93218  37.367  22.824  13.858
21548W        W93219  25.251  24.524  11.083
21549W        W93220  31.613   8.400  10.487
21550W        W93221   6.328  19.143   2.280
21551W        W93222  44.415  43.499  10.240
21552W        W93223  26.442  41.990   3.297
21553W        W93224   6.934  25.673  12.057
21554W        W93225  37.513  35.503  11.048
21555W        W93226   3.696  16.750   2.208
21556W        W93227   7.775  43.821  14.684
21557W        W93228  35.954  34.331  11.553
21558W        W93229  27.909   9.143   4.613
21559W        W93230   2.649  11.677   3.243
21560W        W93231  23.222  10.954  12.821
21561W        W93232  30.274   2.984   0.215
21562W        W93233   8.115  14.286  11.947
21563W        W93234  36.607  23.447   3.235
21564W        W93235  16.402  39.637  11.867
21565W        W93236   8.969  10.357  14.775
21566W        W93237  37.924   5.605   2.972
21567W        W93238   6.039  42.234   0.913
21568W        W93239  21.781  40.528  10.292
21569W        W93240  29.252  14.364   1.626
21570W        W93241   7.399  25.684   3.697
21571W        W93242  44.773   9.133  14.687
21572W        W93243  38.615  24.037  13.336
21573W        W93244   7.018  21.102  12.656
21574W        W93245  42.800  34.841   4.220
21575W        W93246  24.349   8.114  11.232
21576W        W93247  37.011   7.182  13.044
21577W        W93248  38.580  37.562   3.414
21578W        W93249  21.216   5.502   4.057
21579W        W93250  44.404  34.044   2.676
21580W        W93251  10.277  25.933   0.343
21581W        W93252  21.077   6.980   3.762
21582W        W93253  34.734   9.282  11.245
21583W        W93254  15.542  33.981   3.870
21584W        W93255  17.746   5.309   0.600
21585W        W93256  10.235  39.261   0.326
21586W        W93257   1.798  12.603  12.962
21587W        W93258  29.654  19.524   2.341
21588W        W93259   4.681  26.523   0.773
21589W        W93260  31.571  32.176  13.142
21590W        W93261  44.741  37.491  14.837
21591W        W93262  36.511  17.583   4.608
21592W        W93263  21.820  13.362   0.875
21593W        W93264  21.685  13.586  12.105
21594W        W93265  27.222  16.105   1.584
21595W        W93266  23.993  23.903  11.726
21596W        W93267  11.114  40.950   0.712
21597W        W93268   8.192  18.735  12.611
21598W        W93269  10.649  35.081   2.799
21599W        W93270   3.791   2.388  10.775
21600W        W93271   5.920  28.490  11.867
21601W        W93272  25.730  20.031   4.155
21602W        W93273  22.161  23.452   1.876
21603W        W93274  41.308  36.945   2.146
21604W        W93275  38.314  38.991  13.053
21605W        W93276  42.493  36.621  12.118
21606W        W93277  24.204   6.290   3.570
21607W        W93278  41.212  38.427  12.177
21608W        W93279  30.914   7.231  14.517
21609W        W93280  21.699  20.124  11.745
21610W        W93281  37.986  11.390  10.507
21611W        W93282  35.002  13.786  14.945
21612W        W93283  32.701   0.404  11.343
21613W        W93284   0.030  33.583   0.010
21614W        W93285   9.173   9.897  13.106
21615W        W93286  39.346  29.710   3.646
21616W        W93287  18.566   9.978  13.910
21617W        W93288  28.132  20.159  13.365
21618W        W93289  31.572  14.003   3.342
21619W        W93290   0.023  12.738   1.674
21620W        W93291   6.244  36.807  11.293
21621W        W93292  27.899   4.305  11.118
21622W        W93293  10.268  29.012   3.552
21623W        W93294   8.165  21.467   1.994
21624W        W93295  19.777   8.415  12.406
21625W        W93296   5.749  39.403  11.140
21626W        W93297   1.257   0.229   0.966
21627W        W93298   4.337  15.848  13.816
21628W        W93299  14.060  31.485   4.108
21629W        W93300   0.334   4.073   0.651
21630W        W93301  38.636  16.982   3.624
21631W        W93302  40.076  30.857  11.437
21632W        W93303  17.874  25.020   2.484
21633W        W93304  21.054  30.015  14.230
21634W        W93305  27.473  36.507   2.215
21635W        W93306  39.946   9.226  11.475
21636W        W93307  24.548  41.112   3.839
21637W        W93308   6.927  42.771   4.351
21638W        W93309  41.348   8.234  13.942
21639W        W93310  35.933  15.542  14.042
21640W        W93311  12.772  34.350   4.451
21641W        W93312  28.174  28.142   0.847
21642W        W93313  29.930  41.552   4.697
21643W        W93314   3.771  30.533   2.816
21644W        W93315  16.352  29.861  11.357
21645W        W93316  16.964   3.470  13.290
21646W        W93317  17.353  13.834   2.246
21647W        W93318   0.959  28.363   3.153
21648W        W93319  14.001  34.731   1.215
21649W        W93320  19.790  23.139   3.095
21650W        W93321  19.812  26.765   0.141
21651W        W93322   6.779  29.036  10.930
21652W        W93323  26.025  13.136   3.153
21653W        W93324  33.143  21.265   1.875
21654W        W93325   8.612  43.806  13.021
21655W        W93326  27.604   5.669   3.147
21656W        W93327  44.841   3.466   4.155
21657W        W93328  14.302  42.365  13.030
21658W        W93329   5.478  12.100  11.140
21659W        W93330  14.299  18.478  14.943
21660W        W93331  30.774  20.307   2.583
21661W        W93332  23.649   4.908   1.220
21662W        W93333   9.113   4.413  14.633
21663W        W93334  13.785  41.641   1.938
21664W        W93335  35.646  21.266  11.142
21665W        W93336  38.000   2.023  11.182
21666W        W93337  37.486  17.686  10.849
21667W        W93338  30.015  15.540   2.339
21668W        W93339  43.420  40.507  12.406
21669W        W93340  25.127  19.028  11.575
21670W        W93341  21.204   6.140   5.302
21671W        W93342  37.475  44.722   4.870
21672W        W93343  18.085  36.907  12.149
21673W        W93344  43.536  32.686   4.010
21674W        W93345  22.809   1.167  12.646
21675W        W93346  42.848  38.810   4.139
21676W        W93347  21.682  12.563  11.887
21677W        W93348  21.343  33.625   4.394
21678W        W93349  37.478  41.748   5.033
21679W        W93350  15.630  20.186  11.223
21680W        W93351  14.226   9.748  13.746
21681W        W93352   4.373  34.402  13.254
21682W        W93353  19.064   3.453  12.439
21683W        W93354  19.062   6.667   3.820
21684W        W93355  10.413  30.511  14.798
21685W        W93356  30.146  28.175   4.832
21686W        W93357  44.528  13.829  10.654
21687W        W93358  14.403  41.958  13.961
21688W        W93359  28.469  25.461  13.842
21689W        W93360  41.496  26.444  12.530
21690W        W93361  35.133  26.265  11.998
21691W        W93362  35.642  12.531  13.450
21692W        W93363  42.885  35.084   3.774
21693W        W93364  27.546  30.213   4.291
21694W        W93365  27.777  17.812  13.491
21695W        W93366  35.101   7.185  12.843
21696W        W93367  35.006  30.672  10.599
21697W        W93368  25.919  31.586  12.532
21698W        W93369  23.653  30.660   4.129
21699W        W93370  13.318  34.109  12.855
21700W        W93371  33.144  18.802  12.051
21701W        W93372  30.368  20.095   0.953
21702W        W93373  28.649  34.777  11.104
21703W        W93374  39.873  14.072   2.662
21704W        W93375  21.029   6.281   1.726
21705W        W93376  12.072  32.036  13.585
21706W        W93377  39.809  18.068   1.681
21707W        W93378  34.948  28.524   4.904
21708W        W93379   1.513  10.461   3.167
21709W        W93380  43.770  15.390  10.955
21710W        W93381   7.697   5.760  12.554
21711W        W93382  16.584  13.852  14.304
21712W        W93383   0.188  42.972   2.459
21713W        W93384  22.696   4.906  14.673
21714W        W93385  30.529  21.544  14.479
21715W        W93386  17.927  23.182   0.989
21716W        W93387  15.008  29.520   4.234
21717W        W93388  27.818  29.157  11.546
21718W        W93389  32.941  10.993  14.727
21719W        W93390  16.683  14.277   2.154
21720W        W93391  38.564  14.593  14.747
21721W        W93392  24.434  37.478  13.209
21722W        W93393  31.086  37.970   3.292
21723W        W93394  44.710  22.430  10.210
21724W        W93395   5.676  18.673   1.417
21725W        W93396  42.293   4.616   4.053
21726W        W93397   6.369  41.764  14.766
21727W        W93398  29.262  24.587   4.285
21728W        W93399  34.086  11.423   4.230
21729W        W93400  11.278  21.639  14.894
21730W        W93401  10.307   9.254   4.556
21731W        W93402   1.333  15.870  11.882
21732W        W93403  26.183  10.292   1.466
21733W        W93404  31.372  23.686   0.552
21734W        W93405   5.897  18.564   0.954
21735W        W93406  23.964  42.527   2.267
21736W        W93407  40.926   2.233  13.881
21737W        W93408  42.799  34.533   2.290
21738W        W93409  41.543   0.068  12.426
21739W        W93410  10.067   9.679  11.223
21740W        W93411  26.629  15.746  11.502
21741W        W93412   3.448  12.863  14.451
21742W        W93413  24.112   1.010  12.649
21743W        W93414  40.507  18.671   2.847
21744W        W93415  13.164  25.392   0.086
21745W        W93416  10.744  18.168   3.394
21746W        W93417  19.545   2.797  12.062
21747W        W93418  21.054  17.075   1.656
21748W        W93419   7.684   0.230  10.999
21749W        W93420  21.614  15.010   1.841
21750W        W93421  38.103  22.671  11.929
21751W        W93422  40.594  41.036   2.744
21752W        W93423  14.332  21.322  10.972
21753W        W93424  22.016   0.191   2.897
21754W        W93425   1.763  25.229  13.540
21755W        W93426  16.107   7.571  10.553
21756W        W93427   7.785   5.677   4.073
21757W        W93428   4.800  23.982   2.200
21758W        W93429   7.086  37.007   4.142
21759W        W93430  40.590   3.184  12.485
21760W        W93431   1.378  38.393   4.155
21761W        W93432  42.311  41.971   3.155
21762W        W93433  41.005  26.007   1.442
21763W        W93434  16.616  12.316  13.462
21764W        W93435  42.874  38.299   4.143
21765W        W93436  12.791  41.801   0.307
21766W        W93437  27.213  37.782  14.959
21767W        W93438  28.214  28.181   2.205
21768W        W93439  26.657  19.952   4.956
21769W        W93440   5.389  35.129  14.043
21770W        W93441   7.382  12.198   2.386
21771W        W93442  25.944   9.368  14.965
21772W        W93443  20.061  15.217  13.798
21773W        W93444   1.940  29.007   0.697
21774W        W93445  32.686  18.229   3.759
21775W        W93446  26.011  32.077  10.802
21776W        W93447   8.173  33.621   5.031
21777W        W93448   9.108   3.721   0.345
21778W        W93449  24.711  37.498   1.320
21779W        W93450  19.467  11.960  10.507
21780W        W93451  30.290   4.369   3.346
21781W        W93452  16.847  18.673   0.391
21782W        W93453  12.371  18.889   3.176
21783W        W93454   1.031   7.100  10.693
21784W        W93455  41.079  28.987  14.143
21785W        W93456  12.038  22.413  14.566
21786W        W93457  42.944   3.213  10.448
21787W        W93458  17.709   6.982  13.953
21788W        W93459  32.976  14.351   0.471
21789W        W93460  42.045   9.584   2.821
21790W        W93461   6.227  29.414   1.232
21791W        W93462   8.595  18.940   4.905
21792W        W93463   5.371   0.029   3.351
21793W        W93464  13.919   1.373  14.296
21794W        W93465  17.122   1.772   9.964
21795W        W93466  21.677  39.242   4.478
21796W        W93467   1.338  15.438   2.015
21797W        W93468  43.247   4.111  13.491
21798W        W93469  14.994  42.896  10.680
21799W        W93470  23.683   6.220   1.770
21800W        W93471  15.463  36.416   4.088
21801W        W93472  43.935  37.960   1.297
21802W        W93473   8.476  13.367  14.824
21803W        W93474  29.692   6.260   4.164
21804W        W93475  44.321   2.788  11.599
21805W        W93476  31.488   8.869   1.646
21806W        W93477  10.905   5.122  13.324
21807W        W93478  41.851  17.745  13.942
21808W        W93479  10.414   4.116  10.791
21809W        W93480  17.247   8.188   2.227
21810W        W93481  41.045   9.193   4.126
21811W        W93482  26.166  44.861  11.439
21812W        W93483  39.314  32.220  12.526
21813W        W93484  26.558  14.351   4.462
21814W        W93485  43.287   1.744  10.580
21815W        W93486   7.865  14.688   4.052
21816W        W93487  18.999   7.367   0.320
21817W        W93488  34.912  43.760   4.653
21818W        W93489  37.471  37.529  10.253
21819W        W93490  20.419  14.053   4.206
21820W        W93491   5.237  18.966  11.496
21821W        W93492   2.008  35.593   0.707
21822W        W93493  13.091  17.023   3.494
21823W        W93494  20.331  10.901  12.939
21824W        W93495  29.183  21.685   3.606
21825W        W93496  41.946   2.241  11.917
21826W        W93497  31.536  15.106   1.372
21827W        W93498  31.549  30.702  12.011
21828W        W93499  38.786  29.936   0.030
21829W        W93500   5.930  36.717  11.780
21830W        W93501   6.935  43.253   4.565
21831W        W93502  15.836  18.670   1.099
21832W        W93503  28.833  41.868   1.367
21833W        W93504  14.244  42.888   4.645
21834W        W93505  35.239  37.771   2.231
21835W        W93506   2.239  14.388   0.423
21836W        W93507  43.411   5.223   2.225
21837W        W93508  32.215   1.439   3.752
21838W        W93509  24.183  19.675  13.993
21839W        W93510  21.330  16.723   3.776
21840W        W93511  35.019   7.318  12.333
21841W        W93512  15.197  26.707   1.808
21842W        W93513   3.470   2.059   2.203
21843W        W93514  17.643   4.021  12.054
21844W        W93515   6.198  43.940   1.441
21845W        W93516  34.616  19.190   4.253
21846W        W93517  38.609  25.609   1.705
21847W        W93518  44.941  30.303  11.148
21848W        W93519  37.469   7.872  14.529
21849W        W93520  10.448  11.068   4.541
21850W        W93521   0.395  30.908   2.804
21851W        W93522   4.415  38.508  13.525
21852W        W93523   5.224  16.196  14.338
21853W        W93524   0.651  12.821  11.980
21854W        W93525   5.693   1.797   0.228
21855W        W93526   1.867   2.745   1.176
21856W        W93527  17.828  12.211   1.893
21857W        W93528  18.245   2.834  13.288
21858W        W93529  38.654   9.654   3.694
21859W        W93530  22.093  31.454  14.952
21860W        W93531  40.030  38.761   3.870
21861W        W93532  34.143  35.441  10.811
21862W        W93533  29.220  38.904  10.963
21863W        W93534  15.910  34.855   3.608
21864W        W93535  23.718  10.642   3.693
21865W        W93536  35.052   5.831  12.156
21866W        W93537  20.524   6.147   4.070
21867W        W93538  20.775  35.843  14.546
21868W        W93539  11.700  19.336   5.085
21869W        W93540   0.576  20.317   1.954
21870W        W93541  24.773  20.677  12.491
21871W        W93542  44.759  30.024  10.571
21872W        W93543  21.921  18.190  13.378
21873W        W93544  25.695  43.054  11.634
21874W        W93545  36.528  15.238   4.412
21875W        W93546  22.815   4.837  10.253
21876W        W93547   3.662  32.067  14.002
21877W        W93548  11.303  18.849  12.475
21878W        W93549   9.345  44.429   0.438
21879W        W93550  31.376  18.031   1.569
21880W        W93551  44.045  15.354  14.507
21881W        W93552  40.005  13.254   4.154
21882W        W93553  19.506   0.580   4.619
21883W        W93554  43.800   0.498   3.548
21884W        W93555  30.505  31.641   1.227
21885W        W93556  25.654  27.433  12.469
21886W        W93557  32.138  28.364  11.126
21887W        W93558  44.772  25.079  12.151
21888W        W93559  44.698   1.412   2.644
21889W        W93560  24.273  39.524  12.515
21890W        W93561  34.337  34.965  10.714
21891W        W93562  16.838   7.249   1.238
21892W        W93563  13.660  23.724  14.876
21893W        W93564  19.119   8.652   2.333
21894W        W93565  30.870  25.549   1.357
21895W        W93566  16.575  27.591   4.830
21896W        W93567  28.528   2.394   2.306
21897W        W93568   9.347  27.606  12.149
21898W        W93569  44.625  44.540  10.245
21899W        W93570   7.861  28.535  13.272
21900W        W93571  33.019   4.297   4.112
21901W        W93572  40.264  18.796   0.132
21902W        W93573  40.144  40.883   1.927
21903W        W93574  43.286   9.911  10.460
21904W        W93575  37.581   2.492  13.241
21905W        W93576   0.486   8.898   3.607
21906W        W93577  35.135  18.663   2.803
21907W        W93578  15.147  32.374   0.529
21908W        W93579  16.207  20.795   0.849
21909W        W93580  20.661  38.815  12.991
21910W        W93581  30.915   9.990   2.760
21911W        W93582  20.663  30.501  11.742
21912W        W93583   6.144  27.988   0.404
21913W        W93584  35.522   8.403  12.812
21914W        W93585  44.481  44.276   4.166
21915W        W93586  21.540  14.277   3.617
21916W        W93587  23.587   1.293  14.061
21917W        W93588  42.917  17.561   0.306
21918W        W93589  24.143  34.126   0.038
21919W        W93590  16.969  33.945  14.876
21920W        W93591  18.166   3.968   3.288
21921W        W93592   2.676  18.057   3.115
21922W        W93593   0.454  18.749  13.019
21923W        W93594  30.191  37.674   2.772
21924W        W93595  32.422  43.004  13.337
21925W        W93596  23.878  35.368  11.627
21926W        W93597  34.495  40.828   1.861
21927W        W93598  41.416  18.616   4.815
21928W        W93599   9.446  36.063   2.306
21929W        W93600  17.788  23.233   0.487
21930W        W93601  24.488   6.465  13.424
21931W        W93602  15.875  41.836   0.405
21932W        W93603  12.827  39.712   1.733
21933W        W93604  41.792  42.224   3.675
21934W        W93605  44.311  37.066  13.320
21935W        W93606  26.098  30.655  10.560
21936W        W93607   6.712   2.765  11.555
21937W        W93608  43.849   0.569  13.899
21938W        W93609   1.877  31.863  10.779
21939W        W93610  35.155   6.508   2.345
21940W        W93611  30.253  22.624   0.993
21941W        W93612  23.457  39.277  10.610
21942W        W93613   1.161  34.717  11.168
21943W        W93614   3.468  44.706  14.550
21944W        W93615   3.031   6.366  13.862
21945W        W93616  18.819   2.264   0.014
21946W        W93617  22.023  14.585   3.063
21947W        W93618   3.370   4.366   2.107
21948W        W93619  23.000  14.237   0.861
21949W        W93620  34.352  31.014   2.809
21950W        W93621  20.602   2.650   4.169
21951W        W93622  17.187   3.320   3.748
21952W        W93623  13.228  24.484   0.785
21953W        W93624  39.740  11.678   0.454
21954W        W93625   8.577  34.982  13.861
21955W        W93626   8.346   2.751  10.798
21956W        W93627  18.986  27.672  12.846
21957W        W93628  43.405  13.853  13.882
21958W        W93629  44.236   8.832  13.167
21959W        W93630  13.323  41.549  11.601
21960W        W93631  14.053  23.685   2.172
21961W        W93632  42.226  24.635  14.408
21962W        W93633  39.176   0.709  12.594
21963W        W93634  27.979  11.287  13.553
21964W        W93635  41.290   5.664  11.667
21965W        W93636  10.674   8.962   3.626
21966W        W93637  30.561  17.317  13.446
21967W        W93638  28.892  18.775   4.008
21968W        W93639  39.869  34.674   2.240
21969W        W93640   0.817  26.678  12.038
21970W        W93641  20.193   8.910   2.470
21971W        W93642  22.633  16.291   3.474
21972W        W93643   5.798  39.030  12.441
21973W        W93644  31.043  13.165  13.669
21974W        W93645   7.402   7.236   1.264
21975W        W93646  36.051   0.487   0.879
21976W        W93647  13.141  39.342   2.655
21977W        W93648  18.112  43.398   2.536
21978W        W93649  31.525  37.487   2.243
21979W        W93650  26.585  44.936   4.964
21980W        W93651  11.347  36.346  12.719
21981W        W93652   3.960  32.503  13.916
21982W        W93653  37.842   4.194  14.874
21983W        W93654  16.808  41.453  13.017
21984W        W93655   8.589   4.713   2.142
21985W        W93656  43.872  40.006   2.200
21986W        W93657  34.565  32.475   2.750
21987W        W93658   8.109   5.009  12.683
21988W        W93659   4.411   8.633   0.917
21989W        W93660  30.555   1.574   4.168
21990W        W93661  42.773  27.036  12.425
21991W        W93662  23.120  40.060   4.025
21992W        W93663   1.222  28.526   1.239
21993W        W93664   1.798  39.636   2.725
21994W        W93665   6.772  22.255  12.162
21995W        W93666  10.793   4.022  14.736
21996W        W93667  19.032  10.232  12.460
21997W        W93668  18.551  28.372   2.634
21998W        W93669  22.020   4.128   1.197
21999W        W93670  15.639  19.700   4.059
22000W        W93671   1.313  12.058  11.020
22001W        W93672  13.862  11.681  12.455
22002W        W93673  40.391  16.580   3.710
22003W        W93674  39.138  15.358   4.317
22004W        W93675  38.028  33.357   3.693
22005W        W93676  25.238  31.044  14.321
22006W        W93677   3.340  21.622   3.475
22007W        W93678  27.597  36.857   0.262
22008W        W93679   8.643  29.827   3.612
22009W        W93680  42.429   6.922   3.140
22010W        W93681  40.097  21.642  14.900
22011W        W93682  43.549  22.632   4.181
22012W        W93683  22.791   8.948  13.898
22013W        W93684   9.810   5.491  12.075
22014W        W93685   5.176  19.413  13.350
22015W        W93686  32.523  27.555  11.054
22016W        W93687   6.864  24.396  11.222
22017W        W93688  37.593  18.036   3.917
22018W        W93689   9.584  31.600  13.278
22019W        W93690  13.817   6.853  11.745
22020W        W93691  42.781  32.623  12.056
22021W        W93692  37.675   3.391  14.419
22022W        W93693  32.141   8.330  13.596
22023W        W93694  27.992  40.560   2.384
22024W        W93695   5.813  22.008  14.765
22025W        W93696  17.007  34.713  13.086
22026W        W93697  27.657  34.095   1.525
22027W        W93698  25.861   5.224   0.859
22028W        W93699   6.003   5.715  14.949
22029W        W93700  15.184  37.547   2.286
22030W        W93701  35.396   4.453  13.845
22031W        W93702  16.738  14.203   3.319
22032W        W93703  14.877  13.077  10.632
22033W        W93704  22.097  18.333  14.817
22034W        W93705  35.056  28.215   2.958
22035W        W93706  26.503  20.777  14.369
22036W        W93707  32.973  16.342   3.209
22037W        W93708  26.052  15.414   1.383
22038W        W93709  20.151  25.060   0.311
22039W        W93710  36.390   9.065  10.737
22040W        W93711  22.592   9.251   0.732
22041W        W93712  28.430  40.556  12.552
22042W        W93713  12.739  17.800   3.962
22043W        W93714  12.297  44.969  12.824
22044W        W93715  40.710   9.527  11.044
22045W        W93716   8.775  33.668  11.997
22046W        W93717  42.092   9.188  13.580
22047W        W93718  10.536  41.229   0.098
22048W        W93719  14.753  18.146   5.104
22049W        W93720   1.337  33.141   1.963
22050W        W93721  31.454   3.947   4.157
22051W        W93722  37.327   3.350  14.020
22052W        W93723   4.728  23.612   0.931
22053W        W93724  37.898  44.415   1.885
22054W        W93725   8.682  32.355  13.510
22055W        W93726  34.136   9.191  14.504
22056W        W93727  18.297  19.218   3.065
22057W        W93728   1.314  11.589  13.374
22058W        W93729  14.687   0.998  13.584
22059W        W93730  15.626  11.294  12.846
22060W        W93731   0.347  21.650  10.168
22061W        W93732  15.299  41.046   4.775
22062W        W93733  28.304  29.662   1.731
22063W        W93734   7.729  11.443  14.016
22064W        W93735  37.821  30.966  11.218
22065W        W93736  30.743  34.137  10.525
22066W        W93737  40.323  36.880   1.564
22067W        W93738  13.541  39.322  14.863
22068W        W93739  19.057  37.935   4.559
22069W        W93740  33.511   9.594   2.741
22070W        W93741   1.001  27.165   4.205
22071W        W93742   8.694  20.451  11.495
22072W        W93743  14.678   0.044   3.151
22073W        W93744   8.753  38.147   1.734
22074W        W93745  39.551   4.812  12.607
22075W        W93746   2.598  27.983  11.213
22076W        W93747  44.213  39.977  11.128
22077W        W93748  43.983  20.130  11.191
22078W        W93749   6.850  19.159   2.334
22079W        W93750  43.566   1.441  12.950
22080W        W93751   9.938  31.595   3.593
22081W        W93752  43.240  31.590   2.257
22082W        W93753  43.492  14.313  11.715
22083W        W93754  37.424  39.527  12.443
22084W        W93755   6.724  17.522   3.547
22085W        W93756  36.072  15.344   4.182
22086W        W93757  32.176  10.964  12.573
22087W        W93758  11.742  12.651   2.791
22088W        W93759  34.837  24.584  11.599
22089W        W93760   9.376  37.386  14.982
22090W        W93761  30.967   5.955  12.007
22091W        W93762   7.264  31.976  13.974
22092W        W93763  26.404   9.823  14.242
22093W        W93764  25.590   7.800  10.288
22094W        W93765   9.390  37.511  10.665
22095W        W93766   2.853  15.797  11.077
22096W        W93767  21.092  13.494   5.032
22097W        W93768  17.298  18.012  13.586
22098W        W93769  15.659  12.702   1.649
22099W        W93770  27.158  16.739   4.378
22100W        W93771  26.470   2.428  11.981
22101W        W93772   8.856  43.522  12.006
22102W        W93773  40.350   6.514  10.127
22103W        W93774  21.002  25.616   1.504
22104W        W93775   6.265  20.392  12.538
22105W        W93776  17.059  23.250  13.918
22106W        W93777  33.604  30.246   0.702
22107W        W93778  11.220  39.770  11.406
22108W        W93779  29.909  12.405   2.243
22109W        W93780   5.039  10.853  10.751
22110W        W93781  33.935  26.294  11.855
22111W        W93782   9.112  20.650   2.681
22112W        W93783  29.181  39.684  10.579
22113W        W93784  15.612  25.026   2.846
22114W        W93785   4.651  35.666   2.304
22115W        W93786  30.673   0.986   2.360
22116W        W93787  12.804  29.150   4.192
22117W        W93788  43.306   2.604   0.466
22118W        W93789   0.504  22.663  12.825
22119W        W93790  26.085  40.123   1.846
22120W        W93791  37.606  36.462   4.675
22121W        W93792  26.971  43.597   0.207
22122W        W93793   1.995  30.639   3.292
22123W        W93794  12.781   5.536  11.338
22124W        W93795  12.400   4.773   2.336
22125W        W93796   3.048  24.546  11.439
22126W        W93797  37.154  19.067  14.934
22127W        W93798   9.355  39.368   2.356
22128W        W93799   1.558  17.035   1.933
22129W        W93800  18.815  28.197   0.468
22130W        W93801  21.699  20.222   3.835
22131W        W93802  23.224   4.461  13.992
22132W        W93803  35.416  25.694  14.492
22133W        W93804  14.293  44.295   1.976
22134W        W93805  10.598   7.913  13.934
22135W        W93806  15.839  42.555   4.088
22136W        W93807  41.412  29.514  12.060
22137W        W93808  39.234  10.155  10.703
22138W        W93809  18.484  21.556   3.628
22139W        W93810   3.949  18.926  12.423
22140W        W93811  40.841  14.499   2.749
22141W        W93812  26.972  29.735   0.309
22142W        W93813  17.743  32.923   0.994
22143W        W93814  15.861  41.373  10.912
22144W        W93815  40.584  38.556   3.752
22145W        W93816  22.067  10.334   2.362
22146W        W93817  19.312  20.711  12.194
22147W        W93818  34.287  25.086  11.109
22148W        W93819   5.830  19.661  10.721
22149W        W93820   4.824  29.730   4.033
22150W        W93821   2.261   8.304   2.967
22151W        W93822  15.198  11.397   1.852
22152W        W93823  17.703  31.508   4.377
22153W        W93824  28.597   4.611   0.341
22154W        W93825  34.033  11.886   0.817
22155W        W93826  12.122  41.886   1.054
22156W        W93827  43.908  37.667  12.272
22157W        W93828  43.459  41.605   5.430
22158W        W93829  27.207   2.095   4.039
22159W        W93830  27.523  13.130   3.294
22160W        W93831  36.308  22.557   1.185
22161W        W93832  22.682  17.258   3.152
22162W        W93833  39.034  35.150   1.097
22163W        W93834  44.633  17.498  11.130
22164W        W93835   1.361  21.282   0.534
22165W        W93836  32.786   4.429  11.625
22166W        W93837  17.409   7.259   2.826
22167W        W93838  18.288   4.948  11.210
22168W        W93839  33.082  27.202  10.349
22169W        W93840   2.948  34.576  14.467
22170W        W93841   9.395   2.296   0.902
22171W        W93842  30.098  19.457   1.859
22172W        W93843   8.819   2.434  12.128
22173W        W93844  43.657  40.490  14.577
22174W        W93845  28.552  38.437  12.589
22175W        W93846  39.851  19.402   2.861
22176W        W93847  16.214   6.198  14.026
22177W        W93848   7.240  23.514  12.039
22178W        W93849  44.901  35.564   0.383
22179W        W93850  42.454   9.048  12.447
22180W        W93851   7.318  42.205   3.262
22181W        W93852  19.631  16.567   4.307
22182W        W93853  12.182  13.815   4.528
22183W        W93854  27.322   4.155   1.292
22184W        W93855  20.207   2.739  12.695
22185W        W93856  17.808  23.519   4.504
22186W        W93857  40.365  41.057  11.633
22187W        W93858  18.737   4.842   4.617
22188W        W93859  34.084  36.081   4.319
22189W        W93860   4.854   0.299   2.393
22190W        W93861   6.412  38.143  14.408
22191W        W93862   8.227  27.040   2.178
22192W        W93863  35.056  35.008   3.588
22193W        W93864  16.369   7.361   2.898
22194W        W93865  13.876   1.024   1.057
22195W        W93866  27.489  31.648  10.958
22196W        W93867  33.344  18.352   1.939
22197W        W93868  18.235  29.927   2.373
22198W        W93869  36.373  11.991   2.291
22199W        W93870  34.361  27.784   0.297
22200W        W93871   4.643  12.131  13.088
22201W        W93872  43.875  37.068  12.663
22202W        W93873  15.630  19.746   1.893
22203W        W93874  21.027  15.287  13.077
22204W        W93875  43.880   5.199   4.678
22205W        W93876  35.213   7.608   2.724
22206W        W93877  27.508  33.978  13.468
22207W        W93878  34.829  43.557  12.561
22208W        W93879  26.693   9.771   0.068
22209W        W93880  18.596  15.858  11.161
22210W        W93881  12.784  28.386  14.322
22211W        W93882  32.701   8.236  11.244
22212W        W93883  22.590   3.098  12.060
22213W        W93884  10.087  27.151  12.854
22214W        W93885  32.610   1.718  11.607
22215W        W93886  38.515   1.543   3.524
22216W        W93887  39.248  29.195   2.693
22217W        W93888   2.412  43.571  11.951
22218W        W93889   4.358   4.199  10.564
22219W        W93890   5.469   2.751  12.417
22220W        W93891   7.966  41.079   4.058
22221W        W93892   2.729   6.411   2.318
22222W        W93893  11.290  44.896  13.713
22223W        W93894  12.075  32.899   0.856
22224W        W93895   3.326  14.122  12.380
22225W        W93896  41.548  14.343   0.389
22226W        W93897  19.551  26.521   9.735
22227W        W93898  36.010  44.475   0.473
22228W        W93899  33.827   8.036  12.206
22229W        W93900   0.510  32.666   3.095
22230W        W93901  25.724  31.857   3.294
22231W        W93902  36.100  30.934   0.192
22232W        W93903   9.421  16.983  14.986
22233W        W93904  42.612   9.403   0.557
22234W        W93905  24.012   2.716  14.991
22235W        W93906  13.499  35.060  10.783
22236W        W93907  12.639  23.696   3.574
22237W        W93908  39.108  12.079   3.172
22238W        W93909  29.990  32.148  14.748
22239W        W93910  44.057   4.922  11.170
22240W        W93911  17.835  43.449   0.908
22241W        W93912  25.106  40.382   3.863
22242W        W93913   8.710  19.495   4.863
22243W        W93914  34.979   3.010   3.783
22244W        W93915  16.289  41.479  11.151
22245W        W93916   5.782  13.659  11.475
22246W        W93917   2.256  28.089   4.995
22247W        W93918   5.685   4.919   1.897
22248W        W93919   2.823   0.615   1.236
22249W        W93920  36.071  25.574   1.370
22250W        W93921   2.809  33.176   2.448
22251W        W93922  36.656  43.945   0.970
22252W        W93923   5.785  38.915  13.475
22253W        W93924  31.077  23.267  12.742
22254W        W93925   0.773  39.044   3.173
22255W        W93926  19.302  29.187   4.077
22256W        W93927  36.362  12.974   0.776
22257W        W93928  44.353  22.835   2.896
22258W        W93929  39.261  30.875   0.779
22259W        W93930   7.006  27.743  10.977
22260W        W93931  16.799  32.592  14.589
22261W        W93932  36.809  34.457  12.575
22262W        W93933  28.098  26.804   2.757
22263W        W93934  42.906  13.695  12.466
22264W        W93935  32.446  31.522  14.501
22265W        W93936  34.269  44.614  11.857
22266W        W93937  43.737   6.413   1.161
22267W        W93938  25.692  42.909  10.313
22268W        W93939   6.779  10.064  14.444
22269W        W93940  35.079  12.209  11.982
22270W        W93941  28.952   6.195   1.015
22271W        W93942  25.979   3.868   4.123
22272W        W93943  24.935  18.204  11.952
22273W        W93944  29.470  38.891   2.563
22274W        W93945  35.671  35.356   1.454
22275W        W93946  19.075  21.686  14.100
22276W        W93947   0.063  22.524   4.167
22277W        W93948   1.742  37.135  12.490
22278W        W93949  22.691  40.475  11.607
22279W        W93950  42.995  36.652   2.641
22280W        W93951   7.942  24.601  11.969
22281W        W93952  29.136  28.624   0.372
22282W        W93953  12.553  14.117   0.736
22283W        W93954   0.296  35.131  14.882
22284W        W93955  40.553   1.533   4.596
22285W        W93956  27.686  44.453   3.112
22286W        W93957  21.856  38.122   2.756
22287W        W93958   5.288  34.423  14.502
22288W        W93959  38.063  23.137   3.952
22289W        W93960  23.681  38.568  12.065
22290W        W93961  40.229  14.812   4.001
22291W        W93962  42.583  26.454   3.847
22292W        W93963  40.826  15.086  12.433
22293W        W93964   7.311  23.194  13.511
22294W        W93965   3.955  12.850   1.760
22295W        W93966  26.717  44.722   0.077
22296W        W93967  26.056  36.622   4.868
22297W        W93968  19.227  24.591   2.001
22298W        W93969  38.907  33.068  14.688
22299W        W93970  26.217   2.717  11.216
22300W        W93971  28.902  10.707   4.215
22301W        W93972  28.023  39.362  11.259
22302W        W93973  10.881  38.422   0.928
22303W        W93974   8.290   0.989   1.430
22304W        W93975  17.574  24.242  11.591
22305W        W93976  32.618  30.157   3.644
22306W        W93977  26.234   0.956   2.797
22307W        W93978  10.139  32.930   0.927
22308W        W93979  18.365  22.463  11.453
22309W        W93980  37.978  16.806  10.640
22310W        W93981   8.265  35.164  12.376
22311W        W93982  41.139  20.740  10.721
22312W        W93983  20.180  34.936   1.168
22313W        W93984  22.112  35.500  10.781
22314W        W93985  35.933   0.262   4.504
22315W        W93986  16.957   8.292   3.639
22316W        W93987  41.416  38.648  12.601
22317W        W93988   3.546  40.257  12.503
22318W        W93989  44.048  27.232   4.901
22319W        W93990  24.023  24.459   0.606
22320W        W93991   2.196   7.156  14.421
22321W        W93992  43.369  19.771  14.891
22322W        W93993  11.728  10.055   2.021
22323W        W93994  39.631   3.216   0.007
22324W        W93995  19.990  17.153   3.694
22325W        W93996  23.593  20.252  11.956
22326W        W93997  19.971  28.067   0.915
22327W        W93998  25.007   8.842  10.737
22328W        W93999   1.920  26.227   3.551
22329W        W94000  27.038   6.827   3.301
22330W        W94001  20.747  16.562  11.067
22331W        W94002  32.699  42.740   2.208
22332W        W94003  30.392  31.595   0.367
22333W        W94004  34.963  39.665   2.397
22334W        W94005  36.860  31.553   2.109
22335W        W94006  30.956  15.021   3.220
22336W        W94007  43.192  24.367  14.310
22337W        W94008  34.452   0.264   2.279
22338W        W94009  43.750  44.974   1.244
22339W        W94010  28.159   9.169   3.739
22340W        W94011  35.885   2.273  14.120
22341W        W94012  10.882   8.786  14.770
22342W        W94013  27.947   6.723   5.444
22343W        W94014   9.582  11.132  14.958
22344W        W94015  35.033  20.979   5.000
22345W        W94016  22.599  20.670   4.266
22346W        W94017  44.973   7.160  12.991
22347W        W94018  11.339  25.231   1.436
22348W        W94019  27.062   3.387   3.041
22349W        W94020  27.896  37.918   2.768
22350W        W94021   9.714   3.707  12.525
22351W        W94022  40.913  22.679   2.075
22352W        W94023  18.044  26.706   2.622
22353W        W94024  42.405   5.404  12.418
22354W        W94025  11.238  29.907   4.490
22355W        W94026  20.769  34.111  10.949
22356W        W94027   0.844  26.082  11.602
22357W        W94028  29.167  12.237  11.046
22358W        W94029  38.472  14.579  12.029
22359W        W94030  39.618  25.530  13.401
22360W        W94031  44.516   1.979   0.442
22361W        W94032  19.444  27.249   3.346
22362W        W94033  30.012  19.552   2.742
22363W        W94034  17.404  30.746   4.232
22364W        W94035  25.652   7.245   1.537
22365W        W94036  33.598   6.268   3.126
22366W        W94037  37.897  40.327   1.634
22367W        W94038  20.289  19.761  12.521
22368W        W94039   4.292   1.821  13.099
22369W        W94040  17.584   1.806   4.605
22370W        W94041  13.132   6.249   2.352
22371W        W94042  22.175  25.496  10.804
22372W        W94043  16.764  21.690  12.611
22373W        W94044   8.869  38.645   3.770
22374W        W94045  34.416   0.091  11.719
22375W        W94046  26.632   5.117  14.263
22376W        W94047  32.975  33.124  14.673
22377W        W94048  17.010  17.564  13.024
22378W        W94049  42.495   4.508  10.969
22379W        W94050   5.777  22.788   1.386
22380W        W94051  26.195  22.486   0.724
22381W        W94052  35.973  34.580   2.833
22382W        W94053  31.503  26.887  12.475
22383W        W94054  12.484  12.781   2.834
22384W        W94055  34.042   5.676   1.409
22385W        W94056  38.587  24.543  14.463
22386W        W94057  12.409   9.000   1.953
22387W        W94058  20.309   8.891   3.689
22388W        W94059   7.779  27.242  13.968
22389W        W94060   3.045  29.004   0.874
22390W        W94061  12.621  18.821   4.157
22391W        W94062  35.915   8.377  12.043
22392W        W94063  10.219   4.029  13.142
22393W        W94064  28.201  24.026   4.537
22394W        W94065  16.019   3.520  13.421
22395W        W94066  14.561   2.357   2.906
22396W        W94067  16.327  11.167  12.053
22397W        W94068  22.516   1.160  11.055
22398W        W94069  39.085  37.314   2.708
22399W        W94070  19.613  21.289  11.025
22400W        W94071  43.682  11.225   0.716
22401W        W94072   6.934  13.740   2.849
22402W        W94073  13.258  18.628  11.484
22403W        W94074  42.799  14.489   0.882
22404W        W94075   0.329  22.093   0.983
22405W        W94076  43.794   4.798   3.740
22406W        W94077  36.978  44.174   2.352
22407W        W94078  44.490  15.771   4.076
22408W        W94079   5.218  35.878  13.426
22409W        W94080  13.002  14.853   4.527
22410W        W94081   7.933   7.404   4.590
22411W        W94082  35.954  15.413  11.058
22412W        W94083  37.926   0.716   4.485
22413W        W94084  21.468  29.434  14.004
22414W        W94085   9.248  42.309   0.260
22415W        W94086  10.723  31.179  10.717
22416W        W94087  26.486   6.927   3.574
22417W        W94088  23.467  41.920   1.889
22418W        W94089  37.773  34.191   4.136
22419W        W94090  15.693  25.449   2.424
22420W        W94091  11.979  10.625   3.292
22421W        W94092   8.904  14.086  11.594
22422W        W94093  12.307   5.413   0.025
22423W        W94094   7.938  10.342   2.265
22424W        W94095  16.097   6.986  11.418
22425W        W94096  27.479   3.885  11.553
22426W        W94097  17.668  16.044   4.090
22427W        W94098  43.383   8.554  11.528
22428W        W94099  38.764   7.235   2.491
22429W        W94100  22.598   9.749   1.295
22430W        W94101   3.745  23.002  10.357
22431W        W94102  13.492   0.339  10.431
22432W        W94103  32.058  24.021   1.306
22433W        W94104  44.752   6.393   0.646
22434W        W94105  41.350   5.362   4.782
22435W        W94106  28.935  32.595   4.554
22436W        W94107   6.634  22.316  14.401
22437W        W94108  28.989  35.569   0.052
22438W        W94109   3.785   8.914  14.391
22439W        W94110   1.957  31.101   4.236
22440W        W94111  39.848  14.150  12.627
22441W        W94112  16.784  10.231  11.602
22442W        W94113  14.366  41.364   3.316
22443W        W94114  31.466  10.324  11.662
22444W        W94115  12.798  19.014  14.912
22445W        W94116  31.789  25.634  13.409
22446W        W94117   7.207  34.552  13.487
22447W        W94118  32.564  36.123   2.449
22448W        W94119  21.171  37.775  14.394
22449W        W94120  36.377  24.419   4.881
22450W        W94121  38.836   5.212   3.939
22451W        W94122  14.346   8.768  13.919
22452W        W94123   6.498  29.477  12.147
22453W        W94124  37.457  20.022   2.463
22454W        W94125  33.906   9.079   0.312
22455W        W94126   3.689  17.327   0.355
22456W        W94127  20.049  14.820  14.575
22457W        W94128  23.214  16.552  10.645
22458W        W94129  37.362  34.676  14.019
22459W        W94130  14.621  35.147  11.471
22460W        W94131   7.175  33.573   0.884
22461W        W94132  35.728  16.117  11.637
22462W        W94133  31.346  28.423  11.501
22463W        W94134  42.608  18.043  14.361
22464W        W94135   0.865  14.254   1.271
22465W        W94136  20.093  35.215  10.911
22466W        W94137  24.692  36.418   3.716
22467W        W94138  10.449  41.832   0.026
22468W        W94139  32.082  16.494   4.228
22469W        W94140  22.178  19.101   2.466
22470W        W94141  25.494   4.442   0.957
22471W        W94142   4.124   6.779   4.690
22472W        W94143  28.193  21.823  12.282
22473W        W94144  37.465   5.937  11.045
22474W        W94145  41.899   3.793   3.880
22475W        W94146  43.503  22.196  13.381
22476W        W94147  34.035  25.005  11.579
22477W        W94148  38.486   3.918  14.600
22478W        W94149  11.739   7.134  14.622
22479W        W94150  29.257  36.399   3.395
22480W        W94151  32.455  20.231   1.836
22481W        W94152  18.968  24.234   5.583
22482W        W94153  39.939  12.344   4.296
22483W        W94154   9.409  27.006  11.708
22484W        W94155  41.517  39.458   2.189
22485W        W94156  42.863  44.948   4.477
22486W        W94157  23.249  12.314   1.693
22487W        W94158  19.674   0.919   3.319
22488W        W94159  29.733  32.641  12.514
22489W        W94160  28.680   1.374   2.964
22490W        W94161  29.477   4.983   3.576
22491W        W94162  22.106  41.620  10.695
22492W        W94163  37.644  29.583   3.340
22493W        W94164  17.583  34.343   0.748
22494W        W94165  29.701  17.922  14.338
22495W        W94166  31.532  35.995  13.993
22496W        W94167  38.485  29.909  12.009
22497W        W94168   8.168  17.519  11.512
22498W        W94169  38.513   6.897   1.723
22499W        W94170  19.571  25.527   2.175
22500W        W94171  37.024  24.637   0.640
22501W        W94172  30.951   3.822   4.127
22502W        W94173  29.464   3.325   4.745
22503W        W94174  24.920  11.720  13.390
22504W        W94175  40.527  10.431   4.975
22505W        W94176  33.560  18.343  14.833
22506W        W94177  38.467  15.278   4.278
22507W        W94178   6.757  21.390   0.501
22508W        W94179  29.180  14.290   4.084
22509W        W94180  38.981  36.951   1.436
22510W        W94181   3.280   9.365   1.338
22511W        W94182  36.239  24.464  11.944
22512W        W94183   0.355  10.940  13.325
22513W        W94184  27.119  31.972   0.225
22514W        W94185  32.933  16.729  11.885
22515W        W94186  40.897  43.314  14.845
22516W        W94187  41.469  36.818  14.701
22517W        W94188  38.964  20.953   1.300
22518W        W94189  30.515  30.850  11.141
22519W        W94190  34.053  17.624  12.094
22520W        W94191   3.683  22.445   2.176
22521W        W94192  24.599  26.135  12.980
22522W        W94193  24.486  13.322  12.646
22523W        W94194  14.046  42.988  11.641
22524W        W94195   2.414  36.995   2.278
22525W        W94196   2.748  20.992  11.536
22526W        W94197   0.330  14.387   4.650
22527W        W94198  22.891  43.419   3.288
22528W        W94199  11.196  40.988   2.639
22529W        W94200   2.443  12.346   0.318
22530W        W94201  33.856  30.109  14.815
22531W        W94202  24.796  33.501   0.466
22532W        W94203  25.745  27.342   3.234
22533W        W94204  42.851  24.911   1.248
22534W        W94205   2.800   4.594   0.067
22535W        W94206  33.610  10.338  11.936
22536W        W94207  28.198  40.633  13.985
22537W        W94208  19.092   4.714  14.820
22538W        W94209  17.067  15.750   2.364
22539W        W94210  31.985  11.227   4.207
22540W        W94211  37.411  37.596  11.139
22541W        W94212  31.699   8.922  12.944
22542W        W94213  16.347   8.773  14.421
22543W        W94214  31.220  25.044  13.029
22544W        W94215  24.079  32.100   4.096
22545W        W94216   0.044  44.391  13.487
22546W        W94217  24.128   2.000   2.333
22547W        W94218  20.023  18.819  11.558
22548W        W94219   8.359  20.135   3.713
22549W        W94220  42.479  24.618   3.886
22550W        W94221  31.917  38.943  13.512
22551W        W94222  15.714   9.523  12.325
22552W        W94223  25.826  40.918   1.640
22553W        W94224   2.952  22.089  12.938
22554W        W94225  10.324  22.061   0.038
22555W        W94226  38.788  36.363  12.445
22556W        W94227  33.910   2.151   4.144
22557W        W94228  34.862   3.656  13.481
22558W        W94229   5.437  44.400  13.474
22559W        W94230  44.871   8.655  14.865
22560W        W94231  19.526  30.271  11.706
22561W        W94232  13.356  43.909  12.120
22562W        W94233  12.857   4.493  11.700
22563W        W94234  20.952  13.432  12.314
22564W        W94235   5.305  23.020  13.268
22565W        W94236  24.451  17.125   2.944
22566W        W94237  18.300   0.445  14.444
22567W        W94238  23.142  35.679  14.809
22568W        W94239  37.034   9.272   3.238
22569W        W94240  24.672   4.658  11.088
22570W        W94241   7.201  31.498   0.809
22571W        W94242  20.787  32.091  12.831
22572W        W94243  24.108  25.652   4.530
22573W        W94244  14.576  32.591   4.678
22574W        W94245  25.533  19.256  10.618
22575W        W94246  24.491   8.212  13.976
22576W        W94247  19.997  18.803   0.903
22577W        W94248   9.312  31.540   4.858
22578W        W94249  24.273  19.188   0.457
22579W        W94250  34.017  15.976   1.383
22580W        W94251  20.077  26.966  12.349
22581W        W94252   9.986  24.218   4.082
22582W        W94253  35.361   5.322   2.913
22583W        W94254   3.404  41.251   0.006
22584W        W94255  26.015  19.721   1.408
22585W        W94256  41.608   0.452   0.858
22586W        W94257  17.891  40.832  12.990
22587W        W94258  17.632  34.001   2.077
22588W        W94259  31.571  15.712   4.143
22589W        W94260   0.522  34.481  11.970
22590W        W94261  24.255   1.375  11.635
22591W        W94262  13.205  44.809   1.280
22592W        W94263  19.030  24.508   4.300
22593W        W94264   8.672  28.213  14.026
22594W        W94265   7.031   6.271   4.119
22595W        W94266  31.110  16.188  10.496
22596W        W94267  22.029   1.668   2.330
22597W        W94268  18.870  23.605   1.691
22598W        W94269  17.257  21.324  14.421
22599W        W94270  22.677  23.406  14.229
22600W        W94271  26.156  32.944   4.136
22601W        W94272  37.840   8.461   2.333
22602W        W94273  18.547   1.709   0.896
22603W        W94274   4.378   3.388  14.941
22604W        W94275  17.638  39.246  14.331
22605W        W94276  25.892  35.044   1.851
22606W        W94277  21.743  39.540  12.387
22607W        W94278  31.346  24.220   4.297
22608W        W94279  16.086  23.215  12.885
22609W        W94280  12.587   8.735   4.548
22610W        W94281  14.556  42.839   4.243
22611W        W94282  43.587   0.935   0.715
22612W        W94283  32.993  23.593  13.535
22613W        W94284  25.383  41.205  12.481
22614W        W94285  11.712  32.323  14.461
22615W        W94286  15.604  22.583   0.394
22616W        W94287  20.339  21.136   1.325
22617W        W94288  39.211  33.498  14.711
22618W        W94289  33.106  33.940  10.610
22619W        W94290  25.592   5.926   0.981
22620W        W94291  39.676  13.823   1.797
22621W        W94292   9.324  23.940  14.438
22622W        W94293  31.486  38.043  13.354
22623W        W94294  21.175  10.248  14.500
22624W        W94295  17.641  36.819  12.923
22625W        W94296  29.168   6.825   2.861
22626W        W94297   3.020  20.073   3.399
22627W        W94298  27.102  19.657   3.100
22628W        W94299  21.098  42.943  12.003
22629W        W94300  20.616  22.519  13.927
22630W        W94301  26.415   9.841   2.728
22631W        W94302  29.666  39.028  13.780
22632W        W94303  39.579  29.479   2.376
22633W        W94304   3.803  38.541  11.339
22634W        W94305  40.561  26.554   3.149
22635W        W94306  23.238  14.315   3.363
22636W        W94307  29.993  33.626  12.032
22637W        W94308  40.851  36.566   0.823
22638W        W94309  19.109  44.999  11.032
22639W        W94310  32.346  14.681   2.671
22640W        W94311   1.076   8.692   5.109
22641W        W94312   4.405  29.345   1.902
22642W        W94313  39.337  14.582   3.792
22643W        W94314  28.469  14.352  12.908
22644W        W94315  42.949  15.120  13.535
22645W        W94316   6.640   1.943  11.371
22646W        W94317  43.053   8.667  12.401
22647W        W94318  42.503  24.707  12.592
22648W        W94319   6.387  22.762  10.265
22649W        W94320  15.561  33.265   2.632
22650W        W94321  31.654  17.734  11.152
22651W        W94322  17.067  44.560   2.355
22652W        W94323  27.570  22.676  11.572
22653W        W94324  16.593  34.605  10.613
22654W        W94325   5.077  35.057   4.669
22655W        W94326  21.628   0.871  13.570
22656W        W94327  14.164  13.477   4.521
22657W        W94328  13.605  19.109   3.836
22658W        W94329  35.891  23.127   0.023
22659W        W94330  36.908  27.223   2.254
22660W        W94331  26.384   8.695   3.686
22661W        W94332  35.945  33.710   2.330
22662W        W94333  11.176   9.053   4.068
22663W        W94334   9.072  16.176   2.571
22664W        W94335  26.731   6.183  10.617
22665W        W94336   7.853  10.783   4.517
22666W        W94337  29.041  20.694   3.773
22667W        W94338  29.405  20.651   1.268
22668W        W94339   7.199   3.402   1.469
22669W        W94340  22.635  26.073   2.343
22670W        W94341   2.793  35.071  13.475
22671W        W94342  33.380  40.478   2.843
22672W        W94343  24.094  20.053   3.240
22673W        W94344  30.256  15.595   3.738
22674W        W94345  31.462  36.533  13.236
22675W        W94346   9.413  18.695   4.542
22676W        W94347  35.450  34.768   4.092
22677W        W94348  44.908  17.321  13.488
22678W        W94349  42.915  13.973   0.882
22679W        W94350   3.716  23.054   0.335
22680W        W94351  32.131  38.112   0.475
22681W        W94352  42.993  29.342   1.509
22682W        W94353  16.753  40.219   3.132
22683W        W94354   7.046   8.749  14.271
22684W        W94355  23.860  24.087  12.879
22685W        W94356   5.157  14.813   4.411
22686W        W94357  15.568   4.352   2.322
22687W        W94358  28.958  21.370   0.339
22688W        W94359   4.422  41.367   4.588
22689W        W94360  31.495  10.650  14.152
22690W        W94361   8.152  31.621   4.237
22691W        W94362  11.806   4.467  12.849
22692W        W94363  44.367  12.773   9.796
22693W        W94364  18.255  15.021  11.118
22694W        W94365  36.011   0.790   4.382
22695W        W94366  12.626  18.616  12.826
22696W        W94367  39.098   2.400  13.448
22697W        W94368   9.789   6.321  14.470
22698W        W94369  29.375  36.911   0.714
22699W        W94370  11.219  29.228  11.013
22700W        W94371   8.652  12.269   2.407
22701W        W94372  24.289  42.122   2.238
22702W        W94373   4.471  36.683  12.327
22703W        W94374  16.510  36.152  11.506
22704W        W94375   7.802  12.623  12.528
22705W        W94376  24.509  16.768  11.425
22706W        W94377   9.893  10.185  11.249
22707W        W94378  37.431  27.594  11.141
22708W        W94379   5.472  10.287   2.806
22709W        W94380  40.095  26.072  11.305
22710W        W94381   0.423  35.562   0.178
22711W        W94382  39.505  16.555   0.943
22712W        W94383  41.202  44.851   0.226
22713W        W94384  13.593  21.015   3.029
22714W        W94385  35.112  34.241   3.320
22715W        W94386  44.777  38.997   3.744
22716W        W94387  33.409  41.974   4.596
22717W        W94388  34.526   4.338  14.426
22718W        W94389   5.669  21.220  11.943
22719W        W94390  10.265   4.617  11.999
22720W        W94391  18.086   2.606  10.772
22721W        W94392  25.440  18.170  12.043
22722W        W94393  13.644  26.239   1.761
22723W        W94394  24.088   2.643  12.039
22724W        W94395  17.498  11.040   3.309
22725W        W94396  22.748  21.296  11.635
22726W        W94397  38.034  33.973  11.524
22727W        W94398   1.131  14.718   2.682
22728W        W94399  19.537  32.124   2.282
22729W        W94400   2.850  27.668   4.926
22730W        W94401   2.980  28.105  13.758
22731W        W94402  38.867  15.210   3.405
22732W        W94403  28.248  18.674  14.254
22733W        W94404  30.517  25.449  13.991
22734W        W94405  17.442  25.376  14.510
22735W        W94406   0.879  37.995  12.556
22736W        W94407  31.680  31.591   4.223
22737W        W94408  25.117  23.571  14.566
22738W        W94409  16.565  15.592   2.372
22739W        W94410  10.611  41.575   0.498
22740W        W94411   7.895  31.083  10.981
22741W        W94412  23.557  38.807  12.508
22742W        W94413  25.586  38.112   1.315
22743W        W94414   6.033  28.588  10.520
22744W        W94415  40.431  41.323   3.186
22745W        W94416  22.310  40.998  13.981
22746W        W94417  13.672   7.135   3.238
22747W        W94418  26.995  32.584   1.196
22748W        W94419  10.666  27.991  12.400
22749W        W94420  39.541  38.591  14.830
22750W        W94421   5.709  13.120  12.217
22751W        W94422  36.622  35.093   2.761
22752W        W94423  42.825  33.535   1.871
22753W        W94424  20.674  44.568   1.285
22754W        W94425   9.777  22.163  11.158
22755W        W94426  26.995  31.416  10.759
22756W        W94427   7.782  11.822   3.602
22757W        W94428  29.583  27.998   0.895
22758W        W94429  25.244  42.818   3.803
22759W        W94430  44.513  32.133   3.300
22760W        W94431  18.064   5.924  11.450
22761W        W94432  31.449  30.684   0.669
22762W        W94433  13.226  17.011   4.009
22763W        W94434  13.624   7.788  12.992
22764W        W94435  35.601   7.355   1.882
22765W        W94436  34.330   7.774  10.705
22766W        W94437  28.509  26.292   4.597
22767W        W94438  14.133  30.599  13.826
22768W        W94439   9.729  44.113   1.309
22769W        W94440  16.198   0.067  13.860
22770W        W94441  40.411   9.851  11.491
22771W        W94442  23.643  16.837  10.662
22772W        W94443   8.134  42.341  12.012
22773W        W94444  10.123  33.310  13.070
22774W        W94445  40.431  19.485   2.831
22775W        W94446  33.214  25.263  11.457
22776W        W94447  35.480  30.043  13.522
22777W        W94448  14.565  14.979  13.433
22778W        W94449  12.231   8.128  11.087
22779W        W94450  24.610  30.388   1.476
22780W        W94451  20.363  21.512  12.046
22781W        W94452  38.881  40.468  13.665
22782W        W94453  14.582  28.003   3.185
22783W        W94454  29.428  18.206  12.164
22784W        W94455   2.797  36.364   1.478
22785W        W94456  44.512  22.430  12.891
22786W        W94457  35.397   3.420  11.167
22787W        W94458  33.370  31.379   2.630
22788W        W94459  37.927  13.739  13.093
22789W        W94460   7.193  42.723  11.935
22790W        W94461   1.002   7.587   3.278
22791W        W94462  14.579  10.735  13.445
22792W        W94463  14.610  42.319   4.099
22793W        W94464  18.648   7.855  14.714
22794W        W94465  39.062  14.195   1.253
22795W        W94466  29.171  16.703   3.063
22796W        W94467  21.767   3.114   2.445
22797W        W94468  26.117  36.729   2.718
22798W        W94469  13.643  14.154   1.820
22799W        W94470   8.288   5.484   4.204
22800W        W94471  44.702  42.285   3.358
22801W        W94472  28.867  26.150  12.974
22802W        W94473  33.267  44.751  11.966
22803W        W94474  43.992   9.272  11.413
22804W        W94475  28.979  13.298   4.350
22805W        W94476  39.915  13.633  11.246
22806W        W94477  28.798  44.030   0.524
22807W        W94478  23.601  40.718  10.991
22808W        W94479   9.769  17.106   3.913
22809W        W94480  12.661  39.224   0.820
22810W        W94481  12.845   2.736  13.894
22811W        W94482  12.178   3.463   1.933
22812W        W94483  27.460  20.512   0.800
22813W        W94484  31.355  41.306  13.889
22814W        W94485  17.121  34.857   2.674
22815W        W94486  12.982  42.994  12.377
22816W        W94487   1.844   8.933   1.495
22817W        W94488   9.151  12.664   0.725
22818W        W94489  44.053  10.898   0.532
22819W        W94490   4.374   8.565   3.103
22820W        W94491  22.639   3.788   3.600
22821W        W94492  40.009  40.845   0.869
22822W        W94493  15.836  18.363  11.104
22823W        W94494  27.425  26.973   0.962
22824W        W94495  36.901  19.507  12.941
22825W        W94496  11.794  44.427  10.805
22826W        W94497  43.589  42.362   4.143
22827W        W94498  28.629  16.245  14.322
22828W        W94499  21.626   9.143  12.572
22829W        W94500   7.243  17.652  13.360
22830W        W94501  31.423   6.807   1.689
22831W        W94502  39.423   6.620  10.523
22832W        W94503  12.347   8.898  10.407
22833W        W94504  10.189  16.338   3.635
22834W        W94505   0.470  25.432  13.252
22835W        W94506   7.936   5.509  12.156
22836W        W94507  23.269  18.684   0.275
22837W        W94508  33.541  31.368  10.918
22838W        W94509  25.158  36.440   3.972
22839W        W94510  33.505  44.264  12.063
22840W        W94511  18.805  19.002  12.314
22841W        W94512  24.008  42.891   4.515
22842W        W94513  35.994   9.734   3.685
22843W        W94514  30.098  35.845   2.313
22844W        W94515  19.732   6.474   2.257
22845W        W94516  34.441   7.134  14.045
22846W        W94517  42.499  23.079   1.370
22847W        W94518  42.523  20.137  12.567
22848W        W94519  38.345  23.237   1.769
22849W        W94520  41.230  15.004  12.892
22850W        W94521  38.794   3.934  11.994
22851W        W94522  15.388   4.354  10.619
22852W        W94523   6.330  22.073  13.341
22853W        W94524   5.294  35.872  11.632
22854W        W94525  38.560  14.695   0.289
22855W        W94526  23.615  26.259   0.377
22856W        W94527  21.785  24.618  14.964
22857W        W94528  23.220  19.058   1.321
22858W        W94529  44.376   3.047  11.152
22859W        W94530  29.612  42.723  11.194
22860W        W94531  39.441  21.560  12.780
22861W        W94532  22.680  20.813   1.309
22862W        W94533  17.155  37.344   4.178
22863W        W94534  19.954  13.292   3.760
22864W        W94535   8.310  15.834   2.333
22865W        W94536  20.482  25.594  10.400
22866W        W94537  12.661  21.064   1.984
22867W        W94538  13.611  33.322  11.235
22868W        W94539  13.614   9.900   2.410
22869W        W94540   4.297  41.051  13.586
22870W        W94541  40.383  35.124   1.498
22871W        W94542   8.091   2.536  12.581
22872W        W94543  21.898  37.689   4.720
22873W        W94544  15.351   1.435  11.325
22874W        W94545  22.208  33.643  12.763
22875W        W94546  28.549  23.710   3.591
22876W        W94547  34.806  42.007  11.753
22877W        W94548  35.803  25.252   2.781
22878W        W94549  38.063  20.205  12.562
22879W        W94550  24.628   1.849  10.958
22880W        W94551  27.609   4.909   1.790
22881W        W94552  31.653  11.625   0.781
22882W        W94553   8.360  39.763   0.783
22883W        W94554  40.879  39.351  10.991
22884W        W94555  20.719  28.052   0.338
22885W        W94556  11.166  18.233   4.632
22886W        W94557  31.472  17.691   3.692
22887W        W94558  24.403  27.424   3.658
22888W        W94559  38.355  42.066   2.763
22889W        W94560   4.927   9.498   2.685
22890W        W94561   1.771   9.172   3.962
22891W        W94562  22.912   9.631   0.874
22892W        W94563  11.863   2.738  13.699
22893W        W94564  38.989   9.254   0.964
22894W        W94565   6.485  35.819  13.091
22895W        W94566   6.911  10.870  11.328
22896W        W94567  17.902  24.355  12.625
22897W        W94568   0.150  30.124   3.355
22898W        W94569  22.579   8.340  13.003
22899W        W94570  26.975  18.973  14.474
22900W        W94571  26.644  41.384   1.325
22901W        W94572  40.020  29.900   3.303
22902W        W94573  27.495   2.239   4.464
22903W        W94574  22.840  20.081  13.469
22904W        W94575  44.966  43.321   1.673
22905W        W94576  19.035  32.470  12.623
22906W        W94577  37.610  19.417  14.862
22907W        W94578   9.462   5.125  13.454
22908W        W94579   1.274  29.737   0.393
22909W        W94580  37.236  23.769   2.138
22910W        W94581  23.002  24.071  13.950
22911W        W94582   0.891   1.736   3.094
22912W        W94583   8.212  40.036   2.720
22913W        W94584  22.073  17.273  12.137
22914W        W94585  37.067  22.206   4.138
22915W        W94586  15.010  18.361   4.301
22916W        W94587   6.137  34.339   3.741
22917W        W94588  28.630  30.679  14.382
22918W        W94589  42.187  37.921   0.800
22919W        W94590  37.862  16.362  12.893
22920W        W94591  18.797  40.979  14.861
22921W        W94592   7.620   2.401   4.703
22922W        W94593  29.340   0.394  12.975
22923W        W94594  31.685  19.722   4.620
22924W        W94595   8.082  31.432   2.356
22925W        W94596  32.855  14.722  14.396
22926W        W94597  40.756  22.510  13.357
22927W        W94598  17.752  17.780  13.696
22928W        W94599  33.016  29.899   3.407
22929W        W94600  17.247  38.517   1.510
22930W        W94601  34.799  12.480   1.487
22931W        W94602  38.937  29.507  13.358
22932W        W94603  39.325  13.739   1.394
22933W        W94604  21.522  28.934  13.914
22934W        W94605  10.644  20.241   0.770
22935W        W94606  40.878  36.437  10.485
22936W        W94607  44.732  18.292  12.472
22937W        W94608  20.066   2.856   2.706
22938W        W94609  34.387  25.747   3.297
22939W        W94610  44.190  40.809  12.980
22940W        W94611  18.241   0.509   2.413
22941W        W94612  26.251   4.897   1.064
22942W        W94613   3.150  28.458   3.588
22943W        W94614  11.950  44.868   0.573
22944W        W94615  37.873   5.203   4.322
22945W        W94616  27.667  27.936  11.166
22946W        W94617   1.232  32.213   3.655
22947W        W94618  10.209  17.757   0.792
22948W        W94619  40.501  23.241   1.734
22949W        W94620   0.757  22.960   1.919
22950W        W94621  11.247  32.120  13.029
22951W        W94622  34.488  30.604  10.718
22952W        W94623   2.227  10.460  12.002
22953W        W94624  22.780  27.748   3.635
22954W        W94625  35.234   7.298  13.373
22955W        W94626  10.704  41.136   4.547
22956W        W94627  43.761   9.073  10.990
22957W        W94628  27.354  13.237   0.349
22958W        W94629   1.349  37.004  13.287
22959W        W94630   1.161  19.450   9.739
22960W        W94631  11.199  31.718   0.813
22961W        W94632  22.849  27.872   2.289
22962W        W94633   6.771  38.975   4.735
22963W        W94634  19.770   5.843  13.858
22964W        W94635  38.038  36.067  13.425
22965W        W94636  41.258  23.202  12.064
22966W        W94637   3.956  44.007   4.606
22967W        W94638  24.246  34.843  10.599
22968W        W94639   4.845  16.216   2.144
22969W        W94640  27.838  24.337  10.750
22970W        W94641   3.409   3.231   4.045
22971W        W94642  31.916   7.123   0.323
22972W        W94643  26.111  23.071  13.929
22973W        W94644  29.344  30.490   1.452
22974W        W94645  23.920  27.775   0.092
22975W        W94646  34.566  30.559  11.210
22976W        W94647  15.822  11.135   4.076
22977W        W94648  16.150  32.488  14.773
22978W        W94649   2.448  24.616   1.621
22979W        W94650  25.526  26.779  10.790
22980W        W94651   5.294  12.600   1.880
22981W        W94652  14.605  43.622  12.112
22982W        W94653  16.539  29.508   3.664
22983W        W94654  36.573   9.224   2.944
22984W        W94655  10.558  37.028   1.798
22985W        W94656  28.544  11.729   2.240
22986W        W94657  42.492  18.304   4.670
22987W        W94658  36.134  36.505   0.744
22988W        W94659  17.498   1.365   0.904
22989W        W94660  33.411  34.334  12.049
22990W        W94661  38.743   9.797   0.317
22991W        W94662  25.230  43.394   2.218
22992W        W94663  21.050  11.343   0.224
22993W        W94664  30.495  39.760  12.076
22994W        W94665  10.221  34.811   4.179
22995W        W94666  43.035   1.385  12.870
22996W        W94667  35.329  44.719   2.376
22997W        W94668   9.717  15.871  10.225
22998W        W94669  10.124   4.874   0.665
22999W        W94670  14.539   4.266  12.893
23000W        W94671  19.214  34.463   4.290
23001W        W94672  11.231  20.138   2.389
23002W        W94673  44.194  10.130  13.020
23003W        W94674  35.044  17.684   1.281
23004W        W94675   4.765  13.513   2.824
23005W        W94676   0.308   5.271   4.189
23006W        W94677  27.921  38.018   4.624
23007W        W94678  14.301  13.174   0.770
23008W        W94679  37.174  38.541   3.135
23009W        W94680  33.279   8.259   4.581
23010W        W94681  25.631  13.753   3.743
23011W        W94682  32.787   9.163   1.749
23012W        W94683   3.423  44.041   4.668
23013W        W94684   4.852   2.181  14.336
23014W        W94685   4.176  23.547  12.108
23015W        W94686  18.581  43.800   0.858
23016W        W94687  44.853   0.509  13.838
23017W        W94688  16.376  42.006  12.901
23018W        W94689  12.557  16.654   0.354
23019W        W94690  20.581  35.491   0.970
23020W        W94691  35.999   5.986   4.631
23021W        W94692  24.102  17.704   1.693
23022W        W94693  19.106  21.740   1.269
23023W        W94694  38.059  31.706  12.952
23024W        W94695  24.065  33.479   0.013
23025W        W94696   3.512  18.795  12.133
23026W        W94697  18.840  43.692  12.835
23027W        W94698   0.814   1.234  10.950
23028W        W94699  23.434  19.599   2.215
23029W        W94700  34.844   0.673   2.422
23030W        W94701  41.284  10.636  12.162
23031W        W94702  26.984  30.250  11.473
23032W        W94703  23.848  10.061  12.993
23033W        W94704   5.564  40.673   1.439
23034W        W94705  12.742  14.239   1.239
23035W        W94706  37.558  30.179   4.520
23036W        W94707   3.713  33.877   4.235
23037W        W94708  26.416   8.664   4.480
23038W        W94709  42.472   9.396  10.742
23039W        W94710  42.079  38.508   4.593
23040W        W94711   1.299  19.613   0.464
23041W        W94712   0.526  38.250  11.509
23042W        W94713   4.929   5.840   3.018
23043W        W94714  22.758  20.037  14.382
23044W        W94715  16.498  27.147   1.253
23045W        W94716  43.800  42.957   5.020
23046W        W94717  41.831  44.243  12.241
23047W        W94718  12.146  28.751  14.800
23048W        W94719  24.200  37.700  11.964
23049W        W94720  31.169   7.705  14.397
23050W        W94721   1.522  19.127   0.408
23051W        W94722   6.762   3.943  14.021
23052W        W94723   3.509   2.755  11.103
23053W        W94724  17.643  37.333  14.274
23054W        W94725  18.697  41.750   4.702
23055W        W94726  39.479  22.018   3.120
23056W        W94727  32.900   3.192   3.075
23057W        W94728  21.023  26.746   3.655
23058W        W94729  34.373  43.311  14.750
23059W        W94730  28.708  24.354   2.837
23060W        W94731  35.969  31.516  13.890
23061W        W94732   8.594  36.847  14.945
23062W        W94733  15.257  17.776  10.864
23063W        W94734  40.573  23.186   2.616
23064W        W94735   8.399  41.930  14.955
23065W        W94736  40.894  13.829   1.578
23066W        W94737  34.080   0.997  11.156
23067W        W94738   9.873  16.352  13.817
23068W        W94739  22.823  38.543  11.746
23069W        W94740   2.238  11.599   2.281
23070W        W94741  21.048  21.148  12.089
23071W        W94742  36.609  27.714   2.828
23072W        W94743  44.794  26.135  11.617
23073W        W94744  39.066  42.144   2.890
23074W        W94745  23.582  39.109   2.390
23075W        W94746  17.387  40.539  10.982
23076W        W94747  39.327   9.379   2.853
23077W        W94748  32.246  35.414   0.430
23078W        W94749  36.269  35.937  12.057
23079W        W94750  21.621   7.149   2.753
23080W        W94751  40.982  32.346  13.427
23081W        W94752   2.740  20.979  12.371
23082W        W94753   8.645   2.045   0.930
23083W        W94754  20.721   8.196   0.149
23084W        W94755  35.450   7.414   4.307
23085W        W94756  40.058   4.951   3.095
23086W        W94757  36.214  11.704  14.705
23087W        W94758  25.923  21.239  12.630
23088W        W94759  34.395  27.420  13.338
23089W        W94760  15.791   9.067   2.154
23090W        W94761  20.251   3.480   3.752
23091W        W94762  10.223  43.428   2.394
23092W        W94763   3.583  26.907  10.953
23093W        W94764   9.164  35.245  10.997
23094W        W94765   1.512  14.843  14.025
23095W        W94766  10.814  40.676   2.379
23096W        W94767  10.398  36.058  12.017
23097W        W94768   1.294  24.004  14.403
23098W        W94769  14.866  16.470   2.373
23099W        W94770  28.175   3.456   0.834
23100W        W94771   9.357  21.614  12.943
23101W        W94772   6.326  43.739  11.614
23102W        W94773  14.669  42.554  10.471
23103W        W94774  11.759  20.270  12.447
23104W        W94775  32.905  10.703   4.700
23105W        W94776  18.718   1.177  12.414
23106W        W94777  30.084  15.759   1.422
23107W        W94778  36.771  11.774   2.596
23108W        W94779  32.070   1.407  12.102
23109W        W94780  19.469   2.030  11.656
23110W        W94781  18.657  22.621  13.517
23111W        W94782   2.304  32.163   4.580
23112W        W94783  38.502  20.891   4.137
23113W        W94784  38.963   1.745   2.358
23114W        W94785   8.476   2.983  13.538
23115W        W94786  44.714   1.745   1.788
23116W        W94787  17.116   0.291  12.427
23117W        W94788   1.035  36.996  12.015
23118W        W94789  29.609  14.112   1.278
23119W        W94790  44.965  33.354  12.831
23120W        W94791   9.256  13.799  13.409
23121W        W94792   7.465   5.691  10.796
23122W        W94793   3.796  19.013   4.273
23123W        W94794   2.121  25.274  11.715
23124W        W94795  17.157  16.757   2.972
23125W        W94796   2.759  29.105  12.784
23126W        W94797  14.584   3.273   4.717
23127W        W94798   4.841  36.093  11.769
23128W        W94799  31.439  32.986   0.955
23129W        W94800  32.120  22.467   3.222
23130W        W94801  34.162  39.535   0.806
23131W        W94802  10.316  43.261   4.618
23132W        W94803   7.789  23.431  12.014
23133W        W94804  34.137  24.103  14.969
23134W        W94805  25.034  23.302  11.518
23135W        W94806  26.838   9.891  11.050
23136W        W94807   3.338  31.444   5.039
23137W        W94808  15.503  28.968  13.723
23138W        W94809  15.124  39.546   3.754
23139W        W94810  27.727  26.639   3.149
23140W        W94811  34.277  36.287  11.573
23141W        W94812  39.366  35.160  14.005
23142W        W94813   7.925   9.483   4.117
23143W        W94814  43.487  11.676  14.508
23144W        W94815   0.336   3.310  13.547
23145W        W94816  36.066  19.779   2.418
23146W        W94817  36.705  20.777   3.236
23147W        W94818  39.085  23.825   3.319
23148W        W94819  14.573   4.397  12.404
23149W        W94820   2.180  23.997  10.586
23150W        W94821   9.121  11.894  11.714
23151W        W94822   2.360  15.588  10.479
23152W        W94823   2.271  34.904   0.261
23153W        W94824  40.064  22.186   1.790
23154W        W94825   3.448  25.586  13.503
23155W        W94826  37.581  37.574   0.484
23156W        W94827  22.169  28.682   2.146
23157W        W94828  16.367  26.202  12.688
23158W        W94829  21.307  31.114  10.770
23159W        W94830   4.917  19.452   0.507
23160W        W94831  23.026  29.093  13.791
23161W        W94832  28.982  27.505  14.876
23162W        W94833   4.015  29.036  11.409
23163W        W94834  25.075  35.293  11.964
23164W        W94835  15.299  26.113   3.879
23165W        W94836  17.497   9.013  13.300
23166W        W94837  14.115  35.038   3.730
23167W        W94838   9.699   0.247  13.156
23168W        W94839   4.723   4.795  13.371
23169W        W94840  37.861   3.327   3.403
23170W        W94841  14.631  38.848   2.155
23171W        W94842  10.563  10.687   3.654
23172W        W94843  20.735   4.484  10.800
23173W        W94844  20.261   9.109  13.307
23174W        W94845  43.213   8.407  14.861
23175W        W94846  10.137  38.855  11.093
23176W        W94847  40.985  33.889   2.550
23177W        W94848  38.584   1.902   4.691
23178W        W94849   4.041  16.743  12.969
23179W        W94850  20.196  30.941  13.364
23180W        W94851   0.403   8.624  13.993
23181W        W94852  32.900   3.689   2.368
23182W        W94853  17.080  40.910   1.903
23183W        W94854  19.631  44.477  10.677
23184W        W94855  18.714  16.240  14.071
23185W        W94856   5.340  40.588  11.949
23186W        W94857  33.623  16.640  13.343
23187W        W94858  27.108  26.583  10.174
23188W        W94859  35.544  18.711   3.116
23189W        W94860  38.693  43.708  13.826
23190W        W94861  14.595  30.638   3.841
23191W        W94862  34.722   3.594   1.240
23192W        W94863  28.255   3.218   5.086
23193W        W94864   7.846   0.389  12.906
23194W        W94865  17.310   1.510  14.058
23195W        W94866  22.930  37.121  13.376
23196W        W94867  32.447   2.875  14.412
23197W        W94868  39.803   1.245   3.827
23198W        W94869  19.038   4.859  11.653
23199W        W94870   7.757  44.780   3.339
23200W        W94871  10.239  24.241   4.544
23201W        W94872  39.921   4.606  11.140
23202W        W94873  33.098  41.383  14.900
23203W        W94874  20.269  25.100  12.089
23204W        W94875  34.328  22.749  14.306
23205W        W94876   5.742  13.154  10.682
23206W        W94877  17.814   8.004   1.698
23207W        W94878  23.034  31.603  14.691
23208W        W94879  26.625  14.200  10.748
23209W        W94880  30.623  19.964   1.371
23210W        W94881  44.362  19.374   2.239
23211W        W94882  42.410  18.065   1.899
23212W        W94883   9.116  29.107   2.632
23213W        W94884   9.039  35.085   3.766
23214W        W94885  44.918  23.486  14.497
23215W        W94886  23.867   0.441  13.887
23216W        W94887  29.991  23.492   4.762
23217W        W94888  35.986   8.813  12.546
23218W        W94889  28.912  28.698  12.063
23219W        W94890  26.504  32.962  11.998
23220W        W94891  29.996  20.151  14.976
23221W        W94892   7.155   2.439   4.408
23222W        W94893   5.815  31.313  11.500
23223W        W94894  44.877  36.077  11.561
23224W        W94895  16.206  22.685   2.142
23225W        W94896  34.824  43.807   0.307
23226W        W94897   0.639  41.086  12.483
23227W        W94898  23.221  22.160   2.508
23228W        W94899  43.566  26.665   4.166
23229W        W94900  24.514  18.297   3.693
23230W        W94901  37.412  13.295  14.370
23231W        W94902  23.662  43.880   0.261
23232W        W94903  44.702   1.266   4.595
23233W        W94904  24.377   1.687   0.376
23234W        W94905  18.196  31.368   4.245
23235W        W94906   1.304   4.930  11.563
23236W        W94907  21.682  43.546  11.207
23237W        W94908  21.607  18.045  13.798
23238W        W94909  20.902  19.836  11.510
23239W        W94910  11.567  42.865   3.865
23240W        W94911  34.031   5.599   0.046
23241W        W94912  38.770   9.715  12.512
23242W        W94913  28.843  43.931   1.387
23243W        W94914  31.879   1.817   3.641
23244W        W94915   8.223  25.048  12.036
23245W        W94916   4.461  25.174   0.983
23246W        W94917  24.994  29.030   3.303
23247W        W94918  26.915  12.202   4.121
23248W        W94919   1.709  15.640  13.647
23249W        W94920   0.687  20.671  10.539
23250W        W94921  43.857   5.216   0.527
23251W        W94922  25.227  11.320   3.423
23252W        W94923   0.684  14.010   4.116
23253W        W94924  17.120  30.514   1.948
23254W        W94925  14.260  21.442   5.093
23255W        W94926  23.240  12.125  13.461
23256W        W94927  14.184  17.948   0.042
23257W        W94928   3.954  21.156  11.184
23258W        W94929  21.945  41.453  11.173
23259W        W94930  20.644  16.115   2.903
23260W        W94931  13.047  11.127  12.566
23261W        W94932  22.010  30.206   0.930
23262W        W94933  35.504   4.179   3.265
23263W        W94934   5.660  19.046  12.521
23264W        W94935  42.022  28.030  10.758
23265W        W94936  31.886  36.854   0.370
23266W        W94937   7.694  17.577  13.002
23267W        W94938  42.437  38.468  13.728
23268W        W94939  21.636  32.367  11.974
23269W        W94940   9.650  16.738   3.092
23270W        W94941   0.765  41.892   2.321
23271W        W94942   3.911   0.416   0.711
23272W        W94943  10.359  10.107   2.696
23273W        W94944  19.779   8.169   2.194
23274W        W94945  41.947  14.166  13.917
23275W        W94946  16.070   2.462  13.555
23276W        W94947  26.189  13.162  14.385
23277W        W94948  38.948  25.206  11.622
23278W        W94949  24.440  21.231   4.121
23279W        W94950  26.356  24.626   3.690
23280W        W94951  18.151   1.473   3.235
23281W        W94952  30.656  24.090   3.233
23282W        W94953  21.290  41.415   3.368
23283W        W94954  22.101  23.152   0.502
23284W        W94955  19.738   7.931   0.423
23285W        W94956  36.063  22.757  10.815
23286W        W94957  40.685  12.114   1.718
23287W        W94958   2.126  33.200  12.936
23288W        W94959  39.195   0.307   4.858
23289W        W94960  42.544  33.164   2.138
23290W        W94961  15.339  38.992   0.222
23291W        W94962  44.547  30.469  11.435
23292W        W94963  38.855   8.852  11.507
23293W        W94964  16.407  30.416  14.856
23294W        W94965   0.054  38.054   1.988
23295W        W94966  30.389   1.388   0.387
23296W        W94967   6.183  14.134   3.721
23297W        W94968  39.282  41.649  10.924
23298W        W94969   7.465  27.525  11.895
23299W        W94970   5.301   1.281  11.523
23300W        W94971  14.704   8.757   2.773
23301W        W94972  39.086  27.890   4.580
23302W        W94973   6.891  30.242   2.130
23303W        W94974  44.449  11.962   0.285
23304W        W94975   8.448   1.934   2.799
23305W        W94976  11.329  29.490  14.896
23306W        W94977  20.332   9.210  11.154
23307W        W94978  13.356  41.021  11.598
23308W        W94979   2.524   2.444  14.633
23309W        W94980  30.602  30.347  11.176
23310W        W94981   3.853  15.336  14.239
23311W        W94982  35.475  26.609  14.795
23312W        W94983   3.568  19.311   2.436
23313W        W94984  21.101   5.655   0.884
23314W        W94985  43.938  24.497   1.684
23315W        W94986  24.497  44.970  10.733
23316W        W94987  14.197  40.078  12.489
23317W        W94988  15.345  25.417   0.467
23318W        W94989  27.117  19.441   0.375
23319W        W94990  39.563  35.908  14.703
23320W        W94991  28.277  30.172   1.841
23321W        W94992  33.051  27.717  14.970
23322W        W94993  17.558   9.200   2.430
23323W        W94994  16.422   4.399  13.572
23324W        W94995  15.581  23.747   3.754
23325W        W94996  33.188  24.274   1.872
23326W        W94997  28.762  36.787   2.479
23327W        W94998  24.434  22.798  14.402
23328W        W94999  17.531   5.672  14.987
23329W        W95000  19.656  26.671   2.289
23330W        W95001  27.696  44.257   1.821
23331W        W95002   8.801  23.095   1.263
23332W        W95003  34.834  29.265  11.187
23333W        W95004  33.433  34.668  12.599
23334W        W95005  32.833  41.202  13.296
23335W        W95006  24.247   5.452  12.536
23336W        W95007  28.165  32.306   1.162
23337W        W95008   0.521  21.285   0.575
23338W        W95009  20.271  22.121  14.020
23339W        W95010  18.981   3.744  10.646
23340W        W95011  31.418   1.363  10.937
23341W        W95012  41.672  20.452   0.873
23342W        W95013  13.783  15.981  12.083
23343W        W95014  21.229  22.048  13.281
23344W        W95015   3.179  15.758  12.788
23345W        W95016  22.808  14.741  13.562
23346W        W95017  41.489   0.811  13.793
23347W        W95018  24.264   7.786  12.505
23348W        W95019  29.064   8.356   1.920
23349W        W95020   0.718  33.692  14.253
23350W        W95021  39.302  39.802   2.618
23351W        W95022  41.973  40.622   1.471
23352W        W95023  44.355  33.925  13.068
23353W        W95024  44.096  18.050  11.955
23354W        W95025  40.922   8.371  12.372
23355W        W95026  32.662  34.546  14.998
23356W        W95027   6.880   7.701  12.544
23357W        W95028  22.645  26.632   4.680
23358W        W95029  11.282  34.666   2.291
23359W        W95030  13.440  35.514   0.959
23360W        W95031  11.870   8.659   4.022
23361W        W95032  32.020  30.587  10.283
23362W        W95033  16.250  35.501   0.720
23363W        W95034  15.353  43.957   0.261
23364W        W95035  15.795  34.206  10.645
23365W        W95036  43.943   5.937  14.885
23366W        W95037  38.051  44.891   1.763
23367W        W95038  21.428  19.766  13.433
23368W        W95039   8.647  13.389   4.295
23369W        W95040  14.333  10.912   0.285
23370W        W95041  44.546  22.640  10.651
23371W        W95042   6.244  38.034   1.280
23372W        W95043  23.106  16.221  12.309
23373W        W95044  15.823  20.764  14.730
23374W        W95045  24.695  16.813   2.606
23375W        W95046  24.754  39.800   2.292
23376W        W95047   5.761  41.788  14.067
23377W        W95048  16.677  39.833  13.561
23378W        W95049   2.716   2.504  10.594
23379W        W95050  27.478  18.026   4.606
23380W        W95051   8.954  44.964  13.569
23381W        W95052   4.297  12.495  13.934
23382W        W95053   7.973  33.594   0.486
23383W        W95054  18.829  23.529   3.591
23384W        W95055   0.975  23.105  11.565
23385W        W95056  30.457   2.789   3.454
23386W        W95057   0.425   3.896   2.208
23387W        W95058  40.037  27.905  11.080
23388W        W95059  38.730  21.298  10.119
23389W        W95060  38.831  41.794  11.240
23390W        W95061  16.402  34.885  14.342
23391W        W95062   3.905  25.946   3.008
23392W        W95063  29.252  28.581  12.451
23393W        W95064   6.410  20.986   4.620
23394W        W95065  20.937   4.078   4.131
23395W        W95066  17.266  34.011  10.901
23396W        W95067  43.770  26.059  13.056
23397W        W95068  28.463  42.459   1.006
23398W        W95069  37.259  14.214   5.094
23399W        W95070  39.779  18.599  14.283
23400W        W95071   8.703  24.751  12.467
23401W        W95072  41.585  40.991   2.632
23402W        W95073  21.673   0.553  12.438
23403W        W95074  13.416  14.628   4.118
23404W        W95075   2.811   6.516  12.462
23405W        W95076  33.513  34.928   3.936
23406W        W95077  12.126  35.172   3.815
23407W        W95078  33.062  36.692   2.828
23408W        W95079  27.067  15.203   1.827
23409W        W95080  35.528   6.176   1.601
23410W        W95081  10.175  27.949  14.206
23411W        W95082  32.791   0.382  10.350
23412W        W95083   5.198   5.619  13.616
23413W        W95084   6.202   1.359  14.226
23414W        W95085  10.432   1.119   4.241
23415W        W95086  40.953   0.550  10.646
23416W        W95087  23.776  18.634   0.241
23417W        W95088  40.870  11.265  13.259
23418W        W95089   0.874  26.393  11.193
23419W        W95090  15.316  19.312  14.360
23420W        W95091  20.886  41.656   3.616
23421W        W95092  38.445  29.923  12.967
23422W        W95093  40.019  33.857  12.854
23423W        W95094  44.307   7.354  12.511
23424W        W95095  23.530  37.997   4.624
23425W        W95096  22.604  24.648   2.188
23426W        W95097  30.923  43.847  14.808
23427W        W95098  29.967  39.141   1.188
23428W        W95099  39.710   4.904  12.064
23429W        W95100   3.518  40.992   0.504
23430W        W95101  20.751  23.132   0.938
23431W        W95102  23.497  29.887  10.959
23432W        W95103   3.848  38.963   1.783
23433W        W95104  15.836  15.610   5.138
23434W        W95105  40.891  19.531   0.697
23435W        W95106  20.243  43.901  11.182
23436W        W95107  20.476  21.984  14.516
23437W        W95108  31.809   3.728   0.639
23438W        W95109  27.217  21.943   4.175
23439W        W95110  12.241  35.831  12.632
23440W        W95111   4.944  14.538   3.690
23441W        W95112  11.381   4.702   1.259
23442W        W95113  14.682  37.062  12.727
23443W        W95114  37.076  42.574  13.483
23444W        W95115  32.036  15.819  11.027
23445W        W95116   2.679  36.926   0.480
23446W        W95117  42.343  10.952  13.478
23447W        W95118  39.494  37.891  13.989
23448W        W95119  27.711   7.491  10.230
23449W        W95120  15.117   4.672  10.922
23450W        W95121  28.381   9.335   4.555
23451W        W95122  27.974  23.551   4.616
23452W        W95123  16.812  25.989  10.519
23453W        W95124  13.265  16.676   3.138
23454W        W95125  10.166  39.496  10.290
23455W        W95126   1.284  23.607   0.736
23456W        W95127  37.081  36.949   0.453
23457W        W95128  30.686   1.729   1.930
23458W        W95129  10.246   2.148   2.567
23459W        W95130  20.072   5.168  12.375
23460W        W95131  16.279  34.321   0.374
23461W        W95132  20.693  19.830   4.911
23462W        W95133  32.005   2.278  13.169
23463W        W95134  35.287  16.295   0.409
23464W        W95135  39.430  29.755  14.090
23465W        W95136  33.095   3.239  10.682
23466W        W95137  10.330   4.481   1.861
23467W        W95138  42.336  24.159   4.072
23468W        W95139  37.556  14.996  13.053
23469W        W95140   6.176  41.900  13.770
23470W        W95141  25.981  34.853  11.567
23471W        W95142  20.017  44.233   3.191
23472W        W95143  37.101  30.615  14.499
23473W        W95144  43.357  33.459  11.351
23474W        W95145  20.809  41.462  10.664
23475W        W95146  21.980  15.170  10.610
23476W        W95147  28.562  15.829  12.138
23477W        W95148  17.331   2.530  12.948
23478W        W95149  32.581  40.140  13.128
23479W        W95150  13.014  16.002  11.575
23480W        W95151  44.897  12.869   3.789
23481W        W95152  26.553  21.566  10.677
23482W        W95153  13.696  40.983   3.679
23483W        W95154   4.894  16.533   3.713
23484W        W95155   1.188  37.633   3.946
23485W        W95156  26.239  42.894   0.198
23486W        W95157  44.902  14.181   4.513
23487W        W95158  24.755  19.272   0.278
23488W        W95159  12.333  39.409  14.130
23489W        W95160   1.779   8.636   4.679
23490W        W95161  10.254  23.577  14.819
23491W        W95162  39.517  30.586  13.047
23492W        W95163   4.249   2.277  10.503
23493W        W95164  10.200  28.006  12.651
23494W        W95165  16.605  34.689   2.284
23495W        W95166  35.311   5.716   3.880
23496W        W95167  15.103  29.571   1.065
23497W        W95168  21.827  15.856  13.158
23498W        W95169  35.291  40.316   1.909
23499W        W95170  26.064  33.406  13.062
23500W        W95171   4.447  44.537  12.546
23501W        W95172  15.590   9.184   3.339
23502W        W95173  16.360  16.176  12.748
23503W        W95174  19.207  26.610   1.435
23504W        W95175  36.243  23.479   0.412
23505W        W95176  14.383  19.097  10.741
23506W        W95177  39.882  11.834   4.285
23507W        W95178  17.012  17.753   1.938
23508W        W95179  39.741  14.966  11.156
23509W        W95180  36.972  13.630   1.341
23510W        W95181  42.512  31.442  12.539
23511W        W95182  16.135   7.032   1.282
23512W        W95183  14.657   3.482   0.865
23513W        W95184  25.477  25.996  11.927
23514W        W95185  19.142  30.952  12.843
23515W        W95186   8.278  34.414   3.606
23516W        W95187  25.908  36.532  11.962
23517W        W95188  36.395  20.573   0.953
23518W        W95189  24.095  14.044   4.492
23519W        W95190  44.947   7.358   3.785
23520W        W95191  31.965   3.832   3.445
23521W        W95192  31.115  31.065   0.222
23522W        W95193  43.318  30.028  13.538
23523W        W95194  32.112   5.659  13.739
23524W        W95195   0.015  32.437  12.279
23525W        W95196   2.522   4.602   4.183
23526W        W95197  32.354   4.801  11.917
23527W        W95198  18.272  12.686  14.191
23528W        W95199   2.453  31.482  12.003
23529W        W95200   1.855   0.797  14.238
23530W        W95201  43.917  33.168  12.542
23531W        W95202  42.247  24.172  11.958
23532W        W95203   7.886  38.815   2.785
23533W        W95204  39.373  41.872  11.375
23534W        W95205   2.299  17.183  12.951
23535W        W95206  36.407  30.448   4.929
23536W        W95207   5.921  41.298  11.709
23537W        W95208  18.686  33.803   3.108
23538W        W95209  20.234  37.357  14.010
23539W        W95210   9.816  26.932  11.421
23540W        W95211  38.085  33.149   4.162
23541W        W95212  31.018  13.704   4.164
23542W        W95213  15.254  32.057  12.251
23543W        W95214  26.037   8.291   3.826
23544W        W95215   8.378  41.182  12.149
23545W        W95216  14.306  37.086   3.231
23546W        W95217  43.432  36.818  12.440
23547W        W95218   5.974   3.887   3.772
23548W        W95219  26.254  10.767   2.194
23549W        W95220  16.823  39.661  12.193
23550W        W95221   1.797  26.860   2.059
23551W        W95222  30.066  13.017  13.050
23552W        W95223  18.437  31.968  13.581
23553W        W95224  33.033  42.469   0.839
23554W        W95225  25.159  38.091   0.861
23555W        W95226  34.369   6.426   3.737
23556W        W95227  20.699  13.389   1.480
23557W        W95228  17.876  31.474  13.749
23558W        W95229  27.354   2.660   4.152
23559W        W95230  35.195   2.381   3.856
23560W        W95231  44.479  17.063  13.256
23561W        W95232  15.147   3.436  13.048
23562W        W95233  13.742  22.369   4.920
23563W        W95234  31.079   1.367   2.101
23564W        W95235  29.918  22.105  14.443
23565W        W95236  40.296   9.688  12.849
23566W        W95237  12.900  14.704  13.021
23567W        W95238  31.602  35.017   1.031
23568W        W95239  39.087  25.706   1.927
23569W        W95240  13.286  29.894  13.486
23570W        W95241  28.429  20.751   1.372
23571W        W95242  30.651  26.996  14.982
23572W        W95243  15.383   7.754   1.277
23573W        W95244   0.420   9.942  14.853
23574W        W95245   2.042  26.158   4.061
23575W        W95246   3.633  15.324  11.103
23576W        W95247   1.715  26.720   2.583
23577W        W95248   3.331  11.626   2.209
23578W        W95249  40.930  38.378   2.800
23579W        W95250  27.428  12.541  13.676
23580W        W95251  13.265  38.520  11.506
23581W        W95252  43.718   8.833   1.821
23582W        W95253  25.675  28.621  13.617
23583W        W95254  42.436  32.864   4.541
23584W        W95255  20.021  31.015   4.453
23585W        W95256  41.811   5.941   1.692
23586W        W95257  12.086  15.991   1.914
23587W        W95258  29.400  26.141   1.761
23588W        W95259   1.264   9.720   1.204
23589W        W95260  34.388   4.865  10.476
23590W        W95261  38.586  24.112   2.757
23591W        W95262  13.287   4.756   0.978
23592W        W95263  41.693   5.185   3.479
23593W        W95264  44.350  41.080  13.423
23594W        W95265  40.988  18.347   2.142
23595W        W95266  19.807   1.896  14.779
23596W        W95267  34.377  18.509  12.779
23597W        W95268  38.831  43.814   4.120
23598W        W95269  44.166  12.076   5.450
23599W        W95270  31.492  14.702  14.510
23600W        W95271  21.695   8.687   0.810
23601W        W95272   6.318  30.646   1.838
23602W        W95273  32.832  32.345  10.894
23603W        W95274  31.977  24.747  10.484
23604W        W95275   6.969  19.680   3.122
23605W        W95276   3.862  15.221  12.526
23606W        W95277  18.933  42.949   0.550
23607W        W95278   8.705  29.874   4.532
23608W        W95279   7.429  43.641  11.979
23609W        W95280  39.171  14.057  14.566
23610W        W95281  43.497  39.715  13.850
23611W        W95282  19.641  21.665  10.669
23612W        W95283  18.547  32.497  10.603
23613W        W95284  42.455  43.984   1.473
23614W        W95285  28.060  32.515  12.412
23615W        W95286  40.616  25.897  12.621
23616W        W95287  13.198   0.991   3.624
23617W        W95288  19.788  29.626   2.489
23618W        W95289   0.423  35.393  10.782
23619W        W95290  11.161  18.730  12.955
23620W        W95291  27.897  39.752   1.856
23621W        W95292   1.796   4.451   4.119
23622W        W95293   3.461  34.384  13.329
23623W        W95294   1.901  17.487   4.104
23624W        W95295   8.745  40.389   1.897
23625W        W95296  10.179  39.431   3.317
23626W        W95297  40.350   1.443  13.946
23627W        W95298   2.367  16.591  12.297
23628W        W95299  40.906  28.090   4.179
23629W        W95300   1.871  29.721  14.095
23630W        W95301  14.776   8.063  14.922
23631W        W95302  32.592  37.630  11.566
23632W        W95303  15.230  26.186  14.376
23633W        W95304  39.558   2.187  13.334
23634W        W95305  34.380  43.400   1.600
23635W        W95306  22.087   3.926   5.064
23636W        W95307  35.163   5.745   2.608
23637W        W95308  32.826   8.785   2.348
23638W        W95309  31.451  11.624  13.346
23639W        W95310  38.866  27.558   3.341
23640W        W95311  32.634   7.185  14.026
23641W        W95312  27.500  43.333   1.616
23642W        W95313   3.389   6.293   1.183
23643W        W95314  40.600   8.000  12.192
23644W        W95315  42.997  21.015   2.813
23645W        W95316  30.096  20.036   1.829
23646W        W95317  19.857  37.929  14.788
23647W        W95318   5.135  30.954  13.039
23648W        W95319  39.786   2.274   3.288
23649W        W95320  24.683  39.807   9.716
23650W        W95321  28.935  35.468   0.550
23651W        W95322  16.416  30.896   4.109
23652W        W95323  33.602   1.537   0.806
23653W        W95324  29.656   1.686  13.498
23654W        W95325  23.823  27.485  12.659
23655W        W95326   5.016  14.107  13.347
23656W        W95327  31.461  23.621  14.326
23657W        W95328  30.038  36.116  12.123
23658W        W95329  41.836   8.337   0.302
23659W        W95330  19.706  14.063  10.060
23660W        W95331   0.735  11.622  13.430
23661W        W95332  13.129  39.272  13.019
23662W        W95333  43.810  12.717  11.621
23663W        W95334  17.083  30.464  10.722
23664W        W95335  29.343  26.064   4.097
23665W        W95336  44.926  40.244   2.872
23666W        W95337  31.387   9.169   4.162
23667W        W95338  23.270  19.970   3.593
23668W        W95339  20.197  42.468   3.930
23669W        W95340  42.487  25.335   0.736
23670W        W95341  15.296  40.974   2.603
23671W        W95342  20.079  38.961   3.464
23672W        W95343  31.480   5.354  12.483
23673W        W95344  37.062  39.028  13.501
23674W        W95345   2.898   7.422   0.368
23675W        W95346  28.642  36.981   1.953
23676W        W95347  33.387  31.896   0.973
23677W        W95348  31.513  39.785   1.286
23678W        W95349  41.334  26.521   3.496
23679W        W95350  34.670  20.689  10.954
23680W        W95351   3.861  35.539   1.691
23681W        W95352  40.319  40.801  11.173
23682W        W95353  20.266  22.095   0.443
23683W        W95354  42.479  18.494   0.668
23684W        W95355  32.519  21.593   4.135
23685W        W95356  20.273  41.315   2.463
23686W        W95357   1.798   2.987  14.426
23687W        W95358  36.627  24.048   4.601
23688W        W95359  22.111  42.053   0.495
23689W        W95360  40.892  14.786  13.234
23690W        W95361  30.946  20.971  11.588
23691W        W95362  25.002  27.816  11.430
23692W        W95363  27.517  19.576   3.387
23693W        W95364  44.261  36.904  12.339
23694W        W95365  10.844   2.187   3.410
23695W        W95366  25.259  12.819  12.618
23696W        W95367   0.043   8.016   1.878
23697W        W95368   1.715  28.797   4.558
23698W        W95369  33.863  41.593  10.987
23699W        W95370  31.181   0.734  13.448
23700W        W95371  41.870   2.827   1.678
23701W        W95372  42.103  43.388  13.704
23702W        W95373  25.970  18.905   3.738
23703W        W95374  23.768  44.910  13.976
23704W        W95375   7.700  32.525  13.517
23705W        W95376  35.049  43.683   0.801
23706W        W95377  38.538  44.806  10.929
23707W        W95378  44.030  36.894   2.878
23708W        W95379  37.896   1.666   1.399
23709W        W95380  18.602   4.784  14.982
23710W        W95381  36.433   2.984   3.756
23711W        W95382  35.242  43.673  11.895
23712W        W95383   0.764  43.833  13.992
23713W        W95384  15.023  27.014   4.856
23714W        W95385  25.839  34.177   0.931
23715W        W95386  31.152  35.132   1.257
23716W        W95387  29.459  22.191   0.915
23717W        W95388   1.315  21.804   3.641
23718W        W95389  23.762   4.607  13.796
23719W        W95390  21.201  25.504  14.973
23720W        W95391  22.757  40.014  13.889
23721W        W95392  34.713  42.675  11.041
23722W        W95393   0.186  37.460  12.631
23723W        W95394  30.057  43.271   2.883
23724W        W95395  35.870  24.430  11.548
23725W        W95396  24.681   1.530  12.686
23726W        W95397  12.868  19.198  12.099
23727W        W95398  11.376  12.556  14.347
23728W        W95399  11.704   3.163   1.963
23729W        W95400   8.758  13.295   5.256
23730W        W95401  17.721  10.741  10.672
23731W        W95402  18.247  26.192  10.355
23732W        W95403  30.499  22.698   1.873
23733W        W95404  16.312   3.203   0.568
23734W        W95405  31.076   6.801   1.275
23735W        W95406   8.175  35.334  14.959
23736W        W95407  24.684  38.917  12.825
23737W        W95408  14.190  16.312   4.263
23738W        W95409  41.441  43.309  10.917
23739W        W95410  20.184  30.513   2.749
23740W        W95411  23.266  13.751  11.224
23741W        W95412  43.053  32.483   4.050
23742W        W95413  33.884   1.324  10.303
23743W        W95414   7.150  43.981   2.315
23744W        W95415   4.250  14.783   2.746
23745W        W95416  39.809  24.424  14.016
23746W        W95417  21.056  38.788  14.390
23747W        W95418  36.976  20.219   2.605
23748W        W95419   2.054  32.587   2.618
23749W        W95420  42.719  32.343  10.738
23750W        W95421  19.618  13.322  11.885
23751W        W95422  13.219  31.484   3.031
23752W        W95423  34.006  34.435   0.357
23753W        W95424  30.744  16.683  14.056
23754W        W95425   3.290  37.371  12.509
23755W        W95426  14.839  31.581  13.894
23756W        W95427  10.289   1.966   2.040
23757W        W95428  12.920  16.161  12.050
23758W        W95429   7.876   5.791   0.120
23759W        W95430  12.238  26.199  11.133
23760W        W95431  37.360  22.561  10.727
23761W        W95432  33.553  12.735   1.779
23762W        W95433  30.537  25.480  14.560
23763W        W95434  12.317  30.456   3.647
23764W        W95435  26.288  19.755   3.266
23765W        W95436  22.736  23.212   3.966
23766W        W95437  11.839  42.033  11.673
23767W        W95438  31.588  32.115  10.452
23768W        W95439   9.395  32.851  11.112
23769W        W95440  37.274  28.882   2.750
23770W        W95441   6.171  41.017  13.504
23771W        W95442   6.896  44.755   3.463
23772W        W95443  37.921  25.219   1.475
23773W        W95444   1.956  16.262  10.402
23774W        W95445  11.446  21.694   4.100
23775W        W95446  24.693  17.713  13.120
23776W        W95447  35.836  22.755   4.114
23777W        W95448  19.444  42.307   4.532
23778W        W95449  26.299   1.024  12.030
23779W        W95450  32.028  38.557   1.222
23780W        W95451  29.168  29.964   1.444
23781W        W95452  19.443   8.227  12.071
23782W        W95453  30.142  34.976   2.875
23783W        W95454  20.283   8.244   0.799
23784W        W95455  22.083  23.945   2.808
23785W        W95456  27.834   1.839   4.540
23786W        W95457  21.219  41.343  10.073
23787W        W95458  26.867   8.878   1.925
23788W        W95459   7.229   8.441  12.043
23789W        W95460  28.598  32.519   1.844
23790W        W95461  31.997   0.766  14.817
23791W        W95462  39.443  24.109  13.821
23792W        W95463   7.365   1.954   4.598
23793W        W95464   4.675   0.347  14.667
23794W        W95465  12.347  36.834  14.459
23795W        W95466  12.834  40.494   3.207
23796W        W95467  31.937  11.741   2.636
23797W        W95468  39.907  37.363  10.777
23798W        W95469   6.709  35.837   4.378
23799W        W95470  18.105  22.226   4.732
23800W        W95471   7.275  41.498   4.410
23801W        W95472  14.597  18.610  10.833
23802W        W95473  23.168  41.827   1.461
23803W        W95474   8.647  17.624  13.873
23804W        W95475   5.674  11.848   2.456
23805W        W95476  29.075  13.574  12.061
23806W        W95477  14.659  29.821  11.982
23807W        W95478   7.667  20.561  12.837
23808W        W95479  41.996  41.530  12.964
23809W        W95480  20.327   2.881  11.232
23810W        W95481  44.383  21.262   5.018
23811W        W95482  25.912  42.800  12.995
23812W        W95483  42.287  37.814   2.586
23813W        W95484   3.398  27.694  10.339
23814W        W95485  39.989  41.528  13.292
23815W        W95486  15.708  19.684  12.483
23816W        W95487  27.703   4.371  11.573
23817W        W95488  30.368  28.430  13.344
23818W        W95489   1.925  12.401   3.988
23819W        W95490   5.070  28.979   4.535
23820W        W95491  44.539   2.499  11.956
23821W        W95492  25.034   5.304   1.290
23822W        W95493  30.663  16.796   0.805
23823W        W95494  31.001  22.434   0.217
23824W        W95495  13.247  37.932   4.533
23825W        W95496  32.162  40.391  14.447
23826W        W95497  41.456  13.540   4.169
23827W        W95498  27.962  25.181  13.900
23828W        W95499   2.754  16.987   2.788
23829W        W95500  15.201  35.318   3.266
23830W        W95501  25.655  16.749  14.506
23831W        W95502  16.678  41.624  11.455
23832W        W95503  24.314   6.797  12.442
23833W        W95504  20.133  14.403   3.689
23834W        W95505   9.637  22.968   1.764
23835W        W95506  35.135  38.274  11.014
23836W        W95507  21.851  19.646   1.346
23837W        W95508  29.349  17.108  13.864
23838W        W95509   9.321  23.010   1.158
23839W        W95510  22.526   4.429   1.961
23840W        W95511  24.181   2.398  12.519
23841W        W95512  23.650  12.370   3.648
23842W        W95513  42.778  26.457  14.978
23843W        W95514   3.002  12.846  13.400
23844W        W95515  15.362   8.718   3.364
23845W        W95516  10.537  19.257  10.728
23846W        W95517  39.549   9.414  12.179
23847W        W95518  11.110  24.204  11.637
23848W        W95519  39.933  27.126   4.012
23849W        W95520  14.814  32.912  14.430
23850W        W95521  43.228  21.725  11.663
23851W        W95522  42.365   4.873   1.602
23852W        W95523  23.579  39.054   3.718
23853W        W95524  34.142  28.266   4.508
23854W        W95525  23.003  20.121   2.650
23855W        W95526  39.314   0.337   3.551
23856W        W95527  28.939   6.426  13.786
23857W        W95528  40.563  33.437  14.379
23858W        W95529  37.023  44.281   3.283
23859W        W95530  13.284   7.890   4.820
23860W        W95531   8.847  30.008  13.576
23861W        W95532  24.219  33.435  10.601
23862W        W95533  17.678   4.542  11.992
23863W        W95534  15.231  22.148   3.676
23864W        W95535  16.744   8.907   2.229
23865W        W95536  27.867  41.551  10.069
23866W        W95537  27.204  39.735   4.329
23867W        W95538   3.426  27.973  10.792
23868W        W95539  28.089  35.724   2.641
23869W        W95540  22.057  30.850   0.294
23870W        W95541  13.794   1.816  11.671
23871W        W95542  18.021  17.684   2.031
23872W        W95543   4.370  13.277   3.366
23873W        W95544  34.674  27.984   2.695
23874W        W95545  23.383  25.613   1.751
23875W        W95546  21.194   4.750   1.941
23876W        W95547  24.245  17.794  11.800
23877W        W95548  39.368  38.668   0.381
23878W        W95549   3.508  26.757  10.149
23879W        W95550  39.541  23.203   1.494
23880W        W95551  11.310  42.742   2.142
23881W        W95552  14.523  43.797  14.394
23882W        W95553  41.025  28.532  14.402
23883W        W95554   2.747  41.709   1.161
23884W        W95555  15.711  26.203   4.197
23885W        W95556  25.531  24.474   2.138
23886W        W95557  29.630  13.122  10.774
23887W        W95558  36.230  38.092   2.361
23888W        W95559   7.897   2.673  11.163
23889W        W95560  17.298  29.525  13.018
23890W        W95561  37.793  43.775   1.819
23891W        W95562   9.783  16.008   1.939
23892W        W95563  15.176   7.563  13.234
23893W        W95564  42.802  13.869  14.963
23894W        W95565  42.007  16.705  12.930
23895W        W95566  14.115  16.200   1.685
23896W        W95567   6.611   8.645  11.005
23897W        W95568  33.808  12.689  10.911
23898W        W95569  39.579  37.981  12.460
23899W        W95570  16.478  19.914   2.343
23900W        W95571   5.308  14.945   0.473
23901W        W95572  29.924  43.356   3.372
23902W        W95573  18.231  29.071  12.355
23903W        W95574  19.667  37.559   4.848
23904W        W95575   2.735   9.701  10.676
23905W        W95576  40.956  19.303  14.476
23906W        W95577   1.310  41.111  11.794
23907W        W95578  35.979  33.371  12.581
23908W        W95579  32.070  14.569   4.018
23909W        W95580  24.590  26.137  13.590
23910W        W95581  20.761  19.925   0.816
23911W        W95582  15.604  28.600   3.011
23912W        W95583  22.811  15.994   3.872
23913W        W95584  17.752   8.320  12.544
23914W        W95585  32.173  43.590  12.864
23915W        W95586   0.504  29.535   2.236
23916W        W95587  12.234  29.540  14.356
23917W        W95588   7.082  29.279   2.432
23918W        W95589   5.954  25.498   0.319
23919W        W95590   5.235  16.859  12.610
23920W        W95591   0.842   5.496   0.870
23921W        W95592  28.236  44.483   4.558
23922W        W95593  32.565   4.251   0.803
23923W        W95594  21.778  35.052   0.278
23924W        W95595   6.755  23.949  12.589
23925W        W95596  28.986  21.040  12.983
23926W        W95597  30.426  11.807   2.788
23927W        W95598  19.088  22.470  14.435
23928W        W95599   5.423  42.764  10.622
23929W        W95600  43.930  43.537  11.567
23930W        W95601  18.771  29.228  11.114
23931W        W95602  29.178  22.661  13.474
23932W        W95603  43.523  36.922  10.500
23933W        W95604   6.299  20.499   3.812
23934W        W95605  37.354  43.328   0.677
23935W        W95606   0.983  39.442  11.916
23936W        W95607  19.410  21.851   4.669
23937W        W95608  28.176  34.421  14.900
23938W        W95609  13.281  27.419   0.010
23939W        W95610   8.243  19.249   2.305
23940W        W95611  26.166   9.153  11.486
23941W        W95612  21.759  26.786   4.833
23942W        W95613  34.407   9.296   3.854
23943W        W95614  40.888  24.488  11.566
23944W        W95615  30.488  19.414  11.096
23945W        W95616  29.575  12.408   0.671
23946W        W95617  24.653   5.775   1.431
23947W        W95618  44.487  29.299   4.163
23948W        W95619  29.806  27.322  12.494
23949W        W95620  29.857  40.753  12.444
23950W        W95621  32.676  11.662  10.850
23951W        W95622  37.488   8.680   3.707
23952W        W95623  27.772  17.795   1.332
23953W        W95624  15.544  22.677   4.242
23954W        W95625  16.807  40.477   1.818
23955W        W95626  44.019  39.878  12.362
23956W        W95627   9.718  40.066  10.629
23957W        W95628  41.565  27.699   0.677
23958W        W95629  15.605  17.911   3.912
23959W        W95630  30.449  18.797  13.810
23960W        W95631  17.332  32.392  11.714
23961W        W95632  39.440  31.526  14.425
23962W        W95633  18.899  12.834   4.518
23963W        W95634   7.199  24.946   2.761
23964W        W95635  42.499   7.489   1.693
23965W        W95636  28.686  38.026  10.434
23966W        W95637  12.302  30.984   3.539
23967W        W95638  27.715  26.940   3.938
23968W        W95639   0.643  26.537   5.200
23969W        W95640   9.958  10.787  13.497
23970W        W95641  11.703  42.802   1.411
23971W        W95642  17.583  44.543  13.589
23972W        W95643   2.219  29.060  14.743
23973W        W95644  26.880  37.130  12.489
23974W        W95645  34.030  10.845  10.458
23975W        W95646  37.119  23.579   3.211
23976W        W95647  19.791   3.482  11.598
23977W        W95648   2.523  14.620  12.875
23978W        W95649  40.223  12.133  11.754
23979W        W95650  40.566  30.050  14.290
23980W        W95651  11.093  31.890  14.060
23981W        W95652   1.083  42.010   1.647
23982W        W95653   1.411  23.704  10.893
23983W        W95654   7.214  43.898  11.141
23984W        W95655  44.511  28.876   1.001
23985W        W95656  15.728  42.967   1.179
23986W        W95657  13.901   8.218  12.860
23987W        W95658  35.907  22.940   4.594
23988W        W95659  16.569  22.031  12.062
23989W        W95660  16.258  37.361   4.492
23990W        W95661  23.475  29.566   0.852
23991W        W95662   6.185  19.276  13.348
23992W        W95663  25.577   9.887  12.343
23993W        W95664  31.581  44.332   2.387
23994W        W95665  43.992  28.727  13.932
23995W        W95666   5.648  18.549  13.294
23996W        W95667  27.398   1.517  14.446
23997W        W95668  31.624  38.618  12.912
23998W        W95669   1.372   6.179   4.249
23999W        W95670  16.757  35.626   4.284
24000W        W95671  12.509  42.008   0.733
24001W        W95672  17.708  14.173  11.892
24002W        W95673   4.735  43.083   0.326
24003W        W95674   0.020  19.194   0.373
24004W        W95675   3.652  25.114  13.425
24005W        W95676  17.170  16.408   3.360
24006W        W95677  43.755  32.602   0.298
24007W        W95678  27.061  41.753  14.824
24008W        W95679  19.914  19.776  11.608
24009W        W95680  21.427   2.402  10.644
24010W        W95681  31.538  23.485  12.834
24011W        W95682  11.781  23.583   1.015
24012W        W95683  34.488   4.440  12.938
24013W        W95684  14.290  13.677  13.040
24014W        W95685  13.670  11.922   3.148
24015W        W95686  22.617  33.736  11.487
24016W        W95687  27.443  18.771  13.843
24017W        W95688  21.699  22.416  11.160
24018W        W95689  26.882  25.582   0.357
24019W        W95690  17.789  26.433  10.497
24020W        W95691  43.444   8.807   2.269
24021W        W95692  14.942  41.559  12.998
24022W        W95693  29.397  32.950   2.335
24023W        W95694  32.418  25.063   0.936
24024W        W95695  44.015  37.434   4.573
24025W        W95696  23.661  32.676  10.730
24026W        W95697  22.424  29.508   2.848
24027W        W95698   1.869   7.497   3.168
24028W        W95699   2.883  21.675   4.197
24029W        W95700  41.020   9.816   4.493
24030W        W95701  10.396  25.145   2.696
24031W        W95702  34.530   1.205   1.368
24032W        W95703  12.630  35.533   0.534
24033W        W95704   8.098  24.181   2.216
24034W        W95705  44.329  31.853   0.480
24035W        W95706  34.184  39.021   0.317
24036W        W95707  41.864   9.836  10.670
24037W        W95708  31.176  44.625   0.437
24038W        W95709  26.640   4.825   1.768
24039W        W95710   6.808   0.365   4.639
24040W        W95711  20.843  41.997   2.667
24041W        W95712  37.527  24.183  12.663
24042W        W95713  10.081   9.881  14.338
24043W        W95714  35.430   5.691   3.382
24044W        W95715   4.686  19.286  14.934
24045W        W95716   3.036  10.318  14.594
24046W        W95717  37.463   9.183   3.877
24047W        W95718  41.042  15.842  11.999
24048W        W95719   3.767  22.470  14.045
24049W        W95720  28.964   7.763  14.591
24050W        W95721  10.322  20.971  13.349
24051W        W95722   9.692  27.684   2.677
24052W        W95723  22.276   7.835  12.434
24053W        W95724  29.975  21.167   5.093
24054W        W95725  20.897  28.975   1.867
24055W        W95726  15.217  35.951  11.370
24056W        W95727  33.447  11.905  14.549
24057W        W95728  16.050  37.065   0.380
24058W        W95729  40.490  19.203   0.406
24059W        W95730  14.874  25.348  12.901
24060W        W95731  31.729  29.042  12.533
24061W        W95732  42.618   6.890   1.285
24062W        W95733   9.700  19.779   3.191
24063W        W95734   5.460  25.526   2.792
24064W        W95735  17.895  18.810  14.136
24065W        W95736  32.536  32.861   2.750
24066W        W95737   5.963  33.984   2.880
24067W        W95738  19.517  14.219  13.671
24068W        W95739  15.859   8.609  14.303
24069W        W95740   2.029  11.660  14.805
24070W        W95741  25.551   6.482  14.442
24071W        W95742  14.217  40.269  13.065
24072W        W95743  28.999   4.112  13.751
24073W        W95744  37.898  20.757   1.772
24074W        W95745  12.568   9.164  13.249
24075W        W95746   9.537   0.812   1.671
24076W        W95747   4.156  19.423   3.822
24077W        W95748   3.908   7.247   3.300
24078W        W95749  41.510  22.584  13.038
24079W        W95750  10.665  33.860  13.242
24080W        W95751  31.903  11.183  14.000
24081W        W95752  44.753  11.663   1.290
24082W        W95753  29.855   2.035  13.867
24083W        W95754   3.277  19.146  10.355
24084W        W95755  30.559  26.441  14.437
24085W        W95756  30.961  26.019   0.394
24086W        W95757  33.305  14.753  14.738
24087W        W95758   0.368  33.636   0.860
24088W        W95759  37.046  14.280  14.449
24089W        W95760  32.890  40.929   3.797
24090W        W95761  30.450  20.163  14.673
24091W        W95762  37.566  22.551   4.542
24092W        W95763  37.110  32.350   0.950
24093W        W95764  29.966  39.414   4.050
24094W        W95765  38.778  33.721   3.110
24095W        W95766   3.413  25.572  10.954
24096W        W95767   8.721  16.986  11.040
24097W        W95768  22.564  41.755  12.026
24098W        W95769   7.424  39.309   3.618
24099W        W95770  37.351   4.390  10.766
24100W        W95771  29.319  34.541  13.991
24101W        W95772  35.359  34.474   1.019
24102W        W95773  44.518  15.290  13.692
24103W        W95774  17.331  15.221  14.849
24104W        W95775  17.010  22.261  12.099
24105W        W95776  19.346  34.757   0.491
24106W        W95777  29.021  29.075  12.425
24107W        W95778  41.350  24.199   0.932
24108W        W95779  31.665  14.721   4.475
24109W        W95780  22.525  36.535  12.995
24110W        W95781  20.967   3.666  13.473
24111W        W95782  36.945  17.574   2.895
24112W        W95783   7.865  27.152  14.460
24113W        W95784  11.212  14.699   1.641
24114W        W95785  37.361  21.267  13.319
24115W        W95786  33.905   7.363   4.521
24116W        W95787  10.600   9.883  14.307
24117W        W95788  30.447  21.136  10.066
24118W        W95789  21.060  12.924  12.426
24119W        W95790   9.567  35.075   3.720
24120W        W95791  30.537  13.775   3.411
24121W        W95792  14.801   3.251  13.864
24122W        W95793  26.221   8.900  12.860
24123W        W95794  25.673   6.957   1.964
24124W        W95795  38.571  35.884  12.515
24125W        W95796  42.752  37.888  10.383
24126W        W95797  37.102   4.832   4.628
24127W        W95798  34.428  39.941   3.257
24128W        W95799  34.413  17.408   1.806
24129W        W95800  15.436  43.376   1.299
24130W        W95801   2.254  42.309  13.974
24131W        W95802  37.997  37.072   4.747
24132W        W95803  44.944  31.708  14.518
24133W        W95804   4.285  25.617   4.475
24134W        W95805  42.470  44.295  13.469
24135W        W95806  19.632   5.238   4.322
24136W        W95807  41.347  18.150   3.584
24137W        W95808   7.928  37.952  14.463
24138W        W95809   0.557   4.825  13.994
24139W        W95810  40.633  11.193   2.262
24140W        W95811   6.885  25.525   3.712
24141W        W95812  38.358   9.209   3.754
24142W        W95813  33.625  18.625   0.272
24143W        W95814   1.123  37.522  11.628
24144W        W95815   1.958  24.613  12.670
24145W        W95816   2.816  23.887  12.810
24146W        W95817  21.182  31.373  14.928
24147W        W95818   5.622   6.808  12.114
24148W        W95819  14.775  38.364   1.310
24149W        W95820  36.416  32.565  13.888
24150W        W95821  33.158  36.965   3.257
24151W        W95822  35.097   4.012  11.714
24152W        W95823  28.109   5.749   3.879
24153W        W95824  40.403  39.898   4.215
24154W        W95825  38.471   7.966   0.011
24155W        W95826  37.511  34.270   0.908
24156W        W95827  32.300   7.651  10.600
24157W        W95828  37.849  26.502   1.758
24158W        W95829   9.172   2.679   2.769
24159W        W95830   5.448  34.591  14.032
24160W        W95831  23.040  18.272  14.907
24161W        W95832   8.326  12.556   1.419
24162W        W95833  42.568  33.445   4.129
24163W        W95834   5.880  34.653  13.569
24164W        W95835   1.864   1.966  10.668
24165W        W95836  21.077  23.082   0.512
24166W        W95837  11.438  37.459   2.750
24167W        W95838  42.567  34.893  12.035
24168W        W95839  25.126  18.128   2.376
24169W        W95840  11.145   5.704  11.090
24170W        W95841  15.783   5.259   1.316
24171W        W95842  15.319  21.590  14.675
24172W        W95843   8.190  29.195   1.370
24173W        W95844  17.281  43.786  13.980
24174W        W95845  18.757  10.441  14.789
24175W        W95846  24.989   6.646  13.366
24176W        W95847  21.898  12.147  10.670
24177W        W95848  40.046  43.750  11.898
24178W        W95849  38.394  11.450  13.066
24179W        W95850   2.804  18.789  14.414
24180W        W95851  37.863  23.520   1.357
24181W        W95852  15.262  36.042   0.802
24182W        W95853   7.639  43.025   3.023
24183W        W95854  15.737  12.056   4.458
24184W        W95855  24.560  12.254   1.304
24185W        W95856  18.281  42.797  14.001
24186W        W95857   2.007  38.081  13.892
24187W        W95858  18.643   3.901  11.445
24188W        W95859   1.299  25.462   4.084
24189W        W95860  41.728   1.719   0.475
24190W        W95861  22.687   9.174  14.384
24191W        W95862   2.299   2.978  13.909
24192W        W95863  37.555  16.622   3.967
24193W        W95864  44.927  39.487   5.045
24194W        W95865  26.521  12.430   0.802
24195W        W95866  42.461  39.581   1.855
24196W        W95867  36.646  32.968   2.395
24197W        W95868  13.278  21.604  13.433
24198W        W95869  44.260   1.995   1.842
24199W        W95870  38.517  19.285   3.268
24200W        W95871   8.117   6.883  12.948
24201W        W95872  22.276  30.712   3.697
24202W        W95873   6.471   9.885  13.579
24203W        W95874  36.281  42.048   2.725
24204W        W95875  25.788   4.817   2.458
24205W        W95876   9.845  24.758   2.336
24206W        W95877  33.475  30.161   4.829
24207W        W95878  14.132  13.995  11.316
24208W        W95879  17.431  10.909  11.112
24209W        W95880  35.046  27.396   1.372
24210W        W95881  31.411  26.514  12.116
24211W        W95882  32.734  39.014   1.631
24212W        W95883  33.503  26.299   0.216
24213W        W95884   7.730  44.313  11.176
24214W        W95885  11.009  44.598  13.049
24215W        W95886  32.655  24.035   4.843
24216W        W95887  38.567   9.644  12.002
24217W        W95888  18.098  39.413   1.930
24218W        W95889  21.541  15.708   3.756
24219W        W95890  31.871   9.841   3.708
24220W        W95891  23.909  12.410  11.664
24221W        W95892   0.648  27.180  11.861
24222W        W95893  16.790  10.447  10.429
24223W        W95894  42.140  22.234   1.265
24224W        W95895  29.211  26.562   4.263
24225W        W95896  32.492   6.637   1.709
24226W        W95897   5.786  17.621  12.053
24227W        W95898   0.716  22.213  13.804
24228W        W95899  28.183  14.747   0.753
24229W        W95900  30.183  41.983  12.500
24230W        W95901  31.669  21.183  12.974
24231W        W95902   2.743  41.573   1.661
24232W        W95903  19.131  27.212  11.418
24233W        W95904   6.625   3.963  14.544
24234W        W95905  21.305  15.260   1.326
24235W        W95906  20.676  19.428   0.969
24236W        W95907  15.695  23.418  14.143
24237W        W95908  22.573  20.124   2.370
24238W        W95909   4.752   5.449  14.384
24239W        W95910  17.807  26.190   0.815
24240W        W95911  12.381   5.416   4.555
24241W        W95912  36.042  44.865   3.700
24242W        W95913   1.865   2.727   4.361
24243W        W95914  11.906  29.487   4.500
24244W        W95915  12.614  26.269  10.786
24245W        W95916  10.341   2.424  13.349
24246W        W95917   4.823  20.875   1.567
24247W        W95918  30.330  20.348   4.594
24248W        W95919  32.412  22.285  12.009
24249W        W95920  27.766   5.040  12.918
24250W        W95921  21.483  10.286   9.815
24251W        W95922  30.213  15.043   0.251
24252W        W95923  28.736  20.016   1.532
24253W        W95924  41.851  36.466  11.492
24254W        W95925   6.947  24.554   2.080
24255W        W95926  39.691  16.813   1.373
24256W        W95927  14.096  18.216  12.107
24257W        W95928  18.989  41.367   1.240
24258W        W95929   9.660   7.356  13.796
24259W        W95930   3.384  16.829   1.438
24260W        W95931   8.850  15.041  11.537
24261W        W95932  13.778  13.583  13.816
24262W        W95933  38.918  17.227  14.343
24263W        W95934   5.016  11.607   0.229
24264W        W95935  16.747  18.161   3.644
24265W        W95936  12.880  38.806   4.689
24266W        W95937  33.463  42.552  11.086
24267W        W95938  17.811  40.372   1.932
24268W        W95939  27.963  30.428  14.693
24269W        W95940  44.503  28.902  13.934
24270W        W95941   0.852  29.166  12.925
24271W        W95942   9.898  15.295   3.755
24272W        W95943  38.593  37.183  12.504
24273W        W95944  12.426  36.053   2.304
24274W        W95945  17.275  41.534   0.443
24275W        W95946   6.477  33.818   2.017
24276W        W95947  10.465   8.994   4.132
24277W        W95948  39.939  30.799  10.592
24278W        W95949  23.963  38.391  12.479
24279W        W95950  41.754  39.773  12.339
24280W        W95951  16.219  41.789   0.022
24281W        W95952  18.150  12.218   2.879
24282W        W95953  19.641   7.598  14.388
24283W        W95954  22.395  37.036  12.977
24284W        W95955  35.689  23.718   1.213
24285W        W95956  13.261  42.614   4.587
24286W        W95957  42.705  21.507   1.057
24287W        W95958   4.794  21.546   5.074
24288W        W95959   2.839   6.388  10.621
24289W        W95960  40.702   0.871  11.405
24290W        W95961  26.944   5.225   3.881
24291W        W95962  40.305   2.392   1.443
24292W        W95963  19.949  26.152  11.317
24293W        W95964  32.979   1.054  13.821
24294W        W95965  34.586  33.716   2.940
24295W        W95966  33.802   0.060  10.578
24296W        W95967  41.782  13.852   0.333
24297W        W95968  12.112  14.080  12.523
24298W        W95969  13.192  12.042   1.247
24299W        W95970  38.237  25.771  14.932
24300W        W95971   0.316  43.484   4.775
24301W        W95972  36.144   7.955   4.150
24302W        W95973  44.309  34.629   0.665
24303W        W95974  14.207  31.460  10.685
24304W        W95975  40.354  44.927   0.194
24305W        W95976  36.962  25.136   0.012
24306W        W95977  36.988  13.890  14.110
24307W        W95978  24.656  20.339  12.899
24308W        W95979  23.458  26.985  10.929
24309W        W95980   3.849  12.816   2.737
24310W        W95981  34.558   8.673   4.237
24311W        W95982  39.848  34.937  13.754
24312W        W95983  14.939  21.213  14.499
24313W        W95984  41.597  41.487  11.441
24314W        W95985  36.912  21.659   0.954
24315W        W95986   8.659   5.197  11.670
24316W        W95987  35.504   0.030  14.911
24317W        W95988  40.994  22.202  13.015
24318W        W95989  16.518  40.811   0.760
24319W        W95990  14.863  15.613  13.039
24320W        W95991  44.679   2.422  11.460
24321W        W95992  40.579  12.329   1.213
24322W        W95993  31.524  12.819  13.421
24323W        W95994  23.910   1.430  10.814
24324W        W95995  40.196  41.769   1.216
24325W        W95996   8.598  40.058   0.410
24326W        W95997  37.978  13.121  12.283
24327W        W95998  28.992  17.669   3.373
24328W        W95999   0.174  31.091   2.343
24329W        W96000  10.276  28.529  14.017
24330W        W96001   7.407  30.860  11.131
24331W        W96002  23.005   6.082   4.269
24332W        W96003  41.182  27.674   2.094
24333W        W96004   3.277  35.094  12.567
24334W        W96005   5.534  17.874   2.790
24335W        W96006  31.041  25.747  14.819
24336W        W96007  28.092   1.257  13.426
24337W        W96008  19.975  39.444  13.810
24338W        W96009  22.983  33.084  14.203
24339W        W96010  30.325   4.219   0.118
24340W        W96011  31.096  41.839   3.208
24341W        W96012  31.332   4.302   0.446
24342W        W96013  27.498  40.493   3.681
24343W        W96014  10.883  33.587   0.964
24344W        W96015   0.887  33.561   0.789
24345W        W96016  18.610  34.219  14.509
24346W        W96017  35.338   5.813  12.578
24347W        W96018  33.365  33.406  12.868
24348W        W96019  15.640  21.193  13.346
24349W        W96020  14.101  14.859  13.583
24350W        W96021  11.646  32.668   2.331
24351W        W96022  19.697   3.810  12.842
24352W        W96023   7.399  36.592  13.508
24353W        W96024  36.114  11.824  11.185
24354W        W96025  22.631  32.066   0.939
24355W        W96026  15.465  36.979  14.411
24356W        W96027  17.116   8.318  11.124
24357W        W96028  34.024   4.645   4.699
24358W        W96029  23.521  23.768  13.124
24359W        W96030  33.660  16.584  11.995
24360W        W96031   2.558  21.953   5.466
24361W        W96032  13.134   4.376   4.641
24362W        W96033  36.887   1.789  14.855
24363W        W96034  44.757  12.621   0.699
24364W        W96035  19.662  10.559  13.824
24365W        W96036   1.430  27.234   1.908
24366W        W96037  20.298  31.842   4.391
24367W        W96038  20.158  44.036  13.033
24368W        W96039  30.058  32.885  11.152
24369W        W96040  19.673  17.931   4.519
24370W        W96041  21.153   8.817   0.105
24371W        W96042  43.177   1.796   1.017
24372W        W96043  26.113  38.253   3.681
24373W        W96044  23.059   5.929  11.596
24374W        W96045  15.766  13.909  12.633
24375W        W96046  37.548  20.058  13.396
24376W        W96047  30.485  13.588  11.131
24377W        W96048   6.481  43.173  12.864
24378W        W96049   0.659  16.681  11.083
24379W        W96050  26.534  41.544   2.423
24380W        W96051   5.720  10.886  11.444
24381W        W96052   8.302   7.330   1.107
24382W        W96053  39.695  19.769  13.707
24383W        W96054  26.052  32.465  12.503
24384W        W96055  13.222  41.181   2.206
24385W        W96056  38.557  18.705  11.050
24386W        W96057  21.270   1.903  12.395
24387W        W96058  38.663  10.627   0.260
24388W        W96059   8.767  39.269   3.194
24389W        W96060   9.343  10.665  14.990
24390W        W96061   6.801  24.083  10.800
24391W        W96062  40.900  22.606  10.441
24392W        W96063  32.332  43.966  13.985
24393W        W96064  35.860  17.866   0.285
24394W        W96065  30.049  44.145   2.678
24395W        W96066  30.423  10.202  14.015
24396W        W96067  27.225  36.929   2.363
24397W        W96068  13.137  38.945   2.087
24398W        W96069  30.342  28.738  12.020
24399W        W96070  15.682  20.016   0.469
24400W        W96071  44.751  26.090   1.183
24401W        W96072  31.205   9.556   1.163
24402W        W96073  28.654  36.173  14.481
24403W        W96074  18.021  42.398   4.266
24404W        W96075  28.226  26.699  12.139
24405W        W96076  35.870  11.875   2.271
24406W        W96077  38.898  10.785  11.455
24407W        W96078   8.844   9.427  12.290
24408W        W96079  33.724   1.214   4.330
24409W        W96080  20.191  12.359   4.691
24410W        W96081  11.147  36.421   4.694
24411W        W96082  18.333  31.255  12.149
24412W        W96083  23.077  14.159  13.480
24413W        W96084  32.132  43.938  11.917
24414W        W96085   5.236  25.575   2.222
24415W        W96086  18.218  10.441   3.635
24416W        W96087  15.074   6.889   2.863
24417W        W96088  18.447   3.919   0.380
24418W        W96089   5.935  28.769   4.747
24419W        W96090  26.748   3.818   2.811
24420W        W96091   1.442   1.822  10.949
24421W        W96092  42.277  29.929   0.953
24422W        W96093   2.496  22.526   5.037
24423W        W96094  10.757  28.317   0.420
24424W        W96095  19.524  24.630   0.708
24425W        W96096  33.626  13.174   3.735
24426W        W96097  34.197  38.069  14.822
24427W        W96098   9.020  23.311   0.838
24428W        W96099   7.098  16.354  14.388
24429W        W96100  43.338  38.949  10.829
24430W        W96101  44.874  23.653   9.400
24431W        W96102  12.237   2.439  10.556
24432W        W96103  24.962   0.343  14.468
24433W        W96104  42.152  16.522   4.574
24434W        W96105  36.814  43.231   3.283
24435W        W96106   1.803  43.262  13.594
24436W        W96107   2.199  11.106  13.375
24437W        W96108  10.431  33.935  11.313
24438W        W96109  24.017  37.714   2.475
24439W        W96110  28.618  11.668  12.852
24440W        W96111   5.880  13.803   0.291
24441W        W96112  20.991  18.486  11.472
24442W        W96113  19.311  13.068  14.418
24443W        W96114  25.910  21.834   3.110
24444W        W96115   8.629  17.781   3.327
24445W        W96116   5.054  14.808   0.026
24446W        W96117  13.953  36.417   4.315
24447W        W96118  24.155  34.612  13.604
24448W        W96119   4.337   8.247   1.918
24449W        W96120  38.856  31.114  13.135
24450W        W96121  33.365   0.368  12.969
24451W        W96122  35.450  34.484   4.547
24452W        W96123  29.999  13.400  11.197
24453W        W96124  36.591  41.255  11.394
24454W        W96125   3.833  36.156   5.223
24455W        W96126   3.212  17.111   0.947
24456W        W96127  17.191  27.980  12.527
24457W        W96128  29.368  14.229  12.028
24458W        W96129  42.783  28.546   3.135
24459W        W96130  33.517   1.888  12.116
24460W        W96131   1.956  14.300   2.622
24461W        W96132   6.934  10.248  13.973
24462W        W96133  24.068   8.603   1.227
24463W        W96134  13.169  26.472  10.969
24464W        W96135  35.279  29.575   4.388
24465W        W96136  28.886  28.660   4.186
24466W        W96137  36.684  29.081   1.515
24467W        W96138  16.488  27.072   2.155
24468W        W96139  28.673  44.696  12.951
24469W        W96140  43.557  13.373   0.497
24470W        W96141   3.101   3.657   4.036
24471W        W96142   5.981  18.765   0.433
24472W        W96143   9.922  10.605  10.959
24473W        W96144  31.682  15.918   0.552
24474W        W96145  27.044  10.398   3.845
24475W        W96146  32.533   8.467   0.376
24476W        W96147  17.688  23.645  13.797
24477W        W96148  28.946  16.227  12.063
24478W        W96149   2.508  20.007   1.182
24479W        W96150  19.552  16.448  13.163
24480W        W96151  20.734   8.483   2.255
24481W        W96152   3.855  28.409  11.247
24482W        W96153  40.597  36.370   3.359
24483W        W96154  25.696   2.359  11.577
24484W        W96155  34.135  22.856   2.803
24485W        W96156  22.630  35.349   3.807
24486W        W96157  16.507  29.389  13.441
24487W        W96158  32.387  27.492   4.838
24488W        W96159  20.830  41.792  11.516
24489W        W96160  36.576  24.911   1.662
24490W        W96161  37.898  24.919   2.976
24491W        W96162   9.966   8.189   1.715
24492W        W96163  29.107   5.221  14.471
24493W        W96164  27.700   9.873  13.853
24494W        W96165  33.675  19.552   2.757
24495W        W96166  35.778   6.810  13.923
24496W        W96167  24.953  21.189  13.450
24497W        W96168  15.347  28.689  11.581
24498W        W96169  28.435  40.386   2.613
24499W        W96170  10.666   3.925   2.351
24500W        W96171  15.261  17.909   1.773
24501W        W96172  34.927  37.371   0.830
24502W        W96173  22.634  37.313   0.055
24503W        W96174  40.613   4.309  12.121
24504W        W96175   4.332  15.841   2.741
24505W        W96176  36.953  24.096  10.897
24506W        W96177  21.493  40.003  12.352
24507W        W96178  24.016   2.198   2.793
24508W        W96179  20.283  44.195   2.706
24509W        W96180  40.268   6.814  13.590
24510W        W96181  36.195  10.216  11.941
24511W        W96182  32.917   2.850   4.017
24512W        W96183  29.235  33.085   0.295
24513W        W96184  44.990  35.416  13.965
24514W        W96185  30.442  36.974   4.166
24515W        W96186   4.218  12.041  11.886
24516W        W96187  11.718   3.947  14.249
24517W        W96188  15.344  32.985   1.318
24518W        W96189  36.655  24.488   3.812
24519W        W96190  35.323  25.073   4.070
24520W        W96191  15.759  34.629  14.048
24521W        W96192  41.428  20.115  12.900
24522W        W96193  36.487  31.804  13.297
24523W        W96194  33.464  19.253   4.034
24524W        W96195  43.474  37.885  13.576
24525W        W96196  38.298  29.105   2.261
24526W        W96197  21.992  30.966   1.215
24527W        W96198  44.488  11.165   1.304
24528W        W96199   7.227   5.329   3.432
24529W        W96200  34.836  18.821   2.408
24530W        W96201  15.855  12.750   0.638
24531W        W96202  20.030  30.431  11.945
24532W        W96203  25.566  18.195  14.432
24533W        W96204  28.046  13.711  14.840
24534W        W96205  29.087  43.430   3.583
24535W        W96206  35.871  30.936  11.652
24536W        W96207  21.351  29.278   1.892
24537W        W96208  32.854  33.049  11.581
24538W        W96209  43.930  16.726  14.854
24539W        W96210  38.794  13.789   1.466
24540W        W96211  22.645  30.570  12.757
24541W        W96212  40.951  10.241  10.588
24542W        W96213   2.858  12.153   2.001
24543W        W96214  43.439  18.569   3.513
24544W        W96215  10.218  34.395   1.860
24545W        W96216   2.287   2.077   3.251
24546W        W96217   4.760   1.506   3.843
24547W        W96218  20.104  12.743  13.982
24548W        W96219  34.577  29.026   2.753
24549W        W96220   4.829   0.276   0.809
24550W        W96221   2.750   2.332   0.420
24551W        W96222  37.473   3.898  14.538
24552W        W96223  35.281  41.242   3.768
24553W        W96224  20.737  20.261  10.843
24554W        W96225  25.874  12.521  11.484
24555W        W96226  31.810  34.549  13.956
24556W        W96227  26.651  44.429   2.319
24557W        W96228  23.748  17.736  11.947
24558W        W96229  33.153  27.026   2.258
24559W        W96230  10.341  33.385  12.173
24560W        W96231  32.111   7.813  11.524
24561W        W96232  10.867  21.484   1.802
24562W        W96233  40.156   0.726  10.686
24563W        W96234  36.082  38.266   0.310
24564W        W96235  16.499  30.943  12.894
24565W        W96236  15.812  27.478  11.317
24566W        W96237  22.628  23.228  12.827
24567W        W96238  12.815  22.614  12.134
24568W        W96239  14.283  12.681  12.989
24569W        W96240  38.063  41.473   4.173
24570W        W96241  11.852  19.092  13.370
24571W        W96242  34.022   6.326   2.453
24572W        W96243  19.285  44.123   0.448
24573W        W96244  33.221   6.901   2.129
24574W        W96245  37.794   0.012   3.130
24575W        W96246  25.107   8.726  13.815
24576W        W96247   8.089  25.712   3.608
24577W        W96248   0.229   2.043   2.292
24578W        W96249  26.440  44.205   1.892
24579W        W96250  28.927  12.036  13.070
24580W        W96251  10.622  32.425  12.508
24581W        W96252  33.229  11.216   4.021
24582W        W96253  19.586  34.376   0.775
24583W        W96254  30.942  35.057  14.865
24584W        W96255   8.330  35.616   3.150
24585W        W96256  38.286  27.180   2.305
24586W        W96257  21.232  41.932   0.274
24587W        W96258  30.011  31.982  11.984
24588W        W96259  23.108   3.709  13.451
24589W        W96260  34.302   5.732  11.398
24590W        W96261  23.629   7.901   3.348
24591W        W96262  31.980  43.482   0.227
24592W        W96263   6.164   0.235  10.817
24593W        W96264   2.287  44.086   0.284
24594W        W96265  14.316  18.251   4.528
24595W        W96266  43.223  36.195  14.364
24596W        W96267  17.112   9.109  11.712
24597W        W96268  36.064   9.963   4.135
24598W        W96269  13.106   4.815  13.045
24599W        W96270  19.810  22.693  11.580
24600W        W96271  11.155  19.970   4.334
24601W        W96272  22.627  26.230   1.295
24602W        W96273  44.022  25.821  11.384
24603W        W96274  23.150  12.780   2.399
24604W        W96275  33.298  24.429  10.776
24605W        W96276   1.749  17.968  11.583
24606W        W96277  44.235  13.338   5.359
24607W        W96278  15.652  15.781   2.424
24608W        W96279   6.224  23.007   4.498
24609W        W96280  41.510   8.115  11.210
24610W        W96281  14.778  20.002   0.892
24611W        W96282  24.002  34.039   4.175
24612W        W96283  26.644   7.098  10.964
24613W        W96284  36.499  13.288  10.502
24614W        W96285  44.613  16.193  14.334
24615W        W96286  10.329  41.941   2.626
24616W        W96287  33.535   7.482   1.124
24617W        W96288  44.100  39.153   9.745
24618W        W96289  36.904   0.815   4.362
24619W        W96290   4.096  35.965  12.132
24620W        W96291   3.298  44.301   3.186
24621W        W96292  28.263  13.664  11.382
24622W        W96293   7.989  27.054  12.484
24623W        W96294  20.978  11.150  13.413
24624W        W96295  22.549   6.913  14.060
24625W        W96296  27.541  14.757  14.740
24626W        W96297  16.764  44.807  13.098
24627W        W96298  25.676   6.625   5.339
24628W        W96299  28.535  17.285   1.457
24629W        W96300   5.810   7.305  11.192
24630W        W96301  26.028  41.554  13.306
24631W        W96302  38.042   2.345  14.264
24632W        W96303  16.035  35.091  14.005
24633W        W96304  12.177   0.777   3.755
24634W        W96305  21.567  25.610  11.428
24635W        W96306  20.956   8.981   1.936
24636W        W96307  38.974   0.728   3.671
24637W        W96308  33.170   4.621  11.022
24638W        W96309  31.118  15.194  10.692
24639W        W96310  41.898   1.011  10.653
24640W        W96311  21.726  42.057   3.736
24641W        W96312  43.530   4.826   1.254
24642W        W96313  40.850  33.382   2.687
24643W        W96314  36.797  15.170  14.555
24644W        W96315  27.162  34.964  11.016
24645W        W96316  33.907  16.595   3.946
24646W        W96317  18.837  22.619  11.553
24647W        W96318  30.413  17.837   0.960
24648W        W96319  25.314  27.416  12.911
24649W        W96320   5.875   2.253   0.430
24650W        W96321  42.936  27.621  13.366
24651W        W96322  24.317  44.172   0.438
24652W        W96323  36.042  38.873  13.368
24653W        W96324  19.203  16.161   1.286
24654W        W96325  26.229  19.488  13.529
24655W        W96326  30.367  19.726   3.098
24656W        W96327  30.876  14.137   4.981
24657W        W96328  11.295  11.868   2.231
24658W        W96329  44.885  23.250   5.566
24659W        W96330  18.092  29.819   4.231
24660W        W96331  13.739  10.122   2.854
24661W        W96332  30.559  20.272   1.791
24662W        W96333  34.084  24.576   1.776
24663W        W96334   0.868   2.787   1.399
24664W        W96335  28.469   5.420   2.574
24665W        W96336  39.133  19.730   2.647
24666W        W96337  26.988  42.250   3.964
24667W        W96338   2.167  39.387  14.855
24668W        W96339  24.617   7.284   4.878
24669W        W96340   1.356  30.066   4.572
24670W        W96341  13.653   3.341  12.441
24671W        W96342  22.017  27.460   2.343
24672W        W96343   6.519  27.668  10.766
24673W        W96344  20.503  20.551   1.782
24674W        W96345  25.260  41.277   1.872
24675W        W96346  39.837   4.150  11.581
24676W        W96347   0.251   1.236   3.503
24677W        W96348  14.483  43.326   4.963
24678W        W96349  12.822  41.968   3.820
24679W        W96350  35.609  14.518  10.443
24680W        W96351  11.924  24.421  13.771
24681W        W96352   1.175  20.785   4.544
24682W        W96353  17.256  26.369   2.206
24683W        W96354  16.121   5.586   2.500
24684W        W96355  44.200  30.426   2.830
24685W        W96356   7.210  15.877   2.254
24686W        W96357   8.602  26.185   0.960
24687W        W96358  42.454  20.585  14.903
24688W        W96359   3.160   6.871   4.890
24689W        W96360  24.190  15.874   3.673
24690W        W96361   9.677  18.737   2.388
24691W        W96362  29.624   0.916   0.152
24692W        W96363  22.473  28.638  13.605
24693W        W96364  17.049  22.067   0.775
24694W        W96365  31.336  20.083   4.515
24695W        W96366  28.124   2.713   3.790
24696W        W96367  18.663  14.244  12.588
24697W        W96368   7.268  28.618  13.530
24698W        W96369  10.576  26.658   2.793
24699W        W96370  29.101   8.812   4.954
24700W        W96371   2.313  26.901  10.533
24701W        W96372   0.709   1.165  11.937
24702W        W96373  10.435  40.894  10.690
24703W        W96374   1.816   2.969  12.105
24704W        W96375  35.384  19.184  11.978
24705W        W96376  37.620  20.458   2.216
24706W        W96377   8.771   6.112   2.867
24707W        W96378  21.433  27.081  11.427
24708W        W96379  29.564  31.167  10.687
24709W        W96380  40.490  24.020  12.850
24710W        W96381  23.059  40.412  11.231
24711W        W96382  13.186  16.313   0.705
24712W        W96383  37.841  13.633   3.349
24713W        W96384  27.672   8.341   2.837
24714W        W96385   2.442  40.883  12.995
24715W        W96386  11.365  23.050  14.509
24716W        W96387  15.743  32.970   4.162
24717W        W96388  10.945  40.906  12.927
24718W        W96389  24.541   5.930  11.567
24719W        W96390  22.720  32.876   0.826
24720W        W96391  14.572  42.441   4.593
24721W        W96392  41.015  37.827   4.097
24722W        W96393  34.922  15.562   3.018
24723W        W96394  25.070  24.257   1.977
24724W        W96395  36.971  28.089   4.142
24725W        W96396   7.712  12.577   0.696
24726W        W96397  36.033  40.073  11.783
24727W        W96398   7.224  20.643  12.559
24728W        W96399  11.320   0.308   4.621
24729W        W96400  20.558   8.975   3.135
24730W        W96401  18.518  39.050  13.161
24731W        W96402  12.866  17.058   1.256
24732W        W96403   6.526  22.335  11.711
24733W        W96404  12.606  14.231  10.435
24734W        W96405   0.638  20.959   3.191
24735W        W96406   8.363  36.969  11.144
24736W        W96407  16.400  36.939  11.471
24737W        W96408  42.360   0.206   2.356
24738W        W96409   6.612  11.110  14.398
24739W        W96410  44.729  24.805  12.927
24740W        W96411  10.648  16.018   2.175
24741W        W96412  31.836  38.499   1.701
24742W        W96413  15.667  33.932  14.780
24743W        W96414  41.023  19.256   2.424
24744W        W96415  29.126  29.660  13.178
24745W        W96416  16.315  29.590   4.463
24746W        W96417   5.396  22.974  11.919
24747W        W96418  44.555  17.360   2.664
24748W        W96419   0.697  42.472  14.907
24749W        W96420   5.643  44.209   2.437
24750W        W96421  10.505  34.565  14.401
24751W        W96422  19.973   3.753  12.426
24752W        W96423   6.690   3.316   3.222
24753W        W96424  19.792  11.419   2.416
24754W        W96425  40.004  33.360  13.790
24755W        W96426  11.378  27.123   1.706
24756W        W96427  17.039  28.667  11.881
24757W        W96428   3.070  25.865   1.246
24758W        W96429  32.210  20.799   0.808
24759W        W96430   9.648  33.551  13.052
24760W        W96431  23.142  28.097  14.814
24761W        W96432  24.992  30.531   1.828
24762W        W96433  20.309  16.236  14.814
24763W        W96434  35.133   6.284  12.443
24764W        W96435  12.783  30.743   3.581
24765W        W96436  17.515  17.688   1.927
24766W        W96437   4.135  13.356   1.947
24767W        W96438  25.499  38.456   0.417
24768W        W96439  14.031   1.440   1.410
24769W        W96440  20.454  17.944  12.951
24770W        W96441  23.301  32.746  12.171
24771W        W96442  22.038  18.709  14.455
24772W        W96443  29.231  18.514   3.201
24773W        W96444   6.191  11.357   1.216
24774W        W96445  39.999  24.036   2.905
24775W        W96446  19.809  41.606  14.399
24776W        W96447  41.448   5.348   1.928
24777W        W96448  41.376   5.164   0.019
24778W        W96449  19.195   5.248   3.539
24779W        W96450  13.908   6.545   9.750
24780W        W96451  26.836  11.359   0.302
24781W        W96452  12.746   7.302   0.828
24782W        W96453  36.866  34.529  11.574
24783W        W96454  31.779  25.155  10.197
24784W        W96455   0.006  35.303   2.863
24785W        W96456  27.019  16.983   1.834
24786W        W96457  38.105  43.851  10.683
24787W        W96458  36.504  17.037   0.464
24788W        W96459   1.852  20.823   2.760
24789W        W96460  25.069   9.196  11.129
24790W        W96461  39.878  25.862  14.327
24791W        W96462  35.170  36.901  11.215
24792W        W96463  29.615  28.876   4.608
24793W        W96464  15.361  40.548   2.284
24794W        W96465  30.486  14.822  10.685
24795W        W96466  32.186  26.365   2.881
24796W        W96467   6.200  19.454   1.045
24797W        W96468  27.500  28.639  13.902
24798W        W96469  31.659   2.620  14.946
24799W        W96470   6.432  36.659  13.614
24800W        W96471   3.771  11.756  11.958
24801W        W96472  12.673  38.069  12.825
24802W        W96473  20.426  41.552  12.183
24803W        W96474  16.758  35.874   1.742
24804W        W96475  14.448   7.833  12.495
24805W        W96476  35.448  20.178  11.842
24806W        W96477  18.171  14.232  11.642
24807W        W96478  40.726  28.149  13.476
24808W        W96479  24.505   3.782  13.908
24809W        W96480  44.890   7.778  10.993
24810W        W96481  24.119  34.039   0.548
24811W        W96482  19.795   7.748  12.118
24812W        W96483  12.296   7.406   3.926
24813W        W96484   4.116  29.161   4.591
24814W        W96485  29.698  17.113  12.562
24815W        W96486  12.094  13.128   0.674
24816W        W96487  29.004  40.777   4.268
24817W        W96488  10.692  30.992   1.759
24818W        W96489  44.839   5.951   3.764
24819W        W96490   9.715   1.976  12.185
24820W        W96491  31.440  11.265  14.849
24821W        W96492  29.469  17.115   2.894
24822W        W96493   3.294  12.292   3.310
24823W        W96494  14.618   6.462   1.246
24824W        W96495  37.430  27.446  12.094
24825W        W96496  38.812  17.479  13.374
24826W        W96497  13.232  37.262   2.739
24827W        W96498  26.284  32.540   2.748
24828W        W96499  20.020  31.924  12.175
24829W        W96500  41.459  42.541  10.405
24830W        W96501  21.208  41.125   2.417
24831W        W96502  28.901  18.262   4.151
24832W        W96503  27.024  19.232  10.689
24833W        W96504  15.504   1.471  13.867
24834W        W96505  15.383   5.778  10.326
24835W        W96506  27.047  39.463   3.128
24836W        W96507  20.564  34.595   0.034
24837W        W96508   1.540  44.636   3.714
24838W        W96509  31.947  22.233  14.834
24839W        W96510  13.143  43.170   1.365
24840W        W96511  25.651  15.982  13.996
24841W        W96512   6.940   9.015  11.142
24842W        W96513  35.050  41.825  14.887
24843W        W96514  23.502   2.192   2.839
24844W        W96515  19.464  25.873   2.521
24845W        W96516  43.396  34.388  12.819
24846W        W96517  36.138  13.846  13.454
24847W        W96518  12.624   7.986  12.303
24848W        W96519  41.476   5.420  10.427
24849W        W96520  44.625   1.390  11.655
24850W        W96521  36.194  22.096   2.806
24851W        W96522  41.781  26.273   3.573
24852W        W96523  10.612  10.516  10.404
24853W        W96524  27.479  12.642  11.421
24854W        W96525  23.655  17.744   0.414
24855W        W96526   6.812  40.990  12.557
24856W        W96527  33.101   0.287  11.638
24857W        W96528  40.406   8.627   3.914
24858W        W96529  39.611  37.374   2.772
24859W        W96530  11.798  22.932   5.186
24860W        W96531  17.685  12.179  14.372
24861W        W96532  10.923  21.239  14.968
24862W        W96533  30.683   4.809  10.693
24863W        W96534  16.910  15.769  12.021
24864W        W96535  32.130   5.722  11.691
24865W        W96536  19.976  12.797  13.484
24866W        W96537  40.460  21.631  13.313
24867W        W96538  16.636  28.132  14.075
24868W        W96539  31.886  30.080   1.094
24869W        W96540  30.236  34.949  11.697
24870W        W96541  39.576   9.949  12.791
24871W        W96542  26.635   8.563  12.796
24872W        W96543  29.788  24.791  14.334
24873W        W96544   0.472  15.305   1.887
24874W        W96545   9.536  28.650   0.714
24875W        W96546  10.186  28.890   2.013
24876W        W96547   6.287  40.595   3.096
24877W        W96548  30.423  33.530   3.612
24878W        W96549  13.703  18.807   3.405
24879W        W96550  24.165  10.702   0.077
24880W        W96551   8.786  13.756   3.951
24881W        W96552  30.805  11.840  12.128
24882W        W96553   4.968   2.695  12.549
24883W        W96554  27.609  11.764  14.337
24884W        W96555  28.993   3.020  14.939
24885W        W96556  15.713  35.088  12.741
24886W        W96557  27.543  41.591  14.246
24887W        W96558  28.996  29.125   0.333
24888W        W96559  13.397  14.391  13.958
24889W        W96560  14.008  10.584  10.707
24890W        W96561  31.225  13.333  12.369
24891W        W96562  19.760  40.557  13.450
24892W        W96563  29.812  12.768  13.469
24893W        W96564  23.772   5.636  11.158
24894W        W96565  21.177  18.119   9.753
24895W        W96566   9.892  43.019  13.905
24896W        W96567   0.911  12.869  13.017
24897W        W96568   3.862  37.192   4.934
24898W        W96569   3.499  23.681   3.574
24899W        W96570  10.173  29.076  10.406
24900W        W96571   3.834  36.859   4.053
24901W        W96572  17.176  30.725  10.285
24902W        W96573  39.898  23.751  12.428
24903W        W96574  31.019  32.432   0.401
24904W        W96575  19.272  43.032   0.163
24905W        W96576  23.976  22.203  12.527
24906W        W96577  33.588   8.641   1.832
24907W        W96578   9.411  24.469   2.268
24908W        W96579  42.368   3.210  14.785
24909W        W96580  30.870  30.052  12.954
24910W        W96581   8.863   0.836  13.376
24911W        W96582   4.090   8.822   2.703
24912W        W96583   3.840  11.426  12.919
24913W        W96584  34.503  16.332  13.822
24914W        W96585  38.802   1.890   4.239
24915W        W96586   3.036  42.924   2.243
24916W        W96587  34.433  14.372   3.976
24917W        W96588  11.192  34.137   3.575
24918W        W96589   1.489  20.750  14.198
24919W        W96590  30.478   0.372  12.096
24920W        W96591  40.231  24.877   3.709
24921W        W96592  27.297  22.929  14.411
24922W        W96593  40.470  43.754   0.305
24923W        W96594  16.971   3.932  13.043
24924W        W96595  44.881  33.139  14.802
24925W        W96596  41.264  19.322   2.889
24926W        W96597  27.942  19.682  13.246
24927W        W96598   6.157  19.503   0.049
24928W        W96599  20.532  37.775   4.595
24929W        W96600  28.429   2.984   3.465
24930W        W96601  41.733   2.450   4.296
24931W        W96602  24.308   7.197  13.064
24932W        W96603  14.866  36.117  12.944
24933W        W96604  44.288  25.701  11.812
24934W        W96605  33.071  22.721  10.477
24935W        W96606  28.012  38.906  10.615
24936W        W96607   6.717  20.287   3.618
24937W        W96608  25.920  21.451  12.081
24938W        W96609  18.516   4.913  10.136
24939W        W96610  35.593   6.946   1.026
24940W        W96611   6.908  37.343   4.494
24941W        W96612  22.090  24.395  13.308
24942W        W96613   2.812   1.397  13.966
24943W        W96614   7.270  43.445   2.281
24944W        W96615  25.686   8.201  10.617
24945W        W96616   2.046  10.200   5.041
24946W        W96617  16.978  23.695   3.968
24947W        W96618  15.308   7.849  11.973
24948W        W96619  20.017   1.311   3.267
24949W        W96620  19.343  44.045   3.764
24950W        W96621  36.888  20.551  12.894
24951W        W96622  10.484   3.309   9.706
24952W        W96623  33.876  36.590  13.102
24953W        W96624  43.789  14.568  13.516
24954W        W96625   7.286  15.860  14.309
24955W        W96626  39.551   8.283   4.765
24956W        W96627   8.977  28.196   2.637
24957W        W96628  10.195  28.381  14.504
24958W        W96629  16.563   5.535   0.728
24959W        W96630   4.188  21.547  14.365
24960W        W96631  40.947  37.527   1.139
24961W        W96632  10.319  36.318  11.405
24962W        W96633   3.957   5.050  13.826
24963W        W96634  31.220  31.641  12.134
24964W        W96635  36.698  31.456  12.435
24965W        W96636   1.494   9.329  11.576
24966W        W96637  14.770  42.070  12.133
24967W        W96638  18.223   7.152  14.753
24968W        W96639   9.406  44.830   2.737
24969W        W96640  11.044  13.023  10.827
24970W        W96641  16.068  32.574  11.145
24971W        W96642  25.142  30.885   2.778
24972W        W96643  34.895  40.271  12.823
24973W        W96644  32.104   5.782   1.147
24974W        W96645   9.164  26.061   3.082
24975W        W96646  11.372  22.612  12.494
24976W        W96647  41.658  29.739   4.183
24977W        W96648  10.946  39.116   0.967
24978W        W96649  10.636   9.095  13.443
24979W        W96650  31.691  36.345  10.625
24980W        W96651  33.339   6.872  12.398
24981W        W96652  36.891  38.496  12.353
24982W        W96653  35.816  33.049  13.968
24983W        W96654   2.952  38.883   4.842
24984W        W96655  22.120  28.247  12.746
24985W        W96656  27.212   7.342   1.344
24986W        W96657  44.557  20.228   1.672
24987W        W96658  42.252  40.533  14.340
24988W        W96659  14.247  38.608   4.775
24989W        W96660   6.486  14.589   0.374
24990W        W96661  28.385  30.297  13.773
24991W        W96662  26.119  36.808   1.243
24992W        W96663  21.252   8.209  12.127
24993W        W96664  44.997   7.206  14.727
24994W        W96665   3.685  39.866   2.761
24995W        W96666  30.226   4.503  10.699
24996W        W96667  29.951   1.334  13.233
24997W        W96668  30.210   9.338   3.548
24998W        W96669  43.907  30.484  11.988
24999W        W96670  18.064  35.096   4.114
25000W        W96671  24.964  38.786  14.523
25001W        W96672  39.006   7.200   1.499
25002W        W96673  42.978  38.559   4.577
25003W        W96674  43.885  33.136  14.421
25004W        W96675  10.472  21.734  14.327
25005W        W96676  33.983  29.589  12.095
25006W        W96677  37.908  31.566   2.830
25007W        W96678  40.840  41.849   4.850
25008W        W96679  34.634  29.260  12.427
25009W        W96680  31.819   2.381   4.212
25010W        W96681  33.763  31.981   2.031
25011W        W96682  43.812  41.653   1.114
25012W        W96683  14.039  24.238   2.205
25013W        W96684   0.392  43.903   3.262
25014W        W96685   5.991  34.875   3.696
25015W        W96686  18.087   3.366  13.994
25016W        W96687  37.385  38.308   2.179
25017W        W96688  44.252  43.431   0.561
25018W        W96689  30.514  10.024  11.451
25019W        W96690  14.614  31.098  13.834
25020W        W96691  32.737  22.179  11.613
25021W        W96692   6.729   1.484   1.709
25022W        W96693  30.022  21.220   4.197
25023W        W96694   3.284  44.014  12.994
25024W        W96695  11.735   5.358  12.249
25025W        W96696  25.435  27.582   0.850
25026W        W96697  37.331  30.132   2.159
25027W        W96698   4.874  22.637   1.675
25028W        W96699  10.635  17.912  13.811
25029W        W96700  27.022   8.209  12.985
25030W        W96701  15.664  22.537   2.982
25031W        W96702  40.583  36.014  14.998
25032W        W96703   1.939  16.722  11.575
25033W        W96704  20.765  34.238   0.356
25034W        W96705  37.841   0.879   0.834
25035W        W96706  15.790  21.421   0.318
25036W        W96707  25.050  34.860  11.660
25037W        W96708  39.034  13.863   0.352
25038W        W96709   5.415  33.108   1.508
25039W        W96710  11.843  36.351   2.116
25040W        W96711   0.240  27.834  11.130
25041W        W96712  13.938  16.987  13.027
25042W        W96713  15.833  34.969   1.361
25043W        W96714  14.065  12.176   0.262
25044W        W96715  33.448   8.205  13.934
25045W        W96716  20.229   6.385  12.026
25046W        W96717  34.920   1.863   3.896
25047W        W96718  41.503   1.921   4.764
25048W        W96719  18.704  36.605   3.514
25049W        W96720   7.430  11.879   0.493
25050W        W96721  12.307  12.187  12.769
25051W        W96722  34.147  18.098  12.538
25052W        W96723  22.772  12.698   4.074
25053W        W96724  26.520   6.581  10.873
25054W        W96725  33.706  18.072  11.622
25055W        W96726  19.125  31.221  10.740
25056W        W96727   6.100   7.850   4.691
25057W        W96728  29.151   7.507   0.413
25058W        W96729   9.104  15.144  14.087
25059W        W96730  33.936  25.716  14.294
25060W        W96731  40.958  10.867   3.666
25061W        W96732  13.864  27.980   1.946
25062W        W96733  11.189  23.789   2.302
25063W        W96734  33.410   7.396   2.287
25064W        W96735  41.327   5.286  12.361
25065W        W96736  13.387  20.272  10.757
25066W        W96737  10.738  20.224   4.207
25067W        W96738  21.550  26.741   2.762
25068W        W96739  18.547  23.877   2.707
25069W        W96740  29.197  35.828   4.511
25070W        W96741   1.649  37.564  11.612
25071W        W96742  19.257   4.951   1.329
25072W        W96743  35.532  26.011  12.248
25073W        W96744  28.754   8.182  10.521
25074W        W96745  18.500  22.665  11.945
25075W        W96746  43.487  22.700  11.644
25076W        W96747  19.079  31.585   0.720
25077W        W96748  15.297  35.478  11.203
25078W        W96749  11.956  16.077  12.880
25079W        W96750  22.080  19.001   4.154
25080W        W96751  20.241  20.618   4.640
25081W        W96752  30.368  38.143   2.531
25082W        W96753  32.551  34.550   1.871
25083W        W96754  21.359   7.531  12.670
25084W        W96755  43.293  22.221  11.505
25085W        W96756  41.998  19.365   2.239
25086W        W96757  20.312  13.739   0.033
25087W        W96758  24.932  14.239  12.843
25088W        W96759  27.171  16.808   2.298
25089W        W96760  35.647  18.595   2.584
25090W        W96761  14.855  34.276  12.021
25091W        W96762   9.481  19.932  11.496
25092W        W96763  38.347  23.032   3.543
25093W        W96764  43.731  36.946   1.040
25094W        W96765  21.919  38.420  10.578
25095W        W96766  21.488  17.661  12.944
25096W        W96767  31.494   5.663   3.174
25097W        W96768  33.887  23.552  12.729
25098W        W96769   0.787  36.392   3.284
25099W        W96770  26.771  27.997   0.892
25100W        W96771  33.110  11.609  10.548
25101W        W96772  22.218  18.297  11.114
25102W        W96773  33.053  13.269  14.091
25103W        W96774  15.122  11.381  12.596
25104W        W96775  40.851  41.756  13.241
25105W        W96776  14.263  40.980  12.932
25106W        W96777  21.153  34.566   1.319
25107W        W96778  44.857   4.708   3.661
25108W        W96779   4.549  26.090  13.400
25109W        W96780  36.643  40.392   3.230
25110W        W96781  19.567  38.332  14.946
25111W        W96782  27.583  33.613   4.593
25112W        W96783  42.783  29.138   3.769
25113W        W96784  17.447  29.118  10.677
25114W        W96785  17.728  21.195  10.684
25115W        W96786  28.254   0.860   4.668
25116W        W96787  18.348  36.617  12.507
25117W        W96788  10.676   1.774  10.776
25118W        W96789  19.240  42.391  11.283
25119W        W96790   2.901  34.445  12.178
25120W        W96791  21.602  19.846   2.459
25121W        W96792  25.417  20.633   0.951
25122W        W96793   9.593  27.167  12.143
25123W        W96794  43.331  19.933   3.758
25124W        W96795  44.040  21.877   3.164
25125W        W96796  34.981   8.608   1.223
25126W        W96797  37.230  10.884   2.877
25127W        W96798  22.659  21.614  13.511
25128W        W96799  27.152  22.010  13.064
25129W        W96800  41.288  37.502   3.729
25130W        W96801  26.565   8.633   3.200
25131W        W96802  13.690  16.253   0.841
25132W        W96803   1.414   4.640   3.229
25133W        W96804  32.538  26.272  13.082
25134W        W96805  12.154   3.660  11.486
25135W        W96806  38.104  25.598   1.800
25136W        W96807  10.185   6.427  13.370
25137W        W96808  34.941  40.759  12.972
25138W        W96809  16.156  25.977  11.222
25139W        W96810  39.484   8.887   2.509
25140W        W96811   1.400   3.305   0.712
25141W        W96812   7.780   2.734  14.478
25142W        W96813  26.629  30.330  14.487
25143W        W96814  27.395   5.721  10.705
25144W        W96815  21.869   3.174   1.396
25145W        W96816  25.535  22.246   3.123
25146W        W96817  27.941  35.522  10.723
25147W        W96818  15.006  11.864   1.755
25148W        W96819  10.851  36.066  13.358
25149W        W96820  32.904  25.551   1.591
25150W        W96821  12.531   0.427  13.845
25151W        W96822   5.946  35.078   0.825
25152W        W96823  40.102  42.262  12.879
25153W        W96824   1.995  19.441  13.404
25154W        W96825  20.644  22.624   3.781
25155W        W96826  11.506  29.015   3.170
25156W        W96827   7.393  18.120  13.440
25157W        W96828  32.622  22.169  13.157
25158W        W96829  26.272  36.712  14.288
25159W        W96830  23.977  40.020   0.832
25160W        W96831   7.379   5.246  14.498
25161W        W96832  14.658  23.612   1.492
25162W        W96833  38.380  24.165   1.762
25163W        W96834   6.395   1.793  13.102
25164W        W96835  21.249  16.338   4.997
25165W        W96836  40.440  15.542  14.809
25166W        W96837  20.563  17.695  10.731
25167W        W96838  30.443   5.906  14.396
25168W        W96839  34.960  24.777   4.899
25169W        W96840  35.169   1.259   4.585
25170W        W96841  44.814  32.483  13.315
25171W        W96842  28.892  35.460   3.197
25172W        W96843  18.966  17.458  10.981
25173W        W96844  23.967  11.809   0.881
25174W        W96845  10.683  14.334  11.142
25175W        W96846  10.215  41.566  10.497
25176W        W96847  16.802  23.853   4.464
25177W        W96848  16.528   0.119   3.997
25178W        W96849  22.195  15.915   4.575
25179W        W96850   0.399  44.708   4.264
25180W        W96851   6.015  34.914  12.987
25181W        W96852   1.162  42.855  14.344
25182W        W96853   7.859  29.548   5.166
25183W        W96854  16.347  12.303   1.794
25184W        W96855  34.849  32.872  13.818
25185W        W96856   3.860  21.577  11.446
25186W        W96857  41.004  28.250   1.358
25187W        W96858  14.320  14.319   0.048
25188W        W96859   0.838   3.148   5.135
25189W        W96860  42.071   3.766   0.777
25190W        W96861  26.283  42.321  14.790
25191W        W96862  22.251   7.784  13.990
25192W        W96863  18.819  20.180   2.907
25193W        W96864  12.686   9.344   0.750
25194W        W96865  13.918  18.628  13.923
25195W        W96866  35.182  21.130   4.535
25196W        W96867  12.112   1.851   2.317
25197W        W96868  10.390   5.876  11.341
25198W        W96869  43.939  28.116   2.158
25199W        W96870  44.425  21.524   3.188
25200W        W96871  11.325   5.967  13.370
25201W        W96872   1.370   3.876   2.105
25202W        W96873  22.501   7.242  10.528
25203W        W96874   5.360  31.804  10.265
25204W        W96875   2.301  26.997   4.536
25205W        W96876  26.404  42.529  14.305
25206W        W96877  10.961  19.603  11.486
25207W        W96878  16.077  32.933  10.687
25208W        W96879  31.610  25.286   0.407
25209W        W96880  15.902  24.117  11.055
25210W        W96881  10.914   5.411  10.624
25211W        W96882  31.488  31.738  14.285
25212W        W96883  10.184  14.628   4.529
25213W        W96884   6.603   9.859   2.128
25214W        W96885  18.758  38.765   3.229
25215W        W96886  44.989  30.195   0.964
25216W        W96887  26.165   6.932   2.801
25217W        W96888   3.933  31.808  13.079
25218W        W96889   0.727  29.167   3.877
25219W        W96890  21.418  38.312  10.595
25220W        W96891  17.528  31.052   2.221
25221W        W96892  20.846  10.702   1.720
25222W        W96893  44.125  18.791  14.034
25223W        W96894  28.695  10.132  11.156
25224W        W96895  18.746  43.867  14.233
25225W        W96896  23.105  17.832   0.808
25226W        W96897  10.164  28.191   4.155
25227W        W96898   5.786   9.215  11.507
25228W        W96899  41.241  44.912   0.778
25229W        W96900  41.643   7.090  10.241
25230W        W96901  10.560  44.883  13.142
25231W        W96902  28.531  40.595  10.712
25232W        W96903  17.511  36.012   2.225
25233W        W96904  36.855  23.974   4.136
25234W        W96905  24.164   8.716   3.212
25235W        W96906  21.221  39.105  14.826
25236W        W96907  42.213  21.740   1.074
25237W        W96908  28.496   6.722  10.546
25238W        W96909  18.526   2.875  10.679
25239W        W96910  17.634  34.803   0.438
25240W        W96911  34.518   3.756  12.300
25241W        W96912   7.111   1.478  13.907
25242W        W96913   6.147  11.324  14.500
25243W        W96914  41.417  20.658  12.555
25244W        W96915  24.950   0.971   4.555
25245W        W96916  40.365  34.869  12.432
25246W        W96917  39.542  39.032   0.846
25247W        W96918  43.248  14.660  13.465
25248W        W96919   7.950  12.406  12.046
25249W        W96920  43.863  28.619  12.419
25250W        W96921  36.033   8.675   3.712
25251W        W96922  31.067  42.370   4.458
25252W        W96923   9.607  33.488   2.464
25253W        W96924  33.442   9.840  13.981
25254W        W96925  30.745   4.167  14.781
25255W        W96926  10.373  42.271   0.877
25256W        W96927  16.704   2.613   4.453
25257W        W96928  10.823  30.580  13.793
25258W        W96929   3.456   7.328  12.101
25259W        W96930   1.644   0.381   4.639
25260W        W96931  44.237  27.466   0.971
25261W        W96932  38.346  43.396   0.611
25262W        W96933  23.447  29.378  13.742
25263W        W96934  23.996  18.957   1.817
25264W        W96935  40.098  14.714   3.395
25265W        W96936  19.310  41.010  14.752
25266W        W96937  10.916  39.964   3.116
25267W        W96938  10.375  26.424   2.367
25268W        W96939  25.500   2.831   1.880
25269W        W96940  40.187  44.984   3.700
25270W        W96941  39.510   0.050   4.476
25271W        W96942  23.668  23.608  13.600
25272W        W96943  35.839  20.982  13.845
25273W        W96944  21.960   5.260   3.310
25274W        W96945  35.544  14.945  14.336
25275W        W96946  44.125   1.452  12.878
25276W        W96947   1.812  22.054  11.432
25277W        W96948  41.950   1.340   0.152
25278W        W96949  23.790  26.450  14.913
25279W        W96950  24.565  17.282  10.650
25280W        W96951   8.699  15.710   1.701
25281W        W96952   2.935  40.345   2.703
25282W        W96953  41.713   0.636  12.037
25283W        W96954  39.432  11.252   3.148
25284W        W96955   6.871  38.490   4.541
25285W        W96956  25.903   6.472   2.851
25286W        W96957  28.182   6.695   1.424
25287W        W96958  20.674   5.685   1.225
25288W        W96959   1.447  25.751  13.098
25289W        W96960  25.586   8.732   2.563
25290W        W96961  23.366   0.005  14.926
25291W        W96962  36.406  31.579  10.594
25292W        W96963   7.352  11.139   3.156
25293W        W96964  34.090   9.478   4.820
25294W        W96965  34.177   8.869   0.679
25295W        W96966  23.427  13.940  13.899
25296W        W96967  32.462  27.117  12.848
25297W        W96968  22.004  28.192   3.704
25298W        W96969  31.947  43.479   1.174
25299W        W96970   7.435  25.424   2.793
25300W        W96971  11.651   0.049   3.651
25301W        W96972   4.649  31.423   3.605
25302W        W96973   8.357  17.688  12.095
25303W        W96974  13.605  44.799   4.885
25304W        W96975  35.644  20.666   4.391
25305W        W96976  20.856  17.139   3.460
25306W        W96977  11.679  25.020   2.281
25307W        W96978  39.959  21.696  12.458
25308W        W96979  18.775  11.745  11.827
25309W        W96980   3.852  20.024   4.221
25310W        W96981  12.012  21.727  13.623
25311W        W96982  22.997  38.573  12.364
25312W        W96983  24.127   8.625   1.927
25313W        W96984  39.533  10.781   2.319
25314W        W96985  28.122   5.441  10.742
25315W        W96986   9.023  22.090   1.205
25316W        W96987  41.461  40.827  14.031
25317W        W96988  18.154  41.737  12.121
25318W        W96989  23.926   8.087   1.295
25319W        W96990  22.462  17.981   1.459
25320W        W96991  36.529  42.427   1.804
25321W        W96992  20.596  29.032  11.099
25322W        W96993  34.018  16.018  12.758
25323W        W96994   2.900  13.557   3.216
25324W        W96995  25.553   9.113  12.006
25325W        W96996  33.742   4.494  13.035
25326W        W96997  26.415  15.367  13.447
25327W        W96998  14.174  43.624   0.686
25328W        W96999  27.897  15.251  13.393
25329W        W97000  18.769  37.384   0.319
25330W        W97001  37.835  21.545  12.380
25331W        W97002  23.860   9.437  12.919
25332W        W97003  36.087  22.698   0.743
25333W        W97004  28.973  10.083   2.467
25334W        W97005  38.423  33.201  14.816
25335W        W97006  44.584   0.552   0.962
25336W        W97007  10.354  33.535  13.519
25337W        W97008  38.393  21.179   2.124
25338W        W97009   3.168  39.897  12.481
25339W        W97010  40.769  42.707   3.078
25340W        W97011  26.752  29.993   2.894
25341W        W97012  43.445  18.054  14.938
25342W        W97013  34.047   4.224  13.945
25343W        W97014  32.125   0.358   1.759
25344W        W97015  19.156  25.987   5.323
25345W        W97016  31.684  33.109  14.450
25346W        W97017  40.845  38.787  14.069
25347W        W97018  18.964  32.547  10.903
25348W        W97019  17.822   5.324   4.516
25349W        W97020  13.878  29.507  13.021
25350W        W97021  15.428  37.783   0.373
25351W        W97022   0.881  43.343   2.768
25352W        W97023  35.502   7.149  12.480
25353W        W97024  12.779  28.875  14.141
25354W        W97025  24.270  35.314  12.515
25355W        W97026   7.207  32.347  12.397
25356W        W97027  35.422  36.804  12.570
25357W        W97028  22.726  25.738   1.179
25358W        W97029   1.704  36.844   0.486
25359W        W97030  30.037  29.911   0.523
25360W        W97031  30.174  12.402  13.503
25361W        W97032  44.524  19.032  11.102
25362W        W97033  10.912  11.875  13.320
25363W        W97034  20.488  29.123   3.554
25364W        W97035  17.521  44.694   0.465
25365W        W97036  10.067   7.838  11.877
25366W        W97037   0.035  27.363  11.180
25367W        W97038  36.275   6.685  13.929
25368W        W97039  27.444  38.100   3.608
25369W        W97040  16.888  15.461  14.918
25370W        W97041  37.438  39.925  13.879
25371W        W97042  27.750  34.405   3.683
25372W        W97043   5.905  34.590   1.775
25373W        W97044  12.714  34.022  11.685
25374W        W97045  13.683   8.897   3.592
25375W        W97046  25.102  18.850  13.402
25376W        W97047  36.087  28.071   4.383
25377W        W97048   1.455  16.571  14.454
25378W        W97049  20.683  13.305   0.115
25379W        W97050  22.712  22.590  11.441
25380W        W97051  41.863  25.413   0.464
25381W        W97052   0.505   5.319   0.527
25382W        W97053  24.731  41.875   2.317
25383W        W97054   1.197  34.590   3.569
25384W        W97055  30.386  26.056  13.820
25385W        W97056  34.911   7.665   4.535
25386W        W97057  23.561  39.475  13.573
25387W        W97058  43.415  34.106  10.574
25388W        W97059  30.471  11.564   1.347
25389W        W97060  30.179  34.312   4.426
25390W        W97061  42.215   0.520  12.987
25391W        W97062   0.860  11.166  13.253
25392W        W97063  40.805  30.919  14.341
25393W        W97064  10.783  40.774  11.929
25394W        W97065  25.090  37.861  12.539
25395W        W97066  13.171  18.227   2.401
25396W        W97067   2.412   9.303   0.901
25397W        W97068   0.507  31.834  13.425
25398W        W97069  27.703  20.599  11.561
25399W        W97070  11.481  29.751  13.858
25400W        W97071  28.874  15.796   4.314
25401W        W97072  42.984  44.304  12.940
25402W        W97073  34.124  36.006  12.428
25403W        W97074  37.496  35.112   4.684
25404W        W97075   6.276  34.427  11.182
25405W        W97076   4.127  19.671  10.799
25406W        W97077  42.788  13.295  12.840
25407W        W97078  40.358  14.775   1.392
25408W        W97079  28.195  27.685  14.475
25409W        W97080   8.307  35.410  13.950
25410W        W97081  24.214  39.326   4.578
25411W        W97082   0.855  40.000   0.757
25412W        W97083   5.147  17.508  11.058
25413W        W97084  13.034  32.079  13.816
25414W        W97085   1.137  39.902  10.780
25415W        W97086  11.879  29.572   3.145
25416W        W97087   4.163  31.111  12.333
25417W        W97088  29.935   0.807   3.196
25418W        W97089  37.002  38.105   2.843
25419W        W97090  27.452  17.126  10.728
25420W        W97091  12.586  19.627   4.531
25421W        W97092   4.426  16.152  11.454
25422W        W97093  11.568  37.960  11.992
25423W        W97094  44.421  19.783   5.110
25424W        W97095  21.687  32.911  12.942
25425W        W97096  19.037  30.207   4.420
25426W        W97097  34.000  24.986   0.463
25427W        W97098  21.092  14.738   4.492
25428W        W97099  24.208  28.157   2.772
25429W        W97100  30.161  30.083  11.802
25430W        W97101  21.208  32.406   2.254
25431W        W97102  20.799  10.302  12.233
25432W        W97103  37.440  20.761  11.170
25433W        W97104  15.166  27.476   4.512
25434W        W97105  34.678  18.686  10.632
25435W        W97106  19.652   4.308   4.755
25436W        W97107  40.356   3.947   0.767
25437W        W97108  27.382  30.106  14.092
25438W        W97109  34.319  29.050  14.459
25439W        W97110  31.339  23.392  14.760
25440W        W97111   9.908  16.061  12.927
25441W        W97112  41.873  18.875   2.251
25442W        W97113  39.770  24.927   0.460
25443W        W97114  15.510  23.019   0.707
25444W        W97115   8.446  21.144  12.848
25445W        W97116  24.605   2.172  10.568
25446W        W97117  26.705  11.691   3.902
25447W        W97118  15.805   3.728   1.882
25448W        W97119  43.477  12.651   3.872
25449W        W97120  37.486  12.006   1.810
25450W        W97121  42.833  34.031   2.090
25451W        W97122  12.164   7.193   0.869
25452W        W97123  10.810   8.416   4.472
25453W        W97124   9.620  40.012  13.440
25454W        W97125  18.861  11.395   5.001
25455W        W97126  28.131  16.066  14.271
25456W        W97127  15.911   1.510  12.488
25457W        W97128   9.369   0.968  13.450
25458W        W97129   4.327  18.754   4.622
25459W        W97130  21.671  41.226   2.661
25460W        W97131  29.689  26.585  14.966
25461W        W97132  10.147  40.747  14.241
25462W        W97133  29.605  15.552  14.495
25463W        W97134   9.326  26.853  13.376
25464W        W97135  31.793  35.005  12.929
25465W        W97136  16.117  34.888   3.120
25466W        W97137   2.992  39.740   2.151
25467W        W97138  33.494  15.314   3.777
25468W        W97139  30.957  16.306  11.961
25469W        W97140   1.777  22.209  14.253
25470W        W97141  16.334  36.537  12.504
25471W        W97142  23.222   0.812   1.235
25472W        W97143  15.676  28.094  10.520
25473W        W97144  29.331  33.054   1.847
25474W        W97145  26.475  11.500  14.957
25475W        W97146   1.277  35.067   4.040
25476W        W97147  44.396  19.791   1.937
25477W        W97148  16.187  14.184   4.887
25478W        W97149  33.587  25.057   4.564
25479W        W97150  28.961  18.329   3.626
25480W        W97151  29.016  34.433   4.640
25481W        W97152   3.952  19.808   0.818
25482W        W97153  42.505   7.869   3.697
25483W        W97154  22.720  42.766   0.908
25484W        W97155  22.086  33.239  13.067
25485W        W97156  41.933   5.233  10.671
25486W        W97157  37.519   0.390  14.838
25487W        W97158   6.370  23.672   0.887
25488W        W97159  19.284  38.609   3.168
25489W        W97160  22.976  43.745   2.677
25490W        W97161  35.599  28.189   4.215
25491W        W97162  10.694  32.174  13.815
25492W        W97163  15.434  10.200  12.034
25493W        W97164  37.859  35.593   1.202
25494W        W97165   6.186  10.866  12.017
25495W        W97166  37.464   9.243   1.655
25496W        W97167  21.122  18.685  13.969
25497W        W97168  41.269  18.601  12.019
25498W        W97169   5.358   8.875   3.130
25499W        W97170  11.254  17.389   3.235
25500W        W97171   8.208  13.620   4.094
25501W        W97172  41.040  31.834  13.378
25502W        W97173  20.515   9.861  12.385
25503W        W97174  44.208  24.628   5.451
25504W        W97175  26.662  33.641  13.843
25505W        W97176   2.729  31.352  11.532
25506W        W97177   7.456  27.475  13.078
25507W        W97178  44.285  13.348   1.736
25508W        W97179   3.305  41.457   3.845
25509W        W97180   7.160  37.036  13.330
25510W        W97181  36.897  21.042   0.169
25511W        W97182  26.035  28.006   1.395
25512W        W97183  26.208  32.398   4.224
25513W        W97184  14.485  21.003   5.248
25514W        W97185   0.465  10.892   4.823
25515W        W97186   5.264  13.386  10.566
25516W        W97187   5.209   3.020   1.306
25517W        W97188  24.986   2.164   1.909
25518W        W97189  18.208  12.269  12.534
25519W        W97190   5.043  34.998   2.752
25520W        W97191  30.170   2.864   4.582
25521W        W97192   6.938  27.196   0.848
25522W        W97193  32.678  16.610   2.301
25523W        W97194  16.753   5.068   1.501
25524W        W97195   3.469  30.196   3.061
25525W        W97196  14.267  16.598   1.314
25526W        W97197  12.290  23.281  14.916
25527W        W97198  33.694  21.465  13.413
25528W        W97199  13.580  41.506  14.992
25529W        W97200  13.648  27.019   3.380
25530W        W97201   5.767  10.725  13.842
25531W        W97202  39.526   1.466   4.255
25532W        W97203  20.942   4.968  12.818
25533W        W97204  32.831   8.866  12.118
25534W        W97205  19.177  25.124   1.185
25535W        W97206  14.953  28.093  13.176
25536W        W97207  36.552  30.123  12.109
25537W        W97208   5.288   2.378   4.812
25538W        W97209  13.692  18.068   3.757
25539W        W97210  25.988  28.658   4.805
25540W        W97211   0.920  14.283  12.869
25541W        W97212  18.431  12.579  15.000
25542W        W97213   3.335  32.260  14.970
25543W        W97214  12.495  37.555   3.813
25544W        W97215  15.647   6.154   4.553
25545W        W97216  13.326  27.003   1.261
25546W        W97217  44.245  30.975   1.787
25547W        W97218  17.542  23.598  12.120
25548W        W97219  41.856   3.409  10.945
25549W        W97220  14.326  16.578  11.827
25550W        W97221   0.076  20.216   1.804
25551W        W97222  14.102  39.030   4.526
25552W        W97223  19.085  33.940   1.640
25553W        W97224  41.286  13.240   3.745
25554W        W97225  28.055  26.991  13.923
25555W        W97226  15.616  41.521   0.031
25556W        W97227  37.936  12.170   0.938
25557W        W97228  43.749  42.109   4.593
25558W        W97229  25.247  30.961   4.700
25559W        W97230  33.528  36.504   2.703
25560W        W97231   5.946  16.139  11.731
25561W        W97232   9.933  35.877   2.329
25562W        W97233   8.396  15.075   0.365
25563W        W97234  19.671  43.049   4.737
25564W        W97235   4.334   7.620  11.829
25565W        W97236  38.859  17.120   3.149
25566W        W97237  10.442  38.462   2.132
25567W        W97238  36.463   9.020   3.817
25568W        W97239  21.312  18.562   3.833
25569W        W97240  32.454   9.401  14.398
25570W        W97241  30.997  25.554   2.390
25571W        W97242  15.641  29.619   3.218
25572W        W97243  38.334   9.890   3.145
25573W        W97244  31.076  26.531  10.763
25574W        W97245  38.597  20.579   2.784
25575W        W97246  31.190  11.713  14.796
25576W        W97247  19.984  19.211   4.436
25577W        W97248   6.852  16.735  13.403
25578W        W97249  17.407  41.282   3.190
25579W        W97250   0.516  17.761  14.267
25580W        W97251  27.642  17.255  12.642
25581W        W97252  32.061   3.932  11.188
25582W        W97253  32.578  27.734   0.243
25583W        W97254  30.484  35.825  13.023
25584W        W97255  19.785  13.686   0.046
25585W        W97256  16.062  24.013  14.784
25586W        W97257  12.475  23.257   1.247
25587W        W97258  15.294  32.496  11.561
25588W        W97259  37.029  32.627  11.190
25589W        W97260  42.766  37.095   0.902
25590W        W97261  37.061  42.392   2.633
25591W        W97262  18.744  11.583   3.805
25592W        W97263  27.130  16.294   0.716
25593W        W97264   6.797  22.718   1.343
25594W        W97265   8.788  30.912   2.351
25595W        W97266  44.781  16.242   1.584
25596W        W97267  18.395  17.664   4.318
25597W        W97268  26.005  14.188   0.484
25598W        W97269  35.656  35.329   1.977
25599W        W97270  33.315  31.012  10.609
25600W        W97271  44.237  24.528   3.251
25601W        W97272  36.392  26.056   3.026
25602W        W97273   0.729  19.800  13.916
25603W        W97274  38.555  19.838   3.306
25604W        W97275  25.883   5.238  14.959
25605W        W97276   0.906  43.475   4.111
25606W        W97277   1.502  31.425   3.768
25607W        W97278  41.037  34.418   4.266
25608W        W97279   8.686  41.033   1.741
25609W        W97280  22.266  11.830   2.379
25610W        W97281  10.319  13.724  13.950
25611W        W97282  15.369  34.390   3.620
25612W        W97283  29.041   7.324  13.406
25613W        W97284  23.507  20.779   3.756
25614W        W97285  37.545  29.823   3.812
25615W        W97286  22.164   5.920   2.587
25616W        W97287  29.106  26.108   2.185
25617W        W97288  33.962  30.466   0.218
25618W        W97289  23.536   2.322   3.337
25619W        W97290  20.069  32.628  14.911
25620W        W97291   9.801   9.486   2.104
25621W        W97292  17.571   3.977   0.539
25622W        W97293  25.122  10.553  13.517
25623W        W97294  22.033   9.888   4.537
25624W        W97295  42.702  13.299   2.531
25625W        W97296  11.537  35.662   2.628
25626W        W97297  41.351  28.629   4.798
25627W        W97298  39.069  44.878   5.136
25628W        W97299  28.394  36.288  11.707
25629W        W97300  35.429  21.096   1.837
25630W        W97301  19.013  14.375   2.764
25631W        W97302  28.093  15.616  10.100
25632W        W97303   6.513  28.174  13.350
25633W        W97304  35.091  41.330  14.699
25634W        W97305  30.007  40.383  10.702
25635W        W97306  17.807  42.301  13.436
25636W        W97307   1.301  41.053   0.937
25637W        W97308  25.672  36.950   2.509
25638W        W97309  27.200  28.734  12.066
25639W        W97310   0.456  40.274   3.842
25640W        W97311  14.190  16.767  13.849
25641W        W97312   3.777  34.305  14.457
25642W        W97313  33.206  44.757  13.409
25643W        W97314  38.513  28.980  12.860
25644W        W97315  38.343  38.311  11.608
25645W        W97316  30.206  23.768  13.525
25646W        W97317  16.477  43.552  11.041
25647W        W97318  20.318  13.187   0.489
25648W        W97319  41.745  38.961  13.908
25649W        W97320  22.242  15.611  10.671
25650W        W97321   6.238   0.401   4.184
25651W        W97322   4.049  43.272   1.902
25652W        W97323  20.016   1.950  11.010
25653W        W97324  35.372  44.323  12.885
25654W        W97325  44.728   6.303  13.380
25655W        W97326  33.444  13.796  11.724
25656W        W97327   9.900   9.141  11.239
25657W        W97328  36.194  22.573  12.361
25658W        W97329  23.527  24.082  10.280
25659W        W97330  23.939  28.060   0.513
25660W        W97331  35.421  21.266  13.984
25661W        W97332  43.336  30.663   3.228
25662W        W97333  23.519  14.693   4.167
25663W        W97334  41.791   2.876   3.562
25664W        W97335  14.777  10.297   0.498
25665W        W97336  26.481  30.959   3.364
25666W        W97337  39.299  15.405   0.971
25667W        W97338  27.603  24.665  14.478
25668W        W97339  12.498  44.777   1.798
25669W        W97340  19.168  16.026   0.367
25670W        W97341   2.303  14.163  14.963
25671W        W97342  19.665  44.146  11.089
25672W        W97343  42.963  23.273   0.487
25673W        W97344   6.144  31.091  10.724
25674W        W97345  13.545  23.913  12.914
25675W        W97346  14.623   2.337   0.457
25676W        W97347  39.136  13.453  12.131
25677W        W97348   1.843  18.175   2.629
25678W        W97349  11.878  38.002   0.014
25679W        W97350  29.398  41.050  10.184
25680W        W97351   9.332   1.227  12.141
25681W        W97352  39.611   5.414   0.328
25682W        W97353   0.984  20.285   9.826
25683W        W97354  37.397  34.470  11.084
25684W        W97355   2.714  35.842   2.395
25685W        W97356   8.741   4.020   0.578
25686W        W97357  23.081  30.949   3.240
25687W        W97358  37.152   1.919   0.981
25688W        W97359  27.428  21.688  11.930
25689W        W97360  16.299   1.541   2.110
25690W        W97361  23.036  18.731   2.614
25691W        W97362  16.733   3.951  13.516
25692W        W97363  13.003   4.958   4.095
25693W        W97364  16.172  20.817  10.793
25694W        W97365   1.605  22.663   4.621
25695W        W97366  19.260  12.562  14.308
25696W        W97367  42.441  10.393  10.332
25697W        W97368  28.405  39.784   4.825
25698W        W97369  34.453   8.535   5.113
25699W        W97370  22.215   2.258  12.033
25700W        W97371  14.380  18.852  14.049
25701W        W97372  43.911  23.608   3.302
25702W        W97373  39.524  24.160  14.347
25703W        W97374  41.769  16.254   4.347
25704W        W97375  30.128  18.771   2.352
25705W        W97376   5.704  14.889   1.022
25706W        W97377  24.270  30.010   0.030
25707W        W97378  34.863  19.550   4.520
25708W        W97379  11.658  16.134   3.549
25709W        W97380  24.147  13.772  12.929
25710W        W97381  41.266  35.693   3.568
25711W        W97382  22.955  28.553   3.334
25712W        W97383  17.401   4.330  13.791
25713W        W97384  23.550  35.759  12.931
25714W        W97385  16.745  25.985  12.428
25715W        W97386  44.890  26.513   2.381
25716W        W97387  25.675   2.511   2.249
25717W        W97388  10.712   0.425   3.713
25718W        W97389   0.081   8.029  12.040
25719W        W97390  34.637   7.803   4.119
25720W        W97391  12.799  37.669   4.228
25721W        W97392  24.849   2.272  13.972
25722W        W97393  15.741  26.574   2.805
25723W        W97394  18.584   6.279   4.357
25724W        W97395  15.612  36.359  13.441
25725W        W97396  41.081  20.959  14.888
25726W        W97397  31.855  40.891  13.334
25727W        W97398   4.232  12.136  12.414
25728W        W97399  34.605  14.628   4.825
25729W        W97400  44.310  26.956  11.911
25730W        W97401  19.080  42.052  12.471
25731W        W97402  36.173  15.170   3.248
25732W        W97403  38.097  18.118   4.101
25733W        W97404   4.431  29.698  12.650
25734W        W97405  16.118  22.716   0.603
25735W        W97406   4.186   5.392   2.680
25736W        W97407  43.241  20.002  14.014
25737W        W97408  35.627   2.671   0.772
25738W        W97409  33.571  24.356  14.313
25739W        W97410  43.507   1.074   3.708
25740W        W97411   0.565  28.214  11.001
25741W        W97412  26.109  14.670   3.758
25742W        W97413  12.250  44.401  12.282
25743W        W97414  19.586   6.035  11.507
25744W        W97415  35.142  16.534  12.018
25745W        W97416   9.813  28.506   2.602
25746W        W97417   2.315  35.061  13.967
25747W        W97418   9.535  14.204   2.910
25748W        W97419  24.185  20.138  13.110
25749W        W97420  15.606  31.981  11.521
25750W        W97421  42.368  29.113   0.320
25751W        W97422  23.460  28.130  11.498
25752W        W97423  33.541  40.252  13.575
25753W        W97424  32.565  43.389   1.747
25754W        W97425  38.934  16.240  11.559
25755W        W97426   9.361  28.355   2.299
25756W        W97427  31.685  38.974   0.863
25757W        W97428   3.251  22.704  12.693
25758W        W97429   5.331   5.905  11.162
25759W        W97430  10.330  12.158  13.762
25760W        W97431   6.223  38.470  11.251
25761W        W97432  25.903  44.492  13.419
25762W        W97433  38.619  27.570  13.996
25763W        W97434   4.499  23.451   3.732
25764W        W97435   0.372  40.427  14.479
25765W        W97436  44.254  21.026   5.475
25766W        W97437  21.631   4.847   1.651
25767W        W97438   5.258  24.948   1.679
25768W        W97439  31.793  44.889  13.892
25769W        W97440  38.080  12.201  12.039
25770W        W97441   6.948  16.723  14.771
25771W        W97442  26.974  11.624  14.878
25772W        W97443  13.073  30.513   2.328
25773W        W97444   6.248  36.966   1.737
25774W        W97445  29.031  35.082   3.922
25775W        W97446  11.903   8.613   0.902
25776W        W97447  10.379  42.952   2.203
25777W        W97448  23.435  25.955  10.675
25778W        W97449  37.294   6.846  13.979
25779W        W97450  11.242   7.307  11.918
25780W        W97451   3.847  41.895  11.336
25781W        W97452  10.628  11.771   3.597
25782W        W97453   9.323  40.813  13.978
25783W        W97454  38.294  14.300  14.063
25784W        W97455  15.548  21.501  12.033
25785W        W97456  17.680  34.142  11.238
25786W        W97457   9.859  37.126   3.544
25787W        W97458   1.239   3.272   3.863
25788W        W97459   6.313  12.333   4.066
25789W        W97460  20.484  21.608  12.639
25790W        W97461  35.665  28.597  12.132
25791W        W97462  17.693  24.954   4.362
25792W        W97463  12.604  25.630  12.491
25793W        W97464   5.686   4.325   1.242
25794W        W97465   4.389   1.969   3.801
25795W        W97466  15.648   7.216   2.230
25796W        W97467  39.702  37.906   3.706
25797W        W97468  17.607  12.644  12.014
25798W        W97469  17.600  39.774  14.423
25799W        W97470   3.742  25.758   4.353
25800W        W97471   0.345  12.681  11.571
25801W        W97472  28.789   2.750  12.473
25802W        W97473  11.687  41.277   4.550
25803W        W97474  38.016  12.763  13.101
25804W        W97475  24.046   8.188   2.863
25805W        W97476  20.362   7.351  13.943
25806W        W97477  38.966  31.173  12.111
25807W        W97478  16.437  29.076   1.983
25808W        W97479  17.686  39.124  11.604
25809W        W97480  22.301  32.654   3.733
25810W        W97481  39.978  38.068  14.255
25811W        W97482  23.205   3.770   3.649
25812W        W97483  42.373   1.283  10.586
25813W        W97484  42.010  35.155   1.709
25814W        W97485  26.049  14.545  11.658
25815W        W97486  35.493   9.156  10.815
25816W        W97487  20.644  14.520   4.587
25817W        W97488  12.490   8.834   3.259
25818W        W97489  41.034  27.233  13.805
25819W        W97490   2.257  42.463  13.071
25820W        W97491   9.261   0.727   4.591
25821W        W97492  32.370  10.225   9.718
25822W        W97493  17.032  28.424  14.215
25823W        W97494   7.367  38.810   2.347
25824W        W97495  21.006  34.383  13.489
25825W        W97496  25.628  38.141  11.259
25826W        W97497   7.765  36.318  12.656
25827W        W97498  38.573  14.164  11.144
25828W        W97499  14.292  19.051   1.762
25829W        W97500  41.845   1.954  14.615
25830W        W97501  30.028   1.335   0.785
25831W        W97502  21.979  22.666  14.441
25832W        W97503  34.595  16.727  14.856
25833W        W97504  11.758  31.611  10.359
25834W        W97505  11.938   5.810  12.428
25835W        W97506  30.117  21.054   1.726
25836W        W97507  43.548  10.287   0.018
25837W        W97508  12.327  22.688   2.661
25838W        W97509  27.095  30.605   1.309
25839W        W97510  14.387  40.462  11.117
25840W        W97511  25.987  42.564  13.472
25841W        W97512  44.142  32.490  11.728
25842W        W97513  19.187  11.599   4.135
25843W        W97514  43.358  23.220  10.371
25844W        W97515  16.318  29.854   3.226
25845W        W97516  25.959  20.767  14.006
25846W        W97517  43.836  43.499   4.803
25847W        W97518  34.051  37.796   3.731
25848W        W97519  30.754  28.194  13.859
25849W        W97520  41.335   5.340   0.939
25850W        W97521  33.375  35.410   2.334
25851W        W97522  13.164  41.697  14.340
25852W        W97523  19.234   6.479   1.271
25853W        W97524  43.007  16.662  12.023
25854W        W97525  17.480  33.364   1.180
25855W        W97526  24.082  44.302   2.712
25856W        W97527  25.921  32.554  11.045
25857W        W97528   0.856  19.220   1.250
25858W        W97529  35.630   4.737   1.705
25859W        W97530  33.313  35.853  10.861
25860W        W97531  39.505  33.956   3.682
25861W        W97532  20.651  31.021  11.629
25862W        W97533  12.880  18.492  14.996
25863W        W97534  24.587  38.384   1.477
25864W        W97535  30.128  25.183   0.096
25865W        W97536   0.771  42.898  12.522
25866W        W97537  19.109  39.461  10.791
25867W        W97538   0.930  33.337   1.682
25868W        W97539   6.293  10.260  14.399
25869W        W97540  23.206   9.744   0.076
25870W        W97541   6.726  16.327   1.332
25871W        W97542  37.233  13.783  14.543
25872W        W97543   8.160   1.498   1.349
25873W        W97544   0.691  16.891   3.868
25874W        W97545  28.453  21.215   4.132
25875W        W97546  22.307   8.123   3.214
25876W        W97547  41.770  35.777   3.637
25877W        W97548  13.784  10.392   2.236
25878W        W97549  32.255  19.968   2.726
25879W        W97550  20.479  34.077  12.487
25880W        W97551  20.073  44.039   1.712
25881W        W97552   7.582   9.330   1.264
25882W        W97553  43.719   9.361   4.239
25883W        W97554   3.723   0.859   0.892
25884W        W97555  26.411  31.667   2.219
25885W        W97556  15.788  10.065  13.338
25886W        W97557  44.948  23.157  13.519
25887W        W97558  26.948  40.554   1.602
25888W        W97559  26.187  37.588   1.706
25889W        W97560  32.579   8.634  13.607
25890W        W97561   5.722  18.144  12.079
25891W        W97562  15.759  32.225  12.425
25892W        W97563  20.979  25.116  14.697
25893W        W97564  21.642  18.337  12.434
25894W        W97565  17.147  28.987  12.257
25895W        W97566  21.638  33.448  12.933
25896W        W97567  31.037  40.205  14.052
25897W        W97568  27.115   6.864  13.959
25898W        W97569   2.680  13.102  14.059
25899W        W97570  30.698  32.011   0.266
25900W        W97571  27.851   8.958   1.841
25901W        W97572  15.191  11.798  12.911
25902W        W97573  21.527  43.421  14.529
25903W        W97574  44.476  33.516   2.597
25904W        W97575  23.034  23.955  14.819
25905W        W97576   5.635  12.848  13.853
25906W        W97577  25.730   9.769  14.685
25907W        W97578  22.369   8.159  13.459
25908W        W97579  24.145  18.727  13.397
25909W        W97580  43.224  37.668  12.766
25910W        W97581  42.940  18.787  13.937
25911W        W97582   4.216  24.948   2.772
25912W        W97583   3.782   3.230   0.234
25913W        W97584   7.656  27.004  12.092
25914W        W97585   5.311  39.538   2.302
25915W        W97586  38.774  23.404   0.820
25916W        W97587  11.926  23.034  11.853
25917W        W97588  16.536  11.721  13.082
25918W        W97589  23.739  11.268   4.095
25919W        W97590  38.041  15.581  12.485
25920W        W97591  40.258  43.421   4.130
25921W        W97592  35.613  32.509   2.757
25922W        W97593   4.665  39.021  10.199
25923W        W97594   3.827  32.073  12.473
25924W        W97595   7.336  22.713   1.256
25925W        W97596  18.600  42.321   3.365
25926W        W97597   3.854  41.967   3.223
25927W        W97598   4.235  36.370   0.994
25928W        W97599  40.078  31.125   0.420
25929W        W97600  33.671  27.501  12.675
25930W        W97601   9.225  40.071  14.566
25931W        W97602  21.110  11.859  12.483
25932W        W97603  14.068  25.146   1.840
25933W        W97604  24.447  29.640  14.733
25934W        W97605   5.827  10.703  10.653
25935W        W97606   6.826   7.769   1.760
25936W        W97607  36.161  17.601   1.173
25937W        W97608  37.294   2.520  10.955
25938W        W97609   5.950   7.764   2.871
25939W        W97610  39.909  39.098   2.410
25940W        W97611  29.866   8.880   1.887
25941W        W97612  30.052   5.429   1.486
25942W        W97613  21.152  12.126   0.724
25943W        W97614  31.586  25.591  14.965
25944W        W97615   1.883  10.235  13.536
25945W        W97616  16.174   6.017   0.030
25946W        W97617   9.898  29.388  12.058
25947W        W97618  24.986  13.737  14.024
25948W        W97619  16.730  44.063   3.245
25949W        W97620  30.728  17.358   4.862
25950W        W97621  22.775  34.973   2.130
25951W        W97622  34.967  13.576   0.423
25952W        W97623  13.920   4.661   3.231
25953W        W97624  30.609  22.104   0.007
25954W        W97625  14.336  23.650  10.045
25955W        W97626   5.469   9.975  13.786
25956W        W97627   5.018   3.269   2.707
25957W        W97628   4.882  43.357  14.020
25958W        W97629  14.679   7.820  14.415
25959W        W97630  22.471   0.284  11.937
25960W        W97631  29.891   6.170  13.504
25961W        W97632  18.424  26.066  13.437
25962W        W97633  28.146  24.994   3.143
25963W        W97634  37.662  24.178   4.527
25964W        W97635   5.568  33.827   0.378
25965W        W97636  29.989  41.448   0.893
25966W        W97637  44.825  23.506   1.876
25967W        W97638  29.067   7.149  10.240
25968W        W97639  25.087  29.483   3.042
25969W        W97640  44.472  12.408   4.538
25970W        W97641  17.250  24.918  12.880
25971W        W97642   5.987  36.415  13.513
25972W        W97643  42.873   6.098   3.401
25973W        W97644  19.551  20.602   0.419
25974W        W97645  13.351  17.684   0.918
25975W        W97646  19.181  11.438   2.378
25976W        W97647   1.121   2.647  10.953
25977W        W97648  13.188  42.520  12.521
25978W        W97649  38.361  23.541   1.353
25979W        W97650  18.801  15.987   5.099
25980W        W97651  25.031  17.884  13.456
25981W        W97652  34.532  22.079   1.979
25982W        W97653  37.893  16.693   1.764
25983W        W97654  11.113  27.918  12.133
25984W        W97655  31.209  31.444   2.300
25985W        W97656  44.963  38.531   3.871
25986W        W97657  35.580  16.066  13.583
25987W        W97658  14.082  19.991  13.412
25988W        W97659  38.928  43.962  14.222
25989W        W97660  36.364   6.106   0.925
25990W        W97661  25.959  28.465  12.741
25991W        W97662  43.072   9.579   0.813
25992W        W97663  39.316  26.644   3.675
25993W        W97664  36.319  26.153   1.822
25994W        W97665  42.750  29.924   0.708
25995W        W97666  41.853   3.555  11.416
25996W        W97667  15.754  16.640   0.433
25997W        W97668  44.005   4.177  11.637
25998W        W97669   5.837  10.461  14.508
25999W        W97670  43.996  30.583  12.520
26000W        W97671  22.161  15.112   2.892
26001W        W97672  39.022  25.430  10.680
26002W        W97673  33.566   2.768   2.016
26003W        W97674  22.304  35.881  12.439
26004W        W97675  27.580  22.975  12.315
26005W        W97676   4.976  41.115  13.110
26006W        W97677  12.398  30.881  12.120
26007W        W97678   8.921  14.240   1.963
26008W        W97679  44.323  23.712  11.129
26009W        W97680  40.237  28.918  12.538
26010W        W97681  42.004  18.683   3.602
26011W        W97682   4.043  15.557   4.195
26012W        W97683   8.719  24.098   3.945
26013W        W97684   1.285  38.303  12.616
26014W        W97685  18.568  34.355  14.025
26015W        W97686   5.182  39.270   1.422
26016W        W97687  13.078  28.459  11.579
26017W        W97688  34.573  17.103  11.419
26018W        W97689   0.530  27.633  12.079
26019W        W97690  20.754  35.863   3.678
26020W        W97691   1.940  32.892  14.404
26021W        W97692  22.041  43.935  11.230
26022W        W97693  35.500  42.577   1.748
26023W        W97694  32.661  32.295  14.835
26024W        W97695  16.422  10.220  12.545
26025W        W97696   4.855  23.911   3.111
26026W        W97697  37.488  38.141   0.298
26027W        W97698   7.149  28.977   0.262
26028W        W97699  13.860  44.440   3.214
26029W        W97700  23.878  44.530  10.080
26030W        W97701  34.604   5.847   0.272
26031W        W97702  40.281  23.039   2.186
26032W        W97703   3.988  22.262   3.793
26033W        W97704  15.700  33.110  14.682
26034W        W97705  22.514  32.309   4.096
26035W        W97706  28.481  42.472  11.512
26036W        W97707  43.578  28.692  11.213
26037W        W97708  30.600  13.546   1.379
26038W        W97709  32.007  35.796  14.121
26039W        W97710  11.200   2.525   0.392
26040W        W97711  13.199   9.403   2.385
26041W        W97712  10.434  25.153   4.868
26042W        W97713  41.862  41.421  14.361
26043W        W97714   1.501  34.986   3.182
26044W        W97715  34.315  12.825   4.084
26045W        W97716   8.810  31.670   2.829
26046W        W97717  35.206  29.627   2.513
26047W        W97718  17.120  16.838  11.515
26048W        W97719   1.881  16.497   3.121
26049W        W97720   4.876  42.004   4.940
26050W        W97721   8.039  29.183  14.991
26051W        W97722  27.027  24.207  14.108
26052W        W97723  18.486   9.670  10.596
26053W        W97724  27.166  19.553  11.548
26054W        W97725  24.404  34.047   4.574
26055W        W97726  34.892  28.543   3.399
26056W        W97727  30.074   0.332  13.356
26057W        W97728  17.603  32.963   1.490
26058W        W97729  39.662   0.592  12.505
26059W        W97730  17.787   3.388  10.509
26060W        W97731  43.334   6.305  10.697
26061W        W97732  14.798   8.083   3.250
26062W        W97733  35.497  16.282   2.732
26063W        W97734  28.596   2.189   4.525
26064W        W97735  34.826   0.186  12.046
26065W        W97736   7.735   7.326   2.740
26066W        W97737  19.824  19.218   1.700
26067W        W97738  33.446  13.105  14.398
26068W        W97739  26.052  20.792   2.403
26069W        W97740   0.057  40.499   0.935
26070W        W97741  30.240  34.999   2.376
26071W        W97742   4.716   8.725   4.804
26072W        W97743   4.283   8.104  11.966
26073W        W97744  20.103  15.733  14.829
26074W        W97745  37.320  32.104   1.366
26075W        W97746  17.935  10.808  11.141
26076W        W97747   7.420  14.075   3.677
26077W        W97748  17.331   5.850   1.297
26078W        W97749  25.146   3.315  10.701
26079W        W97750  43.226  16.711   3.704
26080W        W97751  10.096  40.531  14.724
26081W        W97752  28.452  17.393  14.160
26082W        W97753  14.771  25.761   4.203
26083W        W97754   2.550   3.729  14.423
26084W        W97755  29.832  28.822  12.155
26085W        W97756  43.693  41.926  13.355
26086W        W97757   6.223   6.730  13.346
26087W        W97758  19.273  28.377  12.127
26088W        W97759  18.875  25.715  11.115
26089W        W97760  32.785  33.592  13.976
26090W        W97761  10.665  27.666   1.656
26091W        W97762   4.982   5.711  13.014
26092W        W97763  27.698  15.844  14.072
26093W        W97764  38.821   5.240   1.358
26094W        W97765  39.829  24.682   2.304
26095W        W97766  18.241   8.636  14.850
26096W        W97767  39.029  18.482   4.297
26097W        W97768  43.011  21.520  10.717
26098W        W97769  22.306  33.625   4.919
26099W        W97770   6.715  17.901   3.155
26100W        W97771  43.676  35.915   1.761
26101W        W97772  42.266  36.438   1.304
26102W        W97773  41.019  24.030  12.907
26103W        W97774  19.396  29.790   5.183
26104W        W97775  33.906   0.715  14.941
26105W        W97776  19.099  28.016   2.244
26106W        W97777  34.073  35.761   3.511
26107W        W97778   3.700  32.409   3.725
26108W        W97779  32.865  41.896   2.704
26109W        W97780  13.165   0.952  11.459
26110W        W97781  10.485   0.058   0.915
26111W        W97782  42.773  27.554   1.391
26112W        W97783  15.711   9.992  10.596
26113W        W97784   8.269  40.993   3.146
26114W        W97785  43.062  17.531   2.241
26115W        W97786  19.413  38.630  11.249
26116W        W97787   8.998  21.073   5.114
26117W        W97788  23.690   9.160   2.698
26118W        W97789  36.488  34.348   4.109
26119W        W97790  15.073  28.969   3.890
26120W        W97791  36.260  29.845   4.207
26121W        W97792  24.528  17.315   0.338
26122W        W97793   7.294  32.562   1.690
26123W        W97794   0.506  25.023   3.334
26124W        W97795  14.423   9.694  14.806
26125W        W97796  40.569  10.838  11.668
26126W        W97797  33.429   0.747   0.402
26127W        W97798   2.532  16.744   0.827
26128W        W97799  33.430  16.184   2.312
26129W        W97800  34.437   7.148   2.369
26130W        W97801   8.670  37.058  14.090
26131W        W97802  28.775   5.830  13.458
26132W        W97803   1.838  14.095   4.370
26133W        W97804  24.869   8.761  11.588
26134W        W97805  14.004  22.116   3.158
26135W        W97806  21.285   3.831  11.198
26136W        W97807   8.405  21.712  11.159
26137W        W97808  41.750  24.180  10.528
26138W        W97809  41.958   9.210  12.537
26139W        W97810  13.036  26.074   3.638
26140W        W97811  32.641  23.777   3.129
26141W        W97812  41.570  41.819  12.925
26142W        W97813  21.208  20.591   4.349
26143W        W97814  21.026  21.381  13.908
26144W        W97815  41.021   5.971   0.375
26145W        W97816   2.536  10.662  11.597
26146W        W97817  10.299  27.422  11.445
26147W        W97818  22.429  29.364  11.092
26148W        W97819  32.493  36.892   1.631
26149W        W97820  23.948  26.743  10.766
26150W        W97821   4.675  40.789  13.385
26151W        W97822  12.434   1.332   3.140
26152W        W97823  42.847  34.924   1.953
26153W        W97824  37.488   7.332   0.003
26154W        W97825  39.038  10.509   1.633
26155W        W97826  21.924   2.266   1.681
26156W        W97827  18.503   4.165   1.407
26157W        W97828  26.939  39.518   2.630
26158W        W97829  14.237  24.766   1.482
26159W        W97830  36.112  27.603   4.590
26160W        W97831   6.274  15.609  12.441
26161W        W97832  30.856  39.113   1.696
26162W        W97833  10.170  38.228  14.591
26163W        W97834  16.627  40.499   2.712
26164W        W97835   1.043  30.068  11.896
26165W        W97836  36.495  18.169  10.628
26166W        W97837  41.946  21.478  12.397
26167W        W97838  33.691  17.220   1.300
26168W        W97839  14.507  43.966  12.498
26169W        W97840   7.617  12.818  14.040
26170W        W97841  43.842  23.773   0.979
26171W        W97842  31.719  31.607  13.847
26172W        W97843   3.229  40.941   1.940
26173W        W97844  43.330  29.847   2.852
26174W        W97845  32.394  39.848  14.069
26175W        W97846  24.653  43.843   4.678
26176W        W97847  17.072  18.027  11.707
26177W        W97848  35.935  20.117  14.952
26178W        W97849   7.499  26.623  10.201
26179W        W97850  29.575  24.021   2.770
26180W        W97851  13.058  36.549  12.637
26181W        W97852  41.756  32.107  11.606
26182W        W97853   2.773  28.145   3.342
26183W        W97854  16.172  43.931   1.351
26184W        W97855   0.448   6.789   0.899
26185W        W97856   2.973  12.708  14.272
26186W        W97857  24.001  31.469   3.255
26187W        W97858  13.674  34.906  13.549
26188W        W97859  32.155   6.236   0.827
26189W        W97860  30.822   1.299  14.461
26190W        W97861  20.873  31.680   3.120
26191W        W97862  44.280  16.170   1.747
26192W        W97863  42.025  20.012  11.037
26193W        W97864  23.251  18.213  10.859
26194W        W97865   2.024  42.029   4.308
26195W        W97866   4.342  10.404   0.150
26196W        W97867  41.161   7.322   1.497
26197W        W97868  25.784   4.742  14.681
26198W        W97869  41.089  41.394  12.166
26199W        W97870  18.474  26.569  13.321
26200W        W97871  22.265  42.277   4.921
26201W        W97872  24.117   5.282  10.263
26202W        W97873   0.899  41.687   3.656
26203W        W97874  36.551  27.662   1.942
26204W        W97875  16.742   4.190  10.174
26205W        W97876   4.135  38.371   3.173
26206W        W97877  44.871   8.274  13.370
26207W        W97878  12.559  16.611   1.268
26208W        W97879  29.249   4.917  13.486
26209W        W97880  22.421  38.693   0.509
26210W        W97881   4.727  38.019  11.967
26211W        W97882  31.931  22.074   2.849
26212W        W97883   4.740   4.120  13.902
26213W        W97884  25.143  44.724   4.203
26214W        W97885  18.011  29.671   2.769
26215W        W97886  37.509  40.359   3.394
26216W        W97887  30.678  18.841   5.155
26217W        W97888  10.651  30.070  13.878
26218W        W97889  43.314  14.789   1.694
26219W        W97890  44.308  43.801   4.132
26220W        W97891  21.697  16.130   4.555
26221W        W97892  39.516  29.240  14.018
26222W        W97893  29.021  32.498  14.593
26223W        W97894  42.616  36.107  11.061
26224W        W97895  36.543  10.095  11.554
26225W        W97896  42.581  33.424  13.252
26226W        W97897  14.693  34.470   1.123
26227W        W97898  41.717  35.726   2.782
26228W        W97899  16.816  24.498   0.704
26229W        W97900  14.827   7.371  11.062
26230W        W97901   8.670  15.040  12.370
26231W        W97902  26.552   4.509   1.261
26232W        W97903  30.865  14.267   0.203
26233W        W97904  23.756  32.792   0.731
26234W        W97905  14.191   2.098  11.495
26235W        W97906  14.956  36.919  14.265
26236W        W97907  14.183   0.499   4.602
26237W        W97908  10.826  16.997   1.879
26238W        W97909  42.108  33.104   3.303
26239W        W97910  37.478  25.738  14.396
26240W        W97911  20.487   9.627  14.806
26241W        W97912  20.001  35.935  12.099
26242W        W97913   0.184  38.330  12.867
26243W        W97914  25.932  21.255  13.153
26244W        W97915  18.718  28.163  12.838
26245W        W97916  23.955  18.739  14.786
26246W        W97917  44.323  13.740   9.830
26247W        W97918  40.499  32.069   2.272
26248W        W97919  14.172  21.102   3.178
26249W        W97920   4.404   3.871  11.429
26250W        W97921  33.924  32.892   2.346
26251W        W97922  16.985   6.280  10.665
26252W        W97923  25.640   5.145   3.141
26253W        W97924  28.020   7.897  12.872
26254W        W97925  28.241   4.209   3.218
26255W        W97926  27.255  30.203   1.870
26256W        W97927   7.303  43.931  14.887
26257W        W97928  13.420  10.085   0.508
26258W        W97929  23.789  39.300  12.566
26259W        W97930  42.965   9.597  10.790
26260W        W97931  35.418   8.578   2.261
26261W        W97932  19.911  44.972   2.108
26262W        W97933  24.978  15.220  13.223
26263W        W97934  31.644  39.473  11.636
26264W        W97935   7.816  38.766  12.343
26265W        W97936  15.647  20.944  11.063
26266W        W97937  12.612   2.049  14.576
26267W        W97938  34.616  22.217   1.476
26268W        W97939  10.157  32.402  13.813
26269W        W97940   0.871  10.833   4.337
26270W        W97941  23.722  20.329   3.591
26271W        W97942  27.728  13.300  12.480
26272W        W97943  22.342  35.587   2.751
26273W        W97944   5.721  20.682   2.595
26274W        W97945  21.205  11.009  14.864
26275W        W97946  28.931  27.559   1.297
26276W        W97947  33.783  10.470  11.153
26277W        W97948   0.465  19.642  13.490
26278W        W97949  40.479   7.222   4.259
26279W        W97950   5.452  36.806   1.317
26280W        W97951   5.640  27.170  13.419
26281W        W97952  17.822  14.637   5.390
26282W        W97953  14.676   0.358  11.340
26283W        W97954  44.008  24.109   5.422
26284W        W97955  41.466  30.661   2.486
26285W        W97956  15.083   1.491  13.508
26286W        W97957  41.299   6.338   3.330
26287W        W97958  12.155  13.203  12.946
26288W        W97959  29.143  24.253  13.938
26289W        W97960   9.410  41.954  12.523
26290W        W97961  22.799  12.972   3.621
26291W        W97962  30.662  15.096  11.955
26292W        W97963  40.950   6.366  13.484
26293W        W97964  34.391  34.367  13.356
26294W        W97965  16.278  39.809   1.230
26295W        W97966  12.752  17.700  11.349
26296W        W97967  31.456  37.874  13.843
26297W        W97968   2.534  42.786   2.304
26298W        W97969  19.103  10.302   3.747
26299W        W97970  26.300  15.281   4.388
26300W        W97971  25.653  36.660  11.497
26301W        W97972   9.651  44.472  14.194
26302W        W97973  20.767  12.142  10.729
26303W        W97974   7.433   9.923  11.895
26304W        W97975  12.587  23.711   4.064
26305W        W97976  14.766  41.085  12.942
26306W        W97977  29.146  20.991  14.988
26307W        W97978  20.937  25.044   2.246
26308W        W97979   4.585  44.005  12.459
26309W        W97980   9.826  30.038  11.186
26310W        W97981  15.279  18.609  13.969
26311W        W97982  12.185  19.318  13.030
26312W        W97983   9.879  34.597   1.506
26313W        W97984  24.479  39.383  13.505
26314W        W97985  30.196  43.250  13.447
26315W        W97986  12.724  35.029  11.965
26316W        W97987   8.786  37.824   1.323
26317W        W97988   4.730  31.165  10.731
26318W        W97989  26.550  37.562  14.427
26319W        W97990  10.851   9.542  10.784
26320W        W97991  11.476  31.125  14.084
26321W        W97992  31.197   2.202  13.464
26322W        W97993  38.893  20.498   0.388
26323W        W97994   6.662   3.588  11.754
26324W        W97995   8.759  44.040  12.103
26325W        W97996  10.238  21.973   4.108
26326W        W97997  16.041   1.774  13.966
26327W        W97998  42.530  38.717  12.783
26328W        W97999  30.746  21.190   4.843
26329W        W98000  30.341   3.251  13.117
26330W        W98001  42.726  40.965   0.524
26331W        W98002  23.765  36.910   1.954
26332W        W98003  41.236   2.955  11.400
26333W        W98004  34.304  43.381   2.696
26334W        W98005   5.282   3.312   4.609
26335W        W98006  22.612  38.359   2.390
26336W        W98007  41.290  34.068   2.928
26337W        W98008  31.920  11.256   2.383
26338W        W98009  15.852  33.986   0.500
26339W        W98010   0.278  13.243  14.573
26340W        W98011  38.877   3.542  11.217
26341W        W98012  42.482  35.472   0.034
26342W        W98013  18.213  19.611  13.409
26343W        W98014  28.500  27.195   2.205
26344W        W98015  10.711  18.658   3.235
26345W        W98016   1.916  32.118   2.419
26346W        W98017   4.927  15.191  12.445
26347W        W98018   2.302  41.129   2.927
26348W        W98019   5.442  36.756   3.752
26349W        W98020  22.533  28.715   1.346
26350W        W98021  13.822   3.512  10.620
26351W        W98022  43.399   5.177  14.909
26352W        W98023  18.240  34.437  13.590
26353W        W98024  39.458   7.227   1.762
26354W        W98025  18.457  12.624  13.255
26355W        W98026  17.156   6.115  11.554
26356W        W98027   6.134   2.387  13.909
26357W        W98028  42.406  11.594  12.193
26358W        W98029  40.431  10.989   3.720
26359W        W98030  12.391   6.444   1.856
26360W        W98031  44.759   2.791   1.844
26361W        W98032  42.988  36.601  11.895
26362W        W98033  44.430  24.469  11.602
26363W        W98034  36.894  24.798  13.494
26364W        W98035  35.574  35.077   3.598
26365W        W98036  26.009   1.213  12.393
26366W        W98037   0.384  18.478   5.162
26367W        W98038  42.587   5.308   1.883
26368W        W98039  20.734  17.554  14.236
26369W        W98040  27.651  21.031   0.457
26370W        W98041  12.880  25.114   2.630
26371W        W98042  19.116   8.579  13.047
26372W        W98043  24.420  24.974   2.439
26373W        W98044  36.630  16.285   0.740
26374W        W98045  35.006  31.900  13.936
26375W        W98046  25.026   3.014  14.755
26376W        W98047  41.044  22.201  14.404
26377W        W98048  41.438  21.994  11.596
26378W        W98049  31.867  28.329   3.678
26379W        W98050  17.664  14.267   4.718
26380W        W98051  38.243   9.659   0.462
26381W        W98052  43.916  26.911  13.386
26382W        W98053   1.664  21.571  13.841
26383W        W98054  27.729  28.260   2.338
26384W        W98055  40.976   0.507  12.734
26385W        W98056  13.282   2.368   3.955
26386W        W98057  16.050  38.780  11.606
26387W        W98058  32.183  29.677   0.866
26388W        W98059  39.918  26.169   3.014
26389W        W98060  21.740  34.353  11.189
26390W        W98061  35.868  36.982   1.033
26391W        W98062  41.383  24.051  14.474
26392W        W98063  39.316  25.092  13.541
26393W        W98064  18.682  23.718  14.526
26394W        W98065   8.001  14.286   4.803
26395W        W98066  30.533  11.697   2.266
26396W        W98067   3.619  23.905  13.880
26397W        W98068   5.677  36.571   4.632
26398W        W98069  10.296  10.872   2.304
26399W        W98070  12.067  26.041  14.965
26400W        W98071  40.800   2.674  11.311
26401W        W98072  27.118   3.457  10.726
26402W        W98073   8.049   9.836  12.565
26403W        W98074  25.233  11.617  12.123
26404W        W98075  29.632  16.629  11.162
26405W        W98076   3.870  30.428  14.528
26406W        W98077   4.695   8.507  14.348
26407W        W98078  27.078   6.835  12.068
26408W        W98079  37.320   8.101   0.488
26409W        W98080  11.295  35.479  14.023
26410W        W98081  23.730  27.595  12.153
26411W        W98082   7.733  41.051  13.149
26412W        W98083   4.303  38.939   0.940
26413W        W98084   2.459  16.103  11.640
26414W        W98085  10.781  10.415  11.351
26415W        W98086   3.636  19.795  11.516
26416W        W98087   7.440  12.959   2.795
26417W        W98088  41.769  26.597  11.192
26418W        W98089  23.557  42.166   3.737
26419W        W98090   7.497  36.345  13.974
26420W        W98091  11.119  33.884   1.900
26421W        W98092  41.640   5.785   4.714
26422W        W98093  37.915  44.052  14.466
26423W        W98094  33.897   3.068  11.106
26424W        W98095  18.839  13.698  10.229
26425W        W98096  35.656  21.768   4.131
26426W        W98097  27.510   6.710   3.115
26427W        W98098   0.523  12.562   0.296
26428W        W98099  19.843  30.667   2.360
26429W        W98100  17.657   1.846   2.569
26430W        W98101   6.288  15.866  12.898
26431W        W98102  36.399  19.714   1.154
26432W        W98103  40.123   6.636   1.594
26433W        W98104  22.827   5.474  11.531
26434W        W98105  35.669  12.279   4.071
26435W        W98106  17.649  12.796   0.970
26436W        W98107   3.459  44.020   2.112
26437W        W98108  25.895  15.715  14.445
26438W        W98109  43.653  24.346   5.137
26439W        W98110  30.633  17.104  14.432
26440W        W98111  15.351  17.210  11.541
26441W        W98112  31.486   0.228   1.243
26442W        W98113  28.397  20.080   4.825
26443W        W98114  31.530  40.491  10.771
26444W        W98115  27.372   5.240   0.800
26445W        W98116  42.955  41.296  11.621
26446W        W98117  20.561  44.395  14.317
26447W        W98118  15.591  13.096   0.360
26448W        W98119  12.690   9.416   2.206
26449W        W98120   5.115  22.606  10.655
26450W        W98121  42.967  26.979  12.903
26451W        W98122  34.191  38.529   4.206
26452W        W98123  19.788  17.207   0.128
26453W        W98124   0.001  35.454  12.591
26454W        W98125   7.035  36.948  12.390
26455W        W98126  41.026  37.938  12.415
26456W        W98127   8.845  31.188   4.138
26457W        W98128  36.451  21.462  10.627
26458W        W98129  13.733  43.743  13.066
26459W        W98130  36.878   7.210  13.881
26460W        W98131  19.077  37.287   1.656
26461W        W98132  30.093  20.560   0.430
26462W        W98133  35.757  40.665   4.212
26463W        W98134  20.128   1.075  14.805
26464W        W98135  40.379   3.418   2.364
26465W        W98136  33.537   0.647   9.860
26466W        W98137  32.611  35.943  12.834
26467W        W98138  17.855  30.951  13.831
26468W        W98139  37.267  16.374  10.787
26469W        W98140  25.416  15.245   0.291
26470W        W98141  27.470  11.816  10.312
26471W        W98142  14.804  29.544   2.129
26472W        W98143  29.754  31.833  11.539
26473W        W98144  13.202   3.062   1.338
26474W        W98145  26.092  12.881   1.466
26475W        W98146  37.140  36.338  13.307
26476W        W98147  28.182   1.903  14.800
26477W        W98148   0.900  36.576  13.556
26478W        W98149  36.046   8.418  11.562
26479W        W98150  37.903  25.663   0.335
26480W        W98151   5.382  13.346  13.490
26481W        W98152  43.004  16.681  13.776
26482W        W98153  40.117  24.208  12.562
26483W        W98154  18.105  25.145  12.627
26484W        W98155  42.759  19.165   2.651
26485W        W98156  20.544   5.287   2.340
26486W        W98157  14.310  24.779   3.583
26487W        W98158  25.425  33.907   3.701
26488W        W98159   4.925   5.690   4.735
26489W        W98160  22.634  13.612  11.678
26490W        W98161  29.352   4.625  11.087
26491W        W98162   7.997   7.446   0.708
26492W        W98163  22.006  21.180   0.817
26493W        W98164   5.633  18.199  14.084
26494W        W98165   2.300  22.029  12.169
26495W        W98166  18.878  21.624   0.794
26496W        W98167  32.161  32.390   2.993
26497W        W98168  37.514  38.371  10.700
26498W        W98169  41.923  39.869   0.414
26499W        W98170  34.293  29.167  11.309
26500W        W98171  10.825   6.631   2.383
26501W        W98172  44.698  14.828  12.436
26502W        W98173  38.169  16.685  11.509
26503W        W98174  11.054  37.504   3.664
26504W        W98175  38.483  41.567  11.947
26505W        W98176  25.075  31.528  14.453
26506W        W98177  21.142   1.003  13.752
26507W        W98178  22.787   6.720  12.675
26508W        W98179  29.391  35.316   3.258
26509W        W98180  10.746  18.547  10.398
26510W        W98181  38.467   6.683   4.817
26511W        W98182  37.173  12.511  14.483
26512W        W98183  23.078  19.674   0.858
26513W        W98184  11.372  24.196   1.289
26514W        W98185  42.444  18.773  13.322
26515W        W98186  18.891   9.390  11.775
26516W        W98187  36.077  36.027  10.665
26517W        W98188   0.881  40.091   1.674
26518W        W98189  42.009  40.292   3.739
26519W        W98190  17.696  40.925  11.200
26520W        W98191  34.886  40.329  13.353
26521W        W98192  21.902   4.709  14.774
26522W        W98193  14.749  27.092   0.730
26523W        W98194  12.660  41.751  14.477
26524W        W98195  24.219   3.649  11.931
26525W        W98196  39.445  15.083   4.705
26526W        W98197  39.011  26.569  10.518
26527W        W98198   2.929   0.411  13.961
26528W        W98199  20.989   1.504   4.149
26529W        W98200  30.001   5.863   2.284
26530W        W98201  30.085  20.368  13.934
26531W        W98202  35.666  17.794  11.034
26532W        W98203  17.356  16.583   0.355
26533W        W98204   6.238  10.354   3.569
26534W        W98205  20.527  27.204  12.484
26535W        W98206  34.358  14.717   1.286
26536W        W98207  41.506  18.574  14.282
26537W        W98208  35.868  23.133   0.547
26538W        W98209  26.010   0.235   2.327
26539W        W98210   1.382  28.013   0.898
26540W        W98211  40.006   8.620   2.729
26541W        W98212  14.768  26.507  11.895
26542W        W98213  41.059   9.805   1.048
26543W        W98214   8.187  42.900  10.285
26544W        W98215  39.088   5.478   0.356
26545W        W98216   5.346   8.890  10.344
26546W        W98217  37.844  11.856  12.436
26547W        W98218  29.452  10.288   3.673
26548W        W98219   3.033  27.504  13.398
26549W        W98220   5.617  17.592   0.580
26550W        W98221  36.871  42.295   2.169
26551W        W98222  20.264   7.964   2.949
26552W        W98223  31.824  31.283   1.268
26553W        W98224  26.717  40.491   3.231
26554W        W98225  14.688  25.725  14.214
26555W        W98226  11.060  27.017  11.982
26556W        W98227   3.695  31.999   0.289
26557W        W98228   2.186  22.294   1.694
26558W        W98229  17.270  18.138   4.862
26559W        W98230  10.339  14.294   3.203
26560W        W98231  13.747  30.949   2.710
26561W        W98232  20.224  42.921   3.662
26562W        W98233  44.417  21.149   9.959
26563W        W98234  43.687  31.280   1.378
26564W        W98235  34.659  44.588  14.298
26565W        W98236   0.414   0.565   0.934
26566W        W98237  22.212  27.614  14.031
26567W        W98238  26.615  22.728  13.508
26568W        W98239  26.285  28.047  13.478
26569W        W98240  30.737  32.461  14.976
26570W        W98241  24.438  24.537  12.143
26571W        W98242  23.078   6.736  14.818
26572W        W98243  10.626   1.426   1.044
26573W        W98244  26.934  40.445   3.782
26574W        W98245  26.553  14.138  13.565
26575W        W98246  14.443   7.982  13.363
26576W        W98247  27.975  32.243   2.912
26577W        W98248  42.743  38.798   2.020
26578W        W98249  42.021  26.278  13.469
26579W        W98250  28.994  41.915   2.223
26580W        W98251  11.093  29.065   4.258
26581W        W98252   1.733   8.342  14.790
26582W        W98253  10.369  35.269  13.939
26583W        W98254  28.962  24.489   2.398
26584W        W98255  23.103  44.567  14.679
26585W        W98256  23.045  26.727  12.526
26586W        W98257  38.932  33.233   3.677
26587W        W98258  20.059  40.420   4.038
26588W        W98259  24.567  21.804  11.049
26589W        W98260  11.789  38.369  12.864
26590W        W98261   4.971  33.609   0.644
26591W        W98262   2.719  27.498   3.909
26592W        W98263  42.209   6.167   4.216
26593W        W98264  41.351  38.508  11.699
26594W        W98265   0.464  22.532   4.491
26595W        W98266   7.892  32.909   1.685
26596W        W98267  16.705   0.015   4.477
26597W        W98268  40.845  10.495  12.542
26598W        W98269   6.214  36.183  14.443
26599W        W98270  24.646  23.869   4.886
26600W        W98271  18.886  38.040  13.022
26601W        W98272  17.709  22.733  14.019
26602W        W98273  31.139  12.646  11.630
26603W        W98274   4.963   1.616  10.818
26604W        W98275   6.116  12.644  14.950
26605W        W98276  25.096   7.871  11.919
26606W        W98277  34.924  10.785   2.680
26607W        W98278  13.341  34.396   1.768
26608W        W98279  11.221  16.885   3.307
26609W        W98280   9.423  29.148  11.460
26610W        W98281  30.200  31.589   4.138
26611W        W98282  42.631  16.262   1.650
26612W        W98283  15.463  38.884   4.199
26613W        W98284   4.416  43.430   2.247
26614W        W98285  41.990   3.245   0.586
26615W        W98286  19.165  42.967   4.650
26616W        W98287  39.782  15.155  12.678
26617W        W98288  41.957   4.402  11.218
26618W        W98289   4.231  28.949   4.125
26619W        W98290  14.840  44.789  10.623
26620W        W98291  43.834  18.933  12.920
26621W        W98292   8.252  44.230  12.085
26622W        W98293   4.471  11.473   1.437
26623W        W98294  18.740  18.990   2.234
26624W        W98295  25.973  44.324  11.444
26625W        W98296  17.104  38.380  14.920
26626W        W98297   8.717   3.727  10.971
26627W        W98298  33.815   7.788  10.798
26628W        W98299  42.870   3.374   1.030
26629W        W98300  33.000   2.763  11.945
26630W        W98301   0.892  33.179   1.160
26631W        W98302  40.899  31.965  12.110
26632W        W98303  14.377  40.051   1.140
26633W        W98304   8.592  10.700  14.477
26634W        W98305  30.582  28.590   0.751
26635W        W98306  22.753  42.041  11.624
26636W        W98307  43.620  28.545   2.741
26637W        W98308  23.307   4.926   3.107
26638W        W98309  33.366   0.628   3.764
26639W        W98310   7.812   4.797   3.260
26640W        W98311   7.775   4.041  12.759
26641W        W98312  27.252  20.708   0.334
26642W        W98313  35.096  13.695   2.322
26643W        W98314  17.502  40.945   3.582
26644W        W98315  16.236   4.259  10.178
26645W        W98316   4.471   8.355   0.206
26646W        W98317  14.946  26.501  10.575
26647W        W98318  19.566   7.373  11.835
26648W        W98319   0.521   6.279  12.972
26649W        W98320   7.645  38.477   0.864
26650W        W98321  21.518  30.619   4.859
26651W        W98322  44.812  27.944   2.679
26652W        W98323  10.616  33.404  13.001
26653W        W98324  34.679  41.584  13.015
26654W        W98325  41.204  38.595  14.587
26655W        W98326   1.088   6.159   3.354
26656W        W98327  13.593   5.936   0.765
26657W        W98328   8.266  17.139  11.953
26658W        W98329  44.203  29.863   0.284
26659W        W98330  10.718  28.932   0.592
26660W        W98331  28.082  40.310   3.991
26661W        W98332  24.914   3.862  11.284
26662W        W98333  39.090   3.945   3.093
26663W        W98334   2.213  42.735  10.724
26664W        W98335  15.806  20.610  13.418
26665W        W98336  32.087  10.613  13.312
26666W        W98337  21.509   3.959   1.123
26667W        W98338  24.278  40.796  14.071
26668W        W98339   7.412  19.566   0.949
26669W        W98340  36.366  22.496  10.425
26670W        W98341  28.561  35.695   2.367
26671W        W98342  33.814  14.057   4.972
26672W        W98343  12.204  25.015  11.936
26673W        W98344  22.697  16.413   2.972
26674W        W98345  43.552  43.906   3.746
26675W        W98346  22.590   7.144  12.079
26676W        W98347  21.309  34.670  11.236
26677W        W98348   4.814   8.638   1.292
26678W        W98349  41.311  43.540   2.753
26679W        W98350  24.154  30.165   1.354
26680W        W98351  24.491  20.731   4.216
26681W        W98352  10.801  14.372   2.890
26682W        W98353  33.066  28.992  13.557
26683W        W98354  18.872   5.227  14.791
26684W        W98355  41.280   3.456   4.068
26685W        W98356  32.674  40.330  11.624
26686W        W98357  40.446  18.253   4.145
26687W        W98358  11.161   8.828   3.575
26688W        W98359   2.011   0.418   2.716
26689W        W98360  17.673  34.492   3.847
26690W        W98361  27.166   0.446   2.955
26691W        W98362  19.161  30.832   0.286
26692W        W98363  30.190  10.293  14.467
26693W        W98364  41.640  39.573   4.191
26694W        W98365   1.780   0.306   0.315
26695W        W98366  11.914  12.664  12.494
26696W        W98367  34.206  44.865   0.715
26697W        W98368   1.020  27.526  12.072
26698W        W98369  19.730   9.799   0.803
26699W        W98370  26.225  27.176   3.197
26700W        W98371  26.665  27.077  14.601
26701W        W98372  20.852   9.651  11.064
26702W        W98373  41.865  37.015   4.583
26703W        W98374  22.645  39.389   0.003
26704W        W98375  16.684  31.003   4.542
26705W        W98376  43.868   7.890   3.575
26706W        W98377  20.033  37.631  13.056
26707W        W98378  38.260   6.914   3.110
26708W        W98379  28.448   6.952  12.884
26709W        W98380   6.857   0.821  12.445
26710W        W98381  28.862  43.131  12.042
26711W        W98382  16.872  15.608   3.818
26712W        W98383  39.489  39.441   1.782
26713W        W98384  34.525  36.766   4.046
26714W        W98385  26.729   0.196   1.980
26715W        W98386  15.112  29.921   3.908
26716W        W98387  26.655  33.929  11.709
26717W        W98388  28.513  32.920   2.782
26718W        W98389  25.428  28.184  11.950
26719W        W98390  43.510  15.739  13.839
26720W        W98391  29.124   0.408  14.054
26721W        W98392  19.169  30.165   0.963
26722W        W98393  31.208   9.165   3.644
26723W        W98394  38.570  18.330   1.897
26724W        W98395  10.582  22.738   1.367
26725W        W98396  24.920  31.035   3.216
26726W        W98397   2.176  24.266  14.392
26727W        W98398  20.642  15.047   0.799
26728W        W98399  31.415  38.438  12.013
26729W        W98400  15.613  12.639  13.539
26730W        W98401   8.069   5.875  11.375
26731W        W98402  21.426  31.744  11.535
26732W        W98403   0.818  36.942  12.559
26733W        W98404  26.026  20.269   0.715
26734W        W98405  36.943  31.992   3.371
26735W        W98406  37.127  28.609   3.206
26736W        W98407  43.904   5.930   2.257
26737W        W98408  40.548  40.219  11.990
26738W        W98409  34.414  31.631   3.717
26739W        W98410  24.908   8.328  11.855
26740W        W98411  20.542  19.553  14.103
26741W        W98412   1.503   5.134  13.741
26742W        W98413  23.679  21.098   1.651
26743W        W98414  24.784  42.834  13.691
26744W        W98415  29.993  31.056  10.416
26745W        W98416   3.904   0.895  11.444
26746W        W98417  23.463  29.799   1.780
26747W        W98418  20.267   7.469   3.757
26748W        W98419  11.636  21.762   2.139
26749W        W98420  12.167   3.555  14.230
26750W        W98421  12.704   6.112  10.611
26751W        W98422   9.965  19.589   5.195
26752W        W98423  22.982  22.842   2.235
26753W        W98424  43.701  43.237  11.892
26754W        W98425  36.595  43.278   1.389
26755W        W98426  31.943  41.482  14.434
26756W        W98427  12.306  35.907  14.499
26757W        W98428  33.708   2.961  13.043
26758W        W98429  27.997   6.834  10.681
26759W        W98430  32.401  20.283   4.633
26760W        W98431  38.312  41.524   4.689
26761W        W98432   6.999  39.024  11.117
26762W        W98433  37.257  39.483  13.331
26763W        W98434  34.082  22.541   3.770
26764W        W98435  27.456  27.128   4.889
26765W        W98436  42.373  15.505  10.596
26766W        W98437  12.347  33.510  10.621
26767W        W98438  10.876  32.695  11.098
26768W        W98439  39.925  44.232  12.087
26769W        W98440  10.422  22.627  14.437
26770W        W98441  39.017   1.545  14.976
26771W        W98442  28.564  28.730  11.648
26772W        W98443  41.891  21.501   1.531
26773W        W98444  34.523  14.615  13.627
26774W        W98445  34.086  12.182   2.194
26775W        W98446   3.328  40.503  10.881
26776W        W98447  42.160   7.841   2.316
26777W        W98448   1.180  16.761  11.064
26778W        W98449  24.474  12.596   4.579
26779W        W98450  39.851   1.366  11.199
26780W        W98451  40.873  33.846  14.413
26781W        W98452  43.807  28.132  12.340
26782W        W98453  16.530  13.145   3.228
26783W        W98454  35.695   9.181  12.969
26784W        W98455  31.643   3.873  12.437
26785W        W98456   3.634  27.158  12.031
26786W        W98457   0.339   3.200  10.534
26787W        W98458  33.081  13.812   3.368
26788W        W98459  33.397   0.811   4.243
26789W        W98460  38.396  18.673   4.204
26790W        W98461  28.763   8.703  12.532
26791W        W98462  17.032   8.828   2.898
26792W        W98463   8.351  24.054   0.471
26793W        W98464  14.327  42.996   3.734
26794W        W98465  19.577  18.050   1.239
26795W        W98466   4.985  17.744  12.461
26796W        W98467   4.346   9.498   4.111
26797W        W98468  42.947  32.484   0.967
26798W        W98469  35.887  43.916  11.170
26799W        W98470   9.880   2.275   3.138
26800W        W98471   4.078  14.280   4.503
26801W        W98472  34.730   6.764  12.061
26802W        W98473   9.318  13.365  11.917
26803W        W98474  38.448  19.763  14.345
26804W        W98475  40.372  29.092  10.642
26805W        W98476  22.210  42.921   1.661
26806W        W98477   2.213   2.631   0.585
26807W        W98478  33.558   0.348   1.267
26808W        W98479  11.940  41.092   0.886
26809W        W98480  23.717  29.456   1.439
26810W        W98481   4.894  38.354  13.436
26811W        W98482  14.812  37.324   3.270
26812W        W98483   7.882  31.885   0.865
26813W        W98484  28.966  18.139  13.070
26814W        W98485   3.441   2.949   2.322
26815W        W98486  21.469  25.012  14.803
26816W        W98487  36.641  20.983   2.233
26817W        W98488  37.106  11.849   4.174
26818W        W98489  30.907   3.330   1.384
26819W        W98490   6.854  28.969   2.851
26820W        W98491  17.628  24.703   2.151
26821W        W98492   2.353  26.544   4.267
26822W        W98493  23.074  29.466   0.536
26823W        W98494  11.376  38.371  13.613
26824W        W98495  11.339   0.722  11.593
26825W        W98496  40.678   9.560   4.212
26826W        W98497  28.073  12.747   2.545
26827W        W98498   1.064  32.015   2.191
26828W        W98499  22.320  28.103  11.529
26829W        W98500  17.639  36.628  10.588
26830W        W98501  29.908  24.095   0.988
26831W        W98502  24.466   4.430   1.398
26832W        W98503  13.188  13.868   1.712
26833W        W98504  34.524  40.836   2.887
26834W        W98505  41.983   5.390   4.860
26835W        W98506   8.287  15.390   4.070
26836W        W98507   1.307  26.435   3.278
26837W        W98508  15.101  16.142  11.512
26838W        W98509  18.490  12.094  10.962
26839W        W98510  22.733   5.866  14.960
26840W        W98511   2.904  18.446   1.707
26841W        W98512  31.217  33.035  14.763
26842W        W98513  35.826  10.992  13.857
26843W        W98514  15.700  18.678  12.563
26844W        W98515  13.388  33.710   5.117
26845W        W98516  34.337  27.777   3.133
26846W        W98517  30.501  22.942   1.367
26847W        W98518  26.033  27.564  12.794
26848W        W98519  30.492   1.760   2.815
26849W        W98520  39.835  42.807   0.818
26850W        W98521  42.324   3.491  11.172
26851W        W98522  26.744  18.617  11.155
26852W        W98523   5.993  22.701   3.619
26853W        W98524  28.336  19.296   2.242
26854W        W98525  34.224   5.455  13.799
26855W        W98526  15.064   7.089   0.790
26856W        W98527  26.987  38.773  13.875
26857W        W98528  37.698  23.657   4.037
26858W        W98529  35.165  36.195  13.731
26859W        W98530  24.547  22.145  14.977
26860W        W98531   4.986  27.019   4.064
26861W        W98532   1.203  17.183  13.407
26862W        W98533   5.715  19.307   3.084
26863W        W98534   1.470   4.850  12.866
26864W        W98535   0.545  21.990  12.026
26865W        W98536  38.881  41.923   2.113
26866W        W98537  18.492  24.979   1.890
26867W        W98538  34.431  43.219   3.176
26868W        W98539   4.341  36.830   0.767
26869W        W98540  36.419   6.005  11.032
26870W        W98541  21.179  19.560  12.360
26871W        W98542  30.164  34.575   0.706
26872W        W98543  21.727  37.959  10.811
26873W        W98544  29.428  28.103  12.620
26874W        W98545   0.232  14.171  14.511
26875W        W98546   2.762  22.647   1.028
26876W        W98547  23.130  19.693  10.607
26877W        W98548  44.393  25.672   1.356
26878W        W98549   8.672  28.473   4.634
26879W        W98550   2.274   6.901   1.952
26880W        W98551  18.028  15.861  12.952
26881W        W98552  35.651  31.868   3.216
26882W        W98553  19.227  34.050   1.127
26883W        W98554  43.861   0.293  14.374
26884W        W98555  13.614  29.344   2.128
26885W        W98556   1.709  27.585  14.261
26886W        W98557   6.299  32.440  14.225
26887W        W98558   0.783   8.759  10.508
26888W        W98559   5.483   4.801  11.396
26889W        W98560  30.112   7.331   1.066
26890W        W98561  44.542   2.725  13.383
26891W        W98562  16.342  22.802   3.565
26892W        W98563  31.132  14.178  13.347
26893W        W98564  19.150  14.757   4.155
26894W        W98565   5.118   3.719   2.453
26895W        W98566  34.041  34.565  14.827
26896W        W98567  23.581  15.017   4.576
26897W        W98568   6.639  30.054  12.490
26898W        W98569  16.644   8.916  12.956
26899W        W98570  43.711   0.498   1.194
26900W        W98571  23.755  44.392  11.425
26901W        W98572  22.172  41.788  10.217
26902W        W98573   0.656  21.178  10.736
26903W        W98574  19.393  40.977  11.635
26904W        W98575  34.823  42.470  10.581
26905W        W98576  12.404  11.763   4.979
26906W        W98577  12.430  13.563   4.142
26907W        W98578   7.402   1.401  14.341
26908W        W98579  26.423  27.208   1.954
26909W        W98580  44.083  31.864   3.245
26910W        W98581  30.518  15.781  14.927
26911W        W98582  27.595   7.429  12.538
26912W        W98583  29.132   0.430  13.506
26913W        W98584  14.790  25.692  14.742
26914W        W98585  42.920  29.051  14.105
26915W        W98586   2.543   2.478   1.471
26916W        W98587   1.857   6.424   4.165
26917W        W98588  39.936  37.952  13.739
26918W        W98589  41.452  25.075   3.250
26919W        W98590  21.131  40.621  12.024
26920W        W98591  33.308   1.497  13.100
26921W        W98592   0.355  24.251   4.124
26922W        W98593  36.615  18.505  14.331
26923W        W98594  26.449   8.224   0.488
26924W        W98595  43.384   4.691   2.213
26925W        W98596  31.875  32.438  11.206
26926W        W98597   4.365  39.655  11.717
26927W        W98598  17.663  11.797  11.088
26928W        W98599  27.029  20.703  10.793
26929W        W98600  21.364  40.784   1.497
26930W        W98601  30.198   1.256  10.598
26931W        W98602  16.632  35.184   2.391
26932W        W98603  25.255  32.008  13.824
26933W        W98604  41.182  40.920   9.785
26934W        W98605  23.465   8.881  12.276
26935W        W98606   5.032   2.859   0.003
26936W        W98607  16.349  28.046   4.669
26937W        W98608  44.696  37.380  11.932
26938W        W98609  33.915  17.360   2.666
26939W        W98610  22.721   9.294  11.064
26940W        W98611  38.868  11.021   4.555
26941W        W98612  43.017  12.684   0.379
26942W        W98613  10.794  23.115   3.162
26943W        W98614  33.585   4.364  12.186
26944W        W98615  36.595  15.165   1.776
26945W        W98616  32.719  37.057   2.301
26946W        W98617  11.635  31.554  14.946
26947W        W98618  10.277  23.719  10.422
26948W        W98619  25.733  20.159   4.649
26949W        W98620  40.521  41.326  13.952
26950W        W98621   1.929   6.177  12.770
26951W        W98622  19.121   5.485  13.315
26952W        W98623   1.130   9.746   3.538
26953W        W98624  31.388   7.294   4.158
26954W        W98625  44.239   6.586   1.251
26955W        W98626  38.903  31.626  12.550
26956W        W98627  22.322   0.840   0.654
26957W        W98628   4.254  24.742  10.612
26958W        W98629  24.578  32.790  14.628
26959W        W98630  27.122   7.869   0.944
26960W        W98631  14.211   2.549   4.104
26961W        W98632  36.540  15.379   4.950
26962W        W98633  42.948  20.489  10.646
26963W        W98634  27.236  37.930  13.404
26964W        W98635  27.404   9.864   4.648
26965W        W98636  35.111  14.422   4.618
26966W        W98637  18.018  18.119   1.236
26967W        W98638  30.607  19.077  12.343
26968W        W98639  14.370  20.235   0.670
26969W        W98640   5.431  14.403   2.077
26970W        W98641  43.825  21.362   3.889
26971W        W98642  42.341  32.472  13.011
26972W        W98643  42.243   3.966  13.002
26973W        W98644   4.736   2.858   1.564
26974W        W98645  17.125   6.309   0.642
26975W        W98646  38.891  40.501  14.190
26976W        W98647  31.345  34.655   1.311
26977W        W98648  18.642  38.716  11.283
26978W        W98649  15.007  26.195   4.874
26979W        W98650  29.693  20.218   1.328
26980W        W98651  37.510  30.943  10.810
26981W        W98652  41.246  40.928   1.312
26982W        W98653  34.360   5.768  13.383
26983W        W98654   9.743  39.000   3.690
26984W        W98655  40.630  43.304   0.485
26985W        W98656  42.280  34.596   2.352
26986W        W98657   7.703  12.926  14.705
26987W        W98658   4.444  13.581  14.877
26988W        W98659  38.881  36.059   2.460
26989W        W98660  21.299  21.083   4.209
26990W        W98661   8.748  36.304   1.192
26991W        W98662   3.566  33.767   2.977
26992W        W98663  34.175   1.660  13.083
26993W        W98664  43.299   8.253   1.362
26994W        W98665  26.518  18.042   3.220
26995W        W98666   5.222  31.724   3.484
26996W        W98667  29.159  26.954  14.897
26997W        W98668  12.811  33.559  10.893
26998W        W98669  27.590  15.572   4.196
26999W        W98670  29.144  23.722   0.931
27000W        W98671  37.578  15.648   4.249
27001W        W98672  10.582   3.298  12.678
27002W        W98673  28.009  15.686  11.452
27003W        W98674  42.881  35.303   3.307
27004W        W98675   6.536  30.667  13.979
27005W        W98676  10.282  12.563   4.564
27006W        W98677   0.734   7.655   3.750
27007W        W98678   3.352  19.639  14.576
27008W        W98679  12.605  44.904  13.561
27009W        W98680   0.369  30.566   4.654
27010W        W98681  29.454   2.729  11.617
27011W        W98682  26.392  36.166   4.080
27012W        W98683  10.656  13.553  12.868
27013W        W98684  16.602   8.119  14.839
27014W        W98685  35.908  18.153  14.844
27015W        W98686  14.738  23.515   0.987
27016W        W98687  40.909  15.015   2.656
27017W        W98688  32.434  28.642  10.785
27018W        W98689  27.997   4.751   1.485
27019W        W98690  20.091   7.853  11.538
27020W        W98691   9.908   8.618  11.184
27021W        W98692   4.856   1.759   1.490
27022W        W98693  22.858  21.481   3.647
27023W        W98694  39.809   9.068  10.644
27024W        W98695   8.744   3.448  13.342
27025W        W98696   1.816   2.919  13.047
27026W        W98697  12.362   7.664   0.849
27027W        W98698  31.747  18.937  12.962
27028W        W98699  15.555   0.495   1.947
27029W        W98700  17.314  31.346  14.494
27030W        W98701  24.495  24.518   2.735
27031W        W98702  28.509  23.333   3.974
27032W        W98703  20.786   9.177  12.551
27033W        W98704  37.674  16.808  14.392
27034W        W98705  31.692  24.739  11.340
27035W        W98706   9.216  31.873   0.338
27036W        W98707  11.641  41.286   3.631
27037W        W98708  44.713   5.585  14.416
27038W        W98709  28.083  10.422   4.141
27039W        W98710  15.795  27.207  14.819
27040W        W98711  26.919  26.188  10.784
27041W        W98712  31.926  16.990   2.679
27042W        W98713  28.392  10.147  12.047
27043W        W98714  27.204  19.121   3.808
27044W        W98715  42.892  42.443  11.916
27045W        W98716  19.888  19.182   3.920
27046W        W98717   6.783  43.811  10.863
27047W        W98718   6.767  35.583   0.219
27048W        W98719  19.193  33.056   1.558
27049W        W98720  24.936   8.459  14.237
27050W        W98721  34.776  42.918   4.811
27051W        W98722   3.966  27.663  13.825
27052W        W98723  42.856  16.798  11.533
27053W        W98724  16.041  32.468   4.861
27054W        W98725   4.635  19.606  11.446
27055W        W98726   2.972  35.352   4.148
27056W        W98727   8.850  23.754   1.685
27057W        W98728  33.750  42.602  11.497
27058W        W98729  35.793   0.963  12.954
27059W        W98730   3.499  43.469   0.547
27060W        W98731  34.851  37.581  13.711
27061W        W98732  30.600  44.805   2.843
27062W        W98733  44.060  18.117   0.376
27063W        W98734   0.236   4.947   2.768
27064W        W98735   7.703  38.075   3.669
27065W        W98736  36.142  15.353  11.517
27066W        W98737  10.301  30.012   1.452
27067W        W98738  10.421  27.474  12.503
27068W        W98739  26.102  11.249   3.955
27069W        W98740  24.029  23.550   4.031
27070W        W98741  39.796  35.376  13.473
27071W        W98742  36.671  10.786   0.039
27072W        W98743   1.137  22.266   2.338
27073W        W98744  34.958  33.520   0.000
27074W        W98745  42.713  29.453  13.843
27075W        W98746  29.229  35.508   2.791
27076W        W98747  25.466  42.316   2.801
27077W        W98748   7.834  21.144   2.353
27078W        W98749  18.214   9.253  10.447
27079W        W98750   6.615  26.018   3.028
27080W        W98751  33.601  27.457   3.774
27081W        W98752   0.883  30.655   0.648
27082W        W98753  43.766   0.810  11.490
27083W        W98754   6.820  41.306   4.676
27084W        W98755   5.898  25.053   1.064
27085W        W98756  30.111  42.808  11.340
27086W        W98757  25.245  23.101   4.307
27087W        W98758  28.199  29.124  12.141
27088W        W98759   7.518  37.420  13.171
27089W        W98760  24.731   8.315   3.605
27090W        W98761  43.552  23.768   4.573
27091W        W98762  26.750  17.398  14.937
27092W        W98763  31.170  11.436  11.260
27093W        W98764  34.767   6.100   3.884
27094W        W98765  37.978  24.545   2.116
27095W        W98766   5.997  23.960   2.713
27096W        W98767  11.255  25.034   1.923
27097W        W98768  25.057   6.244   4.797
27098W        W98769  24.647   7.115  12.646
27099W        W98770  36.465  32.531   2.219
27100W        W98771   1.699   0.363  14.467
27101W        W98772  22.293   3.853  10.963
27102W        W98773  43.780  10.762   0.954
27103W        W98774  15.376  27.064  12.507
27104W        W98775   0.936   5.976   0.298
27105W        W98776  11.518  44.241  13.943
27106W        W98777  16.206  39.495  11.068
27107W        W98778  42.568  43.039   2.355
27108W        W98779   7.608   5.602  11.267
27109W        W98780  44.754   1.767  14.056
27110W        W98781  44.515  39.812   0.410
27111W        W98782  43.367  27.105   3.393
27112W        W98783  42.399  15.496   4.654
27113W        W98784  24.455  40.526   2.617
27114W        W98785  41.269  43.054  12.194
27115W        W98786   5.342  36.412  13.425
27116W        W98787   6.821   3.465  13.786
27117W        W98788  10.747  36.359  12.453
27118W        W98789  15.162  19.170   1.347
27119W        W98790  10.861  33.433   1.843
27120W        W98791  16.943  43.181   3.190
27121W        W98792  14.622   6.907   3.663
27122W        W98793  37.140   9.646   1.698
27123W        W98794  36.405  22.064   0.910
27124W        W98795  36.650   3.741  14.025
27125W        W98796  29.638   2.357  13.476
27126W        W98797   9.655  36.050   4.373
27127W        W98798  36.947  37.597  10.589
27128W        W98799  30.841  33.308  14.553
27129W        W98800   7.724  24.658   4.342
27130W        W98801  37.438  21.130   2.425
27131W        W98802  23.924  24.809  14.639
27132W        W98803   9.692  41.423   3.732
27133W        W98804   6.482  24.682  12.050
27134W        W98805  29.009  28.602   3.669
27135W        W98806  12.699  22.851  11.008
27136W        W98807   6.902  27.606   2.478
27137W        W98808  44.983  23.857   2.244
27138W        W98809  18.867  12.319   4.544
27139W        W98810  32.614  37.604   4.921
27140W        W98811  20.333  42.524  13.000
27141W        W98812  39.720  34.526  13.459
27142W        W98813  13.476   0.765  12.835
27143W        W98814   2.014   4.331   0.313
27144W        W98815   1.979   5.317  11.648
27145W        W98816  25.175  44.791   1.321
27146W        W98817  33.586  43.199   0.760
27147W        W98818  25.429  39.072   2.388
27148W        W98819  14.316  29.874   4.537
27149W        W98820   2.144  27.541   3.746
27150W        W98821  10.703   8.548   1.154
27151W        W98822  10.710  34.365  11.400
27152W        W98823  22.458  29.067   0.799
27153W        W98824  36.497  29.687   3.743
27154W        W98825  40.565  11.998  12.123
27155W        W98826  14.433  37.915  12.814
27156W        W98827  17.233  11.342  12.005
27157W        W98828  36.376  36.940   1.227
27158W        W98829  32.820  19.288   3.238
27159W        W98830  16.288  31.456  14.894
27160W        W98831  37.059  18.835   3.241
27161W        W98832  33.687  17.577  11.743
27162W        W98833  32.449  18.777  10.748
27163W        W98834   0.459  37.988  13.346
27164W        W98835  30.025   7.140   2.269
27165W        W98836   7.896  22.528   2.814
27166W        W98837  11.221   3.427   1.936
27167W        W98838  28.164  43.102  14.918
27168W        W98839  23.561  19.355   3.701
27169W        W98840   6.992  39.814   1.697
27170W        W98841  11.786  17.353  14.332
27171W        W98842  44.521  17.668   0.744
27172W        W98843  27.308  44.362  14.858
27173W        W98844  28.831  16.596   4.940
27174W        W98845  15.084  34.001   1.687
27175W        W98846  32.847  11.112  13.466
27176W        W98847  22.684  41.460   2.256
27177W        W98848  24.505  26.583  13.335
27178W        W98849  19.363  34.177   0.163
27179W        W98850   8.735  28.425   4.130
27180W        W98851  33.154   9.908   3.882
27181W        W98852  34.169  32.510   0.454
27182W        W98853  22.641  37.491   0.525
27183W        W98854  26.198   4.834  13.513
27184W        W98855  36.763   2.930  13.035
27185W        W98856   6.660  40.817   1.688
27186W        W98857  25.269   9.170  14.089
27187W        W98858  13.796  29.002  12.419
27188W        W98859  17.899  32.597   3.389
27189W        W98860  32.171   3.061   3.134
27190W        W98861  25.788   0.852   0.303
27191W        W98862  38.093  31.654   1.454
27192W        W98863  36.432   6.115  10.403
27193W        W98864   2.511  10.312   0.777
27194W        W98865  20.283  40.089  10.165
27195W        W98866  41.061  32.425  14.322
27196W        W98867  42.551  40.356   3.612
27197W        W98868  30.249  34.119   2.313
27198W        W98869  42.656  23.003   3.712
27199W        W98870  36.555  21.961  11.609
27200W        W98871  24.188  32.919   3.031
27201W        W98872  15.672  22.998   1.199
27202W        W98873   7.450  24.087   3.326
27203W        W98874  35.573  28.195   0.362
27204W        W98875   2.453   7.600  10.585
27205W        W98876  12.514  17.669   2.636
27206W        W98877  38.335  25.211  11.078
27207W        W98878  39.727   6.457   1.255
27208W        W98879  15.767  10.579  13.345
27209W        W98880  18.608   6.215  11.594
27210W        W98881  32.163  44.240   3.424
27211W        W98882  43.511  23.558   5.021
27212W        W98883  29.482   5.708   3.178
27213W        W98884  26.643  35.288   4.996
27214W        W98885  33.831   1.676  14.033
27215W        W98886  26.026  41.032  13.279
27216W        W98887  39.256   6.243  14.886
27217W        W98888  24.819   8.482  13.430
27218W        W98889  21.480  22.452   1.979
27219W        W98890  20.267  28.953   3.031
27220W        W98891  14.385  34.134  12.962
27221W        W98892   1.860  27.493  11.701
27222W        W98893  16.100  35.891  11.699
27223W        W98894  20.038   9.884  14.921
27224W        W98895  10.338  22.639   2.825
27225W        W98896  22.565  41.781  13.395
27226W        W98897  44.840  20.742   4.189
27227W        W98898  31.103  12.514  14.980
27228W        W98899  26.468  28.553  12.796
27229W        W98900   4.230  33.176  14.019
27230W        W98901  34.419  20.508   0.254
27231W        W98902  29.501  34.380   3.372
27232W        W98903   6.847  21.979  10.564
27233W        W98904  40.326  13.432  14.398
27234W        W98905  17.761  30.458   1.093
27235W        W98906  10.864   1.755   1.378
27236W        W98907  12.812  19.370  12.592
27237W        W98908  24.622  12.841   1.929
27238W        W98909   9.992  33.712  11.163
27239W        W98910  30.275  20.670  11.019
27240W        W98911  23.576   0.501  12.407
27241W        W98912   6.969   7.889  11.096
27242W        W98913  13.124  39.562   4.096
27243W        W98914  44.744  39.380  13.039
27244W        W98915  31.438  22.229  12.063
27245W        W98916  24.116  26.623   3.414
27246W        W98917   9.132   2.936  14.725
27247W        W98918  38.980  43.044  14.873
27248W        W98919  11.608   8.794   0.382
27249W        W98920  31.808   6.166  14.512
27250W        W98921  11.863  30.517   1.773
27251W        W98922  23.010   1.160  11.941
27252W        W98923  23.184  30.980   4.543
27253W        W98924  19.264   2.500   3.334
27254W        W98925  38.976   6.345  10.472
27255W        W98926  17.116  23.134   1.387
27256W        W98927  35.804  39.598  11.633
27257W        W98928  44.804   3.208   3.695
27258W        W98929  15.720   3.255  14.308
27259W        W98930   7.267  35.459  12.478
27260W        W98931   5.750  20.684   3.142
27261W        W98932  35.748   0.343  11.585
27262W        W98933  43.712  21.466  13.967
27263W        W98934   0.437  37.379   2.810
27264W        W98935  33.898  11.774  14.799
27265W        W98936  28.194  20.618   2.716
27266W        W98937  33.727  29.233   4.749
27267W        W98938   6.858  41.919   4.047
27268W        W98939  17.850   0.949  11.640
27269W        W98940   4.796  28.937  14.291
27270W        W98941  21.173  39.842  13.452
27271W        W98942  20.223   3.277   4.719
27272W        W98943  17.822  17.273  12.902
27273W        W98944  19.065  24.137   1.805
27274W        W98945   6.435  22.059   0.236
27275W        W98946  22.944  29.443  12.868
27276W        W98947  44.504  32.521   1.272
27277W        W98948  31.365  22.594   3.553
27278W        W98949  38.522  21.228   1.252
27279W        W98950  37.298  23.021   4.509
27280W        W98951  26.479  12.650   3.679
27281W        W98952  19.121   3.690  11.567
27282W        W98953  41.207  36.320  14.609
27283W        W98954  25.163  11.798   1.227
27284W        W98955  41.497  19.636   2.444
27285W        W98956   3.367  32.885   1.332
27286W        W98957  18.540  26.668   2.756
27287W        W98958  10.347  11.943   2.410
27288W        W98959   5.865  11.429   0.227
27289W        W98960   3.943  20.224   2.421
27290W        W98961   7.633  22.764  10.745
27291W        W98962   8.776  21.246   3.266
27292W        W98963  10.246  36.111  14.561
27293W        W98964   1.285  25.821  10.708
27294W        W98965   2.853  25.880  14.458
27295W        W98966  25.329  37.893   0.410
27296W        W98967  28.998  43.407  14.039
27297W        W98968  29.110  12.365   1.887
27298W        W98969   6.130  26.140   2.950
27299W        W98970  43.594   2.810   0.923
27300W        W98971  29.608  24.592  13.385
27301W        W98972  17.621   1.408  10.772
27302W        W98973   6.646  44.465  14.473
27303W        W98974  35.861  15.838   2.134
27304W        W98975  25.222  38.470   4.081
27305W        W98976  30.058  16.241  11.610
27306W        W98977  41.291  12.786   1.637
27307W        W98978  19.014  29.715   4.783
27308W        W98979  36.230  13.784   3.273
27309W        W98980   3.452  39.928   1.917
27310W        W98981  22.418   5.365   2.220
27311W        W98982  38.337  37.807   2.831
27312W        W98983  22.683  17.467   2.683
27313W        W98984  10.696  44.776   1.307
27314W        W98985   2.846  15.695  10.564
27315W        W98986  10.332  22.914  11.070
27316W        W98987   2.216  31.987   0.205
27317W        W98988  40.293   3.252   1.890
27318W        W98989   5.212  17.747  14.670
27319W        W98990  21.773  40.077   0.781
27320W        W98991   8.976  20.179   1.525
27321W        W98992  27.987  29.298   1.456
27322W        W98993  19.073  27.464  12.377
27323W        W98994   2.328  23.982  14.796
27324W        W98995  21.129  19.729   1.832
27325W        W98996  14.750  17.620   4.949
27326W        W98997  24.656  36.138  13.380
27327W        W98998   1.424  27.991   4.150
27328W        W98999  12.795  16.640   1.734
27329W        W99000  34.155  31.794  11.558
27330W        W99001  17.764  21.981  11.145
27331W        W99002   8.601  17.523  13.360
27332W        W99003   2.715  20.690   3.913
27333W        W99004   0.136  44.464   1.459
27334W        W99005  40.114   8.759  14.065
27335W        W99006  38.771   8.750  12.380
27336W        W99007  23.485  23.040   2.414
27337W        W99008  30.115  13.706   4.217
27338W        W99009  38.250  42.405  10.867
27339W        W99010  14.906   7.510   3.643
27340W        W99011   7.744  20.888   3.645
27341W        W99012  43.826  44.730  11.070
27342W        W99013  39.097  27.800  14.005
27343W        W99014  33.950  31.923  12.454
27344W        W99015   6.984  36.025   0.741
27345W        W99016  39.790  13.592  13.536
27346W        W99017  16.115  19.985  13.825
27347W        W99018  25.081   4.355   4.844
27348W        W99019   6.752  15.515  13.074
27349W        W99020  17.657  32.101  11.454
27350W        W99021  25.747  28.657   4.315
27351W        W99022  13.430   5.757   2.179
27352W        W99023  34.139   9.304  13.033
27353W        W99024  13.902   7.316  10.352
27354W        W99025  22.586  43.252  12.174
27355W        W99026  22.660  13.887   3.212
27356W        W99027  21.404  19.931   1.426
27357W        W99028  32.422   1.012   3.993
27358W        W99029   4.264   1.991   4.664
27359W        W99030  29.623  25.485  11.050
27360W        W99031  15.676   5.942   2.662
27361W        W99032   6.991  15.177  13.404
27362W        W99033  12.138  36.676   3.745
27363W        W99034  16.222  37.936  14.828
27364W        W99035  37.824  35.505  14.834
27365W        W99036  13.721  27.088  14.766
27366W        W99037  39.425  32.585   2.730
27367W        W99038  22.203   2.820   1.185
27368W        W99039  21.808   9.170   1.631
27369W        W99040   9.388  34.948   0.192
27370W        W99041  19.635  12.876   0.746
27371W        W99042  34.846  44.301  12.622
27372W        W99043  28.636  21.667   4.341
27373W        W99044  27.449  20.097  12.512
27374W        W99045  31.030  37.503  11.185
27375W        W99046  37.136  44.616  11.185
27376W        W99047  33.495  19.713   3.822
27377W        W99048  17.232  29.203   4.618
27378W        W99049  36.553   2.450   1.195
27379W        W99050  31.649  12.310   0.303
27380W        W99051  39.051  20.006  11.529
27381W        W99052  11.725  22.323   0.516
27382W        W99053  30.169  13.221   0.568
27383W        W99054  27.697  29.302  10.650
27384W        W99055   6.127  20.956  14.489
27385W        W99056  33.595   2.673   1.490
27386W        W99057  16.738  29.626   2.121
27387W        W99058  32.991  10.232  10.819
27388W        W99059  34.100  17.960   3.264
27389W        W99060   9.845  36.819   1.351
27390W        W99061  39.924   9.958   2.451
27391W        W99062  38.571   3.234  11.498
27392W        W99063  38.149   1.829   0.759
27393W        W99064  27.252  26.582  10.676
27394W        W99065  24.605  31.058  12.398
27395W        W99066  42.454  26.986  13.880
27396W        W99067  27.940  41.086  13.390
27397W        W99068   4.514  21.615  14.769
27398W        W99069   3.457  24.206  13.432
27399W        W99070  20.561  11.600   1.227
27400W        W99071   7.376  21.552   3.066
27401W        W99072  37.190  40.145   4.069
27402W        W99073  36.120  33.828  11.651
27403W        W99074   0.398  42.347   2.165
27404W        W99075  37.171  18.129  14.885
27405W        W99076  25.972  12.381   1.464
27406W        W99077  16.317  26.570  13.908
27407W        W99078  38.635   0.731  11.149
27408W        W99079  17.633   2.238  11.012
27409W        W99080  29.017  21.244  12.508
27410W        W99081  27.565  35.365  12.422
27411W        W99082  16.447  28.628  11.260
27412W        W99083  37.860  13.273  11.300
27413W        W99084   8.250  12.749  11.810
27414W        W99085  12.777  20.684   0.699
27415W        W99086   7.788   9.612   2.637
27416W        W99087  43.335   2.320   2.272
27417W        W99088  28.562  24.721   3.189
27418W        W99089  11.121   9.267  13.466
27419W        W99090  24.779  17.532   1.057
27420W        W99091  13.691  21.940   0.368
27421W        W99092  17.731  22.185  11.601
27422W        W99093  31.379  32.349  11.192
27423W        W99094   7.097  14.345  11.167
27424W        W99095  39.064   3.726  14.245
27425W        W99096  28.568  22.141  13.475
27426W        W99097  39.890  11.712  11.039
27427W        W99098  39.904  44.719   1.902
27428W        W99099  12.315  13.268   4.558
27429W        W99100  40.043   9.598   3.710
27430W        W99101   2.693   1.488   1.461
27431W        W99102  29.695  34.287   0.861
27432W        W99103  19.785   8.986  11.547
27433W        W99104  37.102  18.333   3.267
27434W        W99105  17.551  10.232   0.411
27435W        W99106   0.059   4.201   3.680
27436W        W99107  16.267  34.426   2.829
27437W        W99108  18.536  16.191   3.750
27438W        W99109  21.610  32.845   3.337
27439W        W99110  38.336  22.133   3.686
27440W        W99111  44.650   5.745  12.936
27441W        W99112  43.726  26.027   1.233
27442W        W99113  16.337  42.961   2.178
27443W        W99114  43.072  24.860  14.405
27444W        W99115  38.585  12.633  11.209
27445W        W99116  19.297   2.269   2.816
27446W        W99117   6.866  10.155   1.779
27447W        W99118  39.566  25.390   3.110
27448W        W99119  27.711   7.417   1.418
27449W        W99120  39.597   4.771  14.903
27450W        W99121  41.970  16.848  11.636
27451W        W99122  36.966   0.396  12.957
27452W        W99123  34.483   9.668  13.836
27453W        W99124  37.927  34.443   0.234
27454W        W99125  23.798   8.657   3.766
27455W        W99126  42.768  22.792  11.092
27456W        W99127   2.234  38.854   4.902
27457W        W99128  23.770  29.868   0.359
27458W        W99129  15.341  13.840  11.972
27459W        W99130  22.272   6.086   3.066
27460W        W99131  11.557  30.722  10.409
27461W        W99132  40.062  30.497   2.690
27462W        W99133  10.749   6.093  14.566
27463W        W99134   1.923  14.733  12.150
27464W        W99135  31.519   7.942   3.305
27465W        W99136  10.836  10.289  14.490
27466W        W99137  25.411  18.562   0.101
27467W        W99138  28.266  25.901  12.448
27468W        W99139  15.889  26.980  12.568
27469W        W99140   8.821  22.665  11.597
27470W        W99141  34.972  23.667   2.793
27471W        W99142  22.741   0.314  11.456
27472W        W99143   8.207  19.235   4.748
27473W        W99144  30.481  16.270   2.655
27474W        W99145  20.006  34.393  10.597
27475W        W99146  25.611  26.929  14.800
27476W        W99147  12.644  19.662  12.154
27477W        W99148   6.332  23.001   2.328
27478W        W99149   2.292  13.575   2.194
27479W        W99150  25.690  34.888  14.424
27480W        W99151  22.075  26.159  13.885
27481W        W99152  26.484  44.777  14.069
27482W        W99153  15.330  28.430  14.402
27483W        W99154  20.887  39.168  11.655
27484W        W99155  16.192  43.930   3.195
27485W        W99156  20.647  15.370   1.762
27486W        W99157   0.378  14.095   1.345
27487W        W99158  27.040  35.368   4.638
27488W        W99159  12.363   6.768  14.643
27489W        W99160  11.288  24.275   2.450
27490W        W99161   5.191  18.295   3.421
27491W        W99162  31.188  14.085   1.733
27492W        W99163  22.442  28.464   5.026
27493W        W99164  31.863   5.174  14.479
27494W        W99165  41.585  20.171   1.606
27495W        W99166  31.904  18.160   3.311
27496W        W99167  19.194  44.223  14.628
27497W        W99168  39.123  31.598   4.149
27498W        W99169  15.754   1.724  14.384
27499W        W99170  36.398  44.844   1.494
27500W        W99171  44.402  21.254   2.650
27501W        W99172  12.283  33.357  13.196
27502W        W99173  31.045  33.765  10.718
27503W        W99174  34.104   4.105  13.019
27504W        W99175  20.780  14.299   1.294
27505W        W99176  32.597  43.866  12.978
27506W        W99177  23.113   9.981  12.069
27507W        W99178  22.687  38.119  10.853
27508W        W99179  40.766  43.150   3.368
27509W        W99180  33.983  38.287   4.649
27510W        W99181  33.859  27.515  10.564
27511W        W99182  39.407  16.761  14.306
27512W        W99183  41.809  19.837   4.209
27513W        W99184  13.187  36.573  10.745
27514W        W99185  28.515  31.871  13.865
27515W        W99186  26.877  30.227  14.021
27516W        W99187  23.180  40.552   0.566
27517W        W99188  41.081   2.766   2.230
27518W        W99189  32.884  18.153  11.477
27519W        W99190  24.100  12.599  13.654
27520W        W99191  32.396  38.976   2.119
27521W        W99192  34.644  29.593  10.394
27522W        W99193  14.187  11.682  13.905
27523W        W99194  20.317  24.994   4.187
27524W        W99195  18.663  36.648  13.060
27525W        W99196  10.087  13.619  13.483
27526W        W99197  24.786  34.703   2.861
27527W        W99198  10.343   8.883  11.097
27528W        W99199  12.546  28.514  11.611
27529W        W99200  40.667  17.415   2.271
27530W        W99201  43.593  17.307  12.044
27531W        W99202  40.801   0.154  11.857
27532W        W99203  16.618   3.901   4.845
27533W        W99204  31.312  12.845  14.029
27534W        W99205  15.550  17.434   3.722
27535W        W99206   5.897  27.224   0.549
27536W        W99207  22.018  19.185   2.942
27537W        W99208   9.923  22.503  14.422
27538W        W99209  18.390  28.040  13.852
27539W        W99210  17.605  32.442  10.490
27540W        W99211  31.609  15.278  10.442
27541W        W99212   8.818  23.632  12.949
27542W        W99213  35.802  10.488  13.951
27543W        W99214   5.042  21.026  13.492
27544W        W99215  35.174   3.522  11.608
27545W        W99216  25.873  20.037   3.430
27546W        W99217   2.866   3.306  12.054
27547W        W99218  13.698  27.236  11.679
27548W        W99219  23.710  15.596   3.702
27549W        W99220   3.711   8.275   0.040
27550W        W99221   3.737  16.735  12.345
27551W        W99222  38.836   2.185  13.045
27552W        W99223  16.154  26.514   4.308
27553W        W99224  20.058   8.579   2.100
27554W        W99225  25.074  20.638   4.670
27555W        W99226   7.326  19.192  10.777
27556W        W99227  33.043  37.346  11.410
27557W        W99228  15.625  36.908   1.875
27558W        W99229  18.604  40.916  11.234
27559W        W99230  21.731  17.736  11.620
27560W        W99231  32.338  25.512  14.288
27561W        W99232  42.373  35.915  14.257
27562W        W99233   3.518  13.382  13.664
27563W        W99234  34.910  12.171   0.799
27564W        W99235  24.735  20.038   3.934
27565W        W99236  21.797  32.672   3.803
27566W        W99237  10.308   0.951   3.787
27567W        W99238  10.137  30.667   2.374
27568W        W99239   3.183  19.993  10.639
27569W        W99240   3.705  39.452  11.034
27570W        W99241  35.038  12.644   1.012
27571W        W99242  29.892  27.109   0.431
27572W        W99243  35.998  19.588  14.902
27573W        W99244  32.531  18.991   4.358
27574W        W99245  30.414  11.831  13.454
27575W        W99246  23.556   7.376  12.546
27576W        W99247  27.813  19.268   2.358
27577W        W99248  22.700   5.204   3.755
27578W        W99249   2.775  20.485  13.579
27579W        W99250  40.387  32.891   0.708
27580W        W99251  37.384   4.158   3.692
27581W        W99252   4.796  11.655  13.248
27582W        W99253  40.538   9.258   3.265
27583W        W99254  25.506  12.643  14.721
27584W        W99255   4.903   2.020   3.956
27585W        W99256  34.070  33.323   1.759
27586W        W99257   7.240  36.604   1.819
27587W        W99258   0.509   0.469   2.009
27588W        W99259  13.100  42.279   1.538
27589W        W99260  36.482   9.662   3.867
27590W        W99261  27.818  33.976   3.957
27591W        W99262   4.948  39.382   1.904
27592W        W99263   7.231  43.673   0.384
27593W        W99264  23.100   4.042   2.245
27594W        W99265  31.060  23.089   4.136
27595W        W99266  31.627   2.690  10.803
27596W        W99267   1.535  17.543  11.422
27597W        W99268   1.396  23.497   0.221
27598W        W99269  24.199  17.627  13.280
27599W        W99270  44.564  35.782  13.297
27600W        W99271  24.887   9.901   2.643
27601W        W99272  29.531  15.360   3.296
27602W        W99273  32.083  42.350   4.337
27603W        W99274  17.226   3.836  14.549
27604W        W99275  10.591  33.583   2.295
27605W        W99276  26.027  44.683   3.263
27606W        W99277  29.882  40.423   0.933
27607W        W99278  20.378   1.170   1.984
27608W        W99279  30.646  27.037   2.782
27609W        W99280  27.595   2.044  13.872
27610W        W99281  42.491  25.215   2.181
27611W        W99282  32.463  19.216   2.851
27612W        W99283  35.325  34.018   1.254
27613W        W99284  15.626  32.622  14.863
27614W        W99285  26.576  24.224   0.228
27615W        W99286  19.027  37.853  13.940
27616W        W99287  26.435  34.939   3.700
27617W        W99288  22.594  40.764   5.046
27618W        W99289  32.354  20.022   4.169
27619W        W99290   9.237  34.409  12.918
27620W        W99291  37.257   1.343  12.105
27621W        W99292   6.754  25.313   1.490
27622W        W99293  23.917   6.789   2.923
27623W        W99294  27.976  10.200  13.560
27624W        W99295   3.888  37.116   0.737
27625W        W99296  28.724  28.023  13.354
27626W        W99297  23.461  25.615   3.760
27627W        W99298  15.299  10.092   3.170
27628W        W99299   4.034  32.029   0.685
27629W        W99300  13.701  15.743   0.674
27630W        W99301   1.694  26.948   1.554
27631W        W99302  37.016  41.400  12.092
27632W        W99303  38.008   6.705  12.338
27633W        W99304   0.525  12.871   3.056
27634W        W99305  10.709  38.086   1.866
27635W        W99306  37.313  43.895  10.199
27636W        W99307  19.315   2.854   4.433
27637W        W99308  29.873   2.164  10.996
27638W        W99309   9.447  40.167  11.146
27639W        W99310  41.039  37.061  14.924
27640W        W99311  27.438   3.544   0.536
27641W        W99312  42.906   6.092  13.029
27642W        W99313  15.361  34.486   2.676
27643W        W99314  36.866  37.058   2.186
27644W        W99315  30.646  10.813   3.227
27645W        W99316   8.175   6.196  14.421
27646W        W99317  41.985  18.272   9.784
27647W        W99318  26.560  21.153  12.029
27648W        W99319  40.993  32.146   4.501
27649W        W99320  29.646  15.365  13.044
27650W        W99321   7.630  10.368  12.054
27651W        W99322  12.136  12.714   3.752
27652W        W99323  34.352  30.130  14.917
27653W        W99324  16.485   0.938   2.796
27654W        W99325  33.423   6.584  11.182
27655W        W99326  42.497  21.115  12.976
27656W        W99327  17.278  23.577  11.619
27657W        W99328   7.828  20.371  13.792
27658W        W99329  20.269  17.301  11.489
27659W        W99330  25.523  20.006  14.282
27660W        W99331  21.961  26.081   1.375
27661W        W99332  12.552  26.969   0.802
27662W        W99333  17.136  24.263  10.690
27663W        W99334  40.844  16.697  14.980
27664W        W99335  25.067  31.543   4.924
27665W        W99336  44.712   7.335  13.449
27666W        W99337  14.347  43.765   4.598
27667W        W99338   4.906  10.736  11.648
27668W        W99339  11.511   8.209  11.413
27669W        W99340  40.370   3.897   2.620
27670W        W99341  17.925  36.515  13.850
27671W        W99342  10.772  11.515  10.742
27672W        W99343  42.349  38.745   5.450
27673W        W99344  17.780   5.392  14.602
27674W        W99345  31.414   2.422   1.277
27675W        W99346  36.339  18.467  12.573
27676W        W99347  23.691  34.610  11.179
27677W        W99348  13.129  25.106  11.215
27678W        W99349  26.135  10.927  13.787
27679W        W99350   6.649   7.762  11.497
27680W        W99351   2.928  31.561   0.436
27681W        W99352  39.202   7.771   0.725
27682W        W99353  14.132  43.949   2.863
27683W        W99354  12.626  17.589  12.870
27684W        W99355  40.980  11.685   1.558
27685W        W99356  17.038  11.618   1.822
27686W        W99357  10.128  20.703   4.718
27687W        W99358  33.658   2.463   3.738
27688W        W99359   2.996  26.693   2.265
27689W        W99360  27.041  16.566  12.908
27690W        W99361  20.945  31.659   0.296
27691W        W99362  38.695  40.054   3.291
27692W        W99363  28.066  13.150  12.121
27693W        W99364  27.232  37.887   4.036
27694W        W99365   9.316  25.078  13.551
27695W        W99366  39.612   8.168  10.814
27696W        W99367  30.010  18.047   4.603
27697W        W99368  23.955   6.385   4.133
27698W        W99369   1.323  39.870  14.016
27699W        W99370  41.356  29.894   0.983
27700W        W99371  37.477   8.128   3.452
27701W        W99372  35.470  20.983  10.749
27702W        W99373  26.227  29.791  14.889
27703W        W99374   7.826   0.860  13.776
27704W        W99375  13.395  39.389   2.220
27705W        W99376  35.554  27.916   1.777
27706W        W99377   4.297  11.210   1.941
27707W        W99378  28.412  12.810   0.766
27708W        W99379  30.156  12.687   2.918
27709W        W99380   7.792  39.933   3.221
27710W        W99381  25.364  22.200  12.602
27711W        W99382  17.595   2.981   4.189
27712W        W99383  43.304  39.566   4.177
27713W        W99384   9.011  22.350   4.532
27714W        W99385  32.098  38.394  13.585
27715W        W99386  43.178  23.796   1.663
27716W        W99387  11.701  39.871  12.948
27717W        W99388  23.131  22.943  11.092
27718W        W99389   9.666  40.575  11.402
27719W        W99390  17.364  13.758   3.855
27720W        W99391  31.675  38.266   4.199
27721W        W99392  33.645   6.159  14.956
27722W        W99393  35.470   6.408   4.011
27723W        W99394  34.529  34.446  11.427
27724W        W99395  27.503  15.867  11.992
27725W        W99396  17.190  11.161  13.835
27726W        W99397  14.400  21.680   1.876
27727W        W99398  43.418  43.345   0.427
27728W        W99399  43.167  18.414   0.179
27729W        W99400  38.971  30.429   4.706
27730W        W99401  15.701  30.219  14.384
27731W        W99402  42.888   9.876   2.635
27732W        W99403  25.954  41.316   3.818
27733W        W99404   6.793  13.125   4.192
27734W        W99405  41.909  25.137   4.628
27735W        W99406  22.568  16.321  13.110
27736W        W99407  21.216   1.935   2.405
27737W        W99408  20.075  42.399  13.438
27738W        W99409   4.593   9.436   3.212
27739W        W99410  10.237  44.712   0.022
27740W        W99411  16.869  30.533   0.714
27741W        W99412  38.354  33.323  13.342
27742W        W99413  16.208  37.075  13.296
27743W        W99414  26.104  40.511   0.238
27744W        W99415  37.411  11.217   3.795
27745W        W99416  15.102  38.871  11.348
27746W        W99417  32.701  23.918  11.557
27747W        W99418  37.562  33.196   0.022
27748W        W99419  13.806  23.623  13.925
27749W        W99420  32.714  36.380  10.484
27750W        W99421  28.581  10.314   4.039
27751W        W99422  29.127  44.452  13.056
27752W        W99423  41.901  28.562   1.989
27753W        W99424  22.191  33.007   0.944
27754W        W99425  11.122  39.365  12.131
27755W        W99426   2.668  24.079  14.272
27756W        W99427  37.803  19.234   2.681
27757W        W99428  10.641  22.859  11.462
27758W        W99429   8.960   3.432  11.327
27759W        W99430  27.883  43.778   4.117
27760W        W99431  32.873  23.137   3.281
27761W        W99432  35.956  32.684   4.168
27762W        W99433  10.761  21.465   3.649
27763W        W99434  39.971   7.431  12.040
27764W        W99435  37.940   9.385   3.117
27765W        W99436  20.190   0.396   2.193
27766W        W99437   0.931  35.989   1.897
27767W        W99438  41.826  14.239  12.026
27768W        W99439  25.609  20.526   2.364
27769W        W99440   7.681  27.170   0.295
27770W        W99441  35.707  10.794  14.359
27771W        W99442  24.193  10.815  11.672
27772W        W99443   9.582  35.431   0.453
27773W        W99444  14.969  12.284   0.418
27774W        W99445   7.617   6.287   2.722
27775W        W99446  28.852  41.012  10.707
27776W        W99447  22.286  16.727   3.035
27777W        W99448  35.578  23.224  11.113
27778W        W99449  36.520  12.673   2.379
27779W        W99450  13.791   5.970  10.660
27780W        W99451   0.002  34.068   0.864
27781W        W99452  26.152  38.522   0.146
27782W        W99453  38.913  36.366   0.265
27783W        W99454   4.418  42.907   3.034
27784W        W99455   7.329  25.701   2.295
27785W        W99456  37.599  43.884  10.656
27786W        W99457  11.150  30.406  12.450
27787W        W99458  13.935  20.252  14.939
27788W        W99459   9.341  42.292   0.757
27789W        W99460  14.974  17.953  12.117
27790W        W99461  16.372   5.856  13.658
27791W        W99462  11.779  10.379   4.046
27792W        W99463  16.370  21.615  12.281
27793W        W99464   7.849   0.851   3.818
27794W        W99465  30.489   0.448   1.454
27795W        W99466   1.299   4.863   0.487
27796W        W99467   8.099  40.265  13.276
27797W        W99468  33.272  31.986  12.600
27798W        W99469  18.764   5.501   4.047
27799W        W99470   0.113  24.109   5.501
27800W        W99471  28.552  44.145   4.250
27801W        W99472  22.967  14.116  11.999
27802W        W99473  26.137   0.483  14.985
27803W        W99474   2.143  31.428  14.499
27804W        W99475   0.015  39.368   1.284
27805W        W99476   1.458   7.318  10.917
27806W        W99477  12.737  16.901   4.298
27807W        W99478  17.165  44.441  11.019
27808W        W99479  24.758  39.277   1.462
27809W        W99480   4.301  29.045   1.452
27810W        W99481  32.843  10.867   3.899
27811W        W99482  44.797   5.400  11.144
27812W        W99483  10.240  14.193   2.318
27813W        W99484  33.937  13.946  11.386
27814W        W99485  15.487  34.460   4.113
27815W        W99486  35.709  27.376  12.403
27816W        W99487  19.565  33.851   0.683
27817W        W99488  37.946  17.973  14.108
27818W        W99489  33.190   1.964   4.614
27819W        W99490  20.089  11.748   5.487
27820W        W99491   7.042  39.934  12.415
27821W        W99492  27.760  32.880   4.804
27822W        W99493   9.270  26.777  12.859
27823W        W99494   3.154  13.332  13.305
27824W        W99495  27.968  26.149  13.258
27825W        W99496  20.495   0.723  13.896
27826W        W99497  44.265  33.321   2.124
27827W        W99498  20.102  41.290  10.298
27828W        W99499  33.239  32.954   4.701
27829W        W99500  25.834  37.421  13.842
27830W        W99501  32.586   2.355  14.010
27831W        W99502  28.933  18.683  11.497
27832W        W99503  18.848  32.983  11.156
27833W        W99504   6.491  13.790   3.362
27834W        W99505   8.685  35.418  14.886
27835W        W99506   2.947  25.178   2.247
27836W        W99507  23.901  27.705   0.905
27837W        W99508  44.727  12.832   2.301
27838W        W99509  42.162  16.599  14.803
27839W        W99510  36.446  21.995  10.682
27840W        W99511  13.782  35.326  10.415
27841W        W99512  11.370  11.215  14.503
27842W        W99513  36.093  14.092  11.609
27843W        W99514  21.212  21.572  13.439
27844W        W99515  33.829  28.721   4.669
27845W        W99516  11.235  40.926   0.216
27846W        W99517  21.200  41.191   5.299
27847W        W99518  35.111   2.440  14.514
27848W        W99519  43.946   8.384  12.358
27849W        W99520   4.217  20.362   4.364
27850W        W99521  13.065   5.709  10.633
27851W        W99522  29.087   7.797  13.186
27852W        W99523  30.367  24.060   2.201
27853W        W99524  41.057   4.874  12.532
27854W        W99525  38.336  33.416   2.971
27855W        W99526  10.276   6.359   4.529
27856W        W99527   8.868  41.963  11.579
27857W        W99528  24.525  35.509   1.236
27858W        W99529  28.695  15.387  14.801
27859W        W99530  15.620   3.233   1.851
27860W        W99531  27.006   6.410  11.048
27861W        W99532   9.711  23.761  12.761
27862W        W99533  40.769  21.028  11.100
27863W        W99534   3.037  16.491  12.999
27864W        W99535   1.817   2.418  14.439
27865W        W99536  36.879  14.609   2.281
27866W        W99537  33.435  43.080   2.629
27867W        W99538  24.485  44.340  12.091
27868W        W99539  18.820  24.684   4.725
27869W        W99540   9.143   4.979   1.505
27870W        W99541  23.290  30.205   1.495
27871W        W99542  36.477  38.306  11.589
27872W        W99543  43.896   8.403   3.595
27873W        W99544   9.145  21.753   1.805
27874W        W99545  39.509   8.196  11.612
27875W        W99546  36.774  23.587   1.934
27876W        W99547   1.223  32.640   1.836
27877W        W99548  15.614  26.600   3.325
27878W        W99549  36.348  32.974   1.016
27879W        W99550  26.548  44.304  14.309
27880W        W99551  32.099  16.598   0.927
27881W        W99552  23.025  32.602  11.409
27882W        W99553   9.629  10.127  12.103
27883W        W99554   9.411  40.887   2.310
27884W        W99555   1.487   2.543   1.749
27885W        W99556   6.763  34.077  13.865
27886W        W99557   1.101  34.045   3.328
27887W        W99558  36.527  17.268   2.861
27888W        W99559  31.382  35.454   2.176
27889W        W99560   8.745  12.717   3.792
27890W        W99561   5.964  44.945   4.245
27891W        W99562  29.627  21.691  14.253
27892W        W99563   5.770   6.861   1.720
27893W        W99564  19.022   0.878  14.057
27894W        W99565  34.748  15.089   3.162
27895W        W99566  41.107  39.774  13.036
27896W        W99567   8.551  40.833  13.378
27897W        W99568  17.142   1.144  11.510
27898W        W99569  35.345  23.040   4.036
27899W        W99570  17.019  33.448   4.677
27900W        W99571  24.884  22.038  12.403
27901W        W99572  18.702   6.681   4.663
27902W        W99573  25.952  27.674   2.751
27903W        W99574  14.671  15.551   0.934
27904W        W99575   0.800  10.055  10.609
27905W        W99576   5.887  40.774  13.864
27906W        W99577  10.426  16.669   2.773
27907W        W99578  17.506  31.806   5.309
27908W        W99579  33.322  28.657   4.231
27909W        W99580  39.049  18.663   1.918
27910W        W99581  34.352  32.351  13.312
27911W        W99582  33.517  22.757   3.155
27912W        W99583  17.819  10.009   0.012
27913W        W99584   7.524  24.213   4.663
27914W        W99585   0.684   6.863  10.353
27915W        W99586  17.265  10.662  13.959
27916W        W99587  18.309  12.889  12.276
27917W        W99588   1.515  39.094   3.684
27918W        W99589  28.917  39.775   4.609
27919W        W99590  19.036  13.366   2.838
27920W        W99591   5.934  39.572   0.518
27921W        W99592  30.480  26.439   4.631
27922W        W99593  36.800   7.301   0.454
27923W        W99594   8.283  19.648  12.303
27924W        W99595  29.879  37.848  12.623
27925W        W99596  23.675  29.494   2.129
27926W        W99597   6.973  41.440  13.353
27927W        W99598  39.998  16.108  10.556
27928W        W99599  29.106   3.880   0.986
27929W        W99600  39.094  40.947   0.515
27930W        W99601  29.980   3.368  12.774
27931W        W99602  11.022  35.960  14.021
27932W        W99603  27.044  35.481   4.110
27933W        W99604  35.178  29.569  10.282
27934W        W99605  11.473   8.943  13.951
27935W        W99606  32.620  23.751  12.427
27936W        W99607  43.726  37.905  10.590
27937W        W99608  25.709  10.725  11.156
27938W        W99609   4.283   1.913   3.312
27939W        W99610  26.158  42.824   4.603
27940W        W99611  19.539  42.722   1.234
27941W        W99612  11.614  36.669  13.528
27942W        W99613  29.888  34.610   1.203
27943W        W99614  28.764  17.753   1.411
27944W        W99615  14.981  43.905   0.650
27945W        W99616  10.389  27.932  14.707
27946W        W99617  12.573   8.124   1.244
27947W        W99618   9.146   8.160  14.749
27948W        W99619  32.099   5.942  10.864
27949W        W99620   8.232  27.185  13.474
27950W        W99621  28.079  12.148   4.576
27951W        W99622  42.536  28.051  10.696
27952W        W99623  37.000  15.675   4.247
27953W        W99624  10.377  25.078   0.531
27954W        W99625  41.054  42.790   1.140
27955W        W99626  38.945  28.531  11.553
27956W        W99627  16.856  28.920  11.468
27957W        W99628   3.881  34.520   3.077
27958W        W99629  43.284   6.887  13.974
27959W        W99630  24.294   6.347  11.998
27960W        W99631   1.904  42.418   1.261
27961W        W99632  29.956  12.033   1.887
27962W        W99633  29.493   3.729   3.322
27963W        W99634  43.663  23.725  12.489
27964W        W99635  17.320  26.920  13.852
27965W        W99636  15.220   3.956  12.859
27966W        W99637  28.204  33.110   2.436
27967W        W99638  13.294  19.884   3.797
27968W        W99639  16.863  22.489  10.592
27969W        W99640  23.495  22.230  13.006
27970W        W99641  23.601  38.482   3.206
27971W        W99642  36.937   0.890   0.419
27972W        W99643  41.322  18.616   1.292
27973W        W99644  19.490   9.856   3.109
27974W        W99645  21.922  27.164  14.169
27975W        W99646  38.375  36.467  10.900
27976W        W99647  32.101  21.647   2.610
27977W        W99648  13.517  10.807  14.009
27978W        W99649  24.134   7.270  12.590
27979W        W99650   9.631  37.989   3.661
27980W        W99651   3.606  36.592  12.888
27981W        W99652  21.070  25.113  12.523
27982W        W99653   8.752   6.510   4.894
27983W        W99654  35.629  19.205  12.430
27984W        W99655   7.400  10.426   4.097
27985W        W99656  37.150  36.314   3.782
27986W        W99657  17.730  23.385  12.531
27987W        W99658  30.363  36.728  11.115
27988W        W99659  14.500  30.393   3.017
27989W        W99660  16.079  35.359   1.734
27990W        W99661  43.898  34.683  11.676
27991W        W99662  37.636   7.548   1.982
27992W        W99663  30.105  38.876  13.567
27993W        W99664  28.689  12.123  14.342
27994W        W99665  34.142  32.200   0.877
27995W        W99666  19.357  26.728   0.396
27996W        W99667  27.381   7.642   2.721
27997W        W99668  21.082  36.324  12.563
27998W        W99669  36.492  39.783  13.088
27999W        W99670  29.938   9.714   0.285
28000W        W99671  31.442   0.652  14.741
28001W        W99672  10.305  38.261  12.412
28002W        W99673  35.745  41.837  11.470
28003W        W99674   3.315  14.463  11.338
28004W        W99675  40.232  37.205   0.317
28005W        W99676  36.704  37.826   0.048
28006W        W99677  44.509  44.277  13.301
28007W        W99678  23.117   8.619  10.305
28008W        W99679  18.528  28.237  11.019
28009W        W99680  25.093   6.878   1.229
28010W        W99681   5.029  22.541  12.145
28011W        W99682  35.707  38.804  11.795
28012W        W99683  23.727  33.831  12.929
28013W        W99684  31.032  17.331   2.754
28014W        W99685  36.971  44.373  13.975
28015W        W99686  40.233  33.454  12.424
28016W        W99687  23.129  13.727  11.708
28017W        W99688  42.040  11.755   3.120
28018W        W99689  13.685  16.116   3.051
28019W        W99690  10.078  22.632   3.729
28020W        W99691  36.869  12.945  14.607
28021W        W99692  22.114   1.809   1.847
28022W        W99693  26.436  18.380   2.791
28023W        W99694   7.155  11.256   4.142
28024W        W99695   7.289  22.024  11.274
28025W        W99696  22.661  26.543   5.204
28026W        W99697   5.737   6.275   2.837
28027W        W99698  44.670  24.174   1.272
28028W        W99699  10.334  16.641  13.826
28029W        W99700  18.688   7.242  10.634
28030W        W99701   4.091  39.817   3.517
28031W        W99702  39.437  22.263  11.000
28032W        W99703  30.847  14.784   2.714
28033W        W99704   3.919  12.148  11.107
28034W        W99705  18.635  35.885   0.378
28035W        W99706   1.747  21.042   0.776
28036W        W99707  35.055  23.606   9.832
28037W        W99708  15.139  11.311  14.546
28038W        W99709   7.349  44.014   0.988
28039W        W99710   6.395  30.244   0.004
28040W        W99711  28.965  38.525   4.185
28041W        W99712   1.689  42.754   0.363
28042W        W99713  22.739   3.899  10.638
28043W        W99714  14.365  43.400  11.522
28044W        W99715   6.264   8.297  12.663
28045W        W99716  29.445  22.337   3.520
28046W        W99717  12.718   5.211  12.341
28047W        W99718  26.455   2.873   4.110
28048W        W99719  26.446  13.859  11.869
28049W        W99720  26.785   3.302  13.012
28050W        W99721  15.573  36.028  13.847
28051W        W99722  22.753  35.575   4.342
28052W        W99723   8.847  27.508   4.208
28053W        W99724   9.628  39.508   1.467
28054W        W99725  43.282   0.811   1.118
28055W        W99726   8.844  25.009   3.781
28056W        W99727  30.371   2.788  11.123
28057W        W99728  30.444  17.262  12.074
28058W        W99729  42.435  44.989   0.460
28059W        W99730   3.148  39.664   0.262
28060W        W99731  18.155  10.691   1.180
28061W        W99732  26.588  29.227   2.265
28062W        W99733  17.680  23.240  11.540
28063W        W99734  33.152   6.408  10.645
28064W        W99735  13.222  25.176  14.588
28065W        W99736  28.766  30.124  12.454
28066W        W99737  22.863   3.839  12.987
28067W        W99738  16.273  13.101  14.701
28068W        W99739  12.248  20.230  13.767
28069W        W99740  19.453  40.113  11.581
28070W        W99741   7.898   1.105   2.739
28071W        W99742  22.748   9.476  13.908
28072W        W99743  39.456  14.703  14.891
28073W        W99744  34.257  31.450   2.541
28074W        W99745  31.419  44.543   2.844
28075W        W99746  39.837  29.281  11.368
28076W        W99747  15.604  22.750  12.475
28077W        W99748  11.363  41.356  10.294
28078W        W99749  44.390  37.020  14.840
28079W        W99750  25.501  28.978  11.581
28080W        W99751  33.632   6.176   0.792
28081W        W99752  36.573  43.774   2.421
28082W        W99753  15.313  27.709   2.001
28083W        W99754   2.016  15.290  14.433
28084W        W99755  12.356  19.543  11.198
28085W        W99756  36.543   1.358  14.266
28086W        W99757  38.781  23.920  10.513
28087W        W99758  34.291  42.490   0.093
28088W        W99759  15.621  16.696  12.464
28089W        W99760   5.622   3.804   3.399
28090W        W99761   1.385  15.183  14.960
28091W        W99762  44.034  43.630  13.960
28092W        W99763   6.676  22.466  12.880
28093W        W99764   7.452  27.608  10.448
28094W        W99765  33.982   3.001   1.377
28095W        W99766  25.028  42.408   1.657
28096W        W99767  38.366   4.369  10.337
28097W        W99768  12.853  25.053   1.357
28098W        W99769  18.342  36.623   4.327
28099W        W99770  16.685  18.822   0.876
28100W        W99771   3.716  39.420   4.577
28101W        W99772  20.225  39.328  11.112
28102W        W99773   9.656  20.262  14.813
28103W        W99774   0.163  32.091  10.281
28104W        W99775  32.819  13.625   1.218
28105W        W99776  34.442  34.129   2.142
28106W        W99777   3.231   4.886   2.911
28107W        W99778  36.869  31.791   4.288
28108W        W99779  30.579   9.575  14.608
28109W        W99780   5.225  24.230  13.037
28110W        W99781  38.154  33.739   2.608
28111W        W99782  32.336   0.158   4.842
28112W        W99783   5.654   1.712  14.734
28113W        W99784  39.247   3.287   1.436
28114W        W99785  43.336  42.206   5.185
28115W        W99786  28.141  39.921   2.703
28116W        W99787   5.960  27.624   4.153
28117W        W99788  28.782  31.631   4.126
28118W        W99789  23.985   2.951  13.000
28119W        W99790  24.519   5.789  14.256
28120W        W99791  20.563   3.350  11.177
28121W        W99792  27.536  17.020  14.806
28122W        W99793  40.739   2.630  14.196
28123W        W99794   1.685  19.306   5.393
28124W        W99795  38.411  34.290  14.975
28125W        W99796  38.443  37.541   4.220
28126W        W99797   2.495  17.017   4.607
28127W        W99798   1.390   9.787  14.348
28128W        W99799  21.302  18.585   0.943
28129W        W99800  28.412  15.741   4.547
28130W        W99801  19.055  37.041   3.009
28131W        W99802  31.183  40.790  12.742
28132W        W99803  34.950  31.362  13.006
28133W        W99804  24.936   9.691   1.877
28134W        W99805  35.897  42.065  11.918
28135W        W99806  35.089  44.728   3.767
28136W        W99807  41.895   0.700  13.428
28137W        W99808  23.686  22.112  12.092
28138W        W99809  24.077  15.269  13.366
28139W        W99810  28.405  17.969  11.832
28140W        W99811  14.751  17.730  11.109
28141W        W99812  20.254  32.644  13.176
28142W        W99813   5.312  15.718  10.409
28143W        W99814   6.144  30.556   2.915
28144W        W99815   4.906  22.579   2.672
28145W        W99816  38.276   2.814  11.631
28146W        W99817   7.706  17.737   1.195
28147W        W99818  21.522   6.851   1.328
28148W        W99819  26.906  31.398  12.192
28149W        W99820   4.853   1.992   0.587
28150W        W99821  13.238   1.157  13.046
28151W        W99822  26.087   3.557   2.735
28152W        W99823  21.250   5.269  11.892
28153W        W99824  13.686  20.265   3.043
28154W        W99825  26.609  23.677  10.608
28155W        W99826  20.318  28.897  13.139
28156W        W99827  41.883  44.900   2.637
28157W        W99828  19.044  26.920   3.297
28158W        W99829  18.609  37.807  13.497
28159W        W99830  11.221  22.772   3.236
28160W        W99831  21.596   3.237   4.936
28161W        W99832  20.298   1.690   1.930
28162W        W99833  32.930  19.657   1.213
28163W        W99834   4.296  40.077  13.380
28164W        W99835  40.676  29.179   2.802
28165W        W99836   0.825  23.793   3.295
28166W        W99837  15.142  12.741   1.751
28167W        W99838  25.926  18.277   2.936
28168W        W99839  19.098  14.157   3.258
28169W        W99840  44.452  26.526   3.760
28170W        W99841  35.563  26.074  13.997
28171W        W99842  28.982  20.199   3.611
28172W        W99843  13.330  16.505  11.527
28173W        W99844  43.812  40.271   0.913
28174W        W99845   9.556  39.528   2.824
28175W        W99846   3.048  18.081   1.376
28176W        W99847  43.525   5.226   3.737
28177W        W99848   7.059  20.544   0.803
28178W        W99849  41.594  43.133  12.587
28179W        W99850  17.247  42.999  10.927
28180W        W99851   6.860  23.633   1.007
28181W        W99852  33.426  29.526   2.794
28182W        W99853  19.579  42.289   0.138
28183W        W99854  13.246  39.700  13.429
28184W        W99855  21.458   1.018  14.561
28185W        W99856  17.491  44.325   4.691
28186W        W99857  22.518  34.385  10.858
28187W        W99858  15.039  28.816  11.953
28188W        W99859  44.948   6.510  10.532
28189W        W99860  42.258  26.992  12.423
28190W        W99861  35.480  16.526   4.080
28191W        W99862  28.707  34.646  14.926
28192W        W99863  23.672  36.186  14.332
28193W        W99864  12.735  29.876   2.883
28194W        W99865  24.531   2.952   1.298
28195W        W99866  42.049  35.573   4.843
28196W        W99867   7.953  12.861   2.722
28197W        W99868  41.490  36.048  14.285
28198W        W99869  40.011  38.255  12.906
28199W        W99870  10.799  10.774   1.156
28200W        W99871   8.628   8.710   0.620
28201W        W99872   4.415  24.379  14.851
28202W        W99873  36.556  25.390   1.422
28203W        W99874  19.106   8.342   4.357
28204W        W99875  11.771  33.004   2.767
28205W        W99876   6.101   5.296  14.040
28206W        W99877   2.531  42.468  14.406
28207W        W99878  38.417  15.758   1.246
28208W        W99879  25.488  11.190  11.968
28209W        W99880  40.427   6.716  11.532
28210W        W99881  41.747  28.704  11.532
28211W        W99882  24.124  25.744  10.527
28212W        W99883   2.706  29.128  11.905
28213W        W99884  19.815  14.697   0.859
28214W        W99885  24.707  16.387  13.885
28215W        W99886  34.551   1.174  12.374
28216W        W99887  10.677  38.321  14.460
28217W        W99888   2.677   2.748   2.815
28218W        W99889  40.408   3.364   3.384
28219W        W99890  39.489  26.929  10.670
28220W        W99891  29.686  25.590   2.537
28221W        W99892  34.440  26.497   1.917
28222W        W99893  33.607  13.505  13.236
28223W        W99894   5.948  31.552  14.456
28224W        W99895  18.509  31.955   2.143
28225W        W99896  38.841  44.793   2.052
28226W        W99897   9.685  19.244   1.398
28227W        W99898  25.239  25.033   2.906
28228W        W99899  31.406  14.387   3.655
28229W        W99900  11.333  35.272  12.896
28230W        W99901   7.794  22.069  12.787
28231W        W99902   7.583  28.957   0.787
28232W        W99903  19.375  17.263   0.951
28233W        W99904  27.103  19.726   2.602
28234W        W99905  12.286  38.829  11.232
28235W        W99906   7.128  30.625   0.238
28236W        W99907  18.637  34.524  10.031
28237W        W99908  26.978   6.750  14.466
28238W        W99909  36.670  33.593   2.791
28239W        W99910  25.042  40.578  10.554
28240W        W99911   9.695  28.914   4.406
28241W        W99912   7.762  26.975  13.410
28242W        W99913   9.145  11.698  11.211
28243W        W99914  13.303   2.963  12.486
28244W        W99915  39.728  44.510  13.459
28245W        W99916  22.317  39.343   0.471
28246W        W99917  37.831  42.362  12.004
28247W        W99918  42.774  17.127  11.922
28248W        W99919  13.346  41.960  14.798
28249W        W99920  39.780   7.817  12.649
28250W        W99921   9.281   3.296  13.427
28251W        W99922   4.783   7.170  11.194
28252W        W99923  27.527  35.767  11.577
28253W        W99924   6.623  36.326   4.571
28254W        W99925  29.511  25.740  13.648
28255W        W99926   7.307  38.038  10.721
28256W        W99927  26.975  19.245   0.850
28257W        W99928   8.769  36.976   0.411
28258W        W99929  26.483  21.023   2.280
28259W        W99930  42.969  17.492  13.380
28260W        W99931  43.819   5.477  12.932
28261W        W99932  26.894  25.236  14.018
28262W        W99933  31.559  16.554  11.253
28263W        W99934  26.056  21.013  14.487
28264W        W99935   3.839  43.207   4.937
28265W        W99936  26.479   6.267  14.159
28266W        W99937  30.508   3.708  11.108
28267W        W99938   1.293  21.462   4.945
28268W        W99939   2.960  22.254   5.371
28269W        W99940  35.321  32.854   3.794
28270W        W99941   8.846  25.031  10.856
28271W        W99942   9.671  42.034   0.424
28272W        W99943   3.831  24.783  13.765
28273W        W99944  25.051  16.767  13.952
28274W        W99945  27.072   9.889  11.511
28275W        W99946  16.807   6.642  10.989
28276W        W99947  14.339  14.057   1.401
28277W        W99948   4.288  19.136   4.221
28278W        W99949  12.719  44.769   4.888
28279W        W99950  44.193   5.962   3.762
28280W        W99951  40.495  14.195  12.195
28281W        W99952   9.468  23.959  13.177
28282W        W99953  40.650  32.739  11.774
28283W        W99954  14.247  10.418  11.188
28284W        W99955  36.942  38.835   1.713
28285W        W99956  12.533   5.684   4.134
28286W        W99957   1.793  21.443  12.055
28287W        W99958   4.272   9.856  12.436
28288W        W99959  26.978  23.608  14.896
28289W        W99960   6.061   5.198  14.960
28290W        W99961  10.277  10.796  13.904
28291W        W99962  14.695  25.455  11.877
28292W        W99963  20.092  17.845   2.206
28293W        W99964  41.412  32.899   3.245
28294W        W99965  35.363   0.482  13.786
28295W        W99966  37.769  34.833   1.704
28296W        W99967  15.196  10.379  11.194
28297W        W99968  30.749  37.987  10.378
28298W        W99969  39.185  39.958   5.079
28299W        W99970  14.078   7.714   3.676
28300W        W99971  10.603  39.423   4.260
28301W        W99972  39.107   8.825  13.946
28302W        W99973  16.821  38.341  13.479
28303W        W99974  20.563  24.694  12.023
28304W        W99975  20.202   6.317  13.557
28305W        W99976  28.940  41.895  10.480
28306W        W99977  21.643  31.661  14.708
28307W        W99978   5.781  19.636  14.354
28308W        W99979  13.639  39.616   3.850
28309W        W99980  31.504  44.344   1.173
28310W        W99981  43.226  32.072   4.339
28311W        W99982  22.228  38.563  11.507
28312W        W99983  17.324  10.842   4.974
28313W        W99984  43.299   2.471   2.772
28314W        W99985  23.078   0.493   3.128
28315W        W99986  26.056  42.808  10.710
28316W        W99987   2.935  44.633  13.392
28317W        W99988  14.603   5.132  14.346
28318W        W99989  37.669   3.792  12.496
28319W        W99990  38.752  32.877  13.818
28320W        W99991  44.936  33.443  12.325
28321W        W99992  10.678  22.109  12.755
28322W        W99993  32.864   4.151   1.227
28323W        W99994  21.579  25.389  11.912
28324W        W99995   6.936  23.473  13.034
28325W        W99996  40.470   0.312  10.641
28326W        W99997  16.476  14.289   3.779
28327W        W99998   8.700  11.661   3.680
28328W        W99999  16.908  31.417  13.815
28329W        W    0  15.468  37.781  11.642
28330W        W    1  41.189  34.682  12.154
28331W        W    2  19.501  41.184  12.384
28332W        W    3   7.914  33.978   0.019
28333W        W    4  27.524   7.944  14.498
28334W        W    5  29.833   5.859   4.797
28335W        W    6  39.956  43.459   2.360
28336W        W    7  24.298   0.172   0.762
28337W        W    8   4.143  43.536   0.807
28338W        W    9  18.537  22.687  10.562
28339W        W   10   8.375  22.808  12.382
28340W        W   11  43.757  13.672  13.534
28341W        W   12   8.621  30.389  11.579
28342W        W   13  31.846  22.755  13.040
28343W        W   14  21.313  39.158   3.459
28344W        W   15   7.388  38.201   1.226
28345W        W   16   0.716  10.365  14.222
28346W        W   17   6.630  40.340  10.700
28347W        W   18  39.757  42.962   0.315
28348W        W   19  31.778  34.550   3.176
28349W        W   20   4.830   0.214  13.587
28350W        W   21  12.934  25.979   1.257
28351W        W   22  11.187  27.412   2.363
28352W        W   23  43.989  33.107   0.800
28353W        W   24   1.955  26.260   0.823
28354W        W   25  26.655  37.045   0.311
28355W        W   26  12.433  39.933  14.002
28356W        W   27  41.141   4.408   3.588
28357W        W   28  43.783   8.703  12.978
28358W        W   29  33.030  40.084   3.237
28359W        W   30  28.592   5.417  14.425
28360W        W   31  24.241  43.319  11.600
28361W        W   32  13.602  24.511   2.311
28362W        W   33   8.384  39.609   3.251
28363W        W   34  36.258  15.512   0.320
28364W        W   35  26.983  40.387  12.419
28365W        W   36  24.734  10.350  14.342
28366W        W   37  32.102  11.374  11.158
28367W        W   38   7.942  10.147   9.996
28368W        W   39  24.381  23.711   0.089
28369W        W   40  43.892  32.954   2.183
28370W        W   41  27.563  34.454  14.394
28371W        W   42   4.419  13.827   2.620
28372W        W   43  26.576  40.006   3.107
28373W        W   44  25.832   5.307   1.776
28374W        W   45   3.880  19.726  14.699
28375W        W   46  15.167  29.954  12.745
28376W        W   47  26.980   4.268   1.933
28377W        W   48  32.596  10.742   0.683
28378W        W   49  12.998  23.284  13.059
28379W        W   50  29.718  27.138  11.548
28380W        W   51  27.450  36.992   1.299
28381W        W   52  19.882  24.986   2.503
28382W        W   53  36.520   2.202   4.141
28383W        W   54  20.814  34.131  14.835
28384W        W   55  25.500  37.957  11.737
28385W        W   56  34.977  13.903   5.322
28386W        W   57  24.257   9.924  13.551
28387W        W   58  19.283  12.335  13.493
28388W        W   59   0.471  40.630   4.927
28389W        W   60  19.277  27.112  14.018
28390W        W   61  15.632  44.542   1.822
28391W        W   62  40.384  33.038   3.060
28392W        W   63  11.276  40.007   0.180
28393W        W   64   1.895  21.841  12.420
28394W        W   65  14.756  30.805  12.919
28395W        W   66   1.118  25.236  11.281
28396W        W   67  11.655  36.878   3.887
28397W        W   68  23.456  28.937   3.339
28398W        W   69  17.341  40.816  10.225
28399W        W   70  37.569  28.230   4.563
28400W        W   71  12.881  39.982  10.787
28401W        W   72  36.101  23.613   3.236
28402W        W   73  24.413  28.623   0.042
28403W        W   74  35.684   0.775   1.804
28404W        W   75   3.940   8.373   1.050
28405W        W   76  21.802   3.151  13.638
28406W        W   77   5.821  29.074  11.177
28407W        W   78  31.918   6.198   3.717
28408W        W   79  31.798   9.351  10.870
28409W        W   80   6.446  28.481   3.564
28410W        W   81  43.848   9.683  13.830
28411W        W   82  10.084  35.014   3.690
28412W        W   83   7.874  21.692   3.042
28413W        W   84  33.379  13.842   3.799
28414W        W   85  36.448  23.037   4.912
28415W        W   86  24.576  17.810   1.498
28416W        W   87  28.632  31.379   0.802
28417W        W   88  16.063   6.333   3.639
28418W        W   89   3.334  26.899  14.055
28419W        W   90   2.845  11.599   3.777
28420W        W   91   9.678  17.283  10.554
28421W        W   92   0.088  26.531  14.349
28422W        W   93   7.183  20.895  14.425
28423W        W   94  43.737  42.494   3.270
28424W        W   95  17.513   0.026  13.441
28425W        W   96   6.425  10.275  13.899
28426W        W   97  38.994  33.894  13.078
28427W        W   98  42.719  24.057  10.633
28428W        W   99  20.258   2.637   0.098
28429W        W  100  42.610  22.577  12.928
28430W        W  101  11.358  21.685   1.705
28431W        W  102  21.474  39.406  10.148
28432W        W  103  32.923  20.808   4.387
28433W        W  104  31.428  14.257   4.575
28434W        W  105  21.295   5.698  10.783
28435W        W  106  31.087  16.460   4.088
28436W        W  107  20.876  21.076  10.042
28437W        W  108  33.674  36.277   0.913
28438W        W  109   4.851  11.809  12.761
28439W        W  110  38.286  43.694   1.977
28440W        W  111  19.602  36.305   4.204
28441W        W  112   1.888  20.827  12.550
28442W        W  113   5.286   5.311  12.881
28443W        W  114   4.762  10.874   3.142
28444W        W  115  36.521  41.975  13.647
28445W        W  116  15.155  31.666   3.321
28446W        W  117  16.069   7.179  12.019
28447W        W  118   7.771  35.339  12.360
28448W        W  119  26.501  22.795   0.374
28449W        W  120  10.618   2.363   2.193
28450W        W  121  20.241  17.072   2.852
28451W        W  122  23.936  27.967  14.370
28452W        W  123   8.162   4.465   2.278
28453W        W  124  32.972  25.132   0.831
28454W        W  125   1.364  30.037   2.645
28455W        W  126  13.602   8.263  11.461
28456W        W  127  42.767   5.632   2.760
28457W        W  128  43.529   4.936   4.180
28458W        W  129  22.733  12.032   3.833
28459W        W  130  14.776  44.076  14.763
28460W        W  131   5.360  36.082  11.076
28461W        W  132  42.417  19.182  11.539
28462W        W  133   2.552  34.506   0.460
28463W        W  134  10.881  21.242  12.911
28464W        W  135  22.918  22.472   4.882
28465W        W  136  18.838   4.587   5.056
28466W        W  137  39.794  36.923   0.314
28467W        W  138  14.615  34.925  10.605
28468W        W  139   0.828  21.517   0.944
28469W        W  140   1.652  29.423  11.298
28470W        W  141   2.545  18.290   1.335
28471W        W  142   6.744  23.145  12.165
28472W        W  143  19.353  17.249   3.460
28473W        W  144   3.378  35.505   1.909
28474W        W  145   9.794  10.909  12.482
28475W        W  146   2.227  19.606  14.859
28476W        W  147  22.257   0.746  12.016
28477W        W  148  44.332   0.787  13.671
28478W        W  149  40.133  19.006   2.741
28479W        W  150  37.432  13.303   5.132
28480W        W  151  19.279   5.955  13.112
28481W        W  152  37.572  17.589   2.260
28482W        W  153   1.563  41.507  14.304
28483W        W  154  16.952  30.375  14.869
28484W        W  155  39.328  23.041  11.472
28485W        W  156  18.284   1.737   4.140
28486W        W  157   0.398  14.867  14.087
28487W        W  158  44.998  10.126  11.297
28488W        W  159  35.336  30.059  14.854
28489W        W  160   0.933  24.988  14.930
28490W        W  161   3.762  18.056  12.661
28491W        W  162   2.137  17.818   1.882
28492W        W  163   5.035  34.092   4.585
28493W        W  164   1.975  18.705   3.776
28494W        W  165  17.522  34.503  10.905
28495W        W  166  30.610  17.624   2.783
28496W        W  167  29.607  39.085   0.714
28497W        W  168  42.773   2.508  14.521
28498W        W  169  30.939  12.026   0.134
28499W        W  170  41.632  20.013   0.570
28500W        W  171   0.403  20.195  13.841
28501W        W  172  32.890  14.609  13.409
28502W        W  173  16.536  18.698   1.740
28503W        W  174  20.412   1.448  12.551
28504W        W  175  25.538  22.822  10.627
28505W        W  176  40.001   5.810   2.264
28506W        W  177   2.616  22.492   1.500
28507W        W  178  19.056   6.193   3.578
28508W        W  179  44.554  38.886  13.173
28509W        W  180  40.576   4.005  11.045
28510W        W  181  35.919  23.702   1.953
28511W        W  182  41.411  44.500   1.750
28512W        W  183  16.733   2.243   1.127
28513W        W  184  41.015   1.400  12.746
28514W        W  185  28.140   0.481   4.999
28515W        W  186  19.634  10.169  11.989
28516W        W  187  33.919  41.806  11.962
28517W        W  188   6.455   7.761  11.015
28518W        W  189  28.067  22.179   4.174
28519W        W  190  32.654  39.907   2.944
28520W        W  191  16.490   5.310   4.538
28521W        W  192  31.526  16.980  13.479
28522W        W  193  39.848  16.127   2.731
28523W        W  194  42.680  38.516   3.727
28524W        W  195  16.052  18.631  12.155
28525W        W  196  16.670   4.416   9.721
28526W        W  197  17.721  37.650  10.575
28527W        W  198   1.437  30.939  14.881
28528W        W  199   9.803  39.800  11.065
28529W        W  200  35.277  10.253  12.293
28530W        W  201   7.384   2.456   1.104
28531W        W  202  16.123  43.241  14.520
28532W        W  203  17.559  40.183   0.934
28533W        W  204  43.114   5.781   1.425
28534W        W  205  28.582  16.169   3.338
28535W        W  206  27.116  40.968  11.874
28536W        W  207  18.239   7.637  14.983
28537W        W  208  25.917  22.493   1.224
28538W        W  209   3.327  43.514  10.903
28539W        W  210   4.261  20.576   2.174
28540W        W  211  20.295  18.553  13.149
28541W        W  212   5.799   8.603   3.829
28542W        W  213  43.948  13.271  14.342
28543W        W  214  20.332  37.675   4.117
28544W        W  215   6.798   2.250  12.373
28545W        W  216  11.122   0.460  14.079
28546W        W  217  27.450  16.789  13.474
28547W        W  218  29.004  15.348  12.568
28548W        W  219   5.890  39.565   2.542
28549W        W  220  29.176  11.112  11.857
28550W        W  221   8.241  22.022   2.796
28551W        W  222   2.226  43.468   4.488
28552W        W  223   2.699  31.038   0.772
28553W        W  224   4.996   3.338   4.164
28554W        W  225  42.255  33.035   4.089
28555W        W  226  33.899  32.871  12.670
28556W        W  227  25.166   1.324   1.982
28557W        W  228  40.293  13.869  10.956
28558W        W  229  25.499  33.958  10.655
28559W        W  230  10.276  31.544  11.687
28560W        W  231  28.296   0.250  10.482
28561W        W  232   4.499  28.538   3.263
28562W        W  233  11.730  44.534  11.771
28563W        W  234  41.106  16.257  12.881
28564W        W  235  11.419   0.415   3.155
28565W        W  236  17.505  41.877  10.513
28566W        W  237  43.413  17.821  13.394
28567W        W  238  12.639  10.894   0.458
28568W        W  239  39.929  25.423  12.966
28569W        W  240  15.811  41.043  11.620
28570W        W  241  20.513  10.699  14.067
28571W        W  242  29.624  27.405  14.476
28572W        W  243   0.467  29.623   4.759
28573W        W  244  32.504  24.232   3.370
28574W        W  245  19.169  25.499   5.552
28575W        W  246  44.590  25.617   0.352
28576W        W  247  41.415  38.077  11.425
28577W        W  248  21.515  21.292   0.747
28578W        W  249  29.241  28.001  13.453
28579W        W  250  33.660  23.690   4.087
28580W        W  251  29.738  31.171   4.757
28581W        W  252  28.123  24.722   3.987
28582W        W  253  13.742  25.179  13.324
28583W        W  254   0.697   0.422  11.974
28584W        W  255  12.255  15.220   1.336
28585W        W  256  25.613   1.016   3.143
28586W        W  257  19.845  15.346   3.129
28587W        W  258  39.910   4.406   3.774
28588W        W  259  29.980  42.544  12.804
28589W        W  260  39.536  40.934   4.593
28590W        W  261  12.253  24.277   2.340
28591W        W  262  23.574  18.037   0.842
28592W        W  263  16.288  40.048   2.151
28593W        W  264  34.236  34.908   3.212
28594W        W  265   6.678  19.253   3.252
28595W        W  266   4.819   5.949  10.766
28596W        W  267   5.408  19.919  14.884
28597W        W  268   2.224  32.668  12.436
28598W        W  269  14.164  36.421   1.927
28599W        W  270  31.850  29.161  14.063
28600W        W  271  26.552   9.429   1.832
28601W        W  272  33.648  36.871   3.091
28602W        W  273  43.240  17.754  11.234
28603W        W  274  16.094  37.575   2.256
28604W        W  275   7.743  14.328   2.759
28605W        W  276  14.211  10.678  11.913
28606W        W  277  44.588  15.032   5.354
28607W        W  278  21.176  31.419   4.428
28608W        W  279  20.539  34.892  13.934
28609W        W  280  19.296  30.673   0.846
28610W        W  281  26.283   7.533   5.399
28611W        W  282  10.928  24.916   1.525
28612W        W  283  18.052   1.971   3.323
28613W        W  284  44.661  31.024   2.405
28614W        W  285  39.988   1.358  12.606
28615W        W  286   9.328  41.973  10.751
28616W        W  287  28.403  28.051  12.393
28617W        W  288  36.985  21.062  14.139
28618W        W  289  32.896  39.654   1.235
28619W        W  290   2.754  44.306   0.382
28620W        W  291  25.816  11.694   2.809
28621W        W  292   6.050  15.078   1.912
28622W        W  293  41.926  28.653   1.003
28623W        W  294  32.685  16.241   1.886
28624W        W  295   8.161  28.504   1.977
28625W        W  296  28.938  30.924  14.018
28626W        W  297  32.197   6.631   1.231
28627W        W  298   4.834  13.647   2.327
28628W        W  299  13.175  35.784  13.362
28629W        W  300  38.870  42.682  11.277
28630W        W  301  32.015  22.004   0.357
28631W        W  302   4.779   1.667  12.358
28632W        W  303  41.981  11.816   4.110
28633W        W  304   4.900   8.936   3.372
28634W        W  305   8.441  13.271  12.523
28635W        W  306   0.543   4.776  11.069
28636W        W  307  15.900  25.928   1.248
28637W        W  308  34.076   0.189   2.636
28638W        W  309  22.540  11.300  13.334
28639W        W  310  41.295  33.853   0.047
28640W        W  311  33.368   8.782  11.189
28641W        W  312  24.224  10.535   2.865
28642W        W  313  38.844  26.948   4.719
28643W        W  314  21.542  34.844   4.205
28644W        W  315  32.981   3.699  11.126
28645W        W  316  39.545  18.260  12.940
28646W        W  317   0.476   3.706  12.930
28647W        W  318  22.642  20.035  12.107
28648W        W  319  11.273   0.487   0.112
28649W        W  320  41.525   7.646   4.508
28650W        W  321  36.598  16.859  10.948
28651W        W  322  31.942   9.125   2.355
28652W        W  323  10.376  13.320   2.899
28653W        W  324  10.757  24.971  10.631
28654W        W  325  11.993  43.308  10.511
28655W        W  326  36.106   1.687  13.381
28656W        W  327   6.636  20.606   2.660
28657W        W  328  21.607  28.560   1.456
28658W        W  329  36.051   1.372   3.104
28659W        W  330  16.732  19.244  12.429
28660W        W  331  11.628  19.979  11.216
28661W        W  332   9.138  37.102   0.892
28662W        W  333   3.156  28.539  14.209
28663W        W  334  16.264  34.385  14.222
28664W        W  335  26.706  21.427   3.628
28665W        W  336   3.683  42.925   2.746
28666W        W  337  38.464   5.721   2.404
28667W        W  338  41.871  42.301  10.661
28668W        W  339  36.381  10.641   0.509
28669W        W  340  19.053  22.195   4.833
28670W        W  341   9.648  40.035   1.436
28671W        W  342  44.237  18.514  12.210
28672W        W  343  27.242  34.883   2.874
28673W        W  344  35.601  37.237   3.237
28674W        W  345  14.211  21.624   3.099
28675W        W  346  37.036  31.182  13.585
28676W        W  347  29.517  40.088  12.055
28677W        W  348  20.114  31.488   1.756
28678W        W  349  17.104   1.175  14.409
28679W        W  350  35.572  14.721  11.924
28680W        W  351  27.717   6.530   1.244
28681W        W  352  37.356   0.225  13.963
28682W        W  353  24.933  29.451  11.201
28683W        W  354   1.013  24.887  13.923
28684W        W  355  42.427   2.338  11.751
28685W        W  356  33.783  43.991  11.691
28686W        W  357  35.656  37.616   4.548
28687W        W  358  33.477  26.348  13.865
28688W        W  359  31.689  15.733   2.367
28689W        W  360  10.641  15.750  14.484
28690W        W  361  25.351  22.501   2.674
28691W        W  362  13.515  39.272  12.382
28692W        W  363  40.018  26.912  10.647
28693W        W  364  38.753  37.439  13.719
28694W        W  365   3.605  38.263   1.410
28695W        W  366   7.354  37.417  13.652
28696W        W  367  28.309   8.952  10.672
28697W        W  368  41.587  13.533  14.491
28698W        W  369   8.690  20.993   3.708
28699W        W  370   8.884  26.867   1.305
28700W        W  371  22.829  44.983  14.906
28701W        W  372  10.178  20.975   0.349
28702W        W  373  10.195  33.660   3.201
28703W        W  374  20.748  32.957   1.305
28704W        W  375  37.556  22.216   0.243
28705W        W  376  20.602   9.710  10.624
28706W        W  377  35.533  20.631  10.358
28707W        W  378  21.696  31.850  11.967
28708W        W  379  35.077  44.737  14.955
28709W        W  380  30.935  31.700   2.946
28710W        W  381  35.473  13.666   0.227
28711W        W  382  40.081  12.786   3.595
28712W        W  383  38.729   6.245  14.932
28713W        W  384  30.460   6.991   0.890
28714W        W  385   2.831  33.155   0.939
28715W        W  386   9.876  16.683   0.016
28716W        W  387  30.373   4.973   4.064
28717W        W  388  23.594   9.568  14.250
28718W        W  389  19.971   6.348   1.817
28719W        W  390  29.901  22.472  11.464
28720W        W  391  21.507  37.581   1.853
28721W        W  392  33.943  11.751  11.556
28722W        W  393  42.680  39.092   0.332
28723W        W  394  12.318  18.298   1.860
28724W        W  395   6.474   2.827   0.009
28725W        W  396   1.944  29.923   1.409
28726W        W  397  10.584  30.495   5.027
28727W        W  398   3.444  18.819  13.691
28728W        W  399   8.683   4.518   0.411
28729W        W  400  35.954  14.916   2.855
28730W        W  401  11.538  35.935  14.018
28731W        W  402   6.091  18.063   1.796
28732W        W  403   8.165  43.963   2.387
28733W        W  404  32.023  28.619  14.393
28734W        W  405  16.534  10.309   2.770
28735W        W  406  35.015  20.776   0.878
28736W        W  407  30.964  31.863   1.258
28737W        W  408  12.067  27.551  13.551
28738W        W  409  35.748  40.897  10.722
28739W        W  410  25.760  21.674   4.920
28740W        W  411  28.579  43.400  14.774
28741W        W  412  31.991   5.859  13.272
28742W        W  413  39.283  11.275  12.104
28743W        W  414   9.122  15.829  14.312
28744W        W  415  24.753   0.134  14.928
28745W        W  416  12.196   5.710  13.057
28746W        W  417  25.829  39.942   0.570
28747W        W  418  15.175  41.522   3.811
28748W        W  419  15.175  19.095  10.702
28749W        W  420  10.274  35.125   0.329
28750W        W  421  21.176   7.826  11.577
28751W        W  422  32.162   6.316   4.603
28752W        W  423  36.559  33.510  13.729
28753W        W  424  44.811  26.140  13.121
28754W        W  425  44.490  22.154   1.433
28755W        W  426  40.205  19.481  14.413
28756W        W  427  26.684  11.759   4.706
28757W        W  428  32.134  33.489   0.860
28758W        W  429  34.001   5.392   4.089
28759W        W  430  30.526  39.566  12.623
28760W        W  431   7.954  15.489  12.461
28761W        W  432  25.592  15.408   2.175
28762W        W  433  44.582  41.457   3.559
28763W        W  434  35.250   6.714  12.966
28764W        W  435   2.949  28.240   0.092
28765W        W  436   2.537  43.738   2.172
28766W        W  437  14.300   8.993   0.498
28767W        W  438   8.426  43.804   0.999
28768W        W  439   0.666  21.517   0.056
28769W        W  440  19.773  42.947  10.658
28770W        W  441  28.419   4.745  11.102
28771W        W  442   7.971  32.642   0.440
28772W        W  443  43.160  44.897  12.368
28773W        W  444  24.983  11.239  12.371
28774W        W  445  18.133  21.639   2.426
28775W        W  446  17.595   4.699  11.011
28776W        W  447   2.670   5.073  13.025
28777W        W  448  28.202  12.684   0.317
28778W        W  449  26.934   6.328   3.064
28779W        W  450  28.231   6.077  11.558
28780W        W  451  35.565  19.773   1.339
28781W        W  452   0.193   7.851  11.580
28782W        W  453  33.060  23.054  12.842
28783W        W  454  22.177  37.490   2.198
28784W        W  455   7.224   8.086   3.498
28785W        W  456   8.280  27.085  12.927
28786W        W  457  43.674  25.094   4.829
28787W        W  458  25.960   3.806   2.272
28788W        W  459   6.312  33.384  13.967
28789W        W  460   2.413  27.623   2.206
28790W        W  461   1.290  22.303   3.754
28791W        W  462  14.624  23.924  14.087
28792W        W  463  33.520   9.101   3.675
28793W        W  464  38.471  15.532   3.566
28794W        W  465  12.719  40.351  11.099
28795W        W  466  43.193   6.283  11.593
28796W        W  467  27.176   7.046   2.329
28797W        W  468  10.035  22.616  12.160
28798W        W  469  10.595  33.942   3.328
28799W        W  470  25.736   4.889  13.747
28800W        W  471   0.172  33.881   4.294
28801W        W  472  42.516  15.141  14.482
28802W        W  473  15.371  21.207   5.044
28803W        W  474  15.706  14.662   0.336
28804W        W  475   4.250  16.847  14.996
28805W        W  476  42.552  14.695   4.112
28806W        W  477  26.639  32.768   4.164
28807W        W  478  14.234  31.576  14.253
28808W        W  479  18.289   8.812   2.640
28809W        W  480  28.966  44.597  14.538
28810W        W  481   6.745   7.843   0.737
28811W        W  482  43.156  35.692  11.660
28812W        W  483  22.083  41.027  12.031
28813W        W  484  31.316  38.914  10.575
28814W        W  485   6.286  33.501  11.319
28815W        W  486  10.321   1.280   3.256
28816W        W  487  39.082  30.743  12.844
28817W        W  488  16.746  26.291  13.847
28818W        W  489  31.131   3.971  12.316
28819W        W  490  18.669  41.844  11.273
28820W        W  491   8.707  36.166  12.914
28821W        W  492  26.907  10.448   4.671
28822W        W  493  14.042  14.307  12.251
28823W        W  494  43.802   6.934  13.906
28824W        W  495  28.239  43.954   3.767
28825W        W  496  36.026  18.303   2.271
28826W        W  497  36.299   5.390   1.252
28827W        W  498  11.366  39.390   0.792
28828W        W  499   9.619  35.475   2.272
28829W        W  500  12.752   2.906   1.100
28830W        W  501  39.034  22.812  13.533
28831W        W  502  30.522  22.472   2.398
28832W        W  503   9.649  32.453  13.754
28833W        W  504  20.230  27.884   4.034
28834W        W  505  42.388  11.616  13.957
28835W        W  506  28.085  32.182   1.682
28836W        W  507   7.705  14.595   0.843
28837W        W  508  23.068   5.068  13.380
28838W        W  509  39.331   5.300  14.895
28839W        W  510  24.660  22.474   1.954
28840W        W  511  32.976  23.696   4.603
28841W        W  512  33.907  27.414  11.569
28842W        W  513  35.467   0.222   1.118
28843W        W  514  13.631   5.919  12.018
28844W        W  515  41.354  36.590   4.028
28845W        W  516  25.354  23.231  11.921
28846W        W  517  20.705  35.512  14.940
28847W        W  518   5.911  23.738  13.984
28848W        W  519  36.743  36.125  10.179
28849W        W  520  33.382  32.057  13.120
28850W        W  521  14.210  33.416   1.463
28851W        W  522  37.422  12.120   0.808
28852W        W  523  11.231  10.366   2.691
28853W        W  524   0.412   2.986   2.226
28854W        W  525   0.343  17.123  12.204
28855W        W  526   7.242  40.752   0.826
28856W        W  527  30.322  41.904   3.710
28857W        W  528   3.894  13.596  12.831
28858W        W  529  30.647  17.185   3.085
28859W        W  530  15.179  28.278  10.710
28860W        W  531  10.278   2.726   3.796
28861W        W  532  24.614  20.011  14.784
28862W        W  533  41.927  44.183  13.988
28863W        W  534   5.760  32.681  12.574
28864W        W  535   5.496  40.403  13.770
28865W        W  536  43.387   2.057   1.832
28866W        W  537  22.026   7.582   4.114
28867W        W  538  13.543  32.051  13.246
28868W        W  539  13.757   3.863   0.473
28869W        W  540   7.232   3.351   0.929
28870W        W  541   6.814  24.653   4.514
28871W        W  542  17.570   1.391  13.594
28872W        W  543  44.526   4.570   3.297
28873W        W  544  10.304   0.736  13.471
28874W        W  545  25.557  43.967   0.933
28875W        W  546  36.079  37.100   3.103
28876W        W  547  41.386  27.929  11.609
28877W        W  548  11.018  37.458  13.248
28878W        W  549  19.015   5.922   1.715
28879W        W  550   2.657  43.495   1.052
28880W        W  551  25.228   9.176  13.576
28881W        W  552  43.413  39.715  12.931
28882W        W  553  42.552   0.588   1.731
28883W        W  554   5.271  23.739  12.233
28884W        W  555  33.812   6.272   3.597
28885W        W  556  14.841   9.721  12.937
28886W        W  557  21.315   6.137  11.068
28887W        W  558  39.572  44.978   4.988
28888W        W  559  43.816   0.993   1.166
28889W        W  560   9.763  38.936  13.264
28890W        W  561  14.540  23.141  14.713
28891W        W  562  25.960  29.089   4.495
28892W        W  563  14.861  36.402  12.004
28893W        W  564  35.833   8.898  12.053
28894W        W  565   7.676  14.622  12.923
28895W        W  566  16.274  29.156   1.479
28896W        W  567   9.304   8.508   2.680
28897W        W  568  29.050   6.859   4.177
28898W        W  569   0.703  20.639   1.528
28899W        W  570   3.219   5.825  12.218
28900W        W  571  21.781   8.193  12.187
28901W        W  572   0.732  11.447   1.026
28902W        W  573  35.975  12.658   0.953
28903W        W  574  36.722  28.725  11.135
28904W        W  575   2.418   8.697  11.114
28905W        W  576  27.564  36.319  10.794
28906W        W  577  23.936  17.617  10.892
28907W        W  578  27.304  22.035   2.810
28908W        W  579   4.754  26.425  11.156
28909W        W  580   4.311   0.658  14.003
28910W        W  581   1.429   6.711   4.259
28911W        W  582  22.039  29.082   3.770
28912W        W  583   6.640  33.389   1.778
28913W        W  584  35.475  22.531   2.935
28914W        W  585  43.703   0.539  12.900
28915W        W  586  14.558  20.732  11.937
28916W        W  587  17.110  21.642  14.819
28917W        W  588  18.797  28.978   4.164
28918W        W  589  26.151  44.374  12.112
28919W        W  590  22.492  17.348   1.043
28920W        W  591  34.921  23.776   2.250
28921W        W  592  12.321  19.230  14.874
28922W        W  593  12.558  43.746  11.212
28923W        W  594  20.353  12.404  10.439
28924W        W  595  12.841  21.680   3.246
28925W        W  596  30.599   5.970  13.515
28926W        W  597   3.260  15.260  14.909
28927W        W  598  14.200  34.379   4.969
28928W        W  599  29.851  21.445   2.558
28929W        W  600  10.597  44.297   4.703
28930W        W  601  26.074  20.588  13.068
28931W        W  602   1.724  19.598   4.982
28932W        W  603  44.911  25.028   1.803
28933W        W  604  26.061  23.665   2.637
28934W        W  605   7.704  16.345  13.495
28935W        W  606  13.367  38.229   2.411
28936W        W  607  11.702   1.754  13.957
28937W        W  608  38.570  25.842  14.531
28938W        W  609  23.977  39.393   0.349
28939W        W  610  44.053  25.880  14.854
28940W        W  611  42.816  17.452   2.707
28941W        W  612  41.747  20.838  13.310
28942W        W  613  30.151  33.464  12.832
28943W        W  614   8.761  33.400   1.914
28944W        W  615   3.054  13.215  14.399
28945W        W  616  40.736  38.283   0.874
28946W        W  617  14.711  42.583  11.985
28947W        W  618  30.900  10.230   2.233
28948W        W  619  24.279  43.468   0.985
28949W        W  620  27.077  13.709  12.920
28950W        W  621   0.461  44.891  11.958
28951W        W  622  25.736  14.150   9.863
28952W        W  623  18.148  24.863  14.073
28953W        W  624  10.638  19.070   4.367
28954W        W  625   3.957  21.132  13.599
28955W        W  626  32.366  22.548   2.786
28956W        W  627  25.821   2.763  10.489
28957W        W  628   5.213   6.291   2.815
28958W        W  629  26.982  19.206  14.934
28959W        W  630   8.254  43.687  13.394
28960W        W  631  17.710   1.616   0.210
28961W        W  632   8.458  43.469  11.104
28962W        W  633   0.973   9.829   0.767
28963W        W  634  19.346  17.229   2.924
28964W        W  635  33.439  44.034   0.301
28965W        W  636  20.630  25.473  10.896
28966W        W  637  43.598  42.081   5.614
28967W        W  638  32.919  29.400  11.419
28968W        W  639  26.598  24.806   4.580
28969W        W  640   1.789  24.203  12.182
28970W        W  641  32.070  43.093  11.534
28971W        W  642   0.750  27.739  14.608
28972W        W  643   4.780  29.394   2.264
28973W        W  644  25.668   7.899  12.604
28974W        W  645  25.724  40.060   1.077
28975W        W  646  12.114  15.461  14.729
28976W        W  647  30.933  23.599   1.468
28977W        W  648  29.555   5.192   3.124
28978W        W  649  14.283  28.666   0.418
28979W        W  650  37.206  39.987  12.595
28980W        W  651  42.267  43.990   0.365
28981W        W  652   8.717  36.001  10.771
28982W        W  653  30.570  15.180   3.607
28983W        W  654   2.824  11.155  12.009
28984W        W  655  30.997  23.523   4.946
28985W        W  656  41.503  10.379   0.480
28986W        W  657  15.235   5.223   2.378
28987W        W  658   6.066  20.282  13.954
28988W        W  659   1.722  26.471  11.199
28989W        W  660   9.657  34.689  12.102
28990W        W  661  10.236   5.451  13.319
28991W        W  662  20.085   5.123  11.042
28992W        W  663   6.378   2.786  11.173
28993W        W  664   3.357  36.539  14.644
28994W        W  665  16.632  15.655  11.149
28995W        W  666  43.548   9.279   2.483
28996W        W  667  28.482   6.390   4.608
28997W        W  668  28.509  27.954   0.285
28998W        W  669   4.498   7.774  11.071
28999W        W  670   1.230  37.315  13.858
29000W        W  671  16.194  12.672  12.285
29001W        W  672  28.095  27.354  11.436
29002W        W  673  43.383   9.740  14.068
29003W        W  674  44.923   6.811   0.915
29004W        W  675  36.812  34.681  13.975
29005W        W  676  13.890  24.226   4.311
29006W        W  677  35.916   2.537  11.919
29007W        W  678  24.125  15.279   2.075
29008W        W  679  29.196  10.191  12.536
29009W        W  680  32.154  30.382   3.763
29010W        W  681  18.346  43.185   3.953
29011W        W  682  17.213  14.915   3.302
29012W        W  683  32.302  43.717   4.452
29013W        W  684   8.330  16.987   1.444
29014W        W  685  17.191  12.896   0.743
29015W        W  686   9.222  21.576   0.801
29016W        W  687  33.242  25.885  13.969
29017W        W  688  37.914  31.441   0.221
29018W        W  689  23.478   9.025   0.487
29019W        W  690  30.281  28.987  14.956
29020W        W  691   3.782  11.094   4.591
29021W        W  692  32.894  27.300   2.677
29022W        W  693   6.464  36.029   0.768
29023W        W  694  11.145   2.301  13.072
29024W        W  695  42.138   2.972  12.980
29025W        W  696  34.255  25.270   3.383
29026W        W  697  40.572  30.612  11.975
29027W        W  698  32.767   6.977   3.802
29028W        W  699  14.170  11.363  11.594
29029W        W  700  44.907  30.631   1.669
29030W        W  701  43.932  17.221   2.223
29031W        W  702  30.011  25.701  13.748
29032W        W  703  34.016  44.422   3.360
29033W        W  704   2.991  25.039  12.646
29034W        W  705  42.784  20.293  13.964
29035W        W  706  35.945  44.433   2.555
29036W        W  707   1.106  34.056   0.860
29037W        W  708  26.676  40.747   2.776
29038W        W  709  28.189  21.664   4.048
29039W        W  710  37.319  12.871  10.405
29040W        W  711  10.558  36.021   3.142
29041W        W  712  34.556  13.446   0.776
29042W        W  713  20.755  20.693   3.918
29043W        W  714  38.412   9.779  10.455
29044W        W  715  39.927  32.913   2.822
29045W        W  716  29.911   5.361   0.972
29046W        W  717  26.218  16.660   3.224
29047W        W  718  31.919  27.925  12.931
29048W        W  719  18.187   2.271  14.403
29049W        W  720   9.677  31.173   3.787
29050W        W  721   7.733  21.398  13.955
29051W        W  722   8.726   6.663  12.050
29052W        W  723  16.281  32.102  11.135
29053W        W  724  35.603  16.031   3.196
29054W        W  725   7.530  30.865   3.805
29055W        W  726  29.701   1.270   3.939
29056W        W  727  39.340  16.295   2.802
29057W        W  728  17.563  12.753  13.578
29058W        W  729  30.931  32.562  14.516
29059W        W  730   7.666  11.716   2.350
29060W        W  731  22.669  15.799  12.964
29061W        W  732   8.099   6.593  13.406
29062W        W  733  35.161  18.282  11.601
29063W        W  734   8.191  28.078  12.627
29064W        W  735  32.613  16.618   4.562
29065W        W  736  31.101  41.805   0.675
29066W        W  737  19.325   8.137   3.223
29067W        W  738  40.133  44.926  13.644
29068W        W  739  40.761  11.719   4.404
29069W        W  740  43.299  40.154   0.950
29070W        W  741  18.536  20.079   3.348
29071W        W  742   4.973  18.285   1.222
29072W        W  743  31.495  15.173  11.914
29073W        W  744   5.484  22.741   0.388
29074W        W  745   5.628  23.608   2.618
29075W        W  746  23.451   1.991   0.575
29076W        W  747  31.940   0.412   5.119
29077W        W  748  35.904  17.299  14.449
29078W        W  749  14.886  19.140   0.820
29079W        W  750  17.926  38.155   2.249
29080W        W  751  28.314   2.798  12.685
29081W        W  752   7.147   8.310  12.553
29082W        W  753  43.010  28.791  12.908
29083W        W  754  40.579  41.283   4.107
29084W        W  755  14.098  23.424  14.712
29085W        W  756  17.583   9.790   3.304
29086W        W  757   9.227   5.176   1.023
29087W        W  758  11.773  28.912  12.151
29088W        W  759  10.277   3.929  14.605
29089W        W  760  28.285  13.853  13.937
29090W        W  761  40.611  18.306  14.403
29091W        W  762  38.429  11.880   1.828
29092W        W  763  21.508  15.631  10.901
29093W        W  764  39.985  15.774  14.994
29094W        W  765   6.351   0.818  12.576
29095W        W  766  35.369  12.782   4.206
29096W        W  767  25.498   1.787   4.678
29097W        W  768  37.629  29.417  12.023
29098W        W  769  38.881  43.129   0.475
29099W        W  770  24.654  32.973  11.909
29100W        W  771  33.525  33.187  13.821
29101W        W  772  43.629  10.832  10.124
29102W        W  773   1.104  38.019   4.389
29103W        W  774  22.261  14.231   3.899
29104W        W  775   7.868  26.477  13.371
29105W        W  776  18.909  35.193  14.224
29106W        W  777  20.593  17.075  13.955
29107W        W  778  25.568  17.267  14.449
29108W        W  779  14.142  26.719   4.635
29109W        W  780  23.298  15.932   0.511
29110W        W  781   1.321  16.831  13.023
29111W        W  782  26.909  18.672  14.900
29112W        W  783   4.700  16.769   4.158
29113W        W  784  22.419   3.044  10.331
29114W        W  785  36.682  39.968  14.447
29115W        W  786   4.242  10.835   2.821
29116W        W  787   5.815  15.162  11.642
29117W        W  788  25.093  27.794  14.937
29118W        W  789  30.654  28.984   1.386
29119W        W  790   1.295   4.109  13.924
29120W        W  791   0.738  34.403   3.276
29121W        W  792   6.430  44.705  14.944
29122W        W  793  28.050  14.730  14.837
29123W        W  794  21.077   0.699  14.491
29124W        W  795   0.612  27.619   3.323
29125W        W  796  33.086  27.487  13.368
29126W        W  797  40.749  31.782   4.214
29127W        W  798  21.313  32.370  11.533
29128W        W  799  28.021  20.701  12.000
29129W        W  800  13.284  39.410  11.545
29130W        W  801  21.745   7.367   0.584
29131W        W  802   8.593  33.645   4.077
29132W        W  803  39.114   4.244  14.282
29133W        W  804  19.486  39.601  11.657
29134W        W  805  29.442  20.510  12.120
29135W        W  806   7.851  29.751   2.689
29136W        W  807  36.386  18.146   2.920
29137W        W  808  29.983   1.328   1.838
29138W        W  809  24.573  43.394   1.392
29139W        W  810   3.384  38.439  11.643
29140W        W  811   4.303  35.342   2.494
29141W        W  812  12.150   7.315  12.221
29142W        W  813  10.884  16.714  10.641
29143W        W  814   3.454  43.042  12.765
29144W        W  815  24.207  23.672  10.365
29145W        W  816  16.049   8.749   4.182
29146W        W  817  40.525   1.162  12.501
29147W        W  818  24.441  36.945  12.053
29148W        W  819  43.535  15.674   1.318
29149W        W  820  41.801  12.778  13.618
29150W        W  821   5.941  22.748   4.136
29151W        W  822  31.517  36.868   1.876
29152W        W  823  37.177  27.328   0.794
29153W        W  824   9.472  19.485   3.554
29154W        W  825  10.465  42.521  12.425
29155W        W  826  36.436  16.235  14.066
29156W        W  827  39.821  16.023  12.541
29157W        W  828   6.512  38.878  11.112
29158W        W  829  11.459  11.741   4.542
29159W        W  830  29.874  21.244  13.049
29160W        W  831   1.422   8.225   4.086
29161W        W  832   4.851  42.750   3.326
29162W        W  833  23.365  14.709   3.676
29163W        W  834   6.926  12.789   2.836
29164W        W  835  18.254  41.457   4.741
29165W        W  836  35.616  24.666  11.134
29166W        W  837  42.823  29.703  10.636
29167W        W  838  39.288  21.096   3.607
29168W        W  839  38.259   8.310  12.091
29169W        W  840  16.576  19.886  14.131
29170W        W  841  36.843  31.084   1.184
29171W        W  842   0.758   3.364  14.983
29172W        W  843  30.680  33.257  11.451
29173W        W  844  12.193  43.777   2.693
29174W        W  845   1.023  28.665   0.361
29175W        W  846  11.585  42.469   1.774
29176W        W  847  39.484  16.787  11.068
29177W        W  848  13.826  36.188  13.078
29178W        W  849  37.712  37.616   3.619
29179W        W  850  41.748   3.743   0.379
29180W        W  851   2.691  44.706   1.797
29181W        W  852  20.667  37.155  10.984
29182W        W  853   3.716  25.105   2.821
29183W        W  854  40.737  30.434  12.488
29184W        W  855   4.462   7.191   1.926
29185W        W  856  39.284  43.557   4.179
29186W        W  857  28.954   4.685   2.628
29187W        W  858  42.498  13.986  11.039
29188W        W  859  43.322   1.571   1.631
29189W        W  860  13.846  34.941  14.393
29190W        W  861   3.884  40.292   3.592
29191W        W  862  18.188  33.957  11.139
29192W        W  863  12.299  28.021  13.619
29193W        W  864  25.723  38.815   5.105
29194W        W  865  38.538  38.598   1.837
29195W        W  866  31.709  40.045  14.660
29196W        W  867  24.823  16.544   3.607
29197W        W  868  19.333  24.637   4.698
29198W        W  869  32.560  16.821   2.758
29199W        W  870  16.742   4.615   3.777
29200W        W  871  12.777   1.042   1.317
29201W        W  872  37.953   6.087  14.940
29202W        W  873  17.413  42.611   2.271
29203W        W  874  36.756   1.828   0.349
29204W        W  875   4.162  28.635  13.239
29205W        W  876  30.500  17.539   1.786
29206W        W  877   5.673  22.442  14.535
29207W        W  878  32.992  31.508   0.762
29208W        W  879  21.661   6.767  11.879
29209W        W  880  18.639  19.677   4.153
29210W        W  881  31.058   3.659   2.415
29211W        W  882  27.107  28.618   3.671
29212W        W  883  14.953  10.569   4.210
29213W        W  884   8.174   3.803  13.002
29214W        W  885  21.239  18.862   0.484
29215W        W  886  22.693  34.563  12.198
29216W        W  887   3.522   1.072   2.231
29217W        W  888  42.366  17.066   3.310
29218W        W  889  21.486   8.196  14.514
29219W        W  890  35.575  41.478   2.486
29220W        W  891  36.935  18.486  13.883
29221W        W  892  41.734  13.857   9.925
29222W        W  893  28.163  44.775  13.068
29223W        W  894  36.034  30.686   4.120
29224W        W  895   1.414  23.578   1.251
29225W        W  896  34.379  17.232   4.344
29226W        W  897  12.246  14.213   1.638
29227W        W  898  21.092  39.556   4.296
29228W        W  899   2.718   8.206  12.050
29229W        W  900  24.191   3.507   0.962
29230W        W  901  21.628  13.345  13.542
29231W        W  902   0.781  35.667   1.420
29232W        W  903  42.396  43.238   0.646
29233W        W  904  13.419  15.626   1.841
29234W        W  905  19.648  17.811  13.602
29235W        W  906  23.064  15.074  11.376
29236W        W  907  10.184  23.812   3.683
29237W        W  908   8.722  21.092   1.429
29238W        W  909  37.491  17.607  14.780
29239W        W  910   6.928  43.036  14.870
29240W        W  911  41.263  26.994  13.388
29241W        W  912  41.712  42.359   2.809
29242W        W  913  38.007  30.429   1.916
29243W        W  914  18.933  35.839   4.569
29244W        W  915  13.868   6.213  12.401
29245W        W  916  21.470  41.518   0.877
29246W        W  917  40.643  40.386   4.181
29247W        W  918   7.034  36.146  14.883
29248W        W  919  17.556  40.796  14.326
29249W        W  920  28.493  15.520   4.078
29250W        W  921   8.731  23.870   4.712
29251W        W  922  10.541  13.240   0.308
29252W        W  923   3.626   5.706   4.132
29253W        W  924  14.785   2.804   4.809
29254W        W  925  43.918  38.925  10.180
29255W        W  926  10.322  14.801  14.360
29256W        W  927  16.588  13.145  10.293
29257W        W  928   2.013  19.585   4.142
29258W        W  929  29.655  10.640   2.263
29259W        W  930  20.552  41.032  10.475
29260W        W  931   4.735  12.164   1.247
29261W        W  932  27.092  17.549  13.995
29262W        W  933   2.943  23.444   4.199
29263W        W  934  42.318  28.864  11.941
29264W        W  935  11.555  13.200  12.430
29265W        W  936  15.557  22.153   4.173
29266W        W  937  11.769  32.170   3.682
29267W        W  938  12.600  38.424   0.469
29268W        W  939   9.068  11.358   4.138
29269W        W  940   0.027  26.528  12.841
29270W        W  941   2.244  23.765  14.329
29271W        W  942  29.810  39.500  14.956
29272W        W  943  37.843  15.602   2.161
29273W        W  944   9.799   0.949  12.061
29274W        W  945  25.384   9.666   2.650
29275W        W  946  25.418  40.885  12.085
29276W        W  947   4.414  29.451  14.159
29277W        W  948  44.374   6.550  10.784
29278W        W  949  39.858   3.754  14.956
29279W        W  950  44.095  27.765   3.272
29280W        W  951  19.014  39.409  11.587
29281W        W  952   3.396  22.289  11.538
29282W        W  953  40.959  12.139   3.363
29283W        W  954  37.062  14.249  12.897
29284W        W  955  35.172  31.205  14.767
29285W        W  956  13.876  21.260  11.701
29286W        W  957  35.106  44.418  14.063
29287W        W  958  13.113  36.467   0.272
29288W        W  959  31.615  42.335   1.307
29289W        W  960  15.125  12.808   2.252
29290W        W  961  32.066   4.851  13.332
29291W        W  962  23.662   8.213  11.939
29292W        W  963  15.626  25.079  10.525
29293W        W  964  39.926  44.936  10.764
29294W        W  965   5.256  44.985   2.319
29295W        W  966   6.125  18.494   3.190
29296W        W  967  29.689  20.945   2.667
29297W        W  968   6.494  10.612   0.883
29298W        W  969  21.742  23.280   5.191
29299W        W  970  28.680   2.314   4.039
29300W        W  971  16.188  28.571  14.880
29301W        W  972  19.499  23.745   0.686
29302W        W  973   7.746  35.628   4.138
29303W        W  974  26.023  21.706   2.612
29304W        W  975   2.190  12.269   4.628
29305W        W  976  40.822  42.269  13.469
29306W        W  977  43.964  27.148  12.511
29307W        W  978  19.828   8.341   4.108
29308W        W  979  16.235  13.210  11.637
29309W        W  980  10.338  18.702  14.570
29310W        W  981  44.290   3.849   1.550
29311W        W  982   9.300  28.494   0.055
29312W        W  983   2.976  40.517  10.506
29313W        W  984  38.481   5.878   4.157
29314W        W  985  40.763  11.726  10.989
29315W        W  986   2.714  43.782   0.224
29316W        W  987  36.862  41.493   3.675
29317W        W  988   4.391  11.130  11.133
29318W        W  989  33.374  31.308   3.136
29319W        W  990  32.719  32.943  13.338
29320W        W  991   9.655  11.862  11.140
29321W        W  992  13.875   6.428  13.312
29322W        W  993  31.300  41.437   4.883
29323W        W  994  27.477  23.720  13.538
29324W        W  995  30.129  21.858   0.459
29325W        W  996  23.244  38.840   4.540
29326W        W  997  44.233  19.237  12.773
29327W        W  998  17.538  13.003  13.088
29328W        W  999  39.869   5.988   1.458
29329W        W 1000  30.898  12.439  12.197
29330W        W 1001   8.394  35.027   0.699
29331W        W 1002   1.363   1.828   3.816
29332W        W 1003   3.855  31.073  13.712
29333W        W 1004  29.213   2.278   0.468
29334W        W 1005  27.116  18.206  13.361
29335W        W 1006  17.781   5.677   3.694
29336W        W 1007   8.002   2.525   4.111
29337W        W 1008  39.075   0.326   4.352
29338W        W 1009  19.721  35.279  13.586
29339W        W 1010  13.768  38.364  11.519
29340W        W 1011   1.531  30.440   3.883
29341W        W 1012  36.373  23.200   2.362
29342W        W 1013  34.339   8.214   4.265
29343W        W 1014  29.655   5.925   2.711
29344W        W 1015  32.339  44.862  10.576
29345W        W 1016  26.521   5.815  10.175
29346W        W 1017   3.984  22.145   1.888
29347W        W 1018  15.416  19.103   4.134
29348W        W 1019  21.934  42.199  13.299
29349W        W 1020  22.179   7.711   1.842
29350W        W 1021  42.861  41.926  12.029
29351W        W 1022   6.557  21.521  11.522
29352W        W 1023  44.841  41.601  13.796
29353W        W 1024  29.783  19.017   1.745
29354W        W 1025  21.211  39.058   4.566
29355W        W 1026   1.993  23.710  13.701
29356W        W 1027  35.425  36.457  12.209
29357W        W 1028  41.022   3.785   1.889
29358W        W 1029  12.174  25.989  10.672
29359W        W 1030  39.959  40.104  13.509
29360W        W 1031  30.881   9.000   3.252
29361W        W 1032  40.922  20.256   2.852
29362W        W 1033  41.345   0.963   3.378
29363W        W 1034  44.849   1.878  10.687
29364W        W 1035  26.354  37.016  12.574
29365W        W 1036  21.263  13.186   4.521
29366W        W 1037  42.034  32.565   4.366
29367W        W 1038  26.158   0.173  11.850
29368W        W 1039  34.391   6.796  12.534
29369W        W 1040  12.464  25.031   4.290
29370W        W 1041  30.659  10.078  14.478
29371W        W 1042  10.887  40.991  10.442
29372W        W 1043  28.278  22.681   5.136
29373W        W 1044  24.817  42.511  11.113
29374W        W 1045  16.550   3.127  13.287
29375W        W 1046  41.857  33.121  11.206
29376W        W 1047   5.244   3.949  13.915
29377W        W 1048   7.117  17.292   0.417
29378W        W 1049  36.261  25.988   2.320
29379W        W 1050   8.107  15.384  14.087
29380W        W 1051  42.866  38.536   5.427
29381W        W 1052   7.004   0.443   0.242
29382W        W 1053  13.877   0.455  12.947
29383W        W 1054  41.744  21.880  12.033
29384W        W 1055  41.785  27.172  12.387
29385W        W 1056  16.174  15.820   0.462
29386W        W 1057  39.358  16.884   3.178
29387W        W 1058   8.811  20.466  12.446
29388W        W 1059  32.840  28.717   4.526
29389W        W 1060  16.071  35.339   0.249
29390W        W 1061  32.400   9.685  11.181
29391W        W 1062  16.046   0.774   4.813
29392W        W 1063  24.047   9.399   2.389
29393W        W 1064  40.558  19.943   3.107
29394W        W 1065  13.162  19.296   0.535
29395W        W 1066  29.552  17.537   4.096
29396W        W 1067  27.660  19.176   4.145
29397W        W 1068  19.331  30.591   4.110
29398W        W 1069  18.694  34.364   4.222
29399W        W 1070  32.572  33.050   4.999
29400W        W 1071  20.204  18.810   2.598
29401W        W 1072  30.417   2.414   4.499
29402W        W 1073  38.546  12.123  14.327
29403W        W 1074  12.233  33.625   1.444
29404W        W 1075  16.758  33.133   3.170
29405W        W 1076  41.021  39.526   2.266
29406W        W 1077  30.934  31.647  13.567
29407W        W 1078  44.493  31.672   0.004
29408W        W 1079  22.772  15.077   1.271
29409W        W 1080   8.106  21.605  14.926
29410W        W 1081  12.605  39.281  12.055
29411W        W 1082  11.611   9.237  13.301
29412W        W 1083  20.185  24.190  13.442
29413W        W 1084   9.737  26.583   1.259
29414W        W 1085   5.764  11.247  10.631
29415W        W 1086   8.227  40.493  10.753
29416W        W 1087  27.445  41.059  12.658
29417W        W 1088  30.460  44.816   0.898
29418W        W 1089  21.722  12.125   3.199
29419W        W 1090  22.136  42.959  12.909
29420W        W 1091  39.876  36.867   3.376
29421W        W 1092  15.363  33.103  12.307
29422W        W 1093  36.463   2.522  13.279
29423W        W 1094  20.790  25.795  11.271
29424W        W 1095  42.759  36.180  12.557
29425W        W 1096  18.579  43.228  14.780
29426W        W 1097  29.154  23.524  14.907
29427W        W 1098  27.304  20.250  13.738
29428W        W 1099  14.775  39.823  13.295
29429W        W 1100  26.900  30.011   2.374
29430W        W 1101   7.851  18.768   2.590
29431W        W 1102  42.226  35.032   1.220
29432W        W 1103  17.636  16.338  14.529
29433W        W 1104  38.805  43.250  13.580
29434W        W 1105  44.592   3.414   1.312
29435W        W 1106   1.215  41.910  12.465
29436W        W 1107  18.261   5.366  14.414
29437W        W 1108  28.904  39.962   1.619
29438W        W 1109  21.978  15.316  11.491
29439W        W 1110  28.777  13.608  11.260
29440W        W 1111   9.626  19.099  10.638
29441W        W 1112  11.179  21.883   1.248
29442W        W 1113  42.702  33.202  14.111
29443W        W 1114   3.118  43.854   4.279
29444W        W 1115  37.456  11.092   0.807
29445W        W 1116  22.143  27.731  10.766
29446W        W 1117  12.552  16.659   2.181
29447W        W 1118  37.296  26.491   0.374
29448W        W 1119   3.920  11.143  13.864
29449W        W 1120  27.899  10.120   3.770
29450W        W 1121  29.438  20.402   4.028
29451W        W 1122   4.223   8.196  11.011
29452W        W 1123  17.529  10.199  14.035
29453W        W 1124  14.878  14.175   1.392
29454W        W 1125  34.014  21.031  11.639
29455W        W 1126  43.284  23.518  13.914
29456W        W 1127   9.637  28.995   2.651
29457W        W 1128  30.995  22.776  12.845
29458W        W 1129  29.611  42.229   2.166
29459W        W 1130  12.116  26.050   0.890
29460W        W 1131  17.654  20.644  12.870
29461W        W 1132  36.044  12.327   2.070
29462W        W 1133  30.223  20.741   4.277
29463W        W 1134   8.873  41.443   3.357
29464W        W 1135  33.284  19.211   1.753
29465W        W 1136  23.986  14.210  14.317
29466W        W 1137  44.315  24.481  12.980
29467W        W 1138  25.347  17.610   2.581
29468W        W 1139  44.976  34.779   2.765
29469W        W 1140   8.668  12.261  10.932
29470W        W 1141  18.477  30.419   0.445
29471W        W 1142  11.994  31.939   0.321
29472W        W 1143  24.094   4.313   3.873
29473W        W 1144  15.531  13.169  12.750
29474W        W 1145  25.312  41.396   4.911
29475W        W 1146  38.114   4.695  14.870
29476W        W 1147  14.650   5.843   2.646
29477W        W 1148  33.909  42.761   3.786
29478W        W 1149  41.828  29.578   3.104
29479W        W 1150  41.325  34.438   2.203
29480W        W 1151  25.762   4.258   0.095
29481W        W 1152   4.510  10.827  10.699
29482W        W 1153  13.127  36.072   4.664
29483W        W 1154  37.124   3.517  14.479
29484W        W 1155  28.065  26.552   4.493
29485W        W 1156   0.166  22.584   0.873
29486W        W 1157  23.163  32.341   2.740
29487W        W 1158  32.152  30.937   5.077
29488W        W 1159   9.446  33.138  12.486
29489W        W 1160  31.737  16.778   3.558
29490W        W 1161   4.752  28.632  14.806
29491W        W 1162  36.027  25.096   2.330
29492W        W 1163  42.044  30.433  14.052
29493W        W 1164   0.775  18.378  12.423
29494W        W 1165  31.721  32.991  13.410
29495W        W 1166  22.982  41.523   0.654
29496W        W 1167  14.319   1.921  13.420
29497W        W 1168  16.659  12.104  14.883
29498W        W 1169   9.409  20.166   4.088
29499W        W 1170   9.669  41.985  12.090
29500W        W 1171  16.265  38.978   2.853
29501W        W 1172  28.675   7.805   3.986
29502W        W 1173  17.239  31.881   3.620
29503W        W 1174   4.924  36.663  12.563
29504W        W 1175   2.498  37.849   4.397
29505W        W 1176   1.714   4.583   2.809
29506W        W 1177  20.702   0.912   1.488
29507W        W 1178  20.816  19.813   3.918
29508W        W 1179  21.496  26.182  11.099
29509W        W 1180  40.351  35.405   0.727
29510W        W 1181  16.481  13.606  12.489
29511W        W 1182  36.868  32.207   0.492
29512W        W 1183  34.670   5.491  12.161
29513W        W 1184  41.437  24.482   0.455
29514W        W 1185   0.418  23.610  12.875
29515W        W 1186  39.361  28.095  13.283
29516W        W 1187  44.840  12.607  11.641
29517W        W 1188  38.820   4.255   1.248
29518W        W 1189  15.530  42.283   2.246
29519W        W 1190  19.370  17.307  14.799
29520W        W 1191   0.489  25.545   3.634
29521W        W 1192  22.490   7.703  14.482
29522W        W 1193  10.192  10.798  10.568
29523W        W 1194  23.818  32.071   1.778
29524W        W 1195  18.113   0.533  12.941
29525W        W 1196  32.844  41.715  13.501
29526W        W 1197  37.504  14.040  13.038
29527W        W 1198  18.716   5.785   3.601
29528W        W 1199  34.024  18.105   3.770
29529W        W 1200  18.504  28.710  14.839
29530W        W 1201  33.354  28.090   0.867
29531W        W 1202  18.224  32.666   4.631
29532W        W 1203  19.271  29.366  11.197
29533W        W 1204  33.804   5.061   4.998
29534W        W 1205   7.607  31.196  14.609
29535W        W 1206  14.309  36.938  11.448
29536W        W 1207  13.201  42.845  13.180
29537W        W 1208  32.883   4.217  11.161
29538W        W 1209  40.474   9.983  10.701
29539W        W 1210  34.820   6.717   2.720
29540W        W 1211   6.531  30.694   4.151
29541W        W 1212   7.261  12.847   4.143
29542W        W 1213  24.313  40.574   3.166
29543W        W 1214  28.875  26.563   2.354
29544W        W 1215  27.515  43.552  11.350
29545W        W 1216  18.536  41.918  14.497
29546W        W 1217  34.138  44.412  14.383
29547W        W 1218   2.907   5.556   0.462
29548W        W 1219  30.393  24.739  12.942
29549W        W 1220  35.034  40.021  11.488
29550W        W 1221  29.207  32.366   1.167
29551W        W 1222   9.905  42.720   3.986
29552W        W 1223  18.184  33.882  13.540
29553W        W 1224  41.779   8.642  12.068
29554W        W 1225   1.276  31.945  14.068
29555W        W 1226  33.866  34.400  13.282
29556W        W 1227  38.117  26.771  10.317
29557W        W 1228  14.628   2.928   0.127
29558W        W 1229   1.928  10.021   3.842
29559W        W 1230  34.893  25.945   1.279
29560W        W 1231  38.010  35.622  13.137
29561W        W 1232  36.803  42.481  14.363
29562W        W 1233  15.230  19.090  12.060
29563W        W 1234  41.013  39.296   4.974
29564W        W 1235  36.934  44.403  14.510
29565W        W 1236  21.009  11.955  14.895
29566W        W 1237  22.280  15.233   1.361
29567W        W 1238  33.153   5.625   2.710
29568W        W 1239  43.800  40.145   4.574
29569W        W 1240  10.650  29.604  12.521
29570W        W 1241   4.442  38.897  12.066
29571W        W 1242  10.226   6.898   1.169
29572W        W 1243  26.764  38.876   4.281
29573W        W 1244  38.355   5.189  10.761
29574W        W 1245  38.594  15.711   4.552
29575W        W 1246  32.643  44.679  10.974
29576W        W 1247  27.212  26.529  13.617
29577W        W 1248  16.265  30.183  12.562
29578W        W 1249  24.540  33.387   1.550
29579W        W 1250  16.505  35.488   1.994
29580W        W 1251   1.443  39.436   0.888
29581W        W 1252  25.063  19.701   1.359
29582W        W 1253   5.783  12.873   0.290
29583W        W 1254  14.196  24.493   3.995
29584W        W 1255  29.267  15.548   0.745
29585W        W 1256  25.559   4.737  10.441
29586W        W 1257  10.047  43.866  14.464
29587W        W 1258  12.181  14.827  13.462
29588W        W 1259  30.026  35.952   3.336
29589W        W 1260  28.525  14.773  12.147
29590W        W 1261  32.632   1.924  11.114
29591W        W 1262   1.284   7.158  13.474
29592W        W 1263  35.566  44.850   4.614
29593W        W 1264  26.577  41.369  12.983
29594W        W 1265  32.064  25.880  14.757
29595W        W 1266   6.361  19.557  12.077
29596W        W 1267  19.470  40.623  14.378
29597W        W 1268  44.115  43.587  12.039
29598W        W 1269   7.379  36.773   2.857
29599W        W 1270  44.798  32.588  13.826
29600W        W 1271  20.165  36.395   4.873
29601W        W 1272   0.032  19.051  12.011
29602W        W 1273   9.734  44.204   3.141
29603W        W 1274  42.035  20.379   3.363
29604W        W 1275   9.471  24.389  11.983
29605W        W 1276  44.836  43.525   2.630
29606W        W 1277  39.419  15.588   3.717
29607W        W 1278  13.116  39.315   3.194
29608W        W 1279  23.267  32.832   2.739
29609W        W 1280  11.596   2.880   4.090
29610W        W 1281  27.591  32.646  13.886
29611W        W 1282  18.330   6.591  10.270
29612W        W 1283  28.891  30.188   3.085
29613W        W 1284  10.221  26.670   1.392
29614W        W 1285  40.406   0.319   4.063
29615W        W 1286  29.603  35.904  11.940
29616W        W 1287  22.316  41.817  11.504
29617W        W 1288  17.177  16.657  12.563
29618W        W 1289   5.618   6.167   3.744
29619W        W 1290  39.923  34.101   0.755
29620W        W 1291  32.508  28.286   4.298
29621W        W 1292  16.798  44.924  12.597
29622W        W 1293  12.361  33.527   3.651
29623W        W 1294  21.977  17.265  13.532
29624W        W 1295  13.980  19.840   2.899
29625W        W 1296  32.420  37.338   0.827
29626W        W 1297  42.521  28.272  11.916
29627W        W 1298   7.691  40.058  13.541
29628W        W 1299   5.431  38.564  10.825
29629W        W 1300  26.718  26.034   0.184
29630W        W 1301  22.081  20.067   4.218
29631W        W 1302  33.410   4.279  12.668
29632W        W 1303  15.840   0.000   2.861
29633W        W 1304  41.050  40.069  14.063
29634W        W 1305  28.642  11.705  12.325
29635W        W 1306  16.033  19.225   0.307
29636W        W 1307  19.201  18.105  13.555
29637W        W 1308  42.423  31.311   1.792
29638W        W 1309  28.248  27.129   0.777
29639W        W 1310  18.040  18.360  13.909
29640W        W 1311   0.310  12.773  10.802
29641W        W 1312  32.888  33.966   0.852
29642W        W 1313  37.419  24.211  14.901
29643W        W 1314  23.078  33.019   1.196
29644W        W 1315   0.886  11.196   5.009
29645W        W 1316  27.639  22.422   2.161
29646W        W 1317  24.779  34.692   4.093
29647W        W 1318  33.549  18.888   0.727
29648W        W 1319  35.477  33.145   0.987
29649W        W 1320  12.754   4.333   1.466
29650W        W 1321  37.983  43.026   2.704
29651W        W 1322  37.264  44.355  11.617
29652W        W 1323  36.054  27.381   2.739
29653W        W 1324  40.105  42.017  14.352
29654W        W 1325   7.078  27.044   4.849
29655W        W 1326  28.008  13.154  10.203
29656W        W 1327  28.601  24.684   3.704
29657W        W 1328  23.464  14.155  14.399
29658W        W 1329   1.864  20.613  10.874
29659W        W 1330  12.368  38.010   3.584
29660W        W 1331  18.197  32.105   0.823
29661W        W 1332   6.455  26.196   2.150
29662W        W 1333   1.685  38.782   3.295
29663W        W 1334  34.384  17.087  10.441
29664W        W 1335  22.183  16.252  14.951
29665W        W 1336  27.392  14.069  12.206
29666W        W 1337  28.490  13.920   3.705
29667W        W 1338  33.959   9.471   3.129
29668W        W 1339  33.946   4.262   0.858
29669W        W 1340  32.047   2.369  11.879
29670W        W 1341  22.098   0.361   0.877
29671W        W 1342  36.787   3.935   0.966
29672W        W 1343   5.806  11.301   0.778
29673W        W 1344   2.533  16.039   2.595
29674W        W 1345  25.562  38.374   2.602
29675W        W 1346   4.836   3.251  14.712
29676W        W 1347  39.886  35.308   1.375
29677W        W 1348  22.329  15.556  14.375
29678W        W 1349  12.154   0.471   0.924
29679W        W 1350  38.896  37.878  12.755
29680W        W 1351  44.835  44.192  12.104
29681W        W 1352  41.309  19.735  11.068
29682W        W 1353  12.415  19.692  11.694
29683W        W 1354   4.647  36.906   4.463
29684W        W 1355   1.774  43.503   4.236
29685W        W 1356   1.685  12.820   4.160
29686W        W 1357  24.533  30.059   4.726
29687W        W 1358   9.382  20.185   2.874
29688W        W 1359   7.217  35.650  10.621
29689W        W 1360  22.286  22.720  13.012
29690W        W 1361  30.142   7.320  11.244
29691W        W 1362  15.157  42.450  13.882
29692W        W 1363   3.723  12.208   4.598
29693W        W 1364  21.922  23.030  12.848
29694W        W 1365  28.474   6.685   5.495
29695W        W 1366   2.303  25.178  12.963
29696W        W 1367  42.735  25.960   3.777
29697W        W 1368  42.332  18.100   3.218
29698W        W 1369   4.124   1.368   2.849
29699W        W 1370   0.164   1.557   4.461
29700W        W 1371  44.219  21.573  13.876
29701W        W 1372   1.451  25.939  14.454
29702W        W 1373   8.671  30.390  10.718
29703W        W 1374   3.702  26.656  13.801
29704W        W 1375  34.572  12.800   4.533
29705W        W 1376  25.054   0.228  12.020
29706W        W 1377   3.684   7.493   3.753
29707W        W 1378  26.121  30.122  13.477
29708W        W 1379  24.430   9.934  14.342
29709W        W 1380  19.094  30.217   2.728
29710W        W 1381  20.677  11.147  14.878
29711W        W 1382  36.670  43.246   2.243
29712W        W 1383  16.754  24.685   4.106
29713W        W 1384  39.505   3.503  12.295
29714W        W 1385  17.604  27.740  14.335
29715W        W 1386  30.487  23.504  14.468
29716W        W 1387  40.858  16.008  12.447
29717W        W 1388  35.919  16.474  11.987
29718W        W 1389  44.762   3.408  10.380
29719W        W 1390   0.319   5.287  10.767
29720W        W 1391  39.864  23.533   0.124
29721W        W 1392   5.332  12.289  12.013
29722W        W 1393  16.702  30.725   3.272
29723W        W 1394   5.342  35.407   1.940
29724W        W 1395   9.000  40.289  11.372
29725W        W 1396  40.506   4.206   1.786
29726W        W 1397  35.851  10.665   3.753
29727W        W 1398  22.015  43.197  10.583
29728W        W 1399  43.777  19.475   4.222
29729W        W 1400  43.090  33.826   1.134
29730W        W 1401   3.890  35.419   3.712
29731W        W 1402  12.587  26.636   1.355
29732W        W 1403   3.263  32.617  13.010
29733W        W 1404   8.303  14.745  10.606
29734W        W 1405  13.764  22.230   1.790
29735W        W 1406  35.015  39.051  11.518
29736W        W 1407   0.120  43.325   3.203
29737W        W 1408   0.809  26.746   3.979
29738W        W 1409  20.314  10.129   3.219
29739W        W 1410  44.679  21.786   3.586
29740W        W 1411  11.189  22.755  10.724
29741W        W 1412   6.697   9.746  14.032
29742W        W 1413  33.028   4.632   2.736
29743W        W 1414  37.928  24.421  10.766
29744W        W 1415   5.790  16.120  13.014
29745W        W 1416  31.892  19.468  12.898
29746W        W 1417  42.282  35.465  14.548
29747W        W 1418   1.019  25.686   4.480
29748W        W 1419   2.194  21.094  12.172
29749W        W 1420   3.825  26.559   4.361
29750W        W 1421  39.531   9.663   3.704
29751W        W 1422   4.280   1.231  11.463
29752W        W 1423  40.993  40.922  14.556
29753W        W 1424  31.506   3.013   2.344
29754W        W 1425  24.785   6.684   1.898
29755W        W 1426   4.392  22.589   4.972
29756W        W 1427  31.571  41.611  12.912
29757W        W 1428  23.355   1.935  14.563
29758W        W 1429  36.703  41.472   4.358
29759W        W 1430  10.820  19.603   4.210
29760W        W 1431   1.654  10.768   1.239
29761W        W 1432  23.633  13.244  10.626
29762W        W 1433  35.005  44.231   3.764
29763W        W 1434  36.252  12.808   1.924
29764W        W 1435  14.620   2.453   4.415
29765W        W 1436  39.303   1.902  11.633
29766W        W 1437   9.295  19.022   3.706
29767W        W 1438  37.043   8.952   3.644
29768W        W 1439  28.681  41.210  11.260
29769W        W 1440   1.947  21.086  12.990
29770W        W 1441  10.109  39.495   4.203
29771W        W 1442  27.765  12.236  14.487
29772W        W 1443  17.174  17.072  14.385
29773W        W 1444  33.607  34.435   1.152
29774W        W 1445  17.739  31.748  10.965
29775W        W 1446  14.539  17.150  13.976
29776W        W 1447  33.628  30.652  14.879
29777W        W 1448  23.576  28.648  11.958
29778W        W 1449  33.954  41.941   4.403
29779W        W 1450  20.654  40.663  13.365
29780W        W 1451  44.885  10.713   2.971
29781W        W 1452  38.816  42.538  14.503
29782W        W 1453   8.682  19.566   2.261
29783W        W 1454  33.087   0.434  12.526
29784W        W 1455  36.807  30.932   1.709
29785W        W 1456   1.944  40.478  14.046
29786W        W 1457  27.533  43.320  12.187
29787W        W 1458   0.910  32.480   3.356
29788W        W 1459  40.040  33.589  11.179
29789W        W 1460  28.505  23.932  12.062
29790W        W 1461  10.474  30.193  14.384
29791W        W 1462   7.392  19.185   2.403
29792W        W 1463  24.221   5.206  12.064
29793W        W 1464  13.264   5.665  14.947
29794W        W 1465   4.959   8.195   2.657
29795W        W 1466  40.444   9.316  11.434
29796W        W 1467  29.673  10.329   4.134
29797W        W 1468  19.943  40.678  10.974
29798W        W 1469  19.301  10.221   4.216
29799W        W 1470  29.985   8.763  11.665
29800W        W 1471   7.167   4.898   4.665
29801W        W 1472  16.256  26.110   2.172
29802W        W 1473  37.240  24.350  13.503
29803W        W 1474  32.425  22.520  10.296
29804W        W 1475  13.893  30.979   0.478
29805W        W 1476   7.329  19.727   3.492
29806W        W 1477  32.936   5.587  10.649
29807W        W 1478   6.219  40.568   4.091
29808W        W 1479   9.708  28.397  12.324
29809W        W 1480  31.614   8.575   1.240
29810W        W 1481  10.187  39.772   0.250
29811W        W 1482  43.382  19.444   0.294
29812W        W 1483  13.246  31.618  10.993
29813W        W 1484  17.659  11.094   4.436
29814W        W 1485  39.310  17.658   4.771
29815W        W 1486  22.338  44.622  10.197
29816W        W 1487  33.591  28.275   4.499
29817W        W 1488  17.817  13.579   2.241
29818W        W 1489  39.570  34.668   1.760
29819W        W 1490  28.986  40.531  12.626
29820W        W 1491  44.039   4.921   4.182
29821W        W 1492  43.416  18.637   1.699
29822W        W 1493  15.765  15.313   3.114
29823W        W 1494  30.835  16.275   0.426
29824W        W 1495  44.168  25.657  14.371
29825W        W 1496  18.223  13.513  11.087
29826W        W 1497   0.953  20.362  12.593
29827W        W 1498  44.495  41.985  13.786
29828W        W 1499  39.117  39.312   1.398
29829W        W 1500  31.840  27.309  11.714
29830W        W 1501  30.700  12.257  13.535
29831W        W 1502  37.416  37.837  13.846
29832W        W 1503  18.125  18.610   1.008
29833W        W 1504  44.993  36.600  13.333
29834W        W 1505   6.841  28.655   1.528
29835W        W 1506   4.768  11.837  10.719
29836W        W 1507  43.741  14.194   4.949
29837W        W 1508   6.646  41.724  10.901
29838W        W 1509  16.196  15.850   1.470
29839W        W 1510   7.720  29.870  11.630
29840W        W 1511  26.054  32.088  13.218
29841W        W 1512   7.206  43.113   5.079
29842W        W 1513  36.328  27.285  10.806
29843W        W 1514   8.905  14.738  14.442
29844W        W 1515  13.351  41.029   2.705
29845W        W 1516  27.091  27.061  12.854
29846W        W 1517  35.298  11.888   4.490
29847W        W 1518  33.661  14.199   2.814
29848W        W 1519  11.590  43.414  13.421
29849W        W 1520  25.111  17.333   4.677
29850W        W 1521  23.563  25.951   4.256
29851W        W 1522  16.669  30.398   1.644
29852W        W 1523  41.108  21.434   1.951
29853W        W 1524  22.520  31.166  10.650
29854W        W 1525  16.169  39.820  11.455
29855W        W 1526   0.303   4.498  12.410
29856W        W 1527  30.684   6.309   5.127
29857W        W 1528   0.899   1.859  12.106
29858W        W 1529  40.198  44.470   3.213
29859W        W 1530  20.286  16.319  10.984
29860W        W 1531  35.495  39.481   4.104
29861W        W 1532  34.029  25.001   2.039
29862W        W 1533  11.629   3.780   0.777
29863W        W 1534  39.940  23.851  14.382
29864W        W 1535  26.663  20.361   2.894
29865W        W 1536   1.386  13.412  12.092
29866W        W 1537  15.313  16.229  13.524
29867W        W 1538   6.095  19.105  11.686
29868W        W 1539  13.795  18.222  14.274
29869W        W 1540  34.123  36.297   1.805
29870W        W 1541  30.642  10.857   0.812
29871W        W 1542  16.819  12.104   1.824
29872W        W 1543   5.270  37.285   2.253
29873W        W 1544   1.944  37.440  12.030
29874W        W 1545   4.885  16.318   3.249
29875W        W 1546  24.134   2.230   4.579
29876W        W 1547  29.104   3.337   0.823
29877W        W 1548  10.914  43.894   3.862
29878W        W 1549  28.015  41.866   2.540
29879W        W 1550  16.139   3.865   1.423
29880W        W 1551  17.838  22.256  13.828
29881W        W 1552  13.351  19.073  10.781
29882W        W 1553  29.835  22.133  12.861
29883W        W 1554  14.393   9.282   1.447
29884W        W 1555  30.541  24.983   4.883
29885W        W 1556  34.354  21.727   2.783
29886W        W 1557  18.496  25.609   0.296
29887W        W 1558  31.984  15.237  12.614
29888W        W 1559  11.180   8.996   3.079
29889W        W 1560  44.918   1.896  12.507
29890W        W 1561   9.781  34.944   0.530
29891W        W 1562  11.713  19.547  13.015
29892W        W 1563  12.795  22.547   4.549
29893W        W 1564  28.865  33.482   1.250
29894W        W 1565  36.510  37.326   3.286
29895W        W 1566   3.501  14.173   4.040
29896W        W 1567  41.532  30.969   4.733
29897W        W 1568  23.936  39.468  10.602
29898W        W 1569  36.011  18.373  13.030
29899W        W 1570  20.539  26.073  12.574
29900W        W 1571  19.222  29.984   1.451
29901W        W 1572  18.760  36.623   1.651
29902W        W 1573  23.244  41.969   0.748
29903W        W 1574  12.602  22.278  14.514
29904W        W 1575  41.963  10.637  12.061
29905W        W 1576  27.268   6.229  10.657
29906W        W 1577  13.378  40.038  14.874
29907W        W 1578  32.468  27.233   0.445
29908W        W 1579   3.913  15.770  11.170
29909W        W 1580  38.217  35.452  14.006
29910W        W 1581  36.326  14.224  10.799
29911W        W 1582  10.004  25.229   1.559
29912W        W 1583  33.455   1.484  14.918
29913W        W 1584  33.983  10.301  11.579
29914W        W 1585  14.697  15.979   2.264
29915W        W 1586  24.640  37.631  13.663
29916W        W 1587  41.418  27.046   3.454
29917W        W 1588  20.431  39.855   1.965
29918W        W 1589  19.259   9.467   3.363
29919W        W 1590  21.106  39.579  13.026
29920W        W 1591   2.471  18.600   0.899
29921W        W 1592  40.566  10.451  14.289
29922W        W 1593   0.908  24.643  13.431
29923W        W 1594   9.546  13.228   0.186
29924W        W 1595  44.664  30.081   3.598
29925W        W 1596  30.135  29.173  11.379
29926W        W 1597  17.967  29.861  12.923
29927W        W 1598  22.681  18.646   2.252
29928W        W 1599  36.831  23.188  11.857
29929W        W 1600   5.296  35.176  10.603
29930W        W 1601  16.138  15.363   1.335
29931W        W 1602  14.891  11.756   0.278
29932W        W 1603  43.505  26.500   0.868
29933W        W 1604  34.380  16.891   1.807
29934W        W 1605   4.364  21.099   0.442
29935W        W 1606   5.415  29.836  13.432
29936W        W 1607  44.849  35.848   1.250
29937W        W 1608  11.510   2.272  11.064
29938W        W 1609   1.517   6.680  13.437
29939W        W 1610  14.197  20.316   2.937
29940W        W 1611  39.575  37.830   1.979
29941W        W 1612  15.434  34.278   0.428
29942W        W 1613   5.959   1.692  12.842
29943W        W 1614  26.245  41.454  14.230
29944W        W 1615   1.455  12.077  14.795
29945W        W 1616  24.467  26.833  12.387
29946W        W 1617  40.542  10.151   0.726
29947W        W 1618   8.924  18.201   4.259
29948W        W 1619   5.225  17.262   1.403
29949W        W 1620  41.228  14.611   1.829
29950W        W 1621  34.922  23.543   0.853
29951W        W 1622   8.938  23.026   4.601
29952W        W 1623  37.433   8.383  14.643
29953W        W 1624  19.541  26.482  10.557
29954W        W 1625  18.603  22.086   0.773
29955W        W 1626   3.316   7.482   0.692
29956W        W 1627  20.136  40.614  11.996
29957W        W 1628  14.639  34.319   2.326
29958W        W 1629  25.295  20.278  14.727
29959W        W 1630  38.990  36.351   3.788
29960W        W 1631  12.864  12.405   4.429
29961W        W 1632  37.033  19.569   4.975
29962W        W 1633  38.178  26.452  13.213
29963W        W 1634   8.731  43.459   2.037
29964W        W 1635   1.497  31.624  13.699
29965W        W 1636  17.638   4.874  12.404
29966W        W 1637  43.769   4.457   4.188
29967W        W 1638  10.230  16.380   4.168
29968W        W 1639   9.253   1.042   1.319
29969W        W 1640  23.050  24.582  14.185
29970W        W 1641   8.004   5.781   3.609
29971W        W 1642  18.656  20.162   4.315
29972W        W 1643   5.826  26.168   4.605
29973W        W 1644  10.238  13.342  14.426
29974W        W 1645   0.815  28.296   2.270
29975W        W 1646  34.052  34.461  10.825
29976W        W 1647  19.248  27.712  11.535
29977W        W 1648  22.679  19.162   2.242
29978W        W 1649   7.817  19.465  14.908
29979W        W 1650  41.355  28.610  13.880
29980W        W 1651  31.078  44.934  11.665
29981W        W 1652   7.345  19.453  11.221
29982W        W 1653  26.733  16.788  14.574
29983W        W 1654  44.035   0.998   3.682
29984W        W 1655   0.231  12.240  12.568
29985W        W 1656   2.825  18.180  13.571
29986W        W 1657  41.726  31.676   0.930
29987W        W 1658  39.473   1.437  13.864
29988W        W 1659   0.397  44.591   3.773
29989W        W 1660   6.431   9.202  13.786
29990W        W 1661  32.057   1.471   2.924
29991W        W 1662   8.430  34.094  13.854
29992W        W 1663  31.295  37.940  12.046
29993W        W 1664  39.507   3.879  14.576
29994W        W 1665  20.492  26.097  14.433
29995W        W 1666  10.420  22.318   1.648
29996W        W 1667  24.454  33.001  11.109
29997W        W 1668   8.857  22.939   2.276
29998W        W 1669  36.760  14.303  14.903
29999W        W 1670  17.129   4.775   1.249
30000W        W 1671  16.404   7.393   3.820
30001W        W 1672  11.077  43.778   1.637
30002W        W 1673  34.215   7.670  12.148
30003W        W 1674   1.841  30.807   0.241
30004W        W 1675  30.031  38.514   4.154
30005W        W 1676   7.295  21.797   2.247
30006W        W 1677  21.317  41.966  11.594
30007W        W 1678  16.579  39.192   3.257
30008W        W 1679  36.236  23.787  14.093
30009W        W 1680  15.089  30.931   3.738
30010W        W 1681  27.487  25.438  11.976
30011W        W 1682   2.459  12.763  12.535
30012W        W 1683  32.559  11.821   4.205
30013W        W 1684  20.809  33.486   2.207
30014W        W 1685   1.437  32.938  13.523
30015W        W 1686   3.918   3.971   3.808
30016W        W 1687  23.641  41.316   3.877
30017W        W 1688  18.402  28.641   0.389
30018W        W 1689  26.436   4.429   4.018
30019W        W 1690   4.674  33.426   4.109
30020W        W 1691  33.498  42.578   0.582
30021W        W 1692  26.556  43.844  14.542
30022W        W 1693  14.621  41.013   3.680
30023W        W 1694  37.474  10.561   4.262
30024W        W 1695  39.371  25.524  11.605
30025W        W 1696   9.400  18.098  13.673
30026W        W 1697  29.565   5.195   0.272
30027W        W 1698  33.417   1.278  10.521
30028W        W 1699   0.861  13.211  10.457
30029W        W 1700  32.264  12.342  12.141
30030W        W 1701  34.866  11.310   2.679
30031W        W 1702  41.250   7.664  12.856
30032W        W 1703  14.095  41.785  10.640
30033W        W 1704  43.915   7.298  11.364
30034W        W 1705   6.221  27.024   1.342
30035W        W 1706  11.593   9.311   3.216
30036W        W 1707   8.192   2.563   2.192
30037W        W 1708  21.173  32.454   1.715
30038W        W 1709  40.864   1.668   4.164
30039W        W 1710  20.634   0.286   3.982
30040W        W 1711  40.363   1.811  11.623
30041W        W 1712  36.021   9.469  11.620
30042W        W 1713   2.178  33.184  12.419
30043W        W 1714  44.872   5.047   0.306
30044W        W 1715   5.699  37.775  10.422
30045W        W 1716  43.282   1.071  14.459
30046W        W 1717  41.189  38.875  13.024
30047W        W 1718  21.614  43.951  13.938
30048W        W 1719   1.139  10.400  12.833
30049W        W 1720  19.351   2.355   3.815
30050W        W 1721  15.760  35.787  14.261
30051W        W 1722  26.504   5.757  12.963
30052W        W 1723  18.531  35.434  12.458
30053W        W 1724  10.851  34.678   1.981
30054W        W 1725  25.240  17.973  10.990
30055W        W 1726  44.694  44.396   2.403
30056W        W 1727  27.057  10.264   1.473
30057W        W 1728  15.221  20.663   2.257
30058W        W 1729   3.816  39.347   2.596
30059W        W 1730  23.602   3.516  11.027
30060W        W 1731  14.344  40.541   0.491
30061W        W 1732  23.967   2.331   1.924
30062W        W 1733   1.778   3.828   3.302
30063W        W 1734  25.718  44.270  14.900
30064W        W 1735  31.206  32.023   1.685
30065W        W 1736   6.583  13.198  14.369
30066W        W 1737   3.408  30.152   3.593
30067W        W 1738  26.256  36.049  14.762
30068W        W 1739  16.098  41.980   3.753
30069W        W 1740  27.696  33.910   0.297
30070W        W 1741  13.676   5.450   2.547
30071W        W 1742  36.422  41.545  10.410
30072W        W 1743   8.146  15.033  12.310
30073W        W 1744  37.486  19.437   3.741
30074W        W 1745  32.507  18.585   4.701
30075W        W 1746  44.488  36.876  11.874
30076W        W 1747   2.231  11.304   1.814
30077W        W 1748  39.664  41.779   3.367
30078W        W 1749  20.265   6.669   2.272
30079W        W 1750  40.031  40.006   4.581
30080W        W 1751   1.563  23.109   2.344
30081W        W 1752  20.961  39.874  12.479
30082W        W 1753  25.144  34.449  12.436
30083W        W 1754  33.598  12.930  13.528
30084W        W 1755  41.262  32.490   2.279
30085W        W 1756   8.878   5.263  13.057
30086W        W 1757  18.031   6.763  12.886
30087W        W 1758  21.512  22.697  14.245
30088W        W 1759   9.733  39.018  10.738
30089W        W 1760  31.209  39.859  13.716
30090W        W 1761  11.566  13.488  12.833
30091W        W 1762  21.722  31.404   3.372
30092W        W 1763   2.922  21.600  14.995
30093W        W 1764  24.987  17.581   1.640
30094W        W 1765  21.059  25.100   1.385
30095W        W 1766  36.764  18.281  11.085
30096W        W 1767  15.404  13.181   1.621
30097W        W 1768  18.240  37.167   3.649
30098W        W 1769   2.060  40.899   2.363
30099W        W 1770  26.235  18.658   0.669
30100W        W 1771  38.775  44.715   4.022
30101W        W 1772   5.403  21.135  10.179
30102W        W 1773  42.849  43.040   5.164
30103W        W 1774  39.608  30.531  14.835
30104W        W 1775  14.161  26.760   0.196
30105W        W 1776   1.813  13.102  12.807
30106W        W 1777  16.865  40.639   0.382
30107W        W 1778   4.405  36.118  11.306
30108W        W 1779   2.919  23.977  11.479
30109W        W 1780  28.700  40.748  12.095
30110W        W 1781  24.217  22.561  14.808
30111W        W 1782   4.285  31.601   0.929
30112W        W 1783  21.853  41.114  11.589
30113W        W 1784  28.144   0.495   3.395
30114W        W 1785  12.713  17.775  13.753
30115W        W 1786  20.723   2.358   3.711
30116W        W 1787  14.195  16.236  14.735
30117W        W 1788  43.105  44.481   4.726
30118W        W 1789  28.973  27.879  10.732
30119W        W 1790   1.788  17.720   1.452
30120W        W 1791  37.322  26.083   2.713
30121W        W 1792  34.527  35.310  13.568
30122W        W 1793  35.459  26.280   3.721
30123W        W 1794   9.881  35.041   2.375
30124W        W 1795  18.335  44.496  10.662
30125W        W 1796  43.161  10.658   4.249
30126W        W 1797  21.556   5.731   1.179
30127W        W 1798  37.413   6.053  13.392
30128W        W 1799  33.961  10.209   4.236
30129W        W 1800  30.479   7.767   4.875
30130W        W 1801  36.291  43.289   1.836
30131W        W 1802  20.419  40.878   0.461
30132W        W 1803  23.548  34.863  14.873
30133W        W 1804  42.966  16.218  12.919
30134W        W 1805   3.786  33.602   3.513
30135W        W 1806  12.240  14.625   3.956
30136W        W 1807   4.706   8.430   3.510
30137W        W 1808  23.585  14.481   0.377
30138W        W 1809  32.052  44.526  12.996
30139W        W 1810  44.370   1.773   4.344
30140W        W 1811  37.196  12.545   3.190
30141W        W 1812  42.013  27.468  11.185
30142W        W 1813  29.950  28.686  11.266
30143W        W 1814   0.178  31.327  13.832
30144W        W 1815  24.598  10.223   3.771
30145W        W 1816  16.339   4.692   2.000
30146W        W 1817  41.993  25.036  11.107
30147W        W 1818  27.565  40.696  10.690
30148W        W 1819  43.391  44.129   1.374
30149W        W 1820   2.258   6.470   4.546
30150W        W 1821  10.724  41.628   4.383
30151W        W 1822  36.953  29.903  11.568
30152W        W 1823  22.978  12.761   1.730
30153W        W 1824  35.476  20.566   0.952
30154W        W 1825  22.531  18.976  14.976
30155W        W 1826  35.958  27.942  14.874
30156W        W 1827  18.035  25.297  14.900
30157W        W 1828  26.498  13.167   3.863
30158W        W 1829   3.362  27.780   0.965
30159W        W 1830  20.783  23.601  14.781
30160W        W 1831  36.033  10.726  14.763
30161W        W 1832  27.409  43.977   4.108
30162W        W 1833  36.505  43.809  12.117
30163W        W 1834   9.249   6.700   0.011
30164W        W 1835  29.670  39.888  13.037
30165W        W 1836  25.652  30.931  10.544
30166W        W 1837   2.259  30.489  14.041
30167W        W 1838  20.143   5.917  13.142
30168W        W 1839  32.850   1.340  11.155
30169W        W 1840  24.526  23.601   1.503
30170W        W 1841   8.386  38.778   2.748
30171W        W 1842  22.803  22.940   0.668
30172W        W 1843  11.130  34.885   2.754
30173W        W 1844  38.533  30.498   0.838
30174W        W 1845  15.138  31.069  14.498
30175W        W 1846   1.541  16.822  12.091
30176W        W 1847  21.517  27.553   2.450
30177W        W 1848  19.099   9.767   2.431
30178W        W 1849  23.018  26.345   4.904
30179W        W 1850  24.150  11.520   2.285
30180W        W 1851  12.109   1.223   0.794
30181W        W 1852  18.098  41.451   0.232
30182W        W 1853  31.022  18.831  14.335
30183W        W 1854  31.716  16.985  11.498
30184W        W 1855  15.280  14.325   0.408
30185W        W 1856  39.526  26.496   2.277
30186W        W 1857   1.992  17.155   4.522
30187W        W 1858   9.623  23.996  11.601
30188W        W 1859   6.430   6.173   3.316
30189W        W 1860  44.906  18.205   4.886
30190W        W 1861  11.456  25.166   5.056
30191W        W 1862  13.081  29.172  12.831
30192W        W 1863   8.179  29.630  11.616
30193W        W 1864  34.320  24.567  14.806
30194W        W 1865  15.243  30.082   1.826
30195W        W 1866  22.129  33.976   1.232
30196W        W 1867  11.378  11.075  10.684
30197W        W 1868   1.330  18.163   2.510
30198W        W 1869  32.078  44.775   3.421
30199W        W 1870  44.334  20.245   2.152
30200W        W 1871  39.090  39.570   3.707
30201W        W 1872  12.717  31.931   1.794
30202W        W 1873  31.248  17.664  12.912
30203W        W 1874  42.416  37.176  11.038
30204W        W 1875   5.950   2.914   4.240
30205W        W 1876  13.636  36.533   0.327
30206W        W 1877  28.036  44.278   4.128
30207W        W 1878  37.006  35.952   0.978
30208W        W 1879  10.597  15.301  12.368
30209W        W 1880  39.017  40.983   4.571
30210W        W 1881  18.097   6.266   0.263
30211W        W 1882  19.819  43.067   2.185
30212W        W 1883   5.192   8.637  14.330
30213W        W 1884  32.648  23.874  14.896
30214W        W 1885  10.860  13.612   2.043
30215W        W 1886   7.245  39.459   0.998
30216W        W 1887  36.499  14.137  11.921
30217W        W 1888  10.558  27.999   2.903
30218W        W 1889  16.625   4.391   5.072
30219W        W 1890  15.239  20.295   2.887
30220W        W 1891  27.912  44.232   2.720
30221W        W 1892  30.140  31.666  14.912
30222W        W 1893   2.987  11.417  11.557
30223W        W 1894  25.917  37.788   3.679
30224W        W 1895  36.901  37.848  11.038
30225W        W 1896   8.375  33.365  12.280
30226W        W 1897  11.471  22.914   2.394
30227W        W 1898   4.670  17.095   0.222
30228W        W 1899  33.639  39.844   0.775
30229W        W 1900  33.389   5.099  11.064
30230W        W 1901  38.951  23.106   2.862
30231W        W 1902  28.974  28.761  12.870
30232W        W 1903  11.820  28.089  12.873
30233W        W 1904  42.878   1.922   0.116
30234W        W 1905   9.130  26.073  13.307
30235W        W 1906  35.505  17.040  13.382
30236W        W 1907  13.618  33.678  12.107
30237W        W 1908  31.434   5.801  11.153
30238W        W 1909  14.031  24.524   1.063
30239W        W 1910  18.162   3.126   4.151
30240W        W 1911  14.625  41.775  10.737
30241W        W 1912  25.584  18.803  11.529
30242W        W 1913  11.845  15.313   1.029
30243W        W 1914  42.105   1.060  10.170
30244W        W 1915   8.857  34.940   0.298
30245W        W 1916  44.930  14.002  10.955
30246W        W 1917  44.387  22.063  13.876
30247W        W 1918  17.325  42.810   3.173
30248W        W 1919  44.557  43.926   0.869
30249W        W 1920  19.074   3.185   4.121
30250W        W 1921  26.240  37.585   4.966
30251W        W 1922  26.961  14.833   3.659
30252W        W 1923   7.178  18.229   0.436
30253W        W 1924  13.788   6.233  10.169
30254W        W 1925   8.071  30.530  14.198
30255W        W 1926  15.804  12.888   4.217
30256W        W 1927   5.785  18.706  13.922
30257W        W 1928  14.384   4.908   1.873
30258W        W 1929  36.362  23.513   3.679
30259W        W 1930  35.284  43.608   4.073
30260W        W 1931  12.152  19.484   0.330
30261W        W 1932  10.915  25.082   2.696
30262W        W 1933  35.782  26.869   4.124
30263W        W 1934  27.439   4.653  11.134
30264W        W 1935  36.477  22.465  10.915
30265W        W 1936  26.213  34.476   0.672
30266W        W 1937  36.232  35.038  11.991
30267W        W 1938  24.093  29.074   4.663
30268W        W 1939  38.991  39.341   0.876
30269W        W 1940   2.476   4.242  14.441
30270W        W 1941  24.895   1.802  11.591
30271W        W 1942  34.637  31.074   1.274
30272W        W 1943   3.787   0.777  14.905
30273W        W 1944   3.528  15.034  14.509
30274W        W 1945  40.024  10.340   3.297
30275W        W 1946  38.191  22.239   2.821
30276W        W 1947   1.354  34.835  10.675
30277W        W 1948  13.857   3.476  11.487
30278W        W 1949  10.159  43.117  13.475
30279W        W 1950  10.309  18.731  10.655
30280W        W 1951  16.040  15.302   3.667
30281W        W 1952   2.273  41.651   0.910
30282W        W 1953  32.328  25.172  13.885
30283W        W 1954   5.928  17.557   2.615
30284W        W 1955  10.624   8.881  12.971
30285W        W 1956  15.891  21.471  13.868
30286W        W 1957  37.558  38.042  12.831
30287W        W 1958  40.594  37.358   0.805
30288W        W 1959  10.337  28.633   0.354
30289W        W 1960  32.534   0.430   1.324
30290W        W 1961   7.969  31.083  14.967
30291W        W 1962  43.696  19.101   1.729
30292W        W 1963  34.826  41.033   3.855
30293W        W 1964  34.842  36.873   0.975
30294W        W 1965  37.078  19.176   4.118
30295W        W 1966  10.288  11.815  10.579
30296W        W 1967   5.014  43.698   2.922
30297W        W 1968  41.001   0.885   2.878
30298W        W 1969  16.181  39.912   3.126
30299W        W 1970  14.337  28.702   2.347
30300W        W 1971  14.671   1.048   0.003
30301W        W 1972   0.163  25.078   4.562
30302W        W 1973   4.773   3.151  12.385
30303W        W 1974  42.870  36.900  10.996
30304W        W 1975  35.509  29.578  14.728
30305W        W 1976  36.822   8.799  12.994
30306W        W 1977  37.410  19.018   4.978
30307W        W 1978  16.788  11.511   4.588
30308W        W 1979  30.924  35.837   0.253
30309W        W 1980  34.443   7.458  11.681
30310W        W 1981   8.660  34.511   1.659
30311W        W 1982  14.109  33.460   5.465
30312W        W 1983   3.215   8.331   3.595
30313W        W 1984  17.164   7.717   0.975
30314W        W 1985   2.299   5.396   0.872
30315W        W 1986  13.646  34.993  12.234
30316W        W 1987   4.080  27.251  14.591
30317W        W 1988  33.283  14.277  11.890
30318W        W 1989   7.818  12.247   2.701
30319W        W 1990  16.395  15.776  12.004
30320W        W 1991  37.389  25.501  12.861
30321W        W 1992  42.649  30.463  12.763
30322W        W 1993   4.848   8.987  10.731
30323W        W 1994  38.033  20.078  14.434
30324W        W 1995  25.967  19.540  10.764
30325W        W 1996  25.436   0.352  12.358
30326W        W 1997  42.231  11.477   5.453
30327W        W 1998  34.134  36.010   1.368
30328W        W 1999  10.732  17.408  13.900
30329W        W 2000  43.255  13.699   0.233
30330W        W 2001  14.237  44.818  14.409
30331W        W 2002   8.232  42.380   1.284
30332W        W 2003   7.148  16.517  11.335
30333W        W 2004  12.148  26.941   1.137
30334W        W 2005   6.274  32.548   0.819
30335W        W 2006  24.943  36.558   1.943
30336W        W 2007  24.487  36.387  12.947
30337W        W 2008  24.207  22.746   1.928
30338W        W 2009  31.382  18.447  13.811
30339W        W 2010  13.909  29.047  14.851
30340W        W 2011  44.330  40.882   4.702
30341W        W 2012  12.614   9.768   0.391
30342W        W 2013  39.904  27.081   1.490
30343W        W 2014  32.950  12.629   4.075
30344W        W 2015   0.309   8.328  14.405
30345W        W 2016   1.403  31.880   4.008
30346W        W 2017  23.002   8.940  11.984
30347W        W 2018  33.394  30.475   0.306
30348W        W 2019  38.258  13.330   0.846
30349W        W 2020  16.521  14.316   0.760
30350W        W 2021  13.934  26.713   5.133
30351W        W 2022  39.815  23.002  11.707
30352W        W 2023  18.706  40.485  14.736
30353W        W 2024   8.816  22.178  11.220
30354W        W 2025  11.596  40.499  10.310
30355W        W 2026  24.484   8.929   4.338
30356W        W 2027  32.590  29.991   4.620
30357W        W 2028  24.038  42.370   4.560
30358W        W 2029  15.910  15.653  13.892
30359W        W 2030  28.515  41.780  12.093
30360W        W 2031  13.583  40.439  10.712
30361W        W 2032  25.442  32.387   0.030
30362W        W 2033  43.650  17.107  13.898
30363W        W 2034  11.044   2.695   3.279
30364W        W 2035  32.139   4.792  14.721
30365W        W 2036  24.417  24.238   3.325
30366W        W 2037  15.690  34.546  12.613
30367W        W 2038  39.060  33.039  12.364
30368W        W 2039  32.362  11.700   4.669
30369W        W 2040  27.534  13.111  12.013
30370W        W 2041  26.779  28.056  11.235
30371W        W 2042  21.941  21.938  11.065
30372W        W 2043   2.245   5.685   3.885
30373W        W 2044  17.110  24.635   1.215
30374W        W 2045  30.088  39.421  10.434
30375W        W 2046   0.710  27.333   0.408
30376W        W 2047  40.084  13.875  12.228
30377W        W 2048  12.616  19.631  13.049
30378W        W 2049  23.278  37.021  13.916
30379W        W 2050  35.620  30.446   4.903
30380W        W 2051  11.331   6.960  11.163
30381W        W 2052  20.740  39.782   5.529
30382W        W 2053  39.031  44.789  11.072
30383W        W 2054   7.335  33.342  14.056
30384W        W 2055   4.329   8.354  12.771
30385W        W 2056  33.492   6.421   2.633
30386W        W 2057   5.705  33.492   0.793
30387W        W 2058  37.967   0.297  14.588
30388W        W 2059  19.032  40.064   2.721
30389W        W 2060  33.562  17.661  10.864
30390W        W 2061  29.673  23.811  11.901
30391W        W 2062   7.113  19.152   0.803
30392W        W 2063  19.524  13.477  12.353
30393W        W 2064  19.338  26.522  13.267
30394W        W 2065  15.176  10.109  13.867
30395W        W 2066   3.844   6.761  13.601
30396W        W 2067  10.582  17.687   2.472
30397W        W 2068  38.439   7.676  11.105
30398W        W 2069   5.432  17.146   3.261
30399W        W 2070  29.413   6.893   2.228
30400W        W 2071  43.903  35.415  11.054
30401W        W 2072   4.032  17.694   2.664
30402W        W 2073  30.925   1.902  13.790
30403W        W 2074  33.865   1.328   3.076
30404W        W 2075  28.232   3.164  14.502
30405W        W 2076   0.505   3.903   3.754
30406W        W 2077  21.491  37.814  13.961
30407W        W 2078   7.092  21.586  11.488
30408W        W 2079  33.600  19.108  12.917
30409W        W 2080  35.837  27.937   3.328
30410W        W 2081  35.563  36.330  10.261
30411W        W 2082  44.944  42.166   3.823
30412W        W 2083  21.562  33.600  14.420
30413W        W 2084   2.925  36.862  10.732
30414W        W 2085   3.130  38.006   3.272
30415W        W 2086  25.898   6.220   3.308
30416W        W 2087  36.718   1.702   5.114
30417W        W 2088   8.860  23.534   2.781
30418W        W 2089  13.037  17.003  12.381
30419W        W 2090  28.060  14.044   4.002
30420W        W 2091  27.979  33.589   4.245
30421W        W 2092  39.448  13.104  14.311
30422W        W 2093   9.170  23.243   4.186
30423W        W 2094  30.001   8.589   4.661
30424W        W 2095  26.469   8.273  12.339
30425W        W 2096  18.156  37.333  11.339
30426W        W 2097  37.289  28.375   1.913
30427W        W 2098  20.101  10.152   0.861
30428W        W 2099  40.350  41.569  10.760
30429W        W 2100  23.657  35.111  14.361
30430W        W 2101  44.719  44.231   3.214
30431W        W 2102  33.602  14.508   4.698
30432W        W 2103  22.045  12.103   2.780
30433W        W 2104  13.771   0.669   3.432
30434W        W 2105  30.676  38.285  12.463
30435W        W 2106  27.704  40.000   4.232
30436W        W 2107   2.848  34.053  14.472
30437W        W 2108  24.099   2.481   4.119
30438W        W 2109  23.655   9.385   3.154
30439W        W 2110   4.362  14.750   0.876
30440W        W 2111  25.175   0.017   2.823
30441W        W 2112  40.439   6.318   0.965
30442W        W 2113  38.994   2.397   3.733
30443W        W 2114  35.434  19.658  12.126
30444W        W 2115  28.326  41.115   3.807
30445W        W 2116  24.469  28.552  11.117
30446W        W 2117  41.558  31.465   4.883
30447W        W 2118  22.690  11.856   1.394
30448W        W 2119  41.240  31.996   2.836
30449W        W 2120  18.824  40.432  13.299
30450W        W 2121  32.093  35.052   1.231
30451W        W 2122   4.125  13.537   4.047
30452W        W 2123  23.683  34.600  14.442
30453W        W 2124   2.245  35.174  14.794
30454W        W 2125   1.475  32.190  10.971
30455W        W 2126  18.586  12.688   0.476
30456W        W 2127  33.424  17.776  14.882
30457W        W 2128  20.254  26.948   0.329
30458W        W 2129  24.718   5.987  13.472
30459W        W 2130  17.549  22.639   1.731
30460W        W 2131  38.447  26.887  13.068
30461W        W 2132   7.604  24.765  11.624
30462W        W 2133  36.987  27.771   1.339
30463W        W 2134  12.105  39.815  11.330
30464W        W 2135  12.381   6.354   2.834
30465W        W 2136  19.695  41.541   1.850
30466W        W 2137  29.712  23.133   0.644
30467W        W 2138  31.167  21.221   2.882
30468W        W 2139  23.003  39.803   0.874
30469W        W 2140   0.879   9.705   4.065
30470W        W 2141  35.490   2.932  13.590
30471W        W 2142  21.790  34.169   1.986
30472W        W 2143  43.366  13.604   3.126
30473W        W 2144  30.121  29.224  11.905
30474W        W 2145  31.559  20.141  11.944
30475W        W 2146  12.294  36.859  11.665
30476W        W 2147  14.134  17.078   4.979
30477W        W 2148  37.568  41.273   4.316
30478W        W 2149  36.062  44.284  12.564
30479W        W 2150  32.695  12.200   1.864
30480W        W 2151  36.972  42.204   4.097
30481W        W 2152  33.991  28.813   3.464
30482W        W 2153   3.088  26.852  11.029
30483W        W 2154  34.736   0.833   1.946
30484W        W 2155  19.306  13.419   1.311
30485W        W 2156  42.279  41.991   1.377
30486W        W 2157  32.166   0.160   4.369
30487W        W 2158  17.049  22.582  11.407
30488W        W 2159  42.054  38.753  11.455
30489W        W 2160  16.528  38.589   2.565
30490W        W 2161   4.941  21.102   0.362
30491W        W 2162  20.477  15.046   0.320
30492W        W 2163  32.699  35.108   3.236
30493W        W 2164  42.023  28.085   2.220
30494W        W 2165  42.449  33.967   3.401
30495W        W 2166   7.280  28.252   3.221
30496W        W 2167   4.186  40.333   2.202
30497W        W 2168  15.658   1.879   4.241
30498W        W 2169  43.510   4.238  13.988
30499W        W 2170  43.311  41.907   4.284
30500W        W 2171  22.166  11.152  11.992
30501W        W 2172   0.238  25.572  12.214
30502W        W 2173  25.637  15.749  11.896
30503W        W 2174  21.122  37.828  12.444
30504W        W 2175  40.416  29.921   0.737
30505W        W 2176  31.020  39.068  14.047
30506W        W 2177   3.397  23.041   1.151
30507W        W 2178   5.626  11.711  13.897
30508W        W 2179  11.873   6.931  11.744
30509W        W 2180  10.187  40.411   1.970
30510W        W 2181  15.249  19.320   3.151
30511W        W 2182  12.344  44.027  10.835
30512W        W 2183   5.481   0.403  12.531
30513W        W 2184  28.221  21.772   3.144
30514W        W 2185   5.808  29.004   3.194
30515W        W 2186   0.938   5.921   4.098
30516W        W 2187  13.304  42.527   0.718
30517W        W 2188  34.385  37.356   2.738
30518W        W 2189   5.415  38.331  14.482
30519W        W 2190  12.572   6.000   3.172
30520W        W 2191  44.377  17.698  10.721
30521W        W 2192  19.261  25.212  14.814
30522W        W 2193  33.975  38.041   4.197
30523W        W 2194  32.769  19.301   1.567
30524W        W 2195  13.610  24.487   4.705
30525W        W 2196  32.902  22.024   0.923
30526W        W 2197  18.488  41.346   4.291
30527W        W 2198  16.243  40.780  14.993
30528W        W 2199  36.880   7.565   4.495
30529W        W 2200  23.270  33.886  14.745
30530W        W 2201  34.874  20.061  14.088
30531W        W 2202  41.495  38.529  10.638
30532W        W 2203  43.528  10.401   3.122
30533W        W 2204   7.869  23.718  10.825
30534W        W 2205  25.822  16.992  14.059
30535W        W 2206  23.859   0.690   2.769
30536W        W 2207  41.879  41.894   4.534
30537W        W 2208   1.258  25.649  12.090
30538W        W 2209  15.667  35.636   3.266
30539W        W 2210  43.490  37.210  10.063
30540W        W 2211  14.806  13.388  14.415
30541W        W 2212  14.534  31.635  12.515
30542W        W 2213  10.203   0.727   2.449
30543W        W 2214  36.000  13.128   3.624
30544W        W 2215  31.844  12.609   0.673
30545W        W 2216  10.575   6.852  11.936
30546W        W 2217  23.721  34.413   1.908
30547W        W 2218  14.572   1.502  13.532
30548W        W 2219  14.848  18.556   0.811
30549W        W 2220   8.141  34.529   2.233
30550W        W 2221  29.746  16.313  13.930
30551W        W 2222  10.694  34.559   2.767
30552W        W 2223  41.502  33.804   4.198
30553W        W 2224  38.564  38.985  14.383
30554W        W 2225  10.946   9.876   2.786
30555W        W 2226   6.727   8.486  12.012
30556W        W 2227  42.006  17.221  12.852
30557W        W 2228   4.487  43.718  12.884
30558W        W 2229   8.081  39.437  11.550
30559W        W 2230  15.219  37.928   2.691
30560W        W 2231  14.572  25.289   4.252
30561W        W 2232   3.723  31.904  13.531
30562W        W 2233  34.368  34.992   1.696
30563W        W 2234  37.465  41.959   0.342
30564W        W 2235  15.308  36.875  12.922
30565W        W 2236   4.404  43.742   2.851
30566W        W 2237   4.285  25.149  14.446
30567W        W 2238  44.849  43.004  12.050
30568W        W 2239  19.560  32.306   3.207
30569W        W 2240  41.551  11.730   3.800
30570W        W 2241  38.998  32.216  11.869
30571W        W 2242  19.591   6.293  11.067
30572W        W 2243  34.470  15.381   2.817
30573W        W 2244  17.202   3.800   0.952
30574W        W 2245  16.254  41.494  12.140
30575W        W 2246  39.923  18.284  11.499
30576W        W 2247   0.339  20.539   3.269
30577W        W 2248   5.499  30.032  13.946
30578W        W 2249  39.375   6.241  12.209
30579W        W 2250  32.446  43.959   0.890
30580W        W 2251  14.312  23.551  12.853
30581W        W 2252  27.435   4.703   3.175
30582W        W 2253  18.026  33.501   3.292
30583W        W 2254  26.414  44.490  13.424
30584W        W 2255  38.881  13.743   4.709
30585W        W 2256  29.149  14.609   1.042
30586W        W 2257   2.400  31.961   2.333
30587W        W 2258  33.247  21.459   3.723
30588W        W 2259   5.666  19.471  14.883
30589W        W 2260  26.424  34.242   2.959
30590W        W 2261   4.730  24.647   4.643
30591W        W 2262  12.828   4.820   4.556
30592W        W 2263  40.140   3.955  12.436
30593W        W 2264  20.883   1.032   4.947
30594W        W 2265   2.732  10.702   3.392
30595W        W 2266   6.027  43.334  11.652
30596W        W 2267   3.217  32.100   1.935
30597W        W 2268  20.702  14.296   3.267
30598W        W 2269  20.063  23.125   9.475
30599W        W 2270  33.180  19.474   2.835
30600W        W 2271  33.365  23.096  12.434
30601W        W 2272  10.162  12.842   0.341
30602W        W 2273  31.923   0.957  12.331
30603W        W 2274  21.041   9.845   3.823
30604W        W 2275  17.393  42.847   4.998
30605W        W 2276  42.769  13.790  11.483
30606W        W 2277  41.864  41.256  13.405
30607W        W 2278  28.665  21.166  14.949
30608W        W 2279  43.425   9.640  13.550
30609W        W 2280  21.818  21.808  14.122
30610W        W 2281  41.470   1.800  10.677
30611W        W 2282  12.787  24.359  11.229
30612W        W 2283   7.807  42.376  12.574
30613W        W 2284   7.494   4.231  12.368
30614W        W 2285  23.180   2.171  11.932
30615W        W 2286   4.481  25.210  12.694
30616W        W 2287  28.426   6.367  12.005
30617W        W 2288   7.075  23.122   4.122
30618W        W 2289  14.608  17.549   0.432
30619W        W 2290  26.021  44.291  10.891
30620W        W 2291  20.690  16.243   3.399
30621W        W 2292   0.928  27.008  10.129
30622W        W 2293  10.242  24.950  13.975
30623W        W 2294  35.699  16.661  12.452
30624W        W 2295   9.411  12.692  12.917
30625W        W 2296  42.523  12.968  11.016
30626W        W 2297  31.942  21.765  10.649
30627W        W 2298   6.989  36.004  11.379
30628W        W 2299   7.621  14.106  11.932
30629W        W 2300  41.273   3.162   3.174
30630W        W 2301  11.553   4.659   0.009
30631W        W 2302   2.690  26.603   3.685
30632W        W 2303  29.134  41.994   4.570
30633W        W 2304  15.990  10.109   5.158
30634W        W 2305   5.730   4.607  13.561
30635W        W 2306   7.829  24.364   3.730
30636W        W 2307   2.203   8.879   0.714
30637W        W 2308   7.719  36.481   3.608
30638W        W 2309  33.932  12.915   0.991
30639W        W 2310  10.962  10.622  12.851
30640W        W 2311  42.779   3.194   2.744
30641W        W 2312  29.976  29.975  14.501
30642W        W 2313  32.653  39.440  12.441
30643W        W 2314  28.054  19.621   2.648
30644W        W 2315  20.081  32.520  10.704
30645W        W 2316  40.115  33.480   3.090
30646W        W 2317  20.226  30.588   3.664
30647W        W 2318  17.461  29.480  14.932
30648W        W 2319  26.376  22.809   3.301
30649W        W 2320  18.029   9.332  11.869
30650W        W 2321  41.903  22.223  11.531
30651W        W 2322   0.719  43.747  11.332
30652W        W 2323  12.743  22.416   3.684
30653W        W 2324  37.283   4.335   1.268
30654W        W 2325  29.239   5.313   2.134
30655W        W 2326  32.962   3.943   0.583
30656W        W 2327   7.037  27.118   1.761
30657W        W 2328   4.115   4.810   1.830
30658W        W 2329  14.448  25.376  14.535
30659W        W 2330  42.990  44.752  11.082
30660W        W 2331  33.040  37.450   2.264
30661W        W 2332  32.820  10.197   2.293
30662W        W 2333  41.000  43.762  14.350
30663W        W 2334  43.810  12.718  12.599
30664W        W 2335  38.463  16.960  14.346
30665W        W 2336   0.826  13.726  10.530
30666W        W 2337   1.828  12.425  14.602
30667W        W 2338  21.707  28.433   2.083
30668W        W 2339   5.835  18.986  13.073
30669W        W 2340   7.250  27.417  13.954
30670W        W 2341  28.159   0.220   1.846
30671W        W 2342  16.105  24.135   4.581
30672W        W 2343  15.016  23.992  10.749
30673W        W 2344  20.524  15.670   1.318
30674W        W 2345  44.258  12.730  13.851
30675W        W 2346  23.050   2.822  13.090
30676W        W 2347  20.084  19.464  13.399
30677W        W 2348  40.955  24.584   2.701
30678W        W 2349  18.275  39.414  12.823
30679W        W 2350   3.624  33.406  13.544
30680W        W 2351  27.677   6.343  12.905
30681W        W 2352  44.214  20.207  11.645
30682W        W 2353  13.698  43.967   3.135
30683W        W 2354  34.838  25.956   0.749
30684W        W 2355  42.455  13.125  14.257
30685W        W 2356  28.134  24.579   3.476
30686W        W 2357   1.497  31.691  11.063
30687W        W 2358  20.804  30.891  13.946
30688W        W 2359  17.077  24.673  14.835
30689W        W 2360  10.710  36.463   2.636
30690W        W 2361  33.555  22.800  11.568
30691W        W 2362  34.207  30.551  14.219
30692W        W 2363  28.724  15.822   1.413
30693W        W 2364  12.955   0.097   4.048
30694W        W 2365  34.590  29.110  13.883
30695W        W 2366   0.727  15.096   2.898
30696W        W 2367  24.041  40.553   5.467
30697W        W 2368  25.173   8.055   3.620
30698W        W 2369  19.567  34.031  11.274
30699W        W 2370  33.900   2.279   3.304
30700W        W 2371  41.307  39.713  11.055
30701W        W 2372  12.078   8.270   1.297
30702W        W 2373  21.388   9.910   0.771
30703W        W 2374   0.290   8.713   4.140
30704W        W 2375  18.303  38.815   0.318
30705W        W 2376  44.441  39.492   5.227
30706W        W 2377  41.396  10.772  10.735
30707W        W 2378   4.984  33.132  12.315
30708W        W 2379  20.904  18.251   3.916
30709W        W 2380  40.263  14.609  11.693
30710W        W 2381   3.438  36.880   2.327
30711W        W 2382   1.392  33.914  13.679
30712W        W 2383  22.954   1.574   3.164
30713W        W 2384  18.217  36.789   3.262
30714W        W 2385  18.565  40.417  12.385
30715W        W 2386  25.329  19.520  12.046
30716W        W 2387   7.982  13.198  12.300
30717W        W 2388  11.872  29.582  11.654
30718W        W 2389  44.986  24.424  10.659
30719W        W 2390   6.268  36.947  14.008
30720W        W 2391  24.776  24.177   0.903
30721W        W 2392   9.636  31.686   3.120
30722W        W 2393  35.327   3.421   3.684
30723W        W 2394   9.219  12.637  11.589
30724W        W 2395  26.203  40.879   2.939
30725W        W 2396  21.802   6.284   4.373
30726W        W 2397   5.353  14.279   2.598
30727W        W 2398  20.988  33.163  12.648
30728W        W 2399  16.895  41.434   1.822
30729W        W 2400  42.610   3.413   1.466
30730W        W 2401   7.814  34.738  14.414
30731W        W 2402  27.499  28.362   1.886
30732W        W 2403  19.150  40.548   1.663
30733W        W 2404  18.703  35.399   3.320
30734W        W 2405  42.423  25.871   0.683
30735W        W 2406  27.465  22.045  12.595
30736W        W 2407  43.731  22.942  11.183
30737W        W 2408  25.083  24.595  12.574
30738W        W 2409  19.725   0.420   2.432
30739W        W 2410  16.125  23.691   1.601
30740W        W 2411  21.001  18.798   4.727
30741W        W 2412  12.135  40.371   4.503
30742W        W 2413  22.291  36.755   2.166
30743W        W 2414   8.404  36.559   1.484
30744W        W 2415   5.387  25.917   3.829
30745W        W 2416  44.552  39.094  11.512
30746W        W 2417  41.456   6.833   4.089
30747W        W 2418  14.407   5.588  14.508
30748W        W 2419  36.242  26.014  13.404
30749W        W 2420  11.747  42.939   1.927
30750W        W 2421  33.437  29.376  11.215
30751W        W 2422  28.687  14.851   0.507
30752W        W 2423   2.059  44.715  10.135
30753W        W 2424  31.740  40.364  13.411
30754W        W 2425  10.256  44.192   0.912
30755W        W 2426  34.943  37.834   1.793
30756W        W 2427  11.445  28.242   1.737
30757W        W 2428  13.209  15.138  13.608
30758W        W 2429   2.854   2.238  14.010
30759W        W 2430   2.713  25.680   2.256
30760W        W 2431  21.460  42.537   5.109
30761W        W 2432   6.072  30.626  14.270
30762W        W 2433   0.079  32.154  13.626
30763W        W 2434  42.289  43.751   4.202
30764W        W 2435  20.190  25.959   5.513
30765W        W 2436  23.685  14.983   0.466
30766W        W 2437  29.205  20.035   0.392
30767W        W 2438  12.290  18.087   1.376
30768W        W 2439  10.785  29.343   0.234
30769W        W 2440  22.135  24.216   1.383
30770W        W 2441   4.458  26.626  12.039
30771W        W 2442  14.798  26.514   9.964
30772W        W 2443  29.424  34.515  10.732
30773W        W 2444  41.060  41.012   1.781
30774W        W 2445  33.949  28.680   2.922
30775W        W 2446  41.659   4.113  13.270
30776W        W 2447  28.559   3.170  13.629
30777W        W 2448   8.735  14.275   1.094
30778W        W 2449  27.975  27.513  10.528
30779W        W 2450  32.816  39.923   4.666
30780W        W 2451   3.491   8.796  13.962
30781W        W 2452  17.822  30.450   2.467
30782W        W 2453  23.958   4.268  12.858
30783W        W 2454   5.031  26.639   5.035
30784W        W 2455  11.845   9.940   1.215
30785W        W 2456   9.270  35.393  14.286
30786W        W 2457   0.536  39.045  13.355
30787W        W 2458   2.477  10.263   3.389
30788W        W 2459  12.794   1.226  12.802
30789W        W 2460  26.131  12.125  13.156
30790W        W 2461   1.794  10.761  13.464
30791W        W 2462  30.196  39.956   0.837
30792W        W 2463  37.562  20.115   1.386
30793W        W 2464  19.595  16.605  11.502
30794W        W 2465   2.244  18.118   0.935
30795W        W 2466   4.506  42.880  14.889
30796W        W 2467  11.193  15.221  13.376
30797W        W 2468  14.211   3.947  12.382
30798W        W 2469  35.366  13.169   2.758
30799W        W 2470  36.547  37.804  11.569
30800W        W 2471  13.973  39.623   4.743
30801W        W 2472  20.027  10.196   3.668
30802W        W 2473  41.206  40.533  10.689
30803W        W 2474  21.134  17.186  13.948
30804W        W 2475   4.789  43.470  10.476
30805W        W 2476  27.555  29.303  14.697
30806W        W 2477  24.236  39.169  12.900
30807W        W 2478   4.362  16.735   1.515
30808W        W 2479  32.112   0.281  11.510
30809W        W 2480  10.555   3.512   4.904
30810W        W 2481   7.725   5.727   2.294
30811W        W 2482  41.348  27.979  12.486
30812W        W 2483  42.601  24.959  14.220
30813W        W 2484  32.907  17.303  12.019
30814W        W 2485  18.679  22.112  13.528
30815W        W 2486   4.984  44.264   3.252
30816W        W 2487  39.948  44.932   4.158
30817W        W 2488  24.845  29.675   0.091
30818W        W 2489  27.585  11.445   1.069
30819W        W 2490   4.515  14.193  14.216
30820W        W 2491  33.791  32.588   1.384
30821W        W 2492  13.323  29.347  13.641
30822W        W 2493   1.226  37.258  12.437
30823W        W 2494  44.371  13.012   3.104
30824W        W 2495  40.017  25.956   0.951
30825W        W 2496  16.663  13.139   3.749
30826W        W 2497  17.005  38.024   2.068
30827W        W 2498   5.355   5.329   1.902
30828W        W 2499  28.495   9.572   0.475
30829W        W 2500  30.998  41.998   1.675
30830W        W 2501  22.666  34.086  11.866
30831W        W 2502  30.809   6.328  10.821
30832W        W 2503  11.909  28.447   0.663
30833W        W 2504  10.285  26.674  14.993
30834W        W 2505   6.379  30.226   2.168
30835W        W 2506  15.096  34.568   2.233
30836W        W 2507  39.806  17.759  11.752
30837W        W 2508  31.428  43.302  11.893
30838W        W 2509   9.766  10.239   4.455
30839W        W 2510  35.336   4.353   1.525
30840W        W 2511  36.030  40.571   3.781
30841W        W 2512  20.722  29.579  11.728
30842W        W 2513  23.467  16.688   4.692
30843W        W 2514  27.140  13.374   2.241
30844W        W 2515  10.736  40.136   0.886
30845W        W 2516  38.350  37.422  10.579
30846W        W 2517  35.103  19.038  11.063
30847W        W 2518  34.211   9.423   1.674
30848W        W 2519   7.447  18.291  11.568
30849W        W 2520  11.773  13.256   4.629
30850W        W 2521  42.818  17.554   4.153
30851W        W 2522  25.391  25.029   4.750
30852W        W 2523  22.572  10.318  10.969
30853W        W 2524  21.555  35.497   3.645
30854W        W 2525   6.422  18.143   1.405
30855W        W 2526  40.367  32.562  12.752
30856W        W 2527  32.139  41.927   4.059
30857W        W 2528  14.737   1.702  14.445
30858W        W 2529  16.324  40.853  13.919
30859W        W 2530  17.457  22.227   3.426
30860W        W 2531  36.081  36.860  11.197
30861W        W 2532  27.117  29.642   3.736
30862W        W 2533  24.367  35.160  11.329
30863W        W 2534  36.595  40.582  13.454
30864W        W 2535  38.365   7.840  14.511
30865W        W 2536  24.697  12.983   0.881
30866W        W 2537   8.896  39.405   4.537
30867W        W 2538  19.741  14.607  14.936
30868W        W 2539  11.814  30.123   0.152
30869W        W 2540  41.247  18.822  10.911
30870W        W 2541  38.054  16.582   3.210
30871W        W 2542  26.192  33.892  11.459
30872W        W 2543  28.606  34.413  13.543
30873W        W 2544  35.599  42.570   4.102
30874W        W 2545   5.979  16.618   1.384
30875W        W 2546  39.862   3.854   2.490
30876W        W 2547   4.363  35.476   1.524
30877W        W 2548   2.540  13.106  14.554
30878W        W 2549  18.000  11.598  14.984
30879W        W 2550  39.571  26.818  11.480
30880W        W 2551  28.491   3.739  10.612
30881W        W 2552   5.189  35.014   1.347
30882W        W 2553  21.169   0.178   1.816
30883W        W 2554  40.774  40.486   4.708
30884W        W 2555  34.237  29.581   4.632
30885W        W 2556  44.855   0.812   4.817
30886W        W 2557   5.241  38.568   3.275
30887W        W 2558  22.635   8.682  14.323
30888W        W 2559  33.976  18.069  14.999
30889W        W 2560  25.527  10.671   4.640
30890W        W 2561  32.383   2.978   4.785
30891W        W 2562  42.271   2.747  12.549
30892W        W 2563  25.929  14.690  13.844
30893W        W 2564  35.444  42.812  11.921
30894W        W 2565  37.189  33.513   2.711
30895W        W 2566  31.032  36.774  13.375
30896W        W 2567  15.558   7.463   4.143
30897W        W 2568  24.425  28.016   0.347
30898W        W 2569  32.918  23.187   4.396
30899W        W 2570  18.351  37.590   2.753
30900W        W 2571  26.810  25.012   2.869
30901W        W 2572  35.530  41.574  12.911
30902W        W 2573  18.345  10.283   2.420
30903W        W 2574  37.946  44.783   0.316
30904W        W 2575  27.720   8.284   3.878
30905W        W 2576  24.576  11.257  13.509
30906W        W 2577   4.125  16.009   3.244
30907W        W 2578  20.002  41.460  11.156
30908W        W 2579  33.475   3.480  14.800
30909W        W 2580  40.900  38.434   3.336
30910W        W 2581  27.891   2.589  13.105
30911W        W 2582  37.489   1.099   3.092
30912W        W 2583  17.855  40.936   2.531
30913W        W 2584  26.127  24.542  13.262
30914W        W 2585  14.372  27.564   0.999
30915W        W 2586   7.003  30.491  10.736
30916W        W 2587  12.704  39.094   3.402
30917W        W 2588  35.165   1.036  10.533
30918W        W 2589  32.626  33.501   2.682
30919W        W 2590  11.481  14.533  11.904
30920W        W 2591  14.251  44.457   0.473
30921W        W 2592  16.866  44.560   3.322
30922W        W 2593  11.652   1.236  14.104
30923W        W 2594   8.455  11.661   2.772
30924W        W 2595  12.642  11.186  13.382
30925W        W 2596   9.008   6.764  13.751
30926W        W 2597  25.116   5.915  11.988
30927W        W 2598  40.917  43.893  11.894
30928W        W 2599  43.792  28.946  12.028
30929W        W 2600  35.758  13.702  11.635
30930W        W 2601  33.911  29.068  12.007
30931W        W 2602   5.645  42.773  13.784
30932W        W 2603  34.649  10.158  14.769
30933W        W 2604  31.148   5.307   0.402
30934W        W 2605  19.035   9.331  12.960
30935W        W 2606  11.615  23.535  13.943
30936W        W 2607  22.537  36.971  11.212
30937W        W 2608  28.172  10.744  12.896
30938W        W 2609   8.264  26.130  13.942
30939W        W 2610  31.629  40.389  11.635
30940W        W 2611   5.354  43.021   2.225
30941W        W 2612  12.861  16.362   2.916
30942W        W 2613  31.656  11.757  12.305
30943W        W 2614  10.304  10.726   0.912
30944W        W 2615  32.801   6.748  10.394
30945W        W 2616  44.231  13.782  12.172
30946W        W 2617  30.536  31.901  11.140
30947W        W 2618   9.804   8.925   1.292
30948W        W 2619   5.341  27.590  14.980
30949W        W 2620  37.537  41.427  12.269
30950W        W 2621  16.155  11.334  13.000
30951W        W 2622  38.937  32.498   0.461
30952W        W 2623  10.014  35.036  13.603
30953W        W 2624  20.644   6.303   2.404
30954W        W 2625   1.315  36.501   0.322
30955W        W 2626  40.998  15.951   0.695
30956W        W 2627  19.057  31.120   4.894
30957W        W 2628  22.565   8.728   3.685
30958W        W 2629  37.922   9.085  13.513
30959W        W 2630   2.632  33.838  11.960
30960W        W 2631  19.519  36.980   2.296
30961W        W 2632  27.463  35.295  10.736
30962W        W 2633  28.908  20.146   4.629
30963W        W 2634  41.874  41.068   4.470
30964W        W 2635  30.193  34.101  10.620
30965W        W 2636  22.875  30.602  11.459
30966W        W 2637  30.957  14.641   3.677
30967W        W 2638  11.674  12.494  14.984
30968W        W 2639   3.442  25.258  12.491
30969W        W 2640  23.642  16.246  12.080
30970W        W 2641  41.134  38.220   0.548
30971W        W 2642  43.695  33.245  11.678
30972W        W 2643  43.177   7.657  11.845
30973W        W 2644  15.832  42.970   4.599
30974W        W 2645  22.984  43.437  12.626
30975W        W 2646   9.678   1.401   4.652
30976W        W 2647  13.315   1.842   1.927
30977W        W 2648   6.777   6.318   2.375
30978W        W 2649   1.394  11.677   2.666
30979W        W 2650  15.109  25.067   3.151
30980W        W 2651  31.910  31.446  11.521
30981W        W 2652  23.673  35.906  11.911
30982W        W 2653  22.929  28.124  14.310
30983W        W 2654  44.048  28.789   0.761
30984W        W 2655   5.149   1.855   4.658
30985W        W 2656   2.688  40.488  11.445
30986W        W 2657  23.103  23.035  12.955
30987W        W 2658  44.945  13.768  13.413
30988W        W 2659   3.737  42.019   4.120
30989W        W 2660  40.416  27.465  13.176
30990W        W 2661   6.990  16.292   4.662
30991W        W 2662  22.614   7.443   1.830
30992W        W 2663  18.095  25.518  12.024
30993W        W 2664  30.404  21.996  11.029
30994W        W 2665  35.139  38.897   1.876
30995W        W 2666   5.711   4.869  14.041
30996W        W 2667  39.110  15.810   0.719
30997W        W 2668  30.147   4.992   1.788
30998W        W 2669  13.783  15.318   0.362
30999W        W 2670  10.435  44.796   4.638
31000W        W 2671   7.562  20.215   3.335
31001W        W 2672  39.544  16.096   3.716
31002W        W 2673  34.229  32.014  11.081
31003W        W 2674   5.212  39.408  11.152
31004W        W 2675  31.232   0.436  11.491
31005W        W 2676  19.342  29.157   1.812
31006W        W 2677   7.051  28.567  10.744
31007W        W 2678  40.731   8.657  11.497
31008W        W 2679  38.827  29.467  10.328
31009W        W 2680  42.948  29.550  14.306
31010W        W 2681  18.012   8.248   3.706
31011W        W 2682  11.391  19.318  13.358
31012W        W 2683  34.134  41.484   4.597
31013W        W 2684  44.983  30.563   3.065
31014W        W 2685  17.623  30.516   4.653
31015W        W 2686  17.347  38.446   3.331
31016W        W 2687  15.175  32.888  14.840
31017W        W 2688  29.908  37.847   0.995
31018W        W 2689  22.179  23.474   0.963
31019W        W 2690   0.052  18.483  12.082
31020W        W 2691  42.970  30.923  13.536
31021W        W 2692  23.539  10.486  12.919
31022W        W 2693   4.013  36.440   2.793
31023W        W 2694  43.034   8.712   0.238
31024W        W 2695  29.022  27.530  13.466
31025W        W 2696   9.452  23.150   4.677
31026W        W 2697  14.204  30.046   1.712
31027W        W 2698   3.330  20.290   1.719
31028W        W 2699  17.508  19.000   3.168
31029W        W 2700  19.925  10.302  12.398
31030W        W 2701  42.793   9.199   3.404
31031W        W 2702  33.639  37.276   5.421
31032W        W 2703   7.637  21.519  10.608
31033W        W 2704  27.517   7.851  11.652
31034W        W 2705  35.080  16.695   4.357
31035W        W 2706   8.414  43.888   2.830
31036W        W 2707  37.457  14.528  13.259
31037W        W 2708  12.747   3.460  13.118
31038W        W 2709  27.461  36.823  11.604
31039W        W 2710  17.651  37.145  10.632
31040W        W 2711   6.931   3.568  14.806
31041W        W 2712  25.656   4.964  11.410
31042W        W 2713  38.159  30.041  11.087
31043W        W 2714  30.983   0.407   2.437
31044W        W 2715  33.342  44.368  10.328
31045W        W 2716   5.814  30.410   4.096
31046W        W 2717   9.326  26.883   2.094
31047W        W 2718  29.038  32.845  11.264
31048W        W 2719   3.645   4.411   3.772
31049W        W 2720   3.414  37.461   1.640
31050W        W 2721  18.668  31.056  13.022
31051W        W 2722  30.169   0.874  13.384
31052W        W 2723  27.211  42.925  10.813
31053W        W 2724   8.867  39.505   2.295
31054W        W 2725   5.973  31.508   0.370
31055W        W 2726  27.735  25.126  11.157
31056W        W 2727  26.200  15.633   0.435
31057W        W 2728  38.071  40.477  11.843
31058W        W 2729  38.901  33.568   1.786
31059W        W 2730  42.124  25.584   0.993
31060W        W 2731  44.598   1.228  12.877
31061W        W 2732  37.517  30.395   1.720
31062W        W 2733  17.687   7.145  14.831
31063W        W 2734  27.706  28.708   0.594
31064W        W 2735   2.770  27.499   4.434
31065W        W 2736  22.134  21.616   1.525
31066W        W 2737  43.492   8.385  12.114
31067W        W 2738  16.580  23.411   2.740
31068W        W 2739  14.330   6.278   0.711
31069W        W 2740   0.876  29.347  12.434
31070W        W 2741  27.516  34.655  12.973
31071W        W 2742  18.185  40.104   1.305
31072W        W 2743  43.207   2.782  12.339
31073W        W 2744  24.093  28.083   4.642
31074W        W 2745   5.231   6.749  11.729
31075W        W 2746   1.922  28.186  14.971
31076W        W 2747  18.125  42.271  12.067
31077W        W 2748  17.982   5.688   4.159
31078W        W 2749  37.992  35.027  10.743
31079W        W 2750  12.807  26.707   4.981
31080W        W 2751   7.732  26.538   2.347
31081W        W 2752  18.767   0.239   3.798
31082W        W 2753  13.131   3.840   4.076
31083W        W 2754  16.297  15.737   4.639
31084W        W 2755  22.112  14.241   1.027
31085W        W 2756  25.574  31.177   2.383
31086W        W 2757  37.895  16.737  13.250
31087W        W 2758  19.753  38.143  11.529
31088W        W 2759  31.920  27.474  12.674
31089W        W 2760   4.392  25.376  13.993
31090W        W 2761  32.041  29.661  10.978
31091W        W 2762  36.565  21.242   2.733
31092W        W 2763   6.256   8.623  11.882
31093W        W 2764  21.104  30.271  12.951
31094W        W 2765  11.597   1.944  14.986
31095W        W 2766  39.962  15.519  14.020
31096W        W 2767   3.022  18.086  11.982
31097W        W 2768   2.708   5.428  12.594
31098W        W 2769   4.676  31.948  10.784
31099W        W 2770  32.694  11.715   0.761
31100W        W 2771  21.641  13.173   4.856
31101W        W 2772  22.241  38.621   5.039
31102W        W 2773  44.897  37.045   4.747
31103W        W 2774  38.938  34.517   4.508
31104W        W 2775  39.827  20.218  11.706
31105W        W 2776  37.354  13.552  12.850
31106W        W 2777  17.317   5.307   0.320
31107W        W 2778  39.804   6.211   0.803
31108W        W 2779  27.742  42.534  14.054
31109W        W 2780  19.303  23.388  12.016
31110W        W 2781  30.877  21.621  14.911
31111W        W 2782  35.997   7.717   1.201
31112W        W 2783  12.257  10.227  13.015
31113W        W 2784  30.143  30.090  10.776
31114W        W 2785  35.798   8.711   4.611
31115W        W 2786  13.557  27.477   3.631
31116W        W 2787  11.365  23.494   2.804
31117W        W 2788  12.901   7.484   4.657
31118W        W 2789   4.807  29.443   3.620
31119W        W 2790  44.198  27.551  10.197
31120W        W 2791   7.214  21.370   4.988
31121W        W 2792  23.995  30.920   3.239
31122W        W 2793  43.871   6.953  10.580
31123W        W 2794  33.573  43.931  14.788
31124W        W 2795  38.242  19.414  14.002
31125W        W 2796  24.484  24.063  11.896
31126W        W 2797  11.543  15.119   1.400
31127W        W 2798  20.166  34.878   0.254
31128W        W 2799   9.231  33.696  14.760
31129W        W 2800   5.747  29.865  12.678
31130W        W 2801  25.035  24.021  10.418
31131W        W 2802  30.962  39.787  11.801
31132W        W 2803  22.432  32.550   1.125
31133W        W 2804  40.454  10.693   3.287
31134W        W 2805  31.131  21.431  14.062
31135W        W 2806   2.778  40.706  13.374
31136W        W 2807   5.355  39.868   4.128
31137W        W 2808  19.076  17.201   0.234
31138W        W 2809   0.408   8.560  10.855
31139W        W 2810  37.863  14.592  14.019
31140W        W 2811  13.296  11.358  14.871
31141W        W 2812   4.437  12.288   4.170
31142W        W 2813  14.650  21.191  12.154
31143W        W 2814  16.369  15.720   3.708
31144W        W 2815  35.000  28.397   2.478
31145W        W 2816  18.623  19.193  10.633
31146W        W 2817  25.064  42.927   0.871
31147W        W 2818  38.041  12.288   4.360
31148W        W 2819  28.339   0.254  13.010
31149W        W 2820  27.512  15.414  12.500
31150W        W 2821   9.432  23.473   0.487
31151W        W 2822  10.700  39.536   3.342
31152W        W 2823  14.379  35.849   4.284
31153W        W 2824  33.988  37.855   1.692
31154W        W 2825  24.649  39.582   2.792
31155W        W 2826  41.785  32.627  13.858
31156W        W 2827  20.306  27.427   5.714
31157W        W 2828   4.143  28.149   1.291
31158W        W 2829   0.550  33.702  14.938
31159W        W 2830  42.427   6.335  13.020
31160W        W 2831  43.990   8.405  14.318
31161W        W 2832  13.544  35.940  10.976
31162W        W 2833  32.898   3.837  13.826
31163W        W 2834  39.564  18.534  14.787
31164W        W 2835  31.031   6.453  11.994
31165W        W 2836  38.990  26.588   2.248
31166W        W 2837  16.579  29.182   4.258
31167W        W 2838  36.816  16.011   2.570
31168W        W 2839  19.734   4.439   0.871
31169W        W 2840  11.299  32.128   1.137
31170W        W 2841  15.388  26.963  14.612
31171W        W 2842  16.369  41.959   0.502
31172W        W 2843  17.678   9.662  12.084
31173W        W 2844  20.531  38.436   1.377
31174W        W 2845   1.007  44.760   3.635
31175W        W 2846  44.355   1.206  13.346
31176W        W 2847  33.963  11.783   3.052
31177W        W 2848   1.798   7.910  10.944
31178W        W 2849  13.119  44.842  14.303
31179W        W 2850   4.277  24.731   0.818
31180W        W 2851  39.544  24.585   1.852
31181W        W 2852   2.845  41.300   3.675
31182W        W 2853  38.218   9.918   3.672
31183W        W 2854  17.479  23.215  12.955
31184W        W 2855   2.355  28.201  13.517
31185W        W 2856  16.853  20.339  11.098
31186W        W 2857  41.954  19.458   1.282
31187W        W 2858  31.652  13.125   0.712
31188W        W 2859  41.929  37.460  10.537
31189W        W 2860  38.065  37.388   0.438
31190W        W 2861  11.696  18.260   3.263
31191W        W 2862   7.371  27.847  14.800
31192W        W 2863  10.440  37.567  13.227
31193W        W 2864  32.817  21.804  13.451
31194W        W 2865  10.336  27.395   3.820
31195W        W 2866   2.014  11.577   0.790
31196W        W 2867  41.232  21.782  12.008
31197W        W 2868  26.980   3.849   4.275
31198W        W 2869   0.909   0.224   2.235
31199W        W 2870  44.879   3.321  11.899
31200W        W 2871  38.974  22.677  11.392
31201W        W 2872  12.439  40.435   1.342
31202W        W 2873  44.543  43.777  14.314
31203W        W 2874  14.995  42.326   2.193
31204W        W 2875  15.885   2.302  13.085
31205W        W 2876  44.305   2.539  11.131
31206W        W 2877  25.542  42.456  13.746
31207W        W 2878  25.017  16.010   4.121
31208W        W 2879  38.818  24.672   1.324
31209W        W 2880  40.900  24.041   4.591
31210W        W 2881  10.894   8.110  11.976
31211W        W 2882  24.878   9.749  11.925
31212W        W 2883  34.973  15.741   0.482
31213W        W 2884  40.706  26.541  11.955
31214W        W 2885  39.293   4.766   1.819
31215W        W 2886  38.577   9.829   2.083
31216W        W 2887  38.511  21.681  11.134
31217W        W 2888  13.211  44.314   1.378
31218W        W 2889   4.171  18.610   4.159
31219W        W 2890  11.365  42.092   1.532
31220W        W 2891   5.912  29.548  10.983
31221W        W 2892  21.561   1.832  13.723
31222W        W 2893  12.623  36.906  10.782
31223W        W 2894  43.189  10.761   1.431
31224W        W 2895  24.975  24.714   4.105
31225W        W 2896   3.171  19.685  14.056
31226W        W 2897   7.704  15.063  12.646
31227W        W 2898   4.553  10.867   2.300
31228W        W 2899  30.849  32.302  11.134
31229W        W 2900  29.158  33.566   1.697
31230W        W 2901   3.903   5.244   3.403
31231W        W 2902   8.389  12.135   4.726
31232W        W 2903  43.736  35.919   2.750
31233W        W 2904   4.735  28.974   3.149
31234W        W 2905  24.452  25.246   3.192
31235W        W 2906  16.048  40.986   3.782
31236W        W 2907  16.255  44.276   4.149
31237W        W 2908  36.333  20.458  10.866
31238W        W 2909  14.708  31.891  13.487
31239W        W 2910   1.406   6.725   3.288
31240W        W 2911  27.273  12.777  10.591
31241W        W 2912  18.248  11.895  12.176
31242W        W 2913  10.936  23.754   0.502
31243W        W 2914   4.673  20.587   0.597
31244W        W 2915  35.091  27.438   4.106
31245W        W 2916  28.668   1.754  14.755
31246W        W 2917  23.803  13.190   1.815
31247W        W 2918  24.480  40.070   4.117
31248W        W 2919  13.305  21.076   4.831
31249W        W 2920  30.902  11.096   4.109
31250W        W 2921  39.579   4.592  10.272
31251W        W 2922  12.022   0.581  13.908
31252W        W 2923  20.503  34.459  13.623
31253W        W 2924  35.430  21.668  14.320
31254W        W 2925  20.698  21.503  13.505
31255W        W 2926   8.340  39.934   1.273
31256W        W 2927  16.693  35.013   1.881
31257W        W 2928  11.052  29.010   2.238
31258W        W 2929  39.097  25.225   5.028
31259W        W 2930  22.691   3.370  13.389
31260W        W 2931  43.694  23.470  11.133
31261W        W 2932  31.074  26.408   4.197
31262W        W 2933  25.605  37.381  12.194
31263W        W 2934  11.385  17.554   4.146
31264W        W 2935  29.432  33.498   2.190
31265W        W 2936  17.384  41.320   1.877
31266W        W 2937  26.449   0.251  12.529
31267W        W 2938  39.754   2.916  10.645
31268W        W 2939  35.646  15.832  10.997
31269W        W 2940  44.070  14.648   4.248
31270W        W 2941  28.043  26.665  14.331
31271W        W 2942  44.530   3.154   3.224
31272W        W 2943  34.371  11.155  14.755
31273W        W 2944  25.611   9.220   2.797
31274W        W 2945  44.297  36.125   0.494
31275W        W 2946  32.858   5.169   1.472
31276W        W 2947  38.645  32.208  14.851
31277W        W 2948   5.366  34.338   0.954
31278W        W 2949   0.908  33.541   3.202
31279W        W 2950   7.429   8.505  14.842
31280W        W 2951  40.774  15.346  11.966
31281W        W 2952  16.087  44.414   4.640
31282W        W 2953  21.916   5.791   3.771
31283W        W 2954   3.174  32.963  11.036
31284W        W 2955  10.293  12.336   1.792
31285W        W 2956   5.231  43.369   4.668
31286W        W 2957  44.845  18.489  10.710
31287W        W 2958  44.469  10.188   4.119
31288W        W 2959  13.707  14.150   4.834
31289W        W 2960  38.397  25.718  11.187
31290W        W 2961  32.758  31.976   1.735
31291W        W 2962  32.933  11.598   4.526
31292W        W 2963   8.114  23.428   3.348
31293W        W 2964   2.006  38.111  12.566
31294W        W 2965  23.961  40.306  11.045
31295W        W 2966  31.413  44.786   0.007
31296W        W 2967  41.086  23.203   2.622
31297W        W 2968   0.321  33.755  11.501
31298W        W 2969  22.565  28.327   2.317
31299W        W 2970  16.678  12.618  12.112
31300W        W 2971  21.199  38.317  11.100
31301W        W 2972  30.372  21.109   2.322
31302W        W 2973  37.977  34.988  11.612
31303W        W 2974  37.037  39.768   1.249
31304W        W 2975  33.974  44.677  13.032
31305W        W 2976  14.813  12.431  14.067
31306W        W 2977  11.852  35.165  13.360
31307W        W 2978  36.488  21.294  14.879
31308W        W 2979  18.259   6.790   0.339
31309W        W 2980  38.122  20.674  12.363
31310W        W 2981  25.068  31.445   4.414
31311W        W 2982  20.726  19.099  14.352
31312W        W 2983   7.498  18.996   2.886
31313W        W 2984  14.613  23.054  10.658
31314W        W 2985  20.893   7.352  14.862
31315W        W 2986  17.715  25.128  11.441
31316W        W 2987   3.332  39.277   1.377
31317W        W 2988  15.479  17.447   1.672
31318W        W 2989  11.179   0.875   3.390
31319W        W 2990  39.398  35.609  13.173
31320W        W 2991   9.678  42.565   0.454
31321W        W 2992  33.226  13.807  13.088
31322W        W 2993  29.646  32.204  10.643
31323W        W 2994  11.817  13.119   3.319
31324W        W 2995  41.491  27.431  14.926
31325W        W 2996   2.871  44.224   3.607
31326W        W 2997   6.357   7.655   1.960
31327W        W 2998  26.999  19.889  11.879
31328W        W 2999   4.797  18.856  14.525
31329W        W 3000   7.957  33.446  13.589
31330W        W 3001  14.085  13.362  14.772
31331W        W 3002   5.467   4.157  13.470
31332W        W 3003  11.614  18.686  14.586
31333W        W 3004  27.431  22.719  10.580
31334W        W 3005  23.518  19.350  14.523
31335W        W 3006   5.961   0.761   3.732
31336W        W 3007  25.489  22.189  14.970
31337W        W 3008  33.478  30.384   3.375
31338W        W 3009  34.775  33.123  14.248
31339W        W 3010  18.284  13.349   2.354
31340W        W 3011   6.418  44.250   0.188
31341W        W 3012   9.508  16.063   1.135
31342W        W 3013  15.962   4.027   3.748
31343W        W 3014   9.753  26.817  14.393
31344W        W 3015   8.292  28.080   4.646
31345W        W 3016  22.582   5.189  13.331
31346W        W 3017  27.894  31.636   0.330
31347W        W 3018  32.582  36.077  14.860
31348W        W 3019  39.044  24.442   3.639
31349W        W 3020   1.358  27.150  12.893
31350W        W 3021  20.567  41.508  10.217
31351W        W 3022  10.740   7.410   2.761
31352W        W 3023  39.481  26.555  13.287
31353W        W 3024   3.621   0.975  13.868
31354W        W 3025  14.986  12.321   1.451
31355W        W 3026  39.176  33.589   2.757
31356W        W 3027  36.552  28.726  12.007
31357W        W 3028   6.335  15.187  11.635
31358W        W 3029  39.082  37.381  12.381
31359W        W 3030   0.665  41.925  12.504
31360W        W 3031  34.107  43.042  13.955
31361W        W 3032  19.524  13.177  11.414
31362W        W 3033  43.397   3.090   1.896
31363W        W 3034   7.538  32.843  14.016
31364W        W 3035  28.089  23.464   1.779
31365W        W 3036   8.584  28.880   1.273
31366W        W 3037  28.020  27.424  13.633
31367W        W 3038  10.306  14.680   0.860
31368W        W 3039   2.803  11.623   2.271
31369W        W 3040  43.243  31.545  10.532
31370W        W 3041  16.834  34.133   0.358
31371W        W 3042  34.341  30.599   3.712
31372W        W 3043  17.616  25.093  12.543
31373W        W 3044  25.197  15.624   5.055
31374W        W 3045   2.485  28.373  12.998
31375W        W 3046  16.641  24.676   1.442
31376W        W 3047  25.304  42.359  11.093
31377W        W 3048  18.101   6.280  13.656
31378W        W 3049  37.820  32.074   2.886
31379W        W 3050  22.406  18.171   2.287
31380W        W 3051  38.281  10.332  13.439
31381W        W 3052  34.412   7.286   0.087
31382W        W 3053  37.494  22.643  11.218
31383W        W 3054  26.621  28.062  12.929
31384W        W 3055  16.587   2.834  14.965
31385W        W 3056   6.830  29.533   2.815
31386W        W 3057  36.221   7.913   2.934
31387W        W 3058  37.998   7.755   1.659
31388W        W 3059   6.911  30.592  13.124
31389W        W 3060   1.994  19.299  10.643
31390W        W 3061  33.044  14.154   2.625
31391W        W 3062  24.231  37.639  14.905
31392W        W 3063  26.079  33.488   5.006
31393W        W 3064  39.341  30.975   3.855
31394W        W 3065  44.918  37.276   4.285
31395W        W 3066   1.567   5.482   2.774
31396W        W 3067  34.473  13.698  12.538
31397W        W 3068   4.956  23.576  14.088
31398W        W 3069  42.549  28.706  14.291
31399W        W 3070  42.707  38.042  13.512
31400W        W 3071  18.082   1.998  13.952
31401W        W 3072  30.049  26.503   1.693
31402W        W 3073  14.769  18.786  14.900
31403W        W 3074  27.717  11.429  10.561
31404W        W 3075  36.486  31.671   1.306
31405W        W 3076   9.328  23.063   2.156
31406W        W 3077  41.839  12.003   1.189
31407W        W 3078  28.723  44.178  12.908
31408W        W 3079   3.063  34.525   2.642
31409W        W 3080  37.091  17.725  13.352
31410W        W 3081   6.705  31.683  12.108
31411W        W 3082  14.085  33.588  11.906
31412W        W 3083  32.060  44.927  12.644
31413W        W 3084  24.043   5.217   4.566
31414W        W 3085   4.815  21.725   1.569
31415W        W 3086   0.054  13.152   1.990
31416W        W 3087  28.951  31.492  11.611
31417W        W 3088  10.386  16.564  12.822
31418W        W 3089   5.014   8.870  14.760
31419W        W 3090  30.001  25.107  11.482
31420W        W 3091  42.238  14.257   2.440
31421W        W 3092  19.571  38.062  13.839
31422W        W 3093   0.544   7.347  10.718
31423W        W 3094  29.700  34.286  14.932
31424W        W 3095  20.498  26.399  13.979
31425W        W 3096  44.340  12.170  10.295
31426W        W 3097  40.676   5.695   3.652
31427W        W 3098  37.597  40.563  12.059
31428W        W 3099  21.308  22.267  14.976
31429W        W 3100   9.162  10.698   0.492
31430W        W 3101  12.667   7.478   3.324
31431W        W 3102  24.655  12.109   3.588
31432W        W 3103  29.808  20.095   3.779
31433W        W 3104  36.597   5.823   1.301
31434W        W 3105  34.781  40.014  10.619
31435W        W 3106  11.829  36.875  13.046
31436W        W 3107  19.267  31.831  13.347
31437W        W 3108  21.153  19.476   0.739
31438W        W 3109   2.765  25.032   1.686
31439W        W 3110  41.017  37.262  14.401
31440W        W 3111  41.876   0.875   0.388
31441W        W 3112  42.819  12.636  10.227
31442W        W 3113   4.257  32.119   2.807
31443W        W 3114   7.194   3.326   4.554
31444W        W 3115   7.831   3.818   4.029
31445W        W 3116   9.853   4.233   3.244
31446W        W 3117   5.199  22.230  14.752
31447W        W 3118  27.483  26.689  12.600
31448W        W 3119  18.076  22.935  10.844
31449W        W 3120  40.495  10.364  11.526
31450W        W 3121  29.566  12.084   4.610
31451W        W 3122  23.152  34.773  13.012
31452W        W 3123  36.467  20.378   4.562
31453W        W 3124  21.671  27.526   4.829
31454W        W 3125  12.205  13.846  14.910
31455W        W 3126   1.436   4.886  10.857
31456W        W 3127  29.113  28.234  12.075
31457W        W 3128  27.755  43.748   2.799
31458W        W 3129  14.455   6.293  13.893
31459W        W 3130  15.777  37.308   3.109
31460W        W 3131  29.390   1.317   1.449
31461W        W 3132   4.330  18.449  11.495
31462W        W 3133   7.912   5.029   0.876
31463W        W 3134  32.882  12.564   4.602
31464W        W 3135   6.457  30.326  13.042
31465W        W 3136  10.313  11.516  10.102
31466W        W 3137  29.046  31.921  12.881
31467W        W 3138  28.263  41.045   4.708
31468W        W 3139   1.422   8.380  11.714
31469W        W 3140  23.645  23.763  11.058
31470W        W 3141   8.084  36.463  10.880
31471W        W 3142  42.287  27.951  11.602
31472W        W 3143  10.553  32.535  13.444
31473W        W 3144  29.963   2.422   4.810
31474W        W 3145   3.209   0.705   3.939
31475W        W 3146  25.694   5.069  11.928
31476W        W 3147   1.183   9.269  14.023
31477W        W 3148  16.080  25.234   2.707
31478W        W 3149   4.296  41.073   4.161
31479W        W 3150  39.557  43.550  11.909
31480W        W 3151   6.451  24.174   4.513
31481W        W 3152  20.057  11.896  14.940
31482W        W 3153   0.447  42.966  13.811
31483W        W 3154   3.447  20.025   1.264
31484W        W 3155  35.624  27.260  11.389
31485W        W 3156  26.065  38.894  13.833
31486W        W 3157  26.498  36.664   4.035
31487W        W 3158  15.103  32.513   1.375
31488W        W 3159   5.813  19.266   0.356
31489W        W 3160  11.070  32.061  14.592
31490W        W 3161  31.640  30.820  13.449
31491W        W 3162   4.050  43.453  14.329
31492W        W 3163  44.927  37.109   0.590
31493W        W 3164   4.399  17.683   0.168
31494W        W 3165  33.603  15.153   1.961
31495W        W 3166  28.657  38.903  10.655
31496W        W 3167  12.650  30.394  13.875
31497W        W 3168  16.647  40.504  12.837
31498W        W 3169   5.441  31.695  12.550
31499W        W 3170  37.743   0.522   3.260
31500W        W 3171  34.416   4.632  12.073
31501W        W 3172  39.992   3.652  11.654
31502W        W 3173  13.879  24.052   0.282
31503W        W 3174  12.778  37.177   4.057
31504W        W 3175  44.452   7.675   2.696
31505W        W 3176  40.897  27.108   2.759
31506W        W 3177  29.320  36.417   0.221
31507W        W 3178  28.523  26.503   2.724
31508W        W 3179   7.058   5.816  10.510
31509W        W 3180  33.916  26.550   2.137
31510W        W 3181   3.428  19.071   3.420
31511W        W 3182  23.497   1.185   1.485
31512W        W 3183  11.883  12.259   3.687
31513W        W 3184  44.334  44.279  14.198
31514W        W 3185  14.681  36.552  13.477
31515W        W 3186  41.796  26.103   4.801
31516W        W 3187  19.915  34.886   2.648
31517W        W 3188  25.453   2.413  12.025
31518W        W 3189  11.255  14.617  11.446
31519W        W 3190  11.888  43.248  13.897
31520W        W 3191  21.690  27.093   2.189
31521W        W 3192  15.293   0.720   0.790
31522W        W 3193  22.322  17.682   3.223
31523W        W 3194  31.533  42.069  10.811
31524W        W 3195  42.906  15.168   0.892
31525W        W 3196  35.127  22.295   4.198
31526W        W 3197  33.352  35.382   1.393
31527W        W 3198  11.410   5.511  14.819
31528W        W 3199   7.643   8.144   3.185
31529W        W 3200  11.742   1.053  11.596
31530W        W 3201  35.477   1.815   3.079
31531W        W 3202  12.880  10.582   0.120
31532W        W 3203  19.160  38.855   0.723
31533W        W 3204  24.815   8.881   0.797
31534W        W 3205   7.388  27.584   1.814
31535W        W 3206  29.659  23.230   3.655
31536W        W 3207  31.486   0.932   3.616
31537W        W 3208   7.321  34.599   4.862
31538W        W 3209  20.897  35.048   2.866
31539W        W 3210   4.210  42.492   2.761
31540W        W 3211  32.762  22.924  11.649
31541W        W 3212  15.248  33.340  11.596
31542W        W 3213   4.375  25.455   3.651
31543W        W 3214   5.377  26.267   3.415
31544W        W 3215   2.650  23.191   3.313
31545W        W 3216  34.718  38.689  11.885
31546W        W 3217  43.999   4.374   0.367
31547W        W 3218  25.359  37.626  13.838
31548W        W 3219  26.345   3.123  13.939
31549W        W 3220  11.430   4.718   3.303
31550W        W 3221  29.419  31.582   4.845
31551W        W 3222  28.207   5.564  11.637
31552W        W 3223  27.972  25.606  11.100
31553W        W 3224  20.780  25.962  13.976
31554W        W 3225  14.655  40.586   1.970
31555W        W 3226   3.350  11.533  13.130
31556W        W 3227  18.600  41.889   0.896
31557W        W 3228  10.557   4.300  12.514
31558W        W 3229   0.095  28.189  14.025
31559W        W 3230   1.954  35.453  14.450
31560W        W 3231  16.021   7.700   5.396
31561W        W 3232   9.871  25.846   3.742
31562W        W 3233   8.331   5.692  14.367
31563W        W 3234   1.076   3.518  11.459
31564W        W 3235  44.286  20.936   0.341
31565W        W 3236  30.379  19.130  14.465
31566W        W 3237  28.184  30.918  11.524
31567W        W 3238  42.464  33.374   2.733
31568W        W 3239  43.472  40.000  13.383
31569W        W 3240  34.507  22.193  11.888
31570W        W 3241  21.119  33.342  10.512
31571W        W 3242  11.434  43.881   3.798
31572W        W 3243  40.519  38.034  11.054
31573W        W 3244  27.236  21.196   1.915
31574W        W 3245   5.844  15.527   4.726
31575W        W 3246  14.224  28.451   4.209
31576W        W 3247  36.568  11.215   4.328
31577W        W 3248  15.907  34.640   1.814
31578W        W 3249  29.595  44.726  14.668
31579W        W 3250  10.840   2.968   1.258
31580W        W 3251  20.753   3.202  13.864
31581W        W 3252   4.033   1.738  12.127
31582W        W 3253  30.958  16.716  13.131
31583W        W 3254  35.392   5.660  14.819
31584W        W 3255  34.461  25.235   1.877
31585W        W 3256  23.945  13.535   3.248
31586W        W 3257   7.881  15.771   2.618
31587W        W 3258   1.095   6.451   0.151
31588W        W 3259  17.298  10.700   1.628
31589W        W 3260  27.866   3.802  13.303
31590W        W 3261  24.424   4.399   0.389
31591W        W 3262   7.331  17.996   0.931
31592W        W 3263  24.614   8.886  14.358
31593W        W 3264   2.007   4.087   0.764
31594W        W 3265  34.397  32.976  12.530
31595W        W 3266   8.167  19.738  11.260
31596W        W 3267   4.286  19.381  11.757
31597W        W 3268  39.573  22.080  11.467
31598W        W 3269   5.984   0.339   0.247
31599W        W 3270  22.766  14.780  10.790
31600W        W 3271  33.482  38.516  10.696
31601W        W 3272  43.990  36.303  12.873
31602W        W 3273  16.608   9.918   3.110
31603W        W 3274  19.540  24.487  11.930
31604W        W 3275  18.295  29.065   1.713
31605W        W 3276   0.787   6.931  14.445
31606W        W 3277  32.646  30.082  14.392
31607W        W 3278  17.273  36.156   0.379
31608W        W 3279  18.989  37.868  11.100
31609W        W 3280  20.583  38.675   5.434
31610W        W 3281  38.106  33.046  14.321
31611W        W 3282  20.071   1.684  13.825
31612W        W 3283  24.094  38.257  11.157
31613W        W 3284   3.244  41.338   3.345
31614W        W 3285  39.937  41.265  14.750
31615W        W 3286  21.635  38.392  12.607
31616W        W 3287  44.522  15.861   2.765
31617W        W 3288  31.190  40.348  13.025
31618W        W 3289   9.145  42.921  12.820
31619W        W 3290  33.611  12.816   4.862
31620W        W 3291   2.509  21.936   2.878
31621W        W 3292  19.869  20.964   5.193
31622W        W 3293  10.679  23.691   2.354
31623W        W 3294  11.310   8.401  14.645
31624W        W 3295  40.966  38.429  10.840
31625W        W 3296  10.191   8.256   4.535
31626W        W 3297  22.899   8.229   1.445
31627W        W 3298  36.648   0.392  12.554
31628W        W 3299  19.761  17.157  10.634
31629W        W 3300  34.446   0.248  10.717
31630W        W 3301   6.335  42.946  13.331
31631W        W 3302  19.439   4.368   4.262
31632W        W 3303  13.604   9.274   1.056
31633W        W 3304  25.477  35.932   3.659
31634W        W 3305  21.492  29.187   3.872
31635W        W 3306  24.319  25.468   4.092
31636W        W 3307  43.963  23.830   4.270
31637W        W 3308   0.970  39.048  13.608
31638W        W 3309   4.785  21.285  10.904
31639W        W 3310  18.776  43.855  13.313
31640W        W 3311  42.352  17.701   1.093
31641W        W 3312   0.712  20.587  12.191
31642W        W 3313   7.836  16.830  12.025
31643W        W 3314  38.045  32.408   0.512
31644W        W 3315  16.467  44.249  11.469
31645W        W 3316  40.809  20.747   2.689
31646W        W 3317  21.292  44.861   0.854
31647W        W 3318  19.282   2.874  14.712
31648W        W 3319  44.192  10.248   2.767
31649W        W 3320  18.869  34.901  13.337
31650W        W 3321   3.366  17.819  13.834
31651W        W 3322   3.886  27.979  14.261
31652W        W 3323  38.528  35.125  11.459
31653W        W 3324  36.036  27.699   0.372
31654W        W 3325  17.265   8.146   3.215
31655W        W 3326  43.273  43.866   3.271
31656W        W 3327   5.188  43.802   4.397
31657W        W 3328  12.819  42.517   2.677
31658W        W 3329  12.897  40.361   0.340
31659W        W 3330  43.324  25.939  12.570
31660W        W 3331  29.391  35.093  11.392
31661W        W 3332  42.437  41.489   3.864
31662W        W 3333  14.227  18.144  14.554
31663W        W 3334   1.721  13.602  12.877
31664W        W 3335  43.724  26.438   1.699
31665W        W 3336  41.283   3.439   1.249
31666W        W 3337   3.947   1.640  14.328
31667W        W 3338  29.036   4.890   0.393
31668W        W 3339  13.974   4.132  13.567
31669W        W 3340  35.355  41.236  14.258
31670W        W 3341  42.764  22.161  13.999
31671W        W 3342  13.955   5.035   0.010
31672W        W 3343   6.967  24.953  13.978
31673W        W 3344  36.405  12.474   0.656
31674W        W 3345  30.218  30.380   0.298
31675W        W 3346   1.382  28.155   2.910
31676W        W 3347   3.328  23.029  13.100
31677W        W 3348   8.778  41.303  10.755
31678W        W 3349  19.529  27.704  13.224
31679W        W 3350  24.661   5.420  11.933
31680W        W 3351   1.313  34.078  11.813
31681W        W 3352  30.668  10.676   2.378
31682W        W 3353   6.128  33.011   0.541
31683W        W 3354  32.510  29.592  10.729
31684W        W 3355  38.149  26.539  11.560
31685W        W 3356  41.823  34.831   2.381
31686W        W 3357  20.079  32.335   3.250
31687W        W 3358  44.243  43.974   0.434
31688W        W 3359  27.142   8.255   1.298
31689W        W 3360   6.300  32.343  11.025
31690W        W 3361  15.772   8.655   2.494
31691W        W 3362  38.963  31.702  12.048
31692W        W 3363  41.654  17.315   2.732
31693W        W 3364  17.049  19.676   0.789
31694W        W 3365  15.856  22.606  10.497
31695W        W 3366  18.497   0.015  11.658
31696W        W 3367   2.232   5.740  14.381
31697W        W 3368  23.496  31.125   0.957
31698W        W 3369  39.880  36.836  13.160
31699W        W 3370  10.150  34.783   4.843
31700W        W 3371   0.296  37.125   1.728
31701W        W 3372  26.763  21.781   4.922
31702W        W 3373  11.970   6.281  11.200
31703W        W 3374  44.994  24.975   3.248
31704W        W 3375  35.448  28.195  14.001
31705W        W 3376  22.732   5.869  13.884
31706W        W 3377  18.833  39.194  11.155
31707W        W 3378  39.944  35.096   0.909
31708W        W 3379  42.805   1.231   3.706
31709W        W 3380  44.367  36.425   2.361
31710W        W 3381   2.628  23.066   0.110
31711W        W 3382   4.478  12.289   2.690
31712W        W 3383  24.101  14.575  11.153
31713W        W 3384   9.449  33.147  13.970
31714W        W 3385   7.319  15.904   4.544
31715W        W 3386  24.484  26.487   2.171
31716W        W 3387  13.746   6.040  12.871
31717W        W 3388  26.233  15.173  10.819
31718W        W 3389   4.447   2.198   4.242
31719W        W 3390  27.092  33.044   4.231
31720W        W 3391   6.598  39.390   1.805
31721W        W 3392  33.976  21.552  13.836
31722W        W 3393  30.888   3.847  12.894
31723W        W 3394  12.825   2.746   1.623
31724W        W 3395  30.451  30.034   3.385
31725W        W 3396  29.993   5.978  13.033
31726W        W 3397  37.040   8.697   5.177
31727W        W 3398  32.253  42.608  12.937
31728W        W 3399  25.870  36.922  12.334
31729W        W 3400  44.721   4.784   0.747
31730W        W 3401  33.782  34.207   2.369
31731W        W 3402   4.441   1.437   3.295
31732W        W 3403  16.509  11.339   3.887
31733W        W 3404   3.358   2.520  11.978
31734W        W 3405  29.332  39.345  14.047
31735W        W 3406  33.331   8.724   4.990
31736W        W 3407  33.588  27.421   2.224
31737W        W 3408  35.072  38.540  11.474
31738W        W 3409  32.401   2.181  11.519
31739W        W 3410  38.587  29.490   0.948
31740W        W 3411  19.160   1.479  12.404
31741W        W 3412  32.455  14.415  14.606
31742W        W 3413  22.681  16.352  14.991
31743W        W 3414   0.878  39.278  11.048
31744W        W 3415  18.223  17.888   3.056
31745W        W 3416  17.476  38.131   1.220
31746W        W 3417  13.524  36.529  11.486
31747W        W 3418   3.197  13.831   1.469
31748W        W 3419  25.926   6.311   0.914
31749W        W 3420  20.313  41.060  14.957
31750W        W 3421   8.571  34.886   3.609
31751W        W 3422  22.713  30.735   1.324
31752W        W 3423  19.137  22.765   0.759
31753W        W 3424   0.624   5.344  13.958
31754W        W 3425  20.277   7.846  12.890
31755W        W 3426  30.974  12.663   4.055
31756W        W 3427  26.512  12.681   1.722
31757W        W 3428  14.028  41.054  12.466
31758W        W 3429  42.267   8.841   4.910
31759W        W 3430   1.996  16.285  12.518
31760W        W 3431  38.516  42.483   4.754
31761W        W 3432  38.851  33.131  11.399
31762W        W 3433  38.134   2.037  12.457
31763W        W 3434  18.534  44.786   3.575
31764W        W 3435   4.804  28.214   5.027
31765W        W 3436  24.543  38.000  14.325
31766W        W 3437  43.839  40.800   0.019
31767W        W 3438  19.846   1.676   1.488
31768W        W 3439  44.279  42.330   2.496
31769W        W 3440  21.644  37.441  10.731
31770W        W 3441  31.596   3.213   3.737
31771W        W 3442  23.131  31.057  11.551
31772W        W 3443   0.815  32.843  14.735
31773W        W 3444   0.002  21.688  11.432
31774W        W 3445  10.656  31.136  12.470
31775W        W 3446  24.755   6.181   4.358
31776W        W 3447  35.911  36.227   2.827
31777W        W 3448  21.098  16.965  11.166
31778W        W 3449   9.601  10.828  14.538
31779W        W 3450  30.159  11.737  14.796
31780W        W 3451  27.010  16.155   2.052
31781W        W 3452   6.456  41.960   2.833
31782W        W 3453  37.358  22.380  12.061
31783W        W 3454  39.107  44.402   4.239
31784W        W 3455  12.610  11.797   1.825
31785W        W 3456   4.264  34.119   0.794
31786W        W 3457  33.632  35.576   3.706
31787W        W 3458  30.395  17.453  12.975
31788W        W 3459  17.389   5.001   2.825
31789W        W 3460  20.352   2.685  13.788
31790W        W 3461   9.978  21.513  14.269
31791W        W 3462  33.411  42.074   0.466
31792W        W 3463  29.506  12.683  14.280
31793W        W 3464   9.781  15.216   4.578
31794W        W 3465  31.194  22.988   2.031
31795W        W 3466   0.249  40.379  10.140
31796W        W 3467  18.615  30.594  12.611
31797W        W 3468  42.410   2.744   1.742
31798W        W 3469  22.553   8.481  13.853
31799W        W 3470  42.501  16.724  13.836
31800W        W 3471   5.393  39.530   3.260
31801W        W 3472  41.425  14.252  13.976
31802W        W 3473  44.718  30.004  12.072
31803W        W 3474  38.622  35.485   4.240
31804W        W 3475  31.465   1.250  12.005
31805W        W 3476   7.422   6.322  14.973
31806W        W 3477  30.972  28.010   5.359
31807W        W 3478  32.777  37.875  13.041
31808W        W 3479  31.148  27.591  14.343
31809W        W 3480  15.198  27.194  11.676
31810W        W 3481  41.609  35.486   3.226
31811W        W 3482   1.615   5.621  13.827
31812W        W 3483  38.241   7.623   4.539
31813W        W 3484  42.556  24.826   0.781
31814W        W 3485  14.888  35.612  14.895
31815W        W 3486  26.096  25.353   4.088
31816W        W 3487  14.623  34.386   4.085
31817W        W 3488  30.417  28.582   2.664
31818W        W 3489  38.804  35.531  12.221
31819W        W 3490  22.698  29.478   4.695
31820W        W 3491   5.792   0.304   3.900
31821W        W 3492  12.301  35.654   3.721
31822W        W 3493  29.323  11.825   0.380
31823W        W 3494  32.881  20.471  14.698
31824W        W 3495  10.553  38.026   0.940
31825W        W 3496  43.287  26.111   2.660
31826W        W 3497  12.067  38.869   3.524
31827W        W 3498  37.076  30.385   0.834
31828W        W 3499   8.827   6.745   1.843
31829W        W 3500  27.413  33.407  14.397
31830W        W 3501  11.083  15.945   0.080
31831W        W 3502  38.020  30.198   4.728
31832W        W 3503   2.426  11.402   2.742
31833W        W 3504   3.850  14.269   3.617
31834W        W 3505  38.991   7.802  12.177
31835W        W 3506  43.315  44.684   1.281
31836W        W 3507  16.278  29.465  14.288
31837W        W 3508  39.596  24.458   0.358
31838W        W 3509   8.710  16.756  13.846
31839W        W 3510   4.718  16.888  13.538
31840W        W 3511  24.957   5.634  11.577
31841W        W 3512  27.597  24.945   1.883
31842W        W 3513  30.466  41.856  14.318
31843W        W 3514  34.089  24.550   2.309
31844W        W 3515  23.372  12.941  13.989
31845W        W 3516   7.482   0.933   2.407
31846W        W 3517  42.466   0.933  12.314
31847W        W 3518   8.360  35.499   0.902
31848W        W 3519   8.966   1.724  13.796
31849W        W 3520  10.129  24.869  12.589
31850W        W 3521  17.026  20.248  14.481
31851W        W 3522  26.489  34.647   0.265
31852W        W 3523  23.372  35.273   2.833
31853W        W 3524   5.414   1.317   3.144
31854W        W 3525  33.638  34.194  13.913
31855W        W 3526  42.825  20.050  14.444
31856W        W 3527  15.431   0.988  11.878
31857W        W 3528  28.036  41.294  11.449
31858W        W 3529  18.500  34.356   1.453
31859W        W 3530   0.996   1.950  10.711
31860W        W 3531  41.521  31.204   0.699
31861W        W 3532  42.863   7.401   2.905
31862W        W 3533  36.865  20.021   4.764
31863W        W 3534  36.441   9.205  13.498
31864W        W 3535  34.404   9.415  12.591
31865W        W 3536  37.751  33.086   3.311
31866W        W 3537  12.154  25.954   3.659
31867W        W 3538  43.733  34.157  14.936
31868W        W 3539  20.603  24.874   1.449
31869W        W 3540  29.400  17.566   3.100
31870W        W 3541  10.262   6.403  12.027
31871W        W 3542  43.774   6.837   2.707
31872W        W 3543   2.900  25.658  13.455
31873W        W 3544   3.585  20.234   3.773
31874W        W 3545   8.218  21.181   4.516
31875W        W 3546  28.424  29.039   1.045
31876W        W 3547  39.933  14.662  12.796
31877W        W 3548  12.851  18.657   2.411
31878W        W 3549  26.045  26.406  13.393
31879W        W 3550  31.967  14.265  10.170
31880W        W 3551  33.481  35.784  14.811
31881W        W 3552  23.518  40.635   4.781
31882W        W 3553  39.059  11.597   3.291
31883W        W 3554   6.292  12.127  11.511
31884W        W 3555   7.907   9.370   2.187
31885W        W 3556  13.224  17.747  11.980
31886W        W 3557  13.840  28.428  11.898
31887W        W 3558  37.320   9.623  12.174
31888W        W 3559   9.222  16.092   3.796
31889W        W 3560   2.951   6.468   3.833
31890W        W 3561  11.420  12.803   3.172
31891W        W 3562  40.812   2.269   2.898
31892W        W 3563  12.732  37.362  13.044
31893W        W 3564  23.045  20.453   3.623
31894W        W 3565   2.442  41.975  13.600
31895W        W 3566  27.542  13.845  14.870
31896W        W 3567  23.106  37.766  14.677
31897W        W 3568  29.635  26.238  10.641
31898W        W 3569  39.494   0.355   4.051
31899W        W 3570  32.001  42.326  13.300
31900W        W 3571   9.323   1.373   0.526
31901W        W 3572  40.960   7.239   0.041
31902W        W 3573  20.307  22.288  11.508
31903W        W 3574  33.189  18.201   1.167
31904W        W 3575  44.088  19.497  11.923
31905W        W 3576  23.566  44.514  14.996
31906W        W 3577   2.700  24.009  10.621
31907W        W 3578   4.131   8.325   0.577
31908W        W 3579  32.556  11.716  14.632
31909W        W 3580   2.145   3.070   4.641
31910W        W 3581  40.264  10.410   4.527
31911W        W 3582  13.608  20.181  13.928
31912W        W 3583   8.632  40.602   0.979
31913W        W 3584  10.195  35.033   1.229
31914W        W 3585  17.184  16.563  14.438
31915W        W 3586  30.454   0.468  14.522
31916W        W 3587  35.351  21.204  12.111
31917W        W 3588   0.071   4.200  13.951
31918W        W 3589   0.889  36.949   0.884
31919W        W 3590  26.624   7.957   5.125
31920W        W 3591  21.158  37.909   3.698
31921W        W 3592  15.159   3.092   0.438
31922W        W 3593  25.376  44.549  10.662
31923W        W 3594  25.236  10.007   0.188
31924W        W 3595  22.299  10.552   5.078
31925W        W 3596   4.699  43.912  13.358
31926W        W 3597  30.377  38.099  12.832
31927W        W 3598  27.727  20.544  12.456
31928W        W 3599  19.018  37.843   3.517
31929W        W 3600  36.560  13.856   3.702
31930W        W 3601  27.069  23.637   4.190
31931W        W 3602  41.910  15.287   2.903
31932W        W 3603   0.337  19.692   5.176
31933W        W 3604  39.513   9.221   1.869
31934W        W 3605   3.330  26.942  14.981
31935W        W 3606   1.274   3.726  13.539
31936W        W 3607  13.870  42.927  14.309
31937W        W 3608  43.964  11.825  14.470
31938W        W 3609  32.296  31.525   1.320
31939W        W 3610  30.018   4.324  12.181
31940W        W 3611  34.616  19.832   1.777
31941W        W 3612  10.154  32.317   2.699
31942W        W 3613   5.386   2.292   1.796
31943W        W 3614  16.646  44.836   2.535
31944W        W 3615  15.631  40.921   3.498
31945W        W 3616   9.664  37.107   3.071
31946W        W 3617  23.957  27.122  14.421
31947W        W 3618  23.707  19.647  13.771
31948W        W 3619  18.355  28.476  11.570
31949W        W 3620   0.844   1.234   2.912
31950W        W 3621  20.153  21.848   4.287
31951W        W 3622  25.751  36.312  12.395
31952W        W 3623  34.904   0.565  10.678
31953W        W 3624   4.772  21.472   3.640
31954W        W 3625  20.986   1.983  11.622
31955W        W 3626  18.698  27.648  14.993
31956W        W 3627  34.588  21.749  11.644
31957W        W 3628  34.071   1.759   0.876
31958W        W 3629  17.714  36.738   1.109
31959W        W 3630  16.148  12.743  13.283
31960W        W 3631   2.978   3.365   1.406
31961W        W 3632   0.685  10.799  12.922
31962W        W 3633   1.231  18.153   1.928
31963W        W 3634  21.549  13.235  14.583
31964W        W 3635  35.379  41.208  12.004
31965W        W 3636   3.850   7.696  12.020
31966W        W 3637  21.594   1.222  10.880
31967W        W 3638  30.173   8.867  13.046
31968W        W 3639  29.687  17.741  12.112
31969W        W 3640  11.602  16.878  14.312
31970W        W 3641   7.602  14.346  11.104
31971W        W 3642  39.549   6.830  14.466
31972W        W 3643  36.784  37.950   3.803
31973W        W 3644  15.399  33.817   0.204
31974W        W 3645  33.355  30.210  14.862
31975W        W 3646  36.319  43.881   3.381
31976W        W 3647  44.522   1.550  11.187
31977W        W 3648  15.014   2.009  14.803
31978W        W 3649  20.582  16.727   3.230
31979W        W 3650   4.723  27.909  14.302
31980W        W 3651  17.223  42.982  12.536
31981W        W 3652  32.682  11.395  11.809
31982W        W 3653  16.895  29.431  14.923
31983W        W 3654  43.807  35.950   3.684
31984W        W 3655  14.213  19.293  11.183
31985W        W 3656  14.884  22.624  10.769
31986W        W 3657  21.482  16.303   0.770
31987W        W 3658  31.339   1.447  11.486
31988W        W 3659  42.847  22.523   1.841
31989W        W 3660   9.833  38.821  14.732
31990W        W 3661  40.107  20.201  12.499
31991W        W 3662  19.575  36.844  11.972
31992W        W 3663  38.792  25.053   4.124
31993W        W 3664   0.828  21.051  12.021
31994W        W 3665  44.475   3.445   5.026
31995W        W 3666  29.256   1.227  12.544
31996W        W 3667  33.649  32.550  11.424
31997W        W 3668  12.835  17.295   3.852
31998W        W 3669   5.503   5.702  13.154
31999W        W 3670  37.834  43.387  11.935
32000W        W 3671  44.568  29.871  11.564
32001W        W 3672  13.727  13.827  11.647
32002W        W 3673  38.852   9.378  11.067
32003W        W 3674   3.878  20.631   5.023
32004W        W 3675  19.354  28.101  14.184
32005W        W 3676  33.027   0.409   4.703
32006W        W 3677   4.663  41.536   2.319
32007W        W 3678   9.104  12.908   3.405
32008W        W 3679  24.339  42.424   4.983
32009W        W 3680  36.887  27.387  14.938
32010W        W 3681  27.623  15.974   0.303
32011W        W 3682  31.999  29.643   5.288
32012W        W 3683  15.568  29.937  12.426
32013W        W 3684  37.183   6.229  10.624
32014W        W 3685  30.830  32.501   3.812
32015W        W 3686   3.429  12.181  10.824
32016W        W 3687  12.113  43.412  11.913
32017W        W 3688  22.314  41.132  10.941
32018W        W 3689  16.308  12.456  10.454
32019W        W 3690   4.747  35.405   2.743
32020W        W 3691  21.929  13.397  11.588
32021W        W 3692  22.555  16.407  12.551
32022W        W 3693  10.583  39.530  11.561
32023W        W 3694  30.939   3.998   1.466
32024W        W 3695  26.620  35.053   2.348
32025W        W 3696  33.840  14.263   0.892
32026W        W 3697  43.733  28.925  10.558
32027W        W 3698  14.342   6.247   2.574
32028W        W 3699  34.337   1.209  13.284
32029W        W 3700  13.063  23.779  12.898
32030W        W 3701   0.038   5.431   2.703
32031W        W 3702  16.569   3.039  13.824
32032W        W 3703   3.887  17.067  13.885
32033W        W 3704  26.697  21.284  13.410
32034W        W 3705  38.297  13.835   1.610
32035W        W 3706  34.917   5.418   3.138
32036W        W 3707  43.389  19.670   2.853
32037W        W 3708  15.010  34.111   2.662
32038W        W 3709  16.354  12.680   0.495
32039W        W 3710  43.494  15.820  10.999
32040W        W 3711  41.181  41.557   5.124
32041W        W 3712  23.948  43.817   4.257
32042W        W 3713  42.683  33.410  12.539
32043W        W 3714  39.286   6.174   4.643
32044W        W 3715  44.140   7.958  11.613
32045W        W 3716  15.208  28.890  14.592
32046W        W 3717   8.906  15.793  12.011
32047W        W 3718  17.543  14.457   9.695
32048W        W 3719  15.487  33.857   0.837
32049W        W 3720  26.707  23.135   1.422
32050W        W 3721   7.287  11.799   4.299
32051W        W 3722   7.323  18.550   3.013
32052W        W 3723   1.141   3.210   4.363
32053W        W 3724   9.807  37.948  11.573
32054W        W 3725  26.804  21.963   0.783
32055W        W 3726  16.223   3.534  11.099
32056W        W 3727  17.312  20.169  11.949
32057W        W 3728   0.980   9.043  12.483
32058W        W 3729  43.066  25.702  12.150
32059W        W 3730   0.405  30.129  12.629
32060W        W 3731  41.344  17.015  14.292
32061W        W 3732  41.059  14.921  12.008
32062W        W 3733  24.171  18.193   4.096
32063W        W 3734  19.792  12.334  13.639
32064W        W 3735   3.168   3.152   1.853
32065W        W 3736   9.860  39.842   3.208
32066W        W 3737   5.917  11.776  12.803
32067W        W 3738  27.716  26.556  12.130
32068W        W 3739  39.775  35.947  12.986
32069W        W 3740  22.010   7.679  11.137
32070W        W 3741  19.385  32.402  11.165
32071W        W 3742  43.815  10.597  11.011
32072W        W 3743  28.430  44.513   0.823
32073W        W 3744  15.824  23.597  10.857
32074W        W 3745  34.650  22.681  12.443
32075W        W 3746  23.298  29.288   1.705
32076W        W 3747   8.682  17.600   2.318
32077W        W 3748  31.534  21.716  14.302
32078W        W 3749  25.933  19.599   4.369
32079W        W 3750  17.501  39.080   3.238
32080W        W 3751  43.247   4.416   1.404
32081W        W 3752  26.488  24.324  10.696
32082W        W 3753  43.567   3.988  11.989
32083W        W 3754  29.837  27.101  10.844
32084W        W 3755  43.104   2.057  14.185
32085W        W 3756  16.414   1.579  12.647
32086W        W 3757  35.586   1.002   2.853
32087W        W 3758  25.195  21.306   2.887
32088W        W 3759  28.194   8.304  14.905
32089W        W 3760  37.931  42.308   3.238
32090W        W 3761  40.337   4.327  14.812
32091W        W 3762  42.363   7.092   4.170
32092W        W 3763  44.726  37.114  12.417
32093W        W 3764   1.423  26.457   1.383
32094W        W 3765  11.271  36.964   4.808
32095W        W 3766  30.721  15.601   0.966
32096W        W 3767  13.875   3.316   2.178
32097W        W 3768  26.898  26.687  14.956
32098W        W 3769   3.961  32.120  14.830
32099W        W 3770  27.172   6.480   4.039
32100W        W 3771   3.026   1.157  12.041
32101W        W 3772  10.213  34.935   1.729
32102W        W 3773  32.301  12.241  13.998
32103W        W 3774   7.841  41.393   1.900
32104W        W 3775  35.929  21.812  12.857
32105W        W 3776  20.924  26.395  14.275
32106W        W 3777  24.760   4.848   1.231
32107W        W 3778  31.328  29.672   2.770
32108W        W 3779  23.237  43.287   0.365
32109W        W 3780  16.295  44.629  14.970
32110W        W 3781  42.766   8.711   0.711
32111W        W 3782  15.246  21.956  12.885
32112W        W 3783  22.169   6.118   1.755
32113W        W 3784  38.179  16.253   1.023
32114W        W 3785  29.088  24.947   3.622
32115W        W 3786  42.566  14.198   0.483
32116W        W 3787  37.524  21.164   3.317
32117W        W 3788  31.773  27.852   3.484
32118W        W 3789   7.316  10.275  13.591
32119W        W 3790  41.514   0.526  11.576
32120W        W 3791  10.411  18.845  11.667
32121W        W 3792  17.181  34.373   0.014
32122W        W 3793  13.039  14.316  10.723
32123W        W 3794  32.390  35.172  10.269
32124W        W 3795   5.492  40.549   0.171
32125W        W 3796   3.712  30.034  13.847
32126W        W 3797   7.694  29.180   1.247
32127W        W 3798  40.456   7.284   2.828
32128W        W 3799  43.342  21.545   1.780
32129W        W 3800  36.430   8.615   0.363
32130W        W 3801  43.591  26.579  14.512
32131W        W 3802  31.509  35.505   1.195
32132W        W 3803  11.440  13.768  10.908
32133W        W 3804  40.900   8.272   4.259
32134W        W 3805  34.605  34.052  11.761
32135W        W 3806   6.072  16.239   0.785
32136W        W 3807  29.841  11.745   2.884
32137W        W 3808   5.779  44.539   3.945
32138W        W 3809   8.782  34.931  12.574
32139W        W 3810  21.296  17.312  10.781
32140W        W 3811  32.543  17.443  14.470
32141W        W 3812  10.095  41.895  11.207
32142W        W 3813   5.063  37.639   0.228
32143W        W 3814  17.557   3.380  13.928
32144W        W 3815   1.650  38.362  12.272
32145W        W 3816   2.469   6.648  13.457
32146W        W 3817  37.919  44.442   4.900
32147W        W 3818   0.664   0.036   3.920
32148W        W 3819  22.036  24.139  14.998
32149W        W 3820   5.196  43.991   2.505
32150W        W 3821  38.449   9.850  13.584
32151W        W 3822  41.860  41.252   2.196
32152W        W 3823   9.392   6.432  13.656
32153W        W 3824   7.620  27.939   1.534
32154W        W 3825   7.371  23.396  11.558
32155W        W 3826  14.882   8.456  11.463
32156W        W 3827  22.503  27.149   4.338
32157W        W 3828   6.662  31.893   0.343
32158W        W 3829  16.927  16.818   0.169
32159W        W 3830  29.566  27.912  14.471
32160W        W 3831  20.307  23.744  11.146
32161W        W 3832  36.954  43.023   0.451
32162W        W 3833   4.851  40.411   3.228
32163W        W 3834  40.329  43.068   0.850
32164W        W 3835  33.033  32.846   3.335
32165W        W 3836   2.427   8.407   4.329
32166W        W 3837   0.203  29.247   3.856
32167W        W 3838  10.795  13.930   1.139
32168W        W 3839   0.447  34.997  13.628
32169W        W 3840  21.024  35.754  12.104
32170W        W 3841  21.724  44.967   4.686
32171W        W 3842  14.540  21.915  12.179
32172W        W 3843  11.632  25.524  12.560
32173W        W 3844  44.980  22.067   0.045
32174W        W 3845   6.228   8.191  12.166
32175W        W 3846  16.169  19.876  12.405
32176W        W 3847  30.639  39.846   0.248
32177W        W 3848  42.026  17.893   3.578
32178W        W 3849  38.497  15.347  11.518
32179W        W 3850   3.218  44.987  10.453
32180W        W 3851   4.668  12.929  13.958
32181W        W 3852  14.018  30.609  10.509
32182W        W 3853  19.325  21.343   3.481
32183W        W 3854  29.467  20.082   0.843
32184W        W 3855  28.479  33.126   0.595
32185W        W 3856  32.982  20.788  13.015
32186W        W 3857   7.895  34.476   4.298
32187W        W 3858   5.743  39.848   4.546
32188W        W 3859   5.942  44.382  13.405
32189W        W 3860  11.228  30.046  10.746
32190W        W 3861  43.009  28.292  13.005
32191W        W 3862  20.598  25.497   4.947
32192W        W 3863  10.796   8.657  11.185
32193W        W 3864  22.751   8.754   0.681
32194W        W 3865   9.620  17.043   1.514
32195W        W 3866  23.217  24.420   4.711
32196W        W 3867  35.779  23.946  13.827
32197W        W 3868   1.771  23.759   0.924
32198W        W 3869  34.349  17.907   1.933
32199W        W 3870  24.693  29.395   0.500
32200W        W 3871  42.916  41.566  14.442
32201W        W 3872   7.649   6.926  13.189
32202W        W 3873  35.068   0.429   4.104
32203W        W 3874  31.655  16.734  12.856
32204W        W 3875  38.856  29.520   2.820
32205W        W 3876  41.694  40.960   3.501
32206W        W 3877  37.561   0.755   0.272
32207W        W 3878  30.048   9.357  10.997
32208W        W 3879  15.508  32.991  12.776
32209W        W 3880  40.813  10.883   2.745
32210W        W 3881  17.630  27.072  12.045
32211W        W 3882  12.761   8.930  12.710
32212W        W 3883  12.806  43.714   3.557
32213W        W 3884  21.666  19.838   1.920
32214W        W 3885  41.790   4.474   2.936
32215W        W 3886   9.152  37.036   2.326
32216W        W 3887   9.724  26.562   0.749
32217W        W 3888  31.395  14.844   3.441
32218W        W 3889  42.837  11.830  13.749
32219W        W 3890  43.841  29.111   4.585
32220W        W 3891  15.599  22.663  12.978
32221W        W 3892  17.127  40.382  11.436
32222W        W 3893   4.191  17.236   0.360
32223W        W 3894  30.584  41.748   3.261
32224W        W 3895   3.218  16.758   2.878
32225W        W 3896  36.901   5.181   2.445
32226W        W 3897  40.908   2.361  12.042
32227W        W 3898  20.219   5.848  14.119
32228W        W 3899   4.667  20.611  11.445
32229W        W 3900  35.333  16.120  11.304
32230W        W 3901  26.499  39.023   1.365
32231W        W 3902   8.096   9.371   3.629
32232W        W 3903  44.880  16.073  12.187
32233W        W 3904   4.891   7.323   1.676
32234W        W 3905  21.067   8.419  10.823
32235W        W 3906   3.545  24.260   0.793
32236W        W 3907  19.800  44.068   4.558
32237W        W 3908  22.910  11.139  12.441
32238W        W 3909  14.723  21.225   3.777
32239W        W 3910   5.305   0.986  12.016
32240W        W 3911  14.256   6.949   1.460
32241W        W 3912  13.862   9.480  13.980
32242W        W 3913  11.114  37.511  11.401
32243W        W 3914  15.031  30.369  10.734
32244W        W 3915  11.350   6.091   0.442
32245W        W 3916  40.323  17.726  10.430
32246W        W 3917  13.805  30.093   0.241
32247W        W 3918   2.289  42.065  12.165
32248W        W 3919  35.037  41.582  10.712
32249W        W 3920  31.349   6.348   1.321
32250W        W 3921  34.978  10.573  14.577
32251W        W 3922  24.672   7.790   1.498
32252W        W 3923  20.670  36.268   4.888
32253W        W 3924   3.246  10.147  11.373
32254W        W 3925  44.548  17.701  14.799
32255W        W 3926  16.370  24.258  11.910
32256W        W 3927  34.456  37.815   4.089
32257W        W 3928  21.263  13.926   3.319
32258W        W 3929  29.522   1.845  11.155
32259W        W 3930  40.169  19.250   4.915
32260W        W 3931  36.476  40.486  12.560
32261W        W 3932  42.074  11.124   3.309
32262W        W 3933  20.257  10.069   0.365
32263W        W 3934   9.877  40.534   1.359
32264W        W 3935   7.196  15.702   3.224
32265W        W 3936  38.646  43.878  12.988
32266W        W 3937  42.475  14.753   5.255
32267W        W 3938  12.110  18.816  12.901
32268W        W 3939   3.901   9.680  11.928
32269W        W 3940  40.367  31.111   1.372
32270W        W 3941   3.562  21.722   0.768
32271W        W 3942  25.193   1.666  11.969
32272W        W 3943  39.017  19.527  12.981
32273W        W 3944  13.631  10.426  10.393
32274W        W 3945  36.416  10.166  12.423
32275W        W 3946  28.127  18.500  10.761
32276W        W 3947   2.066   4.347  10.428
32277W        W 3948  39.047  35.009  11.110
32278W        W 3949  30.040  25.548  13.204
32279W        W 3950  21.661  12.893   1.023
32280W        W 3951  27.226  18.562  14.300
32281W        W 3952   1.021  12.361  13.943
32282W        W 3953  41.810  24.586  13.313
32283W        W 3954  11.871  34.090  12.707
32284W        W 3955  24.017   9.563   3.780
32285W        W 3956  42.527  41.927  11.641
32286W        W 3957  27.232  10.777   2.638
32287W        W 3958  39.533   7.771  12.180
32288W        W 3959   6.728   0.274  10.969
32289W        W 3960  21.982  11.507  12.300
32290W        W 3961  17.590   2.864  13.816
32291W        W 3962  19.010   0.813  12.631
32292W        W 3963  32.652  29.430  12.639
32293W        W 3964  29.579  18.754  14.320
32294W        W 3965  43.324  18.806  13.588
32295W        W 3966  33.973  24.701   4.119
32296W        W 3967  35.569  19.689  11.609
32297W        W 3968  20.340  41.331   5.077
32298W        W 3969  17.760  31.575  14.672
32299W        W 3970  30.657  42.890  14.784
32300W        W 3971  36.997  33.917  14.914
32301W        W 3972  13.275  28.059   4.588
32302W        W 3973  19.182  37.977  13.446
32303W        W 3974   9.820  18.342  14.968
32304W        W 3975   1.240  24.617   4.082
32305W        W 3976   7.346   2.896   3.667
32306W        W 3977  18.709  26.723   0.909
32307W        W 3978   5.014  44.280  12.480
32308W        W 3979  25.446  15.755  10.469
32309W        W 3980   9.812  14.442  12.626
32310W        W 3981  26.036   4.302   3.204
32311W        W 3982  36.350  24.248  11.504
32312W        W 3983  21.171  39.321  13.476
32313W        W 3984  28.966  31.196   4.280
32314W        W 3985  38.855  42.812   4.459
32315W        W 3986  32.316  29.164  14.296
32316W        W 3987  22.334  39.544   5.034
32317W        W 3988  14.271  15.342   0.018
32318W        W 3989  22.589  20.133  11.183
32319W        W 3990   8.937  43.583  11.133
32320W        W 3991  17.712  18.242  10.440
32321W        W 3992   4.718   5.059  12.445
32322W        W 3993  44.361   6.724   0.169
32323W        W 3994  14.060  20.733  11.823
32324W        W 3995  39.988   9.919   4.608
32325W        W 3996   2.694  16.704   0.293
32326W        W 3997  14.248  29.871   3.997
32327W        W 3998  17.428  18.271   4.395
32328W        W 3999  31.652  32.816  14.914
32329W        W 4000  41.374  30.971  12.087
32330W        W 4001   0.280  16.330   1.768
32331W        W 4002   9.085  15.127  14.788
32332W        W 4003  44.548  19.257  11.940
32333W        W 4004   6.694  37.037  12.006
32334W        W 4005   2.884  29.716  13.506
32335W        W 4006  26.111   3.631  11.141
32336W        W 4007  14.990  23.432  14.727
32337W        W 4008  26.458   7.094   0.909
32338W        W 4009  18.180  25.206   3.256
32339W        W 4010  23.479  37.436   3.765
32340W        W 4011  26.248  15.990   0.820
32341W        W 4012  36.327   0.166   2.227
32342W        W 4013  15.206  21.580  14.186
32343W        W 4014  25.577   3.430   3.327
32344W        W 4015   5.799  22.491   1.839
32345W        W 4016  14.634  44.555  11.851
32346W        W 4017   1.152  22.218  10.140
32347W        W 4018  18.310  17.680   0.525
32348W        W 4019   1.014  20.910   5.027
32349W        W 4020   7.402  29.420   4.319
32350W        W 4021   0.873  16.548  13.850
32351W        W 4022  14.107  24.979  11.352
32352W        W 4023  41.948  20.641   4.652
32353W        W 4024  21.086  21.667  14.349
32354W        W 4025  34.046   8.341   2.509
32355W        W 4026   7.301  35.802   2.946
32356W        W 4027  18.657   5.459  13.600
32357W        W 4028  15.886  36.563  12.100
32358W        W 4029  17.145  12.603   2.720
32359W        W 4030  28.713   5.092   3.308
32360W        W 4031  35.494  38.312  14.991
32361W        W 4032  26.555  22.128   9.838
32362W        W 4033  18.305  23.468   3.596
32363W        W 4034  15.212  12.751   2.766
32364W        W 4035  39.864   5.963  10.724
32365W        W 4036  11.228  13.608  13.474
32366W        W 4037  21.517  24.169  14.875
32367W        W 4038   3.413  18.631   4.998
32368W        W 4039   0.740   4.864   2.670
32369W        W 4040  10.229  43.294   1.852
32370W        W 4041  33.938   4.657   0.427
32371W        W 4042  36.085   0.915   4.905
32372W        W 4043  31.962   8.628   2.915
32373W        W 4044   5.560  32.402   4.203
32374W        W 4045  25.785  44.133   4.129
32375W        W 4046  18.082  21.773  13.108
32376W        W 4047  41.922   8.385   1.569
32377W        W 4048  21.916  22.692   2.145
32378W        W 4049  21.634  41.891  12.000
32379W        W 4050  34.555  18.712   4.082
32380W        W 4051  39.013  16.728   2.791
32381W        W 4052   0.331  28.673   1.456
32382W        W 4053  21.551  32.717  14.692
32383W        W 4054  44.774  41.088  13.730
32384W        W 4055  35.569  33.605   4.890
32385W        W 4056   6.897  41.781   5.192
32386W        W 4057  24.692  16.129   4.588
32387W        W 4058  36.541  38.309   2.762
32388W        W 4059  35.401  30.816   0.930
32389W        W 4060  42.749   7.419  10.936
32390W        W 4061  27.898  37.115  11.039
32391W        W 4062  23.505  12.598   3.197
32392W        W 4063  15.415  15.722  14.218
32393W        W 4064  37.538  29.881   1.737
32394W        W 4065  14.827  25.470  11.391
32395W        W 4066   2.389  19.856  11.146
32396W        W 4067  35.958  29.613   3.381
32397W        W 4068  42.548  26.641   4.929
32398W        W 4069  14.584  28.864  12.931
32399W        W 4070  29.154   6.326  11.458
32400W        W 4071  14.665  28.480   3.358
32401W        W 4072  37.784  43.227  13.611
32402W        W 4073  36.984  38.315   1.825
32403W        W 4074  44.933  31.936   1.898
32404W        W 4075  22.422   8.791  12.805
32405W        W 4076  38.314  36.039  11.153
32406W        W 4077  20.195   4.164   2.879
32407W        W 4078  28.872  19.335  14.567
32408W        W 4079   8.826   4.960   0.680
32409W        W 4080  44.462  11.022  14.582
32410W        W 4081  44.720  23.215   5.080
32411W        W 4082   0.265  37.359  11.631
32412W        W 4083  19.265  28.946   3.615
32413W        W 4084  12.768  44.256  11.091
32414W        W 4085  44.518  25.761  13.381
32415W        W 4086  36.864  38.367  11.021
32416W        W 4087  29.029  29.522   3.244
32417W        W 4088  15.309  41.563  11.801
32418W        W 4089   8.731  13.333   0.269
32419W        W 4090   7.933  32.485  14.037
32420W        W 4091   1.527  14.353  13.555
32421W        W 4092  20.932  42.272   0.513
32422W        W 4093  39.002  26.366   2.751
32423W        W 4094  18.136  41.983   4.005
32424W        W 4095  43.644   2.233  14.830
32425W        W 4096  33.211  31.575  13.293
32426W        W 4097  15.651  17.298  12.975
32427W        W 4098  33.127   9.416   3.757
32428W        W 4099  27.752  12.140   1.857
32429W        W 4100  32.978  41.165  12.805
32430W        W 4101  41.972  43.893  10.584
32431W        W 4102   9.713  28.954  13.438
32432W        W 4103  38.962  35.495   2.511
32433W        W 4104  37.135   1.803  10.844
32434W        W 4105  41.071  13.391  12.064
32435W        W 4106  27.484   8.238  10.747
32436W        W 4107  10.077  22.786  12.716
32437W        W 4108  34.490  20.980  12.317
32438W        W 4109  18.676  44.239   4.111
32439W        W 4110   0.389  39.431   3.227
32440W        W 4111   4.590  40.341   1.323
32441W        W 4112   8.338  24.244   3.637
32442W        W 4113   0.944   3.840   1.326
32443W        W 4114   5.742  42.377   0.283
32444W        W 4115  35.439  28.043  13.052
32445W        W 4116  26.405  17.681  14.201
32446W        W 4117  36.357  19.315   0.236
32447W        W 4118  11.377  15.066   3.771
32448W        W 4119   8.658  29.394  12.479
32449W        W 4120  29.473  32.194  14.624
32450W        W 4121  28.517  33.505  10.275
32451W        W 4122  34.459   0.162   3.208
32452W        W 4123  31.055  29.898   4.201
32453W        W 4124   3.260   6.155   4.119
32454W        W 4125  34.334   1.838  14.008
32455W        W 4126  24.004   7.610   1.714
32456W        W 4127  28.961   6.142   1.527
32457W        W 4128  17.948   9.753   1.659
32458W        W 4129  41.975  19.682   2.651
32459W        W 4130  27.167  18.511  12.948
32460W        W 4131  28.350  36.506   1.267
32461W        W 4132  29.999  42.514  14.300
32462W        W 4133  31.949  18.566  14.041
32463W        W 4134  36.320  35.519  13.776
32464W        W 4135  18.174   6.738  13.402
32465W        W 4136   6.616  12.115  14.414
32466W        W 4137  21.690  10.008   2.484
32467W        W 4138  19.250  41.361   3.631
32468W        W 4139  24.489  28.922  10.732
32469W        W 4140  29.651   6.456  11.565
32470W        W 4141  26.612  32.174  13.086
32471W        W 4142  20.831   7.490   3.760
32472W        W 4143   8.669  24.169   1.387
32473W        W 4144  12.761   8.214   0.273
32474W        W 4145  25.169  15.246  14.257
32475W        W 4146  40.919  18.788  12.994
32476W        W 4147  20.040  39.116  10.272
32477W        W 4148  40.435  44.534   3.694
32478W        W 4149  32.954  18.310  11.987
32479W        W 4150  43.300  17.031  11.683
32480W        W 4151  13.705  22.267   0.791
32481W        W 4152   0.312  22.237  13.023
32482W        W 4153  26.871  10.300  10.643
32483W        W 4154  40.511  21.459   2.679
32484W        W 4155  36.079  29.235  12.986
32485W        W 4156  33.943  30.930   3.744
32486W        W 4157  30.720   1.847  11.970
32487W        W 4158   2.719  28.000  12.303
32488W        W 4159   5.070  39.824  12.881
32489W        W 4160   4.118  20.267   3.870
32490W        W 4161  28.474  20.334  14.512
32491W        W 4162   4.567  41.989  12.033
32492W        W 4163  31.384  24.442   4.792
32493W        W 4164  35.951  19.809   0.936
32494W        W 4165   6.728  11.029   1.994
32495W        W 4166  43.100  40.977   1.924
32496W        W 4167  10.256  38.736   0.350
32497W        W 4168  17.512  16.982   1.983
32498W        W 4169   5.398  26.330   4.165
32499W        W 4170   3.164  33.207   1.736
32500W        W 4171   9.321  41.077   5.103
32501W        W 4172   1.091  42.804   5.087
32502W        W 4173  27.040  31.485  14.100
32503W        W 4174  40.463   3.416  10.419
32504W        W 4175   8.798  30.605   2.825
32505W        W 4176  34.893  43.065  14.286
32506W        W 4177  17.287  28.138   2.155
32507W        W 4178  21.614  38.130   3.631
32508W        W 4179  19.829  13.655  10.613
32509W        W 4180  30.876  29.018   0.892
32510W        W 4181  15.149  30.462   4.667
32511W        W 4182  30.359  11.814  11.138
32512W        W 4183  13.090  10.989  10.923
32513W        W 4184  24.663  33.636   2.391
32514W        W 4185   1.815   3.003  13.562
32515W        W 4186   0.759   7.915  10.957
32516W        W 4187  12.392  14.168   2.242
32517W        W 4188  37.447  22.161   2.328
32518W        W 4189  32.625   6.538   4.722
32519W        W 4190  19.984  10.531  14.366
32520W        W 4191  22.670  28.176  11.891
32521W        W 4192  44.008  24.007   1.881
32522W        W 4193  12.708   7.707  10.503
32523W        W 4194  16.827  32.041   2.430
32524W        W 4195  41.858  25.651   4.529
32525W        W 4196  26.364  10.350  10.715
32526W        W 4197  40.552  16.289   1.613
32527W        W 4198  31.474  24.814   3.783
32528W        W 4199   0.939  20.410   4.299
32529W        W 4200  13.235   7.720   3.685
32530W        W 4201  19.844  23.924  12.991
32531W        W 4202  13.603   0.136  11.671
32532W        W 4203  25.002  42.499  12.554
32533W        W 4204  37.931  25.528  11.744
32534W        W 4205  26.431  33.699   3.115
32535W        W 4206  18.078   9.600   0.312
32536W        W 4207  20.175  42.474  11.018
32537W        W 4208  24.175  16.235   0.989
32538W        W 4209  35.695  27.579   0.787
32539W        W 4210  17.003  36.117   1.345
32540W        W 4211   7.921   6.094  13.559
32541W        W 4212  15.635  31.736   1.791
32542W        W 4213   9.281  32.945  14.499
32543W        W 4214  18.612  43.563   2.545
32544W        W 4215  14.099  15.997   3.357
32545W        W 4216  29.236   2.398  12.073
32546W        W 4217  39.287  10.814   2.784
32547W        W 4218  12.333  28.748  12.925
32548W        W 4219  35.555  31.497   4.500
32549W        W 4220  42.541  25.461  11.716
32550W        W 4221  38.771  39.463  11.292
32551W        W 4222  41.013   7.675   0.309
32552W        W 4223  19.820  31.089   1.576
32553W        W 4224   0.414  10.113   2.304
32554W        W 4225  23.760   0.462  11.465
32555W        W 4226  18.957  21.317  13.323
32556W        W 4227  22.253  36.855  12.041
32557W        W 4228   1.009  17.765  13.474
32558W        W 4229  36.187   1.574  11.994
32559W        W 4230  31.974   8.814  12.154
32560W        W 4231   0.205  12.893  13.688
32561W        W 4232   9.941  39.102   2.930
32562W        W 4233  26.458  38.983   3.271
32563W        W 4234   2.371   2.426  14.119
32564W        W 4235  11.719   2.871  13.211
32565W        W 4236  14.329  13.797  14.981
32566W        W 4237   6.611  17.401   0.465
32567W        W 4238  40.239  12.885  11.901
32568W        W 4239  32.853   6.634  13.508
32569W        W 4240  16.275  24.592   3.964
32570W        W 4241  25.191  32.358   1.840
32571W        W 4242  24.599  38.285   2.990
32572W        W 4243  24.904  39.089   3.457
32573W        W 4244  38.075  32.204   4.581
32574W        W 4245  19.212  41.058   3.183
32575W        W 4246  14.841   5.456   1.201
32576W        W 4247  32.163   3.331   0.492
32577W        W 4248  19.149  34.942  13.809
32578W        W 4249  31.835  24.518  12.051
32579W        W 4250   2.805  40.041  13.909
32580W        W 4251  32.061  14.819   1.322
32581W        W 4252   0.393  25.685   2.166
32582W        W 4253  24.510  29.709   0.870
32583W        W 4254  20.042  38.475  10.611
32584W        W 4255  25.160  35.393   0.369
32585W        W 4256  29.756  34.206   2.379
32586W        W 4257  12.890  12.539   2.649
32587W        W 4258  10.717  40.638   0.837
32588W        W 4259   2.881  42.783   4.757
32589W        W 4260   8.591   1.350   3.746
32590W        W 4261  29.606  32.717  10.754
32591W        W 4262  43.506  29.505   1.612
32592W        W 4263  27.019  44.218   1.422
32593W        W 4264   9.869   3.317  14.732
32594W        W 4265  43.464  44.310   3.443
32595W        W 4266  24.950  27.549   2.845
32596W        W 4267  23.637  15.927  13.439
32597W        W 4268  20.752  10.695  12.551
32598W        W 4269  25.326  40.808   1.703
32599W        W 4270  13.519  36.308   1.227
32600W        W 4271  30.916  40.423  14.924
32601W        W 4272  30.052  27.592  11.690
32602W        W 4273   5.326  11.070   4.246
32603W        W 4274  37.029  39.969  11.085
32604W        W 4275  35.360  34.963  10.628
32605W        W 4276  22.098  38.373  11.964
32606W        W 4277  22.000  19.664  12.250
32607W        W 4278  34.507  12.344   1.909
32608W        W 4279  29.070  31.811  13.796
32609W        W 4280  40.876  31.135   2.304
32610W        W 4281  13.378  19.966  11.657
32611W        W 4282  15.996   1.040  13.568
32612W        W 4283   0.730  41.521   3.195
32613W        W 4284   3.945  19.517   4.294
32614W        W 4285  16.061  30.991   2.122
32615W        W 4286  38.302   3.709  11.150
32616W        W 4287  20.164  11.194   1.807
32617W        W 4288  16.860   7.885   0.560
32618W        W 4289  30.046  44.977   4.526
32619W        W 4290  38.869  36.580  11.085
32620W        W 4291  44.814  15.778  13.351
32621W        W 4292  31.047  19.214   2.474
32622W        W 4293  13.507   6.637   0.333
32623W        W 4294  43.740  17.226  14.931
32624W        W 4295  23.422  14.082  12.283
32625W        W 4296  13.265  37.222  13.868
32626W        W 4297  10.389   6.933  14.175
32627W        W 4298  33.684  34.850  13.451
32628W        W 4299  35.822  12.688   3.375
32629W        W 4300  20.485  32.326   0.756
32630W        W 4301  32.626   2.980  14.894
32631W        W 4302  13.169  18.781  13.844
32632W        W 4303  38.793  31.347   3.157
32633W        W 4304  35.970  22.564   2.787
32634W        W 4305  14.292   9.184   3.705
32635W        W 4306  15.231  44.346   0.571
32636W        W 4307   3.708  24.676  11.188
32637W        W 4308  37.110  19.666  11.670
32638W        W 4309  31.336  40.344  11.227
32639W        W 4310  14.684  33.541   2.687
32640W        W 4311  12.600  28.637   1.179
32641W        W 4312   7.802  28.615  14.660
32642W        W 4313  27.290  40.049  13.457
32643W        W 4314  38.354  43.305   2.325
32644W        W 4315   6.245   2.002  11.676
32645W        W 4316  26.936   3.894  11.585
32646W        W 4317  21.491  25.478   3.792
32647W        W 4318  39.827  12.286   1.746
32648W        W 4319  12.294   3.173   3.376
32649W        W 4320  39.263  39.182   0.423
32650W        W 4321  24.672  35.424   2.842
32651W        W 4322   2.663   2.456   2.344
32652W        W 4323   9.556  21.475   2.731
32653W        W 4324   9.741  41.906  13.425
32654W        W 4325  23.267   3.376  14.849
32655W        W 4326  36.592  25.447   1.921
32656W        W 4327  39.056   8.135   2.800
32657W        W 4328  36.028  25.694  14.807
32658W        W 4329  35.070   4.779   3.663
32659W        W 4330  32.679  30.668  12.110
32660W        W 4331   7.956  20.548  12.404
32661W        W 4332  32.361   6.829  10.699
32662W        W 4333  22.768  42.279   1.752
32663W        W 4334  12.681  25.833  13.882
32664W        W 4335  42.890  23.046  13.038
32665W        W 4336  33.117  14.424  12.393
32666W        W 4337  32.986  25.459   3.186
32667W        W 4338  28.957  15.667   3.826
32668W        W 4339  27.157  28.213  12.108
32669W        W 4340  30.461  24.602   4.538
32670W        W 4341  25.559   4.027  14.060
32671W        W 4342   8.550   2.342  12.554
32672W        W 4343  34.145  20.667  14.804
32673W        W 4344   8.453  33.157  13.704
32674W        W 4345  36.002  29.521   3.882
32675W        W 4346  36.430  28.234   1.443
32676W        W 4347  36.107  14.061   2.035
32677W        W 4348  13.373  13.275  10.584
32678W        W 4349  30.507  30.431   0.937
32679W        W 4350  38.078  42.155  14.420
32680W        W 4351  40.933  24.803  13.577
32681W        W 4352   0.331  12.072   0.410
32682W        W 4353  19.314  22.833  11.618
32683W        W 4354   3.881  12.695  14.745
32684W        W 4355  30.447   9.839   3.644
32685W        W 4356  31.505  38.953  11.966
32686W        W 4357  12.632  23.757  10.793
32687W        W 4358  22.053   6.384  13.309
32688W        W 4359  28.852  37.820   1.153
32689W        W 4360   7.391  24.703   2.317
32690W        W 4361  26.220  31.542  11.522
32691W        W 4362   8.692  12.993  13.617
32692W        W 4363   6.294  35.577   4.146
32693W        W 4364   8.935  16.876  14.851
32694W        W 4365  21.520  44.681  11.439
32695W        W 4366  12.044  28.114   3.258
32696W        W 4367  15.640   2.897   2.424
32697W        W 4368  20.529   0.222  13.108
32698W        W 4369  18.741  25.984   0.012
32699W        W 4370  24.521  13.001   3.746
32700W        W 4371   9.230  19.270  13.587
32701W        W 4372  19.390  31.179   0.753
32702W        W 4373  18.762   5.162   1.277
32703W        W 4374  43.335  24.516   2.822
32704W        W 4375  38.920  32.828   4.665
32705W        W 4376  15.661  40.756   1.148
32706W        W 4377  13.583   6.953   2.243
32707W        W 4378  11.267  18.315  14.884
32708W        W 4379  30.723  24.417   1.429
32709W        W 4380  21.567  36.987   1.016
32710W        W 4381  15.641  31.486   0.480
32711W        W 4382  39.537  35.625   4.630
32712W        W 4383  38.100  34.272  11.937
32713W        W 4384  11.551  30.483   0.397
32714W        W 4385  12.630  36.980   2.170
32715W        W 4386   6.219  11.640   0.801
32716W        W 4387  43.630  11.419  10.060
32717W        W 4388  42.169  25.014   1.700
32718W        W 4389  32.431  43.839   3.244
32719W        W 4390  33.618  36.075  12.329
32720W        W 4391   1.896   6.314  10.665
32721W        W 4392  25.116  12.839  14.334
32722W        W 4393   9.863  19.627  11.390
32723W        W 4394  22.598  41.666   2.771
32724W        W 4395   7.959  18.451   4.211
32725W        W 4396  23.246   9.310  13.879
32726W        W 4397  32.432  36.787   0.758
32727W        W 4398  12.858  29.626  12.858
32728W        W 4399  44.907  39.197   5.465
32729W        W 4400   4.799  21.573  10.463
32730W        W 4401  18.713   6.136  12.490
32731W        W 4402  34.676  19.106   3.754
32732W        W 4403  38.030   0.744   3.632
32733W        W 4404   8.702  16.701   1.237
32734W        W 4405  18.294  44.931  12.292
32735W        W 4406   1.395  41.499   3.706
32736W        W 4407  19.496  35.786   4.365
32737W        W 4408   6.849  43.864   1.888
32738W        W 4409  31.080  14.702   4.183
32739W        W 4410  42.781  11.694   5.516
32740W        W 4411  30.428  30.237  13.840
32741W        W 4412  37.353  38.959   1.419
32742W        W 4413  30.074  38.175   4.539
32743W        W 4414  10.912  26.044  12.471
32744W        W 4415  26.422  22.942   0.906
32745W        W 4416  24.980  36.873  11.081
32746W        W 4417  25.615  24.133   4.464
32747W        W 4418  21.572  39.476   0.716
32748W        W 4419  38.467   1.031  13.553
32749W        W 4420  14.672   7.892   4.949
32750W        W 4421  40.640  33.399   2.188
32751W        W 4422   5.783   7.197   2.107
32752W        W 4423  42.288  21.073   2.251
32753W        W 4424  20.769  37.439   0.432
32754W        W 4425  16.779  29.475   4.665
32755W        W 4426  38.579   2.429   4.808
32756W        W 4427  25.580  23.480   2.354
32757W        W 4428  35.679  13.273   1.520
32758W        W 4429   3.956  44.686   1.314
32759W        W 4430  24.697  38.082  10.435
32760W        W 4431  28.944  37.295  13.007
32761W        W 4432   2.246  41.450  13.507
32762W        W 4433   9.235   0.040   4.059
32763W        W 4434  30.179  32.988  14.364
32764W        W 4435  12.999   8.415  12.076
32765W        W 4436   1.871   7.340   2.665
32766W        W 4437  33.684   4.874  13.415
32767W        W 4438   8.790  43.741   3.393
32768W        W 4439  23.666  18.338  10.588
32769W        W 4440  21.553  10.169   4.610
32770W        W 4441  38.247   8.425  12.985
32771W        W 4442  44.932  38.774  12.847
32772W        W 4443   0.775  36.196  11.540
32773W        W 4444  12.447  38.445   3.850
32774W        W 4445  38.836  35.010   4.333
32775W        W 4446   8.905  14.247   0.144
32776W        W 4447  18.130  44.934  14.916
32777W        W 4448   7.778  14.184  13.249
32778W        W 4449  28.224  25.304  14.362
32779W        W 4450   4.555  38.589   1.945
32780W        W 4451  20.499  22.989   2.327
32781W        W 4452   7.687  31.663   3.890
32782W        W 4453   2.980  18.878  12.992
32783W        W 4454   8.266  19.606  14.110
32784W        W 4455   7.873  15.868   0.264
32785W        W 4456  43.990  12.616   4.613
32786W        W 4457  10.420   9.096  12.492
32787W        W 4458   3.684  26.840  12.466
32788W        W 4459  12.325  34.893   3.379
32789W        W 4460  12.844  11.610   0.024
32790W        W 4461  21.302  10.894   4.200
32791W        W 4462  38.355  21.157  10.425
32792W        W 4463  42.163  13.422   2.447
32793W        W 4464  19.514  29.925  11.279
32794W        W 4465   9.666  37.630   1.822
32795W        W 4466  24.542  11.121   0.997
32796W        W 4467  33.131   0.273  13.403
32797W        W 4468  41.599  15.740  11.100
32798W        W 4469  42.432  16.561   2.611
32799W        W 4470   3.956  41.546   4.004
32800W        W 4471  44.741  36.144   2.627
32801W        W 4472   7.477  25.282   0.229
32802W        W 4473  42.900  29.959  11.064
32803W        W 4474  38.358   6.903  13.280
32804W        W 4475   8.491  14.972  11.894
32805W        W 4476  28.735  24.946  12.073
32806W        W 4477  25.484  33.950   4.567
32807W        W 4478  38.909  41.781   4.139
32808W        W 4479  33.729  33.070  11.142
32809W        W 4480  31.510  32.569   0.369
32810W        W 4481   7.778   0.217   2.303
32811W        W 4482  32.140  27.913   2.543
32812W        W 4483   8.730  16.051  11.583
32813W        W 4484  32.952  20.628  13.850
32814W        W 4485  21.982  13.065  11.071
32815W        W 4486  34.633   6.359  12.464
32816W        W 4487  34.358  14.678  13.134
32817W        W 4488  10.890  16.464  14.917
32818W        W 4489  15.115   4.940   4.212
32819W        W 4490   8.152  14.877  14.081
32820W        W 4491   2.289  13.310   1.761
32821W        W 4492  23.123  33.456   1.470
32822W        W 4493  36.436  23.498  11.713
32823W        W 4494  26.570  20.264  14.320
32824W        W 4495   2.941  17.572   0.814
32825W        W 4496  30.929  13.322  11.135
32826W        W 4497   5.552   9.912   0.170
32827W        W 4498  39.389  40.645  11.660
32828W        W 4499  27.962  26.115  10.945
32829W        W 4500  26.632   8.659  11.943
32830W        W 4501  12.110  28.995   2.070
32831W        W 4502   4.246   7.374   2.363
32832W        W 4503  14.944   7.213  10.170
32833W        W 4504   2.962   8.321  11.593
32834W        W 4505  11.713  40.579  10.812
32835W        W 4506  28.867  39.765  10.986
32836W        W 4507  29.142   9.749  14.706
32837W        W 4508  21.480  26.056   5.232
32838W        W 4509   3.842  33.095  12.386
32839W        W 4510  10.219  26.655   3.174
32840W        W 4511   2.646  41.240  10.317
32841W        W 4512  31.740  29.188  11.097
32842W        W 4513  38.649   2.459  10.733
32843W        W 4514  17.312   7.719   0.437
32844W        W 4515  41.879  41.006   3.040
32845W        W 4516  38.609  20.317  11.152
32846W        W 4517  42.239   8.828  10.741
32847W        W 4518   1.656  33.858  11.463
32848W        W 4519  32.378  15.303   0.376
32849W        W 4520  29.809  32.965   2.730
32850W        W 4521  39.808  11.639  12.591
32851W        W 4522  40.011  31.366  13.988
32852W        W 4523  38.409   2.500  12.996
32853W        W 4524   6.669   4.418  14.773
32854W        W 4525  11.699  15.174  14.754
32855W        W 4526  34.484  19.802   3.763
32856W        W 4527  40.027  27.510   1.207
32857W        W 4528  23.603  36.977   2.478
32858W        W 4529   8.795  11.850   1.418
32859W        W 4530  37.247   2.692  11.453
32860W        W 4531  39.236   4.797  13.035
32861W        W 4532  16.903   0.996  11.931
32862W        W 4533   7.745   2.738   1.329
32863W        W 4534  14.335  40.858   0.935
32864W        W 4535   7.025  24.871   0.331
32865W        W 4536   2.704   6.935   1.667
32866W        W 4537  26.216   4.334  12.758
32867W        W 4538  33.478  42.268  12.522
32868W        W 4539   2.573  38.139  10.759
32869W        W 4540  28.128   8.913  12.918
32870W        W 4541  20.761   9.779   4.242
32871W        W 4542  13.774   3.771   1.884
32872W        W 4543  23.484   0.956  11.534
32873W        W 4544  21.165  11.250  12.898
32874W        W 4545  35.568  31.946  13.313
32875W        W 4546   4.413   1.698   1.831
32876W        W 4547  29.980  24.735  14.823
32877W        W 4548  31.573  36.458   0.731
32878W        W 4549  16.756  11.094   1.005
32879W        W 4550  35.838  22.581   1.931
32880W        W 4551  28.449   3.651   0.273
32881W        W 4552   7.917  31.546  10.684
32882W        W 4553  42.764  10.323  11.928
32883W        W 4554  36.807   2.590  11.185
32884W        W 4555  24.086  44.974   4.121
32885W        W 4556  16.190   5.638  12.523
32886W        W 4557  16.255  40.574  14.515
32887W        W 4558  14.745  40.140   3.362
32888W        W 4559  44.422  19.504  14.523
32889W        W 4560  21.739  29.588  13.138
32890W        W 4561  31.426  12.815   2.098
32891W        W 4562  38.774  16.755   1.299
32892W        W 4563  18.114  36.544  12.963
32893W        W 4564  11.382  41.680   1.930
32894W        W 4565   6.496  11.174   3.824
32895W        W 4566  27.173  23.237   1.164
32896W        W 4567   9.490  23.656  11.970
32897W        W 4568  44.508  22.087   3.131
32898W        W 4569  37.608   6.481   4.205
32899W        W 4570  12.551   7.420  14.020
32900W        W 4571   8.832   3.417   2.676
32901W        W 4572  26.991   5.850  11.929
32902W        W 4573  39.462  34.034   2.733
32903W        W 4574  26.503  18.711  14.276
32904W        W 4575   8.216  43.179  13.341
32905W        W 4576  21.994  20.041  10.467
32906W        W 4577  41.344  11.889  13.455
32907W        W 4578   6.450   5.560   2.774
32908W        W 4579   6.119  21.123  12.313
32909W        W 4580  41.330  42.065  13.942
32910W        W 4581  21.040   1.817  13.787
32911W        W 4582  18.316  41.880  13.959
32912W        W 4583   3.511  22.068   4.753
32913W        W 4584   5.680   7.852   3.309
32914W        W 4585  44.381   9.135   3.823
32915W        W 4586  17.159  35.334   0.804
32916W        W 4587  18.405  39.032  14.819
32917W        W 4588   0.529   7.266  13.863
32918W        W 4589  10.752  12.760  13.408
32919W        W 4590  11.860  20.569   3.289
32920W        W 4591   0.873  34.626  11.590
32921W        W 4592  25.135  20.321  14.098
32922W        W 4593  19.776  28.096  13.859
32923W        W 4594  12.287  13.428   3.249
32924W        W 4595  28.804  38.625  13.344
32925W        W 4596   8.544   9.636  12.654
32926W        W 4597  24.604  15.017  13.518
32927W        W 4598  25.614  41.381   2.400
32928W        W 4599  38.318  25.345  12.111
32929W        W 4600  17.149  36.576  14.460
32930W        W 4601  26.868   6.018  14.443
32931W        W 4602   9.859  16.825   2.618
32932W        W 4603  28.671  41.959  12.596
32933W        W 4604  20.001   6.281  10.735
32934W        W 4605  25.511  30.532   1.750
32935W        W 4606  11.437  21.145  14.869
32936W        W 4607  40.695  15.171  14.568
32937W        W 4608  14.576   6.357  11.287
32938W        W 4609  30.500   7.786  11.683
32939W        W 4610  10.804   0.744  13.305
32940W        W 4611  38.620  10.736   3.565
32941W        W 4612  16.811  22.733  12.629
32942W        W 4613  19.059  18.808  11.412
32943W        W 4614  44.301  13.287  14.893
32944W        W 4615  41.475  44.670   3.541
32945W        W 4616   1.054  32.444  11.127
32946W        W 4617  19.110  14.058  11.213
32947W        W 4618  28.041   5.546  10.228
32948W        W 4619  27.458  22.546   3.279
32949W        W 4620  25.951  25.778  11.972
32950W        W 4621  18.704  26.521  10.948
32951W        W 4622  18.551  40.575  14.249
32952W        W 4623   8.923  43.866  12.617
32953W        W 4624  23.566  34.100  11.327
32954W        W 4625  26.191  12.943  13.844
32955W        W 4626  10.449  34.694  11.699
32956W        W 4627  27.962  33.111   3.402
32957W        W 4628  20.358  36.129  11.338
32958W        W 4629  20.957  22.529   4.547
32959W        W 4630  23.635  38.857  10.343
32960W        W 4631   8.659  15.529  11.639
32961W        W 4632  44.415  15.035  13.245
32962W        W 4633  42.946  34.800   1.453
32963W        W 4634  40.928  39.775   4.063
32964W        W 4635  34.475   9.233  10.789
32965W        W 4636  21.574  44.086  13.403
32966W        W 4637  38.460  10.187   4.216
32967W        W 4638  39.399  36.898   2.716
32968W        W 4639  12.429  29.321   2.328
32969W        W 4640  43.360  40.979  13.376
32970W        W 4641   8.428   1.815  12.072
32971W        W 4642  26.557   8.494   2.711
32972W        W 4643  37.248  37.855   1.918
32973W        W 4644   4.868  23.585  10.141
32974W        W 4645  18.616   8.427   4.150
32975W        W 4646  38.843   1.727  14.481
32976W        W 4647  32.042  23.074   2.367
32977W        W 4648  20.496  21.184   0.440
32978W        W 4649  40.554  19.610  11.524
32979W        W 4650  42.882  19.030  13.463
32980W        W 4651  14.812  14.628  11.723
32981W        W 4652   4.018   7.944   3.702
32982W        W 4653  36.037  44.755  10.759
32983W        W 4654   0.474   2.869  13.267
32984W        W 4655   7.972   9.957   1.317
32985W        W 4656  22.152  20.056  11.964
32986W        W 4657  25.477   3.919   0.440
32987W        W 4658  31.861  17.678  12.027
32988W        W 4659  29.673  23.616  12.914
32989W        W 4660  13.429   3.752  13.574
32990W        W 4661  26.116  28.013  10.530
32991W        W 4662  34.084  15.508   2.153
32992W        W 4663   1.610   2.902   3.049
32993W        W 4664  21.061  29.483   4.057
32994W        W 4665  42.059  29.583   3.579
32995W        W 4666   7.400   8.495   4.836
32996W        W 4667  10.223  39.122   3.851
32997W        W 4668  38.167  12.325  11.253
32998W        W 4669  42.867  10.638   0.428
32999W        W 4670  20.637  29.860   0.868
33000W        W 4671  44.834  35.791  11.132
33001W        W 4672  14.842  36.326  11.158
33002W        W 4673   5.234   8.311   1.958
33003W        W 4674  30.893  42.301   0.704
33004W        W 4675   9.145   2.724   0.714
33005W        W 4676  20.488  26.041   0.479
33006W        W 4677  44.628  16.378  10.418
33007W        W 4678  19.367  44.408   0.862
33008W        W 4679   7.331  16.002  11.978
33009W        W 4680   7.953  16.117   1.958
33010W        W 4681   4.606  16.261  11.912
33011W        W 4682   4.680  26.531  13.770
33012W        W 4683  25.126   2.469  13.149
33013W        W 4684  26.807  10.518  14.887
33014W        W 4685  26.795   2.764   2.789
33015W        W 4686  36.847  16.943   2.182
33016W        W 4687  43.730   2.668  12.379
33017W        W 4688  31.074  29.327   2.271
33018W        W 4689   9.912  18.182   0.844
33019W        W 4690  29.201  10.130  13.454
33020W        W 4691  39.267   6.458   0.966
33021W        W 4692  17.337  20.038   3.589
33022W        W 4693   8.003  42.715   2.170
33023W        W 4694  16.350  18.731  13.084
33024W        W 4695  17.786  16.839   1.564
33025W        W 4696  32.990  24.450   4.117
33026W        W 4697  20.107   5.641   2.304
33027W        W 4698  32.514  33.849  14.932
33028W        W 4699  11.620  11.387  11.158
33029W        W 4700  40.779  19.116  14.933
33030W        W 4701  29.174  18.043  14.400
33031W        W 4702  10.833  28.803   0.124
33032W        W 4703  38.711   7.455   4.694
33033W        W 4704  15.598  31.405  13.511
33034W        W 4705  23.963  11.334  12.500
33035W        W 4706  33.022  41.760   2.225
33036W        W 4707  11.875  12.748  10.257
33037W        W 4708   6.195   7.768  11.871
33038W        W 4709  40.857  39.341  14.958
33039W        W 4710   3.686  44.765   3.532
33040W        W 4711  34.785  16.690  12.871
33041W        W 4712  43.000   3.684  13.332
33042W        W 4713  31.188  36.441  12.120
33043W        W 4714  34.480  14.054  14.322
33044W        W 4715  41.318  37.971   2.774
33045W        W 4716   7.024  18.277   1.803
33046W        W 4717  22.026  42.420   0.870
33047W        W 4718  37.027   9.455   2.775
33048W        W 4719  30.410   5.378  14.321
33049W        W 4720   8.278  16.430   0.726
33050W        W 4721  24.570  16.042  13.385
33051W        W 4722  18.827  14.583  10.159
33052W        W 4723  35.313  29.989  11.571
33053W        W 4724  40.265  11.383   2.596
33054W        W 4725  19.540   7.476   4.337
33055W        W 4726  16.329   2.215   0.769
33056W        W 4727  30.030  17.622   4.285
33057W        W 4728   6.888   4.268   2.360
33058W        W 4729  30.656  34.093   1.463
33059W        W 4730  15.496  42.786  10.703
33060W        W 4731  42.325  35.072   2.114
33061W        W 4732  11.228  31.175  14.985
33062W        W 4733   3.726   8.247  11.124
33063W        W 4734  31.531  39.816  11.152
33064W        W 4735  21.492   7.776  11.055
33065W        W 4736  30.507  27.462  14.746
33066W        W 4737  18.932  24.189  13.884
33067W        W 4738  39.546   2.181  12.558
33068W        W 4739  25.164   0.964  13.305
33069W        W 4740   7.803  17.188  10.270
33070W        W 4741  43.260  26.431  12.421
33071W        W 4742  41.437  35.166  11.591
33072W        W 4743  11.662   0.872   3.192
33073W        W 4744  21.591  12.600  13.812
33074W        W 4745   5.840  37.375   3.130
33075W        W 4746  36.653  20.741   4.245
33076W        W 4747   1.914  39.893  11.259
33077W        W 4748  17.188  32.608  13.923
33078W        W 4749  39.973  21.167  11.728
33079W        W 4750   2.734   1.217   0.002
33080W        W 4751  39.044  26.743  14.011
33081W        W 4752  12.329  39.651   1.840
33082W        W 4753   6.247   2.493   3.559
33083W        W 4754   0.538  37.113   3.267
33084W        W 4755  42.371  15.518   3.684
33085W        W 4756  40.307   1.774   4.228
33086W        W 4757  38.863  16.354  10.616
33087W        W 4758  42.276  29.188   3.836
33088W        W 4759   1.850  13.014   0.478
33089W        W 4760  44.619  44.530   1.517
33090W        W 4761  26.493  34.823   5.161
33091W        W 4762  37.907  19.998  12.104
33092W        W 4763   2.416  14.316   3.728
33093W        W 4764   4.365   8.360   1.403
33094W        W 4765  27.319   8.046   3.062
33095W        W 4766   3.278  37.895  12.905
33096W        W 4767  12.730  43.710   0.370
33097W        W 4768  21.151  38.955   1.956
33098W        W 4769  17.267  26.129   1.454
33099W        W 4770  13.315   8.808  13.904
33100W        W 4771  22.509  11.833   2.880
33101W        W 4772   0.168  30.535  13.910
33102W        W 4773  30.503   7.884   1.717
33103W        W 4774  19.740  27.879  12.356
33104W        W 4775  33.117  26.078  14.431
33105W        W 4776   8.018   1.711  14.102
33106W        W 4777   3.457  35.359   0.911
33107W        W 4778   4.809  28.923   1.305
33108W        W 4779  36.567  20.167   1.810
33109W        W 4780  37.293  37.923   3.681
33110W        W 4781   7.600  39.153   1.834
33111W        W 4782  15.353  33.940   4.355
33112W        W 4783  31.966  12.674   5.104
33113W        W 4784  21.100  29.187  11.869
33114W        W 4785   9.317  41.198  14.335
33115W        W 4786  24.121   1.352  14.865
33116W        W 4787   6.631  43.091  13.729
33117W        W 4788  31.234  30.086   3.751
33118W        W 4789  40.379  13.298   2.261
33119W        W 4790  19.007  29.164  13.902
33120W        W 4791  11.977  41.604   4.141
33121W        W 4792  39.567   9.155  14.375
33122W        W 4793   3.961   2.527  12.789
33123W        W 4794  27.339  40.745   1.338
33124W        W 4795   0.392  34.823  11.622
33125W        W 4796  40.530  42.537  11.160
33126W        W 4797  38.550  18.384   2.788
33127W        W 4798  20.667  37.015  14.288
33128W        W 4799  35.235   9.640   1.364
33129W        W 4800  28.396   4.226  11.160
33130W        W 4801   6.350  12.848   4.113
33131W        W 4802  24.020   5.912  12.050
33132W        W 4803  22.690  28.059  12.876
33133W        W 4804  39.379   6.905   1.299
33134W        W 4805  31.554  24.214   0.334
33135W        W 4806  11.483  10.208  14.055
33136W        W 4807   2.285   7.391  12.350
33137W        W 4808   3.807  10.586   2.597
33138W        W 4809  25.218  42.305  12.018
33139W        W 4810  34.946  37.808   3.588
33140W        W 4811  15.750  20.226   2.847
33141W        W 4812  25.022  21.341  11.216
33142W        W 4813  24.602  39.540   1.867
33143W        W 4814  31.408   7.817   1.658
33144W        W 4815  44.302  41.163  12.096
33145W        W 4816  27.566  39.922  11.773
33146W        W 4817  24.069  13.278  13.020
33147W        W 4818  33.992  16.831  14.247
33148W        W 4819  19.317   3.696  14.680
33149W        W 4820   2.507  36.927  14.581
33150W        W 4821  31.194  43.684  13.627
33151W        W 4822  14.080   4.898   4.196
33152W        W 4823  16.717   4.771  10.097
33153W        W 4824  33.901  38.079   0.694
33154W        W 4825  25.377  20.577   3.289
33155W        W 4826  38.249  23.464   2.220
33156W        W 4827  34.491   8.251  10.832
33157W        W 4828  44.011  11.832   0.544
33158W        W 4829  14.784   0.790  11.060
33159W        W 4830   9.363  30.040  12.121
33160W        W 4831   8.248   7.343  11.457
33161W        W 4832  23.602  17.096   1.717
33162W        W 4833   8.197  32.385   2.661
33163W        W 4834  38.083  39.662  10.669
33164W        W 4835  34.903  37.003  11.628
33165W        W 4836   2.243  29.179  12.965
33166W        W 4837  26.137  15.767   4.513
33167W        W 4838  20.696  28.069   5.091
33168W        W 4839  42.549  21.931  11.058
33169W        W 4840  26.992  26.552  12.732
33170W        W 4841  44.244  13.798   0.067
33171W        W 4842  11.713   5.738   4.420
33172W        W 4843  25.413   6.971  14.319
33173W        W 4844  30.083   8.425   1.843
33174W        W 4845  18.751  13.572  14.799
33175W        W 4846   7.689   6.085  11.116
33176W        W 4847   2.460  23.801   2.315
33177W        W 4848  28.007   7.766   3.608
33178W        W 4849  19.380  19.786  11.632
33179W        W 4850  34.950  23.485  14.520
33180W        W 4851  35.134  18.708  13.482
33181W        W 4852  12.222   9.338  13.589
33182W        W 4853   9.919  12.619  12.842
33183W        W 4854  41.205  44.911  11.065
33184W        W 4855  41.512  28.123   0.364
33185W        W 4856   8.762   8.617   3.709
33186W        W 4857   1.510  42.778   1.222
33187W        W 4858  23.985  29.407   2.789
33188W        W 4859  38.025   2.845   1.663
33189W        W 4860  14.619  24.304  13.735
33190W        W 4861  12.576  31.693  12.169
33191W        W 4862   5.429  16.349   4.629
33192W        W 4863  17.626   8.808   1.408
33193W        W 4864  37.974  34.679  13.317
33194W        W 4865  22.253  42.592  11.961
33195W        W 4866   8.210  10.261   4.666
33196W        W 4867  18.606  17.117  11.099
33197W        W 4868  14.216   6.904   0.514
33198W        W 4869  41.232  15.259  13.852
33199W        W 4870  38.536  21.729   3.399
33200W        W 4871  29.814  34.982   4.545
33201W        W 4872  23.010  12.037   2.044
33202W        W 4873   1.938  33.981  14.971
33203W        W 4874  12.816  41.562   3.458
33204W        W 4875  30.386  42.718   3.593
33205W        W 4876  14.894  14.795  13.760
33206W        W 4877   0.434  14.608   1.351
33207W        W 4878   0.286  40.450  10.645
33208W        W 4879   9.455  25.754  12.959
33209W        W 4880  30.939  25.677  11.771
33210W        W 4881  42.371   5.390  10.381
33211W        W 4882   9.382  36.026   1.406
33212W        W 4883  35.968  37.578   4.142
33213W        W 4884   6.919   3.048  14.860
33214W        W 4885   0.342  10.486  12.014
33215W        W 4886  10.625  20.804  12.945
33216W        W 4887  42.353   5.284   2.904
33217W        W 4888   8.316  42.969  11.131
33218W        W 4889   3.904   7.137   1.373
33219W        W 4890  31.433  31.231  11.622
33220W        W 4891  18.675  10.246  12.078
33221W        W 4892  44.204  27.341   2.060
33222W        W 4893  19.718  29.367   0.972
33223W        W 4894   3.895  23.308   4.564
33224W        W 4895  33.568  19.047  11.130
33225W        W 4896  16.255  44.811   4.305
33226W        W 4897  27.758   2.828  11.097
33227W        W 4898   0.754  25.577   3.192
33228W        W 4899  14.856  21.123   0.345
33229W        W 4900   7.637   0.205  12.468
33230W        W 4901  31.995  28.664  14.905
33231W        W 4902  24.732  23.207  14.360
33232W        W 4903  19.148  12.717  12.473
33233W        W 4904  11.680  38.704  13.363
33234W        W 4905  14.330   9.784  12.891
33235W        W 4906  30.366  27.968  12.475
33236W        W 4907  11.569   8.231   1.034
33237W        W 4908  42.412  30.047  12.990
33238W        W 4909   8.388  16.251  14.872
33239W        W 4910   7.398  32.273  11.119
33240W        W 4911   5.039  11.521   4.563
33241W        W 4912  14.690   0.468   1.891
33242W        W 4913  27.158  31.149   1.673
33243W        W 4914  32.954  20.284  11.489
33244W        W 4915  19.302  33.052  13.413
33245W        W 4916   5.873  44.669  14.531
33246W        W 4917   5.840  11.172  12.840
33247W        W 4918   4.853  28.383   0.259
33248W        W 4919  20.022  16.739  10.819
33249W        W 4920  25.022   0.282   1.459
33250W        W 4921   8.269  32.652   0.884
33251W        W 4922  28.676  34.720   3.888
33252W        W 4923  43.039   2.761  10.719
33253W        W 4924  14.802  25.563   2.140
33254W        W 4925  29.891  22.093  11.980
33255W        W 4926  37.671  37.411  12.322
33256W        W 4927  25.533  21.905   0.390
33257W        W 4928  20.772  32.146   4.301
33258W        W 4929   1.867  10.581  13.954
33259W        W 4930  40.369   8.655   0.888
33260W        W 4931  19.006  36.080   2.317
33261W        W 4932  41.286   2.013  13.459
33262W        W 4933   9.187   8.688   2.188
33263W        W 4934  42.541  44.515   1.377
33264W        W 4935  43.285  17.660   3.944
33265W        W 4936  16.645  18.679   3.910
33266W        W 4937  28.015  14.789   2.767
33267W        W 4938   4.675   2.760  13.460
33268W        W 4939  33.946   4.883  10.759
33269W        W 4940   0.039   8.133   3.373
33270W        W 4941  44.221  20.188   4.247
33271W        W 4942  40.420  32.446   3.653
33272W        W 4943   5.825  37.592  12.876
33273W        W 4944  30.012  31.537  12.697
33274W        W 4945  36.965  19.069   2.687
33275W        W 4946  29.035  15.778  12.318
33276W        W 4947  22.942  10.703   3.150
33277W        W 4948  42.887  10.061  11.009
33278W        W 4949   0.206  21.729  12.919
33279W        W 4950  10.908   7.497  14.652
33280W        W 4951  13.571  19.563  13.096
33281W        W 4952   1.104  40.565   0.827
33282W        W 4953  38.831  21.647   4.531
33283W        W 4954  11.746  15.375  14.276
33284W        W 4955  36.837  27.209  13.406
33285W        W 4956  22.138  39.482   4.570
33286W        W 4957  15.200  17.709  11.356
33287W        W 4958  44.820  42.821   1.546
33288W        W 4959   8.602  34.096   1.339
33289W        W 4960  29.828  19.125  11.964
33290W        W 4961  30.459  39.080  10.304
33291W        W 4962   0.027  40.559  11.155
33292W        W 4963   4.964   0.606   4.125
33293W        W 4964  29.385  40.889  12.599
33294W        W 4965  22.975  36.839   4.219
33295W        W 4966  21.029  10.238   0.542
33296W        W 4967  40.001   2.032   3.715
33297W        W 4968  40.634  40.734  13.072
33298W        W 4969  26.789  19.207   2.329
33299W        W 4970  12.494  21.130  14.945
33300W        W 4971   3.230   9.257  13.953
33301W        W 4972  42.519   5.806  13.697
33302W        W 4973  16.588  32.893  10.609
33303W        W 4974  15.501  40.937  12.048
33304W        W 4975  44.774  23.659   1.385
33305W        W 4976  27.333  22.763  13.918
33306W        W 4977   2.670  25.730   3.656
33307W        W 4978  23.200  39.526  10.994
33308W        W 4979  24.609  26.906   1.015
33309W        W 4980   2.755  40.536   1.829
33310W        W 4981   1.479  43.684  13.607
33311W        W 4982  29.030  10.359   1.451
33312W        W 4983  17.160  28.216   2.657
33313W        W 4984  42.605  27.911  13.930
33314W        W 4985  40.123  11.740  12.987
33315W        W 4986  40.320  21.828   3.145
33316W        W 4987  22.026  42.881  14.068
33317W        W 4988   4.962   7.857   0.741
33318W        W 4989  21.041  44.337   4.928
33319W        W 4990   9.737  20.714  13.369
33320W        W 4991   4.019  33.668  14.730
33321W        W 4992  29.247  16.594  13.934
33322W        W 4993   3.348  10.045   0.353
33323W        W 4994   5.028   0.880   1.304
33324W        W 4995  11.067   1.159   1.165
33325W        W 4996  24.747   4.422   1.834
33326W        W 4997   2.543  36.773   0.962
33327W        W 4998  40.321  32.381   0.902
33328W        W 4999  36.896  17.204  14.713
33329W        W 5000  11.132   3.812   0.953
33330W        W 5001  43.378  23.530   2.304
33331W        W 5002  35.531  32.988  11.931
33332W        W 5003  31.678   6.246  10.794
33333W        W 5004  40.312  39.199  10.507
33334W        W 5005  14.276  20.083  11.624
33335W        W 5006   0.868  19.496   4.739
33336W        W 5007   3.877   6.524  11.509
33337W        W 5008   0.203   0.385  12.923
33338W        W 5009   6.265  34.644   0.970
33339W        W 5010  41.907   7.259   0.480
33340W        W 5011  41.044  35.852  14.114
33341W        W 5012   2.212  41.807   3.363
33342W        W 5013  37.642  15.457  11.666
33343W        W 5014   7.596  41.668   3.680
33344W        W 5015   9.936  16.858  10.649
33345W        W 5016   3.494  28.926  11.452
33346W        W 5017  21.386  34.448   1.782
33347W        W 5018  16.387  15.199  13.320
33348W        W 5019  29.075  19.709  12.087
33349W        W 5020  14.601  10.490  11.627
33350W        W 5021  27.080  18.391  13.831
33351W        W 5022  29.422   0.393   2.321
33352W        W 5023  30.445   0.986  14.699
33353W        W 5024  11.806  15.381  13.396
33354W        W 5025  10.980  18.313   0.742
33355W        W 5026   4.916  11.145  13.821
33356W        W 5027   4.421  22.162   1.060
33357W        W 5028  28.017   1.744   2.804
33358W        W 5029   3.515  44.960   2.217
33359W        W 5030  40.551  13.470   1.763
33360W        W 5031  13.643  25.582  12.539
33361W        W 5032  42.793  36.941   3.586
33362W        W 5033  17.295  33.937  13.547
33363W        W 5034  23.955  40.952  12.693
33364W        W 5035  28.641   9.619  11.165
33365W        W 5036   3.173  23.176   3.442
33366W        W 5037  33.564  16.032   0.479
33367W        W 5038  39.068  27.121  12.220
33368W        W 5039  16.631  43.330  12.248
33369W        W 5040   5.911  25.515  14.358
33370W        W 5041  14.011   9.956  13.314
33371W        W 5042   7.426   3.940   0.709
33372W        W 5043  27.997  38.969  14.887
33373W        W 5044  40.432   4.580  13.414
33374W        W 5045  24.551  42.100  11.008
33375W        W 5046   0.769  19.876   5.500
33376W        W 5047   9.387  16.425   3.444
33377W        W 5048   2.721  30.289  13.859
33378W        W 5049  22.287   9.592  11.011
33379W        W 5050  35.378  39.999   4.251
33380W        W 5051  12.329  17.082   1.225
33381W        W 5052  30.011  44.738  10.600
33382W        W 5053  18.354  12.174  13.016
33383W        W 5054  13.293   6.900  14.907
33384W        W 5055  39.195  16.713  11.516
33385W        W 5056  33.666  15.484   1.236
33386W        W 5057  40.775  22.083   1.380
33387W        W 5058  18.503  44.297  13.291
33388W        W 5059  35.993  29.482  14.886
33389W        W 5060  37.324  10.253   0.356
33390W        W 5061  16.376   4.420   0.799
33391W        W 5062  39.946  12.708  11.233
33392W        W 5063  12.760   4.278   0.495
33393W        W 5064  25.451  11.017  14.485
33394W        W 5065  37.056  19.861  10.778
33395W        W 5066  24.385  12.877  10.311
33396W        W 5067  22.773   7.252  11.513
33397W        W 5068  38.361  15.854   2.718
33398W        W 5069  41.536   8.674   4.593
33399W        W 5070  42.049  12.670   3.620
33400W        W 5071  22.935  19.740  12.448
33401W        W 5072   2.410  37.894   0.808
33402W        W 5073  13.560  14.866   0.487
33403W        W 5074  14.281  20.707   1.443
33404W        W 5075  40.134  19.714  10.288
33405W        W 5076  24.533  34.906  11.760
33406W        W 5077  22.129  11.295   1.271
33407W        W 5078  36.973  33.936   2.421
33408W        W 5079   0.486   1.846  13.839
33409W        W 5080   1.390   0.340  13.684
33410W        W 5081   3.740  12.284   0.584
33411W        W 5082  14.822  40.337  13.284
33412W        W 5083  19.068  19.460   0.195
33413W        W 5084  33.461  29.556  12.149
33414W        W 5085  19.564   2.999  13.896
33415W        W 5086  42.982  21.818  12.089
33416W        W 5087  14.604   1.198   4.223
33417W        W 5088  27.027  35.809   3.598
33418W        W 5089  35.816  37.590   2.728
33419W        W 5090  43.472   6.706   4.081
33420W        W 5091  19.138  34.601   0.944
33421W        W 5092   7.240  20.518  12.056
33422W        W 5093  27.743  40.022   3.685
33423W        W 5094   6.080  28.698  14.046
33424W        W 5095  33.800  16.277   4.673
33425W        W 5096  37.397  23.744   3.625
33426W        W 5097   8.351  12.088  12.078
33427W        W 5098  40.259   9.333   2.825
33428W        W 5099  40.414  28.114  11.562
33429W        W 5100  43.005   1.861  11.049
33430W        W 5101  17.665  44.744   1.823
33431W        W 5102   7.771  35.575  10.943
33432W        W 5103   7.443   8.155  14.379
33433W        W 5104  12.248   4.731  12.761
33434W        W 5105   1.289  31.386   4.239
33435W        W 5106  21.141   1.024   4.087
33436W        W 5107  16.816  43.418   3.652
33437W        W 5108  22.072  18.305   4.814
33438W        W 5109  30.352  30.185   4.195
33439W        W 5110  35.850  38.107   3.270
33440W        W 5111  39.508  10.299   2.454
33441W        W 5112  30.038  39.290  14.522
33442W        W 5113  19.728  38.048   4.743
33443W        W 5114   1.474  12.600  13.415
33444W        W 5115   4.417   7.477  13.207
33445W        W 5116  41.379  25.328  14.922
33446W        W 5117   3.636   8.171   0.558
33447W        W 5118  21.844  17.087   1.222
33448W        W 5119  22.333   4.112   0.773
33449W        W 5120  34.563  28.511   2.700
33450W        W 5121   6.618  39.521  14.916
33451W        W 5122  34.099  23.414   0.522
33452W        W 5123  16.308  26.039   3.592
33453W        W 5124   9.333  42.828  12.346
33454W        W 5125   0.294  30.610  14.960
33455W        W 5126  23.692   8.372   2.130
33456W        W 5127  33.186  39.107  13.835
33457W        W 5128   5.234  38.333   3.802
33458W        W 5129   9.693  24.114  10.391
33459W        W 5130   4.945   0.298   3.272
33460W        W 5131  27.356  41.563  10.746
33461W        W 5132  18.040  25.396   3.718
33462W        W 5133  41.838  13.798  11.756
33463W        W 5134  29.388  27.235  10.584
33464W        W 5135  31.328  15.695  11.432
33465W        W 5136  35.154  32.252  14.887
33466W        W 5137  25.004  43.856  11.631
33467W        W 5138  19.214  37.049   4.051
33468W        W 5139  20.492  15.659   2.669
33469W        W 5140  18.751  35.723   1.424
33470W        W 5141  25.213  13.653   0.379
33471W        W 5142   1.751  28.312   4.401
33472W        W 5143   7.291  36.621  12.005
33473W        W 5144  27.601   7.269   3.850
33474W        W 5145  15.269  31.496   4.607
33475W        W 5146  35.368  39.554  14.930
33476W        W 5147  43.007  16.018  11.076
33477W        W 5148  26.602  19.965   2.097
33478W        W 5149  33.065  34.569   1.745
33479W        W 5150  31.651   7.289  13.790
33480W        W 5151  35.101  39.817   4.691
33481W        W 5152  15.068  34.152   3.998
33482W        W 5153   1.955  22.603   2.922
33483W        W 5154   3.726  21.074  14.609
33484W        W 5155   9.200   0.667  11.145
33485W        W 5156  33.390  30.879   2.749
33486W        W 5157  21.992  33.058  12.561
33487W        W 5158  20.493  12.804   4.555
33488W        W 5159   2.199  42.797   0.463
33489W        W 5160   2.048  12.657   1.859
33490W        W 5161   6.535  18.688   0.532
33491W        W 5162  43.991  19.752  12.516
33492W        W 5163  29.925   3.721  13.913
33493W        W 5164  24.768   5.770   2.516
33494W        W 5165  32.421  21.023  14.408
33495W        W 5166  19.761  34.850  14.461
33496W        W 5167  36.767  11.725  14.578
33497W        W 5168  21.281  29.954  12.038
33498W        W 5169   3.816  33.083  14.779
33499W        W 5170  10.802  15.684  12.643
33500W        W 5171  11.775   1.551   2.678
33501W        W 5172  35.274  34.574  14.280
33502W        W 5173  17.254  25.669  10.532
33503W        W 5174  39.254   9.224   3.828
33504W        W 5175  12.911  35.116   0.359
33505W        W 5176  19.098  31.342   0.269
33506W        W 5177  43.473  15.124  13.622
33507W        W 5178   4.777  10.417  12.581
33508W        W 5179   2.159  21.572  14.031
33509W        W 5180  35.832  29.444  11.108
33510W        W 5181   0.402   8.651   4.655
33511W        W 5182  35.352  43.644   3.172
33512W        W 5183   9.254   7.544  13.537
33513W        W 5184  28.974  26.090   4.458
33514W        W 5185   5.833  21.939  12.533
33515W        W 5186   7.547  22.277   2.282
33516W        W 5187  17.314  19.040  11.937
33517W        W 5188  33.879   8.831  14.841
33518W        W 5189   3.146   2.424   3.734
33519W        W 5190  18.322  31.907   5.095
33520W        W 5191  23.867   7.653   4.669
33521W        W 5192  28.978   9.759   0.399
33522W        W 5193  33.640   2.162   1.642
33523W        W 5194  20.198  43.778   4.700
33524W        W 5195  25.975  44.887   3.726
33525W        W 5196  18.399  28.523  13.064
33526W        W 5197  43.569  41.263   1.340
33527W        W 5198  19.636  44.823   4.169
33528W        W 5199  15.910   7.467  11.614
33529W        W 5200  24.229  20.861   2.293
33530W        W 5201  18.049  15.636   9.749
33531W        W 5202  41.960   8.723   3.378
33532W        W 5203  24.137  42.247   1.399
33533W        W 5204  43.144  24.058   2.669
33534W        W 5205  25.099  14.314   2.673
33535W        W 5206   2.807  14.989  14.787
33536W        W 5207   4.000  19.134  11.015
33537W        W 5208  29.850  42.876   2.626
33538W        W 5209  33.395  36.183  11.248
33539W        W 5210  27.896  25.888   4.931
33540W        W 5211  20.959  32.992  13.998
33541W        W 5212  31.399  43.202   3.358
33542W        W 5213  18.350  39.865  13.114
33543W        W 5214  13.344   6.133   1.182
33544W        W 5215  40.451  21.818   1.759
33545W        W 5216  27.888  17.976   2.216
33546W        W 5217  21.439   3.496   1.410
33547W        W 5218  38.006  33.917  12.468
33548W        W 5219   7.966  35.352  12.853
33549W        W 5220  21.746  35.090  13.548
33550W        W 5221  38.819  30.494  13.742
33551W        W 5222  22.377  24.883  12.423
33552W        W 5223  30.089   7.460  12.982
33553W        W 5224  31.063  32.107   4.587
33554W        W 5225  31.063  35.592   3.664
33555W        W 5226  22.097   4.200   1.720
33556W        W 5227  20.781  33.178   1.783
33557W        W 5228  41.611  28.125  12.057
33558W        W 5229   8.866   0.441  14.717
33559W        W 5230  33.366  44.804   1.927
33560W        W 5231  13.847   8.842  10.722
33561W        W 5232  27.840  30.021  11.736
33562W        W 5233   2.456   4.358   0.799
33563W        W 5234  14.366   5.728   1.196
33564W        W 5235  19.216  28.654   4.081
33565W        W 5236  27.208  19.170   3.283
33566W        W 5237  21.194  27.655   4.656
33567W        W 5238  26.577   9.867  10.628
33568W        W 5239  30.565  31.978   3.759
33569W        W 5240  13.822  10.606   1.218
33570W        W 5241  32.064  41.064   4.155
33571W        W 5242  35.661   4.868  12.450
33572W        W 5243  20.827  14.757  12.388
33573W        W 5244   1.875   6.007   1.189
33574W        W 5245   4.476  44.668   0.988
33575W        W 5246  33.952  13.682  11.817
33576W        W 5247  24.096  17.815  13.759
33577W        W 5248  15.550  31.411   2.782
33578W        W 5249  15.498  43.874   0.755
33579W        W 5250  44.293  38.774  10.528
33580W        W 5251  17.373   1.474   1.745
33581W        W 5252   3.702   6.941  14.954
33582W        W 5253  36.150  19.731  13.446
33583W        W 5254  18.403  38.768  12.071
33584W        W 5255   2.356  18.730   4.123
33585W        W 5256   6.928  23.203  14.478
33586W        W 5257  34.081  16.291  11.836
33587W        W 5258  16.077  27.764   1.244
33588W        W 5259  18.415   0.828  10.962
33589W        W 5260  27.756  36.118  14.391
33590W        W 5261  13.793  41.578  11.388
33591W        W 5262  28.471  19.577   1.479
33592W        W 5263  41.749  36.981   2.768
33593W        W 5264  13.305   1.292  14.947
33594W        W 5265  11.702  11.111   0.698
33595W        W 5266   6.362  41.270  11.445
33596W        W 5267  44.129  44.782  14.340
33597W        W 5268  37.248  43.315  14.654
33598W        W 5269   1.293  11.279  12.399
33599W        W 5270   7.695  32.780  13.048
33600W        W 5271  30.532   4.705  12.897
33601W        W 5272  42.528   4.820   2.091
33602W        W 5273  44.671  29.077   0.541
33603W        W 5274  17.653  11.166   2.363
33604W        W 5275  27.904  12.610  13.462
33605W        W 5276  20.138  40.054  14.960
33606W        W 5277  16.504  43.980  14.497
33607W        W 5278  19.256  24.780  10.004
33608W        W 5279  24.654  43.400   4.422
33609W        W 5280  13.910  13.678   4.122
33610W        W 5281   5.997  10.291   0.913
33611W        W 5282  43.311  13.856  11.959
33612W        W 5283  12.914  31.018  10.775
33613W        W 5284   4.228   8.283  14.761
33614W        W 5285   3.975  44.957  11.619
33615W        W 5286  27.644   3.559  12.928
33616W        W 5287   0.470  26.059   2.946
33617W        W 5288   5.404  26.572   1.427
33618W        W 5289  15.783  11.392   0.915
33619W        W 5290  11.689  31.485   0.878
33620W        W 5291   1.755  21.851  14.881
33621W        W 5292  30.887   9.110   4.089
33622W        W 5293  39.964  31.766   4.612
33623W        W 5294  27.911   7.346  10.691
33624W        W 5295  27.480   0.781  12.847
33625W        W 5296  44.116  12.093   9.840
33626W        W 5297  12.743   6.669   2.290
33627W        W 5298  18.310  14.747   2.340
33628W        W 5299  37.329  11.582   4.607
33629W        W 5300  15.954   7.311  14.538
33630W        W 5301  24.810  31.215  11.489
33631W        W 5302   7.338  10.399   0.389
33632W        W 5303  34.111   2.492   1.565
33633W        W 5304  15.223   7.595  10.590
33634W        W 5305  34.961  33.133   0.748
33635W        W 5306  38.801  19.201   0.720
33636W        W 5307   1.250  23.480  14.301
33637W        W 5308  15.086   9.102   3.165
33638W        W 5309  42.111   9.308   0.430
33639W        W 5310  25.227  41.626  11.661
33640W        W 5311   1.381  16.156  11.445
33641W        W 5312  32.116  12.820  12.447
33642W        W 5313  12.910   3.375   0.991
33643W        W 5314  41.139  29.652  11.086
33644W        W 5315  22.743  37.328   4.237
33645W        W 5316   1.729  44.019   2.914
33646W        W 5317   1.372  40.332   0.421
33647W        W 5318  10.849  33.119   2.359
33648W        W 5319  21.466  34.389   5.041
33649W        W 5320   9.466  24.103   4.171
33650W        W 5321   1.859   4.905   3.200
33651W        W 5322  41.593  34.442   1.715
33652W        W 5323   4.200  41.635  12.215
33653W        W 5324  21.806  12.810   5.198
33654W        W 5325  23.582  21.572  13.170
33655W        W 5326  43.547  26.101  10.539
33656W        W 5327  35.161  27.755   2.721
33657W        W 5328  21.082  11.824  11.649
33658W        W 5329  27.468  35.467  14.222
33659W        W 5330  13.471  28.148   2.764
33660W        W 5331  15.808  34.630   0.471
33661W        W 5332  20.811  28.115   2.373
33662W        W 5333  27.967  26.084   2.170
33663W        W 5334  35.113  28.135  13.551
33664W        W 5335  44.554  34.259   3.562
33665W        W 5336   6.298  31.634   2.928
33666W        W 5337  32.634   4.283  10.722
33667W        W 5338  44.426  24.293   1.713
33668W        W 5339   4.198  42.595   4.777
33669W        W 5340  14.806   0.303   0.397
33670W        W 5341  10.597  18.592   1.390
33671W        W 5342  39.002  15.584  12.404
33672W        W 5343  36.855  26.452   1.781
33673W        W 5344  33.461  40.431  13.077
33674W        W 5345  35.040  41.440   4.175
33675W        W 5346  24.068  39.086   5.028
33676W        W 5347   5.640  22.698  11.548
33677W        W 5348   5.265   2.738   3.099
33678W        W 5349  18.645  26.992  14.281
33679W        W 5350  14.328  44.233   3.291
33680W        W 5351  21.614  17.760  14.256
33681W        W 5352   4.969  21.920   3.781
33682W        W 5353  37.062   3.960   4.610
33683W        W 5354   2.359  22.125   4.566
33684W        W 5355  42.500  22.488  12.118
33685W        W 5356  30.699  12.116  12.564
33686W        W 5357   3.187  41.849   1.691
33687W        W 5358  39.425   1.656  12.488
33688W        W 5359  21.747   9.138  11.127
33689W        W 5360  30.648   0.011   3.322
33690W        W 5361  31.558  22.001   4.254
33691W        W 5362  30.861  25.785  13.792
33692W        W 5363  28.927  27.626   0.382
33693W        W 5364  40.333   4.380  10.681
33694W        W 5365  38.835  32.111  12.323
33695W        W 5366  24.219  32.085  14.491
33696W        W 5367  33.400  41.337   2.927
33697W        W 5368  16.116   2.428   1.183
33698W        W 5369   0.931  19.250   2.524
33699W        W 5370   2.540   0.979  12.057
33700W        W 5371  35.379  18.656  14.933
33701W        W 5372  36.544  38.138   4.529
33702W        W 5373  25.620   0.955  14.339
33703W        W 5374  25.540   0.969  11.503
33704W        W 5375  14.659  23.179  13.014
33705W        W 5376  13.816  21.153   3.992
33706W        W 5377  16.162   5.281  13.764
33707W        W 5378  34.676   8.865   3.775
33708W        W 5379  44.551   0.785   5.238
33709W        W 5380  35.202  19.752  14.374
33710W        W 5381   6.791  14.110  13.015
33711W        W 5382  37.508  25.200  13.671
33712W        W 5383   9.509  24.912   0.267
33713W        W 5384  29.154  42.388   2.853
33714W        W 5385  27.251  16.781  11.879
33715W        W 5386  30.673  10.829  14.778
33716W        W 5387  36.876  10.808  14.092
33717W        W 5388  35.175  32.191  10.722
33718W        W 5389  36.845  20.343   0.787
33719W        W 5390  19.387   8.346   0.483
33720W        W 5391  19.036  14.668   3.223
33721W        W 5392  41.031   2.949   0.272
33722W        W 5393  23.102  37.481  10.403
33723W        W 5394   3.013  42.426   1.714
33724W        W 5395  35.336  20.628  12.098
33725W        W 5396  35.798  25.107   1.373
33726W        W 5397   5.123  27.951   1.196
33727W        W 5398  29.187   5.891  13.160
33728W        W 5399  42.842  14.030   5.478
33729W        W 5400  22.031  13.195  14.442
33730W        W 5401  15.038  17.281  11.139
33731W        W 5402  31.702  35.573  11.778
33732W        W 5403  30.627  21.127   0.850
33733W        W 5404  22.459  25.562  11.641
33734W        W 5405   9.319  23.487  12.968
33735W        W 5406  42.124  21.540   1.981
33736W        W 5407  42.391  34.299  13.695
33737W        W 5408  23.422  14.265  13.126
33738W        W 5409  33.401   3.467  13.051
33739W        W 5410   7.400  31.958   2.404
33740W        W 5411  42.456   1.498  14.437
33741W        W 5412  25.291   8.106  14.412
33742W        W 5413   7.339  36.093  13.546
33743W        W 5414  38.522  44.686   1.649
33744W        W 5415   0.630  41.980   4.629
33745W        W 5416  11.676  17.920  11.730
33746W        W 5417  44.284  15.661  13.426
33747W        W 5418  18.292  21.163   2.929
33748W        W 5419  29.981  34.341  14.337
33749W        W 5420  28.122  10.178  10.656
33750W        W 5421  19.189  19.773   3.761
33751W        W 5422  40.473  40.749  13.574
33752W        W 5423  10.260  38.528  11.948
33753W        W 5424  25.633  31.360   3.821
33754W        W 5425  36.353   0.493  13.948
33755W        W 5426  44.896  31.230  14.286
33756W        W 5427   9.256  11.198   0.383
33757W        W 5428  21.202  16.588  14.990
33758W        W 5429  39.292  43.291  13.325
33759W        W 5430  42.538  37.010  10.572
33760W        W 5431  13.689  40.790  13.613
33761W        W 5432  35.998  30.976   2.350
33762W        W 5433   0.287  14.837   0.644
33763W        W 5434  44.849  31.691  14.006
33764W        W 5435  29.157   9.940   3.262
33765W        W 5436   6.977   7.399   0.780
33766W        W 5437  30.003   3.628  10.949
33767W        W 5438  20.306  41.321  13.520
33768W        W 5439   9.638   3.138  12.513
33769W        W 5440  14.183   1.335  11.926
33770W        W 5441   3.750  39.887   3.909
33771W        W 5442  40.796  20.700  13.355
33772W        W 5443   5.410  24.476  13.461
33773W        W 5444  17.192   1.195   4.084
33774W        W 5445  37.231  22.190  14.294
33775W        W 5446  23.253  21.889   4.900
33776W        W 5447  30.239   8.207   3.212
33777W        W 5448  42.314  10.633   3.993
33778W        W 5449  23.081   4.290  11.200
33779W        W 5450  31.377  17.149  12.993
33780W        W 5451   1.868  33.306  10.616
33781W        W 5452  30.539  40.139   3.734
33782W        W 5453  32.838  15.670   3.637
33783W        W 5454  23.429  37.332   1.708
33784W        W 5455  15.179  15.675   1.344
33785W        W 5456  31.174  24.597   2.513
33786W        W 5457  31.518   4.426  14.109
33787W        W 5458  30.615   5.439  11.537
33788W        W 5459  42.354  27.975   3.648
33789W        W 5460  38.413  15.556  12.910
33790W        W 5461  32.959  25.741   2.701
33791W        W 5462  28.940   3.547   0.021
33792W        W 5463   1.216   5.178  10.489
33793W        W 5464  41.080  41.040  12.816
33794W        W 5465  37.662  11.778  14.296
33795W        W 5466   5.117   6.217  13.007
33796W        W 5467  42.936  44.853  12.855
33797W        W 5468  20.981  23.243   2.358
33798W        W 5469  19.109   6.231  11.385
33799W        W 5470  20.997  13.442   5.558
33800W        W 5471  37.647  23.418   0.464
33801W        W 5472  27.587  40.245   2.259
33802W        W 5473  17.807  34.364  12.865
33803W        W 5474  32.977   6.333  11.142
33804W        W 5475  35.752   7.454   0.516
33805W        W 5476   3.903   9.851   3.711
33806W        W 5477  13.559   2.530  12.905
33807W        W 5478   6.334   2.847  14.078
33808W        W 5479   5.161  20.750  11.509
33809W        W 5480  12.886  43.529  11.653
33810W        W 5481  24.259   8.510   3.668
33811W        W 5482  36.942  16.099  10.480
33812W        W 5483  41.979  11.689   0.237
33813W        W 5484  37.948  10.656  14.991
33814W        W 5485  22.569  18.498   1.376
33815W        W 5486  24.013   1.277   0.372
33816W        W 5487   5.117  32.980  14.465
33817W        W 5488  19.515   4.214  14.025
33818W        W 5489  33.012  22.161  12.172
33819W        W 5490  17.840  20.171   1.274
33820W        W 5491  19.029  44.572   0.456
33821W        W 5492  38.770  42.001   4.613
33822W        W 5493  24.779  13.234   3.365
33823W        W 5494  23.395   8.373  13.516
33824W        W 5495  35.892   3.805  12.501
33825W        W 5496  39.361  10.159  11.202
33826W        W 5497  29.082  21.346   1.762
33827W        W 5498  11.424   7.881   1.866
33828W        W 5499  12.497  37.608  13.427
33829W        W 5500  33.053  26.994  12.077
33830W        W 5501   9.290  43.825   1.304
33831W        W 5502  20.937  15.114  10.671
33832W        W 5503   9.262  23.237   0.038
33833W        W 5504  42.004  13.609   3.569
33834W        W 5505  44.309   5.279  10.916
33835W        W 5506   4.661  37.788  14.919
33836W        W 5507  11.810  19.076   4.637
33837W        W 5508  14.094  21.117  12.640
33838W        W 5509  43.496  27.940   2.339
33839W        W 5510  24.155  10.812   1.495
33840W        W 5511   4.207  16.983  14.502
33841W        W 5512  17.573  40.475  12.783
33842W        W 5513  28.467  12.974  13.556
33843W        W 5514   1.908  23.890  13.179
33844W        W 5515  20.007  35.934   2.315
33845W        W 5516   3.427  35.536   1.397
33846W        W 5517  12.370  40.853   3.933
33847W        W 5518  32.803  31.660  12.981
33848W        W 5519  30.142  13.146  10.729
33849W        W 5520  35.834  41.818   2.805
33850W        W 5521  35.380  43.599  11.225
33851W        W 5522  20.678  11.126   2.006
33852W        W 5523  19.721  29.376  14.565
33853W        W 5524  15.198  14.385  13.744
33854W        W 5525  38.841   5.913   4.555
33855W        W 5526  16.697   4.013  11.906
33856W        W 5527  25.498  25.520   1.740
33857W        W 5528  31.551   8.967   0.265
33858W        W 5529  25.580  35.761   1.757
33859W        W 5530  43.741  27.161  12.966
33860W        W 5531  43.716   1.419  12.114
33861W        W 5532  10.300  13.749  11.092
33862W        W 5533  25.280  11.310  11.046
33863W        W 5534  36.079   0.058  14.222
33864W        W 5535   7.196  37.367   0.337
33865W        W 5536  13.342  38.048  14.322
33866W        W 5537  20.895  18.280   1.794
33867W        W 5538   7.817  20.243   2.883
33868W        W 5539  11.844  31.502   1.748
33869W        W 5540  12.817  34.050   0.860
33870W        W 5541  24.579  36.125  10.814
33871W        W 5542  26.891  15.929   0.008
33872W        W 5543  30.429  37.993   2.008
33873W        W 5544  30.856   2.514   3.245
33874W        W 5545  29.722  24.671  11.669
33875W        W 5546   5.221  32.689  12.574
33876W        W 5547  12.929   3.375   0.413
33877W        W 5548  32.062  40.934   1.012
33878W        W 5549  35.090  18.367   2.378
33879W        W 5550  40.275  13.828  10.438
33880W        W 5551  21.991  23.359   4.382
33881W        W 5552  35.958  26.268  14.802
33882W        W 5553  17.043  25.478   2.779
33883W        W 5554  34.053  24.591  14.380
33884W        W 5555   6.610  37.459  14.205
33885W        W 5556  43.464  28.018   0.686
33886W        W 5557   4.202  39.360  12.142
33887W        W 5558  39.059  36.186   4.258
33888W        W 5559  22.358  25.618   2.365
33889W        W 5560  14.197  26.410   2.737
33890W        W 5561  44.793  10.385   1.708
33891W        W 5562  23.679  18.288   3.344
33892W        W 5563   5.692  10.870   3.195
33893W        W 5564  43.119  13.579   5.366
33894W        W 5565   9.417  27.608   3.833
33895W        W 5566  30.802  33.667  13.628
33896W        W 5567  32.165   7.690  14.460
33897W        W 5568   0.378   5.178   0.059
33898W        W 5569  16.143  43.768   1.832
33899W        W 5570  15.307  21.645   0.178
33900W        W 5571  43.452  34.499   0.852
33901W        W 5572  18.035  16.612   1.153
33902W        W 5573  23.477  21.099   0.715
33903W        W 5574  28.970  37.357  13.912
33904W        W 5575  36.494  17.208  10.112
33905W        W 5576  26.740  21.279   4.611
33906W        W 5577  17.559  34.321   1.254
33907W        W 5578  22.144  30.456  12.596
33908W        W 5579  18.697  17.805  10.649
33909W        W 5580  25.211  38.377   3.571
33910W        W 5581  29.669   0.890   4.633
33911W        W 5582  22.460  38.830  12.608
33912W        W 5583  36.582  24.186   5.327
33913W        W 5584  20.109  30.365  11.067
33914W        W 5585   4.778   0.817   0.821
33915W        W 5586  15.854  30.658  12.971
33916W        W 5587  42.369  15.308   1.804
33917W        W 5588  25.606   0.030  11.431
33918W        W 5589  15.594   3.814  11.133
33919W        W 5590   0.585  40.517   0.778
33920W        W 5591  22.772   9.773   0.389
33921W        W 5592  44.813  23.508   3.229
33922W        W 5593  13.425  29.517  14.466
33923W        W 5594  34.437  38.425   2.255
33924W        W 5595  11.645   7.178  12.190
33925W        W 5596  44.375  14.542   3.202
33926W        W 5597  25.213  20.752  13.452
33927W        W 5598   5.150  20.151   3.667
33928W        W 5599  22.675  25.623  10.716
33929W        W 5600   4.230   1.483   3.775
33930W        W 5601  17.568  17.326   0.237
33931W        W 5602  14.738   7.675  10.042
33932W        W 5603  20.096  44.293  10.876
33933W        W 5604  32.426   8.794   1.421
33934W        W 5605  41.243  41.487  10.535
33935W        W 5606   7.403  26.065  14.507
33936W        W 5607  37.450   0.274  13.086
33937W        W 5608  15.740  38.518  11.938
33938W        W 5609  22.562  24.076   0.393
33939W        W 5610   8.871  25.524  11.894
33940W        W 5611   2.031  34.940  14.378
33941W        W 5612  12.792  35.299   5.038
33942W        W 5613  25.870  43.270   2.886
33943W        W 5614  28.320   5.135   9.992
33944W        W 5615  18.551  21.643  13.314
33945W        W 5616  36.119   4.665   1.849
33946W        W 5617  19.545   1.996  10.767
33947W        W 5618  33.589  25.653  12.051
33948W        W 5619  23.049   3.452  10.690
33949W        W 5620  41.296   0.924  12.785
33950W        W 5621  27.458   0.442   2.287
33951W        W 5622   9.218  37.671   4.564
33952W        W 5623  27.788  21.055   4.617
33953W        W 5624  35.538  32.371  11.043
33954W        W 5625   0.158   0.669   2.783
33955W        W 5626  25.173  29.196  10.381
33956W        W 5627  38.553  22.525  10.092
33957W        W 5628   3.852  44.468   2.620
33958W        W 5629  31.965  32.688  14.486
33959W        W 5630  19.663   7.322   1.444
33960W        W 5631   0.868  13.287   1.418
33961W        W 5632  36.540   8.358   3.234
33962W        W 5633  27.254  14.382   3.696
33963W        W 5634  31.872  25.370  11.091
33964W        W 5635  10.245  25.634   0.774
33965W        W 5636  26.436  24.262   5.008
33966W        W 5637  42.258  26.473   3.437
33967W        W 5638  41.084  39.515   1.330
33968W        W 5639  36.131  21.113   2.983
33969W        W 5640  15.623  28.233   4.325
33970W        W 5641  14.593  38.619   0.437
33971W        W 5642   1.643  24.958   0.291
33972W        W 5643  32.912  42.763  13.500
33973W        W 5644  33.205   4.364  13.872
33974W        W 5645  17.503  34.361  10.409
33975W        W 5646  35.606  39.848  11.186
33976W        W 5647   3.834  38.498  11.867
33977W        W 5648  20.811  37.149   2.731
33978W        W 5649  10.322  32.782   4.740
33979W        W 5650  42.249  16.311   2.018
33980W        W 5651  26.362  15.641  10.626
33981W        W 5652   2.186  41.388   4.669
33982W        W 5653  39.078  43.381   1.901
33983W        W 5654  19.496  12.131   1.280
33984W        W 5655   3.696  27.420   4.229
33985W        W 5656   2.052  43.906   2.271
33986W        W 5657  28.073  25.390  13.004
33987W        W 5658   2.164  28.049   0.436
33988W        W 5659  29.524   9.389   0.337
33989W        W 5660   7.008  42.306  13.827
33990W        W 5661  33.523  30.900   3.457
33991W        W 5662  25.033   7.814   0.664
33992W        W 5663  23.476  21.330  14.821
33993W        W 5664  20.008  28.593   4.654
33994W        W 5665  16.224  21.894   3.605
33995W        W 5666  21.137  10.374  13.091
33996W        W 5667  39.555  20.759   2.825
33997W        W 5668  23.612   7.728  12.125
33998W        W 5669   6.441   5.655   1.800
33999W        W 5670  18.051   8.137  14.958
34000W        W 5671  38.854  18.174   3.616
34001W        W 5672   8.293  33.014   0.245
34002W        W 5673  26.716  37.020   2.267
34003W        W 5674  13.074  25.599  14.233
34004W        W 5675  29.974  24.575   0.763
34005W        W 5676  28.231  30.051  10.609
34006W        W 5677  32.002  20.686   3.025
34007W        W 5678   4.195  39.038  10.731
34008W        W 5679  31.156  36.490   1.905
34009W        W 5680  16.987   7.706   2.169
34010W        W 5681  18.739   3.020  12.487
34011W        W 5682   5.677  25.038  14.507
34012W        W 5683  19.571  31.044   4.197
34013W        W 5684  39.073   8.852  11.047
34014W        W 5685  36.744  39.521  14.208
34015W        W 5686  22.013  22.670   0.709
34016W        W 5687  30.037  41.844  10.769
34017W        W 5688  17.089  15.775   1.361
34018W        W 5689  18.131  26.416   3.604
34019W        W 5690  28.960   2.240  14.065
34020W        W 5691  34.704  16.256  12.486
34021W        W 5692  38.424  37.808  11.826
34022W        W 5693  15.754  14.451  13.425
34023W        W 5694   6.783  30.128  11.114
34024W        W 5695  42.220  23.792   9.849
34025W        W 5696   9.191  43.192   0.716
34026W        W 5697   1.444   8.318   1.956
34027W        W 5698  19.696   8.536   3.274
34028W        W 5699  32.039  35.188   2.601
34029W        W 5700  17.182  27.496  13.524
34030W        W 5701  31.042  19.500  13.719
34031W        W 5702  34.058   2.848  10.653
34032W        W 5703  35.877  32.679  14.438
34033W        W 5704  37.549  41.485   0.140
34034W        W 5705  26.641  44.550  12.115
34035W        W 5706  41.827  10.471   1.326
34036W        W 5707   8.934  10.852  11.137
34037W        W 5708  14.956  43.271   1.161
34038W        W 5709  44.509   4.288  11.618
34039W        W 5710  38.878  12.195   2.728
34040W        W 5711  42.790  29.060   1.898
34041W        W 5712   1.292  18.585   2.215
34042W        W 5713  36.939  41.222  14.002
34043W        W 5714  11.453  25.728  12.103
34044W        W 5715  11.068  14.824  11.855
34045W        W 5716  34.912  13.901  12.961
34046W        W 5717   2.398  10.094  13.404
34047W        W 5718  22.416   1.399  10.612
34048W        W 5719  20.136  35.422  12.061
34049W        W 5720  10.977   4.062  12.362
34050W        W 5721  14.789  31.681   4.622
34051W        W 5722  21.025  37.745   0.772
34052W        W 5723   2.353  11.480  10.363
34053W        W 5724  36.598   3.416  12.972
34054W        W 5725  30.497  17.067   2.089
34055W        W 5726  39.301  10.327   2.946
34056W        W 5727  15.634  41.747   2.200
34057W        W 5728   1.010   7.908   4.665
34058W        W 5729  14.532  19.545   0.860
34059W        W 5730  20.765  40.900   5.414
34060W        W 5731  14.274  43.549   4.128
34061W        W 5732  29.102  30.560   3.402
34062W        W 5733   2.227  12.205  14.346
34063W        W 5734   4.913  29.275  11.206
34064W        W 5735  35.386  15.061   4.205
34065W        W 5736   8.560  11.909  12.490
34066W        W 5737  10.540  35.019  13.494
34067W        W 5738  20.047  41.333  13.959
34068W        W 5739  34.420  26.568   1.299
34069W        W 5740  14.222   7.278  10.778
34070W        W 5741   9.100  22.780   9.979
34071W        W 5742  34.522   6.841   1.345
34072W        W 5743  11.861  26.953   2.452
34073W        W 5744  40.026   6.483   0.366
34074W        W 5745  26.448  31.524  12.423
34075W        W 5746  30.637  21.578  13.949
34076W        W 5747  24.226  35.420   2.575
34077W        W 5748  39.342  24.677   1.369
34078W        W 5749  18.197  31.908   4.226
34079W        W 5750  19.162  44.719  10.612
34080W        W 5751  28.937   5.188   2.595
34081W        W 5752  38.867  37.482   2.228
34082W        W 5753   3.718   3.781  12.007
34083W        W 5754  36.626  24.505   4.373
34084W        W 5755  28.385  39.357  12.181
34085W        W 5756  10.783  28.819  12.028
34086W        W 5757  27.475   7.214  13.778
34087W        W 5758  18.808  27.420   4.122
34088W        W 5759  14.325   5.849   3.575
34089W        W 5760   0.171  38.959   1.916
34090W        W 5761  14.808  26.310   3.261
34091W        W 5762   9.593  13.574   1.669
34092W        W 5763  17.630  26.113  12.294
34093W        W 5764  11.161  42.995  10.633
34094W        W 5765  41.448  42.940   4.428
34095W        W 5766   2.687  11.204   0.758
34096W        W 5767  43.112  37.044   3.189
34097W        W 5768  37.335  36.019  11.086
34098W        W 5769  27.864  37.630   2.307
34099W        W 5770  23.543  43.606  14.818
34100W        W 5771  32.181  41.931   5.096
34101W        W 5772  21.292  38.601  13.001
34102W        W 5773   9.081  11.135   0.873
34103W        W 5774  20.729  10.711  11.180
34104W        W 5775   8.457  36.337   2.467
34105W        W 5776  11.133  20.261  13.007
34106W        W 5777  36.495  12.652  14.888
34107W        W 5778  12.411  20.226   1.264
34108W        W 5779   1.640  21.001  10.608
34109W        W 5780  35.894  16.241   3.816
34110W        W 5781   6.281  39.955  14.885
34111W        W 5782  25.691   2.136  12.406
34112W        W 5783  26.237  41.278  11.603
34113W        W 5784  35.798  42.876  11.548
34114W        W 5785  21.296   7.264   1.574
34115W        W 5786  26.461   9.969   4.189
34116W        W 5787  39.088   9.804  14.824
34117W        W 5788  31.913  14.302   2.263
34118W        W 5789  16.249  26.893  10.824
34119W        W 5790  37.940  38.434   0.341
34120W        W 5791   4.039  11.307   0.422
34121W        W 5792   7.666  13.258  11.379
34122W        W 5793  28.937  28.091   3.563
34123W        W 5794   9.148   2.923  12.410
34124W        W 5795   5.792   1.596   4.281
34125W        W 5796  25.758   5.787   2.477
34126W        W 5797   9.836  31.978  14.954
34127W        W 5798  17.981   2.386   1.498
34128W        W 5799  25.748  34.397   4.562
34129W        W 5800  14.196   1.527  12.404
34130W        W 5801   7.872   0.748  14.634
34131W        W 5802  19.609  32.943  13.835
34132W        W 5803   3.318  23.619  10.769
34133W        W 5804   1.370  43.721  11.126
34134W        W 5805   8.301  31.873  10.941
34135W        W 5806  28.899   9.698   3.725
34136W        W 5807  12.607  35.615   3.117
34137W        W 5808  29.652  11.294  11.130
34138W        W 5809  42.079  43.725   3.593
34139W        W 5810  42.123  19.861   2.166
34140W        W 5811  30.510  19.636  12.160
34141W        W 5812  26.669  44.096   4.331
34142W        W 5813  21.514  40.524  12.376
34143W        W 5814  42.353  44.686  11.494
34144W        W 5815  30.099  28.403  12.336
34145W        W 5816  15.950  14.455  14.446
34146W        W 5817  20.832  36.336  11.539
34147W        W 5818  41.857   2.311   0.420
34148W        W 5819  29.177  36.018  11.669
34149W        W 5820  14.102  44.414  10.613
34150W        W 5821  17.827  28.102  14.678
34151W        W 5822  34.835  41.227  12.044
34152W        W 5823  40.828  43.765   0.710
34153W        W 5824  29.915  40.710  13.184
34154W        W 5825  16.833   1.339  14.832
34155W        W 5826  16.701  12.876  11.610
34156W        W 5827   3.699  30.151   0.684
34157W        W 5828  20.995  14.306  10.117
34158W        W 5829  32.481   0.966   2.033
34159W        W 5830   8.649  27.326  13.193
34160W        W 5831   0.396  19.458   1.121
34161W        W 5832  43.115   0.841  10.834
34162W        W 5833  20.056  40.191  14.440
34163W        W 5834  38.889  22.842   2.401
34164W        W 5835  43.845   3.786  13.843
34165W        W 5836  11.586   5.824  12.020
34166W        W 5837   6.212  14.427  11.962
34167W        W 5838  23.297   1.334   4.146
34168W        W 5839  11.526  44.449   0.366
34169W        W 5840  24.590  34.119   0.309
34170W        W 5841   7.272  14.455  14.094
34171W        W 5842  31.090  38.151  10.748
34172W        W 5843  41.093   1.182  14.490
34173W        W 5844  12.152  19.992   2.870
34174W        W 5845  14.800  43.244   1.638
34175W        W 5846  30.493  36.338  12.853
34176W        W 5847  40.832  17.278   4.112
34177W        W 5848   7.827   3.153   9.536
34178W        W 5849  40.953  44.544   3.779
34179W        W 5850  35.891  18.179   2.771
34180W        W 5851  22.207   8.996  14.540
34181W        W 5852  31.629  12.086  12.693
34182W        W 5853  12.185  16.279   3.368
34183W        W 5854  11.418  34.886  13.236
34184W        W 5855  23.664  31.891  11.155
34185W        W 5856  21.593  10.649  14.476
34186W        W 5857  20.745   6.166  13.393
34187W        W 5858   5.652  19.086   4.876
34188W        W 5859  36.002  31.356   4.755
34189W        W 5860  42.246   8.335   1.164
34190W        W 5861  34.299   5.788  11.894
34191W        W 5862  37.607  26.552   3.752
34192W        W 5863  14.303   7.017  12.350
34193W        W 5864   4.383  21.104   4.379
34194W        W 5865  34.539  12.457   1.040
34195W        W 5866  31.485   3.371  14.882
34196W        W 5867  14.190  29.585  13.895
34197W        W 5868  15.209  27.002   4.364
34198W        W 5869  39.837  38.594  11.505
34199W        W 5870   8.674  18.081   4.729
34200W        W 5871  36.596  40.649  12.086
34201W        W 5872  13.856  24.542   0.568
34202W        W 5873  10.060  12.367  12.432
34203W        W 5874  43.005  24.853  12.647
34204W        W 5875   0.305  39.717  12.831
34205W        W 5876  20.312  34.327   3.384
34206W        W 5877   2.181  36.861   1.824
34207W        W 5878   7.827  28.256  12.300
34208W        W 5879  30.389  22.580   3.122
34209W        W 5880  42.760  11.601   2.165
34210W        W 5881  22.194  22.668  10.594
34211W        W 5882  10.229  16.727   2.264
34212W        W 5883  20.759  17.177   2.953
34213W        W 5884  29.408   3.409  14.852
34214W        W 5885  34.863  12.654  11.047
34215W        W 5886  13.295  38.881  12.668
34216W        W 5887  15.243  16.547  12.009
34217W        W 5888  39.874  21.376   1.406
34218W        W 5889   4.346  15.733   0.867
34219W        W 5890  33.112  24.159  10.382
34220W        W 5891  18.379  10.553   0.595
34221W        W 5892   5.820  15.724  12.682
34222W        W 5893  38.983  23.311  13.673
34223W        W 5894  13.683  24.241   1.829
34224W        W 5895  12.874  22.528  13.594
34225W        W 5896  24.830  24.677   1.750
34226W        W 5897  30.523  34.150   0.884
34227W        W 5898  41.640  25.742   0.015
34228W        W 5899  11.160  22.582   4.595
34229W        W 5900  22.036  12.240   4.641
34230W        W 5901  26.443  19.498   4.759
34231W        W 5902  33.915   8.042   0.340
34232W        W 5903  31.449  31.870   2.157
34233W        W 5904  10.258  38.855  13.429
34234W        W 5905  31.445   3.205  12.908
34235W        W 5906  23.185   9.838  14.569
34236W        W 5907  26.213  39.386  11.775
34237W        W 5908  43.396  37.834   1.859
34238W        W 5909  37.385  39.703  10.147
34239W        W 5910  24.319  21.065   5.084
34240W        W 5911  38.843   6.922  12.139
34241W        W 5912  34.362  12.073  11.515
34242W        W 5913  42.590  14.391   3.300
34243W        W 5914  21.793  36.536  11.954
34244W        W 5915   8.874  18.089   0.938
34245W        W 5916  27.948  20.573   4.689
34246W        W 5917  30.673  37.389   1.029
34247W        W 5918  28.606  12.337   0.618
34248W        W 5919   3.885   6.501   3.729
34249W        W 5920   6.266  39.583  14.515
34250W        W 5921  40.933  10.128  11.571
34251W        W 5922  44.712  19.920  12.959
34252W        W 5923   6.597  26.492  14.593
34253W        W 5924   0.044   3.750  12.093
34254W        W 5925  12.331  37.654  12.905
34255W        W 5926  26.034  35.969  10.978
34256W        W 5927   9.602  27.102   0.771
34257W        W 5928  19.049  20.747  12.622
34258W        W 5929  25.340  24.629   1.697
34259W        W 5930   3.082  11.222  10.723
34260W        W 5931  20.100  21.033  12.046
34261W        W 5932  19.487  23.941  11.997
34262W        W 5933  31.534   7.022   0.811
34263W        W 5934  40.552   8.643   3.426
34264W        W 5935  37.644   2.265   2.728
34265W        W 5936   5.720   8.205  14.888
34266W        W 5937  43.954  41.598  10.931
34267W        W 5938  25.805  28.906  11.133
34268W        W 5939   0.380  15.377  10.605
34269W        W 5940  23.579  30.621  14.921
34270W        W 5941  31.907  27.728   1.375
34271W        W 5942  25.981   3.502  12.116
34272W        W 5943  31.942  30.338   2.703
34273W        W 5944  23.927  19.584   3.085
34274W        W 5945  32.014   3.825   2.440
34275W        W 5946   7.287  35.192   4.372
34276W        W 5947  39.899  42.745   2.847
34277W        W 5948  23.835  44.916   0.921
34278W        W 5949  37.418  30.691  14.916
34279W        W 5950   8.422   7.245   4.418
34280W        W 5951   5.233  40.057   4.604
34281W        W 5952  29.334  23.239   2.595
34282W        W 5953  16.211   6.915   4.319
34283W        W 5954  27.813  27.884  13.567
34284W        W 5955   9.285  24.026   4.661
34285W        W 5956   0.428  36.911  13.416
34286W        W 5957  15.314  27.005   3.865
34287W        W 5958  13.345  18.241   0.554
34288W        W 5959  34.597  12.303  12.494
34289W        W 5960  10.753  39.044  10.763
34290W        W 5961   8.634  15.853  14.151
34291W        W 5962  24.416  36.830   3.610
34292W        W 5963  30.988  21.537  13.549
34293W        W 5964   0.347  26.933  13.535
34294W        W 5965  41.545  13.738   2.720
34295W        W 5966  25.544   0.001   2.243
34296W        W 5967  12.733  27.205  12.028
34297W        W 5968   6.757  34.601   0.201
34298W        W 5969  41.849  25.155   0.002
34299W        W 5970  17.796  19.220  11.924
34300W        W 5971   2.216   1.385  12.513
34301W        W 5972   1.211  41.513  11.003
34302W        W 5973  40.560  40.959   4.556
34303W        W 5974  20.756  19.286   3.872
34304W        W 5975   9.848  43.825   0.913
34305W        W 5976  35.069  37.276   2.211
34306W        W 5977  21.215   7.860   3.768
34307W        W 5978   1.823   3.192  11.172
34308W        W 5979  31.124  14.361  11.177
34309W        W 5980  28.623  11.906  14.813
34310W        W 5981   6.647  17.672   1.173
34311W        W 5982  38.816  19.659   1.796
34312W        W 5983  41.563  17.533   1.323
34313W        W 5984   5.753  31.310  12.437
34314W        W 5985  27.370  34.104   3.310
34315W        W 5986   6.416  33.397  14.492
34316W        W 5987   2.799  32.798  14.863
34317W        W 5988  21.611  19.772  12.613
34318W        W 5989  33.636   0.461  11.620
34319W        W 5990  16.791  33.695   2.258
34320W        W 5991   6.006   1.686  12.045
34321W        W 5992  36.802  12.878   3.278
34322W        W 5993  27.417  18.513   1.807
34323W        W 5994  33.660   8.963  14.372
34324W        W 5995  23.691   4.899  14.243
34325W        W 5996  39.522  30.384  14.325
34326W        W 5997  15.375  25.973   1.308
34327W        W 5998  28.529  33.501  12.503
34328W        W 5999  44.590  15.230  11.336
34329W        W 6000   4.944  16.770   2.390
34330W        W 6001  23.723  41.827  10.758
34331W        W 6002  26.077  44.478  14.481
34332W        W 6003  11.259  34.986   4.179
34333W        W 6004  27.547   2.786  12.788
34334W        W 6005  22.529  31.376  14.105
34335W        W 6006   1.302  34.146  12.879
34336W        W 6007   8.128   4.976   2.236
34337W        W 6008  26.017  23.050  12.447
34338W        W 6009  42.437  42.342   4.368
34339W        W 6010  24.529  14.153   1.413
34340W        W 6011   3.706  29.075  11.913
34341W        W 6012  35.537  38.431  12.603
34342W        W 6013  27.964  21.050  11.630
34343W        W 6014  27.951  42.320   0.280
34344W        W 6015  21.602  18.992   3.776
34345W        W 6016  43.284  29.047   3.770
34346W        W 6017  36.414  14.713   3.061
34347W        W 6018   9.838  32.449  12.874
34348W        W 6019  21.976  22.909   2.709
34349W        W 6020  18.813  37.356   2.686
34350W        W 6021   4.977  23.617   1.387
34351W        W 6022  14.285  36.061  10.508
34352W        W 6023  40.086  18.476  14.746
34353W        W 6024  41.926  38.764   4.113
34354W        W 6025  29.577   6.743   3.186
34355W        W 6026  25.959   5.311   2.328
34356W        W 6027  22.603   7.161   1.377
34357W        W 6028   9.840  37.388  11.490
34358W        W 6029  19.440  24.024  10.320
34359W        W 6030  27.808  18.097  13.955
34360W        W 6031  33.601  19.646   4.369
34361W        W 6032  18.037  40.101  14.420
34362W        W 6033  10.847  37.768  14.268
34363W        W 6034   0.389  14.893   4.734
34364W        W 6035  30.222  16.632  13.924
34365W        W 6036  21.107  10.317   1.994
34366W        W 6037   2.316   5.826  11.802
34367W        W 6038   3.743  28.711  10.859
34368W        W 6039  26.074  41.863   3.647
34369W        W 6040  23.418  27.215  14.406
34370W        W 6041  11.864  40.129  10.640
34371W        W 6042  13.795  15.075  12.447
34372W        W 6043  14.219   6.843   1.961
34373W        W 6044  15.890  26.533   4.794
34374W        W 6045  15.143  44.252  12.486
34375W        W 6046   6.535   3.406   2.247
34376W        W 6047  21.139  28.727   0.875
34377W        W 6048   3.308  27.673   1.572
34378W        W 6049  11.327  31.529   2.620
34379W        W 6050  21.148   4.933   1.463
34380W        W 6051   0.845  17.678   0.947
34381W        W 6052  44.885   6.045  14.191
34382W        W 6053  17.657   7.806   3.444
34383W        W 6054  27.903  31.608  12.447
34384W        W 6055  23.747  31.822   0.383
34385W        W 6056  30.460  31.586   3.141
34386W        W 6057   5.368  40.628   1.917
34387W        W 6058  40.007  34.113  11.089
34388W        W 6059  32.978   0.926   0.176
34389W        W 6060   2.923  18.458  10.744
34390W        W 6061  37.419  31.405   2.836
34391W        W 6062  43.188  25.118   1.826
34392W        W 6063  42.494  20.632   4.758
34393W        W 6064   6.762  39.576  14.415
34394W        W 6065  44.260  33.844   3.667
34395W        W 6066  38.308  27.564   4.606
34396W        W 6067  39.973  14.730  10.402
34397W        W 6068  31.847   5.361  13.375
34398W        W 6069  36.387  28.581  12.487
34399W        W 6070  18.201   6.658   3.030
34400W        W 6071  23.187  23.675   3.672
34401W        W 6072  44.713   2.866   0.520
34402W        W 6073  20.398  41.081   3.127
34403W        W 6074  33.456   7.204   3.316
34404W        W 6075   2.896  13.170   2.857
34405W        W 6076   7.270  43.414  14.934
34406W        W 6077  26.473   5.931   3.758
34407W        W 6078  37.998  38.513   1.743
34408W        W 6079  23.770   5.460  12.026
34409W        W 6080  42.060  24.197   0.228
34410W        W 6081  16.684  10.682  12.514
34411W        W 6082  16.734  38.616  12.501
34412W        W 6083  29.991  17.154  14.834
34413W        W 6084  17.314  42.034  12.588
34414W        W 6085  37.256   5.473   1.865
34415W        W 6086  40.875  38.316  14.279
34416W        W 6087  37.573  43.657  14.412
34417W        W 6088   0.244  24.934  12.003
34418W        W 6089   5.302  17.522   1.869
34419W        W 6090  10.835  23.685   4.163
34420W        W 6091  16.192  18.926   2.071
34421W        W 6092  33.093  40.860  13.605
34422W        W 6093  12.931  13.831  10.515
34423W        W 6094  12.657  32.521  12.962
34424W        W 6095   7.828  32.954   4.316
34425W        W 6096   3.364   1.943  14.995
34426W        W 6097   6.322  17.502   3.242
34427W        W 6098  24.450  11.736  11.653
34428W        W 6099  32.073  44.637  13.500
34429W        W 6100  15.727  27.905  13.002
34430W        W 6101  15.821  18.217  12.345
34431W        W 6102  33.449  21.510  10.692
34432W        W 6103  27.567  37.330   3.240
34433W        W 6104  43.952  25.029  11.173
34434W        W 6105  33.697   3.830  12.197
34435W        W 6106   8.667  10.803   2.218
34436W        W 6107  40.852  31.934  14.380
34437W        W 6108  13.754  23.732   1.768
34438W        W 6109  24.135  21.726  10.461
34439W        W 6110   7.356  18.295   2.488
34440W        W 6111   2.385  30.123   1.667
34441W        W 6112  24.254  19.056  10.591
34442W        W 6113  10.679  17.480   4.355
34443W        W 6114  40.234  17.849  11.453
34444W        W 6115  23.157   3.557   2.078
34445W        W 6116   6.431  16.748  14.855
34446W        W 6117  23.741   5.234   1.839
34447W        W 6118   3.387  17.345  11.684
34448W        W 6119  23.557  42.167  14.475
34449W        W 6120  42.969   8.316  13.857
34450W        W 6121  44.860  15.037  11.970
34451W        W 6122  21.613  42.051   1.501
34452W        W 6123  30.476  40.865   2.193
34453W        W 6124  25.815  44.703  11.116
34454W        W 6125  23.182   5.268   4.562
34455W        W 6126  31.183   8.121  13.661
34456W        W 6127  24.598  28.185   3.918
34457W        W 6128  25.427  43.394  14.612
34458W        W 6129  28.133   0.668  13.326
34459W        W 6130  14.433   8.921   3.196
34460W        W 6131  28.632  15.737  13.640
34461W        W 6132  30.657  23.022   4.454
34462W        W 6133  35.137   2.463  13.084
34463W        W 6134  41.421  36.301  13.820
34464W        W 6135   7.578  15.126  11.055
34465W        W 6136  33.074  40.606  11.983
34466W        W 6137  13.224  13.575   1.284
34467W        W 6138  31.438  12.442  14.411
34468W        W 6139   7.879   8.958   9.973
34469W        W 6140   4.447  10.611  12.956
34470W        W 6141  12.666  20.378   2.623
34471W        W 6142   5.462   1.398   0.918
34472W        W 6143  35.604  14.233  11.688
34473W        W 6144  36.065   9.376   1.261
34474W        W 6145  42.351   0.249   3.850
34475W        W 6146  32.995   8.416   3.807
34476W        W 6147  36.523  25.163  13.704
34477W        W 6148  13.082  37.041   3.611
34478W        W 6149  12.120   4.464  13.738
34479W        W 6150  17.823  15.362   0.691
34480W        W 6151   7.576  19.172  11.605
34481W        W 6152  16.692  44.022  12.448
34482W        W 6153  23.074   0.848   2.306
34483W        W 6154  17.603  40.107  10.695
34484W        W 6155  17.209  41.308  10.175
34485W        W 6156  37.946  43.106  12.748
34486W        W 6157  38.951  17.601   2.927
34487W        W 6158  30.725  34.809  12.976
34488W        W 6159   5.905  18.253  13.658
34489W        W 6160  42.750  25.169   0.322
34490W        W 6161  31.706  16.707   1.263
34491W        W 6162  10.340  30.989  14.986
34492W        W 6163  11.998   6.176  14.923
34493W        W 6164  44.701   4.303  14.876
34494W        W 6165  41.631  20.487   3.661
34495W        W 6166  35.396  18.607   3.762
34496W        W 6167   8.820  26.633  13.947
34497W        W 6168  22.991  29.428  11.997
34498W        W 6169  42.518  29.026   3.097
34499W        W 6170   9.288   1.369  14.519
34500W        W 6171  34.338  18.577   2.466
34501W        W 6172  42.405  18.761   4.908
34502W        W 6173  29.036  14.510  11.087
34503W        W 6174  41.417  17.609   3.105
34504W        W 6175   5.439  41.456   0.894
34505W        W 6176  13.348  22.617  14.361
34506W        W 6177  23.008  20.484  14.399
34507W        W 6178  24.624  16.743  12.859
34508W        W 6179  38.423  43.010  11.948
34509W        W 6180   1.382  22.852  11.781
34510W        W 6181  21.098   0.509   5.204
34511W        W 6182  26.696  27.625  14.368
34512W        W 6183  11.621   5.348   2.256
34513W        W 6184  44.499  30.470  10.502
34514W        W 6185   5.390  13.230   3.370
34515W        W 6186   8.804  10.057  12.809
34516W        W 6187  12.230  15.620  14.254
34517W        W 6188  40.534   1.307   0.761
34518W        W 6189  39.783  39.971   0.913
34519W        W 6190   5.772  44.453  13.902
34520W        W 6191   6.619  11.580  13.622
34521W        W 6192  15.145  31.490   0.286
34522W        W 6193  14.307  19.545  12.549
34523W        W 6194  18.212  26.047  14.429
34524W        W 6195  31.023  14.137   2.748
34525W        W 6196  24.675  42.086   0.455
34526W        W 6197  39.438  22.827  12.334
34527W        W 6198   4.143  22.696  12.796
34528W        W 6199  40.278  36.577  13.828
34529W        W 6200  14.193  39.958   1.595
34530W        W 6201  15.604  20.018   3.289
34531W        W 6202   0.775  27.630  14.046
34532W        W 6203   6.628  35.126  15.000
34533W        W 6204  23.596  36.409   0.680
34534W        W 6205  10.749  35.443   4.361
34535W        W 6206  20.201  11.539  12.130
34536W        W 6207  40.960  13.750   0.137
34537W        W 6208  28.622  19.544   0.479
34538W        W 6209  15.471  21.204   3.771
34539W        W 6210  11.422  41.769  11.482
34540W        W 6211  18.797  24.799  10.227
34541W        W 6212  29.400  26.180  12.948
34542W        W 6213  16.212  40.111   0.804
34543W        W 6214  18.631  22.525   0.010
34544W        W 6215  26.258  13.463  13.945
34545W        W 6216   8.152  12.725   0.939
34546W        W 6217   4.688  18.123  13.244
34547W        W 6218   1.692  42.774  13.466
34548W        W 6219  13.101  38.003  14.798
34549W        W 6220  19.055  39.992  10.645
34550W        W 6221   7.816  31.955  14.089
34551W        W 6222  41.211  17.735  12.370
34552W        W 6223  40.302  29.129   3.874
34553W        W 6224  44.638   1.308  13.821
34554W        W 6225  32.269  17.525   4.225
34555W        W 6226  11.213  26.862   0.167
34556W        W 6227   0.323  20.498   0.202
34557W        W 6228  17.311  43.430  14.680
34558W        W 6229  10.153  43.961   5.041
34559W        W 6230  31.455  13.613   1.514
34560W        W 6231  15.655  43.536  12.102
34561W        W 6232  43.380  11.178  10.429
34562W        W 6233  29.600  21.968  12.418
34563W        W 6234  28.387  38.354   1.776
34564W        W 6235  15.610   7.875   2.940
34565W        W 6236  44.954  29.414  14.701
34566W        W 6237  28.944  27.041   1.322
34567W        W 6238  12.323  30.649  14.692
34568W        W 6239  44.065   1.899   3.579
34569W        W 6240   4.383  35.760   2.840
34570W        W 6241  20.753  17.044   1.207
34571W        W 6242  35.335  44.413  11.678
34572W        W 6243  39.049   4.437  11.964
34573W        W 6244  36.635  31.895   0.852
34574W        W 6245  19.480  44.696   1.316
34575W        W 6246  29.624  18.628   2.329
34576W        W 6247   0.199  23.026  12.079
34577W        W 6248  21.076  42.012  11.136
34578W        W 6249   2.565  28.871  13.905
34579W        W 6250  12.824  13.746   0.984
34580W        W 6251   5.606  24.113   4.251
34581W        W 6252  44.049  10.897   2.467
34582W        W 6253  29.437  26.309   0.448
34583W        W 6254  20.515  31.022   4.632
34584W        W 6255  19.114  27.405  13.426
34585W        W 6256  24.057   4.868   4.166
34586W        W 6257   8.346  34.839  11.992
34587W        W 6258  23.180  18.086   3.327
34588W        W 6259  42.383  26.361   0.804
34589W        W 6260  31.458   7.034  13.379
34590W        W 6261   5.113   0.485   2.832
34591W        W 6262  22.445  37.168   1.901
34592W        W 6263  26.648  31.128  13.814
34593W        W 6264   1.320  39.769   1.940
34594W        W 6265  39.950  43.844  14.499
34595W        W 6266  23.137   6.182  13.920
34596W        W 6267  28.703   0.955  14.536
34597W        W 6268  24.097  22.538  13.468
34598W        W 6269  17.765  34.169  13.536
34599W        W 6270   6.294  34.498   1.453
34600W        W 6271  33.387  32.942   3.753
34601W        W 6272   9.676   4.440   1.315
34602W        W 6273  23.972  37.182  14.885
34603W        W 6274  37.959  17.762   3.553
34604W        W 6275  32.589   3.359  14.556
34605W        W 6276  15.170   5.640  13.519
34606W        W 6277  19.017  30.703  10.669
34607W        W 6278   0.319  28.750   3.744
34608W        W 6279  29.990  17.170  13.094
34609W        W 6280  29.084  35.372   2.295
34610W        W 6281  30.545  29.050  11.649
34611W        W 6282  40.343   7.160  14.906
34612W        W 6283  24.094  35.587  12.113
34613W        W 6284  20.255  18.540  11.918
34614W        W 6285  30.182  37.577   3.282
34615W        W 6286  25.640   6.169  10.977
34616W        W 6287  11.223  38.614  13.164
34617W        W 6288  20.641  35.075   0.255
34618W        W 6289   8.289  13.061  14.464
34619W        W 6290  39.508  26.237   4.542
34620W        W 6291  18.232  43.228  11.153
34621W        W 6292  40.119  20.564  10.650
34622W        W 6293  27.290  30.407  12.498
34623W        W 6294  16.166  39.372   4.887
34624W        W 6295  37.056  13.103   1.325
34625W        W 6296  38.390  17.674  14.856
34626W        W 6297   6.238  20.236   4.254
34627W        W 6298  40.777   7.693   0.775
34628W        W 6299  33.343  24.240   3.757
34629W        W 6300  43.757   5.176  14.439
34630W        W 6301  32.617  31.637  14.008
34631W        W 6302  17.624  24.440   1.273
34632W        W 6303  35.494  41.343  10.620
34633W        W 6304  20.728  24.373  14.478
34634W        W 6305  40.134  22.095   0.889
34635W        W 6306  34.769  31.225  13.468
34636W        W 6307  10.174  36.339   1.121
34637W        W 6308  30.834  17.363   4.127
34638W        W 6309  16.728  30.020  11.702
34639W        W 6310  25.623  31.750   5.071
34640W        W 6311  28.348   3.336   1.317
34641W        W 6312   8.803  23.562   2.247
34642W        W 6313  26.233   8.170  11.355
34643W        W 6314  18.728  40.263   3.280
34644W        W 6315   9.908  44.313  11.448
34645W        W 6316  15.778  16.877  13.444
34646W        W 6317  23.906   2.243   0.799
34647W        W 6318  35.990  38.968   2.679
34648W        W 6319   2.513  37.975  13.451
34649W        W 6320   9.201  35.144   0.642
34650W        W 6321  19.781  43.858   5.041
34651W        W 6322   0.912  39.560   0.345
34652W        W 6323  31.989  28.599   2.339
34653W        W 6324  17.491  12.239   2.344
34654W        W 6325  44.566  20.533  11.458
34655W        W 6326  17.858  11.218   1.904
34656W        W 6327   5.760  28.123  12.661
34657W        W 6328  36.768   0.344  11.664
34658W        W 6329  21.116  11.134   1.664
34659W        W 6330   8.380  14.090  11.513
34660W        W 6331  28.563  19.781  10.535
34661W        W 6332   7.693  18.535  12.611
34662W        W 6333   4.448  39.910  11.080
34663W        W 6334  40.414  32.886  10.731
34664W        W 6335  31.200   8.950   5.219
34665W        W 6336  10.566  27.054  12.118
34666W        W 6337  13.803  36.935  13.241
34667W        W 6338  28.074  38.641   3.203
34668W        W 6339  24.009  27.238  13.090
34669W        W 6340  29.998   1.403  11.394
34670W        W 6341  16.959  18.786  13.179
34671W        W 6342  17.333  22.682   4.549
34672W        W 6343  30.296  20.317   3.776
34673W        W 6344   6.304   6.909  12.858
34674W        W 6345  44.975  12.412   2.475
34675W        W 6346  40.876  35.080   1.765
34676W        W 6347  26.224  36.546  12.380
34677W        W 6348  13.217  44.916  10.547
34678W        W 6349  42.975   4.797   3.348
34679W        W 6350  20.785  20.259   0.398
34680W        W 6351  44.365  41.709   5.277
34681W        W 6352   4.304  37.755  14.058
34682W        W 6353  37.075  20.551   0.359
34683W        W 6354  40.858   1.443   2.277
34684W        W 6355  14.121  37.030  13.997
34685W        W 6356  11.628  41.969   3.991
34686W        W 6357  20.535  25.384  14.705
34687W        W 6358  10.775  40.479  10.651
34688W        W 6359   1.275  34.933  12.141
34689W        W 6360  23.217   6.335  12.814
34690W        W 6361  41.608  11.397   2.423
34691W        W 6362  32.462  42.208   1.854
34692W        W 6363  35.317  39.523  11.523
34693W        W 6364  38.322  43.257   3.265
34694W        W 6365  15.521   7.588  14.452
34695W        W 6366   9.334  25.267   4.059
34696W        W 6367  35.034  26.206   1.742
34697W        W 6368  18.552  37.393   4.139
34698W        W 6369  14.158  35.995  12.480
34699W        W 6370  37.271  22.163  13.350
34700W        W 6371  40.044  13.891   0.010
34701W        W 6372  18.603   5.907  13.897
34702W        W 6373   3.538  16.708  12.937
34703W        W 6374  17.587  24.717   3.476
34704W        W 6375  44.897   0.254   2.607
34705W        W 6376  43.202  25.785   1.175
34706W        W 6377  13.243  32.554   0.058
34707W        W 6378  26.101  23.992  10.634
34708W        W 6379  27.643  12.142  11.741
34709W        W 6380  23.195  29.001  12.943
34710W        W 6381   8.819   7.831  13.550
34711W        W 6382  44.890  14.095  14.099
34712W        W 6383  31.518   0.711   4.084
34713W        W 6384   2.588  19.966  13.490
34714W        W 6385  28.237  11.632   1.356
34715W        W 6386  12.524  41.907  12.884
34716W        W 6387  40.316  28.988   9.940
34717W        W 6388  32.880   9.738  13.024
34718W        W 6389  23.698  11.500  12.073
34719W        W 6390  18.524  44.944   0.329
34720W        W 6391  14.333  27.036  13.392
34721W        W 6392  17.083  32.896   0.347
34722W        W 6393   9.423  42.768  13.832
34723W        W 6394  43.307   8.390   3.347
34724W        W 6395  32.052  33.620   0.012
34725W        W 6396  23.450   3.793   4.132
34726W        W 6397   8.682  38.062  13.806
34727W        W 6398   5.728  36.391  13.067
34728W        W 6399   1.983   9.176  14.483
34729W        W 6400  16.247  38.324   4.599
34730W        W 6401  15.227  16.815   4.467
34731W        W 6402   7.103   9.750   2.006
34732W        W 6403   0.714  29.907  10.966
34733W        W 6404  26.992   0.718   1.324
34734W        W 6405  15.567  44.508   2.853
34735W        W 6406   4.746  37.977  13.900
34736W        W 6407  41.778   3.939  12.804
34737W        W 6408  34.461  20.269   2.019
34738W        W 6409   8.172   4.402  11.890
34739W        W 6410  11.905   3.409  13.031
34740W        W 6411   7.441  32.098   3.734
34741W        W 6412  22.539  42.996  14.062
34742W        W 6413  25.902   7.418   2.854
34743W        W 6414  33.867   8.617   4.985
34744W        W 6415  29.461  37.863   3.742
34745W        W 6416  21.566  13.380   2.486
34746W        W 6417  25.132  42.567  13.383
34747W        W 6418  27.857  15.775  13.419
34748W        W 6419   4.267  21.561   3.451
34749W        W 6420  29.159  42.424   2.328
34750W        W 6421  30.148  40.985   1.096
34751W        W 6422  42.304  34.031  12.497
34752W        W 6423   8.247  39.113   3.109
34753W        W 6424  20.611  11.138   1.513
34754W        W 6425   6.752  10.626  12.597
34755W        W 6426  19.777   2.964  12.551
34756W        W 6427  16.317   6.434  14.513
34757W        W 6428  10.915  19.517  12.559
34758W        W 6429  11.677   5.403  14.369
34759W        W 6430   0.785   7.284  12.083
34760W        W 6431  31.844   1.824  14.040
34761W        W 6432  32.655  39.997   1.924
34762W        W 6433  39.949  23.131   5.048
34763W        W 6434  22.987  23.081  13.874
34764W        W 6435  44.793  25.024   2.336
34765W        W 6436  10.724  17.103   2.742
34766W        W 6437  26.462  37.489  11.018
34767W        W 6438   0.912  44.354   1.700
34768W        W 6439   3.731  31.497   4.727
34769W        W 6440  37.977  13.913   4.345
34770W        W 6441  31.446   1.230   1.727
34771W        W 6442  33.145  23.595   3.146
34772W        W 6443  34.901  38.891   0.970
34773W        W 6444   5.441  34.833  11.518
34774W        W 6445  41.842  12.395   4.462
34775W        W 6446   2.787  38.743   3.965
34776W        W 6447   7.947  26.453   4.108
34777W        W 6448  36.140  19.498   2.872
34778W        W 6449  12.939  30.387   0.875
34779W        W 6450  39.304  27.461   0.463
34780W        W 6451   6.314  34.656  13.316
34781W        W 6452  19.668  31.605   2.361
34782W        W 6453  19.197  32.144  10.698
34783W        W 6454  40.908   9.717  10.614
34784W        W 6455   2.428  28.146   0.875
34785W        W 6456   8.170  15.232  14.912
34786W        W 6457  13.712  25.995  13.062
34787W        W 6458  25.701  40.401  11.273
34788W        W 6459  28.426  29.499  13.786
34789W        W 6460  44.167   4.237  14.840
34790W        W 6461  31.142   4.783  12.521
34791W        W 6462   4.475  33.639  13.937
34792W        W 6463  34.356  27.614  14.255
34793W        W 6464  13.135  20.030  11.221
34794W        W 6465  44.790  39.373   0.754
34795W        W 6466  41.912  21.782  12.825
34796W        W 6467  18.168   0.029   3.044
34797W        W 6468   2.251   8.672   0.248
34798W        W 6469  26.921  18.864  13.957
34799W        W 6470  33.098   5.240  14.818
34800W        W 6471  44.978  17.471   1.505
34801W        W 6472  14.060  26.794  14.147
34802W        W 6473  16.121   7.663  13.757
34803W        W 6474  38.277  35.336  11.899
34804W        W 6475  25.060  28.732   1.884
34805W        W 6476  11.914  32.874   4.153
34806W        W 6477   8.838  22.710   3.172
34807W        W 6478  20.392   1.825  12.060
34808W        W 6479  35.406  36.258   1.256
34809W        W 6480  21.536  16.622   1.298
34810W        W 6481  39.078   4.367  11.097
34811W        W 6482  22.074   2.575   0.755
34812W        W 6483  13.298  13.662  12.874
34813W        W 6484  20.581  12.320   2.346
34814W        W 6485  43.974  20.710   9.970
34815W        W 6486  10.833   8.445   2.734
34816W        W 6487  10.004  27.825  11.698
34817W        W 6488  28.447   6.682  13.320
34818W        W 6489  22.292  15.725  11.593
34819W        W 6490  13.063  20.944   1.665
34820W        W 6491   7.421  22.728  12.494
34821W        W 6492  38.975   9.517   1.694
34822W        W 6493  33.954  18.269  13.008
34823W        W 6494  41.969   6.276  12.116
34824W        W 6495   5.925  27.359   0.033
34825W        W 6496   5.763  44.184   1.289
34826W        W 6497  37.906  14.091   2.565
34827W        W 6498  19.357  13.221  13.656
34828W        W 6499  27.938  21.690  11.882
34829W        W 6500  14.569   0.420   2.727
34830W        W 6501  18.450  16.549  13.774
34831W        W 6502  32.556  32.624   2.236
34832W        W 6503  17.402   2.715   1.643
34833W        W 6504  18.902  15.477  12.011
34834W        W 6505  28.698  31.011   4.686
34835W        W 6506   1.926   1.828   2.256
34836W        W 6507  25.070  37.449  13.439
34837W        W 6508  25.356   8.223  11.004
34838W        W 6509  26.356  19.990  13.882
34839W        W 6510  42.336   0.997  12.807
34840W        W 6511  17.552  11.694  14.709
34841W        W 6512  23.299  16.341   2.163
34842W        W 6513  41.273  20.100   1.188
34843W        W 6514  14.276   4.000   5.111
34844W        W 6515  12.366  21.502   4.528
34845W        W 6516   1.806   0.887   4.774
34846W        W 6517   2.495  21.186  13.986
34847W        W 6518  11.908   6.979  12.596
34848W        W 6519  32.347  37.817  11.144
34849W        W 6520  42.289  12.798   1.919
34850W        W 6521  30.403  18.411   1.777
34851W        W 6522  28.642   4.869   0.826
34852W        W 6523  38.414  34.622  10.725
34853W        W 6524  24.483  36.687  12.526
34854W        W 6525  35.616   1.505   4.880
34855W        W 6526   9.945  17.641   0.290
34856W        W 6527   2.863  17.609  10.943
34857W        W 6528  14.285  37.780  11.096
34858W        W 6529  27.953  39.945   1.078
34859W        W 6530  24.058  37.554   3.175
34860W        W 6531  30.830   7.949  14.000
34861W        W 6532  36.117  23.068   2.848
34862W        W 6533   8.753   0.448  13.816
34863W        W 6534  30.673  35.498  11.086
34864W        W 6535  19.852   9.366  13.517
34865W        W 6536  15.551   6.918  13.787
34866W        W 6537  42.561  12.149  14.039
34867W        W 6538  37.898  19.302  12.713
34868W        W 6539  33.174  17.704   0.448
34869W        W 6540  33.842  19.236  14.385
34870W        W 6541  29.135  23.322  14.380
34871W        W 6542  29.132  25.963  13.380
34872W        W 6543  39.847  11.214   0.259
34873W        W 6544  10.560  42.363   1.886
34874W        W 6545   9.818  42.531  14.071
34875W        W 6546  10.448  20.091  10.527
34876W        W 6547  44.726  26.006   4.698
34877W        W 6548  26.659   3.015  12.604
34878W        W 6549  30.034   1.707   4.090
34879W        W 6550  26.199   6.937  14.802
34880W        W 6551   2.765  44.303   1.412
34881W        W 6552  11.775  10.908   1.452
34882W        W 6553  28.206   2.171   0.369
34883W        W 6554  24.223  38.162  10.220
34884W        W 6555  39.546  35.015   2.639
34885W        W 6556  26.351  25.309  10.844
34886W        W 6557  28.491  30.562  11.750
34887W        W 6558  43.870  23.518   1.429
34888W        W 6559  39.293  40.792  13.462
34889W        W 6560  43.827   6.694   3.709
34890W        W 6561  20.189  29.765   3.245
34891W        W 6562  13.666   4.344   0.354
34892W        W 6563  17.727  26.103   3.739
34893W        W 6564  23.705  41.002   1.443
34894W        W 6565  18.731   1.226  14.959
34895W        W 6566  37.666   1.883   1.895
34896W        W 6567  18.736  20.314  14.487
34897W        W 6568  15.333  43.943  12.091
34898W        W 6569  32.473  11.059   2.416
34899W        W 6570  33.074  32.635  14.834
34900W        W 6571  28.701  27.930  12.014
34901W        W 6572  19.179   0.921   0.964
34902W        W 6573   9.343  12.327   1.867
34903W        W 6574   1.741  35.547   2.338
34904W        W 6575  40.498  29.091  13.827
34905W        W 6576  19.673  22.883  13.845
34906W        W 6577  23.114  30.333   1.020
34907W        W 6578  39.087  44.566  11.538
34908W        W 6579  37.504  19.229  11.592
34909W        W 6580  16.078  28.650   0.751
34910W        W 6581  26.220  10.611   0.658
34911W        W 6582   1.245  40.091   2.374
34912W        W 6583  17.122   4.668   3.169
34913W        W 6584  13.129   9.847  13.489
34914W        W 6585  36.027  37.610   3.271
34915W        W 6586  24.018  22.705   1.443
34916W        W 6587  35.114  36.052  11.462
34917W        W 6588  34.404   0.924  14.950
34918W        W 6589  28.305  38.978  11.019
34919W        W 6590  15.444  24.961  11.884
34920W        W 6591  33.037  25.781   1.148
34921W        W 6592  18.193  44.081  11.611
34922W        W 6593  18.783  39.926  12.704
34923W        W 6594  42.834  32.879  13.400
34924W        W 6595  37.469  43.324  12.320
34925W        W 6596  21.815  39.285   1.234
34926W        W 6597  40.986  29.735  10.605
34927W        W 6598  11.741  33.943   3.414
34928W        W 6599  30.531   8.106   5.249
34929W        W 6600  14.609  39.052   1.680
34930W        W 6601  38.729  16.181   4.395
34931W        W 6602  18.040  30.008  14.595
34932W        W 6603   6.155  27.949  14.478
34933W        W 6604  19.478  15.658   1.216
34934W        W 6605  23.026  33.649  11.139
34935W        W 6606  23.706  21.672   3.556
34936W        W 6607   6.669  10.391  10.723
34937W        W 6608   6.240  10.782   1.851
34938W        W 6609  33.797  27.913  10.197
34939W        W 6610  14.071  43.973  12.767
34940W        W 6611   3.062  36.862  13.742
34941W        W 6612  35.354   8.315  11.986
34942W        W 6613   2.956  20.582   3.318
34943W        W 6614  12.869  11.403  12.968
34944W        W 6615  15.642  38.466  14.356
34945W        W 6616  40.128  35.518   1.764
34946W        W 6617  16.263  38.721  10.509
34947W        W 6618   3.409  18.621  10.589
34948W        W 6619  40.637  25.700  13.477
34949W        W 6620  10.911  24.620   3.383
34950W        W 6621  13.890  38.880  13.321
34951W        W 6622  10.418  15.614   4.613
34952W        W 6623  35.421  16.040  13.097
34953W        W 6624  15.317  38.540   1.971
34954W        W 6625  28.900  30.129  12.947
34955W        W 6626  29.595   8.241  14.823
34956W        W 6627  14.733  11.401  12.237
34957W        W 6628  21.235  17.541  13.405
34958W        W 6629  34.726  17.302   1.401
34959W        W 6630  30.970  23.994   3.631
34960W        W 6631  13.472  16.778  12.936
34961W        W 6632  13.388  35.009   2.539
34962W        W 6633  25.056  41.038  14.804
34963W        W 6634  15.647  44.416   0.261
34964W        W 6635   0.260   4.328   1.376
34965W        W 6636  14.657  40.788  10.734
34966W        W 6637  21.842  25.581  10.274
34967W        W 6638  24.281   0.402  11.520
34968W        W 6639  40.907  12.138  13.561
34969W        W 6640   2.852  29.496   0.755
34970W        W 6641  39.092  40.017  13.849
34971W        W 6642  11.572   7.851   0.330
34972W        W 6643  44.881  30.158   1.869
34973W        W 6644  33.572  40.852   4.191
34974W        W 6645  32.427  29.231   3.931
34975W        W 6646  26.517  12.263  10.652
34976W        W 6647  39.930  34.363  12.985
34977W        W 6648  16.181  38.838   4.726
34978W        W 6649   9.701  14.438  13.797
34979W        W 6650  39.364  20.686  11.106
34980W        W 6651  31.554   2.538   4.640
34981W        W 6652  31.421  27.347   2.438
34982W        W 6653  33.487   6.093   3.987
34983W        W 6654  15.679  10.768  10.767
34984W        W 6655   0.218   9.389  11.153
34985W        W 6656  22.705  13.236  13.469
34986W        W 6657  42.706  11.322   4.815
34987W        W 6658  41.558   9.661   1.888
34988W        W 6659  27.963  19.578  13.745
34989W        W 6660  41.447  32.958   4.557
34990W        W 6661  37.409  28.090  11.071
34991W        W 6662  25.344   8.501   4.961
34992W        W 6663  16.885  25.522  11.153
34993W        W 6664   2.190   6.203   0.428
34994W        W 6665  11.800  24.471   3.761
34995W        W 6666  37.287  23.344  12.694
34996W        W 6667  29.121  44.926  13.298
34997W        W 6668  23.517  42.414   4.740
34998W        W 6669  26.608  20.649   4.182
34999W        W 6670  27.839   3.327   1.200
35000W        W 6671  32.991  35.185   2.818
35001W        W 6672  26.751  39.855  10.750
35002W        W 6673   5.782  41.301  10.464
35003W        W 6674  25.100  29.229   2.000
35004W        W 6675  12.170  13.243   1.173
35005W        W 6676  28.601  17.483  13.665
35006W        W 6677  18.973  16.655   2.178
35007W        W 6678  37.945  18.733  14.115
35008W        W 6679  38.598  32.873   0.677
35009W        W 6680  13.629  41.873  10.932
35010W        W 6681  24.196  15.729  14.129
35011W        W 6682  35.544  30.507   4.375
35012W        W 6683  16.967  43.515  12.572
35013W        W 6684   2.930  43.328  14.150
35014W        W 6685  14.393  10.803  14.407
35015W        W 6686  11.807  23.086  14.190
35016W        W 6687  14.289   2.495  14.937
35017W        W 6688  23.205  15.635   3.794
35018W        W 6689  38.467  29.733  13.501
35019W        W 6690   3.014  37.107   0.858
35020W        W 6691  33.586  36.375  13.475
35021W        W 6692  25.430  41.731   1.635
35022W        W 6693   5.769   6.217   2.306
35023W        W 6694  43.230  22.366   3.260
35024W        W 6695  41.474  44.825   4.088
35025W        W 6696  10.256  20.708  12.602
35026W        W 6697  21.116  21.523   4.404
35027W        W 6698  43.382  37.161  12.832
35028W        W 6699  27.093  30.107   4.648
35029W        W 6700  29.487   2.167  11.677
35030W        W 6701  22.778  29.408   3.837
35031W        W 6702  16.618  13.113   1.744
35032W        W 6703  32.466  19.912   2.243
35033W        W 6704  34.210  36.338  10.734
35034W        W 6705  33.293  12.201   3.744
35035W        W 6706   5.265  15.225  11.060
35036W        W 6707  41.450   9.521   0.791
35037W        W 6708  28.943   1.475   0.241
35038W        W 6709  22.194  11.712  10.663
35039W        W 6710  26.707  42.767   2.945
35040W        W 6711  35.108  38.792  11.036
35041W        W 6712  14.427  20.351   5.069
35042W        W 6713  29.322  38.429   2.814
35043W        W 6714  34.169  19.820  13.024
35044W        W 6715   7.290  42.614   1.280
35045W        W 6716  42.519  34.452  12.697
35046W        W 6717   7.751   9.763  10.932
35047W        W 6718  40.311   6.124   0.138
35048W        W 6719  23.566  11.127   4.548
35049W        W 6720  21.263  29.926   3.139
35050W        W 6721  17.417  17.212   0.741
35051W        W 6722  29.462  22.377  11.935
35052W        W 6723  25.212  34.339   9.877
35053W        W 6724  29.876  32.554   4.209
35054W        W 6725  12.405   7.955   1.717
35055W        W 6726  36.026  28.907  13.835
35056W        W 6727   3.000   8.337  12.461
35057W        W 6728  40.543  23.776   0.880
35058W        W 6729  33.324   0.480   0.826
35059W        W 6730  11.901   5.662  14.869
35060W        W 6731  21.586  17.298   0.805
35061W        W 6732  22.661  10.556  10.048
35062W        W 6733   8.386  18.548  14.948
35063W        W 6734  31.427  41.243  10.994
35064W        W 6735  40.913   7.859  13.230
35065W        W 6736  28.512  15.182   3.642
35066W        W 6737  11.348  15.422   0.876
35067W        W 6738  24.902  40.412   0.850
35068W        W 6739  11.494  22.493   4.177
35069W        W 6740  25.385   9.706   3.550
35070W        W 6741  30.466  17.345  14.914
35071W        W 6742  35.011  39.096  13.652
35072W        W 6743  19.066   6.710  14.885
35073W        W 6744  35.703  12.694   1.925
35074W        W 6745  25.136   3.733  12.579
35075W        W 6746  31.038  14.706   0.381
35076W        W 6747   9.667  40.134  12.482
35077W        W 6748  19.683   2.710   3.610
35078W        W 6749  14.320  29.211   4.613
35079W        W 6750  26.022  13.654  12.159
35080W        W 6751  43.177   0.501  13.002
35081W        W 6752  32.394  12.386  13.000
35082W        W 6753  14.745  16.239  14.886
35083W        W 6754  24.526  14.333  14.966
35084W        W 6755  42.727  15.765  12.450
35085W        W 6756  12.880  14.005   2.304
35086W        W 6757   7.244  17.495   2.821
35087W        W 6758   8.609  44.453  13.755
35088W        W 6759  43.466  10.259  13.207
35089W        W 6760  44.394   7.119   1.155
35090W        W 6761  29.076  32.203   1.799
35091W        W 6762  11.955   9.411  12.353
35092W        W 6763  42.900  44.393   0.710
35093W        W 6764  44.264  23.314  13.440
35094W        W 6765  12.941  38.303   0.833
35095W        W 6766  41.510  42.340   1.958
35096W        W 6767   0.190  14.896   1.708
35097W        W 6768  33.083  21.180   0.424
35098W        W 6769  37.291   6.740   3.436
35099W        W 6770   6.365   7.263  11.176
35100W        W 6771  40.492  38.907  11.543
35101W        W 6772  17.323   7.370  14.038
35102W        W 6773   9.420  31.238   1.355
35103W        W 6774   7.737  34.439   1.830
35104W        W 6775  17.008  15.183  14.392
35105W        W 6776  42.041  39.046   4.560
35106W        W 6777  28.579  28.994  13.844
35107W        W 6778  39.050  25.497   0.823
35108W        W 6779  32.107   4.938   4.209
35109W        W 6780  15.436  34.363   1.851
35110W        W 6781  39.287  21.777   4.767
35111W        W 6782  35.803   5.216  12.898
35112W        W 6783  23.036  30.893  13.473
35113W        W 6784  37.870   8.969   3.424
35114W        W 6785  42.955  41.462   5.642
35115W        W 6786  36.204  16.727   3.052
35116W        W 6787  39.317   1.283  11.167
35117W        W 6788   8.439   8.910  11.142
35118W        W 6789  20.128  15.262  14.311
35119W        W 6790  14.583  12.188   0.769
35120W        W 6791  44.949  38.047  13.539
35121W        W 6792  36.339  34.319   3.203
35122W        W 6793  36.371  30.327   4.046
35123W        W 6794  41.312  24.438  13.403
35124W        W 6795   6.663  15.051   0.087
35125W        W 6796  39.781   0.887   3.148
35126W        W 6797  23.586   3.755   0.002
35127W        W 6798  36.646  29.424   0.871
35128W        W 6799  36.869  26.081   3.517
35129W        W 6800  19.415  25.047   2.166
35130W        W 6801   1.467  32.367   0.799
35131W        W 6802  44.126   0.035   3.771
35132W        W 6803  37.011  39.577   4.662
35133W        W 6804  42.376  26.478  12.446
35134W        W 6805  33.986  31.638   2.932
35135W        W 6806  18.481  41.039   3.692
35136W        W 6807  40.440   2.298   0.557
35137W        W 6808  42.381  29.204  11.038
35138W        W 6809  41.731   7.184  11.116
35139W        W 6810  29.288   3.696  12.440
35140W        W 6811  41.576  21.374  12.019
35141W        W 6812   0.944  19.980   4.568
35142W        W 6813  31.258  16.073   4.644
35143W        W 6814   6.179  31.014   0.378
35144W        W 6815  23.398   6.234   2.252
35145W        W 6816   9.724  37.761   0.123
35146W        W 6817  43.920   9.672   4.605
35147W        W 6818  24.016  35.640   1.119
35148W        W 6819  39.729  26.991   3.505
35149W        W 6820  23.277  31.631   3.890
35150W        W 6821  19.807   4.251  12.498
35151W        W 6822  25.005  14.532   0.915
35152W        W 6823  10.841  23.447  12.466
35153W        W 6824  30.141  25.723  14.774
35154W        W 6825  33.179  20.470   0.776
35155W        W 6826   7.914  36.956  10.883
35156W        W 6827  41.792  35.939   4.585
35157W        W 6828  30.702  28.854   3.966
35158W        W 6829  26.471   0.547  12.066
35159W        W 6830   7.582   8.024   4.942
35160W        W 6831   4.714   9.857   4.174
35161W        W 6832  25.585  31.350   3.303
35162W        W 6833   9.692  34.081  10.533
35163W        W 6834  28.694  15.619  11.123
35164W        W 6835  22.157  35.069   1.006
35165W        W 6836  35.969  29.013   4.034
35166W        W 6837  30.954  17.228  12.087
35167W        W 6838  26.921   7.169  11.403
35168W        W 6839  18.748  16.233   0.965
35169W        W 6840  36.139  44.610  12.059
35170W        W 6841  34.858  22.287   3.764
35171W        W 6842  29.923  35.736   3.796
35172W        W 6843  26.276  29.466  11.605
35173W        W 6844   9.154  21.551  13.955
35174W        W 6845  34.117  13.291  12.586
35175W        W 6846  37.073  25.280  13.342
35176W        W 6847  28.346  36.960  14.253
35177W        W 6848  25.441   8.240   2.247
35178W        W 6849  15.102  40.334  11.543
35179W        W 6850  28.664  13.145   1.920
35180W        W 6851  19.197   5.236   4.043
35181W        W 6852   3.430   1.788   1.753
35182W        W 6853   6.770  26.883   3.333
35183W        W 6854  27.910   2.796  13.572
35184W        W 6855  43.583  14.739  13.075
35185W        W 6856  42.428  14.158   2.898
35186W        W 6857   4.346  20.564   3.517
35187W        W 6858  22.022   5.086   4.843
35188W        W 6859   0.837  17.077   1.189
35189W        W 6860  21.807  16.732   3.259
35190W        W 6861  23.953  26.225  10.717
35191W        W 6862  28.682  26.192  12.491
35192W        W 6863  22.802  11.813   2.447
35193W        W 6864  28.631  22.220   2.043
35194W        W 6865  14.636  12.320  12.312
35195W        W 6866  20.552  13.266  12.667
35196W        W 6867  25.256  14.719   4.520
35197W        W 6868  19.590  29.550   4.722
35198W        W 6869  31.944  26.653  12.303
35199W        W 6870  34.268   3.210  13.975
35200W        W 6871  35.555  34.922   1.189
35201W        W 6872  11.086  35.416   2.793
35202W        W 6873  23.249   8.830  13.704
35203W        W 6874  36.077  13.728   0.357
35204W        W 6875  22.909   4.843   0.721
35205W        W 6876  41.306  30.421  12.518
35206W        W 6877  17.554   4.985  14.396
35207W        W 6878  20.530  39.472   4.182
35208W        W 6879  20.819  36.275   2.263
35209W        W 6880  21.031   5.972   2.688
35210W        W 6881  25.693  35.423   2.133
35211W        W 6882  10.087   8.857   2.317
35212W        W 6883  31.928  34.398  13.457
35213W        W 6884  16.065  28.719   2.236
35214W        W 6885   6.192   8.141   3.167
35215W        W 6886  44.468  16.389   0.313
35216W        W 6887   7.551  23.737  12.855
35217W        W 6888  19.411   9.414   5.008
35218W        W 6889  17.215   2.333   0.868
35219W        W 6890  31.530  26.591  13.575
35220W        W 6891  43.138   5.436   1.826
35221W        W 6892  20.149  25.508   0.008
35222W        W 6893  27.479  36.829  14.770
35223W        W 6894  27.447  36.063  12.477
35224W        W 6895   0.267  37.557  13.139
35225W        W 6896  39.762  16.283   4.179
35226W        W 6897  22.536  44.240  11.951
35227W        W 6898  10.635  18.936  12.145
35228W        W 6899   0.754   3.220   3.727
35229W        W 6900  38.640   4.279  13.455
35230W        W 6901  37.498   0.582  14.348
35231W        W 6902  31.179   0.981  10.118
35232W        W 6903  15.039  18.656  14.455
35233W        W 6904  35.654  29.518  13.105
35234W        W 6905   3.021   9.242  11.395
35235W        W 6906  44.841  25.920   4.198
35236W        W 6907  14.703  31.321  14.335
35237W        W 6908  18.511   7.241  11.935
35238W        W 6909  33.643  38.472  14.435
35239W        W 6910  34.314  22.171  14.807
35240W        W 6911   1.508   8.194  13.432
35241W        W 6912  22.799  15.811  11.559
35242W        W 6913  23.209  44.321  10.526
35243W        W 6914  10.406   5.200   0.392
35244W        W 6915   2.796  28.387  14.592
35245W        W 6916   1.922  43.303   3.767
35246W        W 6917   2.137  24.574  11.265
35247W        W 6918  36.231  32.092   2.078
35248W        W 6919  16.675  25.339  12.434
35249W        W 6920  10.234  32.120   0.698
35250W        W 6921  12.348   2.774   4.584
35251W        W 6922  29.673  43.391   3.820
35252W        W 6923   0.938  28.183   4.067
35253W        W 6924   8.491  24.733  11.095
35254W        W 6925   3.793  34.713  13.941
35255W        W 6926  40.043   7.044  14.475
35256W        W 6927  15.569  22.044   3.203
35257W        W 6928  14.193   5.220  11.995
35258W        W 6929  24.920  43.115   5.042
35259W        W 6930  19.823  43.658  10.968
35260W        W 6931  36.960  22.247   1.480
35261W        W 6932   6.778  43.447   0.191
35262W        W 6933  35.284  34.557  10.949
35263W        W 6934  13.358   4.393  11.849
35264W        W 6935  16.790   2.114  14.271
35265W        W 6936  15.325  10.663   1.260
35266W        W 6937  14.155  15.942   2.844
35267W        W 6938  26.734  13.454   1.914
35268W        W 6939  30.569  42.949   3.183
35269W        W 6940  39.270  38.312  13.795
35270W        W 6941  27.574  44.991  14.899
35271W        W 6942  34.011  38.258   2.006
35272W        W 6943  14.799  36.467   3.579
35273W        W 6944  33.137  44.519  11.147
35274W        W 6945  14.846  34.384   3.594
35275W        W 6946   1.511  10.237   0.068
35276W        W 6947  26.183  16.374   2.804
35277W        W 6948  26.993  18.995  13.042
35278W        W 6949   7.871  17.120  11.599
35279W        W 6950   4.888  26.034  12.531
35280W        W 6951  41.027  21.172  12.018
35281W        W 6952  23.108  32.016   0.015
35282W        W 6953  42.344  23.593   2.843
35283W        W 6954  30.799  38.421   2.649
35284W        W 6955   1.847  43.963  13.358
35285W        W 6956  43.189  34.123  14.922
35286W        W 6957  22.670  17.163   4.922
35287W        W 6958  20.131  31.406  13.599
35288W        W 6959   2.717  20.502  11.366
35289W        W 6960  27.675  17.334   4.944
35290W        W 6961  11.729  44.293  14.864
35291W        W 6962   4.875  13.304  12.125
35292W        W 6963   8.133   2.006  14.505
35293W        W 6964  11.261   6.828  14.484
35294W        W 6965  29.399  15.821   3.119
35295W        W 6966  15.132  44.191   2.917
35296W        W 6967  13.757  18.616   2.529
35297W        W 6968   8.264  26.157  13.431
35298W        W 6969  19.576  44.381  11.542
35299W        W 6970   6.722  16.406   0.143
35300W        W 6971   3.786  17.733   1.346
35301W        W 6972   8.643  15.421   2.346
35302W        W 6973  33.529  40.335   4.213
35303W        W 6974  10.352  11.151   2.736
35304W        W 6975  12.919  29.809  11.103
35305W        W 6976  41.494  26.128   3.151
35306W        W 6977   0.586  31.585   0.734
35307W        W 6978   5.449   5.898   2.590
35308W        W 6979  16.609  32.651   0.423
35309W        W 6980  38.971  30.917   2.138
35310W        W 6981  32.891  25.769  14.796
35311W        W 6982   8.849  44.715  10.907
35312W        W 6983  15.996  20.117  10.851
35313W        W 6984  44.523  36.901   3.168
35314W        W 6985  13.852  34.913   2.822
35315W        W 6986   9.313  26.584  14.531
35316W        W 6987  33.329  38.290   3.165
35317W        W 6988   3.381  37.483   1.105
35318W        W 6989  15.164  44.431  14.545
35319W        W 6990  39.088  28.088   2.643
35320W        W 6991   8.863  35.456  11.688
35321W        W 6992   8.738  10.302   4.646
35322W        W 6993  31.075  40.296  11.664
35323W        W 6994  35.853  25.099   0.845
35324W        W 6995  30.601  27.495  12.435
35325W        W 6996  10.814  25.753   1.771
35326W        W 6997  37.991  17.653   0.945
35327W        W 6998   3.382  37.580   3.059
35328W        W 6999  10.291  13.893  13.084
35329W        W 7000  28.422   9.406   1.238
35330W        W 7001  13.287  21.465   0.856
35331W        W 7002  37.330  36.444   3.183
35332W        W 7003  42.553  25.414  13.955
35333W        W 7004  37.908   1.388   0.841
35334W        W 7005   3.399  24.195   3.178
35335W        W 7006  24.142   3.972   2.333
35336W        W 7007  25.957   1.935   3.766
35337W        W 7008   4.526  23.477  11.114
35338W        W 7009  30.008  15.767  10.788
35339W        W 7010  28.391   7.506   1.770
35340W        W 7011  14.244   1.869   2.377
35341W        W 7012  24.615  13.523  13.110
35342W        W 7013  35.014  27.166  12.623
35343W        W 7014  41.232  23.799  14.022
35344W        W 7015  24.477  14.129  14.454
35345W        W 7016  13.042   3.195   1.836
35346W        W 7017  41.489  41.795  14.375
35347W        W 7018  40.532   8.250  12.673
35348W        W 7019  33.951  20.504   2.767
35349W        W 7020  43.720  17.195   3.113
35350W        W 7021  22.023  12.605   2.702
35351W        W 7022   9.854  40.834   0.935
35352W        W 7023  32.737  31.880   0.433
35353W        W 7024  31.162  23.596  11.184
35354W        W 7025   1.484  25.622  11.177
35355W        W 7026  33.933   8.497  12.004
35356W        W 7027  32.016  32.930  13.828
35357W        W 7028  44.165   7.853   4.913
35358W        W 7029  26.968  36.851  10.926
35359W        W 7030  31.015   1.715   4.877
35360W        W 7031  41.647  44.845  11.955
35361W        W 7032   4.411  44.228   1.939
35362W        W 7033   1.302  17.548  12.455
35363W        W 7034   4.318  22.025  14.549
35364W        W 7035  34.119  39.740  14.290
35365W        W 7036  41.443  18.363   1.775
35366W        W 7037  39.445  34.454  14.865
35367W        W 7038  44.543   2.983  12.086
35368W        W 7039  35.059   3.644   2.464
35369W        W 7040   9.971  30.185   0.649
35370W        W 7041   9.864  36.584   4.293
35371W        W 7042  39.923  34.254   1.259
35372W        W 7043  19.428  31.150   2.543
35373W        W 7044   6.004   2.055   2.747
35374W        W 7045  13.212  36.027  10.561
35375W        W 7046   2.039  14.650  10.758
35376W        W 7047  20.349  14.928   1.674
35377W        W 7048   8.643   3.296   3.147
35378W        W 7049   7.746  12.783   4.354
35379W        W 7050  27.717   5.974   0.533
35380W        W 7051  42.885  42.247  12.436
35381W        W 7052  30.613  24.368   3.663
35382W        W 7053  20.287  32.387   1.763
35383W        W 7054   9.461   4.776   3.866
35384W        W 7055  15.493   1.367   1.301
35385W        W 7056  24.508  37.749   3.692
35386W        W 7057  43.502  24.461   0.689
35387W        W 7058  37.027  36.478   1.889
35388W        W 7059   2.483  25.137   3.244
35389W        W 7060  29.027   1.252  13.012
35390W        W 7061  26.428   4.125   2.269
35391W        W 7062  37.323  22.077   4.567
35392W        W 7063   8.906  28.580  11.209
35393W        W 7064  15.643  17.664  10.549
35394W        W 7065  30.431  42.875  14.308
35395W        W 7066   3.020  20.048   2.476
35396W        W 7067  27.649  16.843  11.567
35397W        W 7068  39.426  24.517  11.501
35398W        W 7069  12.708   6.930   3.309
35399W        W 7070  13.153  28.913  12.391
35400W        W 7071   3.836  25.446  14.361
35401W        W 7072  31.382   8.838   3.258
35402W        W 7073  23.733   1.749   2.676
35403W        W 7074  16.773  30.136   3.082
35404W        W 7075  30.038   8.845  11.141
35405W        W 7076  31.133  30.911  13.319
35406W        W 7077   1.344  28.903  12.955
35407W        W 7078  44.778  37.588  13.326
35408W        W 7079   0.409  15.799  14.008
35409W        W 7080  25.839  43.864  11.162
35410W        W 7081  44.804  14.662   0.875
35411W        W 7082  27.248  43.646   2.788
35412W        W 7083  33.327   6.208  13.005
35413W        W 7084   7.827  24.242  12.390
35414W        W 7085   4.755  38.839   4.546
35415W        W 7086   3.701   1.405  10.723
35416W        W 7087  27.001  29.052  13.342
35417W        W 7088  13.706   1.692   4.114
35418W        W 7089   6.710  10.078  11.161
35419W        W 7090  38.951  33.785  13.934
35420W        W 7091  41.140  19.805  13.324
35421W        W 7092  39.609   4.009   3.335
35422W        W 7093  25.193   3.812   3.618
35423W        W 7094  14.994  44.755  13.447
35424W        W 7095   8.376  39.167  11.854
35425W        W 7096  23.018  37.053   0.808
35426W        W 7097  40.119  42.473  11.950
35427W        W 7098   8.733  11.316  10.993
35428W        W 7099  35.356  33.549  11.800
35429W        W 7100  22.981  30.916  10.606
35430W        W 7101  34.724  38.900   0.271
35431W        W 7102   2.382  44.964  11.095
35432W        W 7103  19.231   3.923   1.366
35433W        W 7104  39.927  32.637   0.635
35434W        W 7105  31.043   1.243  13.112
35435W        W 7106  39.378   6.657   4.425
35436W        W 7107   7.379  22.770   3.866
35437W        W 7108  36.833  25.691  12.399
35438W        W 7109  20.546  20.203  13.438
35439W        W 7110  16.205  27.143  11.270
35440W        W 7111  11.641  20.297  11.612
35441W        W 7112   9.817   6.815   3.719
35442W        W 7113  28.684  29.166  12.895
35443W        W 7114  20.948  36.601  13.424
35444W        W 7115  29.459   2.464  10.719
35445W        W 7116  27.176  30.263   2.786
35446W        W 7117  17.733   4.380   0.233
35447W        W 7118  21.027  40.059   2.873
35448W        W 7119  21.505  17.688   4.320
35449W        W 7120   2.929  32.619   1.160
35450W        W 7121  13.118  39.041   0.641
35451W        W 7122  13.781  20.704   4.233
35452W        W 7123  41.299  16.255  13.412
35453W        W 7124  35.048  23.717   3.334
35454W        W 7125   0.207  15.263   2.891
35455W        W 7126   2.727   6.838  11.715
35456W        W 7127  16.823  40.062  11.126
35457W        W 7128  30.639  10.577  14.299
35458W        W 7129  14.220  37.102   2.480
35459W        W 7130  40.534  41.706  14.321
35460W        W 7131  25.744   9.861   0.196
35461W        W 7132  38.275   3.011  12.109
35462W        W 7133  14.865  22.075  12.553
35463W        W 7134  37.581  31.848   1.740
35464W        W 7135  30.545   9.760  10.768
35465W        W 7136  42.488   1.860  11.890
35466W        W 7137  41.376   2.273   3.954
35467W        W 7138   5.352  17.845  10.711
35468W        W 7139  36.839  36.188   4.166
35469W        W 7140  35.337   9.784  13.087
35470W        W 7141  22.584   0.845  10.660
35471W        W 7142   5.181  22.624  14.402
35472W        W 7143  19.204  11.224   4.642
35473W        W 7144   7.698  42.996   5.020
35474W        W 7145  28.674  40.232  11.045
35475W        W 7146  14.154  24.855  13.410
35476W        W 7147   0.873  28.700   4.009
35477W        W 7148  15.638  35.304   3.706
35478W        W 7149  17.392  18.030  14.447
35479W        W 7150  37.907   5.220   1.602
35480W        W 7151  29.319  30.000   4.167
35481W        W 7152  11.202  29.487   0.527
35482W        W 7153  42.998  41.377   0.351
35483W        W 7154  14.312  10.299  13.543
35484W        W 7155  10.227  37.033  11.556
35485W        W 7156  39.043  40.707  12.091
35486W        W 7157  18.135  33.181  13.826
35487W        W 7158  39.245  37.423  13.296
35488W        W 7159  20.581  20.351   4.988
35489W        W 7160  20.634  17.950  13.901
35490W        W 7161  28.964  33.433  13.025
35491W        W 7162  13.318  39.747   3.456
35492W        W 7163  24.474  42.964   1.665
35493W        W 7164  33.787  26.956   3.613
35494W        W 7165  23.902  40.574  11.918
35495W        W 7166  33.552  32.044  12.141
35496W        W 7167   6.946  29.328   3.272
35497W        W 7168  11.837   2.284   3.173
35498W        W 7169  36.027  12.995  13.811
35499W        W 7170  32.091  40.871  12.866
35500W        W 7171  30.504  36.556   4.451
35501W        W 7172  42.765  16.066  14.292
35502W        W 7173  16.930  14.647  12.542
35503W        W 7174  42.730  23.644   9.776
35504W        W 7175   1.814  41.042   2.806
35505W        W 7176  35.981  23.241  11.742
35506W        W 7177  29.338  40.440   9.872
35507W        W 7178  17.516  21.696  11.514
35508W        W 7179  41.464  11.762  11.592
35509W        W 7180  21.609  42.967   4.862
35510W        W 7181  38.136   8.110  13.396
35511W        W 7182  20.552  43.594   1.357
35512W        W 7183   5.193  41.022   1.624
35513W        W 7184   5.801  30.162   4.642
35514W        W 7185  44.725  24.360  14.565
35515W        W 7186   9.351  10.064  12.607
35516W        W 7187  16.395  24.230  10.947
35517W        W 7188   4.626  33.849   0.377
35518W        W 7189  17.106   6.321   1.164
35519W        W 7190  42.453  24.727   2.016
35520W        W 7191   6.613  32.921   0.696
35521W        W 7192   4.391   1.023   2.444
35522W        W 7193  12.177   5.298   2.284
35523W        W 7194  32.283  22.696  11.595
35524W        W 7195  20.215  12.582   1.432
35525W        W 7196  26.530  13.419  12.087
35526W        W 7197  38.008  44.397  14.000
35527W        W 7198   5.445  10.694  11.018
35528W        W 7199  32.916  32.156  12.975
35529W        W 7200  16.641   3.538  10.772
35530W        W 7201  15.278  28.222   1.424
35531W        W 7202   6.762  42.392  11.826
35532W        W 7203  32.552  22.525  12.496
35533W        W 7204  10.844  38.934   2.793
35534W        W 7205   7.994  43.254   0.296
35535W        W 7206  43.386  23.125  12.844
35536W        W 7207  33.534  30.288   1.200
35537W        W 7208  30.604  36.480   1.063
35538W        W 7209  29.631  42.039   0.341
35539W        W 7210  31.130  19.258  12.404
35540W        W 7211   7.739  44.388   1.015
35541W        W 7212  17.810  28.117   4.784
35542W        W 7213  17.058   2.140  11.560
35543W        W 7214  27.272  23.610   3.333
35544W        W 7215  27.967  19.675   3.151
35545W        W 7216  29.099  31.387   3.790
35546W        W 7217  10.390  37.997   4.631
35547W        W 7218   6.917  34.883   1.982
35548W        W 7219  10.333   9.359  11.999
35549W        W 7220   9.842  39.358  12.870
35550W        W 7221   5.446  41.952  12.087
35551W        W 7222  12.840   1.916  10.719
35552W        W 7223   3.947  37.945   0.457
35553W        W 7224   7.439  22.342  14.067
35554W        W 7225  19.993  21.092   4.694
35555W        W 7226   7.375  25.417  10.741
35556W        W 7227  26.437  21.220  12.528
35557W        W 7228  24.869   4.837   4.605
35558W        W 7229  36.570  20.343  12.255
35559W        W 7230  21.236   9.769   0.310
35560W        W 7231  36.596  23.929  10.580
35561W        W 7232  13.385  12.123   2.157
35562W        W 7233   4.329  26.193  10.982
35563W        W 7234  36.157   5.769  10.667
35564W        W 7235  38.439  42.267   1.367
35565W        W 7236  14.706  38.488   3.306
35566W        W 7237  21.051  36.477  13.951
35567W        W 7238   0.854  32.284   4.786
35568W        W 7239  40.771  40.026   0.471
35569W        W 7240  37.896  36.488   1.471
35570W        W 7241  29.311   4.190   3.182
35571W        W 7242  12.611   0.556   0.465
35572W        W 7243  10.790  41.257  12.598
35573W        W 7244  40.486  19.599   4.384
35574W        W 7245   8.726  10.992   0.505
35575W        W 7246   0.242  37.650   4.115
35576W        W 7247  30.687   7.401  10.506
35577W        W 7248  34.506   8.388   1.757
35578W        W 7249   6.733   8.609   4.194
35579W        W 7250  23.019  23.166   2.657
35580W        W 7251   6.655   6.477   0.534
35581W        W 7252  16.209  14.262  10.777
35582W        W 7253  28.291  44.733  12.532
35583W        W 7254  19.483  14.202   2.920
35584W        W 7255  28.554  28.573   3.391
35585W        W 7256  32.935  20.939   0.910
35586W        W 7257  31.896  17.576  14.679
35587W        W 7258  23.538   3.649  11.527
35588W        W 7259   0.327  33.843   0.381
35589W        W 7260  18.082  35.631  14.588
35590W        W 7261  13.738  17.799  14.568
35591W        W 7262  17.754   9.571   3.750
35592W        W 7263  43.672  12.253   5.540
35593W        W 7264  43.778   5.855   2.766
35594W        W 7265   4.437  41.191  12.096
35595W        W 7266  36.237  18.155  14.429
35596W        W 7267  27.508  19.502  13.437
35597W        W 7268  16.343  18.620   1.226
35598W        W 7269  39.302  34.770   0.828
35599W        W 7270  43.019   4.435  13.818
35600W        W 7271  38.061  19.954   1.350
35601W        W 7272   4.967  34.555   1.224
35602W        W 7273  43.781  44.478  11.499
35603W        W 7274   1.524   7.283  14.887
35604W        W 7275  11.359  38.824   0.846
35605W        W 7276   7.712  14.392   9.876
35606W        W 7277   8.202  42.680  13.411
35607W        W 7278  33.831  22.036  14.897
35608W        W 7279  24.267  15.705   5.461
35609W        W 7280  29.093  15.622  14.374
35610W        W 7281  42.396  38.547   4.163
35611W        W 7282  36.065  17.487   1.678
35612W        W 7283   7.749  26.447  12.099
35613W        W 7284  35.419  43.097   4.134
35614W        W 7285   5.111  20.844   4.254
35615W        W 7286  15.425  22.162   2.700
35616W        W 7287   3.438  22.361   5.182
35617W        W 7288  26.998  17.507  11.486
35618W        W 7289  29.183  44.937   0.284
35619W        W 7290   0.907   0.386   1.703
35620W        W 7291  25.219  35.432  12.444
35621W        W 7292   7.805   0.498   4.640
35622W        W 7293  16.697  35.577  14.926
35623W        W 7294  12.723  25.238  13.012
35624W        W 7295  44.168  41.054   0.772
35625W        W 7296  19.717  23.218  11.506
35626W        W 7297  19.237   5.790   2.266
35627W        W 7298  12.116   1.843   4.584
35628W        W 7299   4.046  35.170  13.850
35629W        W 7300   5.169   4.146   1.202
35630W        W 7301   0.754  44.441   4.564
35631W        W 7302  39.673  18.344   3.240
35632W        W 7303  28.337  35.232   2.207
35633W        W 7304  32.994  10.867   0.997
35634W        W 7305  11.551  23.019  13.739
35635W        W 7306  23.041  35.821   3.191
35636W        W 7307  44.732  40.251  13.318
35637W        W 7308  43.355  39.367   4.669
35638W        W 7309  11.192  37.517   0.226
35639W        W 7310  31.617   4.434   2.499
35640W        W 7311  33.568  38.358   0.381
35641W        W 7312  17.106  30.420   3.367
35642W        W 7313  37.594  31.430  11.157
35643W        W 7314   9.215  29.433   0.898
35644W        W 7315  42.857  22.737   2.420
35645W        W 7316  34.959   7.364   4.121
35646W        W 7317  27.011   1.993   0.499
35647W        W 7318  44.535  15.827  13.954
35648W        W 7319  11.513  12.358  11.177
35649W        W 7320  13.410   6.338   2.859
35650W        W 7321  37.649   7.961  12.411
35651W        W 7322  17.240   6.325  10.078
35652W        W 7323   2.750  29.219  14.879
35653W        W 7324  34.042  41.600   2.181
35654W        W 7325  25.182  40.830  14.322
35655W        W 7326   5.838  10.049   1.923
35656W        W 7327   9.420  41.794   0.888
35657W        W 7328  16.817  29.927  10.766
35658W        W 7329   8.464  27.621   3.449
35659W        W 7330  42.849  18.857  11.541
35660W        W 7331   1.319  22.427  11.017
35661W        W 7332  32.251  39.233   1.699
35662W        W 7333   4.931  44.731   1.730
35663W        W 7334  30.877   7.707  13.533
35664W        W 7335  32.967  18.840   4.624
35665W        W 7336  34.203  26.969  14.854
35666W        W 7337   8.143  10.737  13.725
35667W        W 7338   0.754  43.099  13.411
35668W        W 7339  37.017  33.005  14.497
35669W        W 7340  17.734  19.222   3.606
35670W        W 7341  12.091  14.400   3.103
35671W        W 7342  18.827  19.505   0.677
35672W        W 7343  41.818  36.067   1.830
35673W        W 7344  17.039  35.044   0.375
35674W        W 7345  40.065  42.171   2.015
35675W        W 7346  16.152   4.409   9.682
35676W        W 7347  10.259  14.555  10.641
35677W        W 7348  12.216  31.997   0.797
35678W        W 7349  12.796  33.986   3.193
35679W        W 7350   9.855   9.282   0.315
35680W        W 7351  38.576  27.991   2.613
35681W        W 7352   7.290  21.538  11.956
35682W        W 7353  17.960   1.437   0.638
35683W        W 7354   7.491  38.989  11.192
35684W        W 7355  22.985  26.983  11.171
35685W        W 7356  34.632   8.306  12.618
35686W        W 7357   1.176  42.779   0.316
35687W        W 7358  39.264  17.753  13.206
35688W        W 7359   0.323  14.870   3.213
35689W        W 7360  36.372   6.804  12.103
35690W        W 7361  34.051  23.482   1.037
35691W        W 7362  15.173   7.220  14.773
35692W        W 7363  38.298  16.573   1.444
35693W        W 7364  31.858  40.532  14.824
35694W        W 7365  13.398  32.030   5.135
35695W        W 7366  32.525  10.843   1.216
35696W        W 7367  17.051   2.205  13.367
35697W        W 7368  11.516  25.022   4.120
35698W        W 7369  37.602  10.192   0.783
35699W        W 7370  33.909  27.005   1.803
35700W        W 7371  43.413   5.375  11.695
35701W        W 7372   9.841  41.169  14.965
35702W        W 7373  35.368  19.226  13.443
35703W        W 7374  37.106  30.672   0.329
35704W        W 7375  24.623  28.334   4.938
35705W        W 7376  34.094  33.979  14.056
35706W        W 7377  31.995  34.845   0.756
35707W        W 7378  15.204  10.808  11.512
35708W        W 7379  44.534  23.482  13.043
35709W        W 7380  37.502   1.435   1.162
35710W        W 7381  31.665  17.161  12.538
35711W        W 7382  34.273   6.412   1.519
35712W        W 7383   3.961  29.481  12.665
35713W        W 7384  42.378  25.581   0.268
35714W        W 7385  21.013  19.344   4.687
35715W        W 7386  41.158   6.440  12.574
35716W        W 7387  22.291  33.100  10.792
35717W        W 7388  44.764  14.237  11.706
35718W        W 7389  19.778  23.721   3.713
35719W        W 7390  17.179  29.852  11.216
35720W        W 7391   6.329  40.079  13.564
35721W        W 7392  36.859  44.715   1.304
35722W        W 7393  23.174   4.905  10.661
35723W        W 7394   6.468   6.303   1.483
35724W        W 7395  17.326  34.499  12.687
35725W        W 7396  15.133  33.595  14.061
35726W        W 7397   3.768  27.654  14.717
35727W        W 7398  32.050  18.332   4.743
35728W        W 7399  31.702  27.606  13.684
35729W        W 7400  43.905  24.596  13.887
35730W        W 7401  40.240   4.938  11.375
35731W        W 7402  44.356  27.201  13.408
35732W        W 7403  19.658  29.248  13.403
35733W        W 7404  28.479   0.443   2.610
35734W        W 7405  24.857  10.164  13.035
35735W        W 7406  36.102  22.571  13.853
35736W        W 7407  22.655  37.779   1.364
35737W        W 7408  18.680  44.692  12.039
35738W        W 7409  32.380  22.318   0.093
35739W        W 7410   4.551  30.717  12.422
35740W        W 7411  19.870   2.412   5.110
35741W        W 7412  39.610  33.148   0.459
35742W        W 7413   7.061   6.123  14.093
35743W        W 7414   4.967  31.454  14.447
35744W        W 7415  37.256  41.874   3.683
35745W        W 7416  34.394  10.782  11.989
35746W        W 7417  16.297  12.217   0.246
35747W        W 7418   4.940  23.025   3.021
35748W        W 7419  30.705  30.547  12.892
35749W        W 7420  31.988  27.820  11.705
35750W        W 7421  40.791  10.233   1.186
35751W        W 7422   1.020  28.860  12.557
35752W        W 7423  24.025  27.071   3.702
35753W        W 7424   2.555  10.195   2.890
35754W        W 7425  26.585  43.353   3.224
35755W        W 7426   1.580  30.330  13.495
35756W        W 7427   7.235   4.215  11.574
35757W        W 7428   0.834  35.056   2.174
35758W        W 7429  23.024  11.097  13.269
35759W        W 7430  39.039   6.016   1.783
35760W        W 7431  16.168  25.500   4.033
35761W        W 7432  35.458  43.278  12.123
35762W        W 7433  26.507  40.002   2.192
35763W        W 7434  19.753   8.327  11.132
35764W        W 7435  37.711   6.828   0.552
35765W        W 7436  44.323  27.640  14.514
35766W        W 7437  11.666  26.860   3.835
35767W        W 7438  43.599   9.612  11.368
35768W        W 7439  24.443   8.165  12.080
35769W        W 7440  21.967  35.909   0.382
35770W        W 7441  14.194  27.051  10.737
35771W        W 7442  44.103  13.718   3.726
35772W        W 7443   0.776  38.630   3.929
35773W        W 7444  37.917  13.878  10.700
35774W        W 7445  41.625  11.291   4.078
35775W        W 7446   0.314  31.012   0.920
35776W        W 7447  39.293  11.706   0.749
35777W        W 7448  44.760  20.780   4.964
35778W        W 7449  13.599  30.467  13.847
35779W        W 7450  35.982  39.365  14.349
35780W        W 7451   2.810  43.349  12.203
35781W        W 7452  22.772  18.822  11.140
35782W        W 7453  15.871  27.465  13.954
35783W        W 7454  12.041   3.246   2.382
35784W        W 7455   0.948   9.496  14.435
35785W        W 7456  40.875  35.916   1.969
35786W        W 7457  20.011  10.888   2.369
35787W        W 7458  11.464   0.985  12.044
35788W        W 7459  24.226   6.224  12.957
35789W        W 7460  16.816  21.112  14.263
35790W        W 7461   8.157  27.565  13.846
35791W        W 7462  20.763  28.874   4.534
35792W        W 7463   2.119  28.540   0.799
35793W        W 7464   5.512  22.466  14.026
35794W        W 7465  41.534  25.574   4.097
35795W        W 7466  18.850  30.680   4.240
35796W        W 7467  33.156  36.265   0.874
35797W        W 7468  12.218  17.735  11.646
35798W        W 7469  13.815   5.661   2.995
35799W        W 7470  33.032  15.703  14.841
35800W        W 7471  42.024  36.547   1.801
35801W        W 7472  20.325  13.747   0.937
35802W        W 7473   9.522  39.916   5.048
35803W        W 7474  25.299   6.382  11.872
35804W        W 7475  44.563  18.805  14.875
35805W        W 7476  30.391  41.078  13.852
35806W        W 7477  38.015   8.222   1.888
35807W        W 7478  42.643  30.318  11.965
35808W        W 7479  40.980  41.761   1.789
35809W        W 7480   3.313  34.571   3.912
35810W        W 7481  15.115  32.550   3.638
35811W        W 7482  13.109   2.771  14.876
35812W        W 7483  44.526  16.575  12.009
35813W        W 7484  16.494   3.519  13.650
35814W        W 7485  30.442  16.744  10.737
35815W        W 7486  28.977  35.189  11.116
35816W        W 7487  16.650  21.201  12.425
35817W        W 7488  18.147  35.826   0.191
35818W        W 7489   7.906  33.632   2.350
35819W        W 7490  23.054  13.238   0.260
35820W        W 7491  41.474  19.155   1.311
35821W        W 7492  14.514  33.066  13.109
35822W        W 7493  12.212  35.169  11.141
35823W        W 7494  36.455  39.587  12.298
35824W        W 7495  39.989  43.248   4.544
35825W        W 7496  38.897  15.081   0.860
35826W        W 7497   9.306  40.793  13.083
35827W        W 7498  15.565  18.556   2.447
35828W        W 7499   4.273  38.089   2.743
35829W        W 7500  16.089  39.977   3.632
35830W        W 7501   5.826  21.520  14.926
35831W        W 7502  16.196  43.745  11.756
35832W        W 7503  32.104   9.688   4.305
35833W        W 7504  41.364   0.494   3.588
35834W        W 7505   4.877  32.823  11.900
35835W        W 7506  36.589   9.238   4.706
35836W        W 7507  12.359  22.139   1.794
35837W        W 7508  41.114  25.490   2.815
35838W        W 7509  13.813   6.224   0.346
35839W        W 7510   5.932  40.863   0.302
35840W        W 7511  42.999   5.185   3.716
35841W        W 7512  12.801  25.039  11.632
35842W        W 7513  41.253  20.747   0.835
35843W        W 7514  32.525  35.663  13.353
35844W        W 7515  11.971  21.213  14.875
35845W        W 7516  40.980  41.995   0.416
35846W        W 7517   2.418  25.053  12.087
35847W        W 7518  14.786  27.628   2.867
35848W        W 7519  23.735  29.944  11.850
35849W        W 7520   7.747  29.447   0.805
35850W        W 7521   1.293  39.443  13.554
35851W        W 7522   7.375  17.763   0.450
35852W        W 7523  35.659   6.162  12.381
35853W        W 7524  40.020  23.254   4.373
35854W        W 7525   2.420  38.970  13.274
35855W        W 7526  13.209   3.731  13.068
35856W        W 7527  30.312   1.464  14.480
35857W        W 7528  14.834  19.011   3.224
35858W        W 7529  44.923  14.629   4.860
35859W        W 7530  40.876  32.236   1.901
35860W        W 7531  17.676   7.687  12.601
35861W        W 7532  26.187  42.078   1.275
35862W        W 7533   9.050  41.905  12.104
35863W        W 7534   9.632  12.684  12.410
35864W        W 7535  36.781   7.693   3.783
35865W        W 7536   2.904  41.294  14.772
35866W        W 7537  20.118  38.895  14.575
35867W        W 7538  11.869  23.802   0.494
35868W        W 7539   8.341  30.999  11.882
35869W        W 7540  25.681  12.755  10.491
35870W        W 7541   5.278  36.250   2.183
35871W        W 7542  17.227  38.412  12.510
35872W        W 7543  23.059  23.446   0.700
35873W        W 7544  11.854  30.189   3.803
35874W        W 7545  12.659   4.688  12.439
35875W        W 7546  24.011  44.957  11.526
35876W        W 7547  28.573  29.821  14.916
35877W        W 7548  24.315  10.247   4.202
35878W        W 7549   5.790  16.051  14.758
35879W        W 7550  13.109  40.746  11.948
35880W        W 7551  33.002  10.450  12.942
35881W        W 7552  32.843  17.579  13.489
35882W        W 7553  26.655  39.441  11.466
35883W        W 7554  37.095   4.157   4.127
35884W        W 7555  17.656  21.469   2.270
35885W        W 7556  43.420   5.760   2.368
35886W        W 7557  20.704   8.151   1.855
35887W        W 7558  41.237  43.943  13.923
35888W        W 7559  18.448  23.489   5.503
35889W        W 7560   2.942  10.624  13.888
35890W        W 7561  12.827  23.305   4.710
35891W        W 7562  17.327   6.505   4.697
35892W        W 7563  27.938  30.202   3.604
35893W        W 7564  20.501   9.702   3.025
35894W        W 7565   4.996  16.616  11.810
35895W        W 7566   4.370  19.682   3.096
35896W        W 7567  27.868  44.420  13.281
35897W        W 7568  17.192  39.259  11.504
35898W        W 7569   9.939   2.880   1.453
35899W        W 7570  15.282  22.054   2.187
35900W        W 7571  17.387  28.776   0.366
35901W        W 7572   7.482  34.346   4.003
35902W        W 7573  43.206  43.565   1.827
35903W        W 7574   5.685  29.404  12.866
35904W        W 7575   8.289   6.021  11.805
35905W        W 7576  14.071  19.325  13.997
35906W        W 7577  25.442   3.970   2.200
35907W        W 7578  17.250  25.048   2.094
35908W        W 7579  23.601  40.783  12.380
35909W        W 7580  42.853  16.300  10.668
35910W        W 7581   9.847   9.898  11.670
35911W        W 7582  27.364  18.762   4.232
35912W        W 7583   1.440  32.850   2.967
35913W        W 7584  41.323  41.486  14.809
35914W        W 7585  41.017  33.224   1.817
35915W        W 7586  44.633  35.364  13.574
35916W        W 7587  30.276  31.364  11.135
35917W        W 7588  36.617   3.221   4.184
35918W        W 7589  38.157  25.811   3.699
35919W        W 7590  12.736   1.420   2.712
35920W        W 7591  16.576   1.752   4.714
35921W        W 7592  22.928  28.314   1.003
35922W        W 7593  22.790  24.569  10.635
35923W        W 7594   7.618   4.282   4.179
35924W        W 7595  16.301  40.885   2.792
35925W        W 7596  11.855  30.900  14.353
35926W        W 7597  36.441  42.506   3.375
35927W        W 7598  32.137  13.300   0.345
35928W        W 7599   7.763  14.651  11.903
35929W        W 7600  39.786  19.562  11.143
35930W        W 7601  13.354  38.985  11.287
35931W        W 7602   4.941  26.940  14.335
35932W        W 7603   7.272  16.557   1.659
35933W        W 7604  36.159  43.950  12.994
35934W        W 7605  37.521  42.247  13.440
35935W        W 7606  12.545  34.857  10.643
35936W        W 7607  41.438  20.308   3.121
35937W        W 7608  38.962  10.086  12.083
35938W        W 7609  36.591  24.218   0.363
35939W        W 7610  33.519  16.111  14.584
35940W        W 7611  30.678  12.448   0.307
35941W        W 7612  43.368  26.870   2.369
35942W        W 7613  16.112  27.928   1.766
35943W        W 7614  14.321  15.046   4.431
35944W        W 7615  12.146   0.067  13.912
35945W        W 7616  25.840  12.213   4.811
35946W        W 7617  42.825   1.784   1.437
35947W        W 7618  29.474  25.945   0.878
35948W        W 7619  23.056  28.793  11.606
35949W        W 7620   4.455  27.833   0.782
35950W        W 7621  13.437  12.761  13.075
35951W        W 7622  41.042  23.102  13.392
35952W        W 7623  31.068  27.692  11.601
35953W        W 7624  16.613   5.213  14.108
35954W        W 7625  27.492  18.110  13.018
35955W        W 7626   8.554  17.612   2.841
35956W        W 7627  23.624  43.030   1.229
35957W        W 7628   9.701  35.079   1.436
35958W        W 7629  31.924  15.870  12.159
35959W        W 7630  11.594  43.341  12.001
35960W        W 7631  12.755   3.466   3.716
35961W        W 7632  39.049  25.415   3.835
35962W        W 7633  33.396   9.764  13.058
35963W        W 7634  15.961  20.473  13.900
35964W        W 7635  33.135  28.385  11.296
35965W        W 7636  31.551  18.686   3.115
35966W        W 7637  16.323   9.328  12.492
35967W        W 7638   5.277   7.922  14.871
35968W        W 7639  27.101   9.639   5.035
35969W        W 7640  43.622  29.502   3.806
35970W        W 7641  30.145  35.355  13.924
35971W        W 7642  28.624  25.875   0.514
35972W        W 7643   1.506  20.792  13.149
35973W        W 7644   9.869  43.480   2.792
35974W        W 7645  28.857  18.092   3.132
35975W        W 7646   3.469  29.091   0.553
35976W        W 7647   2.372   3.674  13.074
35977W        W 7648   6.404  15.878   5.031
35978W        W 7649  28.720  36.560  13.537
35979W        W 7650   2.163  10.813  12.933
35980W        W 7651   8.230  10.765   4.872
35981W        W 7652   1.688  29.085   4.125
35982W        W 7653  18.451   6.941   2.249
35983W        W 7654  15.709  17.801  13.115
35984W        W 7655   1.306  10.419  12.346
35985W        W 7656  16.559   1.902   3.849
35986W        W 7657  39.213  31.522  14.909
35987W        W 7658  40.825   3.520  14.265
35988W        W 7659  39.949  24.094   0.396
35989W        W 7660  30.097  17.544  13.514
35990W        W 7661  24.048  34.457   2.337
35991W        W 7662  14.381  25.030   4.643
35992W        W 7663   2.729  44.768   0.691
35993W        W 7664  29.251  43.575   1.304
35994W        W 7665  23.464  16.188   2.673
35995W        W 7666  36.307  28.132   3.330
35996W        W 7667  37.176  39.438  13.865
35997W        W 7668  40.786   4.157  10.597
35998W        W 7669  26.985  26.995   2.283
35999W        W 7670  16.963   5.078   4.645
36000W        W 7671   5.647  33.669  13.484
36001W        W 7672  44.986   1.456  14.885
36002W        W 7673  19.162  43.476   4.476
36003W        W 7674   3.231  42.810   3.796
36004W        W 7675  36.035  16.964  12.115
36005W        W 7676   3.212   1.817  11.870
36006W        W 7677  10.165  29.057   3.020
36007W        W 7678  23.511   3.391  14.321
36008W        W 7679   8.742  33.571  14.986
36009W        W 7680  11.398  26.662  14.710
36010W        W 7681  25.478  18.193   3.654
36011W        W 7682   0.401  15.785  14.534
36012W        W 7683  15.109  40.000  10.633
36013W        W 7684  23.237  44.847  12.074
36014W        W 7685  23.248  29.666   1.317
36015W        W 7686  11.815  21.730  10.813
36016W        W 7687  11.126  14.721   0.262
36017W        W 7688   6.199  43.951   4.223
36018W        W 7689  33.186   9.301  12.943
36019W        W 7690  40.932  19.508   4.657
36020W        W 7691  38.811  19.364  10.417
36021W        W 7692  32.464  24.164  13.889
36022W        W 7693   3.789  32.504  11.597
36023W        W 7694  24.289  44.822  12.039
36024W        W 7695   8.271  38.440   1.759
36025W        W 7696  15.841   7.247   1.685
36026W        W 7697  33.070  27.012  13.547
36027W        W 7698  32.494  28.704  12.083
36028W        W 7699  24.808  11.676   2.687
36029W        W 7700  33.991  38.989  10.046
36030W        W 7701  20.380  22.144   2.310
36031W        W 7702   3.313  30.270  12.105
36032W        W 7703   6.015  16.245  10.558
36033W        W 7704   0.160  30.241   0.473
36034W        W 7705  24.112   4.449  12.400
36035W        W 7706   2.779  39.463  14.424
36036W        W 7707  35.769  24.939  11.541
36037W        W 7708   8.099  17.372  13.422
36038W        W 7709   3.413   1.546   0.348
36039W        W 7710   8.969  41.289  14.705
36040W        W 7711  10.099  42.239   1.742
36041W        W 7712  26.678  16.019   1.679
36042W        W 7713  43.557   1.934   1.355
36043W        W 7714  27.029  39.558  13.331
36044W        W 7715  32.888  16.882  10.719
36045W        W 7716   2.403  34.933  11.227
36046W        W 7717   7.702  32.528  12.425
36047W        W 7718   8.263  13.141  13.340
36048W        W 7719  35.727  13.018   5.230
36049W        W 7720  29.851  19.056  11.105
36050W        W 7721  40.368  28.040   0.550
36051W        W 7722   8.320  38.361   0.463
36052W        W 7723  39.354  39.493  13.045
36053W        W 7724  29.550   7.189   0.394
36054W        W 7725   3.394   4.719  14.380
36055W        W 7726   9.019  38.006  13.004
36056W        W 7727  21.593  17.506  12.089
36057W        W 7728  40.508  33.916  11.190
36058W        W 7729   5.324  18.682  12.871
36059W        W 7730  26.690  42.350  12.923
36060W        W 7731  42.925  27.103   1.690
36061W        W 7732  44.337   9.328  12.281
36062W        W 7733  17.140  12.288  13.400
36063W        W 7734  43.888  43.284   0.217
36064W        W 7735  26.748  41.366   0.798
36065W        W 7736  19.534  33.740  13.498
36066W        W 7737   7.992  40.080  13.972
36067W        W 7738   0.372  14.357  14.012
36068W        W 7739  24.732  20.493  10.669
36069W        W 7740  10.870  32.941  13.332
36070W        W 7741  11.750  27.609   3.082
36071W        W 7742  32.974  31.163  14.019
36072W        W 7743  42.075   6.205   2.873
36073W        W 7744  33.654  17.303   0.032
36074W        W 7745  41.018  35.851  13.606
36075W        W 7746  37.065  24.485   4.102
36076W        W 7747  29.232   8.800   2.130
36077W        W 7748  33.830   3.869   4.263
36078W        W 7749  42.508  43.012  12.387
36079W        W 7750  12.534  18.429  14.489
36080W        W 7751  13.477  30.706   1.420
36081W        W 7752  30.059  12.039  13.849
36082W        W 7753  21.525  36.946   2.402
36083W        W 7754  37.344  42.360  14.307
36084W        W 7755  32.798  35.956  12.074
36085W        W 7756  18.560  28.944  11.502
36086W        W 7757   2.463   2.277   2.804
36087W        W 7758  22.994  30.338  13.050
36088W        W 7759  27.480  32.944   0.313
36089W        W 7760  22.451  36.110  10.990
36090W        W 7761  13.705  39.574   0.743
36091W        W 7762  23.619  34.871  12.845
36092W        W 7763  31.289   9.226  12.318
36093W        W 7764  42.452   6.589   4.062
36094W        W 7765  41.620   2.077  11.082
36095W        W 7766   1.782  26.993  10.444
36096W        W 7767  36.604  22.315  14.938
36097W        W 7768  20.173  41.350   0.349
36098W        W 7769  11.744   7.116   4.197
36099W        W 7770   7.252  28.043  11.619
36100W        W 7771  25.624  40.887   3.993
36101W        W 7772  39.733  12.399  14.824
36102W        W 7773  36.236   8.705   1.731
36103W        W 7774  33.129   6.175   1.372
36104W        W 7775  24.014   0.014   2.335
36105W        W 7776  40.800   1.866  13.527
36106W        W 7777  27.881  27.221  10.094
36107W        W 7778  15.171  42.834   1.032
36108W        W 7779  39.592  39.627  11.663
36109W        W 7780  13.547   3.278   1.707
36110W        W 7781  23.514  21.819  14.591
36111W        W 7782  20.601  14.493  12.777
36112W        W 7783   5.112   4.223  14.336
36113W        W 7784  17.935  12.365   4.306
36114W        W 7785  15.144  27.695   1.506
36115W        W 7786  15.820   1.316  14.704
36116W        W 7787  26.714   4.993   1.279
36117W        W 7788  25.266  17.584  13.105
36118W        W 7789  18.050  40.062   4.206
36119W        W 7790  18.888  39.605  14.704
36120W        W 7791  38.776  30.711  11.117
36121W        W 7792   1.722  20.331   9.827
36122W        W 7793  35.186  26.906   4.069
36123W        W 7794  38.549  30.481  10.708
36124W        W 7795  24.488  28.649   0.924
36125W        W 7796  24.042   1.977  13.928
36126W        W 7797  10.635  31.059  14.453
36127W        W 7798  32.510  35.798  13.890
36128W        W 7799   4.730   5.262   2.330
36129W        W 7800   2.389  43.702   0.641
36130W        W 7801  13.429  32.702   1.036
36131W        W 7802   7.268  22.457  12.023
36132W        W 7803  42.403  22.700   2.732
36133W        W 7804  27.667  21.645   2.829
36134W        W 7805  13.800   5.304   4.049
36135W        W 7806  38.022   1.032   0.338
36136W        W 7807  21.470  14.935   2.323
36137W        W 7808  17.889  13.143  13.464
36138W        W 7809  34.103  18.464   3.226
36139W        W 7810  26.332   5.309   1.956
36140W        W 7811  35.327  22.249  12.061
36141W        W 7812  44.960   8.375   0.287
36142W        W 7813   3.959  39.887  13.032
36143W        W 7814  42.355  44.867   4.258
36144W        W 7815  44.684  40.866  14.744
36145W        W 7816  41.840   9.325   3.847
36146W        W 7817  44.276  31.061   0.894
36147W        W 7818  22.983  27.768  10.633
36148W        W 7819  23.366  13.656   1.027
36149W        W 7820  27.640  15.139   2.666
36150W        W 7821  44.341  20.493   3.351
36151W        W 7822   8.310  27.590   0.931
36152W        W 7823  19.178  43.580   3.439
36153W        W 7824   7.836  14.673   3.531
36154W        W 7825  30.951  28.073  14.355
36155W        W 7826  40.712  29.066  12.260
36156W        W 7827  25.925  13.091  10.850
36157W        W 7828  41.379  40.358  13.798
36158W        W 7829  20.173  10.223   1.801
36159W        W 7830  13.913  14.803   4.064
36160W        W 7831  38.263   5.162   1.228
36161W        W 7832  15.305  39.883   1.347
36162W        W 7833  39.747   3.521   0.411
36163W        W 7834  29.159  42.644   3.871
36164W        W 7835   4.890   6.771   0.801
36165W        W 7836  20.511  44.434   0.784
36166W        W 7837  43.793  10.382  14.569
36167W        W 7838  24.754   6.720  13.841
36168W        W 7839   8.351  35.916  14.056
36169W        W 7840  35.773  36.356   0.302
36170W        W 7841  17.247  38.936  13.599
36171W        W 7842   6.641  27.050   0.456
36172W        W 7843  19.708  11.274   9.710
36173W        W 7844  13.669  24.260  14.858
36174W        W 7845  16.698  29.190   0.344
36175W        W 7846   8.238  15.882   0.908
36176W        W 7847  43.774  38.819   0.281
36177W        W 7848  30.990  27.118  14.209
36178W        W 7849  15.089  35.209  14.188
36179W        W 7850  31.750  43.456   3.648
36180W        W 7851  10.858  33.708  10.969
36181W        W 7852  20.491  23.966   4.759
36182W        W 7853   2.836  10.693   2.900
36183W        W 7854  34.549  44.810   3.709
36184W        W 7855   8.357  13.203   2.702
36185W        W 7856  11.115  40.100   2.205
36186W        W 7857  39.431  43.872  14.312
36187W        W 7858   7.683   0.406   3.627
36188W        W 7859  30.378   9.304  12.774
36189W        W 7860   7.172  11.270  13.494
36190W        W 7861  41.061   7.787   1.239
36191W        W 7862  15.626  28.436   0.998
36192W        W 7863  10.363   2.706  10.773
36193W        W 7864  34.005  26.232  10.528
36194W        W 7865   4.139  10.126  12.008
36195W        W 7866   8.410  27.180  11.662
36196W        W 7867  16.091   0.820  10.083
36197W        W 7868  40.558  30.713   2.357
36198W        W 7869  39.312  42.790  12.991
36199W        W 7870  23.702  35.828  12.415
36200W        W 7871  32.436  13.570   4.957
36201W        W 7872  23.485   1.021   1.988
36202W        W 7873  18.514  12.618   3.616
36203W        W 7874  13.702  10.140   4.601
36204W        W 7875  11.601   3.237   0.491
36205W        W 7876  11.279  42.412  12.126
36206W        W 7877   8.692  11.462  14.725
36207W        W 7878  35.086   3.314  14.299
36208W        W 7879  14.871  23.277   2.117
36209W        W 7880  10.744  13.969  11.935
36210W        W 7881  21.762  37.593  11.662
36211W        W 7882  16.475  26.434  10.695
36212W        W 7883   6.944  44.765  10.923
36213W        W 7884  39.395  25.584  14.487
36214W        W 7885  38.244   9.886  14.457
36215W        W 7886  22.034  42.684   3.963
36216W        W 7887  21.693  40.346   2.175
36217W        W 7888  35.581   0.250   1.684
36218W        W 7889   4.504  33.675   2.219
36219W        W 7890   9.793   1.743  12.629
36220W        W 7891  19.211   8.377  12.542
36221W        W 7892  19.243   2.394  12.059
36222W        W 7893  23.229  12.284   4.927
36223W        W 7894  35.578  25.394  14.879
36224W        W 7895  14.739  16.877  12.062
36225W        W 7896  38.524  44.208  14.020
36226W        W 7897   9.800  30.895   1.278
36227W        W 7898  19.210  36.618  10.670
36228W        W 7899  25.313  33.179  13.583
36229W        W 7900  10.837  17.410  10.416
36230W        W 7901  13.597  40.638   2.434
36231W        W 7902  28.042  28.517   3.173
36232W        W 7903   8.548  33.274   2.859
36233W        W 7904  43.694  35.063  11.355
36234W        W 7905  44.236  22.567   1.713
36235W        W 7906  22.025  11.907  13.477
36236W        W 7907   2.706  14.734   0.960
36237W        W 7908  35.972  27.139   3.677
36238W        W 7909   7.870  19.770  10.236
36239W        W 7910  30.508  37.597   2.354
36240W        W 7911  33.334  44.811   2.442
36241W        W 7912  11.666  25.541  11.168
36242W        W 7913   3.077  39.393   0.704
36243W        W 7914  37.068  39.052   3.066
36244W        W 7915   1.878   8.228   4.382
36245W        W 7916   4.978  25.155   0.970
36246W        W 7917  17.782  42.802  13.377
36247W        W 7918  39.284  38.068   4.065
36248W        W 7919  20.704  39.094  13.433
36249W        W 7920  33.857  29.936  12.891
36250W        W 7921  42.828   3.254  13.025
36251W        W 7922  31.730  25.859   4.577
36252W        W 7923   5.290   4.448  12.340
36253W        W 7924  13.843  12.795  13.384
36254W        W 7925   4.480   6.060   2.165
36255W        W 7926  23.570  26.884  10.430
36256W        W 7927  23.956  11.646  14.982
36257W        W 7928  42.250  37.084   0.936
36258W        W 7929  32.792  26.245  11.099
36259W        W 7930  27.663  41.299  13.821
36260W        W 7931  24.026  21.224  13.544
36261W        W 7932  22.959  27.235  12.554
36262W        W 7933  26.451   8.162   2.336
36263W        W 7934  27.746  37.002   2.277
36264W        W 7935  21.438   5.330  12.619
36265W        W 7936  20.529   1.412   5.057
36266W        W 7937   7.668  19.770   3.132
36267W        W 7938  14.238   3.507   1.863
36268W        W 7939   7.351  41.922   0.170
36269W        W 7940   3.901  30.393   2.168
36270W        W 7941  16.000  41.519  14.070
36271W        W 7942   1.652  34.538  12.878
36272W        W 7943  35.500  12.852   0.828
36273W        W 7944   9.147  37.331   0.438
36274W        W 7945  30.031  37.026   1.222
36275W        W 7946  35.429   3.920  13.886
36276W        W 7947  36.631  22.529   4.986
36277W        W 7948  35.329  23.701  13.863
36278W        W 7949   3.901  27.313  13.312
36279W        W 7950  31.562  25.258   5.025
36280W        W 7951  15.561  16.173  13.065
36281W        W 7952  21.531  26.605   2.207
36282W        W 7953  38.089  10.308   1.685
36283W        W 7954  31.541  39.104  14.297
36284W        W 7955  37.952  31.235   2.430
36285W        W 7956  39.911   5.964  11.367
36286W        W 7957  24.103  27.492   0.471
36287W        W 7958   9.231  15.989  11.590
36288W        W 7959   2.243  11.896   0.450
36289W        W 7960   9.173   0.962   3.239
36290W        W 7961   3.333   7.809  13.310
36291W        W 7962  42.839   7.927   2.901
36292W        W 7963  15.080  44.033  11.629
36293W        W 7964  21.004  44.425   3.153
36294W        W 7965  14.224   1.796  10.471
36295W        W 7966  39.395  44.867  13.958
36296W        W 7967   0.669   8.309  12.993
36297W        W 7968  23.720  15.772  10.982
36298W        W 7969  14.827  30.839  10.841
36299W        W 7970  34.427  40.280   4.589
36300W        W 7971  24.562  21.483  10.618
36301W        W 7972  14.800  31.578  12.047
36302W        W 7973  31.979  18.840  12.522
36303W        W 7974  44.861   6.820  13.374
36304W        W 7975   9.000  13.415  14.833
36305W        W 7976  11.296  10.296   4.929
36306W        W 7977  23.577  39.060  14.296
36307W        W 7978  40.631  20.688   0.013
36308W        W 7979  13.109  19.383   3.786
36309W        W 7980  11.202  20.778   1.559
36310W        W 7981   8.862  31.115   0.219
36311W        W 7982  43.007  36.172   0.490
36312W        W 7983   5.855  23.455  14.412
36313W        W 7984  17.102  24.946   4.983
36314W        W 7985  14.134  16.978   3.716
36315W        W 7986  14.129  34.587  11.112
36316W        W 7987   3.252  19.486  10.780
36317W        W 7988   8.808  32.388   3.622
36318W        W 7989   3.449   1.452  14.407
36319W        W 7990  35.570  44.786   0.879
36320W        W 7991  15.141  17.101  12.902
36321W        W 7992  41.502  15.885   4.626
36322W        W 7993  21.446  42.432   3.154
36323W        W 7994  27.008   7.899   4.665
36324W        W 7995  16.502  24.322  14.883
36325W        W 7996  32.325   6.808  12.509
36326W        W 7997  14.070   5.784  11.245
36327W        W 7998   1.390   1.246   3.724
36328W        W 7999  28.229  37.990  14.848
36329W        W 8000  39.344   9.311  14.911
36330W        W 8001  14.005  24.589  14.606
36331W        W 8002  19.581   2.722  13.416
36332W        W 8003  33.503  10.378   4.066
36333W        W 8004  20.174  17.006   1.470
36334W        W 8005  14.823  34.897  14.486
36335W        W 8006  39.986  31.511   3.804
36336W        W 8007  40.267  36.421   1.335
36337W        W 8008  39.479  34.137  13.894
36338W        W 8009  27.744  26.088  14.298
36339W        W 8010   0.750  27.739  11.048
36340W        W 8011  33.482  39.832   3.267
36341W        W 8012  25.669  35.054  14.915
36342W        W 8013  40.517   8.320  14.975
36343W        W 8014  28.968  21.134  13.524
36344W        W 8015  36.918  21.753  10.681
36345W        W 8016   2.514  32.049   5.038
36346W        W 8017   5.316   7.702   3.857
36347W        W 8018  40.820  28.767  10.598
36348W        W 8019   4.194  39.477  11.233
36349W        W 8020  14.205  12.184  12.055
36350W        W 8021  20.444  23.788   0.773
36351W        W 8022  10.659  18.763   0.882
36352W        W 8023  30.854  41.862   3.700
36353W        W 8024  21.496  15.833   2.840
36354W        W 8025  20.206   7.803  13.738
36355W        W 8026  20.512   4.426   3.212
36356W        W 8027   4.552  33.444  11.085
36357W        W 8028  28.954  43.222   0.787
36358W        W 8029   6.762  15.127   2.256
36359W        W 8030  32.007  39.964   1.034
36360W        W 8031  17.540  35.147   1.924
36361W        W 8032  34.183  38.387  12.400
36362W        W 8033  41.913  32.793  12.420
36363W        W 8034  17.243  21.055   3.608
36364W        W 8035  18.548  43.461  11.556
36365W        W 8036  42.500  44.176  14.906
36366W        W 8037  17.882  24.868   4.840
36367W        W 8038   8.083  19.195   0.786
36368W        W 8039  12.642  36.065   3.333
36369W        W 8040  43.534  31.467  11.946
36370W        W 8041  22.812  37.053   4.678
36371W        W 8042  43.274  37.049   0.827
36372W        W 8043  33.913   4.772  12.154
36373W        W 8044  44.851  12.254  13.474
36374W        W 8045  36.596  22.191   4.344
36375W        W 8046  37.103  27.647   3.216
36376W        W 8047  21.658  42.344  14.682
36377W        W 8048   1.486  22.225  10.577
36378W        W 8049  17.739  31.383   1.151
36379W        W 8050   6.549   8.588  14.448
36380W        W 8051  17.820  29.375  12.941
36381W        W 8052  10.283  26.513   0.877
36382W        W 8053  38.937  39.549   4.227
36383W        W 8054  25.017  36.039  12.698
36384W        W 8055   6.918  31.618  14.263
36385W        W 8056  31.535   3.899   1.221
36386W        W 8057   4.026  44.473   0.828
36387W        W 8058  17.221  11.479  14.248
36388W        W 8059   4.580  42.354  13.007
36389W        W 8060   6.379  29.580  11.631
36390W        W 8061   3.459  11.596  11.532
36391W        W 8062  30.373  26.160  12.844
36392W        W 8063  43.935   5.704  14.277
36393W        W 8064  25.562   3.786  14.943
36394W        W 8065  27.720  42.005  12.561
36395W        W 8066  41.395  31.108  10.765
36396W        W 8067  42.103  32.025   0.699
36397W        W 8068   4.230  20.867  11.530
36398W        W 8069  40.439   1.057   4.488
36399W        W 8070  16.574  29.024  12.963
36400W        W 8071  34.118  35.450  14.004
36401W        W 8072   1.546  35.680   4.135
36402W        W 8073  25.480   5.799   4.430
36403W        W 8074   9.021  41.052  13.414
36404W        W 8075  15.817  23.108   4.226
36405W        W 8076  42.689  25.681   1.070
36406W        W 8077  18.179  11.675  10.944
36407W        W 8078  43.403   7.758  12.305
36408W        W 8079  25.151   7.592   4.639
36409W        W 8080  17.370  13.256  12.597
36410W        W 8081  39.368   7.414   0.260
36411W        W 8082  17.672   4.740   1.867
36412W        W 8083  42.370  14.841  12.447
36413W        W 8084  11.617  39.831  11.059
36414W        W 8085  25.984  35.392   3.246
36415W        W 8086  43.285  28.965  10.854
36416W        W 8087  40.009  17.311  11.588
36417W        W 8088  11.393  12.013   0.770
36418W        W 8089  11.245  30.924   1.202
36419W        W 8090  30.955  35.974  12.217
36420W        W 8091  35.427  19.528   3.509
36421W        W 8092  19.745  28.114   0.378
36422W        W 8093  33.477  17.666   2.481
36423W        W 8094  12.674   4.836  10.597
36424W        W 8095   8.352   5.828   0.845
36425W        W 8096   2.335  30.021   2.213
36426W        W 8097  26.050  42.055  13.441
36427W        W 8098  39.348   7.093  10.761
36428W        W 8099  16.632  40.486  11.819
36429W        W 8100  24.091   7.330  14.885
36430W        W 8101  34.051  38.984   0.835
36431W        W 8102  36.785   5.873  10.678
36432W        W 8103  33.043  11.726   4.046
36433W        W 8104   4.904  40.612  12.576
36434W        W 8105  27.530   6.846  12.841
36435W        W 8106  35.714  34.111   0.863
36436W        W 8107  40.042  10.602  14.379
36437W        W 8108  18.462  11.190  13.368
36438W        W 8109  37.356  27.096   1.953
36439W        W 8110  44.864  31.306  10.930
36440W        W 8111   6.908  12.361   3.833
36441W        W 8112   9.074  27.008   3.587
36442W        W 8113  10.360  13.717   2.095
36443W        W 8114  40.325   5.315  10.587
36444W        W 8115  34.491  16.776  12.455
36445W        W 8116  11.792  26.597  10.239
36446W        W 8117  37.684  32.574   2.851
36447W        W 8118   0.695   1.525  10.524
36448W        W 8119  33.441  23.317   2.270
36449W        W 8120  32.398  15.481  13.887
36450W        W 8121   7.497  14.971  12.195
36451W        W 8122  21.650  29.752  13.633
36452W        W 8123  23.678  26.976  13.986
36453W        W 8124  29.903  17.086  11.186
36454W        W 8125  17.661  24.710  11.755
36455W        W 8126  43.739  22.760   0.917
36456W        W 8127  40.328  10.327  13.530
36457W        W 8128  12.355  35.878   1.348
36458W        W 8129  12.355  35.546   0.049
36459W        W 8130  12.100   0.828  11.129
36460W        W 8131  12.687  43.224   0.214
36461W        W 8132  43.408  15.382   0.882
36462W        W 8133  42.826  14.277   4.264
36463W        W 8134  27.211  12.942  11.084
36464W        W 8135  39.240  40.733   1.422
36465W        W 8136   2.319  39.662   2.786
36466W        W 8137  34.619  31.204   2.274
36467W        W 8138  14.845  15.110   4.418
36468W        W 8139  22.479  35.145   4.275
36469W        W 8140  38.146  23.179   2.695
36470W        W 8141  31.494   6.808   2.819
36471W        W 8142  27.971  34.051  14.010
36472W        W 8143  22.981  23.185   0.245
36473W        W 8144  15.065  34.050  13.799
36474W        W 8145  24.590  21.742   0.345
36475W        W 8146  20.332  32.859  14.518
36476W        W 8147  21.559  17.024   4.642
36477W        W 8148  36.947  43.328  14.002
36478W        W 8149  44.890  14.654   3.370
36479W        W 8150  22.027  14.956   0.243
36480W        W 8151   8.729  40.260   2.823
36481W        W 8152  28.138   1.433  13.980
36482W        W 8153   7.456   8.179  11.663
36483W        W 8154  13.137  35.975   0.900
36484W        W 8155  18.050   4.921  14.598
36485W        W 8156  19.999  15.296  11.147
36486W        W 8157  14.530  17.178  11.195
36487W        W 8158  21.141  31.919  14.890
36488W        W 8159  39.882  18.664   4.175
36489W        W 8160  43.419  33.116   2.907
36490W        W 8161  34.881  27.195   0.898
36491W        W 8162   9.039   7.252  13.885
36492W        W 8163  16.136  17.714  10.693
36493W        W 8164   0.517  32.454   0.459
36494W        W 8165  35.992  33.335   0.805
36495W        W 8166   0.883  19.065  14.876
36496W        W 8167  23.713   5.899   0.539
36497W        W 8168  32.503  31.407   2.895
36498W        W 8169  34.632  35.369   0.289
36499W        W 8170   9.543  22.091  10.640
36500W        W 8171  42.817  30.163   1.224
36501W        W 8172  21.983  20.789   1.808
36502W        W 8173  32.350   5.080   2.183
36503W        W 8174  19.250   8.886  10.729
36504W        W 8175  14.236  22.604  14.797
36505W        W 8176  22.633   3.318  12.522
36506W        W 8177  42.471   6.880  13.004
36507W        W 8178   2.401   1.445   4.585
36508W        W 8179  25.390   7.705   2.388
36509W        W 8180  12.726  42.196  11.441
36510W        W 8181  28.661   1.885   1.141
36511W        W 8182  18.775  44.422  10.420
36512W        W 8183  40.864   1.407  13.275
36513W        W 8184  36.463   0.364  13.065
36514W        W 8185  34.792  35.576  13.164
36515W        W 8186   5.165  12.807  11.993
36516W        W 8187   5.330  39.138  13.626
36517W        W 8188  11.155  34.046   0.936
36518W        W 8189  25.133   5.817   1.198
36519W        W 8190  44.345   2.055  14.280
36520W        W 8191  19.821  17.274  12.862
36521W        W 8192   1.864   9.016   3.344
36522W        W 8193  11.572  30.506  13.369
36523W        W 8194  44.001   5.382   2.890
36524W        W 8195   2.727  35.028  12.426
36525W        W 8196  10.410  25.551  11.974
36526W        W 8197  43.459  11.188  12.920
36527W        W 8198  28.420  40.452   2.101
36528W        W 8199  41.252  25.725  14.623
36529W        W 8200   4.805   5.223   0.807
36530W        W 8201   2.535  41.604  14.607
36531W        W 8202  40.967  11.644  11.461
36532W        W 8203   1.889  31.453  11.944
36533W        W 8204  11.260  16.180   2.781
36534W        W 8205  10.358  14.736   2.259
36535W        W 8206  30.070  11.438  11.482
36536W        W 8207  19.569  20.068   4.003
36537W        W 8208  16.597  13.755   4.415
36538W        W 8209  24.914  16.459  12.490
36539W        W 8210  44.475  42.402  13.119
36540W        W 8211  39.299  11.648  12.438
36541W        W 8212  21.234   3.190  13.612
36542W        W 8213   0.951  40.064   0.240
36543W        W 8214  17.080   6.748  12.786
36544W        W 8215  29.100  22.807   2.706
36545W        W 8216  36.372   3.979   2.296
36546W        W 8217  28.534  41.251  14.741
36547W        W 8218   1.902  19.119   2.816
36548W        W 8219  41.186  30.264  13.834
36549W        W 8220  18.549   0.883   2.660
36550W        W 8221  32.825  17.531  11.568
36551W        W 8222   1.071  18.529  14.280
36552W        W 8223  32.397  35.588   0.893
36553W        W 8224   4.562  27.224  14.778
36554W        W 8225  37.039  42.519   0.460
36555W        W 8226  23.704  40.130   4.587
36556W        W 8227   3.236  26.310   2.007
36557W        W 8228   8.171  19.644  11.804
36558W        W 8229  24.705  41.897  10.574
36559W        W 8230  27.803   1.945  10.952
36560W        W 8231   0.773   5.917  14.334
36561W        W 8232  17.178  11.389   2.278
36562W        W 8233  38.861   7.257   0.063
36563W        W 8234  12.391   8.938  10.917
36564W        W 8235   5.391  13.230   3.882
36565W        W 8236  20.589  38.145   5.421
36566W        W 8237   2.846  14.133   1.770
36567W        W 8238  32.498   2.252   2.829
36568W        W 8239   4.480  41.948  12.653
36569W        W 8240  29.742  40.290   1.741
36570W        W 8241  42.929  24.902   4.573
36571W        W 8242  39.432  34.567   0.366
36572W        W 8243  39.858  24.780  11.422
36573W        W 8244  25.200   0.465   3.787
36574W        W 8245  17.153  15.895   4.662
36575W        W 8246  11.130  37.932  13.460
36576W        W 8247  32.534  13.164  13.984
36577W        W 8248  26.728   8.139  14.795
36578W        W 8249  17.534  30.426   2.914
36579W        W 8250  14.801  19.356  11.941
36580W        W 8251   9.422  28.663  12.637
36581W        W 8252  27.908  40.435   1.872
36582W        W 8253  10.554  28.161  10.948
36583W        W 8254  43.721  31.413   2.341
36584W        W 8255  10.691  42.340   3.223
36585W        W 8256  40.860  16.672  10.721
36586W        W 8257  41.461  23.443  13.463
36587W        W 8258  35.535  19.516   0.856
36588W        W 8259   2.912  12.775  11.702
36589W        W 8260   9.900  32.387   5.284
36590W        W 8261  32.364  35.363   4.535
36591W        W 8262  14.183   3.024  11.871
36592W        W 8263   5.884  11.395   2.250
36593W        W 8264  19.520  17.124  12.453
36594W        W 8265  23.756  26.436  14.012
36595W        W 8266  28.411  32.876  11.903
36596W        W 8267  33.822  43.393   2.491
36597W        W 8268  27.627  38.606  12.469
36598W        W 8269  32.142  18.463   1.858
36599W        W 8270  19.975   3.526  13.287
36600W        W 8271  30.274   7.198   1.538
36601W        W 8272  16.640  35.397   0.396
36602W        W 8273  22.664  42.154   4.182
36603W        W 8274  40.010  19.825  12.883
36604W        W 8275   4.469  16.342  13.822
36605W        W 8276  31.260  20.178   2.719
36606W        W 8277  41.334  39.469   4.594
36607W        W 8278  12.109   4.019  14.566
36608W        W 8279  11.826  25.236  11.614
36609W        W 8280  26.668   4.743   0.782
36610W        W 8281  43.826  33.525   2.867
36611W        W 8282   7.750  35.089  14.061
36612W        W 8283  40.339   6.802  14.099
36613W        W 8284  28.923  29.745   2.769
36614W        W 8285   3.858  38.945  13.828
36615W        W 8286  26.264   7.438   4.472
36616W        W 8287  12.766  39.311   4.774
36617W        W 8288   8.402  16.426   3.744
36618W        W 8289  12.994  25.892  11.639
36619W        W 8290   4.848  13.834  11.995
36620W        W 8291   0.356  41.799  10.404
36621W        W 8292  26.197  39.855  12.570
36622W        W 8293  19.235  30.734   2.797
36623W        W 8294   5.249  33.300   0.997
36624W        W 8295  31.270   7.738  10.554
36625W        W 8296  31.103   1.252   2.616
36626W        W 8297  25.515  18.314   1.240
36627W        W 8298  18.640  25.722   1.240
36628W        W 8299   0.968   6.776   0.917
36629W        W 8300   4.313  33.072  14.553
36630W        W 8301  19.145  19.983   1.489
36631W        W 8302  36.452  17.231   2.348
36632W        W 8303  40.294   6.718  12.472
36633W        W 8304  33.486  11.572  11.371
36634W        W 8305   6.785  17.098  12.987
36635W        W 8306  19.565  25.411  12.070
36636W        W 8307  11.065  43.477  14.359
36637W        W 8308  44.272  27.824   1.896
36638W        W 8309  39.338  19.493  13.415
36639W        W 8310  27.219  14.495   0.044
36640W        W 8311   2.033   1.748   1.456
36641W        W 8312  26.075  41.648   2.199
36642W        W 8313   3.248  40.481   5.117
36643W        W 8314  18.472  13.275   0.902
36644W        W 8315  17.279  23.163   4.336
36645W        W 8316  11.198  22.953  12.126
36646W        W 8317  14.280  23.233   2.281
36647W        W 8318   7.742  35.883   1.894
36648W        W 8319  36.767  44.366  11.535
36649W        W 8320  32.159  33.345   2.872
36650W        W 8321  10.669  40.355  11.643
36651W        W 8322  28.465  28.045  13.808
36652W        W 8323  20.683  13.123  14.058
36653W        W 8324  18.989  15.550  10.411
36654W        W 8325  42.923  40.135   4.557
36655W        W 8326  36.530  11.536   1.059
36656W        W 8327   2.445  24.039   4.777
36657W        W 8328  23.607   0.079  14.449
36658W        W 8329  19.779   6.556   2.782
36659W        W 8330  13.528  14.288  10.582
36660W        W 8331  25.234  28.492   0.368
36661W        W 8332  18.059  30.496   3.634
36662W        W 8333  25.463  35.529   1.298
36663W        W 8334  12.399  10.634   2.207
36664W        W 8335  41.040  29.181  11.278
36665W        W 8336  20.695  28.051   4.214
36666W        W 8337  15.122  25.536  13.973
36667W        W 8338  43.386   4.853  10.662
36668W        W 8339  20.075  36.514  11.082
36669W        W 8340  25.461   8.708   4.512
36670W        W 8341  23.841  44.290   0.620
36671W        W 8342  16.385   3.493   2.359
36672W        W 8343  20.033  13.745   0.504
36673W        W 8344   0.977  27.410  14.927
36674W        W 8345  38.784   4.713   3.725
36675W        W 8346  15.694   5.884  12.646
36676W        W 8347   0.733  39.162   4.059
36677W        W 8348  37.503  13.664   1.338
36678W        W 8349   6.935  14.669   4.143
36679W        W 8350  10.162  17.617   2.131
36680W        W 8351  12.274  32.867  13.000
36681W        W 8352  35.049  24.236   4.590
36682W        W 8353  36.132  37.010  11.696
36683W        W 8354  42.215  42.751   4.169
36684W        W 8355  41.422   6.937  11.462
36685W        W 8356  41.569   4.929   2.220
36686W        W 8357  25.137  36.143   1.040
36687W        W 8358  25.876  38.745   2.406
36688W        W 8359  26.101  44.996  14.777
36689W        W 8360  10.678  17.945  14.860
36690W        W 8361  20.152  21.769   1.783
36691W        W 8362  29.145  14.128  13.349
36692W        W 8363  12.245   4.833   3.767
36693W        W 8364  41.037   7.263   3.707
36694W        W 8365   2.283  20.148  13.872
36695W        W 8366   1.467  26.247  10.468
36696W        W 8367  30.901  42.597   5.246
36697W        W 8368  29.909   5.506   2.950
36698W        W 8369  13.653  44.453  11.997
36699W        W 8370  26.602  34.705  12.360
36700W        W 8371  20.009  29.589   0.375
36701W        W 8372  30.337  18.586   4.133
36702W        W 8373   8.777  16.828  12.026
36703W        W 8374  36.546   1.215   0.829
36704W        W 8375  32.855  40.123  12.081
36705W        W 8376  10.898  18.859  13.979
36706W        W 8377  28.089  10.675   1.668
36707W        W 8378  35.807  17.150  10.772
36708W        W 8379   4.900  39.597  12.445
36709W        W 8380   0.867   8.445   0.355
36710W        W 8381   6.199  31.005   2.212
36711W        W 8382  16.871   3.772  14.947
36712W        W 8383  38.351  14.762  14.311
36713W        W 8384   7.773  20.540   1.979
36714W        W 8385  44.079  37.252   1.860
36715W        W 8386   2.053  15.045   0.462
36716W        W 8387  28.698   7.308  11.129
36717W        W 8388  40.858  41.345   3.641
36718W        W 8389   3.901  15.731  12.489
36719W        W 8390  25.518  20.203   0.669
36720W        W 8391  43.928  30.155  10.954
36721W        W 8392  33.535   8.394  11.502
36722W        W 8393  44.741   9.662  12.836
36723W        W 8394  38.424  21.199  10.925
36724W        W 8395   8.376  19.657   3.495
36725W        W 8396  31.287  14.374  12.892
36726W        W 8397  18.256  44.576   4.226
36727W        W 8398  14.134   9.804  14.375
36728W        W 8399  34.883   0.464   3.231
36729W        W 8400  14.070  32.419   1.335
36730W        W 8401  13.219   1.216  13.887
36731W        W 8402   6.564   5.209   4.069
36732W        W 8403  20.228  26.688  11.121
36733W        W 8404  30.482   0.755   3.771
36734W        W 8405  33.304  42.729   2.011
36735W        W 8406  15.197  13.285   4.758
36736W        W 8407  32.548  33.207  12.510
36737W        W 8408  13.677   6.947  11.244
36738W        W 8409   8.652  14.428   3.270
36739W        W 8410   8.186  12.472   2.392
36740W        W 8411  14.565  40.743   4.132
36741W        W 8412  16.401  14.118  13.026
36742W        W 8413  11.280  36.061   3.698
36743W        W 8414  36.774  23.061   4.504
36744W        W 8415  18.651   9.937  14.777
36745W        W 8416   7.649  11.398   4.258
36746W        W 8417  23.696  22.811  10.805
36747W        W 8418   3.256  15.936   4.592
36748W        W 8419  19.514  25.520  14.285
36749W        W 8420   5.674  12.295  10.707
36750W        W 8421  11.830  16.433   1.719
36751W        W 8422   2.168  15.137   1.053
36752W        W 8423   9.733  25.429  13.368
36753W        W 8424  32.400   2.767   0.368
36754W        W 8425  22.532  31.515  12.522
36755W        W 8426   6.429  23.843   1.852
36756W        W 8427  31.420   1.772  13.756
36757W        W 8428  29.031   5.172   4.656
36758W        W 8429  13.277  15.537   4.253
36759W        W 8430  10.889   0.912  11.443
36760W        W 8431  19.616  41.134  10.967
36761W        W 8432  37.367  13.374   2.780
36762W        W 8433  42.421  29.730  10.994
36763W        W 8434  37.029  22.581   1.878
36764W        W 8435  21.790  18.035   3.960
36765W        W 8436  35.962  25.800  13.041
36766W        W 8437   6.680  42.552   1.820
36767W        W 8438  31.248  35.341  11.759
36768W        W 8439  42.701   8.685  10.241
36769W        W 8440  35.852  42.935  14.333
36770W        W 8441  11.476   4.874   2.138
36771W        W 8442  40.290  35.949  13.013
36772W        W 8443  37.607  39.004  12.489
36773W        W 8444   3.872  29.922   3.669
36774W        W 8445  35.073   8.919  11.114
36775W        W 8446  32.966  38.666  11.994
36776W        W 8447  22.457  42.076  14.484
36777W        W 8448   0.499   3.935   2.726
36778W        W 8449  34.690  11.150  12.863
36779W        W 8450  40.086  41.992  10.616
36780W        W 8451  34.489   6.297   4.288
36781W        W 8452  13.062  39.077  14.124
36782W        W 8453  25.889  22.188  12.546
36783W        W 8454  30.714  34.323   4.269
36784W        W 8455  13.686  17.927  12.081
36785W        W 8456  44.438  37.082   4.155
36786W        W 8457  15.706  24.030   4.182
36787W        W 8458  31.289  10.005   4.100
36788W        W 8459  14.888   8.224  13.114
36789W        W 8460   6.041  35.254   2.785
36790W        W 8461  38.386  42.406   0.374
36791W        W 8462   2.031  38.345   3.330
36792W        W 8463  16.716  13.406   2.647
36793W        W 8464  38.810  43.560   2.346
36794W        W 8465  39.462  18.681   1.197
36795W        W 8466  21.652  38.514  14.548
36796W        W 8467  21.585  41.503   5.109
36797W        W 8468  43.992  23.298   4.230
36798W        W 8469  22.137  19.121  12.409
36799W        W 8470  11.885  34.920  12.377
36800W        W 8471  21.615  42.562  12.371
36801W        W 8472  16.243  21.745  10.931
36802W        W 8473  25.799  17.604  10.929
36803W        W 8474  14.965  22.314  13.510
36804W        W 8475  19.080   1.771   2.732
36805W        W 8476  13.083  36.637  11.265
36806W        W 8477  20.204  33.348  14.546
36807W        W 8478  23.034  16.251  11.470
36808W        W 8479  19.677  28.187   4.684
36809W        W 8480  42.033   2.202  11.403
36810W        W 8481  25.759  20.220  12.853
36811W        W 8482  42.022  29.131  12.812
36812W        W 8483  22.010  38.306   1.344
36813W        W 8484  11.284  10.789   1.332
36814W        W 8485   3.659  22.612  13.110
36815W        W 8486   3.387  24.453  12.090
36816W        W 8487  41.738  21.898   1.241
36817W        W 8488  23.793  38.992   1.586
36818W        W 8489  43.786  43.849   4.204
36819W        W 8490  23.092  38.104   4.052
36820W        W 8491  23.522  16.384  11.584
36821W        W 8492  26.099  10.312   1.956
36822W        W 8493  24.237  25.168  12.059
36823W        W 8494  15.759   8.010  13.565
36824W        W 8495  18.938  11.125   4.188
36825W        W 8496  27.654  15.251  14.767
36826W        W 8497  39.090  40.869   9.785
36827W        W 8498  20.612  34.916   1.865
36828W        W 8499   9.369  16.102  14.671
36829W        W 8500  40.467  25.583   3.314
36830W        W 8501  15.908  41.087   5.021
36831W        W 8502  10.140  12.508  14.919
36832W        W 8503  44.923   8.153   1.280
36833W        W 8504  18.939  25.770  13.871
36834W        W 8505   9.256  25.775   0.706
36835W        W 8506   2.433  22.430   2.756
36836W        W 8507  29.267   4.496  12.907
36837W        W 8508  42.437   0.451  12.509
36838W        W 8509  15.770   2.150  14.930
36839W        W 8510  18.387   7.134   9.893
36840W        W 8511  36.503  27.636  13.408
36841W        W 8512  32.973  33.123   2.607
36842W        W 8513  37.423  15.284   4.889
36843W        W 8514  38.064  39.528   1.891
36844W        W 8515  26.883  29.738  13.834
36845W        W 8516   1.434  18.837  14.021
36846W        W 8517   5.303   8.747  13.476
36847W        W 8518  35.908  37.430   0.752
36848W        W 8519   3.093  40.808   1.438
36849W        W 8520  39.337  20.193  14.307
36850W        W 8521  14.286  22.260   2.722
36851W        W 8522  13.656   5.392  14.240
36852W        W 8523  34.676  34.027   0.746
36853W        W 8524  39.494   5.810   2.130
36854W        W 8525  13.639   1.489  13.061
36855W        W 8526  29.875  38.633  12.125
36856W        W 8527   4.526  20.893  13.241
36857W        W 8528   3.265  22.600  10.886
36858W        W 8529  13.139  13.200  12.555
36859W        W 8530  11.611  27.951  11.002
36860W        W 8531  26.610  23.548   1.772
36861W        W 8532   8.246  44.587  10.147
36862W        W 8533  22.759  14.213   3.616
36863W        W 8534   5.405  10.718   1.491
36864W        W 8535  36.894   3.450  11.203
36865W        W 8536  26.265   8.370   0.024
36866W        W 8537  41.710  14.583  13.507
36867W        W 8538   9.078  21.160   1.056
36868W        W 8539  35.712  29.904   1.882
36869W        W 8540  26.894  12.484   2.281
36870W        W 8541  11.090  42.820   2.618
36871W        W 8542  24.695  34.907  14.808
36872W        W 8543  15.205   5.840   4.384
36873W        W 8544  27.863  44.750   1.632
36874W        W 8545   2.892  30.640   3.229
36875W        W 8546  12.133  23.418  13.019
36876W        W 8547  36.370  25.693   3.385
36877W        W 8548  20.231  12.572   4.178
36878W        W 8549  14.552  18.845  11.290
36879W        W 8550  30.879  21.293   3.328
36880W        W 8551  11.342  39.039  14.279
36881W        W 8552  39.853  11.291  10.694
36882W        W 8553  15.445  16.132  14.824
36883W        W 8554  10.947  34.432   4.873
36884W        W 8555  26.100  30.412  13.023
36885W        W 8556  30.967  31.027  12.837
36886W        W 8557   2.653   1.240   3.976
36887W        W 8558  18.110  19.534   1.358
36888W        W 8559  13.111   9.742   0.285
36889W        W 8560   0.491  29.723   1.395
36890W        W 8561   7.401  19.380  14.596
36891W        W 8562  18.075  34.193  14.023
36892W        W 8563   1.394  23.578   2.254
36893W        W 8564  15.330  36.366  12.944
36894W        W 8565  44.595  40.314   1.116
36895W        W 8566  10.370  29.620  12.068
36896W        W 8567  22.536  12.560  13.984
36897W        W 8568   1.201  19.442   5.512
36898W        W 8569  40.033  35.075  10.705
36899W        W 8570  28.342  26.218  12.890
36900W        W 8571  38.875   9.806   0.816
36901W        W 8572  39.546  32.488   4.453
36902W        W 8573   4.029  12.430   1.470
36903W        W 8574  27.265  28.245  11.143
36904W        W 8575   3.312  21.277   2.709
36905W        W 8576  38.807  15.948  12.071
36906W        W 8577  21.761  27.957  14.759
36907W        W 8578   0.248  43.340  11.991
36908W        W 8579   4.461  31.829   1.418
36909W        W 8580  18.544  26.120  12.467
36910W        W 8581  12.121   6.451  12.455
36911W        W 8582  21.296  24.973  14.293
36912W        W 8583   7.141   2.970   1.772
36913W        W 8584  29.130   4.669  11.564
36914W        W 8585  40.538   5.218   0.453
36915W        W 8586  40.929  39.377   3.226
36916W        W 8587  29.326  23.241   2.091
36917W        W 8588   0.448  38.843  12.330
36918W        W 8589  28.657  13.451   3.877
36919W        W 8590  35.228  16.595  11.139
36920W        W 8591   2.956   5.960   2.422
36921W        W 8592  12.183  43.174   0.157
36922W        W 8593  23.571  38.826  10.848
36923W        W 8594  12.323  17.406  14.370
36924W        W 8595  14.489  27.537   3.368
36925W        W 8596   3.281  23.979  13.018
36926W        W 8597  10.171   5.419   0.821
36927W        W 8598  36.264  12.843  10.343
36928W        W 8599  26.133  13.832  13.552
36929W        W 8600   9.338  29.061   2.176
36930W        W 8601  43.453   9.196   3.795
36931W        W 8602   8.402  28.195  13.598
36932W        W 8603  31.504  30.204  12.011
36933W        W 8604  20.686  16.012  11.131
36934W        W 8605  15.820   8.737  11.979
36935W        W 8606   5.768  36.570  11.314
36936W        W 8607   4.406  22.448   1.794
36937W        W 8608   5.127   4.160   2.695
36938W        W 8609  14.076  27.142   1.118
36939W        W 8610   7.327  21.954   0.960
36940W        W 8611  20.241  19.780   2.818
36941W        W 8612  36.884  36.834   5.559
36942W        W 8613  17.698  25.926   1.261
36943W        W 8614  21.837  30.499   3.870
36944W        W 8615   6.398   9.360  14.268
36945W        W 8616  12.514  18.486  13.612
36946W        W 8617  10.132  16.161  13.391
36947W        W 8618  25.756   4.797   0.224
36948W        W 8619  29.261  30.136   0.967
36949W        W 8620  23.364  42.329   0.353
36950W        W 8621  35.009  12.081   1.781
36951W        W 8622  42.254  31.605   0.972
36952W        W 8623  25.625   2.006   2.383
36953W        W 8624  31.036  42.302   3.466
36954W        W 8625  36.641  32.986   3.244
36955W        W 8626  28.224  25.661   2.332
36956W        W 8627  37.010   7.127  14.972
36957W        W 8628  19.297  42.760  10.538
36958W        W 8629  38.009  22.289   0.477
36959W        W 8630  12.366  37.490   2.436
36960W        W 8631  22.502  21.219   4.920
36961W        W 8632  41.060  31.663  11.262
36962W        W 8633  26.469  40.815  14.875
36963W        W 8634  24.314  32.454  12.855
36964W        W 8635  25.373  36.431  14.538
36965W        W 8636  33.595  15.394   2.425
36966W        W 8637  18.920   9.835  12.822
36967W        W 8638  36.829  15.772   9.975
36968W        W 8639  19.046   1.911  14.407
36969W        W 8640  27.412  10.322  12.873
36970W        W 8641   8.329  12.160   2.802
36971W        W 8642  12.707  22.161  13.915
36972W        W 8643  28.289  36.995   4.695
36973W        W 8644  27.165  44.363   4.357
36974W        W 8645  11.670  12.189   2.052
36975W        W 8646  29.959  35.545   0.739
36976W        W 8647  33.931  43.957  13.529
36977W        W 8648  22.426  44.802   4.954
36978W        W 8649  36.811  36.831  10.136
36979W        W 8650  11.392  33.570   0.446
36980W        W 8651   9.125   4.388   2.310
36981W        W 8652  35.106  35.856  14.162
36982W        W 8653  27.959  44.221  13.727
36983W        W 8654   6.687  38.869   1.819
36984W        W 8655  21.175  19.546   4.203
36985W        W 8656  19.203  22.268  11.648
36986W        W 8657   8.944  28.508  12.531
36987W        W 8658  25.378  11.833   4.139
36988W        W 8659   6.829  41.295  13.888
36989W        W 8660  34.382  28.542   3.675
36990W        W 8661   2.171  23.312   3.174
36991W        W 8662   0.459   2.414  12.107
36992W        W 8663  39.909   5.356  12.193
36993W        W 8664  29.597  35.941  10.913
36994W        W 8665  36.602  28.100  10.689
36995W        W 8666  36.910  39.889  13.902
36996W        W 8667  41.558  12.805   1.163
36997W        W 8668  38.869  36.057   1.925
36998W        W 8669  44.496  28.660  10.740
36999W        W 8670  30.426  26.032   0.265
37000W        W 8671  24.625  31.341   1.298
37001W        W 8672  32.452  24.757  11.248
37002W        W 8673  16.299  10.804   2.777
37003W        W 8674  36.578   4.872   4.599
37004W        W 8675  40.388   9.783  13.397
37005W        W 8676  43.344  39.437   2.783
37006W        W 8677  18.609  14.635  13.805
37007W        W 8678  33.281  26.086  11.060
37008W        W 8679  24.010  20.455   1.402
37009W        W 8680  30.031  16.467   2.796
37010W        W 8681  44.328  23.711   2.522
37011W        W 8682  40.927  16.103  13.748
37012W        W 8683  37.970  16.097   0.512
37013W        W 8684  23.062   8.407  13.956
37014W        W 8685  18.085  19.175  10.623
37015W        W 8686   5.334  24.660  12.499
37016W        W 8687  25.836   8.283  11.687
37017W        W 8688  26.751  27.608  11.565
37018W        W 8689   9.241   8.041  11.580
37019W        W 8690  37.539  23.078   1.390
37020W        W 8691  27.449  43.193  11.700
37021W        W 8692   5.178   7.293  10.472
37022W        W 8693  22.841  25.022  12.601
37023W        W 8694   5.479  31.620   1.245
37024W        W 8695  11.716  38.141  11.415
37025W        W 8696   2.297  20.121   1.659
37026W        W 8697   6.267  17.486   4.147
37027W        W 8698  22.497   2.926   0.775
37028W        W 8699  27.451  17.678   2.294
37029W        W 8700  27.626   6.858  11.516
37030W        W 8701  21.037   0.217   3.680
37031W        W 8702   3.863   6.125   1.404
37032W        W 8703  22.540   1.344   1.079
37033W        W 8704  35.115  34.671  13.420
37034W        W 8705  38.652  16.167  13.117
37035W        W 8706  37.010  38.889   3.554
37036W        W 8707  19.785   3.277   2.817
37037W        W 8708  29.449  33.266  13.053
37038W        W 8709  31.655   0.881  11.038
37039W        W 8710   5.126   5.153   2.771
37040W        W 8711  41.338  16.881   1.778
37041W        W 8712  24.797   0.398  11.558
37042W        W 8713  22.991  32.880   1.676
37043W        W 8714  16.513  11.345  12.522
37044W        W 8715  18.085  16.275   3.525
37045W        W 8716  33.424  38.786  14.809
37046W        W 8717  43.029  40.578  14.724
37047W        W 8718  26.102   8.427  12.681
37048W        W 8719  37.023  18.141  10.667
37049W        W 8720  15.565  21.645   4.055
37050W        W 8721   5.273  31.046   2.875
37051W        W 8722  13.030  41.754   1.655
37052W        W 8723  35.300  33.079   2.534
37053W        W 8724  21.142   2.844  10.788
37054W        W 8725  18.129  37.943   0.512
37055W        W 8726   9.752  13.087  12.723
37056W        W 8727  32.532  14.202  13.662
37057W        W 8728   9.741  31.049   0.373
37058W        W 8729  17.277  36.908   4.441
37059W        W 8730  39.335  34.768  10.714
37060W        W 8731  41.549   6.112   3.753
37061W        W 8732  43.803   3.691  11.522
37062W        W 8733  19.189  16.106  12.570
37063W        W 8734  10.741  37.492  10.136
37064W        W 8735  14.761  30.685   3.357
37065W        W 8736  29.954  28.143   3.798
37066W        W 8737  17.183   9.914  14.364
37067W        W 8738  13.756  40.702  11.651
37068W        W 8739   5.178  30.095   4.675
37069W        W 8740  12.035   8.855  14.089
37070W        W 8741  35.496  24.133   1.425
37071W        W 8742  30.994  23.524   3.874
37072W        W 8743  28.391  27.190   2.987
37073W        W 8744   6.353   2.309  13.178
37074W        W 8745  25.591  17.322  11.522
37075W        W 8746  21.222  17.693   4.762
37076W        W 8747  37.496   7.478  12.517
37077W        W 8748   9.329  41.726   4.581
37078W        W 8749  33.337  43.980   2.206
37079W        W 8750  14.549  15.155   2.733
37080W        W 8751  30.887   1.813   1.343
37081W        W 8752   6.228  11.115  14.987
37082W        W 8753  39.806  11.220  12.091
37083W        W 8754   6.238  22.169  12.798
37084W        W 8755  15.210   4.139   0.444
37085W        W 8756  10.013   5.991   0.819
37086W        W 8757  18.104  18.165   0.340
37087W        W 8758  37.016  12.130  14.854
37088W        W 8759   6.949  11.368   3.687
37089W        W 8760  23.211   4.299   4.518
37090W        W 8761  20.297  22.783  12.480
37091W        W 8762  20.589  20.248  12.458
37092W        W 8763  37.873  26.837  11.177
37093W        W 8764  27.568  42.378  12.910
37094W        W 8765  40.773   0.379  11.086
37095W        W 8766   1.896  38.123   1.626
37096W        W 8767   2.738  43.611  13.507
37097W        W 8768  42.929  36.600   4.512
37098W        W 8769  34.881  33.402  11.583
37099W        W 8770  39.239  18.633   5.033
37100W        W 8771   3.183  14.958  11.170
37101W        W 8772  44.015  10.298  13.649
37102W        W 8773  43.705  40.670  13.154
37103W        W 8774  33.491  39.501  12.149
37104W        W 8775   8.778  31.671  11.128
37105W        W 8776  41.383   9.236   1.656
37106W        W 8777  22.770  29.895   2.840
37107W        W 8778  14.638  35.365  14.504
37108W        W 8779  12.776  27.874  13.770
37109W        W 8780  39.859  23.707  13.885
37110W        W 8781   8.283  32.968  11.978
37111W        W 8782  18.038  31.685  12.157
37112W        W 8783  34.453  19.711   4.768
37113W        W 8784   8.647  41.227  11.637
37114W        W 8785  36.584   3.638   1.946
37115W        W 8786  33.654  13.492  11.323
37116W        W 8787  34.742  34.136  10.653
37117W        W 8788  18.041  11.954   0.392
37118W        W 8789  35.538   1.345   3.307
37119W        W 8790   7.152   4.784  14.428
37120W        W 8791  26.303  18.205  14.122
37121W        W 8792   3.781   7.407  12.502
37122W        W 8793  31.940  23.085  11.515
37123W        W 8794  41.055   2.503   0.993
37124W        W 8795  42.984  25.014   3.656
37125W        W 8796  32.887  44.492   2.577
37126W        W 8797  13.869  24.514  11.169
37127W        W 8798  41.251  29.451   4.038
37128W        W 8799   4.304  38.340   0.448
37129W        W 8800  38.005  37.185   4.238
37130W        W 8801  11.767  13.597  14.936
37131W        W 8802   9.179  43.318   4.989
37132W        W 8803  35.087  20.668  11.620
37133W        W 8804  27.623  11.065   2.863
37134W        W 8805  38.225   3.926   2.289
37135W        W 8806  36.180   0.545   2.531
37136W        W 8807  44.414  31.424   2.663
37137W        W 8808  24.510  15.650   0.445
37138W        W 8809  29.961  28.714  14.548
37139W        W 8810   9.769  16.875   0.888
37140W        W 8811  23.113  35.693   1.344
37141W        W 8812  22.416  18.591   4.190
37142W        W 8813  32.442  28.956   1.096
37143W        W 8814   5.010   7.991   3.570
37144W        W 8815  44.253  25.393   3.542
37145W        W 8816  44.426  10.701  13.801
37146W        W 8817  11.599   1.864   2.322
37147W        W 8818  34.712  24.947  13.000
37148W        W 8819  27.586   0.194   2.732
37149W        W 8820  20.253  12.407  14.403
37150W        W 8821  16.115   6.530  14.992
37151W        W 8822   2.207  26.171   3.086
37152W        W 8823  10.897   2.842  13.895
37153W        W 8824  17.209  40.643   0.791
37154W        W 8825  25.363  42.337   4.889
37155W        W 8826  21.215  13.747   2.392
37156W        W 8827  38.974   1.822   1.263
37157W        W 8828  31.012  11.048  10.370
37158W        W 8829  12.037   9.373   2.026
37159W        W 8830  19.946  25.315  10.286
37160W        W 8831   0.129   9.156   1.333
37161W        W 8832  20.509  16.363  11.474
37162W        W 8833  41.797  41.042  11.045
37163W        W 8834   5.361  20.454   4.487
37164W        W 8835   5.442  31.160   4.687
37165W        W 8836   3.776  13.286  10.640
37166W        W 8837  21.044   3.276   4.170
37167W        W 8838   1.380  12.915   4.587
37168W        W 8839   7.432  41.903  11.618
37169W        W 8840  34.153  21.274   1.834
37170W        W 8841  30.198  21.592  13.621
37171W        W 8842  13.670   9.773   1.513
37172W        W 8843  24.898  19.093  13.957
37173W        W 8844   8.867  34.534  10.486
37174W        W 8845  28.065  12.648  14.381
37175W        W 8846  31.384  29.101  13.850
37176W        W 8847  37.468  21.626   0.975
37177W        W 8848  38.483   6.036  12.957
37178W        W 8849  20.793  15.832   1.940
37179W        W 8850  32.512  39.503  11.037
37180W        W 8851   9.922  40.778   2.222
37181W        W 8852  26.320  10.764   2.785
37182W        W 8853   3.377  28.343   2.752
37183W        W 8854  37.519   1.794  11.173
37184W        W 8855  17.296  38.112   3.734
37185W        W 8856   1.817  28.706  14.834
37186W        W 8857  11.824  23.650  11.548
37187W        W 8858  16.875  34.450   1.905
37188W        W 8859  20.281  11.366  11.634
37189W        W 8860   1.259  10.365   2.310
37190W        W 8861   1.302  20.283   0.896
37191W        W 8862  29.535  41.264  13.479
37192W        W 8863  18.141  32.914  10.694
37193W        W 8864   3.281  40.772  12.542
37194W        W 8865  33.940   3.644  14.022
37195W        W 8866  24.466  21.074  13.335
37196W        W 8867   1.050  11.264   0.052
37197W        W 8868   4.506  33.953   3.715
37198W        W 8869   1.335  44.468  10.897
37199W        W 8870  26.802  29.153  12.032
37200W        W 8871  18.826  44.432  10.937
37201W        W 8872  27.717   2.244   1.898
37202W        W 8873  11.358   6.150   0.959
37203W        W 8874  31.893  30.351   4.248
37204W        W 8875   7.985   3.730   2.672
37205W        W 8876  15.966   1.256   0.623
37206W        W 8877  43.900   2.848  11.165
37207W        W 8878   7.861  38.906   4.122
37208W        W 8879   5.005   2.526  13.914
37209W        W 8880   6.374   7.647   1.460
37210W        W 8881  31.864  38.641   4.527
37211W        W 8882  11.447  29.907  14.356
37212W        W 8883  28.512  17.004   4.610
37213W        W 8884  22.098  14.132   4.931
37214W        W 8885  32.450  28.194  14.314
37215W        W 8886  21.808  21.161   4.251
37216W        W 8887  30.432   6.803   3.801
37217W        W 8888  44.313  40.925   4.179
37218W        W 8889   0.298   3.896   1.664
37219W        W 8890   4.262  34.127   0.104
37220W        W 8891  34.893  37.928  14.508
37221W        W 8892   5.283   5.935   0.992
37222W        W 8893  32.425  26.397  13.610
37223W        W 8894  23.514  17.538   2.655
37224W        W 8895  38.895  24.452  10.487
37225W        W 8896  31.667  26.690  10.054
37226W        W 8897  19.732  39.966   4.161
37227W        W 8898  29.549  37.914   2.215
37228W        W 8899  24.655  31.407  14.089
37229W        W 8900  19.709   0.205   3.822
37230W        W 8901  10.122  33.326   4.085
37231W        W 8902  27.439  16.150   1.101
37232W        W 8903  16.865  33.406  12.707
37233W        W 8904  14.162  38.472  12.589
37234W        W 8905   7.448   2.756  13.349
37235W        W 8906   6.277  38.346  13.018
37236W        W 8907  21.794  39.890   3.862
37237W        W 8908  11.837  43.793  14.953
37238W        W 8909  13.310   9.244   4.840
37239W        W 8910  31.912  32.501   4.799
37240W        W 8911  37.949  42.627  11.232
37241W        W 8912  11.757  27.242   3.457
37242W        W 8913  33.599  18.162   2.382
37243W        W 8914   3.415   1.178   4.163
37244W        W 8915  27.909  16.806  12.651
37245W        W 8916  23.053  17.483   0.431
37246W        W 8917  43.432  14.961  12.628
37247W        W 8918  27.757  38.522  14.246
37248W        W 8919  38.309  29.917  14.261
37249W        W 8920  27.131   9.721  14.704
37250W        W 8921   4.953  27.688  10.619
37251W        W 8922  44.652  44.940   3.781
37252W        W 8923  13.111   0.301   1.152
37253W        W 8924  16.009  29.520   2.807
37254W        W 8925  13.834  35.475  10.896
37255W        W 8926  40.759  31.679  13.780
37256W        W 8927  30.100  15.668  14.342
37257W        W 8928  19.194  12.645   3.108
37258W        W 8929  10.110   5.256  12.420
37259W        W 8930  33.865  38.012  14.434
37260W        W 8931  44.024  28.017   4.531
37261W        W 8932  32.402  23.075   4.261
37262W        W 8933  17.165  25.499   0.016
37263W        W 8934  37.161  33.437   3.670
37264W        W 8935  20.001  30.150  11.515
37265W        W 8936   4.869  13.569   4.650
37266W        W 8937  44.904  42.984  12.548
37267W        W 8938  18.881  21.581  12.444
37268W        W 8939  41.359  28.462  11.771
37269W        W 8940  24.254   5.238   3.656
37270W        W 8941   6.616  27.226  13.547
37271W        W 8942   4.699  17.727  12.925
37272W        W 8943   6.548   2.448  13.617
37273W        W 8944  13.313  19.599   4.955
37274W        W 8945  37.080  11.288   2.092
37275W        W 8946  41.508  31.195  13.825
37276W        W 8947  21.744   7.938  14.865
37277W        W 8948  15.791  30.490   1.129
37278W        W 8949  16.902  31.890   0.724
37279W        W 8950   8.813  18.529   3.676
37280W        W 8951  12.603  21.179   3.267
37281W        W 8952   4.820   6.934  12.566
37282W        W 8953   7.075  19.281  11.653
37283W        W 8954   8.827  29.633   4.072
37284W        W 8955   3.695  28.168   0.405
37285W        W 8956  28.994   6.666   2.405
37286W        W 8957  33.172  20.698  11.259
37287W        W 8958  41.447  37.439   1.014
37288W        W 8959   0.267   4.360   2.370
37289W        W 8960  12.670  41.602   2.940
37290W        W 8961   6.317  34.297   1.930
37291W        W 8962  35.191  21.247  12.992
37292W        W 8963  18.527   6.187   1.755
37293W        W 8964  33.208   2.450   1.761
37294W        W 8965  22.066  24.086  12.771
37295W        W 8966  17.608  11.423  13.632
37296W        W 8967  11.674  23.265  13.293
37297W        W 8968  12.892  14.698   3.159
37298W        W 8969   4.831  13.847   1.817
37299W        W 8970  29.509   5.728   2.223
37300W        W 8971   6.868  40.483  11.139
37301W        W 8972  35.295   7.827   1.891
37302W        W 8973  38.836  14.823   3.737
37303W        W 8974   9.225  22.479  12.397
37304W        W 8975  17.812  22.143  10.664
37305W        W 8976  33.154   6.400  14.902
37306W        W 8977  42.332  16.038  12.641
37307W        W 8978   2.166   1.706   4.990
37308W        W 8979  17.805  14.461  13.063
37309W        W 8980  31.700   4.378   4.007
37310W        W 8981  41.311   6.315   2.287
37311W        W 8982  16.998  33.399   0.989
37312W        W 8983   3.421   0.327   0.873
37313W        W 8984  28.696   3.664   0.734
37314W        W 8985   7.386  18.001   1.503
37315W        W 8986   0.548  21.014  11.197
37316W        W 8987  10.136   9.834  12.108
37317W        W 8988  31.300  41.358   1.450
37318W        W 8989  31.926  26.361  10.910
37319W        W 8990  10.348   9.254  11.459
37320W        W 8991   2.375  35.438  11.278
37321W        W 8992   4.953  31.125  11.707
37322W        W 8993  12.954   9.019   3.147
37323W        W 8994   8.755  35.235  14.385
37324W        W 8995  29.693  28.601   4.090
37325W        W 8996  34.147  27.930  12.622
37326W        W 8997  10.911  27.627  12.667
37327W        W 8998  19.316  43.257  14.333
37328W        W 8999   4.304  27.486   0.259
37329W        W 9000  22.292  43.480  13.230
37330W        W 9001   2.681  16.710  10.657
37331W        W 9002  16.304  19.267  11.129
37332W        W 9003   5.651  28.616  14.317
37333W        W 9004  41.451  37.634  12.473
37334W        W 9005  41.482  41.316   5.457
37335W        W 9006  13.532  16.039  11.614
37336W        W 9007  21.302  14.331   4.082
37337W        W 9008  30.624  14.720   4.453
37338W        W 9009  42.259   9.759  11.586
37339W        W 9010  21.144  19.876   3.218
37340W        W 9011  40.863   9.939   2.401
37341W        W 9012  31.460  15.282  14.317
37342W        W 9013   4.433  31.418  12.023
37343W        W 9014   7.313  27.119   4.402
37344W        W 9015  42.883  34.955  14.366
37345W        W 9016  31.800  11.603  11.539
37346W        W 9017  32.824  19.767  13.040
37347W        W 9018  40.818   0.728   1.362
37348W        W 9019  38.568  33.502   1.299
37349W        W 9020  35.062  30.789  11.101
37350W        W 9021  30.976  38.538  10.433
37351W        W 9022  21.692  35.624   4.124
37352W        W 9023   5.737  30.976   3.180
37353W        W 9024  12.825   7.743  11.378
37354W        W 9025  23.128  15.236  12.819
37355W        W 9026  10.639  11.419   1.757
37356W        W 9027   1.445  39.304   4.151
37357W        W 9028  42.023   1.796   2.782
37358W        W 9029   2.999  35.950  13.871
37359W        W 9030  26.989  40.861  14.094
37360W        W 9031  17.163  18.672   3.870
37361W        W 9032  13.726  21.192   0.913
37362W        W 9033   0.782  35.372  14.845
37363W        W 9034  38.333  35.829   0.858
37364W        W 9035   2.346   4.838   3.375
37365W        W 9036  27.246  34.365  14.929
37366W        W 9037   2.383   7.829   3.148
37367W        W 9038  40.908  43.326   4.812
37368W        W 9039  22.165   9.190  11.900
37369W        W 9040  14.276  13.350   3.227
37370W        W 9041  44.795  41.591   4.422
37371W        W 9042   1.855  34.089   2.856
37372W        W 9043  37.746   5.620  14.936
37373W        W 9044  31.264  34.861   4.286
37374W        W 9045   5.089  11.556  12.378
37375W        W 9046  30.992  19.612   1.501
37376W        W 9047  43.759  15.296  14.028
37377W        W 9048   4.914  35.962  11.301
37378W        W 9049  44.947  23.906   4.164
37379W        W 9050  14.853  28.533   4.198
37380W        W 9051  38.287   8.542  13.773
37381W        W 9052  40.357  44.523   1.005
37382W        W 9053  29.092  42.520   4.699
37383W        W 9054   1.916  43.007   4.220
37384W        W 9055  27.558  30.450  13.381
37385W        W 9056  34.943  19.460  12.018
37386W        W 9057  24.020  34.613  14.911
37387W        W 9058  19.522   5.614  11.195
37388W        W 9059  29.117  32.390   3.598
37389W        W 9060  12.091  31.022   0.502
37390W        W 9061   0.359  13.902  10.659
37391W        W 9062   7.155  21.241   0.211
37392W        W 9063  42.029   7.821  12.155
37393W        W 9064  27.154   7.950  11.064
37394W        W 9065  23.167   1.534  13.777
37395W        W 9066  22.490  29.519  12.024
37396W        W 9067   6.674  41.794  13.987
37397W        W 9068   1.041  12.718  11.661
37398W        W 9069   4.739  11.772   4.142
37399W        W 9070  26.349  34.303  14.473
37400W        W 9071  23.564  40.266   0.344
37401W        W 9072   7.140  28.964   3.698
37402W        W 9073  32.174  25.910   3.174
37403W        W 9074  28.458  11.196   3.102
37404W        W 9075  37.441  14.542  11.969
37405W        W 9076  23.250  15.845   2.314
37406W        W 9077   3.277  34.428   4.812
37407W        W 9078  19.130  28.877  11.205
37408W        W 9079  14.067  42.315   0.305
37409W        W 9080   2.496  16.199  13.560
37410W        W 9081  15.320  21.665  12.471
37411W        W 9082  43.277  29.668  11.958
37412W        W 9083  42.524  20.072  14.934
37413W        W 9084  10.265   8.696   3.750
37414W        W 9085   7.223  14.467   1.815
37415W        W 9086  38.429  34.069   2.868
37416W        W 9087  13.743   5.161  11.498
37417W        W 9088  18.078  34.568   4.178
37418W        W 9089  18.563  16.669  10.779
37419W        W 9090  13.619  17.823   4.194
37420W        W 9091  22.659  20.567  13.462
37421W        W 9092  25.656   5.999  14.598
37422W        W 9093  30.104  44.666   2.731
37423W        W 9094  43.484  25.758  13.456
37424W        W 9095  28.101  32.331   4.023
37425W        W 9096  20.678  38.443   4.981
37426W        W 9097   9.636   4.957   1.271
37427W        W 9098   2.682  38.377  11.194
37428W        W 9099  13.877   1.366   2.300
37429W        W 9100   9.203  15.198  12.611
37430W        W 9101  32.729  42.255  12.986
37431W        W 9102   5.390  13.491  12.687
37432W        W 9103   9.829  39.145  12.378
37433W        W 9104  37.163  41.527   4.090
37434W        W 9105  31.359  17.501  14.828
37435W        W 9106  38.569  12.925   0.951
37436W        W 9107  35.196  31.785   0.666
37437W        W 9108  22.659  19.503  10.580
37438W        W 9109  16.169   5.973   2.833
37439W        W 9110  42.817  18.317  14.806
37440W        W 9111  18.354  39.670  11.009
37441W        W 9112  18.899  28.648  13.017
37442W        W 9113  29.550  43.907   4.351
37443W        W 9114  13.098   7.366  13.940
37444W        W 9115  34.616   3.726   2.191
37445W        W 9116  30.671  10.950   4.545
37446W        W 9117  17.383  38.153  12.954
37447W        W 9118  42.740  32.947   2.601
37448W        W 9119  29.540  37.101  14.776
37449W        W 9120   4.312  23.926   3.652
37450W        W 9121   3.990   0.484  12.976
37451W        W 9122  19.390   5.975   0.388
37452W        W 9123   6.216  19.586   0.561
37453W        W 9124  32.960  42.016  11.790
37454W        W 9125   8.838   7.169  12.108
37455W        W 9126  28.030  10.781  13.819
37456W        W 9127  37.854  26.295  12.854
37457W        W 9128   0.359  44.266  12.055
37458W        W 9129  32.408  21.628  14.536
37459W        W 9130  20.388  33.522  12.932
37460W        W 9131   6.107   0.859   2.803
37461W        W 9132  29.128  39.741  13.784
37462W        W 9133   8.707  20.520  10.562
37463W        W 9134  24.573  19.467   4.584
37464W        W 9135  34.806  25.595  12.492
37465W        W 9136  43.903  21.164  14.368
37466W        W 9137  14.751  19.270  12.426
37467W        W 9138   6.900  33.895  10.867
37468W        W 9139  17.535  39.990   2.694
37469W        W 9140  20.664  21.622   1.892
37470W        W 9141   2.678  31.222  10.704
37471W        W 9142  40.342  42.501   2.861
37472W        W 9143   7.445  23.221  14.536
37473W        W 9144  41.771   3.336  14.027
37474W        W 9145  30.493  27.548   2.789
37475W        W 9146  25.524   0.956  13.803
37476W        W 9147  41.527  40.771   4.721
37477W        W 9148  10.612  33.501   4.114
37478W        W 9149   1.406  31.629   1.985
37479W        W 9150  35.833  25.552   3.336
37480W        W 9151  38.856  35.543   1.495
37481W        W 9152  37.459  35.753  11.509
37482W        W 9153  15.112  21.296  10.483
37483W        W 9154  34.671  35.418   1.841
37484W        W 9155  32.952  12.388  11.070
37485W        W 9156  26.070   3.276   0.716
37486W        W 9157  31.929   2.947   2.647
37487W        W 9158   3.924  17.758  14.959
37488W        W 9159  32.648  42.679  10.966
37489W        W 9160  13.751  17.357   2.281
37490W        W 9161  22.499   4.624  10.613
37491W        W 9162  21.706   2.027   2.529
37492W        W 9163   5.919  27.628  10.613
37493W        W 9164  25.698  22.227   4.041
37494W        W 9165  22.024  22.197  11.498
37495W        W 9166  37.347  24.930  11.081
37496W        W 9167  28.497   1.407   2.016
37497W        W 9168  31.807   1.855  12.820
37498W        W 9169  11.904  44.055   3.821
37499W        W 9170  44.386   3.475  12.060
37500W        W 9171  43.395  44.422   9.878
37501W        W 9172  32.683   7.812   4.069
37502W        W 9173  11.594  13.141   2.810
37503W        W 9174  18.202  17.764  12.038
37504W        W 9175  13.175   4.775   3.649
37505W        W 9176  10.925   9.321  12.538
37506W        W 9177  29.564  25.067  12.514
37507W        W 9178  40.777   1.783   3.132
37508W        W 9179  19.831  44.432   2.744
37509W        W 9180  18.778  29.221   2.717
37510W        W 9181  30.112  18.201  12.171
37511W        W 9182   9.705  28.043   3.244
37512W        W 9183  13.579  20.723  10.609
37513W        W 9184  39.226  31.977  14.626
37514W        W 9185  26.425  35.630  11.725
37515W        W 9186  15.538  19.554   1.397
37516W        W 9187   6.072  42.814   0.318
37517W        W 9188   6.692  14.224   5.009
37518W        W 9189  21.256  42.446   0.031
37519W        W 9190  14.151  39.583  12.104
37520W        W 9191  29.892   2.455  11.452
37521W        W 9192  31.083  17.686   1.270
37522W        W 9193  10.175  31.408  13.921
37523W        W 9194   3.437   3.638   1.867
37524W        W 9195   0.508  24.110  14.107
37525W        W 9196   0.463  13.606   0.427
37526W        W 9197  44.967  32.071   4.730
37527W        W 9198   9.654  21.746  14.880
37528W        W 9199   8.440  12.685   2.793
37529W        W 9200  26.653  40.039   1.272
37530W        W 9201   7.479   8.168   1.824
37531W        W 9202  23.338  20.132   1.762
37532W        W 9203   8.550  29.190  14.893
37533W        W 9204  34.040  24.405   2.802
37534W        W 9205  11.632   8.446   1.504
37535W        W 9206   1.576   4.403  11.573
37536W        W 9207  32.583  10.390   3.210
37537W        W 9208  18.344  32.548   3.059
37538W        W 9209  22.811  43.665   1.250
37539W        W 9210  18.151  27.878  13.421
37540W        W 9211   5.490   2.783  11.897
37541W        W 9212  20.026  41.458   1.436
37542W        W 9213  35.309  16.466   3.180
37543W        W 9214   6.335  19.635  11.150
37544W        W 9215   3.292   0.764   2.598
37545W        W 9216  34.162  22.158   3.032
37546W        W 9217   3.658  37.803  11.039
37547W        W 9218  15.807   6.851  10.996
37548W        W 9219  27.575  29.913  13.342
37549W        W 9220  24.060  19.020  11.065
37550W        W 9221  31.343  17.602  12.014
37551W        W 9222   9.373  27.308   2.420
37552W        W 9223  14.289  11.323   0.783
37553W        W 9224  36.421  33.806  10.093
37554W        W 9225  22.031  38.747  13.447
37555W        W 9226  11.318  24.992   0.454
37556W        W 9227   6.916  29.984   1.182
37557W        W 9228   9.384  40.014   4.104
37558W        W 9229  30.055  43.697  11.641
37559W        W 9230  18.115   3.835  11.641
37560W        W 9231  32.049  39.142  13.970
37561W        W 9232  26.417  16.345   1.371
37562W        W 9233  40.776  10.334   4.384
37563W        W 9234  31.002  37.295  12.657
37564W        W 9235  27.210  24.692   3.456
37565W        W 9236  39.818  42.424  14.196
37566W        W 9237  14.772  29.062   4.363
37567W        W 9238  43.020   8.203   0.360
37568W        W 9239  33.496  20.495   1.663
37569W        W 9240  10.176   5.097  10.731
37570W        W 9241  35.904  30.611  14.112
37571W        W 9242  12.571  28.453  14.788
37572W        W 9243  22.021  38.665  12.387
37573W        W 9244  12.541  24.932  13.835
37574W        W 9245  10.949  20.924   3.609
37575W        W 9246   7.946  23.175  10.794
37576W        W 9247  22.957   6.709   3.225
37577W        W 9248  44.151   3.851  10.945
37578W        W 9249  14.337  23.565   2.896
37579W        W 9250  15.301  11.601   0.880
37580W        W 9251  35.090   9.093  11.607
37581W        W 9252  26.938  16.816  12.297
37582W        W 9253  16.972  26.023  13.461
37583W        W 9254  20.481   2.652   0.586
37584W        W 9255   4.289  17.361  12.922
37585W        W 9256   5.889   7.717   0.793
37586W        W 9257  36.488  19.288  13.865
37587W        W 9258  29.951  43.033  14.242
37588W        W 9259  15.746  40.698   5.310
37589W        W 9260   5.879  14.638   2.139
37590W        W 9261  24.996  29.046   1.472
37591W        W 9262  27.415   6.124  11.940
37592W        W 9263  14.074  34.693   2.413
37593W        W 9264  42.429  15.627   2.825
37594W        W 9265  35.689  36.413   1.676
37595W        W 9266  32.375   8.196   0.810
37596W        W 9267  20.660  10.352   4.887
37597W        W 9268  34.209  16.318  12.348
37598W        W 9269  15.597   4.641   4.631
37599W        W 9270  18.009  31.192   3.017
37600W        W 9271  16.489  36.835   0.506
37601W        W 9272   0.656  23.136   0.387
37602W        W 9273  25.937  41.766  10.782
37603W        W 9274  44.889  13.326  12.780
37604W        W 9275  26.266  12.187  14.481
37605W        W 9276  19.660  10.324   0.708
37606W        W 9277   9.571   7.869   2.820
37607W        W 9278  34.809   5.598   4.020
37608W        W 9279  10.105  19.175  11.439
37609W        W 9280  29.312  11.746   2.817
37610W        W 9281  34.750  44.478  11.618
37611W        W 9282  24.613   7.418  14.844
37612W        W 9283  43.599  43.384  13.786
37613W        W 9284  19.228  38.849   1.244
37614W        W 9285   3.842  12.085   3.295
37615W        W 9286  44.516   1.728  14.981
37616W        W 9287  12.970   6.216  12.167
37617W        W 9288  22.046  39.567   0.865
37618W        W 9289  30.056   1.042   3.629
37619W        W 9290  42.483  26.039   3.284
37620W        W 9291  43.877  20.611   0.311
37621W        W 9292   1.598   6.982  13.872
37622W        W 9293  26.407   9.590   0.884
37623W        W 9294  20.556  39.102  12.536
37624W        W 9295  25.154  10.984   0.938
37625W        W 9296  15.174   9.485   3.505
37626W        W 9297   2.253  20.504   4.054
37627W        W 9298  44.924  34.785  13.013
37628W        W 9299  17.288  35.835   0.839
37629W        W 9300  18.200  11.167   2.342
37630W        W 9301  26.781  26.976  11.878
37631W        W 9302  43.776  16.174  11.649
37632W        W 9303  18.187  16.893  12.906
37633W        W 9304  21.435   3.862  12.040
37634W        W 9305  35.376  35.965  11.038
37635W        W 9306  12.276  41.734   0.359
37636W        W 9307  12.222   1.999   0.382
37637W        W 9308  22.734  38.428   1.880
37638W        W 9309  28.222   1.904  12.149
37639W        W 9310   1.206  41.873  14.477
37640W        W 9311  34.286  30.876  11.518
37641W        W 9312   4.786  38.912  14.198
37642W        W 9313  21.769  24.497   4.985
37643W        W 9314  12.239  15.754   0.188
37644W        W 9315  21.986  32.854   2.461
37645W        W 9316   2.983  31.861  14.989
37646W        W 9317  41.274  26.674  11.098
37647W        W 9318  42.342  30.637   0.357
37648W        W 9319   0.755   3.588  13.600
37649W        W 9320  44.315  37.436  14.045
37650W        W 9321  22.045  12.470  11.505
37651W        W 9322  14.729  18.845   1.238
37652W        W 9323  20.219  32.034  10.519
37653W        W 9324  43.276  27.355  13.032
37654W        W 9325   5.800  31.577   4.672
37655W        W 9326  20.967  33.934   4.567
37656W        W 9327   6.842  28.012   3.324
37657W        W 9328  20.527  41.993  12.433
37658W        W 9329   1.844   8.307   1.139
37659W        W 9330  33.527  18.004  12.874
37660W        W 9331  23.550  40.708   5.304
37661W        W 9332  23.706   2.770   1.690
37662W        W 9333  29.441   5.675  11.076
37663W        W 9334  36.615  33.888   3.226
37664W        W 9335  24.671   9.742  12.811
37665W        W 9336   7.936  20.569  14.344
37666W        W 9337  27.190  36.056  13.144
37667W        W 9338  37.517   5.986   4.175
37668W        W 9339   7.840  23.813   2.557
37669W        W 9340  41.242  43.569  12.621
37670W        W 9341  42.841   8.378  12.807
37671W        W 9342  18.307  32.832   3.740
37672W        W 9343  18.171   0.906  13.901
37673W        W 9344  18.222   2.470   3.399
37674W        W 9345  33.373  37.966  12.289
37675W        W 9346  36.027  29.897   4.716
37676W        W 9347  42.837  13.691  10.155
37677W        W 9348  21.675  44.368  11.831
37678W        W 9349  28.766  12.611   3.227
37679W        W 9350   9.212  27.650  14.542
37680W        W 9351  43.392  25.122  10.474
37681W        W 9352  14.685  32.153  14.845
37682W        W 9353  35.002   1.902   3.368
37683W        W 9354   1.314  29.278  11.698
37684W        W 9355   6.561   7.818   4.464
37685W        W 9356  36.620  19.528  13.406
37686W        W 9357  14.615   2.457   3.435
37687W        W 9358  22.257   3.430   3.782
37688W        W 9359  18.078  30.727   0.380
37689W        W 9360  44.273  22.255  10.425
37690W        W 9361   9.008  35.959   5.072
37691W        W 9362  28.768  36.472  11.382
37692W        W 9363  41.325  13.694   1.824
37693W        W 9364  38.381  44.511   2.128
37694W        W 9365  40.314  11.125   0.426
37695W        W 9366  13.555  28.740  11.575
37696W        W 9367  14.783  35.978   2.853
37697W        W 9368  27.566  40.503  13.434
37698W        W 9369  30.447  41.504   4.771
37699W        W 9370   3.010  21.619  13.585
37700W        W 9371  27.710  43.790  12.335
37701W        W 9372  38.003  17.087  12.333
37702W        W 9373  36.258  11.278  11.068
37703W        W 9374   8.408   7.426  12.168
37704W        W 9375   5.145  30.725   4.669
37705W        W 9376  20.188  36.832  14.111
37706W        W 9377  21.138  44.233  10.626
37707W        W 9378  29.867   7.864  10.204
37708W        W 9379  35.867   8.701  13.049
37709W        W 9380  10.297  26.925  11.276
37710W        W 9381  16.289  39.026  14.670
37711W        W 9382   9.656  40.575   1.820
37712W        W 9383  25.317  32.188   3.294
37713W        W 9384  30.156  15.309  14.793
37714W        W 9385   7.722  41.361   4.643
37715W        W 9386  29.663   7.600  11.125
37716W        W 9387  26.238  30.709   2.348
37717W        W 9388  17.694  14.764   3.105
37718W        W 9389  11.317  13.845  14.880
37719W        W 9390  14.726  10.545  12.624
37720W        W 9391  28.123  29.233   1.962
37721W        W 9392  40.122  18.202  13.482
37722W        W 9393   7.648  41.695   1.275
37723W        W 9394  44.479  10.584   2.177
37724W        W 9395  22.563   7.438  13.042
37725W        W 9396   7.650   9.603  12.783
37726W        W 9397  24.504  24.575   0.726
37727W        W 9398  40.021  42.747   4.699
37728W        W 9399  13.783  15.470  12.949
37729W        W 9400   9.265  12.374   3.831
37730W        W 9401   6.846   8.756   1.966
37731W        W 9402  37.710  34.883  11.162
37732W        W 9403  34.935  27.155   4.494
37733W        W 9404   5.160  33.083  12.959
37734W        W 9405   0.047  43.848   4.523
37735W        W 9406  33.432  18.318  13.827
37736W        W 9407  29.904   3.539   3.753
37737W        W 9408  28.638  15.759  14.144
37738W        W 9409  40.733  35.405  13.486
37739W        W 9410  25.908  29.425  14.703
37740W        W 9411  38.507  37.481  10.069
37741W        W 9412  31.496  28.209  12.870
37742W        W 9413  26.767  25.907  14.666
37743W        W 9414  44.874   3.881   0.490
37744W        W 9415   3.318  38.042   2.781
37745W        W 9416  27.535  26.994   3.472
37746W        W 9417  38.909  23.177  13.177
37747W        W 9418  26.987   5.880  10.992
37748W        W 9419   5.635  15.852  13.524
37749W        W 9420  23.777  13.119   4.042
37750W        W 9421  26.556   1.974   2.310
37751W        W 9422  13.631  31.574  14.994
37752W        W 9423  23.770  24.057   4.131
37753W        W 9424  28.326   8.479  10.470
37754W        W 9425  41.847  17.087   3.266
37755W        W 9426  20.156  21.714  14.814
37756W        W 9427  29.816  20.259   2.205
37757W        W 9428  24.326  13.219   2.817
37758W        W 9429  10.155  39.088  11.561
37759W        W 9430   9.431  16.557   2.549
37760W        W 9431  24.533  29.408  14.287
37761W        W 9432  18.580  11.121  12.467
37762W        W 9433   8.654   5.663  12.743
37763W        W 9434  33.681  32.048  11.600
37764W        W 9435  44.336  42.735   1.731
37765W        W 9436  34.371  44.972  12.202
37766W        W 9437  43.870  25.426  13.563
37767W        W 9438  37.290  41.652   4.572
37768W        W 9439   1.703  16.543   1.919
37769W        W 9440  36.911  25.304  12.039
37770W        W 9441  37.140  22.430   1.025
37771W        W 9442  21.220   2.968   1.336
37772W        W 9443   2.058  25.550  12.637
37773W        W 9444   1.550  22.735  10.653
37774W        W 9445  24.567  22.069   1.399
37775W        W 9446  33.689  37.103  14.368
37776W        W 9447   8.136  22.522   3.311
37777W        W 9448  27.427   7.764  13.710
37778W        W 9449  40.116  24.704  13.722
37779W        W 9450   9.236  41.034  11.974
37780W        W 9451  28.723  25.691  14.793
37781W        W 9452  12.785  27.857   4.621
37782W        W 9453  34.187  31.214   1.526
37783W        W 9454  41.783  29.905  12.077
37784W        W 9455   1.741  15.311  12.870
37785W        W 9456  11.854  10.319   0.415
37786W        W 9457  12.613   3.280  11.094
37787W        W 9458  16.750  36.317  13.270
37788W        W 9459  20.201  40.376   0.382
37789W        W 9460  37.160  37.372   4.354
37790W        W 9461  30.105   5.881  10.695
37791W        W 9462  36.261   5.921   2.169
37792W        W 9463  26.187  16.586  13.802
37793W        W 9464  27.075  10.355   2.953
37794W        W 9465  30.416  40.949   0.658
37795W        W 9466   0.934   0.244   0.126
37796W        W 9467  36.005  36.481  14.822
37797W        W 9468  21.964  21.124  10.806
37798W        W 9469  25.053  11.318  14.281
37799W        W 9470  34.399  26.658   2.926
37800W        W 9471  21.316   5.258  10.506
37801W        W 9472  15.613  40.045  12.931
37802W        W 9473  10.182  31.101   3.707
37803W        W 9474  31.298   2.974   0.678
37804W        W 9475  17.555   6.627  14.783
37805W        W 9476  42.047   1.852  12.710
37806W        W 9477  39.552  32.877   1.746
37807W        W 9478  33.022  38.400   2.285
37808W        W 9479  38.619  11.948   3.221
37809W        W 9480   5.697  28.382   2.356
37810W        W 9481  35.646  23.604   0.345
37811W        W 9482  37.879   2.704  12.023
37812W        W 9483   9.091   2.655  14.169
37813W        W 9484  39.284  35.885   2.175
37814W        W 9485  28.467  38.668   0.835
37815W        W 9486  21.905   2.804  14.045
37816W        W 9487   5.919   2.193  12.938
37817W        W 9488  34.581  19.822  10.750
37818W        W 9489  15.770   5.347   5.100
37819W        W 9490   3.805  16.854  13.408
37820W        W 9491  14.071  38.607   0.365
37821W        W 9492  29.145  32.925   3.587
37822W        W 9493  13.294  40.217   3.164
37823W        W 9494   0.447  43.707   4.212
37824W        W 9495  25.585  16.773  10.535
37825W        W 9496  26.190  13.772   0.262
37826W        W 9497   2.669  20.166   4.143
37827W        W 9498   3.445  42.406  12.244
37828W        W 9499  44.772  39.832  14.973
37829W        W 9500  31.246  39.511   1.835
37830W        W 9501   1.776  13.758   0.599
37831W        W 9502   9.413   3.680   2.865
37832W        W 9503  20.006  12.099   1.309
37833W        W 9504  12.148  12.728   1.922
37834W        W 9505   0.008  35.600  14.863
37835W        W 9506  27.783  23.743   3.377
37836W        W 9507   8.401  42.969  14.631
37837W        W 9508  11.795  28.416   2.818
37838W        W 9509  25.959  39.503  13.433
37839W        W 9510  37.092  34.857   2.817
37840W        W 9511   1.862  41.470   1.737
37841W        W 9512  39.002   8.621   2.657
37842W        W 9513   1.940  30.510   1.203
37843W        W 9514  14.207  17.710   3.178
37844W        W 9515  17.024  40.961  10.606
37845W        W 9516  30.099  32.579  12.901
37846W        W 9517  25.916   7.167   4.168
37847W        W 9518  37.819  10.570  14.024
37848W        W 9519  37.492  31.338  13.809
37849W        W 9520   8.927  17.729   0.194
37850W        W 9521   8.371  42.083  11.429
37851W        W 9522  22.374   5.749   0.502
37852W        W 9523  20.706  37.217  11.656
37853W        W 9524   5.338   3.186  13.501
37854W        W 9525  35.667  19.040   3.511
37855W        W 9526  12.107   3.350  11.042
37856W        W 9527  31.368  23.884   3.925
37857W        W 9528  43.323  36.878   3.636
37858W        W 9529  14.060  43.903  14.635
37859W        W 9530  27.205   4.341  11.539
37860W        W 9531   0.897   2.761  12.559
37861W        W 9532  18.136  44.475   1.747
37862W        W 9533  31.332  28.299   1.262
37863W        W 9534  43.141  12.401  14.562
37864W        W 9535   8.925  22.686  11.070
37865W        W 9536  27.943  13.267   4.288
37866W        W 9537  41.755  14.457  14.346
37867W        W 9538   7.144  10.832  12.339
37868W        W 9539  30.466  13.061  12.026
37869W        W 9540  36.751  25.999  10.788
37870W        W 9541  36.831  41.822  14.807
37871W        W 9542  15.803  41.570  14.546
37872W        W 9543  26.976   7.813   3.840
37873W        W 9544  14.085  35.024  13.918
37874W        W 9545  39.680  16.292  12.954
37875W        W 9546  32.351  24.314   1.731
37876W        W 9547   4.625  31.150   4.068
37877W        W 9548  20.523  29.317  14.005
37878W        W 9549  25.247  17.008  11.312
37879W        W 9550  36.953   1.708   3.303
37880W        W 9551   5.953   1.492   1.011
37881W        W 9552   4.018   0.019  12.664
37882W        W 9553   6.682  33.182  11.259
37883W        W 9554  30.111  24.610  13.943
37884W        W 9555  36.258  11.675   2.677
37885W        W 9556  18.297   8.025  13.285
37886W        W 9557  16.593   8.424   2.105
37887W        W 9558   6.733   4.431   0.299
37888W        W 9559  30.415  20.747  13.848
37889W        W 9560   7.885  14.741  10.914
37890W        W 9561  19.537  24.976  11.699
37891W        W 9562  14.324  25.874  14.573
37892W        W 9563  25.919  17.691  12.292
37893W        W 9564  10.289   2.882   1.897
37894W        W 9565  19.847  19.255  12.987
37895W        W 9566  39.334  28.679   2.758
37896W        W 9567  39.979  15.581   2.825
37897W        W 9568   7.933  19.083  12.936
37898W        W 9569  35.095  23.501  11.973
37899W        W 9570   7.696   1.746  13.430
37900W        W 9571  32.019   4.061   0.995
37901W        W 9572  10.097  33.788  13.943
37902W        W 9573  43.930  23.796  14.322
37903W        W 9574   9.277   2.325  13.090
37904W        W 9575  44.992  26.026  14.358
37905W        W 9576  30.077  10.415  12.648
37906W        W 9577   0.516  11.880   0.841
37907W        W 9578  21.009  40.409   1.419
37908W        W 9579   1.843  43.416  10.662
37909W        W 9580  17.102  15.283  10.644
37910W        W 9581  18.818  11.256   2.764
37911W        W 9582  19.689  32.431  12.351
37912W        W 9583  28.837   8.888  13.791
37913W        W 9584  10.124  43.871   4.082
37914W        W 9585  13.850  18.045   4.595
37915W        W 9586  34.166  14.568   1.973
37916W        W 9587  14.346   7.335   2.679
37917W        W 9588  19.255   1.917   4.046
37918W        W 9589   3.924  28.611   0.622
37919W        W 9590  30.026  18.067   2.853
37920W        W 9591  22.934  18.208   2.388
37921W        W 9592  24.650  13.516   3.775
37922W        W 9593  39.745  30.922   3.537
37923W        W 9594   4.732  36.924  10.524
37924W        W 9595   7.046  37.555  10.671
37925W        W 9596  38.892  21.011   2.856
37926W        W 9597  10.139  36.987  14.967
37927W        W 9598  37.013  44.208  12.446
37928W        W 9599  25.855  15.613   3.116
37929W        W 9600  15.326   1.874  13.279
37930W        W 9601  24.559   2.387  11.085
37931W        W 9602  21.720  33.609  11.604
37932W        W 9603  23.165  20.173  12.245
37933W        W 9604  32.549   4.493   3.443
37934W        W 9605  43.882  29.106  12.554
37935W        W 9606  18.598  20.621   2.634
37936W        W 9607   1.483  34.599  11.747
37937W        W 9608  16.280  16.331   1.334
37938W        W 9609  17.331  19.674  11.488
37939W        W 9610  13.783  39.947  11.897
37940W        W 9611  28.135  16.200   1.769
37941W        W 9612  27.679  44.314  12.830
37942W        W 9613  40.841  21.715  12.965
37943W        W 9614  12.320  12.931   3.327
37944W        W 9615  29.200  34.991   2.692
37945W        W 9616  32.943   7.832  13.269
37946W        W 9617  26.720  20.592   1.455
37947W        W 9618  20.095  32.848  12.643
37948W        W 9619  24.067  41.259   3.608
37949W        W 9620   9.837   1.837  14.379
37950W        W 9621  15.508  14.143   3.733
37951W        W 9622   8.412  25.119   2.661
37952W        W 9623   4.122  21.790   3.880
37953W        W 9624  31.681   5.830  12.426
37954W        W 9625  32.241  18.320   1.279
37955W        W 9626  39.977  24.001  14.886
37956W        W 9627  29.632   0.034   0.075
37957W        W 9628  22.478  16.658  13.860
37958W        W 9629  38.310   2.425  12.115
37959W        W 9630  44.478  43.995  10.440
37960W        W 9631  38.404  21.368   3.023
37961W        W 9632  27.120  14.229  10.558
37962W        W 9633   8.382  21.182   2.358
37963W        W 9634  19.983   8.690   0.677
37964W        W 9635  12.331   2.263   3.398
37965W        W 9636  33.601  27.649  14.994
37966W        W 9637   7.509  23.720  14.367
37967W        W 9638  43.506  39.944  12.463
37968W        W 9639   2.522  38.236  13.906
37969W        W 9640  13.792  28.017  12.237
37970W        W 9641  34.904  34.168  13.370
37971W        W 9642  32.126  20.320   2.307
37972W        W 9643   5.221  30.017   3.018
37973W        W 9644  21.657  33.821  12.053
37974W        W 9645  14.779  38.580  14.262
37975W        W 9646   0.595  41.947   1.822
37976W        W 9647   5.766  13.989   3.975
37977W        W 9648  42.241   0.845   0.825
37978W        W 9649   3.970  29.871   1.367
37979W        W 9650  15.781  19.518  10.307
37980W        W 9651  13.454  32.347   4.748
37981W        W 9652  10.372  31.183  12.046
37982W        W 9653  42.927  39.124  14.852
37983W        W 9654   0.317  33.121   3.281
37984W        W 9655  17.984  11.405   4.178
37985W        W 9656   1.366  14.798   1.215
37986W        W 9657   2.735  37.525   2.249
37987W        W 9658  23.161  17.632  12.599
37988W        W 9659  32.256  36.612   1.240
37989W        W 9660  29.350  17.137   4.362
37990W        W 9661  15.969  29.695  13.372
37991W        W 9662  28.094  28.270   0.329
37992W        W 9663  33.600  24.025   1.703
37993W        W 9664  12.542  37.013   3.628
37994W        W 9665  20.195  25.151   0.824
37995W        W 9666  27.943  16.109  12.941
37996W        W 9667  26.023  27.070  12.591
37997W        W 9668  43.529  21.026  10.076
37998W        W 9669   7.744  42.199   1.330
37999W        W 9670  25.675  21.587  13.992
38000W        W 9671  35.608  10.142   4.501
38001W        W 9672  43.885  39.322  11.526
38002W        W 9673  22.485  19.646   2.166
38003W        W 9674   5.148  36.015  12.574
38004W        W 9675  10.857  21.413  14.476
38005W        W 9676  24.164  26.291   2.546
38006W        W 9677  13.252  11.291   0.773
38007W        W 9678  28.396   5.479  14.924
38008W        W 9679  11.686  38.837   0.441
38009W        W 9680  27.611  33.589   1.729
38010W        W 9681  11.213  30.374   4.216
38011W        W 9682  44.836  19.219   4.078
38012W        W 9683   2.458   9.234  13.521
38013W        W 9684  12.336  40.883   0.629
38014W        W 9685  11.749  25.794   1.824
38015W        W 9686  30.561   0.494  13.437
38016W        W 9687   2.975  30.718   1.439
38017W        W 9688  10.308   9.806  13.887
38018W        W 9689  44.957  22.883   2.624
38019W        W 9690  19.644  21.472   3.974
38020W        W 9691  27.045  27.874   1.338
38021W        W 9692   3.978  35.335   0.219
38022W        W 9693  40.212  36.749  11.558
38023W        W 9694  14.160   5.276  14.026
38024W        W 9695  36.861   7.486   2.284
38025W        W 9696  12.885  21.217   2.866
38026W        W 9697   7.434  12.179   4.712
38027W        W 9698   2.414  22.754   1.894
38028W        W 9699  33.914  40.461   2.836
38029W        W 9700   6.320   4.407  10.696
38030W        W 9701  41.887  42.465   1.122
38031W        W 9702  16.684  26.509  12.301
38032W        W 9703  24.832  27.133   3.153
38033W        W 9704  37.857   7.550  10.720
38034W        W 9705  32.756  32.904   4.543
38035W        W 9706   7.878   0.383   0.000
38036W        W 9707  34.393  34.179  14.962
38037W        W 9708  30.146  10.177   0.738
38038W        W 9709  40.326  17.771  14.065
38039W        W 9710  22.493  44.599   4.153
38040W        W 9711  42.704  31.363   0.810
38041W        W 9712  37.294  12.504  12.806
38042W        W 9713  21.696  40.600   0.829
38043W        W 9714  29.694  26.153  13.389
38044W        W 9715   5.652  39.403   4.283
38045W        W 9716   0.218  25.082   0.502
38046W        W 9717  20.452  21.303  14.936
38047W        W 9718   4.702   3.812   4.275
38048W        W 9719  27.059  28.172   3.967
38049W        W 9720  39.536  24.289   2.699
38050W        W 9721  30.936  21.468   1.707
38051W        W 9722  42.888  29.240  13.113
38052W        W 9723   7.128  18.189   3.312
38053W        W 9724  10.934  24.096  13.337
38054W        W 9725  12.128  10.427   2.792
38055W        W 9726  40.839  39.407   3.722
38056W        W 9727  20.160  40.060  12.987
38057W        W 9728  17.611  41.431  14.096
38058W        W 9729  25.175  21.290   2.371
38059W        W 9730  19.073  24.552  14.251
38060W        W 9731  17.082  20.122  11.495
38061W        W 9732  29.325  17.439   9.967
38062W        W 9733  41.252   4.427   2.681
38063W        W 9734  14.098  39.492   3.058
38064W        W 9735  26.086   0.551   4.437
38065W        W 9736  23.111  20.810  13.470
38066W        W 9737  34.509  22.739   0.674
38067W        W 9738   6.358  28.161   3.171
38068W        W 9739   7.140   6.550  13.758
38069W        W 9740  38.399  27.285   3.317
38070W        W 9741   6.705  26.811  11.237
38071W        W 9742  42.377  29.565  12.458
38072W        W 9743  22.348  15.887   4.055
38073W        W 9744  43.344   2.888  13.838
38074W        W 9745  29.902  44.924  11.137
38075W        W 9746  19.157  40.537  11.431
38076W        W 9747  35.804   3.530   1.456
38077W        W 9748   9.283  32.665  14.060
38078W        W 9749  23.954   8.842   5.112
38079W        W 9750  41.403  22.194  13.372
38080W        W 9751  28.100  21.289   0.726
38081W        W 9752  11.699   6.447  11.629
38082W        W 9753  37.532  10.206   1.655
38083W        W 9754  34.453  27.826  13.042
38084W        W 9755   9.357  35.416  10.552
38085W        W 9756  38.078   3.340   3.866
38086W        W 9757  34.993  14.429   0.011
38087W        W 9758  39.249  14.160   4.756
38088W        W 9759   1.302  33.000   1.460
38089W        W 9760  18.537   7.682  12.553
38090W        W 9761  35.143  38.019  11.464
38091W        W 9762  18.799  10.797   1.831
38092W        W 9763  28.623  23.130  12.411
38093W        W 9764  35.106   6.464  14.817
38094W        W 9765  37.791  20.197   4.843
38095W        W 9766   1.310   9.605   3.074
38096W        W 9767  18.713  30.640   0.941
38097W        W 9768  29.521   8.157   4.149
38098W        W 9769  17.938   9.826   4.168
38099W        W 9770  17.179  43.045   3.632
38100W        W 9771  26.434  34.399  11.556
38101W        W 9772   0.409   5.247  11.272
38102W        W 9773  43.270   0.534  14.394
38103W        W 9774  33.661   8.474   1.282
38104W        W 9775  39.389  17.821   1.932
38105W        W 9776  32.693   4.762  10.964
38106W        W 9777  43.676  24.471   5.628
38107W        W 9778  34.043   6.234   1.948
38108W        W 9779  21.994  26.679   0.168
38109W        W 9780   8.231  37.995  12.148
38110W        W 9781  35.915  31.047   3.450
38111W        W 9782  26.462  26.178   4.602
38112W        W 9783   5.159  10.718  14.958
38113W        W 9784   1.197  29.174   0.419
38114W        W 9785  44.025  30.502   1.949
38115W        W 9786  25.968  11.511  12.256
38116W        W 9787  11.944  38.428   3.789
38117W        W 9788  39.508  20.691   3.362
38118W        W 9789  33.058   1.051   3.818
38119W        W 9790  18.501   9.505  13.744
38120W        W 9791  42.599  22.408   4.888
38121W        W 9792   1.102  43.839  12.668
38122W        W 9793  23.228  17.663   4.581
38123W        W 9794   8.358  10.445   0.922
38124W        W 9795  20.111  11.367  14.950
38125W        W 9796  36.936  43.698   1.340
38126W        W 9797  33.209   4.405  13.117
38127W        W 9798  36.638   4.291   2.654
38128W        W 9799  43.514  38.834   0.748
38129W        W 9800  35.853  28.393  13.173
38130W        W 9801  40.523  26.450  13.410
38131W        W 9802  16.333   4.939   3.812
38132W        W 9803  39.919   6.075  14.216
38133W        W 9804  10.198   4.285   0.353
38134W        W 9805  44.763   4.235  14.355
38135W        W 9806  10.229  27.515  10.951
38136W        W 9807  12.106  11.253   1.154
38137W        W 9808   6.668  44.474  13.935
38138W        W 9809   4.328  43.001  14.212
38139W        W 9810  17.844  31.100  12.419
38140W        W 9811  11.150  12.855  12.091
38141W        W 9812  39.328  40.573   3.666
38142W        W 9813   2.312  21.011   1.243
38143W        W 9814   9.292  22.531  13.407
38144W        W 9815  18.728  40.864   2.393
38145W        W 9816  32.132   4.686   1.770
38146W        W 9817   9.347   0.433   3.209
38147W        W 9818  17.726  36.435   3.289
38148W        W 9819  20.001   3.354   0.272
38149W        W 9820   1.504   4.708  11.982
38150W        W 9821   1.357   3.237  13.746
38151W        W 9822  18.185   9.119  13.898
38152W        W 9823  10.728  15.179  11.344
38153W        W 9824  42.242  21.180   0.783
38154W        W 9825  26.815  41.503  10.761
38155W        W 9826  14.353  25.785   1.356
38156W        W 9827  38.422   2.403   1.059
38157W        W 9828  12.054  41.254   0.389
38158W        W 9829  22.120  25.504   2.809
38159W        W 9830   6.264   3.442   3.591
38160W        W 9831  34.056  36.499   3.988
38161W        W 9832  16.685   4.458   0.360
38162W        W 9833   4.940   8.547   0.164
38163W        W 9834  35.513  40.688  12.217
38164W        W 9835   9.257  42.782  11.299
38165W        W 9836   6.734   2.539   3.699
38166W        W 9837   7.459  35.803  11.481
38167W        W 9838  19.332  42.693   0.741
38168W        W 9839   9.285  23.504   2.437
38169W        W 9840  34.373  39.498   4.053
38170W        W 9841   3.831   3.560  13.942
38171W        W 9842  38.877  29.164   1.968
38172W        W 9843   4.351  30.212  14.508
38173W        W 9844   1.477   9.371   0.878
38174W        W 9845  28.481  13.617  10.428
38175W        W 9846  43.039  12.294  13.619
38176W        W 9847  11.061  40.049  14.199
38177W        W 9848  21.497   6.872  13.915
38178W        W 9849  29.945   9.227   2.313
38179W        W 9850  29.765  24.681   1.230
38180W        W 9851  40.364  25.094  12.192
38181W        W 9852  43.057  27.521  11.892
38182W        W 9853  14.521  19.754   2.789
38183W        W 9854  34.837  35.914  11.925
38184W        W 9855  32.991  19.647   3.704
38185W        W 9856  19.141  42.510   0.272
38186W        W 9857  23.666   2.774   4.053
38187W        W 9858   0.377   5.480  12.459
38188W        W 9859  20.455  13.521   3.766
38189W        W 9860   2.967  28.259  11.419
38190W        W 9861   3.739  42.321  14.752
38191W        W 9862  17.032  14.200   3.743
38192W        W 9863   0.343  24.315   5.062
38193W        W 9864   1.891   9.644   2.054
38194W        W 9865  25.558  38.710  10.448
38195W        W 9866  44.378  37.339   3.698
38196W        W 9867  20.724  41.228   2.179
38197W        W 9868  30.929  17.318  11.236
38198W        W 9869  38.523  23.112  14.977
38199W        W 9870   3.986  29.107  13.366
38200W        W 9871  22.184   5.232   3.753
38201W        W 9872   3.015  32.631  13.491
38202W        W 9873  44.193  39.017  13.506
38203W        W 9874  10.870  21.995   3.554
38204W        W 9875   8.186   5.460  13.923
38205W        W 9876  39.624   7.359  14.429
38206W        W 9877  18.707  22.233   3.406
38207W        W 9878  44.384  16.179  12.295
38208W        W 9879  36.326  26.252  11.651
38209W        W 9880  42.899  33.577   4.535
38210W        W 9881  13.746  14.864  14.432
38211W        W 9882   3.005  13.490  13.946
38212W        W 9883  19.684  27.522   2.852
38213W        W 9884   8.087  40.591   3.411
38214W        W 9885  27.926  17.308  11.483
38215W        W 9886   6.423  24.292   2.806
38216W        W 9887  22.614  22.527   3.162
38217W        W 9888   3.386   4.418  14.825
38218W        W 9889  14.224  15.720  10.478
38219W        W 9890   7.417  26.938  13.777
38220W        W 9891  42.056  22.684   3.213
38221W        W 9892  40.993  14.640   0.843
38222W        W 9893  10.792  18.044   4.294
38223W        W 9894   0.145  32.892   0.255
38224W        W 9895  25.960   5.303  13.501
38225W        W 9896   7.640  22.357  11.048
38226W        W 9897  16.363  26.974   4.075
38227W        W 9898   9.681  42.532   1.735
38228W        W 9899   1.242  36.016   0.488
38229W        W 9900  31.070   5.641   0.897
38230W        W 9901   6.672  42.310  11.330
38231W        W 9902  35.943  36.691  10.128
38232W        W 9903  24.130  21.200  10.479
38233W        W 9904   2.782  40.033   0.373
38234W        W 9905  10.194  36.047  12.498
38235W        W 9906   2.983  17.138  10.721
38236W        W 9907  10.692  20.738  12.011
38237W        W 9908  22.090  18.685   2.788
38238W        W 9909  42.885  15.135   2.714
38239W        W 9910  27.600  10.863   1.854
38240W        W 9911  22.288   5.401  11.640
38241W        W 9912  25.829  15.081  13.358
38242W        W 9913   0.580  36.339   0.795
38243W        W 9914  33.886  20.705  14.293
38244W        W 9915   8.428  36.481   4.184
38245W        W 9916  34.860   2.683   2.173
38246W        W 9917   0.914  25.682   1.340
38247W        W 9918   5.439  22.300   0.659
38248W        W 9919  17.191   6.304   2.610
38249W        W 9920  26.611  38.638   0.429
38250W        W 9921  43.147   1.666   4.924
38251W        W 9922  30.113  44.985  12.032
38252W        W 9923  37.824  40.845   0.296
38253W        W 9924  22.277  13.892   2.428
38254W        W 9925  21.668  16.573   4.840
38255W        W 9926  32.469   0.968   0.968
38256W        W 9927  22.328  18.304  14.314
38257W        W 9928   4.337  28.663   2.774
38258W        W 9929  40.887  11.230   4.547
38259W        W 9930  34.456  38.188  10.495
38260W        W 9931  22.741  39.055   0.361
38261W        W 9932  44.291   9.913   3.155
38262W        W 9933  40.852  43.285   0.959
38263W        W 9934  13.607  23.553   3.648
38264W        W 9935  18.397   8.889   4.051
38265W        W 9936   4.126  23.124  12.455
38266W        W 9937  35.931  22.234   3.211
38267W        W 9938  15.711  38.190  14.809
38268W        W 9939   0.847   1.823  12.676
38269W        W 9940  19.056  38.089  10.632
38270W        W 9941   9.560  12.504  13.787
38271W        W 9942  29.160  40.052  12.760
38272W        W 9943  41.297  23.250  11.176
38273W        W 9944  27.084  40.382   2.325
38274W        W 9945  15.792   0.221  12.476
38275W        W 9946  13.097   5.406   1.953
38276W        W 9947  44.044  36.377  14.269
38277W        W 9948  21.482   7.705  13.416
38278W        W 9949  34.429   4.179   3.552
38279W        W 9950  35.564   1.751  13.342
38280W        W 9951  22.720  27.204  13.397
38281W        W 9952   4.206  11.322   4.197
38282W        W 9953   4.817  32.409   1.280
38283W        W 9954  42.298  36.730  11.656
38284W        W 9955   1.411  36.019   0.970
38285W        W 9956  31.401  43.724   4.512
38286W        W 9957   2.265  15.341  12.983
38287W        W 9958  30.069  15.702  11.287
38288W        W 9959  11.291  41.527  14.554
38289W        W 9960  44.798  22.127  11.181
38290W        W 9961  15.117   1.925  11.085
38291W        W 9962   3.870  13.956  13.995
38292W        W 9963  17.836   7.873  14.174
38293W        W 9964   8.772   4.139  14.177
38294W        W 9965  25.689   6.875  14.757
38295W        W 9966  37.115   4.251  11.218
38296W        W 9967  30.641  23.652   1.931
38297W        W 9968  30.593   4.216  10.986
38298W        W 9969  24.083  35.080  12.927
38299W        W 9970   3.010   5.222   3.787
38300W        W 9971  35.519  27.603  11.993
38301W        W 9972  28.704  39.785   3.417
38302W        W 9973   4.618  15.768  14.919
38303W        W 9974   9.278  26.635   1.051
38304W        W 9975   3.045  33.948   2.953
38305W        W 9976  31.654  18.190   3.780
38306W        W 9977  24.053  31.122  11.084
38307W        W 9978   7.028  30.119   4.100
38308W        W 9979  43.472  26.762  13.627
38309W        W 9980   7.876   7.841  14.360
38310W        W 9981  44.311  33.472   3.102
38311W        W 9982  13.218  28.212  11.140
38312W        W 9983   1.485  23.648  12.972
38313W        W 9984  43.017  44.926   0.776
38314W        W 9985  34.393  21.969  13.863
38315W        W 9986   3.018  19.050  11.363
38316W        W 9987   4.766  14.280  13.750
38317W        W 9988  33.084  19.718  10.550
38318W        W 9989  32.412  15.204   1.459
38319W        W 9990  42.356   9.799   0.343
38320W        W 9991  19.879  13.592  11.562
38321W        W 9992  10.097  13.259   2.249
38322W        W 9993   5.675  41.485   0.437
38323W        W 9994  34.551  21.661  10.743
38324W        W 9995   2.050  26.556   4.686
38325W        W 9996  39.313  41.158  11.670
38326W        W 9997  18.602  33.896   4.432
38327W        W 9998  37.643  11.200  11.466
38328W        W 9999  34.877  18.766   1.895
38329W        W10000  38.163   2.286  10.738
38330W        W10001  43.976  44.027  11.589
38331W        W10002  25.993   2.971   1.893
38332W        W10003  15.571  43.489   0.347
38333W        W10004  34.880  16.698   1.730
38334W        W10005  29.141  44.694   4.565
38335W        W10006  19.111   1.508  13.277
38336W        W10007  11.569  17.812  12.530
38337W        W10008  13.180   3.272   3.938
38338W        W10009  19.493   5.716   1.732
38339W        W10010  36.823  38.447   3.726
38340W        W10011  28.178  44.813  11.599
38341W        W10012  34.696  24.874  13.901
38342W        W10013  12.404  31.437  11.196
38343W        W10014  17.067  36.451   4.597
38344W        W10015   2.549  40.677   2.313
38345W        W10016   6.401   2.759   0.915
38346W        W10017  18.660   2.883  11.609
38347W        W10018   3.286  29.181   2.305
38348W        W10019   4.326  44.376  14.554
38349W        W10020  16.125  34.446   0.846
38350W        W10021   1.773  15.407   4.226
38351W        W10022  15.692   9.613   4.261
38352W        W10023  16.216  31.861  14.037
38353W        W10024  15.022  14.121   3.554
38354W        W10025   4.936  35.048   0.793
38355W        W10026  38.058  23.540  12.532
38356W        W10027  41.438  34.649   3.746
38357W        W10028  31.042  30.751   3.245
38358W        W10029  17.798  25.443   4.167
38359W        W10030   6.434  29.077  11.844
38360W        W10031  19.677  25.362   5.173
38361W        W10032   3.147  21.049   9.872
38362W        W10033  39.446  28.922  10.586
38363W        W10034   7.893   6.870   3.789
38364W        W10035  34.088  13.602   4.983
38365W        W10036   0.891  25.713   2.711
38366W        W10037  37.626  44.801  11.010
38367W        W10038  24.528  39.824   4.978
38368W        W10039  10.317  14.201  12.088
38369W        W10040   1.364  16.566  10.539
38370W        W10041  42.501  25.081  11.016
38371W        W10042  35.717   2.449  13.662
38372W        W10043   2.474  34.392  14.542
38373W        W10044  30.064  20.545  12.400
38374W        W10045  10.766  25.483  14.945
38375W        W10046  14.602  29.567  10.710
38376W        W10047  13.136   5.029  12.566
38377W        W10048  44.463  39.549  13.888
38378W        W10049  42.597   5.237  12.873
38379W        W10050   3.680  41.210  10.282
38380W        W10051  43.435  40.625   0.844
38381W        W10052  15.303   3.959   2.809
38382W        W10053  17.238  21.532   3.887
38383W        W10054   0.663   4.742   2.163
38384W        W10055  35.476  34.662  13.818
38385W        W10056   8.304  25.315   0.741
38386W        W10057  31.428  16.658  14.702
38387W        W10058  22.240  13.571  14.739
38388W        W10059  43.890  11.388   4.075
38389W        W10060  28.935   9.368  12.984
38390W        W10061  43.955  36.013  11.600
38391W        W10062  32.984  30.654   4.143
38392W        W10063  43.721   9.724   2.695
38393W        W10064  21.114  22.235   2.274
38394W        W10065  38.827  32.859   2.250
38395W        W10066   9.194  37.414   1.755
38396W        W10067  21.937  12.738   1.770
38397W        W10068   3.648  11.397   0.764
38398W        W10069  38.507  29.392  12.097
38399W        W10070  18.581  26.593   4.988
38400W        W10071  24.295  23.250   1.848
38401W        W10072  26.621  20.622  14.889
38402W        W10073  38.113  10.579  11.155
38403W        W10074  39.400  18.164   1.290
38404W        W10075   5.867   2.165  14.886
38405W        W10076  26.691   3.943   0.930
38406W        W10077   5.720  22.329   2.319
38407W        W10078  22.776  41.268  11.161
38408W        W10079  33.874  23.623   2.299
38409W        W10080  23.762  41.817  13.856
38410W        W10081  27.986  37.532  12.869
38411W        W10082  34.031  33.882  10.714
38412W        W10083  15.717   5.038  12.041
38413W        W10084  16.772  39.261   1.935
38414W        W10085  28.889   9.855  11.565
38415W        W10086  23.100  38.311   3.197
38416W        W10087  27.046  42.688   2.556
38417W        W10088  28.048  43.401   2.541
38418W        W10089  44.808  16.685   3.810
38419W        W10090  24.021   0.513   0.266
38420W        W10091  30.170  17.146  11.635
38421W        W10092  17.745  36.496  11.516
38422W        W10093  11.416   3.290  13.085
38423W        W10094  18.791  43.942   1.299
38424W        W10095  18.486  27.716  13.042
38425W        W10096   3.197  33.403  10.758
38426W        W10097  41.296  25.223  12.926
38427W        W10098   8.452   5.855   4.521
38428W        W10099   1.415   0.914   0.452
38429W        W10100  28.973  28.663   1.821
38430W        W10101  27.920  28.917   1.076
38431W        W10102  32.031  35.478  10.935
38432W        W10103   9.241  37.903  13.840
38433W        W10104  35.773  24.656  11.998
38434W        W10105   7.543   8.220  12.869
38435W        W10106  24.446  38.519  12.573
38436W        W10107  31.515  37.433  11.318
38437W        W10108  40.991  30.670   2.715
38438W        W10109  38.005   5.156   0.776
38439W        W10110  32.653  43.189  11.042
38440W        W10111   0.310   1.217   2.668
38441W        W10112  42.815  31.556  14.326
38442W        W10113  44.552  17.222   0.479
38443W        W10114  40.919  29.632   1.002
38444W        W10115  37.977   1.412  12.477
38445W        W10116  25.041  43.784  14.037
38446W        W10117   4.307  32.771   0.534
38447W        W10118   9.034  42.870   3.742
38448W        W10119  25.769   9.282  14.111
38449W        W10120  33.132  13.192  11.669
38450W        W10121  30.470  44.478  12.213
38451W        W10122  28.014  18.903  11.109
38452W        W10123   3.465  30.527   1.286
38453W        W10124  23.112  28.489   1.446
38454W        W10125  30.186  11.876   4.288
38455W        W10126  42.739  31.383  13.488
38456W        W10127  11.926  39.817   4.573
38457W        W10128  15.745  25.413   4.324
38458W        W10129   1.001  24.076  13.456
38459W        W10130  22.676  12.035  12.450
38460W        W10131  22.459  14.734  13.948
38461W        W10132  43.959  29.616   4.578
38462W        W10133  14.071  29.942  14.337
38463W        W10134  32.594  29.383   0.810
38464W        W10135  10.123  19.732  10.135
38465W        W10136   5.974   3.153  14.385
38466W        W10137  37.988  32.036   5.072
38467W        W10138  28.505  16.064   0.988
38468W        W10139  10.799  35.483  10.949
38469W        W10140  22.488  23.067   0.175
38470W        W10141  28.980   5.223  10.620
38471W        W10142  27.428  26.214   3.224
38472W        W10143  26.283  34.779   4.159
38473W        W10144  31.477  16.458   2.712
38474W        W10145   0.385  25.350  12.651
38475W        W10146   7.946  15.172   3.257
38476W        W10147   0.235  29.008  10.324
38477W        W10148   3.856  38.464   4.880
38478W        W10149   4.709  15.794   1.245
38479W        W10150  39.225  11.412  10.815
38480W        W10151  30.821  26.274  13.985
38481W        W10152  31.132  38.884   2.618
38482W        W10153  28.533  44.242  11.138
38483W        W10154  17.655  35.911   4.127
38484W        W10155  38.805  17.877  13.737
38485W        W10156  28.305  43.756  10.487
38486W        W10157  23.040  19.179   2.862
38487W        W10158  17.078  29.421   3.656
38488W        W10159  30.628   6.798  11.906
38489W        W10160  43.399  35.856   0.350
38490W        W10161  22.130  33.911  14.428
38491W        W10162  19.277  20.096   1.993
38492W        W10163  37.562  39.070  11.004
38493W        W10164  44.659  10.442   0.756
38494W        W10165  35.595  15.448  10.651
38495W        W10166  15.120  37.060   3.770
38496W        W10167  33.645  40.577   3.750
38497W        W10168  11.903  13.696  11.152
38498W        W10169  27.128  40.431   0.449
38499W        W10170  12.868   5.411   3.830
38500W        W10171  37.618   1.682  10.665
38501W        W10172  35.418  28.003  14.891
38502W        W10173  20.023  22.140  11.933
38503W        W10174  21.120  32.492  12.008
38504W        W10175  40.893  37.881   0.188
38505W        W10176  13.790  15.867   1.180
38506W        W10177  25.716  37.567   3.198
38507W        W10178   3.385  25.085  10.106
38508W        W10179   1.465  12.652  10.696
38509W        W10180  34.052  13.698  10.944
38510W        W10181  16.051  28.400   4.079
38511W        W10182   5.708  23.569   3.581
38512W        W10183  42.523  16.234  11.126
38513W        W10184  24.244  31.009   4.496
38514W        W10185  25.119  36.362  13.546
38515W        W10186   7.116  23.026   2.704
38516W        W10187  11.619  19.741  14.048
38517W        W10188  34.542  27.355   3.344
38518W        W10189   0.826  37.516  14.391
38519W        W10190  23.388  36.499  13.034
38520W        W10191  28.623  37.658  14.927
38521W        W10192   4.866   5.236   4.407
38522W        W10193  22.294  40.658  14.378
38523W        W10194  28.588  30.939  11.152
38524W        W10195  39.145   1.831   0.510
38525W        W10196   1.788  22.121   3.815
38526W        W10197   2.787   8.242   2.791
38527W        W10198  11.416  38.570   2.267
38528W        W10199  36.115  22.633   4.966
38529W        W10200  30.071  36.052   0.512
38530W        W10201   7.635  12.957   1.808
38531W        W10202  42.906   2.245   0.541
38532W        W10203  33.340  44.362  13.883
38533W        W10204  39.460  15.314  14.940
38534W        W10205   6.102  20.041   2.374
38535W        W10206  29.076  27.587   2.702
38536W        W10207   1.323  29.138   4.625
38537W        W10208   8.461   9.866  13.544
38538W        W10209  21.411  11.880   4.105
38539W        W10210  33.130  29.275   1.183
38540W        W10211  17.844   3.888   4.093
38541W        W10212  42.536  20.259   3.528
38542W        W10213  18.032   0.083  11.442
38543W        W10214   4.824  39.811  14.280
38544W        W10215  44.954  19.323   1.330
38545W        W10216  41.263   6.463  11.576
38546W        W10217  29.353   1.362  14.377
38547W        W10218  10.013  25.397   0.337
38548W        W10219  10.418  40.388   0.462
38549W        W10220  37.508  27.201   1.439
38550W        W10221  27.883  26.613  12.941
38551W        W10222  41.061  17.070  12.512
38552W        W10223  23.039  26.424  13.482
38553W        W10224  24.196  19.196  13.139
38554W        W10225  16.439  21.725   4.431
38555W        W10226  43.269   8.130  10.671
38556W        W10227  37.520   4.777  10.469
38557W        W10228  41.148  33.490   2.253
38558W        W10229  36.495  25.498  11.207
38559W        W10230  42.287  14.806   3.290
38560W        W10231  38.615  27.490   1.684
38561W        W10232  29.301  27.169  13.762
38562W        W10233  32.479  38.824  14.237
38563W        W10234  35.401  27.685   2.225
38564W        W10235  26.182   5.024  13.990
38565W        W10236  34.647  12.291  13.318
38566W        W10237  30.487   0.338  14.012
38567W        W10238  43.311  18.197  13.053
38568W        W10239   6.799  28.344  11.578
38569W        W10240  42.935   5.474   4.873
38570W        W10241   9.432  27.289   2.920
38571W        W10242  17.643  35.415   3.372
38572W        W10243  28.610  22.225   3.513
38573W        W10244  13.864  26.474  13.026
38574W        W10245  14.646  17.736  12.447
38575W        W10246  40.006  15.354   4.636
38576W        W10247  26.231   2.531   4.893
38577W        W10248  21.966  44.812   2.146
38578W        W10249  44.470  43.514   3.688
38579W        W10250  17.089  16.777  13.960
38580W        W10251  18.859  36.973  11.645
38581W        W10252   6.714  34.345  12.077
38582W        W10253  28.648  33.110   3.704
38583W        W10254  40.112   8.153  10.952
38584W        W10255  18.441   9.593  12.708
38585W        W10256  12.920  23.409  12.571
38586W        W10257  30.540  33.628   0.944
38587W        W10258   0.235  44.316  14.723
38588W        W10259  42.611   4.901  12.480
38589W        W10260   2.365   2.941  12.519
38590W        W10261  38.116  18.819   2.675
38591W        W10262  42.406  30.080  13.499
38592W        W10263  44.714  25.457   3.236
38593W        W10264  27.247  44.493   4.848
38594W        W10265  15.909  16.536   4.083
38595W        W10266  43.010  20.376   3.780
38596W        W10267  43.494   0.756  14.839
38597W        W10268  35.913  31.046   0.910
38598W        W10269  33.615   9.626   4.614
38599W        W10270  12.361  20.037   4.732
38600W        W10271   5.543   0.837   4.576
38601W        W10272  18.955   3.961   0.443
38602W        W10273  11.257  43.944   4.289
38603W        W10274   7.868  26.256  14.278
38604W        W10275  36.362  34.600  11.745
38605W        W10276  40.671  40.043  10.209
38606W        W10277  25.886  21.263  11.220
38607W        W10278  25.259  44.199   4.137
38608W        W10279   9.946  17.769  14.463
38609W        W10280  37.593  10.982  12.538
38610W        W10281  25.619  33.966   2.790
38611W        W10282  15.729  14.920  14.827
38612W        W10283  34.845  29.922  14.909
38613W        W10284   4.858  14.851  13.051
38614W        W10285   6.437  37.954   2.758
38615W        W10286  37.949  13.174  11.784
38616W        W10287  21.530  36.079  10.941
38617W        W10288   4.915  40.568  13.863
38618W        W10289  21.121   6.128  11.879
38619W        W10290   8.703  16.813  12.926
38620W        W10291  36.110   0.417  13.450
38621W        W10292   4.628  17.009  11.820
38622W        W10293  17.175  36.449   3.154
38623W        W10294  29.558  18.159   1.927
38624W        W10295  41.057   9.598   1.932
38625W        W10296  15.191  17.641   3.058
38626W        W10297  28.447  33.098  14.803
38627W        W10298  44.585  33.268   1.713
38628W        W10299  22.215  22.392  11.050
38629W        W10300  17.162  12.700   4.118
38630W        W10301  31.912  12.562  13.892
38631W        W10302  27.549  26.842  10.314
38632W        W10303  10.192  42.458   0.304
38633W        W10304  12.584   7.280  11.355
38634W        W10305  39.775  40.460   4.565
38635W        W10306  30.293  12.373   4.142
38636W        W10307  16.235  30.876   3.123
38637W        W10308  38.074  27.044  10.760
38638W        W10309  11.710  21.234   0.322
38639W        W10310   0.323  16.743  10.693
38640W        W10311   0.410  20.219  14.358
38641W        W10312   9.764   8.798  13.487
38642W        W10313  27.914  15.566   4.613
38643W        W10314  25.616  19.105  14.300
38644W        W10315  28.642   4.101   0.469
38645W        W10316  38.884  21.019  12.677
38646W        W10317  26.259  24.020  14.872
38647W        W10318   8.185  12.288  12.546
38648W        W10319   5.828   8.041   4.143
38649W        W10320  41.513   7.381   1.877
38650W        W10321  30.508   1.934  14.722
38651W        W10322  11.238  14.382   4.092
38652W        W10323  35.761  42.011  13.132
38653W        W10324  14.161   0.975   4.349
38654W        W10325  31.249  36.803  14.567
38655W        W10326  17.222   7.709  12.868
38656W        W10327  38.932   7.194   3.885
38657W        W10328  16.138  41.993  11.236
38658W        W10329  13.422   5.779  14.483
38659W        W10330  24.538  43.178  12.879
38660W        W10331  27.491   7.592  12.081
38661W        W10332  29.311   7.642   9.479
38662W        W10333  27.090   6.823  13.099
38663W        W10334  20.189  21.573   4.744
38664W        W10335   3.324  13.758   4.658
38665W        W10336  17.258  23.714  14.074
38666W        W10337  18.625  42.376   0.234
38667W        W10338  22.055  11.592   2.808
38668W        W10339  31.120  41.928   4.169
38669W        W10340  16.169  14.178  14.837
38670W        W10341  26.122   8.601   2.455
38671W        W10342  27.859  37.037  10.519
38672W        W10343  14.249   3.859  10.809
38673W        W10344  13.519  31.598  11.745
38674W        W10345  31.441  11.375  10.393
38675W        W10346  15.534  14.182  11.520
38676W        W10347  25.011  25.388  14.301
38677W        W10348  18.504  16.145  10.747
38678W        W10349   1.696  38.503  14.849
38679W        W10350  36.204   0.909   3.324
38680W        W10351  29.162  36.116  12.185
38681W        W10352  30.175  32.138   3.442
38682W        W10353   3.068  42.488  14.426
38683W        W10354  35.103  33.552  14.249
38684W        W10355  24.556  40.027  10.192
38685W        W10356  24.429  25.613  14.071
38686W        W10357  27.528   2.573  12.334
38687W        W10358  10.650   7.369  13.896
38688W        W10359  14.392  20.649  11.444
38689W        W10360  17.707  16.774  13.021
38690W        W10361  37.310  44.993   1.416
38691W        W10362   3.819  34.547  11.959
38692W        W10363  44.548   5.890   1.031
38693W        W10364   7.997  23.497  12.904
38694W        W10365  34.452   7.429   3.795
38695W        W10366   6.059  25.079   0.028
38696W        W10367   4.456  32.105   0.994
38697W        W10368  25.159  44.228   2.102
38698W        W10369  13.620  35.008  14.846
38699W        W10370   4.193  43.767   1.916
38700W        W10371  31.835   9.647  12.928
38701W        W10372  38.056  21.005   4.384
38702W        W10373  29.515   2.646   3.945
38703W        W10374  12.647  17.048  11.966
38704W        W10375  23.502   4.327  13.076
38705W        W10376  35.182  25.576   1.518
38706W        W10377  40.476  19.886   0.712
38707W        W10378  12.086  16.611  11.188
38708W        W10379  10.216  14.331   4.089
38709W        W10380  39.904  30.408  13.971
38710W        W10381  24.695  32.340  14.371
38711W        W10382  27.813  35.040   3.810
38712W        W10383  10.918  21.808   4.029
38713W        W10384  35.979  38.905   4.562
38714W        W10385  27.182  16.291   0.208
38715W        W10386  22.241   5.301  14.316
38716W        W10387  37.281  40.981   2.279
38717W        W10388  43.544  27.197  13.954
38718W        W10389   7.378  25.750  11.140
38719W        W10390  34.500  37.624   3.172
38720W        W10391  12.701  11.701   2.712
38721W        W10392  31.628   0.177   1.829
38722W        W10393  15.902  33.027   3.245
38723W        W10394  31.052  36.648  11.672
38724W        W10395  17.581   6.257   0.911
38725W        W10396  33.079  29.512  12.922
38726W        W10397  43.533  14.401   3.612
38727W        W10398  21.212  43.830   4.896
38728W        W10399  28.989  15.991   0.704
38729W        W10400  41.673  36.247   4.207
38730W        W10401   9.210  12.848   1.790
38731W        W10402  23.621   8.862   3.317
38732W        W10403  44.668   2.696   3.373
38733W        W10404  37.431  22.275  13.828
38734W        W10405   9.867  32.056   2.003
38735W        W10406  18.113  35.004   1.297
38736W        W10407  33.932  35.826  13.100
38737W        W10408  28.448  41.287   1.757
38738W        W10409  29.447  39.019   1.644
38739W        W10410  44.314   9.925  10.948
38740W        W10411  18.620  34.417   3.688
38741W        W10412   9.809   9.840  12.501
38742W        W10413  44.272  22.410   2.215
38743W        W10414  17.324  33.170  11.000
38744W        W10415  17.633  33.947  13.991
38745W        W10416  24.056  31.977   2.696
38746W        W10417  33.910  18.246   0.484
38747W        W10418  25.155   1.924   2.613
38748W        W10419   2.012  38.355  14.346
38749W        W10420  31.929   9.343   1.054
38750W        W10421  17.851  21.150   4.283
38751W        W10422  37.070  39.434   0.835
38752W        W10423  12.206  16.847  13.103
38753W        W10424  22.456  34.044   3.718
38754W        W10425  27.854   1.711   1.687
38755W        W10426  16.514  27.644   4.321
38756W        W10427   4.076  34.981  13.095
38757W        W10428  32.356  20.559  12.065
38758W        W10429   3.348  14.098   3.541
38759W        W10430   1.439  41.347   0.270
38760W        W10431  20.304  41.079  12.069
38761W        W10432  33.018  36.464  14.921
38762W        W10433  29.475  39.956  11.548
38763W        W10434  10.058  19.550   0.595
38764W        W10435  21.163  37.085  11.935
38765W        W10436   4.290  14.088  12.014
38766W        W10437  21.285  38.072  14.808
38767W        W10438   0.430  11.388  12.945
38768W        W10439   6.484  24.962   0.358
38769W        W10440  24.567   6.243   2.670
38770W        W10441   5.669  31.986   2.200
38771W        W10442   5.727  37.565   3.604
38772W        W10443  33.376  22.318  10.332
38773W        W10444  24.291  32.624  11.845
38774W        W10445  39.411  26.933  13.708
38775W        W10446  20.251   9.292   1.835
38776W        W10447   7.016  43.452   1.612
38777W        W10448  23.606  17.308   3.495
38778W        W10449  40.774  16.887   3.808
38779W        W10450  40.135  18.141  11.939
38780W        W10451   6.007   0.760  14.939
38781W        W10452  44.244  44.399  14.686
38782W        W10453   7.948   1.017  12.066
38783W        W10454  26.002  33.317   1.700
38784W        W10455   0.536  33.374   2.680
38785W        W10456   1.400  32.099  14.903
38786W        W10457   0.940  19.713   1.898
38787W        W10458  23.668  12.267  12.089
38788W        W10459  37.562  36.046   1.271
38789W        W10460  10.216  15.645  14.856
38790W        W10461   9.157   9.222   1.905
38791W        W10462  35.433  35.474  14.269
38792W        W10463  15.675  21.851  11.632
38793W        W10464  10.705  33.187  13.859
38794W        W10465   0.508   2.200   1.788
38795W        W10466  37.547  16.816   4.446
38796W        W10467  35.029  24.757  12.030
38797W        W10468   2.299   1.481   0.687
38798W        W10469  35.355   6.443  11.132
38799W        W10470   2.717   4.150   3.932
38800W        W10471   1.031  14.591  12.210
38801W        W10472  26.814   8.175   3.212
38802W        W10473  28.920  27.007  13.399
38803W        W10474  22.547  14.883   0.824
38804W        W10475   2.092  14.627   3.114
38805W        W10476  42.142  40.866  10.682
38806W        W10477  44.985  16.078  12.729
38807W        W10478  12.205  26.427  12.847
38808W        W10479  43.474  16.026  13.402
38809W        W10480  32.544   4.795   0.390
38810W        W10481  13.208  29.914  12.348
38811W        W10482  20.558   1.786   0.494
38812W        W10483  43.391  11.151   3.672
38813W        W10484   6.192   8.853  10.798
38814W        W10485  24.490  44.925   0.331
38815W        W10486  38.893   3.368   4.199
38816W        W10487  43.497  31.362  10.941
38817W        W10488  37.539  41.051  11.938
38818W        W10489  39.091  43.230   3.705
38819W        W10490  44.787  22.244   5.674
38820W        W10491  40.994   4.302  13.071
38821W        W10492  22.575  41.523   4.615
38822W        W10493  15.091  41.415   2.369
38823W        W10494  41.523  15.561   1.383
38824W        W10495  14.873  22.490   3.570
38825W        W10496  12.583  41.175   1.132
38826W        W10497  36.059  42.053   4.934
38827W        W10498  26.327  40.755  10.704
38828W        W10499  15.782  27.472   3.058
38829W        W10500  40.539  19.558   1.114
38830W        W10501  11.254  21.647   3.627
38831W        W10502  19.869  14.684   4.478
38832W        W10503  19.791   1.495   4.615
38833W        W10504  26.778  33.535  11.318
38834W        W10505  24.639  27.417   2.447
38835W        W10506  21.325  38.091  12.927
38836W        W10507  11.267   9.298   0.339
38837W        W10508  31.614  12.876  11.560
38838W        W10509  19.158  18.040  14.504
38839W        W10510  26.460   7.694  14.692
38840W        W10511  16.582  15.375  10.687
38841W        W10512  30.730  14.598  12.457
38842W        W10513  41.517  13.344   4.660
38843W        W10514  11.851  10.988  10.892
38844W        W10515  30.209  29.899   2.937
38845W        W10516   2.542  40.427  11.920
38846W        W10517  10.565  10.337  14.954
38847W        W10518  21.216  19.818   4.688
38848W        W10519  15.083   9.208   4.470
38849W        W10520  20.795  13.752  14.857
38850W        W10521  42.365  37.616  10.784
38851W        W10522  43.465   6.117  10.018
38852W        W10523  40.291  28.166  14.681
38853W        W10524  11.897  11.331   1.726
38854W        W10525  25.235  31.213   0.299
38855W        W10526  26.600  41.253  11.195
38856W        W10527   7.741   4.851  10.255
38857W        W10528  34.467  21.211  14.797
38858W        W10529   9.146  25.441  12.659
38859W        W10530  44.202  31.243   2.227
38860W        W10531   4.810  16.035   0.785
38861W        W10532  42.916   4.815   1.227
38862W        W10533  22.897  13.706   0.846
38863W        W10534   6.428  36.617  11.854
38864W        W10535  40.839  41.027   2.259
38865W        W10536  26.612  19.531  13.874
38866W        W10537   2.938  40.815   4.639
38867W        W10538  30.659  25.232   1.768
38868W        W10539   3.805  12.361  12.608
38869W        W10540  44.411   5.165   3.360
38870W        W10541  39.971   7.108   1.748
38871W        W10542  41.893  32.082  12.106
38872W        W10543  44.418  38.134   4.126
38873W        W10544   2.007  35.564   1.875
38874W        W10545  13.647   7.250   4.263
38875W        W10546  31.423  39.616  12.075
38876W        W10547   1.328  43.432  12.886
38877W        W10548  31.508  34.810   1.967
38878W        W10549  34.572  37.810   1.387
38879W        W10550   2.040   6.541  12.422
38880W        W10551  37.539  32.179  14.815
38881W        W10552  10.880   4.978   1.274
38882W        W10553  23.583  28.254   1.410
38883W        W10554   2.974  33.310  14.868
38884W        W10555  24.410   6.289   1.289
38885W        W10556  17.364  38.449   0.388
38886W        W10557  17.036  22.776   0.514
38887W        W10558  33.105  29.738  13.956
38888W        W10559  40.304   8.402  11.992
38889W        W10560  31.428   4.163  11.092
38890W        W10561   9.657  18.063   0.381
38891W        W10562  30.477  33.707   0.408
38892W        W10563  17.000  21.247  10.723
38893W        W10564  38.446   3.139   4.167
38894W        W10565  38.531  27.702   0.716
38895W        W10566  43.883  37.405  11.330
38896W        W10567   4.868  44.205   1.715
38897W        W10568   1.494   3.744   3.716
38898W        W10569  28.326  32.786  13.567
38899W        W10570  40.317   5.663   1.441
38900W        W10571  41.700  38.079  10.403
38901W        W10572  28.329  19.253  12.028
38902W        W10573  25.881   9.691   3.708
38903W        W10574  34.311  11.801  11.944
38904W        W10575  12.708  31.959  12.970
38905W        W10576   6.888  27.197  12.540
38906W        W10577  24.134  34.888  14.501
38907W        W10578   6.804   1.469  13.072
38908W        W10579   2.920  16.990  12.974
38909W        W10580   2.890  43.010  11.505
38910W        W10581  11.407  34.198   3.122
38911W        W10582  36.577   3.464   0.318
38912W        W10583  16.045  24.468   0.071
38913W        W10584  29.058  14.012  11.123
38914W        W10585  10.793   4.696   1.806
38915W        W10586   0.025  39.466   2.376
38916W        W10587  39.148  19.507   4.889
38917W        W10588  39.350  12.001   0.310
38918W        W10589  33.248  32.116   4.447
38919W        W10590  38.568  43.341  14.771
38920W        W10591  34.477   4.895   0.288
38921W        W10592  12.845  26.624   0.027
38922W        W10593  36.948  30.995   4.899
38923W        W10594  22.232  36.410   4.057
38924W        W10595   0.903  40.010   3.806
38925W        W10596  13.860  28.952   2.915
38926W        W10597  10.813  39.085  14.152
38927W        W10598   3.007   7.778   2.834
38928W        W10599  29.850  32.585  14.501
38929W        W10600  28.435   7.802  14.477
38930W        W10601  26.935  24.122   0.630
38931W        W10602  24.085  28.291  14.012
38932W        W10603  10.854  39.417  12.580
38933W        W10604  42.999  39.404  11.432
38934W        W10605  36.303  23.545   2.759
38935W        W10606  30.435  38.889   1.939
38936W        W10607  33.153  39.332   1.615
38937W        W10608   4.029  24.022   2.756
38938W        W10609   1.886  20.092   1.992
38939W        W10610  38.452  23.683   3.573
38940W        W10611  11.889   5.402   2.708
38941W        W10612  14.353  16.653  12.329
38942W        W10613  20.300   4.420  13.379
38943W        W10614   6.702  43.278  12.412
38944W        W10615  30.928   2.680  13.419
38945W        W10616  31.075  41.403   3.516
38946W        W10617  42.494  29.842   1.449
38947W        W10618   1.827  10.850   2.860
38948W        W10619   5.567  22.750   0.897
38949W        W10620  43.880   5.339   0.007
38950W        W10621   2.191  41.892  10.530
38951W        W10622  42.255  44.264   2.330
38952W        W10623  25.919  32.276  14.897
38953W        W10624  42.359  12.807  14.692
38954W        W10625  31.464  39.949  14.202
38955W        W10626  44.479  27.427   0.493
38956W        W10627   2.099   4.995   1.751
38957W        W10628  41.928  44.481   3.643
38958W        W10629  22.403  11.104   2.144
38959W        W10630  26.755   7.296   5.390
38960W        W10631  32.995  43.474  10.760
38961W        W10632  31.464  37.162   0.439
38962W        W10633  34.814  19.458  14.183
38963W        W10634  30.408   3.491   3.651
38964W        W10635   5.183  40.575   4.852
38965W        W10636  25.790  44.275  13.878
38966W        W10637   1.732  29.614   1.795
38967W        W10638  21.606  31.435  14.240
38968W        W10639  15.873   9.924  12.046
38969W        W10640  18.628  28.011  11.460
38970W        W10641  23.655  42.900  12.621
38971W        W10642  43.281  34.040   3.405
38972W        W10643  13.542  16.894  12.036
38973W        W10644  37.636  24.731   3.426
38974W        W10645  21.303  22.837  10.396
38975W        W10646  22.614  42.749   0.351
38976W        W10647  37.147   7.439  13.484
38977W        W10648  17.800  43.475   2.935
38978W        W10649  30.734  41.286   1.475
38979W        W10650  34.858   6.274  11.986
38980W        W10651  11.637  12.677  11.621
38981W        W10652  19.511  26.998  10.633
38982W        W10653  32.055   4.406   3.260
38983W        W10654   5.426   0.710   1.619
38984W        W10655  41.748  25.191   1.911
38985W        W10656  17.996  16.807  13.805
38986W        W10657   1.398   2.735  13.771
38987W        W10658  20.499  39.625  12.515
38988W        W10659   4.528  42.457  12.505
38989W        W10660  28.589  18.381  10.990
38990W        W10661   3.225  33.365   1.232
38991W        W10662  42.275  10.669  13.921
38992W        W10663   2.283   0.941   4.525
38993W        W10664  34.542  27.904  10.953
38994W        W10665  37.103  32.126   4.603
38995W        W10666  21.497  36.019   0.572
38996W        W10667  30.172   8.642   0.424
38997W        W10668  11.243  13.005  14.549
38998W        W10669   9.260  34.699  12.443
38999W        W10670  27.686  25.594   4.186
39000W        W10671  26.427   8.966  10.684
39001W        W10672   6.458  22.737   0.704
39002W        W10673   3.955  11.702   4.549
39003W        W10674  34.848  37.330  12.007
39004W        W10675  43.085  24.766  13.426
39005W        W10676  42.986  20.723  11.483
39006W        W10677   5.476  14.048  14.062
39007W        W10678  22.631  12.394  11.101
39008W        W10679  25.625  10.238  11.978
39009W        W10680  10.681  28.934  10.605
39010W        W10681  16.769   5.830  10.734
39011W        W10682  24.778  25.689   4.120
39012W        W10683  18.733  19.437  12.612
39013W        W10684  41.902  14.580   0.888
39014W        W10685  16.562  12.587  11.180
39015W        W10686  40.431   1.821   0.760
39016W        W10687  13.058  26.426  10.462
39017W        W10688  10.319   8.839   5.114
39018W        W10689  38.201   7.603  13.324
39019W        W10690  25.723  16.659   3.330
39020W        W10691  32.113  43.978  11.103
39021W        W10692  24.070  16.581  14.141
39022W        W10693  30.142  11.080  14.017
39023W        W10694  27.052  39.278   4.060
39024W        W10695  35.888  28.362  12.552
39025W        W10696   6.002  44.517  12.422
39026W        W10697  36.961  30.023  12.985
39027W        W10698  43.913  23.967   4.910
39028W        W10699   1.314  17.126   2.824
39029W        W10700  26.069  29.926  11.637
39030W        W10701  36.192  40.894  11.504
39031W        W10702   0.274   9.609   2.283
39032W        W10703  29.846  27.600   0.294
39033W        W10704  37.068  18.235  13.390
39034W        W10705  33.956  25.940   4.721
39035W        W10706  38.566  17.199   0.852
39036W        W10707  43.077  43.445  13.051
39037W        W10708   6.815  19.741  12.317
39038W        W10709  29.836  15.496  12.283
39039W        W10710  32.964  25.964   3.251
39040W        W10711  20.604  17.639   3.260
39041W        W10712  27.916   1.787   2.227
39042W        W10713  44.852  23.675   4.772
39043W        W10714  15.637  41.059   3.000
39044W        W10715  36.914   2.022   1.487
39045W        W10716  27.244  10.636   1.199
39046W        W10717  15.998   3.802   2.407
39047W        W10718  12.385  14.641   1.259
39048W        W10719  17.072   9.796   4.523
39049W        W10720  12.202  12.235   4.797
39050W        W10721   6.661  28.042   2.748
39051W        W10722   1.826  27.332  13.398
39052W        W10723   9.841  40.087  11.476
39053W        W10724   5.172  39.486   0.029
39054W        W10725  29.726  20.779   4.293
39055W        W10726   6.701   0.193   1.182
39056W        W10727  15.236  21.473  11.637
39057W        W10728  19.006  32.916   3.765
39058W        W10729  41.938  31.633  11.479
39059W        W10730  25.150  27.990   3.126
39060W        W10731  26.490   5.289  10.342
39061W        W10732  24.038  40.485  12.443
39062W        W10733  31.953  34.478  12.068
39063W        W10734  28.703  27.441   0.841
39064W        W10735   6.510  40.810  14.461
39065W        W10736   8.578  32.414  14.535
39066W        W10737  27.089  24.634  13.012
39067W        W10738  26.267  23.794   0.349
39068W        W10739   0.284   1.830  10.421
39069W        W10740  26.222   0.257  13.933
39070W        W10741  19.944  17.136  14.032
39071W        W10742   3.153   5.713  12.723
39072W        W10743  35.881  11.289   2.695
39073W        W10744  37.688  19.710  12.500
39074W        W10745  36.337  25.031   0.662
39075W        W10746  14.672  44.166   4.573
39076W        W10747  42.303  13.660   3.112
39077W        W10748   0.958  42.053   5.070
39078W        W10749  24.895  32.576   1.458
39079W        W10750  41.663  30.378  11.161
39080W        W10751  42.878  12.140   1.464
39081W        W10752  14.619  21.918  13.537
39082W        W10753  34.916   0.194   3.679
39083W        W10754   6.336  33.567  11.804
39084W        W10755  34.489  25.081   5.108
39085W        W10756  12.921   3.786  11.032
39086W        W10757  17.196   8.609  11.975
39087W        W10758   9.695  19.236  12.741
39088W        W10759  37.616  37.515   1.379
39089W        W10760  35.138   3.550   0.384
39090W        W10761  22.267  20.774   2.675
39091W        W10762  35.542  43.911  14.889
39092W        W10763   8.344  34.612   3.110
39093W        W10764   1.935  15.164  13.884
39094W        W10765  14.878  41.271   3.296
39095W        W10766  20.426   3.844  13.410
39096W        W10767  41.523  40.765  12.939
39097W        W10768  17.250  31.074   1.773
39098W        W10769  25.623  40.225  11.740
39099W        W10770  39.869  21.285   0.254
39100W        W10771  18.799  14.957  14.868
39101W        W10772  11.054  34.504  14.397
39102W        W10773  33.612  21.832   1.270
39103W        W10774   6.443  21.552  12.044
39104W        W10775   2.716  10.644  12.097
39105W        W10776  36.205   5.846  13.957
39106W        W10777  36.668  29.026  10.731
39107W        W10778   4.295  11.767   1.890
39108W        W10779  33.114  27.580   3.672
39109W        W10780   1.819  23.991  14.619
39110W        W10781  28.779  19.539  11.360
39111W        W10782   6.127  10.574  11.564
39112W        W10783  21.235  26.448   3.047
39113W        W10784   0.975   0.008  11.136
39114W        W10785  37.438  36.307  10.664
39115W        W10786  15.058  17.276   0.416
39116W        W10787  41.338  43.218   2.334
39117W        W10788  10.077  10.750  14.368
39118W        W10789  19.578  23.692  14.678
39119W        W10790  41.320  40.511   0.931
39120W        W10791  13.165  15.167  10.772
39121W        W10792  36.018   7.885  13.914
39122W        W10793  14.425  32.035   0.409
39123W        W10794  19.137  16.538  13.479
39124W        W10795   7.575  31.486   2.258
39125W        W10796  32.980  19.396  11.353
39126W        W10797  21.125  27.803   1.173
39127W        W10798  34.336   5.813   4.120
39128W        W10799   6.427  33.885   4.577
39129W        W10800  38.946  42.314  13.516
39130W        W10801  18.123   3.706  14.419
39131W        W10802  40.622  36.365  14.510
39132W        W10803  42.257  36.825   4.869
39133W        W10804  36.148  21.425  11.144
39134W        W10805  20.509  36.849   2.192
39135W        W10806   2.757  32.078  12.527
39136W        W10807  30.944   4.439  12.180
39137W        W10808   7.827  14.325   0.320
39138W        W10809   4.529  32.540   4.182
39139W        W10810  34.515  36.346  13.609
39140W        W10811  36.355  34.871   4.087
39141W        W10812  29.039  21.882   0.299
39142W        W10813   0.687  17.474   2.283
39143W        W10814   1.326  24.948  13.497
39144W        W10815  19.453  37.606  14.118
39145W        W10816  33.833  18.749   2.426
39146W        W10817  37.466  26.558  11.092
39147W        W10818  29.107  27.744   3.881
39148W        W10819  21.553  19.649  11.985
39149W        W10820  25.144  40.793   4.370
39150W        W10821  26.660   2.725   3.626
39151W        W10822  27.490  19.771  13.856
39152W        W10823  20.969  10.426  14.009
39153W        W10824   1.762  12.217  10.826
39154W        W10825  37.410   0.926  11.758
39155W        W10826  19.606  13.211  14.856
39156W        W10827   4.167   4.740  10.794
39157W        W10828  13.114  41.032  10.720
39158W        W10829  29.229  16.358  13.473
39159W        W10830  13.751  12.098  14.777
39160W        W10831  35.177  31.158  12.563
39161W        W10832  31.912  35.002  11.153
39162W        W10833  16.109  10.820  11.094
39163W        W10834  43.367   8.146  11.179
39164W        W10835  26.967   6.598  13.534
39165W        W10836   2.003  37.413   0.261
39166W        W10837  30.584  29.079   2.437
39167W        W10838  44.376   0.548  12.593
39168W        W10839  12.928  13.678   0.471
39169W        W10840   3.868  25.284  13.871
39170W        W10841   7.163  11.728   2.325
39171W        W10842  24.644  38.461   1.995
39172W        W10843  18.497  44.294   4.578
39173W        W10844  16.330  26.858   0.284
39174W        W10845   9.602  28.029  11.983
39175W        W10846  13.707   1.136   3.615
39176W        W10847  21.702  28.456  11.990
39177W        W10848   2.270  23.261  14.241
39178W        W10849   6.732   8.352  13.994
39179W        W10850  43.503  38.959   9.858
39180W        W10851  25.987  39.498  10.801
39181W        W10852  39.994   5.510   4.810
39182W        W10853   4.273   4.348  11.572
39183W        W10854  36.068   3.269   1.090
39184W        W10855  17.132  34.132   2.216
39185W        W10856  44.926  14.541  12.077
39186W        W10857  18.604  16.398   1.901
39187W        W10858  37.614  19.715  11.687
39188W        W10859  23.783  19.084   4.677
39189W        W10860  21.000  30.172  11.069
39190W        W10861  24.013  42.945   1.923
39191W        W10862  31.035   3.140   2.533
39192W        W10863  38.969   5.676   4.119
39193W        W10864   9.951  18.069  13.596
39194W        W10865   8.213   4.802   4.796
39195W        W10866  44.917  28.699  14.727
39196W        W10867   7.721   4.731  12.450
39197W        W10868   9.215   4.672   0.508
39198W        W10869  30.669  18.822  14.767
39199W        W10870  42.753  28.665  14.808
39200W        W10871   2.898  37.809  14.797
39201W        W10872  16.075  18.723  13.541
39202W        W10873  32.001   2.734   3.491
39203W        W10874  11.892  30.212  11.183
39204W        W10875   2.217  19.268   1.818
39205W        W10876   9.686   0.207  13.668
39206W        W10877  26.942  24.958  12.487
39207W        W10878  30.238  25.134  11.917
39208W        W10879  19.933  41.795   5.059
39209W        W10880   2.300   0.752  13.973
39210W        W10881  40.558   6.757   3.365
39211W        W10882  11.405   2.617   4.506
39212W        W10883   3.439  30.997   1.502
39213W        W10884  32.916  22.493   0.639
39214W        W10885   3.273  36.325  11.661
39215W        W10886  28.167  19.646   4.644
39216W        W10887  21.725  36.631   4.004
39217W        W10888  16.887  23.994  14.315
39218W        W10889  40.343  17.374   4.086
39219W        W10890   7.907   4.516   0.913
39220W        W10891  31.178   2.502  13.875
39221W        W10892  42.389  35.931  14.790
39222W        W10893  28.156  37.073   3.721
39223W        W10894  13.354  31.628   0.932
39224W        W10895  43.456  40.566  11.873
39225W        W10896   6.953  11.878   3.686
39226W        W10897  18.820  37.056   0.749
39227W        W10898  11.151  16.130  13.362
39228W        W10899  26.892  23.700  14.040
39229W        W10900  38.027  11.580  11.425
39230W        W10901  15.426   1.662  14.757
39231W        W10902   9.448  44.930  14.265
39232W        W10903  13.607  13.578  14.707
39233W        W10904  16.122  21.319  10.680
39234W        W10905   1.310   8.370   0.099
39235W        W10906  18.847  43.207   3.835
39236W        W10907  23.594  39.763   0.285
39237W        W10908  44.481  26.110   0.053
39238W        W10909  30.479  16.952  13.085
39239W        W10910  20.135  41.818   2.189
39240W        W10911  36.950  27.810  11.109
39241W        W10912  24.226  24.187   2.371
39242W        W10913  24.065  33.732  10.990
39243W        W10914   3.547   1.604  12.191
39244W        W10915   6.137  29.721   2.272
39245W        W10916  40.827  18.877  12.030
39246W        W10917   3.229  40.931  13.575
39247W        W10918  20.720  14.722  11.584
39248W        W10919   4.861  31.384  13.106
39249W        W10920  25.235  12.264   3.776
39250W        W10921  34.328  25.742  12.567
39251W        W10922  10.334  38.509   0.861
39252W        W10923   1.208   4.080   0.264
39253W        W10924  12.769  27.434   0.693
39254W        W10925  38.995  13.650   0.987
39255W        W10926   1.509  13.925   4.782
39256W        W10927  22.166  36.928   4.730
39257W        W10928  43.343   7.240  13.082
39258W        W10929  14.152  17.174  12.574
39259W        W10930   0.945  43.878  14.893
39260W        W10931   5.222  36.378  11.472
39261W        W10932  44.053  36.137   3.236
39262W        W10933   3.877  27.037   4.570
39263W        W10934  15.047  43.760  14.315
39264W        W10935  34.624  15.038  14.183
39265W        W10936  43.354   6.301   2.305
39266W        W10937  38.826  11.073  12.288
39267W        W10938   2.896  21.767   0.483
39268W        W10939  10.330  18.165   2.611
39269W        W10940   0.629  32.400  14.551
39270W        W10941  15.310  29.981  10.566
39271W        W10942  37.547  37.303   4.010
39272W        W10943   4.551  19.692  12.580
39273W        W10944  21.086  25.098   3.136
39274W        W10945  39.897   0.701  14.332
39275W        W10946  34.121  34.970  13.796
39276W        W10947  13.284   7.254  10.726
39277W        W10948  13.770  24.674  11.635
39278W        W10949  17.320   2.393   3.655
39279W        W10950  23.159  12.145  12.558
39280W        W10951  11.396  30.944   3.992
39281W        W10952  32.097  21.961   3.320
39282W        W10953  17.370  25.979   3.373
39283W        W10954   8.931  11.648  14.290
39284W        W10955  42.562  35.628  10.763
39285W        W10956  39.827   2.243  14.067
39286W        W10957  43.030  32.126   0.573
39287W        W10958  35.620  39.651  10.234
39288W        W10959  17.546  18.171   0.295
39289W        W10960  30.142  33.323  11.489
39290W        W10961  30.460  25.819   3.112
39291W        W10962  37.935  17.375   1.387
39292W        W10963  44.051   1.730   0.465
39293W        W10964  33.659  30.919   0.334
39294W        W10965  37.849  44.835   4.537
39295W        W10966   5.368  28.881   1.879
39296W        W10967  11.889  40.886  11.171
39297W        W10968  25.871  43.342  12.491
39298W        W10969   3.768  24.618  13.297
39299W        W10970   6.761  43.332   0.687
39300W        W10971  18.213   9.211   3.355
39301W        W10972  26.576  33.342   5.065
39302W        W10973  23.232   8.613   1.664
39303W        W10974  27.577   6.838   2.611
39304W        W10975  33.166  43.425  13.941
39305W        W10976   7.777  22.960  12.221
39306W        W10977  21.694  28.082   1.237
39307W        W10978  18.652  13.644   2.617
39308W        W10979  33.735  34.063  12.312
39309W        W10980  17.866  12.092  12.863
39310W        W10981  22.706  34.500   3.794
39311W        W10982  39.413  34.432   1.236
39312W        W10983  42.692  39.050   3.140
39313W        W10984  19.138  32.097   0.771
39314W        W10985   4.426  31.545  10.556
39315W        W10986   5.201  30.054  14.368
39316W        W10987   3.827  34.128   1.960
39317W        W10988   8.653  43.387  11.560
39318W        W10989  18.554  28.201   0.914
39319W        W10990   4.394  15.189   4.102
39320W        W10991  32.100  33.392  10.860
39321W        W10992  42.418  39.648   0.394
39322W        W10993  36.909  33.153  13.905
39323W        W10994   5.271   3.445  14.921
39324W        W10995   7.593  40.959   1.767
39325W        W10996   9.766  19.511  10.906
39326W        W10997  42.386  25.718   2.352
39327W        W10998  32.890   3.431  12.967
39328W        W10999  38.167   5.316   3.368
39329W        W11000  25.326   6.782  12.484
39330W        W11001   6.169  40.929   0.761
39331W        W11002  42.348   3.751   3.625
39332W        W11003   7.213  24.455   2.971
39333W        W11004  30.953  39.714  12.312
39334W        W11005  17.062   2.991   4.134
39335W        W11006  33.123  36.832  11.141
39336W        W11007  10.641  39.860  14.433
39337W        W11008  32.999  35.522  11.793
39338W        W11009  13.530   0.511  12.110
39339W        W11010  33.994   3.326  14.975
39340W        W11011   5.305  33.091  13.941
39341W        W11012  25.336  31.642   2.488
39342W        W11013   7.833   8.879   1.166
39343W        W11014   6.522  23.502   5.279
39344W        W11015  38.599  25.020  12.948
39345W        W11016  23.902   2.703   2.804
39346W        W11017  18.560  38.481   1.913
39347W        W11018  39.031  37.830  14.210
39348W        W11019  38.942  36.668   0.680
39349W        W11020   4.193  12.968   4.781
39350W        W11021   6.494  14.105   0.180
39351W        W11022  15.106  10.198  14.390
39352W        W11023  37.029  26.808  11.076
39353W        W11024  36.925   8.840   0.314
39354W        W11025  23.661   7.652   1.340
39355W        W11026   6.463  40.969   0.327
39356W        W11027  15.169  12.225   4.642
39357W        W11028  27.989   6.899  13.075
39358W        W11029  44.297  16.622  13.461
39359W        W11030   7.178  39.134  12.847
39360W        W11031  31.072  31.435  13.120
39361W        W11032  21.539  11.383   0.030
39362W        W11033   6.847  35.689  12.355
39363W        W11034  40.973  18.524   1.668
39364W        W11035   1.395  29.229  13.487
39365W        W11036  30.593  29.691   4.121
39366W        W11037  27.286  17.150   2.668
39367W        W11038  28.242  26.186  14.271
39368W        W11039  12.944  19.622  14.380
39369W        W11040  16.106   7.845   1.674
39370W        W11041  33.250  23.657   0.370
39371W        W11042  21.061  30.115   3.579
39372W        W11043  11.275   2.534  14.403
39373W        W11044  23.688  12.624   4.132
39374W        W11045  42.520  28.958  11.492
39375W        W11046   2.444  44.950   2.204
39376W        W11047  12.943   1.227   3.173
39377W        W11048  29.524   0.294  14.427
39378W        W11049  34.381  29.938  12.987
39379W        W11050  32.678   3.041  11.632
39380W        W11051  17.848  21.530   0.901
39381W        W11052  24.875  39.286  12.048
39382W        W11053  36.176  16.351  11.538
39383W        W11054  16.118   9.949   4.321
39384W        W11055   0.340   8.838  11.748
39385W        W11056  36.639  38.500   4.197
39386W        W11057  26.731  28.571  11.910
39387W        W11058  10.627  27.443  10.649
39388W        W11059   5.204  11.922   1.081
39389W        W11060  36.552  31.648   3.322
39390W        W11061  44.062  24.378  13.423
39391W        W11062   2.381  34.164  10.718
39392W        W11063  19.186  26.083   1.289
39393W        W11064   3.914   0.552   3.232
39394W        W11065  37.088  22.624  13.465
39395W        W11066   7.825  16.338  11.226
39396W        W11067  12.590  31.445   4.139
39397W        W11068  37.449  11.602   0.861
39398W        W11069  31.622   9.815  10.665
39399W        W11070  23.125  40.387   2.970
39400W        W11071   5.937   4.928  11.616
39401W        W11072  42.210  14.646  13.259
39402W        W11073  17.593   3.446   2.295
39403W        W11074  38.408  29.981   4.423
39404W        W11075  38.538   8.750   2.886
39405W        W11076  44.003   4.715   1.470
39406W        W11077  13.898  38.379  14.954
39407W        W11078  25.657  12.133  11.138
39408W        W11079  25.013  30.656  13.451
39409W        W11080  38.796  37.666  13.248
39410W        W11081  19.852  22.154   2.707
39411W        W11082   5.445  35.968  12.988
39412W        W11083  10.073  12.797  12.163
39413W        W11084   7.257  11.113   1.771
39414W        W11085  25.257  38.056  13.006
39415W        W11086   1.472  34.420  13.864
39416W        W11087  24.323  38.941   9.791
39417W        W11088  11.049   2.478  11.179
39418W        W11089  22.108  19.854   3.732
39419W        W11090  21.285  14.253   1.137
39420W        W11091  13.344   7.324  13.000
39421W        W11092  38.180  44.434  10.278
39422W        W11093   9.618  42.295   4.119
39423W        W11094  16.747  38.931   0.851
39424W        W11095  28.684  14.940   1.326
39425W        W11096  35.515  35.440  10.947
39426W        W11097  42.723  33.110  10.923
39427W        W11098  28.782  11.453  11.660
39428W        W11099  13.542  26.872  12.970
39429W        W11100  37.534  42.835   1.926
39430W        W11101  28.039  16.082   4.691
39431W        W11102  14.839   0.705   4.175
39432W        W11103  29.532  14.016  12.480
39433W        W11104  23.612   7.160  14.341
39434W        W11105  42.906  44.449  10.685
39435W        W11106  43.347  13.911  11.424
39436W        W11107   9.832  39.189   2.431
39437W        W11108  37.733  29.410   4.250
39438W        W11109  26.687  17.529   3.512
39439W        W11110  42.107  10.301   1.774
39440W        W11111  38.974  23.821   4.442
39441W        W11112  25.091   9.885  10.207
39442W        W11113  10.257  13.313   5.103
39443W        W11114  27.437  13.218   4.216
39444W        W11115   8.300  15.595  14.507
39445W        W11116  36.101  38.141  13.815
39446W        W11117   2.972  41.858  14.772
39447W        W11118  27.648   7.793  11.159
39448W        W11119   0.380   8.383  14.967
39449W        W11120   1.812  20.813   4.142
39450W        W11121  14.268  42.531   1.640
39451W        W11122  18.180  14.824  13.026
39452W        W11123  23.964  24.567   2.028
39453W        W11124   1.495  11.814   1.667
39454W        W11125   9.332  44.153  12.745
39455W        W11126  20.595  36.242  13.333
39456W        W11127  34.074  19.288  13.020
39457W        W11128  10.781   2.724  13.408
39458W        W11129   5.896   2.899   0.958
39459W        W11130   3.470   4.647   4.219
39460W        W11131  43.034  17.825  10.764
39461W        W11132   7.855  20.870  13.886
39462W        W11133   5.132  26.783  11.171
39463W        W11134  18.826  36.380  11.608
39464W        W11135  15.184  38.601  10.752
39465W        W11136  34.499   7.757   1.329
39466W        W11137   6.003   5.335   1.290
39467W        W11138   3.466  20.486  11.151
39468W        W11139  36.073   6.729  11.678
39469W        W11140  35.390  31.145  11.683
39470W        W11141  37.889  35.066   3.359
39471W        W11142  28.478  40.992  13.402
39472W        W11143  16.792   7.128  13.408
39473W        W11144  35.028   6.161  14.359
39474W        W11145   1.357  25.225   1.662
39475W        W11146  35.820  40.548   1.036
39476W        W11147  15.166  33.148   2.304
39477W        W11148  21.314  30.387  13.890
39478W        W11149   2.157  28.184   2.196
39479W        W11150  40.824  41.340  10.804
39480W        W11151  24.500  37.534   4.530
39481W        W11152   0.996  35.139  10.902
39482W        W11153  19.514  21.637  13.001
39483W        W11154  15.205  29.194  11.108
39484W        W11155  42.242  28.222   1.767
39485W        W11156  29.584  43.388   4.331
39486W        W11157  34.506  41.803  13.478
39487W        W11158  18.325  41.951  11.675
39488W        W11159   3.019  39.568   1.672
39489W        W11160  43.443   6.158   4.773
39490W        W11161  34.815   5.907  12.628
39491W        W11162  32.601  21.319  12.133
39492W        W11163  21.646   3.029  11.512
39493W        W11164  42.946  11.413   3.520
39494W        W11165  28.492  24.888   1.002
39495W        W11166  42.283  19.243   0.899
39496W        W11167   5.237  31.667   4.980
39497W        W11168  23.957   4.757   0.811
39498W        W11169   7.773  17.543   4.347
39499W        W11170  27.450  17.299  11.733
39500W        W11171  23.964   8.845   0.338
39501W        W11172  28.686   3.077  12.927
39502W        W11173  21.098  38.168   5.162
39503W        W11174  19.248   8.617   3.559
39504W        W11175  38.645  12.820  10.339
39505W        W11176  44.019  34.884  13.053
39506W        W11177  28.690  26.137  14.527
39507W        W11178  39.448  36.503   4.034
39508W        W11179   3.315  12.838  12.050
39509W        W11180  35.993  31.466   2.136
39510W        W11181  17.781   7.369  14.325
39511W        W11182   5.108  20.176  13.163
39512W        W11183  24.555  25.086  10.377
39513W        W11184  32.972  25.452   3.713
39514W        W11185  28.067  39.020  14.380
39515W        W11186  26.925  30.545  11.049
39516W        W11187  38.498   3.458  11.981
39517W        W11188  13.582  44.563  10.414
39518W        W11189   1.053  21.424   1.853
39519W        W11190   9.104   0.323   3.650
39520W        W11191  13.549  43.827   1.981
39521W        W11192   2.277  38.067  11.212
39522W        W11193  13.060  37.437   1.245
39523W        W11194   2.724   5.632  14.533
39524W        W11195  41.824  35.578  13.128
39525W        W11196  16.313  39.034  13.251
39526W        W11197   8.961  16.131   3.307
39527W        W11198   9.475  21.334   1.896
39528W        W11199  39.612  42.882   1.610
39529W        W11200  34.633  14.725  11.094
39530W        W11201  13.074  27.014   0.811
39531W        W11202  15.322  16.198  14.035
39532W        W11203  44.959   5.676  13.366
39533W        W11204  22.710  11.419  12.856
39534W        W11205   9.328   1.058   5.029
39535W        W11206  41.351   8.467   4.139
39536W        W11207   3.492   2.214   4.087
39537W        W11208  42.282  28.628   0.163
39538W        W11209  33.115   7.698   2.674
39539W        W11210  36.063   0.126   2.806
39540W        W11211  31.124  37.152   3.367
39541W        W11212  40.814   0.211   1.344
39542W        W11213   4.873  17.528   0.015
39543W        W11214  25.705  15.753  11.400
39544W        W11215   2.402  43.461   3.590
39545W        W11216  12.438  32.410   1.878
39546W        W11217  31.477  19.470   4.219
39547W        W11218  14.113   3.360   3.679
39548W        W11219  23.093   3.099   3.246
39549W        W11220   8.249  43.755   3.303
39550W        W11221  42.382  39.547  12.907
39551W        W11222  29.240  39.414  11.017
39552W        W11223   1.010  16.267  14.309
39553W        W11224  33.059  12.163   0.784
39554W        W11225   0.017  21.718  10.556
39555W        W11226  36.299  12.826   3.318
39556W        W11227   8.317   2.921  11.738
39557W        W11228   8.370  31.701  11.430
39558W        W11229  38.145   3.753  14.955
39559W        W11230   3.919  22.533   4.219
39560W        W11231  40.984  30.587  11.204
39561W        W11232  19.607  22.682   2.817
39562W        W11233  43.360  16.602   2.631
39563W        W11234  12.062  18.823  10.721
39564W        W11235   5.691  26.128   1.451
39565W        W11236   4.840  37.842   4.150
39566W        W11237   7.129  16.039   3.638
39567W        W11238  35.464  25.629  13.046
39568W        W11239  11.754  43.416   0.304
39569W        W11240   9.766  39.854  11.921
39570W        W11241  32.213  13.664  12.108
39571W        W11242  17.899  38.876  12.001
39572W        W11243  17.828  36.827   3.632
39573W        W11244  38.583  41.919   0.662
39574W        W11245  30.338   6.772   1.873
39575W        W11246   7.663  13.328   4.426
39576W        W11247   2.210  38.903   3.198
39577W        W11248  35.017  41.055  10.695
39578W        W11249  13.692  17.642   3.276
39579W        W11250   1.887   2.452  10.498
39580W        W11251  41.823  44.828  11.471
39581W        W11252  15.011  26.413   0.119
39582W        W11253  31.577  34.528   0.826
39583W        W11254  43.399  43.257   4.967
39584W        W11255  17.660  10.134  12.272
39585W        W11256  15.370   0.075   3.730
39586W        W11257  31.067  32.078   3.617
39587W        W11258  20.096  21.656  13.734
39588W        W11259  32.897  42.992   1.775
39589W        W11260  30.503  23.211  10.675
39590W        W11261  17.357  37.623  10.918
39591W        W11262  15.612  30.393  13.345
39592W        W11263  10.178  41.315  13.728
39593W        W11264   8.197  42.107   0.423
39594W        W11265  41.492  11.586  12.996
39595W        W11266  39.632  21.938   0.926
39596W        W11267  33.546   0.992   0.850
39597W        W11268   5.122   0.084   0.409
39598W        W11269   9.942   0.274   2.305
39599W        W11270  19.151  10.613  14.500
39600W        W11271  29.107  34.072   2.809
39601W        W11272  21.004  25.899   0.304
39602W        W11273  35.538  43.400   2.715
39603W        W11274  38.345  24.459   1.292
39604W        W11275  10.744  10.313   2.949
39605W        W11276  25.923  18.618  13.204
39606W        W11277  27.609  44.693  12.118
39607W        W11278  22.753  23.280  10.971
39608W        W11279   3.916  29.141  14.801
39609W        W11280  37.919  41.874   1.886
39610W        W11281   7.302  23.906  11.634
39611W        W11282   6.253  36.454   0.994
39612W        W11283  33.065  37.802   0.854
39613W        W11284   2.724  40.002  11.582
39614W        W11285  34.451  11.595   2.557
39615W        W11286  22.113  20.833   3.848
39616W        W11287  42.869  42.538  13.501
39617W        W11288  40.515  40.794  14.097
39618W        W11289   1.310  19.696  13.100
39619W        W11290  40.550  34.653   1.876
39620W        W11291  28.630   1.973   3.645
39621W        W11292  15.268  24.776   3.872
39622W        W11293  18.808  13.308   1.366
39623W        W11294  44.481  35.491   1.272
39624W        W11295   0.908  40.565   0.344
39625W        W11296  15.269  30.655  11.095
39626W        W11297  41.426   2.335  12.027
39627W        W11298  39.952  27.524   3.682
39628W        W11299   4.545  34.934   2.665
39629W        W11300  23.661  44.717   3.433
39630W        W11301  35.541   1.535  13.837
39631W        W11302  38.892  19.474   4.425
39632W        W11303  44.737  24.648  11.090
39633W        W11304  44.623  44.720  14.246
39634W        W11305  34.450  28.960  14.974
39635W        W11306  31.022  39.406   4.680
39636W        W11307   8.207  36.434  11.878
39637W        W11308  30.636  17.334  10.814
39638W        W11309   6.172  21.771   4.115
39639W        W11310  37.085   0.457  13.477
39640W        W11311   4.745  15.704  11.574
39641W        W11312  38.808  20.093   3.701
39642W        W11313  41.037  35.138  13.172
39643W        W11314  19.817  15.165  12.520
39644W        W11315   2.966  36.809  11.961
39645W        W11316  14.269  32.263  11.950
39646W        W11317  28.954  30.881   3.831
39647W        W11318  14.274  30.619  12.946
39648W        W11319  13.229   9.319  13.640
39649W        W11320  16.980  20.877  11.085
39650W        W11321  33.973  19.426   4.045
39651W        W11322   9.730  22.766  13.621
39652W        W11323   9.144  42.245  14.507
39653W        W11324  20.065  11.872   2.480
39654W        W11325   1.624  24.561   1.215
39655W        W11326   6.738   6.098  12.454
39656W        W11327  18.461  18.811   1.820
39657W        W11328  23.166  15.000   0.390
39658W        W11329  26.803  21.946   2.846
39659W        W11330  21.369  44.346   0.359
39660W        W11331  14.829  29.005   1.985
39661W        W11332   6.193  24.529   3.228
39662W        W11333  12.031  16.645   1.261
39663W        W11334  18.718   1.063   1.255
39664W        W11335  37.988  35.286   2.033
39665W        W11336  26.136  39.543  14.822
39666W        W11337  15.480  37.875   3.660
39667W        W11338  32.408  37.100  12.463
39668W        W11339  24.911   5.133  11.547
39669W        W11340  44.214   8.228  11.077
39670W        W11341  37.766  25.003   4.169
39671W        W11342  30.591  26.757  14.002
39672W        W11343  22.278   7.897  12.996
39673W        W11344  11.083  23.293   2.335
39674W        W11345  43.543   8.621  12.550
39675W        W11346  40.524  44.661  12.803
39676W        W11347   9.717  22.583   4.115
39677W        W11348  33.858  35.359   4.437
39678W        W11349   4.935  31.574  10.484
39679W        W11350  26.608  32.366  14.335
39680W        W11351  43.905  25.135  14.013
39681W        W11352  30.388   3.776  14.783
39682W        W11353  24.656  14.609  14.525
39683W        W11354  24.699  42.672  14.191
39684W        W11355   3.201  16.743  14.980
39685W        W11356   1.917  44.834   3.409
39686W        W11357  33.871  41.575   1.425
39687W        W11358  18.340  10.071   0.341
39688W        W11359  20.759  21.177   4.180
39689W        W11360   7.192  12.699   2.395
39690W        W11361  37.558  41.945   2.270
39691W        W11362   5.091  32.452   2.795
39692W        W11363   7.725  27.908  13.067
39693W        W11364  29.448   4.364   0.831
39694W        W11365  26.215   3.378  14.744
39695W        W11366  37.952  34.678   1.238
39696W        W11367   7.644   6.712   3.367
39697W        W11368  18.135  28.094  12.954
39698W        W11369   7.630   3.531   3.157
39699W        W11370  24.173  17.036   1.330
39700W        W11371   9.435  44.905   3.587
39701W        W11372   5.687  35.616   2.649
39702W        W11373  38.865  20.511   4.545
39703W        W11374  15.054  10.257  11.672
39704W        W11375  26.032  11.792   2.046
39705W        W11376  41.571   4.023   2.754
39706W        W11377  10.297   8.024  12.570
39707W        W11378  16.872  37.837  12.096
39708W        W11379  21.159  40.074  12.920
39709W        W11380  19.137  12.662   0.284
39710W        W11381   3.985   8.882   1.836
39711W        W11382   0.115   1.720   2.708
39712W        W11383  17.548   0.482  10.696
39713W        W11384  43.444  20.115   1.884
39714W        W11385  24.188   7.661   4.208
39715W        W11386  31.918  21.683   1.738
39716W        W11387  17.071  26.733  12.025
39717W        W11388  34.768   5.608  10.284
39718W        W11389  41.071   8.807   4.449
39719W        W11390  31.614  40.442   0.485
39720W        W11391  26.482   6.915  10.509
39721W        W11392  28.268  17.040  10.180
39722W        W11393   6.993  31.594  12.981
39723W        W11394  23.229  26.246  12.543
39724W        W11395  39.960   4.017  12.914
39725W        W11396  27.589  31.979   1.566
39726W        W11397  10.769   2.665  12.909
39727W        W11398   5.920  15.131   3.248
39728W        W11399  31.089  14.904   1.264
39729W        W11400  29.610  27.922   4.587
39730W        W11401  38.140  43.899  13.092
39731W        W11402   3.156  38.921  11.614
39732W        W11403  12.663  37.459   3.350
39733W        W11404  18.587  42.898   3.108
39734W        W11405   3.091  21.015  11.936
39735W        W11406  40.033  38.845  14.919
39736W        W11407  26.251  18.376  11.144
39737W        W11408  20.606  33.901   3.160
39738W        W11409  16.430  19.669   3.647
39739W        W11410  41.258  38.786   5.077
39740W        W11411   2.703   6.585  12.976
39741W        W11412  39.575  13.735   0.914
39742W        W11413  10.410   2.976   4.941
39743W        W11414  12.173  39.269   3.202
39744W        W11415  40.556   5.442  14.073
39745W        W11416  34.588  25.985   1.825
39746W        W11417  13.873  24.105   1.348
39747W        W11418   5.213  12.323  14.332
39748W        W11419  29.455  43.491  12.808
39749W        W11420   7.689  29.285  14.056
39750W        W11421   7.399  12.481   1.947
39751W        W11422   5.770  31.677   1.706
39752W        W11423  39.856  44.225   4.531
39753W        W11424   1.282  22.073  14.520
39754W        W11425   6.560   8.092   2.227
39755W        W11426  43.452   6.932   0.835
39756W        W11427  33.454  44.872  10.251
39757W        W11428  13.718  19.084   1.947
39758W        W11429  29.696   3.571  12.085
39759W        W11430  23.460   7.266  13.452
39760W        W11431  18.407  22.477   1.685
39761W        W11432  34.768  14.139   4.915
39762W        W11433   7.736  10.144   2.691
39763W        W11434   3.015  22.618   5.014
39764W        W11435  16.540  24.113  11.425
39765W        W11436  31.290  39.490  14.059
39766W        W11437  16.630  40.998   4.099
39767W        W11438  28.158  19.060   3.446
39768W        W11439  34.102  14.540  12.031
39769W        W11440   7.596  25.123   4.720
39770W        W11441   0.881  35.970   0.982
39771W        W11442  10.627  24.092  14.253
39772W        W11443   6.791  27.021   4.387
39773W        W11444  15.725  21.314  11.563
39774W        W11445   1.760  19.603   2.209
39775W        W11446  29.352  11.208   3.116
39776W        W11447  15.753  42.961   1.684
39777W        W11448   0.119  20.226  12.822
39778W        W11449  36.320  43.402   3.198
39779W        W11450  26.281  17.747  13.244
39780W        W11451  37.876  38.407  14.519
39781W        W11452  13.948   0.255  14.319
39782W        W11453  19.322  34.358  13.029
39783W        W11454   9.357  29.606   2.168
39784W        W11455  17.268  19.460   5.374
39785W        W11456   5.737  23.139  13.506
39786W        W11457   9.777  15.167  11.371
39787W        W11458  15.049  30.520  11.592
39788W        W11459  41.883  22.740  12.703
39789W        W11460  19.954  39.943   4.619
39790W        W11461  36.302   2.211   2.668
39791W        W11462   2.011  23.587   3.856
39792W        W11463   9.645   2.851  14.782
39793W        W11464  31.459  33.087   0.419
39794W        W11465  37.335  34.369   2.285
39795W        W11466  39.537   4.374  12.910
39796W        W11467  23.131  13.357   3.755
39797W        W11468  15.105  20.478   4.022
39798W        W11469  31.948  44.818   4.758
39799W        W11470  29.558  40.767   1.654
39800W        W11471  19.787   5.200   1.317
39801W        W11472   9.926  11.094   4.340
39802W        W11473   1.850   8.110   4.899
39803W        W11474  15.284  11.704  11.432
39804W        W11475  41.000  37.256   1.906
39805W        W11476  28.299  15.206   0.399
39806W        W11477  23.636  17.360   4.492
39807W        W11478  26.267  18.171   4.744
39808W        W11479   2.076  16.252   2.718
39809W        W11480  27.374   3.442  13.936
39810W        W11481  32.551  37.324  14.295
39811W        W11482  28.676   8.746   4.103
39812W        W11483  17.585  33.469   1.691
39813W        W11484  41.263  35.390   4.312
39814W        W11485  22.751  17.309  11.543
39815W        W11486  12.705  17.031  14.359
39816W        W11487  20.602  35.401  12.282
39817W        W11488  33.025   1.476   0.243
39818W        W11489   1.314  44.989   4.586
39819W        W11490   0.081  27.747   0.847
39820W        W11491  18.914  36.103  14.980
39821W        W11492  29.143  19.801  14.527
39822W        W11493  41.419   9.329  12.460
39823W        W11494   2.612  11.378  13.207
39824W        W11495   4.312  18.612   3.145
39825W        W11496  40.124  25.549   4.332
39826W        W11497  15.308  41.933  13.803
39827W        W11498   8.349  27.110   1.182
39828W        W11499  10.765  39.380  14.581
39829W        W11500   1.169  28.768  13.409
39830W        W11501  26.832   4.935  10.536
39831W        W11502   3.701  23.757  12.021
39832W        W11503   1.851   0.965  11.633
39833W        W11504  22.001  27.541   3.215
39834W        W11505   4.121  15.522  12.079
39835W        W11506  22.151  39.580  14.943
39836W        W11507   8.668  42.980  12.602
39837W        W11508   5.520   8.393  13.156
39838W        W11509  16.103   3.227  13.006
39839W        W11510  34.645  22.255  12.849
39840W        W11511  37.083  20.032   0.443
39841W        W11512   6.548  39.315  11.551
39842W        W11513  39.422  14.908   0.808
39843W        W11514  27.992  22.703   0.430
39844W        W11515  36.602   7.296  11.215
39845W        W11516   6.458  41.831  11.378
39846W        W11517  21.900  34.095   2.785
39847W        W11518   3.210  28.111   1.327
39848W        W11519  12.526   1.505  10.601
39849W        W11520  44.254   3.455  10.229
39850W        W11521  32.654  21.068   1.875
39851W        W11522  44.910  16.173  11.210
39852W        W11523  19.233   0.515  14.851
39853W        W11524  31.106  23.658  10.147
39854W        W11525  14.977  25.726   3.713
39855W        W11526  23.634  13.370   3.629
39856W        W11527   0.303  28.408   0.999
39857W        W11528  42.842  25.051  11.830
39858W        W11529  11.805   9.623  13.569
39859W        W11530  27.648  25.267   0.739
39860W        W11531   3.171  15.338  10.815
39861W        W11532  44.783  32.125   0.517
39862W        W11533  18.524  35.957   2.253
39863W        W11534  13.021  22.114  12.143
39864W        W11535  17.570  10.775   0.357
39865W        W11536  23.454  24.073   2.612
39866W        W11537   0.693  19.070   0.768
39867W        W11538  39.841   3.984   4.920
39868W        W11539   9.539   6.157   2.113
39869W        W11540  44.029  25.916  13.539
39870W        W11541   2.784  27.114  10.721
39871W        W11542   0.482  24.120   3.112
39872W        W11543  44.713  40.274  12.009
39873W        W11544  13.217  22.278  13.962
39874W        W11545  34.624  27.067  10.461
39875W        W11546   1.231  18.676   0.565
39876W        W11547  26.685  27.189  14.075
39877W        W11548  27.966  31.904  14.899
39878W        W11549   8.516  42.823  10.672
39879W        W11550  12.861  44.019  11.539
39880W        W11551  30.059  32.880   4.567
39881W        W11552  11.639  38.985  14.700
39882W        W11553  26.614  15.030   3.293
39883W        W11554  30.635  13.362   4.159
39884W        W11555  32.784  31.973   4.625
39885W        W11556   2.377  34.261  13.296
39886W        W11557  41.408   2.717   4.622
39887W        W11558  26.913  26.902   0.432
39888W        W11559  29.575  37.899   1.676
39889W        W11560  23.526  14.127  10.719
39890W        W11561  27.817  25.721   0.545
39891W        W11562  14.081  17.983  11.646
39892W        W11563  23.619  35.079   3.279
39893W        W11564  21.368  40.888   3.411
39894W        W11565   4.672  30.554  14.755
39895W        W11566  17.758   0.920  10.502
39896W        W11567  24.174  37.451   1.248
39897W        W11568  18.017   8.183  10.574
39898W        W11569  35.381  39.894  12.473
39899W        W11570  25.858  19.766   9.852
39900W        W11571  41.371  14.684   3.392
39901W        W11572  15.845  24.831  12.245
39902W        W11573   4.726   6.569   1.294
39903W        W11574  30.999  31.043  14.278
39904W        W11575  40.738   0.493   1.843
39905W        W11576  29.633   4.730  13.171
39906W        W11577  12.582  19.324  13.457
39907W        W11578  38.997  32.922  12.915
39908W        W11579  16.665  18.300  11.601
39909W        W11580   5.923   8.241  11.734
39910W        W11581   0.454   2.947   4.370
39911W        W11582   9.608   1.787   0.749
39912W        W11583   6.591  30.846   2.966
39913W        W11584  10.655   6.662   4.159
39914W        W11585   5.866  33.320   1.323
39915W        W11586  28.948   4.644  13.847
39916W        W11587  11.110  19.413   3.126
39917W        W11588  27.467   3.702   4.219
39918W        W11589  24.025   6.791  12.016
39919W        W11590  43.747  28.715   3.216
39920W        W11591  29.329  14.091   3.614
39921W        W11592  25.451  24.187   0.293
39922W        W11593  22.069  31.142   0.730
39923W        W11594  22.067  44.475   1.335
39924W        W11595  17.105  40.448  13.061
39925W        W11596  11.707   2.426   1.369
39926W        W11597  43.972  24.922  13.488
39927W        W11598   2.680  11.254  12.706
39928W        W11599  21.583  17.202   1.651
39929W        W11600  33.060  30.540  13.548
39930W        W11601   3.239  21.669  13.084
39931W        W11602   0.341  41.854  12.938
39932W        W11603  41.213   1.633   0.391
39933W        W11604  11.732  40.043  13.453
39934W        W11605  26.647  24.758  13.341
39935W        W11606  41.074   1.901   3.764
39936W        W11607  14.867  38.003  14.187
39937W        W11608  24.172  26.934  13.535
39938W        W11609  10.810  19.180  11.735
39939W        W11610  15.774  10.824   2.743
39940W        W11611  26.692  31.016  12.471
39941W        W11612  37.899  19.219  13.213
39942W        W11613   8.902  33.559  10.476
39943W        W11614  28.499  30.454  11.257
39944W        W11615   0.319  23.485   4.090
39945W        W11616  39.935  30.137   0.853
39946W        W11617  39.285  15.233   1.915
39947W        W11618   5.125  10.134  12.346
39948W        W11619  28.827   7.981   3.028
39949W        W11620  20.939  39.970   1.912
39950W        W11621  41.901  21.686  14.481
39951W        W11622  37.886  21.547   4.603
39952W        W11623   7.351  12.447   2.869
39953W        W11624   4.473   7.054   4.953
39954W        W11625  15.984  38.311  10.632
39955W        W11626  13.834  44.831   2.889
39956W        W11627  36.556  32.133   4.574
39957W        W11628  25.588   0.107   1.734
39958W        W11629  41.839  16.891  12.456
39959W        W11630  34.552  27.953  11.826
39960W        W11631  20.675  19.298  11.636
39961W        W11632  42.946  10.254   4.489
39962W        W11633   7.355  35.964  11.002
39963W        W11634  16.713  37.239   1.841
39964W        W11635  35.267   6.813  12.087
39965W        W11636  37.748  41.840  13.180
39966W        W11637  43.955  10.891  14.495
39967W        W11638  39.386   9.846   2.650
39968W        W11639  11.795  31.669   3.754
39969W        W11640  24.773  38.110  12.819
39970W        W11641  36.891  15.658  11.271
39971W        W11642  44.080  41.343   5.022
39972W        W11643  26.063  21.631   4.511
39973W        W11644  15.283  13.724  11.497
39974W        W11645  18.532  22.762  11.071
39975W        W11646  13.847   8.488   3.924
39976W        W11647  28.509  31.172   2.251
39977W        W11648  22.764  23.748   2.274
39978W        W11649  31.967   3.255   1.379
39979W        W11650  14.231  12.927   1.691
39980W        W11651  19.508  16.296   3.847
39981W        W11652  34.885  17.149   0.935
39982W        W11653  18.421  23.486   0.897
39983W        W11654  14.214  15.551   4.990
39984W        W11655  35.371  17.589  11.454
39985W        W11656  13.852  28.710   0.684
39986W        W11657   8.625   8.140  14.855
39987W        W11658   5.860   5.817  11.215
39988W        W11659  16.672  14.785  14.353
39989W        W11660   2.676  12.702   2.922
39990W        W11661  15.384  39.358  12.340
39991W        W11662  40.442  37.305  12.777
39992W        W11663  35.128  43.274   3.706
39993W        W11664   9.597  32.299  11.178
39994W        W11665  43.242  13.928   3.541
39995W        W11666  39.320  39.138  14.049
39996W        W11667  15.356  41.405  10.923
39997W        W11668   5.208  20.000   2.259
39998W        W11669  29.208  41.425  11.000
39999W        W11670   5.436  30.674  12.458
40000W        W11671   5.026   9.454  13.357
40001W        W11672  38.645  10.217   3.722
40002W        W11673  11.754  15.672   3.815
40003W        W11674  41.565   8.626  11.213
40004W        W11675  44.327  16.606  14.242
40005W        W11676   0.771  30.287   2.067
40006W        W11677  10.292  32.088  13.447
40007W        W11678  24.673   1.757   0.816
40008W        W11679  26.966  28.063   4.465
40009W        W11680  20.624  33.204   0.433
40010W        W11681  12.117  36.007  13.107
40011W        W11682  33.609   5.404   0.305
40012W        W11683  38.429  44.965   2.362
40013W        W11684  29.021   9.642   4.588
40014W        W11685   3.413  33.356  12.469
40015W        W11686  11.763  34.078  14.170
40016W        W11687  28.540  26.668   4.244
40017W        W11688  15.556  13.461  13.878
40018W        W11689  37.711   7.362   3.748
40019W        W11690  38.970   6.718  14.900
40020W        W11691  29.000  37.046  13.469
40021W        W11692  18.881   4.706   3.741
40022W        W11693  33.624  27.014  11.382
40023W        W11694  41.590  34.926  14.997
40024W        W11695   6.601  36.515   0.573
40025W        W11696  36.558  35.510   1.764
40026W        W11697  29.897  12.020  13.058
40027W        W11698  33.229  36.366  10.417
40028W        W11699   4.992  32.559   3.367
40029W        W11700  21.472   4.365  13.053
40030W        W11701  16.639   0.466   1.368
40031W        W11702  29.986  37.518   4.252
40032W        W11703  11.486  40.818   3.457
40033W        W11704  19.664   7.293   3.351
40034W        W11705  35.513  44.240  14.340
40035W        W11706  24.641   2.696   0.835
40036W        W11707  20.125  36.143  12.863
40037W        W11708  27.519  25.143   4.922
40038W        W11709  24.340   8.344  13.499
40039W        W11710   3.874   1.434  13.866
40040W        W11711  30.504  35.901  11.367
40041W        W11712  21.923  23.057  13.883
40042W        W11713  25.662  18.282   1.742
40043W        W11714   3.903  13.032   3.210
40044W        W11715  41.267  40.493  13.320
40045W        W11716   9.786  33.433   0.239
40046W        W11717   9.734  33.926  12.409
40047W        W11718  36.911  42.697   3.218
40048W        W11719  39.943  24.276   4.367
40049W        W11720  20.861   9.895  11.955
40050W        W11721  21.762  23.911  11.951
40051W        W11722  43.973  27.056   1.173
40052W        W11723  19.571  11.200  14.739
40053W        W11724   2.111  21.694   4.703
40054W        W11725  18.760  44.207  11.921
40055W        W11726  32.459  27.286   1.989
40056W        W11727  43.262   6.265   1.319
40057W        W11728  33.970  22.910   0.426
40058W        W11729   9.333  12.027   3.379
40059W        W11730  22.001  31.895  13.395
40060W        W11731  20.068   2.727  12.191
40061W        W11732  40.515  15.281   4.487
40062W        W11733  43.312  37.529   5.319
40063W        W11734  26.534  29.476  14.574
40064W        W11735  38.540   0.926   0.453
40065W        W11736  27.633  40.928   4.617
40066W        W11737  11.625  26.767   1.376
40067W        W11738  34.361  27.016   3.732
40068W        W11739  38.398  20.574  12.782
40069W        W11740  19.667  18.523  10.804
40070W        W11741  19.751  37.159  14.028
40071W        W11742  31.967  11.231  14.863
40072W        W11743  39.107  26.798  14.892
40073W        W11744   1.517   5.771  12.957
40074W        W11745  27.221   7.272  12.846
40075W        W11746  21.689  22.523   3.872
40076W        W11747  29.190  24.453   3.791
40077W        W11748  24.688  28.223   2.439
40078W        W11749  37.530  31.174   0.009
40079W        W11750  14.162  30.353   4.671
40080W        W11751  25.142   6.162  14.711
40081W        W11752  38.625  13.732   4.245
40082W        W11753   8.107  37.337  11.415
40083W        W11754  35.768  36.831   0.554
40084W        W11755  40.091   1.305   1.011
40085W        W11756  35.466  23.016  12.478
40086W        W11757  16.684  27.052  12.067
40087W        W11758  14.513  39.628  11.396
40088W        W11759  14.382  10.757  12.950
40089W        W11760   5.468  33.143  12.531
40090W        W11761  30.166  35.428  11.156
40091W        W11762  12.065  28.969   4.663
40092W        W11763   3.280  23.220  12.633
40093W        W11764  43.168  24.979   2.697
40094W        W11765  17.504  42.852  12.942
40095W        W11766  15.136  39.844   4.186
40096W        W11767   0.220  35.144   3.306
40097W        W11768  37.799  15.673   0.229
40098W        W11769  29.247   3.767  11.929
40099W        W11770  20.822   9.878   2.076
40100W        W11771  18.692  19.637   3.612
40101W        W11772  38.455  26.727  13.566
40102W        W11773  28.265  39.074   2.252
40103W        W11774  15.976  28.540   3.574
40104W        W11775  29.142   3.794   0.449
40105W        W11776  40.821  29.513  12.488
40106W        W11777  10.638  40.240  12.152
40107W        W11778  42.180   4.727   9.967
40108W        W11779   3.716  34.094   3.331
40109W        W11780  25.069   1.296   4.953
40110W        W11781  33.851  41.989   4.914
40111W        W11782  31.233  24.609  13.535
40112W        W11783  44.780   6.357   1.159
40113W        W11784  11.442  32.168   5.111
40114W        W11785  20.808  41.132   4.968
40115W        W11786  39.584  14.590  12.402
40116W        W11787   0.206  38.929   3.377
40117W        W11788  25.447  22.769  13.007
40118W        W11789  23.792  25.562  14.975
40119W        W11790  17.072  16.296   1.299
40120W        W11791  10.274  43.575   3.651
40121W        W11792  27.551  30.749  12.070
40122W        W11793  24.081  21.944   1.220
40123W        W11794  41.254  29.764  13.780
40124W        W11795  37.565   0.525  10.299
40125W        W11796  43.708  33.074  13.937
40126W        W11797  10.934  28.582   0.901
40127W        W11798  32.401  28.998  14.790
40128W        W11799  32.506   5.922  12.890
40129W        W11800  23.045  10.205   2.238
40130W        W11801  27.609  20.038   3.065
40131W        W11802   1.165  33.006  13.089
40132W        W11803  36.909  23.154  11.327
40133W        W11804   1.702  17.535   1.952
40134W        W11805  37.923   8.952   3.925
40135W        W11806  32.959   7.900   3.623
40136W        W11807   5.911  42.537   2.912
40137W        W11808  22.327  38.653   1.674
40138W        W11809  23.454  38.873   1.966
40139W        W11810  35.463   8.472   5.006
40140W        W11811  42.325  38.598  11.027
40141W        W11812  22.442  16.628  11.063
40142W        W11813   7.707  30.648  10.012
40143W        W11814   4.244   9.716   1.007
40144W        W11815  33.604  30.375  14.434
40145W        W11816   4.517  16.220  10.577
40146W        W11817   2.020  11.781   1.701
40147W        W11818  36.747  32.976  11.446
40148W        W11819   3.858  25.669  14.837
40149W        W11820  21.523  33.686  14.943
40150W        W11821  28.678  20.600  12.314
40151W        W11822  23.618  20.731  11.696
40152W        W11823  35.143   9.902   2.515
40153W        W11824   0.233   3.006   1.744
40154W        W11825  25.843  10.392  12.935
40155W        W11826  19.969  24.127  14.951
40156W        W11827  20.770  30.860  12.147
40157W        W11828   1.012   8.950   1.341
40158W        W11829  34.344   4.659   3.293
40159W        W11830  26.545  36.104   3.221
40160W        W11831  24.267  35.900   2.782
40161W        W11832  40.598  27.106  14.515
40162W        W11833   5.462  21.196  13.782
40163W        W11834  33.331  22.027   0.007
40164W        W11835   3.531   2.650   0.551
40165W        W11836  13.914  30.455  14.293
40166W        W11837   1.436  26.180   0.918
40167W        W11838   9.684  23.166  13.284
40168W        W11839  12.733   3.629  14.980
40169W        W11840  24.036  12.086   0.442
40170W        W11841  33.625  17.157  10.874
40171W        W11842  11.604  44.013   0.953
40172W        W11843  12.652  30.184   4.310
40173W        W11844  12.861  13.146  11.484
40174W        W11845   0.792  31.420   4.128
40175W        W11846   9.285  18.034  14.182
40176W        W11847  35.839  15.867   0.319
40177W        W11848  35.506   3.939   4.526
40178W        W11849  18.429  23.279   5.043
40179W        W11850  33.417  42.467   0.084
40180W        W11851  27.654  29.880  12.520
40181W        W11852  34.559   9.921  13.382
40182W        W11853  18.065  26.852  13.501
40183W        W11854   5.872  15.199   0.189
40184W        W11855  16.281  22.216   2.411
40185W        W11856  28.466   0.555   2.109
40186W        W11857  15.194  30.923   0.003
40187W        W11858  42.641  16.637   1.259
40188W        W11859  25.569  25.053   1.492
40189W        W11860  39.099   0.020  12.781
40190W        W11861  29.183  35.897   3.170
40191W        W11862  14.087  44.978   1.306
40192W        W11863  32.459  35.541  10.659
40193W        W11864   0.915  26.481  13.018
40194W        W11865  26.722  43.403  14.774
40195W        W11866  29.364  10.548   4.518
40196W        W11867  34.754  18.526  13.120
40197W        W11868  43.976  23.316  12.493
40198W        W11869  11.704  23.448   3.577
40199W        W11870  16.870  34.655  12.481
40200W        W11871  32.655  24.259  12.527
40201W        W11872   4.170  33.473   4.373
40202W        W11873   8.852  39.377  12.412
40203W        W11874  27.178  10.913   4.720
40204W        W11875  41.627  32.128  13.034
40205W        W11876  20.040  16.319  13.030
40206W        W11877   2.537   9.484   1.700
40207W        W11878  26.652  42.579  11.570
40208W        W11879  28.673  21.725   3.382
40209W        W11880   9.686  20.298   2.260
40210W        W11881  44.472  39.479   9.407
40211W        W11882  12.583  43.344   0.708
40212W        W11883  13.869   7.353  13.084
40213W        W11884  29.490   0.828   2.623
40214W        W11885  11.768  27.509  10.317
40215W        W11886  37.431  41.712  11.209
40216W        W11887  44.564   7.750   1.828
40217W        W11888  27.818  16.471   3.640
40218W        W11889  28.531  36.534  10.870
40219W        W11890  31.080  20.125   1.622
40220W        W11891  15.895  26.122  12.547
40221W        W11892  32.386  35.130   2.231
40222W        W11893  14.140  40.699   0.033
40223W        W11894  19.140  20.277   4.253
40224W        W11895  20.099  35.619  12.961
40225W        W11896  29.728  17.924   5.074
40226W        W11897  22.273  42.470  12.995
40227W        W11898  35.027  35.554  14.997
40228W        W11899  22.613  32.869  11.150
40229W        W11900  25.947  21.768   4.032
40230W        W11901  37.119  27.662  14.319
40231W        W11902  32.922   2.226  10.754
40232W        W11903  42.897  41.035  13.063
40233W        W11904  24.215  42.487  14.229
40234W        W11905   7.123  30.000   1.712
40235W        W11906  42.714   8.640  14.851
40236W        W11907  38.521  19.674  10.733
40237W        W11908  16.718  23.748  12.485
40238W        W11909  26.395  17.178  12.699
40239W        W11910  28.387  30.151  14.544
40240W        W11911  40.172  25.063   0.156
40241W        W11912  38.621  44.362  12.225
40242W        W11913  28.126  33.536   1.772
40243W        W11914  24.412  43.073  13.982
40244W        W11915   7.048   2.196   1.366
40245W        W11916  14.071  24.467  10.705
40246W        W11917  10.286   5.025   1.155
40247W        W11918  38.402  31.710  12.434
40248W        W11919   3.298  15.591   3.660
40249W        W11920  39.965  19.083  11.087
40250W        W11921  38.449   4.616   1.759
40251W        W11922  40.465  28.828   2.401
40252W        W11923  31.440  19.775   0.150
40253W        W11924  27.710  21.040   2.044
40254W        W11925  28.111  34.917   1.223
40255W        W11926  35.360   6.250  11.985
40256W        W11927  31.159  42.951   2.211
40257W        W11928  33.968  42.835   0.750
40258W        W11929  38.461  12.917   1.718
40259W        W11930  17.275   4.399  11.302
40260W        W11931  10.102  10.729  11.402
40261W        W11932  39.188  41.320  13.501
40262W        W11933   0.846   2.533   2.681
40263W        W11934  31.109  35.031   2.275
40264W        W11935  35.048  17.189  13.089
40265W        W11936  30.178  26.903   0.818
40266W        W11937   6.419  14.771   1.268
40267W        W11938  26.577  16.500  10.840
40268W        W11939  26.230   6.645   0.645
40269W        W11940  21.085  31.138   0.940
40270W        W11941  22.318   9.789   1.724
40271W        W11942  40.020  40.456   2.757
40272W        W11943  24.557  12.122   2.583
40273W        W11944   6.299  27.280  12.447
40274W        W11945  28.626   1.004   2.344
40275W        W11946  20.621  15.718   4.556
40276W        W11947  15.707   5.794  10.789
40277W        W11948  24.942  27.718   0.835
40278W        W11949  12.852  43.453  14.801
40279W        W11950  19.923  33.613  13.117
40280W        W11951  10.451   1.042  13.073
40281W        W11952  23.753  19.242  11.916
40282W        W11953  24.958  43.426  14.409
40283W        W11954  17.617   0.212  12.156
40284W        W11955   4.249  42.407   1.240
40285W        W11956   4.471   2.777  12.628
40286W        W11957  25.496  25.509   0.764
40287W        W11958  22.294  28.986  12.121
40288W        W11959  18.125   3.166  10.831
40289W        W11960  32.240  14.252  12.429
40290W        W11961  23.838  16.856   0.476
40291W        W11962  36.334  41.307  14.389
40292W        W11963  30.667  31.585  14.925
40293W        W11964  36.609  26.361   2.223
40294W        W11965  26.579  34.534  13.782
40295W        W11966  36.413  10.729   1.601
40296W        W11967  20.167  14.403   2.466
40297W        W11968  35.056   2.893  10.996
40298W        W11969  18.755  12.368   3.215
40299W        W11970  22.026  11.422  11.582
40300W        W11971  10.803  21.701   4.521
40301W        W11972   6.959  15.394   1.232
40302W        W11973   2.015  20.580   2.109
40303W        W11974  34.238  30.064   4.371
40304W        W11975  42.693  42.807  10.617
40305W        W11976  44.469   5.188   4.081
40306W        W11977   9.904  24.824   3.648
40307W        W11978  44.975  14.999  10.599
40308W        W11979  44.797  39.741  13.431
40309W        W11980  44.067   3.497   2.400
40310W        W11981  26.315   0.545  11.544
40311W        W11982   0.887  31.997  12.666
40312W        W11983   0.838   7.507  12.571
40313W        W11984  25.874  12.853  13.306
40314W        W11985  19.041  18.638   3.690
40315W        W11986  43.907   3.801  12.535
40316W        W11987  31.065  29.223   0.289
40317W        W11988  16.095  38.335  14.115
40318W        W11989   1.532   1.741   1.244
40319W        W11990   6.683  34.887  10.782
40320W        W11991  26.021   0.193   3.203
40321W        W11992  16.392  26.495   3.842
40322W        W11993  12.906  40.831   2.493
40323W        W11994  23.283  17.330   1.375
40324W        W11995  13.343  12.341  10.819
40325W        W11996   0.814  10.683  13.429
40326W        W11997  12.999  27.181   4.215
40327W        W11998  21.479  36.578  13.410
40328W        W11999   5.424  24.634   2.639
40329W        W12000  26.149  13.627  13.070
40330W        W12001  34.930  44.946   3.228
40331W        W12002  20.206   2.335   3.255
40332W        W12003  36.356  13.290   0.359
40333W        W12004  31.599   6.223   1.758
40334W        W12005  17.785  25.468  13.475
40335W        W12006   8.384   7.707   4.624
40336W        W12007  39.624   4.316  14.319
40337W        W12008  19.153  41.864  12.952
40338W        W12009  25.978   3.247   0.196
40339W        W12010  23.201  28.114  12.760
40340W        W12011  22.431   7.413   4.933
40341W        W12012  20.249  38.448  11.445
40342W        W12013  19.943  25.349   1.264
40343W        W12014  10.951  34.419   3.187
40344W        W12015  26.683  43.609   4.543
40345W        W12016  32.924  14.217  11.157
40346W        W12017  22.194  38.956  11.179
40347W        W12018  25.242  43.438  11.490
40348W        W12019   2.173   4.824  10.231
40349W        W12020   3.950   6.510   2.896
40350W        W12021  27.067   5.738  14.907
40351W        W12022  36.467  38.216   1.888
40352W        W12023  19.764  44.310   0.509
40353W        W12024  42.877  40.780   2.347
40354W        W12025  15.430  36.852  11.194
40355W        W12026  12.172  35.023   1.137
40356W        W12027   7.656  24.104   1.168
40357W        W12028  27.374  30.674  12.914
40358W        W12029  41.559  13.234   1.740
40359W        W12030  27.291  21.963   1.646
40360W        W12031  14.194  32.618  11.563
40361W        W12032  22.403   5.643   3.938
40362W        W12033  14.398  30.996   0.543
40363W        W12034  17.201  22.188   4.745
40364W        W12035  21.669  27.125   0.662
40365W        W12036  15.230  36.519  14.469
40366W        W12037   2.710  40.185   2.242
40367W        W12038  32.209   2.036   0.856
40368W        W12039  18.629  28.196  14.965
40369W        W12040  39.565  38.148  11.564
40370W        W12041  12.799   9.638   4.414
40371W        W12042   5.165  42.070  13.451
40372W        W12043  32.467   7.679  14.921
40373W        W12044  33.823  44.738   4.493
40374W        W12045   3.956   2.391   2.913
40375W        W12046  34.952  30.743  13.335
40376W        W12047  15.960  34.030   1.126
40377W        W12048  38.382  15.042   3.697
40378W        W12049   4.929  40.227   4.176
40379W        W12050  36.457  39.440   9.741
40380W        W12051   4.791  36.169   2.322
40381W        W12052  39.523   0.402  11.785
40382W        W12053  23.815  19.305  10.646
40383W        W12054  11.899  17.753  12.147
40384W        W12055  42.614  30.026  12.502
40385W        W12056  31.940   2.856  11.183
40386W        W12057  24.990  25.175   0.921
40387W        W12058   3.678  41.711   2.199
40388W        W12059  25.050  34.009   0.096
40389W        W12060  33.961  40.081  12.960
40390W        W12061  34.054  13.192  11.073
40391W        W12062  33.167   5.300  13.959
40392W        W12063  32.805   0.496   0.876
40393W        W12064   4.786  19.342   4.127
40394W        W12065  31.625  30.995   0.265
40395W        W12066  16.165  17.300  10.346
40396W        W12067  37.159  15.082   1.243
40397W        W12068  43.885  22.466   1.339
40398W        W12069  23.243  32.065  14.516
40399W        W12070   9.326   3.463  13.979
40400W        W12071  36.468  35.978   4.519
40401W        W12072  38.052  40.008  11.071
40402W        W12073  18.981   2.866  12.068
40403W        W12074   2.403  44.482   3.662
40404W        W12075  15.831   5.585  13.476
40405W        W12076  32.347  38.069   2.330
40406W        W12077   8.818   9.306   2.833
40407W        W12078  31.690   2.102   0.862
40408W        W12079  27.418   9.153  13.804
40409W        W12080  12.798  19.612   2.232
40410W        W12081   0.236  11.840  14.337
40411W        W12082  44.507   5.711  10.729
40412W        W12083   0.523  26.114   2.428
40413W        W12084  18.909   7.648  13.894
40414W        W12085  29.764  31.519  11.976
40415W        W12086  32.223  41.634  14.020
40416W        W12087  11.458   0.273   4.102
40417W        W12088  17.736   4.901  12.929
40418W        W12089  34.516   2.143   4.623
40419W        W12090  26.937  13.265   4.112
40420W        W12091   5.871  44.349   4.424
40421W        W12092  25.768  17.236  14.935
40422W        W12093  24.998   5.760   4.627
40423W        W12094  10.837   8.659   4.010
40424W        W12095   3.787   4.627   4.636
40425W        W12096   9.690  20.310   3.280
40426W        W12097  42.856  13.564  11.962
40427W        W12098   6.458  32.621   4.131
40428W        W12099  16.116  43.764   4.027
40429W        W12100  11.224  38.925  10.980
40430W        W12101  31.554   8.305   2.875
40431W        W12102  21.619   3.019  10.988
40432W        W12103  38.427  26.190   4.444
40433W        W12104  28.578  14.210   4.106
40434W        W12105  39.820  23.390  12.042
40435W        W12106  44.598   7.452  13.956
40436W        W12107  38.921  40.666   5.016
40437W        W12108  28.396   3.231   4.303
40438W        W12109   7.576   9.980  12.397
40439W        W12110  44.935  25.634   1.321
40440W        W12111  44.405  36.398  12.157
40441W        W12112  24.716  25.711   0.224
40442W        W12113  44.930  33.660  10.165
40443W        W12114   8.176   1.979   3.236
40444W        W12115   2.921  16.031   4.976
40445W        W12116  15.894  11.048  11.550
40446W        W12117  30.605  20.546  14.328
40447W        W12118  38.303  16.212   4.125
40448W        W12119  17.184  13.576  10.475
40449W        W12120  33.195  17.145  12.963
40450W        W12121  37.937  10.337   4.097
40451W        W12122  42.800   5.250  14.168
40452W        W12123  42.840  20.195  13.071
40453W        W12124  19.582  31.144   0.280
40454W        W12125  36.165  10.894   4.125
40455W        W12126  14.103   4.714  11.068
40456W        W12127  35.903  32.144  14.543
40457W        W12128  31.083  12.578   1.740
40458W        W12129   6.539  19.352  12.511
40459W        W12130  40.003  41.926   0.331
40460W        W12131  20.680  12.674  11.362
40461W        W12132   6.774  29.388  11.398
40462W        W12133  33.521  20.056  14.278
40463W        W12134  36.029  42.958   3.334
40464W        W12135  34.511  25.550   3.820
40465W        W12136  16.688  20.648  14.429
40466W        W12137  26.216   1.479   2.832
40467W        W12138  42.338  39.874   2.278
40468W        W12139  25.910   9.767  14.194
40469W        W12140  28.438  31.520  11.555
40470W        W12141   0.332   3.742  13.889
40471W        W12142  22.625  39.005   0.880
40472W        W12143  21.866  11.673   3.676
40473W        W12144  30.145   3.541  14.351
40474W        W12145  30.172   0.315   3.204
40475W        W12146  40.212  36.884   2.057
40476W        W12147   2.351  11.894   2.817
40477W        W12148  25.047  38.870   1.273
40478W        W12149  10.266   3.839  13.627
40479W        W12150  31.025  39.266  14.525
40480W        W12151  38.997   5.524   0.888
40481W        W12152   7.594  12.359  14.282
40482W        W12153  22.264  25.393   3.299
40483W        W12154   1.845  28.777  13.047
40484W        W12155  41.895  21.751   0.313
40485W        W12156  18.104   1.929   0.795
40486W        W12157  10.411  12.531   1.230
40487W        W12158  31.514  21.561   2.661
40488W        W12159  13.679   6.232   5.619
40489W        W12160   3.290   7.706  13.825
40490W        W12161   1.077  31.126   0.184
40491W        W12162  37.038  34.045  14.403
40492W        W12163  36.484  23.313  14.067
40493W        W12164   9.583  16.568   1.258
40494W        W12165  14.677  40.410  13.990
40495W        W12166  26.086   0.699   1.030
40496W        W12167  13.893  18.127   3.290
40497W        W12168  23.559  37.496  12.918
40498W        W12169  30.143  37.417  12.617
40499W        W12170   6.448  12.111   0.751
40500W        W12171  22.564  26.961  10.887
40501W        W12172  20.498  32.469  13.597
40502W        W12173  25.184  37.783   1.325
40503W        W12174  28.113  20.467   1.823
40504W        W12175  23.775  38.084   2.161
40505W        W12176  10.809  44.707  13.576
40506W        W12177   9.405  36.559  13.375
40507W        W12178   1.573  11.748  12.377
40508W        W12179  18.206  21.530   4.262
40509W        W12180   5.990  24.642  11.903
40510W        W12181  20.851  27.523  13.391
40511W        W12182  30.930  14.107  11.597
40512W        W12183  13.837  24.736   0.093
40513W        W12184  27.102  20.588   2.678
40514W        W12185   7.605  39.731   0.250
40515W        W12186   4.899   6.471  10.797
40516W        W12187  23.096  19.187  13.597
40517W        W12188   0.813  35.024  11.923
40518W        W12189   6.347   1.730   4.585
40519W        W12190   3.744  21.720   1.684
40520W        W12191  11.740  36.383  13.106
40521W        W12192   1.117  11.947   3.211
40522W        W12193  29.421  22.689  13.950
40523W        W12194  11.410  18.763  11.545
40524W        W12195  16.225   9.519  14.595
40525W        W12196  42.551  31.176   0.351
40526W        W12197  36.216  36.522   3.724
40527W        W12198  15.167  13.831   0.616
40528W        W12199  18.578   6.732  11.644
40529W        W12200   9.751  35.612   2.806
40530W        W12201  41.431  12.735   2.903
40531W        W12202  17.646   5.395  12.607
40532W        W12203  18.565  30.944  14.423
40533W        W12204  24.182  18.726   3.593
40534W        W12205   0.499  24.468  12.344
40535W        W12206  25.024  11.702   1.738
40536W        W12207  18.326   7.124   2.745
40537W        W12208   5.614   0.490   3.452
40538W        W12209  22.172  34.546   3.034
40539W        W12210  11.287  13.877   4.121
40540W        W12211  23.547  12.998   4.494
40541W        W12212   3.457  28.947  12.498
40542W        W12213  22.621  14.133   1.613
40543W        W12214  29.978  27.712  14.804
40544W        W12215  20.882  15.533   2.348
40545W        W12216  21.727  27.479  11.221
40546W        W12217  30.413   1.930  13.848
40547W        W12218  38.057  40.036  11.572
40548W        W12219  39.361  15.112   3.277
40549W        W12220  40.778  32.650   0.955
40550W        W12221  21.603   2.822   0.595
40551W        W12222  20.615   5.959   0.803
40552W        W12223  24.674  40.439  11.618
40553W        W12224  11.739  26.491   2.281
40554W        W12225  16.843  23.547  10.779
40555W        W12226  36.391  20.691   1.823
40556W        W12227  27.705   0.458   3.685
40557W        W12228  44.638  19.140   2.650
40558W        W12229   4.352  32.327  12.443
40559W        W12230  16.514  41.034   3.590
40560W        W12231  16.051  42.411  14.522
40561W        W12232  18.775  11.225   9.793
40562W        W12233  12.445  17.320  10.694
40563W        W12234  34.167  39.296  14.532
40564W        W12235   8.190  16.657   4.204
40565W        W12236  30.939  44.383  13.042
40566W        W12237  17.325  29.557   4.966
40567W        W12238  11.635  30.976   0.246
40568W        W12239  34.228  10.333   0.712
40569W        W12240  32.453  43.508   1.167
40570W        W12241   0.655  30.195   1.278
40571W        W12242  44.538  39.301   0.283
40572W        W12243  12.753  14.592   0.825
40573W        W12244  24.967  42.866   1.886
40574W        W12245  43.451  39.633  11.649
40575W        W12246  23.042  36.918  14.359
40576W        W12247  20.909  19.529   2.316
40577W        W12248  14.098   8.784   1.324
40578W        W12249  31.951  43.397  14.308
40579W        W12250  31.062  39.411   3.194
40580W        W12251  43.347  34.922   1.766
40581W        W12252   6.009  19.220  11.184
40582W        W12253  24.424  11.777  13.508
40583W        W12254  19.235  17.754   0.906
40584W        W12255  15.567   1.458  12.117
40585W        W12256  31.691  31.625  11.943
40586W        W12257  16.384  44.045  12.858
40587W        W12258  37.114  12.948  11.684
40588W        W12259  27.174  18.349   4.957
40589W        W12260  21.648   3.952   3.676
40590W        W12261  39.854  16.737  14.559
40591W        W12262   6.005  13.983   1.321
40592W        W12263   0.248  32.329   1.755
40593W        W12264   6.195  42.286   4.668
40594W        W12265  15.817  14.373   3.115
40595W        W12266  33.100  36.073  11.655
40596W        W12267  15.216  15.580  10.453
40597W        W12268  43.762  19.567   3.382
40598W        W12269   0.933  26.100   0.738
40599W        W12270   0.917  35.162   2.686
40600W        W12271  35.579  25.572   1.200
40601W        W12272  36.322  10.122  13.292
40602W        W12273  24.114  37.800  14.041
40603W        W12274  36.635  31.038  13.859
40604W        W12275  13.257  25.579   2.000
40605W        W12276  18.716  28.402  14.448
40606W        W12277  26.629  20.715  11.653
40607W        W12278  34.073  24.286  12.011
40608W        W12279  29.980   1.961   4.533
40609W        W12280  11.844  13.899  11.951
40610W        W12281  33.458  24.228   1.218
40611W        W12282  30.611  39.889  14.736
40612W        W12283   3.864  18.381   4.556
40613W        W12284  30.540  43.813   2.849
40614W        W12285  19.516   6.484   0.423
40615W        W12286  10.559  18.013  14.341
40616W        W12287  20.284   3.186  11.670
40617W        W12288  20.046  18.293  12.783
40618W        W12289  38.454  10.240   2.719
40619W        W12290  44.392  24.818   1.758
40620W        W12291  13.647  36.929   0.680
40621W        W12292  17.980  32.567   2.603
40622W        W12293  42.401   0.070   3.366
40623W        W12294  30.817  39.263   0.944
40624W        W12295  28.872  23.585  12.499
40625W        W12296  26.381  43.575   1.480
40626W        W12297  20.137   9.247   5.375
40627W        W12298   2.171  12.063  11.188
40628W        W12299  44.834  40.393  14.529
40629W        W12300  26.058   1.435  11.383
40630W        W12301  20.473  44.321  13.809
40631W        W12302  19.957   5.356  13.736
40632W        W12303   1.460  24.189  13.006
40633W        W12304  42.008  18.541  13.546
40634W        W12305  39.326  32.724   2.197
40635W        W12306  20.429  16.852   1.926
40636W        W12307  39.021  43.772  11.158
40637W        W12308  29.542  41.707   2.149
40638W        W12309  41.714  13.791  13.143
40639W        W12310   1.220  23.020   0.051
40640W        W12311  44.846  37.290   2.808
40641W        W12312  17.139  38.911  12.641
40642W        W12313  41.704  22.878   3.578
40643W        W12314  27.128   6.921  11.003
40644W        W12315  28.429  19.817  11.081
40645W        W12316   6.386   1.039   3.768
40646W        W12317  23.118  17.170  12.370
40647W        W12318  19.181  12.853  11.173
40648W        W12319  25.930   1.903  11.514
40649W        W12320  26.557  11.231   3.667
40650W        W12321  27.455  12.405  13.195
40651W        W12322  42.073  13.811   1.182
40652W        W12323  12.300  19.190  11.583
40653W        W12324  21.252  15.184  14.951
40654W        W12325   7.622  21.556  11.576
40655W        W12326  32.744  10.895  12.959
40656W        W12327   1.803  40.107   4.471
40657W        W12328  25.550  15.445  14.814
40658W        W12329  21.482  35.622  10.683
40659W        W12330   2.911  15.753  14.447
40660W        W12331  32.683   1.867   0.863
40661W        W12332  12.209  25.589   4.053
40662W        W12333  43.726  35.176   3.315
40663W        W12334  37.651   4.426   0.315
40664W        W12335  11.765  16.096   3.053
40665W        W12336  10.261  21.527   2.304
40666W        W12337  18.072  39.077   1.472
40667W        W12338  11.361  10.693   4.137
40668W        W12339  11.675  44.502   3.728
40669W        W12340  29.777  18.005  12.562
40670W        W12341  26.185  41.519   3.083
40671W        W12342  41.506  30.052   1.473
40672W        W12343  20.661  38.207  11.594
40673W        W12344  22.615   1.983  12.876
40674W        W12345  23.147  25.461  14.399
40675W        W12346   4.875  25.623   4.565
40676W        W12347  20.269  28.910   4.342
40677W        W12348  14.532  10.713   0.725
40678W        W12349  44.821  23.752   5.781
40679W        W12350   5.000  26.667   4.514
40680W        W12351  25.413  19.013  11.105
40681W        W12352  34.386  13.627  10.547
40682W        W12353  16.128  16.637   0.834
40683W        W12354   8.807  23.440  14.828
40684W        W12355  28.962  33.411   3.970
40685W        W12356  27.363   9.168   3.113
40686W        W12357  37.562  12.124   4.191
40687W        W12358  13.089  22.988  10.475
40688W        W12359   7.647   5.372  14.923
40689W        W12360   8.476   3.742   2.876
40690W        W12361  39.489  14.753   2.727
40691W        W12362  36.849  21.740   1.463
40692W        W12363  10.216  19.555   3.404
40693W        W12364  35.539  12.864   3.746
40694W        W12365  33.447  17.430   3.555
40695W        W12366  33.450  15.584   0.785
40696W        W12367  35.945  14.027  13.952
40697W        W12368  14.094  31.307  12.538
40698W        W12369  20.607   9.030   4.189
40699W        W12370   6.735  39.916   0.239
40700W        W12371   1.039  43.885   0.785
40701W        W12372  41.610  10.756  12.540
40702W        W12373  42.548   8.377   3.763
40703W        W12374   5.465  31.525  14.267
40704W        W12375  21.008  38.396   5.608
40705W        W12376   0.471  21.497  13.471
40706W        W12377   4.952  16.606  14.509
40707W        W12378  12.686   4.399  13.905
40708W        W12379  25.519   7.854   4.379
40709W        W12380  23.297  32.056   0.492
40710W        W12381  38.316  31.881   2.847
40711W        W12382  12.295  12.847  13.396
40712W        W12383  22.507  11.412   2.549
40713W        W12384  28.422   3.586  12.081
40714W        W12385  44.233  25.881   4.844
40715W        W12386  43.689  15.079   4.899
40716W        W12387   7.325  27.511   0.763
40717W        W12388  20.513  44.982  10.682
40718W        W12389  23.150  19.723   4.630
40719W        W12390  19.210  13.141  13.143
40720W        W12391   0.986  11.787   1.741
40721W        W12392  11.481  38.528  11.151
40722W        W12393  44.569   5.871   1.955
40723W        W12394  29.601  38.107  10.996
40724W        W12395  36.293  27.170  13.408
40725W        W12396  18.644   8.222   1.373
40726W        W12397  39.549   2.712  14.862
40727W        W12398  16.763  24.170   4.071
40728W        W12399  27.642   5.676   4.068
40729W        W12400  37.533  20.193  12.474
40730W        W12401  24.367  18.604   5.022
40731W        W12402   5.142  42.761   1.229
40732W        W12403  42.960   0.305  12.566
40733W        W12404  34.465  43.922   4.358
40734W        W12405   4.923   6.124  13.894
40735W        W12406   1.864   4.257   1.565
40736W        W12407   7.333  21.459  12.444
40737W        W12408  41.219  38.256   5.029
40738W        W12409  42.923  14.786  10.448
40739W        W12410  14.639   3.306   3.879
40740W        W12411  24.638  30.001   0.455
40741W        W12412  39.907  35.009   0.154
40742W        W12413  41.033  38.863   3.070
40743W        W12414   7.815   4.653   5.221
40744W        W12415  23.151  14.042  14.889
40745W        W12416   8.258  25.455   3.149
40746W        W12417  34.585  43.015  13.072
40747W        W12418  40.304   0.684   1.161
40748W        W12419  39.278  42.283   0.194
40749W        W12420  18.955  27.943  14.609
40750W        W12421  27.959  30.852   1.369
40751W        W12422  37.309  35.498   4.401
40752W        W12423  13.383  35.884   2.849
40753W        W12424   6.855  18.566  13.816
40754W        W12425  11.178  33.060  14.747
40755W        W12426  21.489  25.721   4.256
40756W        W12427  40.600  10.015  13.829
40757W        W12428  34.064   4.245  12.015
40758W        W12429  12.244  34.190  11.090
40759W        W12430  18.373  21.436  11.085
40760W        W12431  32.199  38.523  12.416
40761W        W12432  14.226   7.390   5.045
40762W        W12433  21.062   4.887  14.296
40763W        W12434  42.012  42.083  13.018
40764W        W12435  24.158  39.195  10.194
40765W        W12436   9.216  29.660  13.951
40766W        W12437   8.180  10.822   2.395
40767W        W12438   4.946   2.323   3.226
40768W        W12439  36.638  42.818  13.037
40769W        W12440  34.704  34.245   3.831
40770W        W12441   8.985  24.120  13.092
40771W        W12442   5.326  23.243   1.681
40772W        W12443   2.796  40.057   4.193
40773W        W12444  29.890  44.732   0.876
40774W        W12445  24.221  19.608  10.752
40775W        W12446  33.842  42.910  13.513
40776W        W12447  20.726  43.348   0.877
40777W        W12448  44.002  38.969  12.449
40778W        W12449  18.183  37.470   4.528
40779W        W12450  14.202  17.571  13.291
40780W        W12451  31.540  25.642   4.136
40781W        W12452   1.241  43.458  12.368
40782W        W12453  40.375  42.935  12.019
40783W        W12454   2.183   2.219   1.994
40784W        W12455  39.460  42.244   3.226
40785W        W12456  40.946  17.656  11.942
40786W        W12457   3.158  32.535  10.756
40787W        W12458  14.255   6.455  10.169
40788W        W12459  29.575   0.800  10.363
40789W        W12460  11.923  23.958  11.961
40790W        W12461  16.679  24.554  12.180
40791W        W12462  25.682  37.093   1.245
40792W        W12463   7.395   9.092  13.978
40793W        W12464  34.934  21.180  12.527
40794W        W12465  31.923  42.796   4.520
40795W        W12466  36.905  16.713  12.553
40796W        W12467   2.483   1.187  12.940
40797W        W12468   3.204  26.640  12.518
40798W        W12469  37.406  42.308   1.209
40799W        W12470   4.145  41.330  13.967
40800W        W12471   6.404  17.305  10.159
40801W        W12472  27.546   5.944   1.381
40802W        W12473  26.800  30.094  11.923
40803W        W12474  36.748  26.582   3.684
40804W        W12475   5.679  26.806  11.178
40805W        W12476   2.401  24.381  10.870
40806W        W12477  12.613   8.680  13.119
40807W        W12478  35.168  12.700   0.449
40808W        W12479  26.996  44.818   2.182
40809W        W12480  18.579   0.421  12.573
40810W        W12481  14.304  44.422  12.640
40811W        W12482   0.201  42.686  14.173
40812W        W12483  22.200   5.428  12.158
40813W        W12484  26.564  10.176  13.378
40814W        W12485  40.993  37.728   1.714
40815W        W12486  21.570  18.115   1.199
40816W        W12487  22.909  39.995   1.788
40817W        W12488   8.630  44.280  10.749
40818W        W12489   8.073  34.708   0.950
40819W        W12490  20.377   0.039   2.489
40820W        W12491  30.259  26.024   3.588
40821W        W12492  15.876  17.535   0.401
40822W        W12493   7.612  15.206  14.044
40823W        W12494   9.090   6.103   3.721
40824W        W12495  11.963  40.149   3.597
40825W        W12496   3.687  42.416   0.773
40826W        W12497   4.822  37.290   1.632
40827W        W12498  28.702  15.287  10.732
40828W        W12499  42.009  34.893   9.798
40829W        W12500  29.646   6.217   2.091
40830W        W12501  20.526   1.785   1.000
40831W        W12502  35.023  28.164  11.614
40832W        W12503  18.511  29.153  14.103
40833W        W12504   4.659  41.437  13.977
40834W        W12505   1.355  17.493   3.733
40835W        W12506  36.541  25.003   4.323
40836W        W12507  14.392  40.308  13.564
40837W        W12508  41.400  31.070   2.139
40838W        W12509   9.681  22.988   2.717
40839W        W12510  31.122   6.304   4.817
40840W        W12511  15.948  30.517  11.657
40841W        W12512  33.872  11.896   4.216
40842W        W12513   5.057   3.599  12.560
40843W        W12514   3.254  40.411   3.133
40844W        W12515  31.837  22.228  10.906
40845W        W12516  13.357  18.507   1.992
40846W        W12517   9.926   7.128   3.317
40847W        W12518   4.822  31.118   4.600
40848W        W12519  23.462  38.999   3.219
40849W        W12520  29.652  31.537   0.955
40850W        W12521  29.993  40.924   3.477
40851W        W12522   0.284  32.444  13.085
40852W        W12523  42.895  43.071   4.642
40853W        W12524  23.014  20.738   1.886
40854W        W12525  27.633  36.146   0.916
40855W        W12526  37.972  23.041   3.176
40856W        W12527  10.157  21.481  13.385
40857W        W12528  12.353  18.243   4.768
40858W        W12529  40.884  40.432  13.675
40859W        W12530  31.214   4.451   4.166
40860W        W12531  21.669  26.241   4.277
40861W        W12532   6.739  31.887   2.842
40862W        W12533  43.948  10.949  13.018
40863W        W12534  34.796   0.007  12.846
40864W        W12535  18.127  39.810   4.664
40865W        W12536  17.137  16.752   1.020
40866W        W12537   1.538  21.263   1.917
40867W        W12538  34.549  25.587   4.917
40868W        W12539   9.190  41.313  13.832
40869W        W12540   5.170  15.795   2.902
40870W        W12541  38.984  21.017   4.514
40871W        W12542   0.433  19.780   1.933
40872W        W12543   7.259  38.366  12.862
40873W        W12544  13.679  31.501  10.730
40874W        W12545  18.104  37.557   3.983
40875W        W12546   3.410  33.056  14.355
40876W        W12547  12.386  39.979   2.849
40877W        W12548   1.005   4.294   1.576
40878W        W12549  11.727  13.393  11.990
40879W        W12550  35.069  41.996   2.183
40880W        W12551  10.310  18.286   3.120
40881W        W12552  39.194  39.965   3.100
40882W        W12553  39.191  29.667  11.619
40883W        W12554  44.080   1.453  14.945
40884W        W12555   9.293  25.556  12.169
40885W        W12556  40.121  35.804  13.958
40886W        W12557  26.782  17.258   0.895
40887W        W12558  28.071   6.807  14.126
40888W        W12559  15.707  11.282   1.828
40889W        W12560  37.315   1.429  13.419
40890W        W12561  19.837  32.680  11.376
40891W        W12562   3.307   6.708  14.687
40892W        W12563  17.125  27.195   0.379
40893W        W12564  24.786   5.335   1.780
40894W        W12565  15.186  22.956  14.730
40895W        W12566   8.900  22.422   2.212
40896W        W12567  38.644  19.378  12.089
40897W        W12568   1.471  20.622   0.252
40898W        W12569  16.088  12.522  14.318
40899W        W12570  44.002  21.135  10.252
40900W        W12571   3.367  29.925  12.470
40901W        W12572  18.787   7.384   3.438
40902W        W12573  10.113   7.704  14.710
40903W        W12574   7.148  38.530   3.201
40904W        W12575  16.999  30.058   2.170
40905W        W12576  41.044  30.637  14.715
40906W        W12577  31.553  41.092  12.932
40907W        W12578  18.585  13.094  14.976
40908W        W12579  17.629   8.632  12.959
40909W        W12580  38.096   9.408   4.637
40910W        W12581  33.444  14.112  14.522
40911W        W12582   7.658  21.490   0.198
40912W        W12583  14.041  24.140  11.681
40913W        W12584  33.639  17.427  13.083
40914W        W12585  34.602   2.755   3.140
40915W        W12586  15.529   2.682   1.732
40916W        W12587  34.872  17.147   4.508
40917W        W12588  19.202  41.911   0.023
40918W        W12589  10.158  17.318  12.485
40919W        W12590   8.921  28.061  14.460
40920W        W12591  43.289  23.594  12.071
40921W        W12592  31.918  43.423  12.001
40922W        W12593  25.035  29.477  14.084
40923W        W12594  33.517  19.402  11.518
40924W        W12595  31.272  29.865  13.352
40925W        W12596   9.712  37.527   3.872
40926W        W12597  10.822   2.188  13.476
40927W        W12598  36.297  42.936  11.541
40928W        W12599  21.016  23.194  12.315
40929W        W12600   6.081  21.394  11.675
40930W        W12601  10.376   1.750  11.236
40931W        W12602  12.903  20.098  10.769
40932W        W12603  37.461  16.761  10.492
40933W        W12604  28.079  16.273   3.213
40934W        W12605  10.916  27.021  10.633
40935W        W12606  12.641   8.447  12.566
40936W        W12607  20.331  24.416   1.336
40937W        W12608  44.159  25.941   0.397
40938W        W12609  26.873  14.705  12.761
40939W        W12610   7.777  41.583   4.176
40940W        W12611   7.188  40.838  11.606
40941W        W12612   4.696  21.523   0.608
40942W        W12613  37.455  24.071  13.146
40943W        W12614  13.715  35.601   2.019
40944W        W12615  11.631  40.262   4.567
40945W        W12616  27.392  27.349   3.832
40946W        W12617  22.345  20.506  12.110
40947W        W12618  22.738  38.866   2.632
40948W        W12619  43.036  19.994  10.825
40949W        W12620   5.248  23.339   3.657
40950W        W12621  34.431  42.703   3.198
40951W        W12622  31.632   8.531  11.872
40952W        W12623  19.681  32.947   1.856
40953W        W12624  42.385  11.652  11.242
40954W        W12625  38.962  12.843   0.353
40955W        W12626  13.879  15.587   3.120
40956W        W12627  30.084  13.837   1.126
40957W        W12628  34.848  33.666  12.013
40958W        W12629  17.106  20.168   3.132
40959W        W12630   0.455  29.079  12.597
40960W        W12631   6.643  26.761   0.025
40961W        W12632  17.652  10.859  11.566
40962W        W12633  12.116  13.776  13.429
40963W        W12634  43.921  15.847  11.266
40964W        W12635  28.449  33.970  13.809
40965W        W12636  23.044  39.299   3.302
40966W        W12637  18.000  27.181   1.450
40967W        W12638  24.607  25.122  12.842
40968W        W12639  12.662  17.922   3.072
40969W        W12640   0.726  40.089  14.781
40970W        W12641   5.869  25.274   4.907
40971W        W12642  16.948  42.189   2.435
40972W        W12643   0.412  37.893  12.784
40973W        W12644  31.145   7.309   1.411
40974W        W12645  29.239  39.327   3.311
40975W        W12646   1.430  22.792   3.596
40976W        W12647  31.253  23.998   2.646
40977W        W12648  34.522  38.315   4.642
40978W        W12649  34.840  19.218  10.635
40979W        W12650  31.884  22.199  10.365
40980W        W12651  27.733  18.201  12.557
40981W        W12652  13.983   7.539  12.526
40982W        W12653  16.825  29.606   4.114
40983W        W12654  42.786  10.364   4.008
40984W        W12655   4.948  26.455  11.622
40985W        W12656  14.823  29.129  10.506
40986W        W12657  27.926  44.800   2.632
40987W        W12658  24.513  20.020   2.444
40988W        W12659  16.083   1.305   3.088
40989W        W12660  35.931  37.065   4.138
40990W        W12661  34.843  33.003   3.659
40991W        W12662  36.127   6.850   1.228
40992W        W12663   3.753  37.785  14.973
40993W        W12664   0.039  14.210   3.607
40994W        W12665  36.296  32.061  14.000
40995W        W12666  30.153  37.064  13.838
40996W        W12667  30.587  31.929   4.873
40997W        W12668  44.115  12.868  12.992
40998W        W12669   7.791  43.314   4.620
40999W        W12670  42.328   3.911   2.145
41000W        W12671  32.067   9.405  13.801
41001W        W12672  13.713  33.859   0.319
41002W        W12673  21.622   6.894   0.785
41003W        W12674  10.662  41.141   0.923
41004W        W12675  13.011  14.165  13.678
41005W        W12676   5.504   2.271  12.636
41006W        W12677  10.812  35.809   3.587
41007W        W12678  36.935  33.119   0.498
41008W        W12679  24.063  31.839  14.943
41009W        W12680  41.451   8.793  13.325
41010W        W12681  27.914  16.224  13.818
41011W        W12682  14.408  11.326   3.287
41012W        W12683  32.612  42.369   1.353
41013W        W12684  41.896  32.590  11.938
41014W        W12685  26.753  17.681   1.205
41015W        W12686   2.605   3.817  13.513
41016W        W12687  41.080   6.816   3.220
41017W        W12688  23.131  30.576   0.546
41018W        W12689   1.003  20.729  11.494
41019W        W12690  41.571   4.988   1.291
41020W        W12691  29.967  43.711   4.112
41021W        W12692  20.160  27.041  13.349
41022W        W12693  24.945  40.981   0.896
41023W        W12694  42.667  20.593   0.785
41024W        W12695  38.556  15.107   2.309
41025W        W12696   1.324  31.107   2.150
41026W        W12697  16.585  42.374  11.038
41027W        W12698  12.069   3.017   0.496
41028W        W12699  37.377   5.256   4.649
41029W        W12700  36.083  40.704  11.036
41030W        W12701  44.410  24.108   4.150
41031W        W12702   9.606  24.531   3.936
41032W        W12703  17.163  13.098   1.734
41033W        W12704  21.595  39.762  11.828
41034W        W12705  38.975  33.314   2.377
41035W        W12706   3.224  13.072   0.410
41036W        W12707  17.091  39.920  10.703
41037W        W12708   9.837  27.589   4.128
41038W        W12709  30.663  12.642  11.301
41039W        W12710   2.907   4.441  10.987
41040W        W12711   5.311  15.274  11.568
41041W        W12712  20.353  19.220  13.768
41042W        W12713  21.026  26.303   9.964
41043W        W12714  13.162  35.414  13.886
41044W        W12715  16.284  38.818   4.204
41045W        W12716  39.425  38.601  10.241
41046W        W12717  15.121   0.780   1.711
41047W        W12718  12.622   0.241  12.070
41048W        W12719   3.257   2.403  13.721
41049W        W12720   9.424   5.836  14.943
41050W        W12721  22.678  31.880  11.145
41051W        W12722  10.963  29.976  14.483
41052W        W12723  14.534  33.156  12.596
41053W        W12724  39.290  38.846   2.809
41054W        W12725  38.956  38.452   5.225
41055W        W12726  36.866  34.174  13.908
41056W        W12727  27.511  33.079   1.759
41057W        W12728   7.783  32.803  11.918
41058W        W12729  26.117  25.875  14.102
41059W        W12730   5.229  18.773   1.646
41060W        W12731  27.911   8.814   2.774
41061W        W12732  31.274   7.644  13.889
41062W        W12733  26.184  29.565  13.359
41063W        W12734  15.941   3.500   4.583
41064W        W12735   9.434  26.475  12.432
41065W        W12736  37.333  20.000   5.039
41066W        W12737  16.043  28.130   0.868
41067W        W12738  32.553  16.264   4.175
41068W        W12739  20.239  34.378   0.358
41069W        W12740  12.556  21.110   0.469
41070W        W12741  24.026  33.839  11.486
41071W        W12742  39.644  19.709   1.062
41072W        W12743  14.634  34.819   2.301
41073W        W12744   5.303  31.997   2.619
41074W        W12745  16.221   5.795  10.751
41075W        W12746  20.494  35.418   4.723
41076W        W12747  21.334  43.291   4.157
41077W        W12748   0.464  31.983   4.654
41078W        W12749  13.654  24.252  13.275
41079W        W12750  14.105  11.884  13.403
41080W        W12751  15.832   1.840  11.870
41081W        W12752   3.199  10.858  13.435
41082W        W12753  41.428  32.476  14.877
41083W        W12754  41.930  44.744  12.371
41084W        W12755   7.387  25.947   2.736
41085W        W12756  26.490  23.419   0.668
41086W        W12757   1.538  22.349  11.911
41087W        W12758  23.618  19.543  15.000
41088W        W12759  14.928  16.628   1.844
41089W        W12760   7.960  32.040   3.663
41090W        W12761  10.207   6.869   4.283
41091W        W12762  25.504   4.248  10.768
41092W        W12763  22.143  19.412  13.247
41093W        W12764   4.371   8.306   4.619
41094W        W12765  40.168  34.016   0.302
41095W        W12766  29.972  39.954   2.736
41096W        W12767  16.032  13.278  13.842
41097W        W12768  21.028  36.157  13.047
41098W        W12769  21.412  11.681  12.878
41099W        W12770  20.639  21.696   4.200
41100W        W12771  23.802  20.160   4.062
41101W        W12772   8.913   8.405   0.967
41102W        W12773   9.437  30.638  13.875
41103W        W12774  35.075  26.083  14.245
41104W        W12775  21.182   3.183   2.599
41105W        W12776  40.144  30.688  12.274
41106W        W12777  32.178  43.225   4.378
41107W        W12778  10.101  16.555   1.169
41108W        W12779  15.069  23.006  13.813
41109W        W12780  28.940   4.073   0.036
41110W        W12781  17.496  41.563   4.271
41111W        W12782  32.982   6.664  14.445
41112W        W12783  17.587  35.356  12.533
41113W        W12784   0.739  44.302   2.190
41114W        W12785  25.000  22.669   4.047
41115W        W12786   3.850  30.715   1.764
41116W        W12787  36.398  42.887   0.268
41117W        W12788  35.629  38.616  13.084
41118W        W12789  13.117  25.865   4.673
41119W        W12790  25.758   4.221  12.527
41120W        W12791  37.684  22.211  13.023
41121W        W12792  24.482  26.009   4.376
41122W        W12793  44.329  19.663   0.013
41123W        W12794  31.464  10.185   3.635
41124W        W12795  35.824  18.421   1.794
41125W        W12796  21.940  40.274  14.453
41126W        W12797  33.308  21.080   3.328
41127W        W12798  13.578  36.593   4.605
41128W        W12799   4.487  15.810   4.125
41129W        W12800   5.110  12.252  12.920
41130W        W12801   3.873  22.063   5.156
41131W        W12802  23.190   8.267   4.611
41132W        W12803  36.231  31.620   3.714
41133W        W12804  19.705  12.746   2.239
41134W        W12805   4.293  29.648   4.641
41135W        W12806   2.830  43.412   0.555
41136W        W12807  23.984  20.594  12.943
41137W        W12808  30.564  12.713   4.686
41138W        W12809  17.786   0.920   0.799
41139W        W12810  17.717   0.908  14.869
41140W        W12811  19.241  11.498   9.786
41141W        W12812  37.559  22.743  14.718
41142W        W12813  15.203  17.015   0.838
41143W        W12814   4.049   9.173  11.213
41144W        W12815  40.514  25.281   4.592
41145W        W12816  25.320  26.213   4.813
41146W        W12817  27.148  29.395   4.184
41147W        W12818   2.498  36.033  13.914
41148W        W12819  16.619  28.028   1.832
41149W        W12820  37.933  31.466  12.496
41150W        W12821   0.808  40.948   4.338
41151W        W12822  20.199  17.110  11.949
41152W        W12823  43.370  12.246   5.128
41153W        W12824  35.584  10.975  11.712
41154W        W12825   9.916  32.597  12.000
41155W        W12826  42.354  36.948  14.980
41156W        W12827  39.303  23.820   4.058
41157W        W12828   3.941  44.406  13.426
41158W        W12829   2.745  31.910   1.889
41159W        W12830  38.537  14.394   2.839
41160W        W12831  27.995  19.061   1.916
41161W        W12832  15.585  15.149   0.501
41162W        W12833  18.174   3.426   3.733
41163W        W12834  17.571  29.990   0.875
41164W        W12835  34.529  24.623  11.185
41165W        W12836  40.521  42.538  14.933
41166W        W12837  44.846  29.285  11.000
41167W        W12838  42.564  25.637   2.930
41168W        W12839   1.309  10.208  10.605
41169W        W12840  15.649  24.254   3.687
41170W        W12841   5.139  42.817   9.886
41171W        W12842  44.124  43.350  13.532
41172W        W12843  15.274  33.125  11.094
41173W        W12844  31.614  43.840  12.084
41174W        W12845   3.957  26.191  10.563
41175W        W12846  24.930  41.807  14.419
41176W        W12847  42.042   3.606   3.235
41177W        W12848  18.760  23.065   0.943
41178W        W12849  38.124  33.873   0.694
41179W        W12850  31.421  32.978   4.170
41180W        W12851  34.063  22.644  11.503
41181W        W12852  24.276   1.434  13.024
41182W        W12853  13.393  42.749   0.204
41183W        W12854  36.066  12.146   0.926
41184W        W12855   8.801  43.984   1.392
41185W        W12856  18.258  44.709   4.820
41186W        W12857  31.607  17.263   3.386
41187W        W12858  10.705  21.774   2.220
41188W        W12859  29.424  32.754  12.937
41189W        W12860  33.381   2.550  11.685
41190W        W12861  31.847   9.274  13.341
41191W        W12862   9.860  38.800   1.239
41192W        W12863  33.981  25.019   2.554
41193W        W12864  41.456  10.620   0.934
41194W        W12865  35.344  38.610   3.569
41195W        W12866  31.701  32.398  12.632
41196W        W12867  36.784  43.628  11.196
41197W        W12868  34.989  17.630   3.599
41198W        W12869   0.481  19.515   4.244
41199W        W12870  11.553  16.229   2.132
41200W        W12871  20.366  43.418   0.459
41201W        W12872  21.041  36.464   1.716
41202W        W12873  28.989   7.980   3.614
41203W        W12874   5.982  12.605   2.844
41204W        W12875  30.645  14.189   3.120
41205W        W12876   1.977  39.731  11.757
41206W        W12877  23.371  43.016  11.537
41207W        W12878   3.975  42.209  13.903
41208W        W12879  18.767  21.250  14.076
41209W        W12880  23.982  31.967   1.304
41210W        W12881  43.285   6.982   1.755
41211W        W12882  21.789  28.668  10.597
41212W        W12883  44.102  34.649   4.117
41213W        W12884  42.978  40.795  11.728
41214W        W12885  23.504  35.036  11.431
41215W        W12886   0.302  15.815   4.689
41216W        W12887  41.794  23.589  13.867
41217W        W12888   0.555  18.550  11.982
41218W        W12889   6.180   4.401   3.657
41219W        W12890   5.211  17.056  10.055
41220W        W12891   1.680  43.769   1.890
41221W        W12892  19.983  44.783   0.362
41222W        W12893  38.564  26.777   0.788
41223W        W12894  16.332  32.441   0.800
41224W        W12895   5.994  43.993  12.428
41225W        W12896  36.668   5.638   3.186
41226W        W12897  24.004  17.192   2.242
41227W        W12898  34.145   1.038  10.649
41228W        W12899   0.752  28.307   4.932
41229W        W12900   6.019  19.001  14.949
41230W        W12901  23.527  28.914  13.940
41231W        W12902  21.513  21.267   4.674
41232W        W12903   6.453   9.848   4.823
41233W        W12904   5.449  13.787   4.601
41234W        W12905  17.322   5.808   0.483
41235W        W12906  25.448  21.298  13.367
41236W        W12907  10.987  20.267  10.568
41237W        W12908  12.701  13.759  12.175
41238W        W12909  14.333  34.828  14.339
41239W        W12910  32.175  23.740  13.845
41240W        W12911   5.784  30.475  13.859
41241W        W12912   4.350  38.007  12.986
41242W        W12913  13.856  29.833   4.766
41243W        W12914  40.934   2.234   3.398
41244W        W12915  34.852  15.347   4.924
41245W        W12916   5.155  20.271  14.548
41246W        W12917  20.112   7.423  14.707
41247W        W12918  30.520  43.392  11.384
41248W        W12919  12.734  35.341   3.528
41249W        W12920  42.919  23.889   1.220
41250W        W12921  42.404  31.950  14.886
41251W        W12922  44.015  22.679   3.572
41252W        W12923  28.143  11.704  13.063
41253W        W12924  11.419  18.358  12.602
41254W        W12925  16.553  28.554   1.879
41255W        W12926  10.010  29.938  14.271
41256W        W12927  18.739  24.657   0.679
41257W        W12928  21.312  41.615  10.722
41258W        W12929  40.887  30.963   4.268
41259W        W12930  32.385  23.334   3.223
41260W        W12931  20.231  32.079   2.831
41261W        W12932  30.126   8.094   4.617
41262W        W12933  23.487   8.003  14.004
41263W        W12934   8.852  16.034  12.467
41264W        W12935  13.087  22.184   3.374
41265W        W12936  12.411  29.552  11.588
41266W        W12937  32.604  26.074   2.899
41267W        W12938  24.078   6.896  13.443
41268W        W12939  32.329  34.445   1.410
41269W        W12940   8.239   8.756   1.725
41270W        W12941  29.562  37.809   0.245
41271W        W12942  39.009  19.802  10.134
41272W        W12943  43.451  12.345   0.295
41273W        W12944  36.905  28.691   4.021
41274W        W12945  16.621   7.408   0.432
41275W        W12946   8.425  13.568   3.617
41276W        W12947  44.598  40.043   1.769
41277W        W12948  34.367  17.010   0.852
41278W        W12949  20.612  41.690   2.320
41279W        W12950  27.451  36.813  10.741
41280W        W12951  15.648  24.029   3.202
41281W        W12952  30.208  41.438   1.384
41282W        W12953  29.205  40.318  14.403
41283W        W12954  13.865   0.678  12.485
41284W        W12955   8.279  11.141   1.958
41285W        W12956  30.024   8.700  10.661
41286W        W12957   5.240  24.111  11.503
41287W        W12958   5.344  33.544  11.469
41288W        W12959   7.672  18.426  11.082
41289W        W12960  33.104  19.617   4.213
41290W        W12961  25.490  23.124  12.417
41291W        W12962  16.072  35.415  14.394
41292W        W12963  34.016  15.703   0.900
41293W        W12964  43.460  44.387  12.182
41294W        W12965   0.392  34.045   1.230
41295W        W12966   8.631  31.089  14.342
41296W        W12967  41.909  24.200   9.996
41297W        W12968  38.092  11.319   4.127
41298W        W12969  38.430  16.602  13.310
41299W        W12970  37.336  30.492  14.068
41300W        W12971  41.331  35.371   2.781
41301W        W12972  36.012  12.352  12.536
41302W        W12973  40.813  13.375  12.907
41303W        W12974  21.710  29.604  14.457
41304W        W12975  27.125  12.028   2.288
41305W        W12976  22.619  16.590  14.376
41306W        W12977  13.793  43.433  10.697
41307W        W12978   6.756  40.858  14.915
41308W        W12979  41.875  12.077   2.370
41309W        W12980  37.622   9.703  13.944
41310W        W12981  13.850  23.700   2.680
41311W        W12982  43.989  14.649   4.760
41312W        W12983  12.248   8.423   0.344
41313W        W12984  31.885  27.484   5.050
41314W        W12985  15.772  29.230   4.274
41315W        W12986  23.616  12.632  14.869
41316W        W12987   5.947  10.122   2.690
41317W        W12988  26.554  10.179  10.229
41318W        W12989  33.399   2.275  12.530
41319W        W12990  40.941  13.184   2.336
41320W        W12991  29.888  31.610   0.402
41321W        W12992   5.687  37.654   1.249
41322W        W12993  32.581  25.158   2.579
41323W        W12994  20.191  38.844  14.074
41324W        W12995   5.314   6.705   0.449
41325W        W12996   3.981   8.731  11.961
41326W        W12997  30.592  21.325  11.554
41327W        W12998  16.359  25.548  10.998
41328W        W12999  42.518   0.518  11.222
41329W        W13000  42.615  11.410   4.303
41330W        W13001  41.294  19.185   0.002
41331W        W13002  31.947   3.311   2.284
41332W        W13003  35.480  42.427   1.229
41333W        W13004  20.134   7.139   5.049
41334W        W13005  17.328  10.860  11.987
41335W        W13006  21.759  36.494  10.425
41336W        W13007  37.895  33.878  14.663
41337W        W13008  27.060  29.448  10.460
41338W        W13009  35.052  11.556   1.842
41339W        W13010  32.413  39.842   1.346
41340W        W13011  25.736   6.747   0.686
41341W        W13012  40.801  16.957  13.472
41342W        W13013   4.688  33.146  12.748
41343W        W13014   0.745  22.903  13.910
41344W        W13015  42.913  14.704  12.457
41345W        W13016   0.345  17.895  11.327
41346W        W13017  38.405  22.939   2.203
41347W        W13018  15.552   3.588   3.223
41348W        W13019  34.344  28.990   1.815
41349W        W13020   1.958  39.058   1.946
41350W        W13021   0.552  23.646  13.785
41351W        W13022  20.000  37.820   0.266
41352W        W13023   2.199  15.682  11.824
41353W        W13024  26.550  25.330   4.399
41354W        W13025  11.691  12.337  13.992
41355W        W13026  25.575   7.794   3.373
41356W        W13027  28.771  43.531   0.374
41357W        W13028   9.581  29.122  12.969
41358W        W13029  27.506  20.279   4.633
41359W        W13030  10.172  14.287  11.091
41360W        W13031  16.067  31.485   2.879
41361W        W13032  14.706  25.332   3.346
41362W        W13033  26.531  32.023  12.234
41363W        W13034  25.399  24.237   2.958
41364W        W13035  21.079   4.412   1.391
41365W        W13036   3.241   0.051   3.748
41366W        W13037  43.850  21.358  12.550
41367W        W13038   2.201  30.686   2.777
41368W        W13039   6.248  11.066   0.803
41369W        W13040  13.631  18.583   3.864
41370W        W13041  18.276   6.927   1.353
41371W        W13042  39.324  21.157   2.598
41372W        W13043  19.314  41.449  10.451
41373W        W13044  24.127  31.805   0.843
41374W        W13045  24.222  28.408   4.252
41375W        W13046   6.245  42.823   1.707
41376W        W13047  17.880   2.858  12.896
41377W        W13048  33.983  10.399  10.698
41378W        W13049  24.656   3.019   3.746
41379W        W13050  19.296   5.353   2.554
41380W        W13051  33.625  27.414   4.304
41381W        W13052  13.819  44.227   0.714
41382W        W13053  26.189  21.668  12.488
41383W        W13054  26.772  41.244  14.892
41384W        W13055  18.576  39.831  10.538
41385W        W13056  29.627  32.010   1.191
41386W        W13057  20.062  35.118   3.161
41387W        W13058  20.280  34.603   4.371
41388W        W13059  27.335  19.658   4.444
41389W        W13060  26.215  29.465   4.233
41390W        W13061   4.685  16.672  12.204
41391W        W13062   1.494  33.132   3.907
41392W        W13063  14.692  13.216   0.421
41393W        W13064  40.633  30.605   4.534
41394W        W13065  43.819  30.491   3.242
41395W        W13066  38.440  32.859  10.969
41396W        W13067  35.053   6.038   0.505
41397W        W13068  17.295   4.297  14.288
41398W        W13069  41.019  13.164   4.661
41399W        W13070  23.950  18.337   1.037
41400W        W13071   7.763  19.514  10.673
41401W        W13072  13.344   5.456   2.969
41402W        W13073  39.409  30.024   0.889
41403W        W13074  10.321  19.662  13.597
41404W        W13075   7.713  13.899   5.016
41405W        W13076   3.521  16.462   3.746
41406W        W13077   1.279  16.018   3.861
41407W        W13078   9.201  23.663  10.928
41408W        W13079  20.133  18.419   4.156
41409W        W13080  24.904  39.895  12.934
41410W        W13081   5.646   0.932  12.433
41411W        W13082  25.276  13.267  12.370
41412W        W13083  34.024  21.029  13.500
41413W        W13084  39.175  30.269  14.972
41414W        W13085  15.256  16.405  11.073
41415W        W13086   5.900  40.043   2.721
41416W        W13087  26.203  42.326  11.599
41417W        W13088  23.071  10.329  14.706
41418W        W13089  30.907  27.032   1.289
41419W        W13090  25.178  43.326  10.986
41420W        W13091  31.053  17.193   0.824
41421W        W13092   8.646  29.204   2.775
41422W        W13093   0.837  26.686   2.471
41423W        W13094  22.955  15.279   0.781
41424W        W13095  35.549  39.059  13.336
41425W        W13096  17.973  42.825   3.989
41426W        W13097  20.213  37.159  14.506
41427W        W13098  31.107  14.141  10.720
41428W        W13099   6.337  14.683   3.408
41429W        W13100  14.767   3.258  13.349
41430W        W13101  36.055   3.967   1.306
41431W        W13102   0.287  23.224   1.830
41432W        W13103  14.324  28.478   0.899
41433W        W13104  40.034  10.188  11.629
41434W        W13105  43.420  16.284   0.660
41435W        W13106  14.716  38.797  10.435
41436W        W13107  34.396   2.293   0.275
41437W        W13108  10.446   3.628   2.767
41438W        W13109  19.327  15.782   1.699
41439W        W13110   3.527  18.530   0.888
41440W        W13111  35.992  40.215  10.969
41441W        W13112   4.303   5.225  14.529
41442W        W13113  18.342   6.406   1.103
41443W        W13114  33.523  35.051  10.399
41444W        W13115   5.152  31.658  13.439
41445W        W13116  27.628  22.255  13.020
41446W        W13117   4.213  16.187  11.004
41447W        W13118  31.972  29.950  11.995
41448W        W13119  14.859  38.394   2.220
41449W        W13120  18.528  19.292   2.620
41450W        W13121  12.258  40.914   2.878
41451W        W13122   3.988  28.611   1.129
41452W        W13123   3.196  24.225  10.673
41453W        W13124   2.182  38.959  10.650
41454W        W13125  10.478  44.950   3.753
41455W        W13126  42.038  42.731  14.027
41456W        W13127  42.822  14.049  12.092
41457W        W13128   6.121  27.072  11.971
41458W        W13129   4.670  37.961  14.406
41459W        W13130  21.704  36.426   3.167
41460W        W13131  23.271  11.202   1.843
41461W        W13132  18.092  27.581   2.796
41462W        W13133  38.987  34.848   2.089
41463W        W13134   1.025  43.851  12.103
41464W        W13135  12.797  17.807  12.442
41465W        W13136  42.486  24.619  12.078
41466W        W13137  16.749  44.341  10.672
41467W        W13138  41.539   8.726   1.505
41468W        W13139   7.181  38.124   0.781
41469W        W13140  39.099  14.659   3.339
41470W        W13141   7.222  31.532  14.802
41471W        W13142  26.363  44.060   2.846
41472W        W13143  21.562  18.563  13.233
41473W        W13144  27.896  10.320  13.056
41474W        W13145  38.336  40.319   1.015
41475W        W13146  22.947  24.094   1.032
41476W        W13147  12.296  28.512   2.039
41477W        W13148  13.279  32.017  14.332
41478W        W13149  44.455  39.316  14.376
41479W        W13150  40.882  35.357   2.271
41480W        W13151  30.296  34.973  13.216
41481W        W13152  30.588  31.047   3.761
41482W        W13153  44.138   2.789   0.918
41483W        W13154  41.795  23.113   3.108
41484W        W13155  16.521  23.468  12.097
41485W        W13156  33.555   5.578   3.149
41486W        W13157  44.207  27.806  11.086
41487W        W13158  36.442  20.946  10.715
41488W        W13159  33.018   6.142   2.691
41489W        W13160   4.745  13.178  11.158
41490W        W13161  10.866  35.960   2.717
41491W        W13162   9.125  19.747   0.277
41492W        W13163  18.290  35.482   1.445
41493W        W13164  36.937  27.632   4.395
41494W        W13165   7.104  10.914  14.435
41495W        W13166  31.033  27.475   1.534
41496W        W13167  20.273  37.003  11.859
41497W        W13168  30.191  35.322   3.678
41498W        W13169  21.265  24.586  11.526
41499W        W13170  30.915  24.045   1.736
41500W        W13171  40.585  21.220   4.614
41501W        W13172   6.326  44.024  11.172
41502W        W13173   1.769  31.573   4.197
41503W        W13174  25.975  43.453   4.008
41504W        W13175  39.497  10.646   1.435
41505W        W13176  40.825  20.640   3.747
41506W        W13177  34.537  20.078  11.926
41507W        W13178   4.698  15.545   3.699
41508W        W13179  12.586   5.982   0.874
41509W        W13180  42.456  41.285  12.908
41510W        W13181  21.910  30.894  13.428
41511W        W13182   1.363  38.512  10.910
41512W        W13183   0.190  19.021   0.919
41513W        W13184  29.138  10.267   4.116
41514W        W13185  29.201  44.362   0.528
41515W        W13186   5.727  28.657   0.774
41516W        W13187  33.517  41.757  12.680
41517W        W13188  27.118  18.737   0.897
41518W        W13189  28.453  11.172   1.197
41519W        W13190  37.583  28.459  14.331
41520W        W13191   8.911   9.851   1.232
41521W        W13192  33.849  12.284  14.492
41522W        W13193  33.153  42.336   1.347
41523W        W13194  40.684  39.350  11.804
41524W        W13195  11.344  41.988   0.515
41525W        W13196   2.482  10.383   0.264
41526W        W13197  42.130   0.813  11.053
41527W        W13198  13.180  21.284  13.822
41528W        W13199  40.346  16.579  14.786
41529W        W13200  16.306  21.059   2.756
41530W        W13201  32.238  42.281   0.995
41531W        W13202   0.757  16.686   2.210
41532W        W13203  21.440   1.358  13.490
41533W        W13204  40.045  27.193  12.936
41534W        W13205  22.513  18.131  13.409
41535W        W13206  10.368  32.491   1.816
41536W        W13207  24.601  34.355   3.743
41537W        W13208   3.118  24.287   4.162
41538W        W13209  28.929  28.847   0.810
41539W        W13210  30.637  15.137   1.331
41540W        W13211  10.234  28.882  13.437
41541W        W13212  36.807  13.805   1.807
41542W        W13213  19.657  12.846   0.209
41543W        W13214  34.021  38.480   1.006
41544W        W13215   6.141   8.657   3.045
41545W        W13216   2.646  40.978  11.573
41546W        W13217  35.721   2.070   0.343
41547W        W13218  28.089  44.306   3.425
41548W        W13219  42.824   2.830  12.672
41549W        W13220  24.984  22.472  12.118
41550W        W13221  23.053  28.513   2.294
41551W        W13222  27.340   6.420  14.287
41552W        W13223  21.956  36.393   3.614
41553W        W13224   6.450   0.244  13.494
41554W        W13225  15.335  38.273   0.201
41555W        W13226  36.594  40.361   2.266
41556W        W13227   9.789   9.394   4.565
41557W        W13228   9.632  10.671  12.071
41558W        W13229  17.173  14.717  13.593
41559W        W13230   5.286   1.669  13.626
41560W        W13231  16.778   8.589  14.650
41561W        W13232   9.383  26.167  14.834
41562W        W13233  13.402  13.394   0.445
41563W        W13234  31.034  40.849   2.871
41564W        W13235   7.684   2.945   1.814
41565W        W13236  25.272  42.913  13.832
41566W        W13237  16.699  35.160  13.997
41567W        W13238   9.256   0.426  13.415
41568W        W13239   1.771  40.051   1.811
41569W        W13240  21.510  42.719   3.891
41570W        W13241  44.222  38.307  11.969
41571W        W13242  14.401  26.753   0.932
41572W        W13243  25.118  44.949   1.876
41573W        W13244  13.994  10.322   4.204
41574W        W13245   9.758  24.547  10.700
41575W        W13246  39.420   1.398  10.682
41576W        W13247  43.492  37.397  12.400
41577W        W13248  39.872  35.852   3.884
41578W        W13249  40.324  18.754  10.962
41579W        W13250  21.993   3.039   4.029
41580W        W13251  23.484  43.965  11.606
41581W        W13252   0.201  23.603  13.376
41582W        W13253  43.905  25.542  12.125
41583W        W13254  27.302  14.841  10.684
41584W        W13255  10.673  24.034   1.813
41585W        W13256   3.461  42.748  14.694
41586W        W13257  31.467  25.217   2.843
41587W        W13258  17.583   3.968   1.339
41588W        W13259   3.256  26.972  10.552
41589W        W13260  14.758  34.585   1.823
41590W        W13261  38.793  38.773   2.785
41591W        W13262  37.913  32.161  10.354
41592W        W13263  14.311   7.898   3.205
41593W        W13264  38.456  40.803  12.420
41594W        W13265   4.441  27.481  13.823
41595W        W13266  24.542  41.610   2.729
41596W        W13267  16.880  35.971  10.593
41597W        W13268  19.219   6.324   2.181
41598W        W13269   9.676   0.360   1.874
41599W        W13270  15.016  33.820  11.645
41600W        W13271  13.588  27.634   0.369
41601W        W13272   5.781  32.006   0.231
41602W        W13273  21.490  24.201   4.611
41603W        W13274  20.166  13.556   2.680
41604W        W13275  25.225   3.103   0.848
41605W        W13276  39.313  20.706   1.681
41606W        W13277  43.911  37.598   3.618
41607W        W13278  38.455  18.418  12.016
41608W        W13279  18.435  26.467  12.826
41609W        W13280   2.912  20.538  11.840
41610W        W13281  22.283  12.745  14.475
41611W        W13282   8.786  44.644  10.380
41612W        W13283  14.872  24.224   0.313
41613W        W13284  37.190  28.892  10.744
41614W        W13285  42.599  10.529  12.595
41615W        W13286  15.350   9.758   0.925
41616W        W13287  29.572   9.286  11.613
41617W        W13288  30.140  32.860  13.357
41618W        W13289  29.073   5.391  13.314
41619W        W13290   5.268   0.498  12.990
41620W        W13291  42.795  41.797   4.118
41621W        W13292  15.316  28.173  12.811
41622W        W13293  31.363  16.997   1.972
41623W        W13294   9.798   2.997   0.262
41624W        W13295  42.532  27.029  10.660
41625W        W13296   5.979  22.821   0.512
41626W        W13297   1.572  41.002   1.395
41627W        W13298  12.633  36.418  13.823
41628W        W13299  38.082  12.301  12.551
41629W        W13300  15.187  42.199  12.543
41630W        W13301  18.471  17.089  12.506
41631W        W13302  13.708  18.190  13.771
41632W        W13303  24.723  36.524  14.479
41633W        W13304  39.234  14.707   2.187
41634W        W13305  27.701  10.116   2.186
41635W        W13306  41.280  33.988   1.560
41636W        W13307  23.149  24.743   0.274
41637W        W13308   0.684  32.312  13.502
41638W        W13309  23.015   0.296   4.540
41639W        W13310   6.447  42.864   4.009
41640W        W13311   5.301  21.177  12.700
41641W        W13312  13.059  13.023   3.727
41642W        W13313  28.679   1.632  11.482
41643W        W13314  12.105   2.826   4.124
41644W        W13315  43.457  34.483  12.301
41645W        W13316  18.087   9.826   2.604
41646W        W13317  32.866  41.922   4.650
41647W        W13318  37.320  14.771   2.492
41648W        W13319  44.287   5.162   1.546
41649W        W13320  27.219  32.349   3.597
41650W        W13321  18.049  33.426  14.449
41651W        W13322   1.420  35.359  14.381
41652W        W13323  13.781  22.978   4.240
41653W        W13324   0.343  33.189  12.509
41654W        W13325   6.448  22.332  13.899
41655W        W13326   1.799  10.435   1.895
41656W        W13327  19.484  39.816   3.730
41657W        W13328  23.731  15.841  10.476
41658W        W13329  36.045  25.784   5.124
41659W        W13330  38.499  24.674   1.748
41660W        W13331   1.880  30.854   4.677
41661W        W13332  14.429   4.294  13.403
41662W        W13333  28.377   3.940  13.329
41663W        W13334  22.194   6.459  13.811
41664W        W13335  14.806  32.375  13.556
41665W        W13336  28.638   6.406  11.512
41666W        W13337   8.160  19.267  13.368
41667W        W13338  16.536  23.592  14.260
41668W        W13339  19.857  44.155   3.674
41669W        W13340  41.984  20.516  12.360
41670W        W13341  37.020  18.300   2.374
41671W        W13342  37.334  18.338   0.335
41672W        W13343   5.707  30.742  14.655
41673W        W13344  43.702  27.701  10.170
41674W        W13345  15.176   2.774   1.283
41675W        W13346  13.601  34.509   2.576
41676W        W13347  18.983  44.841   2.674
41677W        W13348  10.811   3.693  13.805
41678W        W13349  21.475  18.389  11.631
41679W        W13350  19.172  25.078   3.155
41680W        W13351  22.021  18.618  10.727
41681W        W13352  16.151  25.985   0.724
41682W        W13353   2.991  43.384   1.947
41683W        W13354  12.113  32.071   1.299
41684W        W13355  39.827  26.082  12.185
41685W        W13356   3.134  30.621  13.802
41686W        W13357  37.508   5.361  12.706
41687W        W13358  31.938  25.561  12.874
41688W        W13359  38.498  13.149   0.426
41689W        W13360  38.947  33.731  10.246
41690W        W13361  37.862   5.778  13.349
41691W        W13362  13.640   2.249   4.901
41692W        W13363  21.007   3.541   1.111
41693W        W13364  20.799  11.266  11.366
41694W        W13365  23.929  31.390  10.649
41695W        W13366  30.622  42.296  12.047
41696W        W13367  41.411  12.548  11.999
41697W        W13368   6.790  30.906  11.570
41698W        W13369  34.813  14.831  12.887
41699W        W13370  41.855  44.903  12.848
41700W        W13371  24.553  28.530  12.804
41701W        W13372  42.834  32.006  14.556
41702W        W13373   9.638   2.941   3.664
41703W        W13374  16.734  16.063  12.398
41704W        W13375   4.383  20.342   2.659
41705W        W13376  17.743  43.890  12.678
41706W        W13377  20.151  26.985   3.524
41707W        W13378  44.409  10.881   0.890
41708W        W13379  40.393   2.939  11.163
41709W        W13380   4.349   1.436   5.070
41710W        W13381  16.841  12.155  12.992
41711W        W13382  29.077  36.501  14.345
41712W        W13383  34.325   0.584  13.852
41713W        W13384  26.429  31.122  12.047
41714W        W13385  12.564  10.899  14.044
41715W        W13386  42.687  42.967   0.033
41716W        W13387  21.646  32.888   0.681
41717W        W13388  41.345  32.429   1.779
41718W        W13389  16.335  14.507   3.291
41719W        W13390  38.763  12.296   2.232
41720W        W13391  22.718   2.314   1.441
41721W        W13392  30.146  38.081  14.009
41722W        W13393  29.892   3.526   2.331
41723W        W13394  18.795   2.776   1.023
41724W        W13395  38.032  41.143   3.742
41725W        W13396   7.365  43.591  13.890
41726W        W13397  13.389  35.538   2.443
41727W        W13398  26.668  18.340  10.221
41728W        W13399  33.967  42.496   3.203
41729W        W13400  15.117  26.174   0.897
41730W        W13401   4.268  41.231   0.388
41731W        W13402   6.350   9.443  12.855
41732W        W13403   1.463  17.292  14.757
41733W        W13404  29.453  28.455  13.546
41734W        W13405  23.714  22.112   2.271
41735W        W13406  27.475  15.090   2.162
41736W        W13407  10.756  23.644  14.528
41737W        W13408   7.648   3.747  11.582
41738W        W13409  19.360  39.740  13.384
41739W        W13410  16.136  21.039  13.329
41740W        W13411  43.519   3.665  13.396
41741W        W13412   2.351  38.313  11.688
41742W        W13413  28.056  32.927  13.993
41743W        W13414  10.915   6.610  11.627
41744W        W13415  39.039  43.531  11.611
41745W        W13416  23.202  11.902   1.378
41746W        W13417  43.506  17.019   0.350
41747W        W13418   6.161  27.915   2.690
41748W        W13419  20.471  11.923  13.501
41749W        W13420   0.972  25.447  13.091
41750W        W13421  43.593  10.875  14.091
41751W        W13422  17.605  27.170  13.501
41752W        W13423   6.545  25.177  14.889
41753W        W13424  31.379  35.520   0.693
41754W        W13425   4.388  37.915  11.574
41755W        W13426  27.110   5.001  14.474
41756W        W13427  34.858   4.569  12.310
41757W        W13428  36.516  13.832   2.335
41758W        W13429  10.817  44.797  11.697
41759W        W13430  19.266  19.599   0.974
41760W        W13431   4.486  34.522   1.023
41761W        W13432  12.379  21.093   2.731
41762W        W13433  25.923   5.760  11.112
41763W        W13434  14.218  14.589  14.523
41764W        W13435  14.649  35.354  12.981
41765W        W13436  19.665  26.173   2.044
41766W        W13437  23.742   0.741  11.918
41767W        W13438  38.172   4.242   4.201
41768W        W13439  40.995  23.660   2.246
41769W        W13440  42.552  42.262  13.953
41770W        W13441  19.325  24.723  14.694
41771W        W13442  26.057   9.621  13.317
41772W        W13443  42.352   7.192  13.926
41773W        W13444  40.611  15.097  12.900
41774W        W13445  24.590  25.218   0.097
41775W        W13446  24.081  17.115  12.348
41776W        W13447  43.774  10.818   3.421
41777W        W13448  34.613  41.321   1.728
41778W        W13449  24.518  10.180  14.986
41779W        W13450  10.334  26.043   4.895
41780W        W13451  34.088  11.624   1.285
41781W        W13452  22.517  41.055   2.529
41782W        W13453  19.946   7.559  12.572
41783W        W13454   6.734  11.657   0.731
41784W        W13455  19.842  41.835  13.917
41785W        W13456  40.388  30.018  14.783
41786W        W13457  43.909   3.779  14.705
41787W        W13458  13.947  25.508  14.644
41788W        W13459  37.294   5.280  14.039
41789W        W13460  12.706   9.901   3.641
41790W        W13461  23.432  41.006  12.883
41791W        W13462   1.282   2.333   3.672
41792W        W13463  44.458  19.274   1.262
41793W        W13464   4.004   3.058  14.819
41794W        W13465  34.920  41.936   4.008
41795W        W13466  13.292  14.795  12.593
41796W        W13467  11.050  41.467   2.750
41797W        W13468  35.859  19.905  12.001
41798W        W13469   1.890  30.125   0.868
41799W        W13470  28.172  10.397   2.123
41800W        W13471  38.795   3.962   2.657
41801W        W13472  30.529  33.887  10.925
41802W        W13473  43.313  17.418  14.163
41803W        W13474   5.926  33.562   5.016
41804W        W13475  19.544   1.485  10.691
41805W        W13476  44.027  41.241   2.803
41806W        W13477   9.633  15.874  14.279
41807W        W13478  27.620  20.571  13.977
41808W        W13479  19.091  39.943   1.225
41809W        W13480  24.095   5.436   4.098
41810W        W13481  43.549   1.313  14.833
41811W        W13482  18.619  10.474  13.842
41812W        W13483  25.231  30.914  11.628
41813W        W13484  35.992  14.623  10.774
41814W        W13485  44.433  14.218   9.704
41815W        W13486  32.086   0.496  12.523
41816W        W13487  44.018   9.310   2.665
41817W        W13488  28.548  13.583  14.875
41818W        W13489  12.821   4.151  14.999
41819W        W13490  35.625  18.241   3.297
41820W        W13491  23.306   9.088  11.080
41821W        W13492  21.950  28.180  10.559
41822W        W13493  42.353  40.130   2.724
41823W        W13494  33.326   7.450  13.438
41824W        W13495  37.311  36.080  12.871
41825W        W13496  41.466  22.707   1.755
41826W        W13497  30.621  30.720  14.537
41827W        W13498  31.251  18.633  12.933
41828W        W13499  33.226  15.313  10.498
41829W        W13500  35.619  17.720   1.356
41830W        W13501   3.439  33.640  12.883
41831W        W13502  33.540  12.233  14.919
41832W        W13503  30.694  38.418   0.318
41833W        W13504   6.225  10.092  11.393
41834W        W13505   7.797  24.424  14.917
41835W        W13506  28.799  36.877  12.061
41836W        W13507  10.599  34.881   3.670
41837W        W13508  43.411  21.117   1.495
41838W        W13509  38.132  38.250   9.951
41839W        W13510   5.200  14.564   1.480
41840W        W13511  13.744   9.397   2.249
41841W        W13512   0.505  29.412   4.276
41842W        W13513  21.621   4.283   4.510
41843W        W13514  13.603  39.334  13.298
41844W        W13515  11.830  22.102  13.965
41845W        W13516  26.854  13.298   0.288
41846W        W13517  15.808  16.213   0.787
41847W        W13518  27.361   2.966   2.872
41848W        W13519  38.654  37.330   1.271
41849W        W13520  25.148  20.178  11.659
41850W        W13521   3.503  13.307  12.068
41851W        W13522  22.309  13.290  11.964
41852W        W13523  23.649  27.971  11.060
41853W        W13524  19.184  27.638   3.647
41854W        W13525  24.818  30.625   0.973
41855W        W13526  38.617  29.699   0.474
41856W        W13527   0.388   6.808  13.646
41857W        W13528   1.660  38.331  12.969
41858W        W13529  34.618  24.602  13.460
41859W        W13530  31.082  23.603  13.133
41860W        W13531  11.355   4.975   2.624
41861W        W13532  27.666  22.400  14.006
41862W        W13533   1.568  32.910   4.373
41863W        W13534   4.856  14.697  11.658
41864W        W13535  23.463  41.581  13.003
41865W        W13536  16.602   1.069  14.468
41866W        W13537   4.907  27.601  14.670
41867W        W13538  23.783  20.313  14.307
41868W        W13539  29.187  10.464   3.274
41869W        W13540   1.169   6.556   1.339
41870W        W13541  14.364  10.018   2.034
41871W        W13542  39.337  19.005  14.816
41872W        W13543  38.106  11.004  14.032
41873W        W13544  44.075  20.909   3.773
41874W        W13545  39.341  44.833   1.269
41875W        W13546   0.252  14.394   0.919
41876W        W13547  15.202   5.662  10.812
41877W        W13548   8.313   3.485  11.172
41878W        W13549  33.904  11.657   4.665
41879W        W13550  43.294  32.859   0.255
41880W        W13551  19.521  17.553   1.346
41881W        W13552  13.152  17.235  11.948
41882W        W13553  38.273  37.934   5.110
41883W        W13554  32.828  25.597   2.204
41884W        W13555  19.622  14.521   9.793
41885W        W13556   8.698  12.080  10.440
41886W        W13557  33.654  22.977   2.688
41887W        W13558  33.318  10.811   3.253
41888W        W13559  27.662   5.118   1.247
41889W        W13560  32.604   7.582  13.562
41890W        W13561  35.128  35.074  14.369
41891W        W13562  24.960  35.973   3.759
41892W        W13563   3.476  24.967  12.955
41893W        W13564   5.652  29.937  12.167
41894W        W13565  44.999  25.610  13.466
41895W        W13566  24.066   6.158  11.563
41896W        W13567  30.584   3.282  14.490
41897W        W13568  22.549  11.145  14.877
41898W        W13569   6.810  33.414  13.169
41899W        W13570   2.205  39.264   4.536
41900W        W13571   3.419  26.896  11.460
41901W        W13572  14.801   3.159  10.765
41902W        W13573  24.236  34.226   1.116
41903W        W13574   8.822  23.172  14.397
41904W        W13575  42.340  36.086  10.635
41905W        W13576  11.348  28.171  14.836
41906W        W13577  35.754  27.154  11.886
41907W        W13578   9.296  33.953  14.292
41908W        W13579  20.300   5.252  11.488
41909W        W13580  37.402  36.558   1.307
41910W        W13581  42.284  27.520  10.750
41911W        W13582  22.364  32.970  10.261
41912W        W13583  19.987   7.640   5.053
41913W        W13584   2.002   0.412  13.058
41914W        W13585  21.234  25.974  11.457
41915W        W13586  20.628  14.349   5.065
41916W        W13587   0.442  37.651  10.982
41917W        W13588   4.401  20.104  14.006
41918W        W13589  31.662   4.145  12.872
41919W        W13590   3.924  21.191  11.774
41920W        W13591  16.115  39.207  10.656
41921W        W13592  16.508  17.218   1.792
41922W        W13593   0.421  43.334  13.067
41923W        W13594  28.208  20.599  11.421
41924W        W13595  43.878  40.131   3.647
41925W        W13596   1.808   0.136   0.815
41926W        W13597  20.996  44.201  14.560
41927W        W13598  27.010  18.881   0.373
41928W        W13599  43.495   0.582  11.097
41929W        W13600   7.966  41.199   0.467
41930W        W13601  14.051  43.067  10.446
41931W        W13602   9.197  32.303  10.428
41932W        W13603  17.321  39.293  12.373
41933W        W13604  33.990  37.626  10.132
41934W        W13605  44.379  35.387  11.937
41935W        W13606  30.580  36.596   3.837
41936W        W13607  26.664  33.135  13.852
41937W        W13608  16.417  37.853  11.846
41938W        W13609  35.711  22.970   3.673
41939W        W13610  33.243  35.766   1.071
41940W        W13611  26.187   5.750  13.380
41941W        W13612  15.681  25.975   2.652
41942W        W13613  29.995  12.713   1.818
41943W        W13614  27.566  27.380  11.979
41944W        W13615  39.892  16.007   3.249
41945W        W13616  22.273   2.989  13.447
41946W        W13617  40.725  29.527   4.019
41947W        W13618   9.933  24.193   3.178
41948W        W13619  38.739  41.910  13.018
41949W        W13620  26.965   1.747  13.475
41950W        W13621  42.261  11.175   5.038
41951W        W13622  37.152  34.200  12.912
41952W        W13623   3.815  19.786   3.781
41953W        W13624  18.131  38.409  10.479
41954W        W13625  40.922  43.875   2.822
41955W        W13626  22.790  24.512   3.134
41956W        W13627  18.368   5.821   0.403
41957W        W13628   5.356  14.513  12.532
41958W        W13629  42.504  11.723   5.073
41959W        W13630  36.226  32.873  14.769
41960W        W13631   4.253  18.787   0.342
41961W        W13632  33.660  33.076   0.142
41962W        W13633  42.891  32.121  14.001
41963W        W13634  43.318  40.058   4.104
41964W        W13635   0.152  41.259   5.418
41965W        W13636  32.446  18.021   4.302
41966W        W13637   8.390  36.810  10.637
41967W        W13638   2.872  32.178   2.320
41968W        W13639  25.462  26.445   2.682
41969W        W13640  20.283  28.002  12.988
41970W        W13641  19.088  43.386  14.832
41971W        W13642  13.727  35.174  11.748
41972W        W13643  39.337  12.372   1.867
41973W        W13644  40.103  40.968   2.824
41974W        W13645  19.559   9.645  14.783
41975W        W13646  43.846  22.443  11.137
41976W        W13647  28.425  24.453  10.706
41977W        W13648  38.504  36.020  14.527
41978W        W13649  30.973  10.395  14.753
41979W        W13650  30.232   3.633  12.387
41980W        W13651  35.542  27.265   3.920
41981W        W13652   7.227   1.359   4.291
41982W        W13653  12.667   5.321   2.433
41983W        W13654  29.156   2.037  10.805
41984W        W13655  29.323  22.589   4.576
41985W        W13656  14.276  15.162   2.277
41986W        W13657  22.515   1.043   2.430
41987W        W13658  29.095  26.461  12.617
41988W        W13659  13.387  40.986  14.042
41989W        W13660  36.983  36.527  10.516
41990W        W13661  26.542  14.138  14.450
41991W        W13662  18.037  27.940  12.072
41992W        W13663   5.896  26.519   4.170
41993W        W13664  17.277  19.070  14.394
41994W        W13665   9.173  31.057   4.663
41995W        W13666  31.794  32.184  14.420
41996W        W13667  18.082  27.613  12.495
41997W        W13668  36.054  29.720  12.832
41998W        W13669   9.859  10.189   3.458
41999W        W13670  13.823  20.535   1.679
42000W        W13671  28.159  11.282  14.479
42001W        W13672  12.136  42.876  11.909
42002W        W13673  15.490  25.221  12.311
42003W        W13674   5.737   4.376  12.591
42004W        W13675  15.023   8.228  14.456
42005W        W13676  13.176  35.054   4.668
42006W        W13677  19.520   9.261  13.945
42007W        W13678  41.881  38.301   0.606
42008W        W13679   5.268   8.425  14.782
42009W        W13680   9.544   5.893   3.755
42010W        W13681  36.362  31.882  14.486
42011W        W13682  15.044  10.681   0.812
42012W        W13683  41.761  38.071   4.585
42013W        W13684  39.565   7.900   0.362
42014W        W13685  22.246   4.427  14.022
42015W        W13686   9.439  24.051   3.234
42016W        W13687  42.067  34.546   1.394
42017W        W13688  27.151  40.650  12.835
42018W        W13689  36.988  15.319   4.617
42019W        W13690  28.691  22.606  13.301
42020W        W13691  14.269  44.889   0.803
42021W        W13692  29.982  29.471  10.574
42022W        W13693  42.758  13.953   1.730
42023W        W13694  18.134  29.581   3.749
42024W        W13695  12.413   2.873   2.348
42025W        W13696  15.989   2.780  12.198
42026W        W13697  35.110  14.513   3.720
42027W        W13698  39.421   5.743  13.077
42028W        W13699   7.652  25.769  12.850
42029W        W13700  39.298  38.427  12.511
42030W        W13701   8.314  17.842   0.705
42031W        W13702  16.325  30.882  11.516
42032W        W13703  10.306  23.734   0.914
42033W        W13704  42.342  24.081  10.249
42034W        W13705  10.144  34.298   4.218
42035W        W13706   1.755   2.969   1.621
42036W        W13707  28.647  15.199   1.777
42037W        W13708   0.362  27.579  11.578
42038W        W13709  42.704  12.090  11.113
42039W        W13710  35.099  43.109  10.243
42040W        W13711  24.146  24.897  11.631
42041W        W13712   2.734  13.701  12.081
42042W        W13713  16.865  30.119   4.031
42043W        W13714  36.426   7.717   0.261
42044W        W13715  33.717  42.772   2.331
42045W        W13716  13.192  16.177   3.293
42046W        W13717  21.134  28.609  13.798
42047W        W13718  10.033  44.440   4.858
42048W        W13719  42.684  19.492  14.398
42049W        W13720  14.288  11.231  14.762
42050W        W13721  17.821  37.141   1.660
42051W        W13722  38.411  27.227  13.509
42052W        W13723   2.039  20.057   2.468
42053W        W13724  19.116   1.413   0.267
42054W        W13725   3.255   1.952   4.457
42055W        W13726  19.511  28.166  11.465
42056W        W13727   6.681  16.529  13.834
42057W        W13728  12.938  15.084  14.072
42058W        W13729  16.140  19.623  14.229
42059W        W13730  10.356  30.998  11.108
42060W        W13731  36.919  22.480   3.230
42061W        W13732   1.132  20.168  13.033
42062W        W13733  43.152  17.009   2.918
42063W        W13734  13.601   2.321   1.809
42064W        W13735   7.975  34.855  13.183
42065W        W13736  18.548  37.334  10.754
42066W        W13737  34.115  13.263  12.075
42067W        W13738   9.173  17.654  13.849
42068W        W13739  43.768  31.778   1.457
42069W        W13740  12.277  40.949   1.830
42070W        W13741   2.935  30.388   3.671
42071W        W13742  31.023  22.184   4.698
42072W        W13743  28.515  14.741   3.338
42073W        W13744  31.048   8.655   3.625
42074W        W13745  31.045  13.866  12.063
42075W        W13746  44.882  43.016  13.912
42076W        W13747  12.212  35.425   4.303
42077W        W13748   2.811  38.022   2.081
42078W        W13749  33.306  10.874  13.003
42079W        W13750   8.971  27.676   3.589
42080W        W13751  39.070  34.307  14.526
42081W        W13752   2.055  15.834  10.144
42082W        W13753  18.948  26.589   4.604
42083W        W13754  10.131  22.722  13.243
42084W        W13755  34.313  41.743   1.656
42085W        W13756   6.929   9.270  12.528
42086W        W13757  20.624  32.011   4.806
42087W        W13758  25.214  13.745   2.380
42088W        W13759   5.162   5.339  14.088
42089W        W13760  22.560   3.210  13.860
42090W        W13761  37.984   7.540  12.272
42091W        W13762  18.452  17.538  11.656
42092W        W13763   9.209  38.819  12.395
42093W        W13764   1.045  15.402   2.620
42094W        W13765  39.119   7.892   1.246
42095W        W13766  40.175  42.451   5.110
42096W        W13767  10.244  13.166  11.051
42097W        W13768   9.938  44.399  10.084
42098W        W13769  15.610   3.149  14.942
42099W        W13770  43.965  34.710  13.539
42100W        W13771  41.361   3.974   1.380
42101W        W13772  37.726  10.204  12.110
42102W        W13773  44.053  19.756   3.845
42103W        W13774  15.188  14.829   0.459
42104W        W13775   4.229   8.391   3.652
42105W        W13776  28.416  18.817   2.876
42106W        W13777  19.567  12.730  13.906
42107W        W13778   1.917  44.238   1.912
42108W        W13779  32.627   0.500   1.832
42109W        W13780  31.146   8.680   4.256
42110W        W13781   8.763  41.429   0.403
42111W        W13782  17.137  26.234   0.512
42112W        W13783  40.429  27.539   4.687
42113W        W13784  38.323   6.393  13.304
42114W        W13785  34.774  27.917  12.585
42115W        W13786  38.930  10.058   4.624
42116W        W13787  26.040  18.553  11.569
42117W        W13788  43.377  31.423  12.935
42118W        W13789   1.733  17.033   0.618
42119W        W13790  41.385  35.582   2.296
42120W        W13791   4.314  27.624  12.368
42121W        W13792  38.545  32.697  11.482
42122W        W13793  28.363  32.742   0.271
42123W        W13794  28.506  29.079   2.496
42124W        W13795  29.519  25.702  13.141
42125W        W13796  11.106   1.548  10.576
42126W        W13797   8.326   8.517  13.969
42127W        W13798  21.068   9.389   2.225
42128W        W13799  40.507  13.364   4.154
42129W        W13800  18.509  28.416   3.163
42130W        W13801  34.334  14.739  10.662
42131W        W13802   6.757  41.119  11.736
42132W        W13803  28.173  19.153   3.957
42133W        W13804  25.719  20.581  14.797
42134W        W13805  29.473   3.475   4.247
42135W        W13806  19.646   9.631   1.285
42136W        W13807  29.950  34.601   3.173
42137W        W13808  20.261  12.290  10.913
42138W        W13809   5.356   5.809  12.681
42139W        W13810  43.364  42.872  10.649
42140W        W13811   2.942  38.868   1.493
42141W        W13812  22.775  19.204  14.015
42142W        W13813  14.547  13.237   1.236
42143W        W13814  39.060  17.434  13.841
42144W        W13815  24.978  24.557  14.880
42145W        W13816  12.785   1.049  11.795
42146W        W13817  19.563  34.016   2.181
42147W        W13818  21.783  26.282   2.874
42148W        W13819  32.544  26.185   0.456
42149W        W13820  15.671  16.141   0.297
42150W        W13821  16.086  19.124  13.918
42151W        W13822  15.158   9.271  13.701
42152W        W13823  30.891  20.454  11.575
42153W        W13824   3.980  14.300  12.599
42154W        W13825  38.971   4.861  10.920
42155W        W13826  14.781  42.728   3.817
42156W        W13827  21.425  33.325  11.978
42157W        W13828   7.340   9.332  14.438
42158W        W13829  13.618  38.480  14.528
42159W        W13830  31.448  44.379  10.500
42160W        W13831   1.285  27.508   3.990
42161W        W13832  12.068  22.082  10.472
42162W        W13833  18.607  20.285  11.599
42163W        W13834  16.562  28.036   0.937
42164W        W13835  11.681  28.548   1.379
42165W        W13836  10.135  13.243  12.390
42166W        W13837   9.062  10.310  10.652
42167W        W13838  35.005  31.854   1.967
42168W        W13839  29.123  25.521  10.835
42169W        W13840  41.766  16.014  13.505
42170W        W13841  28.458  39.227  14.930
42171W        W13842   7.846  20.746   1.197
42172W        W13843  37.870  34.479  11.454
42173W        W13844  10.193  35.348   0.796
42174W        W13845  20.052  11.673   2.006
42175W        W13846  36.116   9.348   3.199
42176W        W13847   7.435   2.011   1.689
42177W        W13848  29.608  19.545  12.881
42178W        W13849  31.457   9.501  14.767
42179W        W13850  41.653  25.129  14.088
42180W        W13851  18.555  15.189  13.026
42181W        W13852  34.053  11.323  14.369
42182W        W13853  41.766   7.907  11.646
42183W        W13854   9.883  21.139  13.104
42184W        W13855  43.502   8.569  14.456
42185W        W13856  30.528  30.676  12.008
42186W        W13857  37.980  24.990  13.774
42187W        W13858  34.400  28.632   4.204
42188W        W13859   2.220  13.307  14.065
42189W        W13860  40.596  28.189   3.220
42190W        W13861   1.301  39.164   3.216
42191W        W13862   6.291  27.808  13.992
42192W        W13863  18.478  33.923  14.892
42193W        W13864   4.535  35.629  11.207
42194W        W13865  43.526  12.139   3.796
42195W        W13866  28.468  39.453  14.448
42196W        W13867   6.949   5.696   2.749
42197W        W13868  16.255   1.842  12.214
42198W        W13869  28.698  30.282   3.577
42199W        W13870   3.624  13.214   1.921
42200W        W13871  17.182  10.307   1.949
42201W        W13872  13.186  18.870   0.221
42202W        W13873  27.470  41.102   2.528
42203W        W13874  15.126  25.077  11.507
42204W        W13875  20.744  39.932   4.204
42205W        W13876  33.630  33.210  10.297
42206W        W13877  38.906  32.069  12.817
42207W        W13878  41.557   0.352   4.179
42208W        W13879  22.657  13.850  14.891
42209W        W13880  43.799  41.174  13.103
42210W        W13881  14.562  29.004   3.373
42211W        W13882  24.446  36.365   5.465
42212W        W13883  37.540  17.167   1.144
42213W        W13884   6.408  12.190   4.587
42214W        W13885  21.804  35.688   4.657
42215W        W13886   3.735  17.772   2.255
42216W        W13887   0.221   6.389  13.393
42217W        W13888  39.852  28.347  13.986
42218W        W13889  40.746  38.065   3.691
42219W        W13890  22.973  30.247  14.454
42220W        W13891   0.151  37.841  14.291
42221W        W13892  17.168  36.074  12.583
42222W        W13893  13.443  19.868   9.869
42223W        W13894  31.651   2.871   1.336
42224W        W13895   2.332   7.384   3.438
42225W        W13896  14.850  11.178  13.472
42226W        W13897  30.631  22.057   0.553
42227W        W13898   4.006   2.231  13.210
42228W        W13899  36.917  21.547   1.977
42229W        W13900  40.298  15.194   1.708
42230W        W13901   7.673   0.511  12.022
42231W        W13902  12.120  24.473  11.980
42232W        W13903  35.617  37.636  11.482
42233W        W13904  17.017  43.920   2.807
42234W        W13905  21.554  44.408   0.837
42235W        W13906  33.873   3.834  10.623
42236W        W13907  39.423   4.813  13.525
42237W        W13908  43.234  27.624  13.857
42238W        W13909  35.199  20.076   2.511
42239W        W13910  44.212   4.672   0.780
42240W        W13911   1.150  31.385  11.889
42241W        W13912   3.972  14.859   1.218
42242W        W13913  28.139  13.272   4.768
42243W        W13914   0.356  27.952  13.338
42244W        W13915  25.722  35.471   3.715
42245W        W13916  13.750  29.405   1.279
42246W        W13917  35.539  15.058  13.411
42247W        W13918   4.348   7.941   4.115
42248W        W13919   5.733   6.689   3.788
42249W        W13920  31.965  32.414  10.700
42250W        W13921  38.820   2.791  11.561
42251W        W13922  42.934   8.860  13.621
42252W        W13923  38.893  24.642  12.698
42253W        W13924  19.827   6.110  14.374
42254W        W13925   0.756  11.714  14.326
42255W        W13926  29.349  41.364  12.411
42256W        W13927  11.536  40.763   2.953
42257W        W13928  27.175  35.842   1.809
42258W        W13929  17.051  18.122   1.214
42259W        W13930   1.396   9.765   2.157
42260W        W13931  20.296  24.530  13.881
42261W        W13932  18.624  31.828   0.780
42262W        W13933  41.272  31.152   2.636
42263W        W13934  18.803  41.398  10.570
42264W        W13935  10.932  20.316   4.685
42265W        W13936  42.539   6.112   3.813
42266W        W13937   7.221  26.684  13.363
42267W        W13938  18.633  31.129   4.126
42268W        W13939   2.249  19.538  12.608
42269W        W13940  23.033  41.280   1.712
42270W        W13941  19.073  35.072   3.075
42271W        W13942  42.771   4.723   3.831
42272W        W13943  34.366  33.976  10.311
42273W        W13944  36.985  14.333  11.871
42274W        W13945  35.827  33.058   1.824
42275W        W13946  31.047  14.861  12.788
42276W        W13947  21.039  41.557  13.818
42277W        W13948  24.092  14.290  11.581
42278W        W13949  17.866  38.505  13.333
42279W        W13950  34.020  43.579  10.494
42280W        W13951  22.571  18.523  13.022
42281W        W13952  19.819  25.483   2.676
42282W        W13953   0.723  38.326  14.708
42283W        W13954  34.338   0.780   2.311
42284W        W13955   0.587  10.425  14.719
42285W        W13956  34.135  36.696  11.908
42286W        W13957  37.117  24.322   2.253
42287W        W13958   5.249  35.151  12.473
42288W        W13959  13.564  32.886  10.962
42289W        W13960  23.436  12.169  10.781
42290W        W13961   1.937  15.347  10.308
42291W        W13962  31.255  27.821   2.546
42292W        W13963  17.280  14.167   4.194
42293W        W13964  39.992  10.502   2.306
42294W        W13965  10.971  44.736  14.506
42295W        W13966  26.385   7.431   0.528
42296W        W13967  19.055  20.495   0.533
42297W        W13968   3.803   9.644   1.290
42298W        W13969   7.144  21.552   1.809
42299W        W13970   9.207  14.641  14.004
42300W        W13971  37.140  27.876   3.692
42301W        W13972  10.420   7.402  11.831
42302W        W13973  42.108  25.577  14.828
42303W        W13974   1.948  32.856  13.419
42304W        W13975  28.268  40.262   5.072
42305W        W13976  21.626  40.986  14.824
42306W        W13977  10.795   7.652  12.550
42307W        W13978  25.925  20.563   3.411
42308W        W13979   3.820  27.633   1.718
42309W        W13980  35.395  13.349  10.729
42310W        W13981  43.201  22.665  14.842
42311W        W13982  10.288  38.397  10.973
42312W        W13983  14.583  22.257   3.184
42313W        W13984  13.442  36.580   1.647
42314W        W13985  38.622  11.650  13.564
42315W        W13986   8.742  30.542  12.463
42316W        W13987  29.793  25.130   2.797
42317W        W13988  36.945  44.985  13.279
42318W        W13989  41.340   7.713   2.669
42319W        W13990  43.986  43.027   1.515
42320W        W13991  18.822  33.073  13.604
42321W        W13992   6.455  17.754   2.309
42322W        W13993  18.376  13.417  14.358
42323W        W13994  37.866  13.412   4.385
42324W        W13995  16.263   0.294   4.535
42325W        W13996  42.605  29.932   2.342
42326W        W13997  43.597  12.268   4.677
42327W        W13998  12.389  44.465  12.790
42328W        W13999   1.483  18.752  14.560
42329W        W14000  15.730   5.925   3.690
42330W        W14001  30.814  32.667  13.628
42331W        W14002  29.524  33.536  10.233
42332W        W14003  26.324   8.243  11.839
42333W        W14004  26.558  39.119   4.804
42334W        W14005  38.622  12.938  11.641
42335W        W14006   9.573  17.693   2.567
42336W        W14007  43.520   2.791   2.336
42337W        W14008  14.676  14.635  10.696
42338W        W14009   5.768   0.408   4.403
42339W        W14010   8.926  37.814  12.521
42340W        W14011  16.690  40.615  11.336
42341W        W14012  32.825  11.694   1.959
42342W        W14013  19.624  22.546   4.266
42343W        W14014  30.613  20.150  10.404
42344W        W14015  33.709   9.109   4.962
42345W        W14016   9.675  43.272   0.949
42346W        W14017  43.836  23.234   0.456
42347W        W14018   8.376  35.905   1.289
42348W        W14019  10.164  44.872   4.215
42349W        W14020  37.749  16.997   3.152
42350W        W14021  32.479  31.900  10.900
42351W        W14022  17.799  31.038  10.948
42352W        W14023  18.715   8.300  10.941
42353W        W14024  23.036  12.985   4.609
42354W        W14025  10.949  24.753  12.832
42355W        W14026  37.093  31.350   4.114
42356W        W14027  28.175  33.983   0.521
42357W        W14028  36.881   3.378   3.771
42358W        W14029  28.136   0.460   4.336
42359W        W14030  25.739   1.382   0.303
42360W        W14031  32.625  40.496  10.701
42361W        W14032   4.380  32.826  11.694
42362W        W14033  10.826  26.117   4.122
42363W        W14034  17.294   9.139  10.108
42364W        W14035  34.244  31.650  12.851
42365W        W14036  32.903  33.147  12.872
42366W        W14037  18.982  21.729   2.110
42367W        W14038  35.341  12.736  14.422
42368W        W14039  35.998  17.656   4.699
42369W        W14040  41.233  26.547   1.418
42370W        W14041   2.001  40.803  12.035
42371W        W14042   5.650  18.947   1.866
42372W        W14043  13.863   4.413   0.826
42373W        W14044  27.188  33.475  11.656
42374W        W14045  36.127   0.408   0.361
42375W        W14046  27.573  24.241  11.585
42376W        W14047  26.656  27.436  12.068
42377W        W14048  23.646  29.668   4.196
42378W        W14049  18.719  35.272   1.185
42379W        W14050   1.926   4.388  11.985
42380W        W14051  19.302  42.353  12.098
42381W        W14052  20.449  25.445   1.440
42382W        W14053  16.509   0.915  10.406
42383W        W14054  33.082  21.552   3.226
42384W        W14055  42.575  23.736   4.192
42385W        W14056  21.564  43.727   1.358
42386W        W14057   1.658  24.553   2.171
42387W        W14058  33.995  29.959   3.388
42388W        W14059  20.698   8.990   2.386
42389W        W14060  24.082  35.419   0.433
42390W        W14061  44.108   2.422   1.312
42391W        W14062  41.278  23.118   3.117
42392W        W14063  43.034   7.382   3.787
42393W        W14064   5.450   8.989  14.032
42394W        W14065  43.326  28.962   0.476
42395W        W14066   7.267  29.462   3.809
42396W        W14067  12.707   5.158   0.318
42397W        W14068  38.628   9.285  14.458
42398W        W14069  22.673  32.897   3.415
42399W        W14070  24.042  18.196   2.353
42400W        W14071  26.169   7.711   2.114
42401W        W14072   4.190  26.901  14.985
42402W        W14073  34.611   1.413  14.052
42403W        W14074   6.877   0.932  14.783
42404W        W14075   3.538   8.327  12.396
42405W        W14076   1.392  10.174  11.438
42406W        W14077  16.893  41.268   3.289
42407W        W14078  24.903  42.763   3.416
42408W        W14079  26.761  34.401  10.337
42409W        W14080  34.899  21.692  14.377
42410W        W14081  43.687  26.323  11.183
42411W        W14082  30.748  16.169  14.334
42412W        W14083  10.403  26.865  12.566
42413W        W14084  13.880  12.144  13.841
42414W        W14085  30.151  39.425  11.905
42415W        W14086   6.741  31.888  10.416
42416W        W14087  39.833  26.618   1.284
42417W        W14088  19.764  26.673   3.319
42418W        W14089  40.392  19.181  12.454
42419W        W14090  21.567  28.988   1.144
42420W        W14091  20.509  28.793  13.977
42421W        W14092  14.750  32.023   0.792
42422W        W14093   6.388   7.371   4.661
42423W        W14094  29.131  41.309  12.877
42424W        W14095  35.136  40.800  14.388
42425W        W14096  38.542   9.881  14.865
42426W        W14097   7.733  20.104  13.373
42427W        W14098   4.402  43.225  10.200
42428W        W14099  33.389  39.563  10.011
42429W        W14100  30.102  30.849   3.824
42430W        W14101  17.833  15.539  14.685
42431W        W14102  14.830  41.035   2.815
42432W        W14103  23.196  16.826   1.528
42433W        W14104  11.215   8.313  13.326
42434W        W14105  18.862  38.804  13.479
42435W        W14106   4.925  43.324   3.273
42436W        W14107  17.501  43.297   3.318
42437W        W14108  36.985   9.346  13.359
42438W        W14109  29.155  20.152  13.737
42439W        W14110  41.813  41.699  14.795
42440W        W14111  27.971   2.672   1.980
42441W        W14112  14.190  33.813   0.115
42442W        W14113  23.127  42.392  14.302
42443W        W14114   8.013  23.559  13.740
42444W        W14115  43.531   2.841  13.355
42445W        W14116  28.935  12.223  11.524
42446W        W14117  32.587   1.729   0.360
42447W        W14118   3.934  42.877  14.914
42448W        W14119  11.414  33.189   1.351
42449W        W14120   2.263  17.732  12.906
42450W        W14121  16.229  40.034  13.321
42451W        W14122  20.194  33.345  12.495
42452W        W14123  31.703   1.680   1.652
42453W        W14124  18.535  19.469  14.865
42454W        W14125  26.254  28.134  14.973
42455W        W14126  25.048   4.818   1.699
42456W        W14127  20.671  12.872   1.403
42457W        W14128  20.762   9.921  14.465
42458W        W14129  41.094  15.866  11.142
42459W        W14130  33.974   2.950  13.481
42460W        W14131  36.745  34.266   1.761
42461W        W14132   2.655  18.084   0.042
42462W        W14133  41.198  29.575  11.574
42463W        W14134   3.277   1.278   2.634
42464W        W14135  20.339  42.861   1.308
42465W        W14136  25.161  15.647  12.864
42466W        W14137   5.732  22.291   4.265
42467W        W14138  28.409   0.054   3.301
42468W        W14139  20.413  24.891  11.558
42469W        W14140  17.306  41.971   0.120
42470W        W14141  22.084  10.915   4.669
42471W        W14142  11.301  36.778   4.329
42472W        W14143   3.481  29.186   1.821
42473W        W14144   0.755   6.209  14.797
42474W        W14145  15.665  20.249  14.566
42475W        W14146  42.789  27.475  12.878
42476W        W14147   9.315   7.746  14.492
42477W        W14148   7.169   3.463   2.906
42478W        W14149  19.982  42.931   3.175
42479W        W14150  13.554  41.860  13.033
42480W        W14151  41.788  14.786   3.090
42481W        W14152  19.652  15.930  13.084
42482W        W14153  39.758   1.876  12.980
42483W        W14154   4.412  28.709  12.433
42484W        W14155  32.225  15.312  12.154
42485W        W14156  25.990   8.066   1.297
42486W        W14157  35.013  17.063  11.182
42487W        W14158   1.762  20.001  13.880
42488W        W14159  14.339  35.504  12.540
42489W        W14160   4.377  10.353   4.831
42490W        W14161  43.737   1.530  10.739
42491W        W14162  13.297  20.820  14.932
42492W        W14163  10.103  19.501   1.231
42493W        W14164  11.887   9.796  14.874
42494W        W14165  29.614   8.768   1.180
42495W        W14166  15.262  23.791  13.452
42496W        W14167  36.451  35.529  11.199
42497W        W14168  42.319  30.060   3.762
42498W        W14169  35.446   2.778  11.833
42499W        W14170   6.277  11.381  11.994
42500W        W14171  19.114  15.081  11.164
42501W        W14172   4.098   2.374  11.924
42502W        W14173  14.544  43.295   4.469
42503W        W14174  28.378  43.649   4.143
42504W        W14175  18.788   2.281  10.514
42505W        W14176  40.669  29.620  12.998
42506W        W14177  10.307   8.854   0.921
42507W        W14178  31.094  10.796  14.451
42508W        W14179  35.468  12.818   1.350
42509W        W14180  16.213  14.888  14.574
42510W        W14181  15.552  17.980   0.395
42511W        W14182  28.901  37.760   2.922
42512W        W14183  15.498   7.717   5.284
42513W        W14184  23.516  15.143  13.127
42514W        W14185  24.988   8.458   2.135
42515W        W14186   1.374  28.378   0.034
42516W        W14187  30.690   6.452   2.224
42517W        W14188   9.192  34.609   0.547
42518W        W14189  44.188  21.614  10.115
42519W        W14190   7.509  38.847  14.132
42520W        W14191  34.052   0.959   1.304
42521W        W14192   5.335  33.159  10.779
42522W        W14193  38.511  40.311   2.270
42523W        W14194  39.480   3.713   1.029
42524W        W14195   2.729  43.304   2.384
42525W        W14196  11.100  43.521  10.466
42526W        W14197  40.617  33.448   1.343
42527W        W14198   5.959  40.794   3.635
42528W        W14199  29.382  15.481  11.611
42529W        W14200   8.938  41.945   3.752
42530W        W14201  28.027   0.804   2.976
42531W        W14202  16.802  30.171  12.565
42532W        W14203  40.883  22.273   4.427
42533W        W14204   3.014  14.267  12.838
42534W        W14205  13.068  24.070  10.769
42535W        W14206   1.283  30.459   2.907
42536W        W14207  19.035  12.106  14.398
42537W        W14208  43.756   2.411  13.518
42538W        W14209  36.610  44.556  11.094
42539W        W14210  24.150  43.754   1.387
42540W        W14211  16.252  27.408  13.601
42541W        W14212   0.191   9.719  13.449
42542W        W14213  14.955  18.617   3.541
42543W        W14214  35.988  14.435  11.973
42544W        W14215  31.455  44.778  12.454
42545W        W14216  36.066   8.924   4.176
42546W        W14217  11.869  21.035   2.731
42547W        W14218  43.913  44.773   1.742
42548W        W14219  35.640   7.256   2.830
42549W        W14220  31.647  25.273   1.329
42550W        W14221  15.068  30.416   3.706
42551W        W14222  22.726  11.936  10.295
42552W        W14223  26.042  19.355   2.841
42553W        W14224  27.117  16.240   4.551
42554W        W14225  22.885  42.914  11.391
42555W        W14226  39.639  27.874  14.027
42556W        W14227   5.943  38.090  12.432
42557W        W14228  15.019   1.516   1.102
42558W        W14229  42.401  36.282  13.882
42559W        W14230  21.407  27.172   4.521
42560W        W14231  39.618  38.355  13.402
42561W        W14232  41.842  38.376  11.147
42562W        W14233   3.363   9.745  12.611
42563W        W14234  23.469  37.066  10.697
42564W        W14235  25.193  33.998  14.100
42565W        W14236   7.103  42.881   0.354
42566W        W14237  42.257  12.727   0.844
42567W        W14238   3.994   2.642  11.174
42568W        W14239  14.868  24.241  14.409
42569W        W14240  11.819   1.840  11.071
42570W        W14241  30.910  43.395  13.951
42571W        W14242  34.897   5.747   3.537
42572W        W14243   6.876  28.351   1.102
42573W        W14244  42.813   0.953  10.432
42574W        W14245  39.927  42.086  13.379
42575W        W14246  14.272  14.136   2.262
42576W        W14247  32.582  38.038   4.585
42577W        W14248  44.921  35.650   2.458
42578W        W14249   3.644  42.969   4.054
42579W        W14250  15.082  20.643   1.589
42580W        W14251  30.084  32.158   1.446
42581W        W14252  44.170  10.605   4.264
42582W        W14253  37.991  22.018  11.608
42583W        W14254  30.031   6.682   4.243
42584W        W14255  27.598  18.320  13.529
42585W        W14256   0.703  39.887  11.925
42586W        W14257   3.549  34.692   1.681
42587W        W14258   6.242  29.918  12.820
42588W        W14259  34.662  43.409   0.580
42589W        W14260  20.586  30.103   1.325
42590W        W14261  27.921   6.239  11.970
42591W        W14262  36.939  37.053  13.833
42592W        W14263  31.905  44.760  14.891
42593W        W14264  18.972   5.142  13.893
42594W        W14265  12.129  35.999   1.817
42595W        W14266  43.092   0.808   2.928
42596W        W14267   1.507  41.398  10.607
42597W        W14268  14.043  40.396   0.917
42598W        W14269  27.159  42.547  13.160
42599W        W14270  29.449  20.540   4.649
42600W        W14271  39.937  38.665   2.116
42601W        W14272  14.366  44.073  13.642
42602W        W14273  28.504  14.804  10.781
42603W        W14274  30.022  14.073  12.570
42604W        W14275  36.122  33.184   4.097
42605W        W14276  38.475   6.601   3.528
42606W        W14277  14.413   7.283  10.253
42607W        W14278  27.101  25.701  13.142
42608W        W14279  35.024  28.807  12.370
42609W        W14280  12.592  29.219  12.680
42610W        W14281  20.641  20.606   1.293
42611W        W14282  12.625  40.459  14.015
42612W        W14283  10.709  14.176   0.676
42613W        W14284  33.588  32.438   1.834
42614W        W14285  43.335  22.182  14.979
42615W        W14286  13.638  24.165  10.835
42616W        W14287  12.571  13.992  13.503
42617W        W14288  25.502  10.697   3.052
42618W        W14289   0.886  40.757  11.155
42619W        W14290  23.951  13.873  13.810
42620W        W14291  26.595  42.096   4.696
42621W        W14292  33.887   0.338  12.939
42622W        W14293  24.516   6.439  11.546
42623W        W14294  44.380   4.704  14.806
42624W        W14295  41.910  15.107  14.960
42625W        W14296  17.055  34.622  10.208
42626W        W14297  20.868  19.058  12.080
42627W        W14298   8.171   7.664  10.712
42628W        W14299  28.887  35.392   1.067
42629W        W14300   6.865  21.298  11.881
42630W        W14301  20.143  13.251  10.436
42631W        W14302  32.495  10.405   0.242
42632W        W14303  40.848  40.640   3.609
42633W        W14304   2.963  41.888  13.861
42634W        W14305  37.822  11.987  13.859
42635W        W14306  19.334  41.846  11.619
42636W        W14307  18.516  42.332  14.193
42637W        W14308  21.250  26.421   1.248
42638W        W14309  35.652   2.366  13.091
42639W        W14310  44.090   6.922  11.048
42640W        W14311   7.888  35.361   3.213
42641W        W14312   2.965   3.005   3.208
42642W        W14313  27.466   6.846   0.216
42643W        W14314  18.398  41.077   0.430
42644W        W14315  25.186   7.390  10.669
42645W        W14316  41.185   4.500  10.585
42646W        W14317   4.741  16.109  11.045
42647W        W14318   0.690  42.563  14.031
42648W        W14319  22.251  31.543   2.415
42649W        W14320  38.417  35.416   1.796
42650W        W14321   4.184  20.806   2.632
42651W        W14322  27.506  10.365  13.777
42652W        W14323   6.589  44.788  12.572
42653W        W14324  32.828  37.624  11.037
42654W        W14325  24.473   8.440  11.603
42655W        W14326   9.247  35.321   2.612
42656W        W14327   4.277  17.645  13.382
42657W        W14328  36.645   9.980  13.707
42658W        W14329   6.326  16.684   3.671
42659W        W14330  28.201  38.473   3.677
42660W        W14331  21.241  41.655  12.953
42661W        W14332  33.334  10.921   2.225
42662W        W14333  13.179  25.413  11.641
42663W        W14334  18.044  20.905  11.026
42664W        W14335  28.647  31.062  11.658
42665W        W14336   8.601   6.448  13.878
42666W        W14337   2.902  17.267  13.429
42667W        W14338  34.392  12.780  12.531
42668W        W14339  40.530  32.571  13.301
42669W        W14340   9.660  28.473   3.596
42670W        W14341  29.068  21.646   4.630
42671W        W14342  27.620  37.982  10.334
42672W        W14343  18.893   1.197   1.866
42673W        W14344  43.771  16.700  12.514
42674W        W14345  27.415   2.784  13.300
42675W        W14346  41.988   8.833   1.171
42676W        W14347  14.791  11.369  14.921
42677W        W14348   8.413  17.155  14.045
42678W        W14349  29.451   4.754   1.296
42679W        W14350  17.229  36.081   3.834
42680W        W14351  24.622  16.379  10.714
42681W        W14352   6.170  15.586   3.279
42682W        W14353  41.591  21.204   2.782
42683W        W14354  40.694  17.172  10.611
42684W        W14355   9.082  41.731  14.485
42685W        W14356  42.050  17.349   1.388
42686W        W14357   8.808  35.211  13.047
42687W        W14358  22.990  10.073  11.130
42688W        W14359  21.531   9.119   2.215
42689W        W14360  14.646  17.074   0.837
42690W        W14361  23.834  31.393   0.661
42691W        W14362  28.134  22.591  13.950
42692W        W14363  33.254  31.488   2.157
42693W        W14364   5.651  11.409  14.326
42694W        W14365  37.896  12.506  13.883
42695W        W14366  20.149  27.613   1.730
42696W        W14367  18.842  10.988   5.358
42697W        W14368  16.089  30.131  14.036
42698W        W14369   1.469  34.334  14.367
42699W        W14370  32.628  21.803   2.373
42700W        W14371  25.153  25.976   0.008
42701W        W14372  40.315  33.219   2.588
42702W        W14373   8.714   0.859  11.171
42703W        W14374   3.972  10.135   1.238
42704W        W14375  43.678  36.295  10.299
42705W        W14376  37.244   3.713   3.945
42706W        W14377   5.493  21.981  13.766
42707W        W14378  31.770  44.061  10.740
42708W        W14379  13.792   5.710   0.343
42709W        W14380  27.444  16.635   2.757
42710W        W14381  26.123  43.787   0.678
42711W        W14382   9.339  40.919   0.909
42712W        W14383  34.470  10.564   2.805
42713W        W14384  22.700  22.897  14.291
42714W        W14385   4.544   6.724  11.081
42715W        W14386   7.679  44.008  13.911
42716W        W14387   3.730  29.526  12.203
42717W        W14388  32.017  37.608  14.060
42718W        W14389  11.016  40.797   3.649
42719W        W14390  15.699  34.025  12.575
42720W        W14391  20.082  23.181   9.985
42721W        W14392  20.730   1.838   2.231
42722W        W14393  32.090  25.039   1.348
42723W        W14394  23.440  13.488   3.175
42724W        W14395  12.369  19.687   1.933
42725W        W14396  35.789  24.411  14.645
42726W        W14397  13.809  44.306  13.104
42727W        W14398  33.841   2.398   1.111
42728W        W14399  33.414  37.143  13.896
42729W        W14400  32.939  17.567   2.456
42730W        W14401  32.602  11.545  13.295
42731W        W14402  33.115  38.167   1.826
42732W        W14403   8.582  32.904  11.562
42733W        W14404  19.652  44.505   2.272
42734W        W14405  16.528   0.409   0.860
42735W        W14406  35.544   3.756  12.928
42736W        W14407  36.080  29.291   0.356
42737W        W14408  32.855  30.881   1.839
42738W        W14409  39.986   7.743  13.644
42739W        W14410  30.374  40.936  11.572
42740W        W14411  32.519   5.728  13.396
42741W        W14412  37.397   5.712   3.719
42742W        W14413  25.645   9.492   4.436
42743W        W14414  18.697   0.709  10.103
42744W        W14415  30.155  19.801  11.183
42745W        W14416  28.996  33.779   0.836
42746W        W14417   8.279   3.466  11.683
42747W        W14418  30.432  15.344   0.623
42748W        W14419  22.649  34.335   3.283
42749W        W14420   1.848  18.306  12.545
42750W        W14421  16.826  27.498   3.066
42751W        W14422  36.837  19.670  11.229
42752W        W14423  30.050  37.690   1.806
42753W        W14424  21.617  10.667   4.794
42754W        W14425   4.218  35.944   1.356
42755W        W14426   2.914  37.073   1.770
42756W        W14427   6.489  38.624  13.407
42757W        W14428   8.671  27.924   3.903
42758W        W14429  32.985  35.563  14.697
42759W        W14430   6.001  11.895   0.424
42760W        W14431  27.494   5.187   4.027
42761W        W14432  16.866  21.489   4.230
42762W        W14433  35.875  44.835  11.669
42763W        W14434  17.805   1.792   1.572
42764W        W14435   9.193   5.466  13.982
42765W        W14436  18.699  19.813  14.435
42766W        W14437   1.465  28.614  11.980
42767W        W14438  38.110   4.316  14.446
42768W        W14439   8.382   1.180   0.951
42769W        W14440  25.544  40.891  11.181
42770W        W14441  15.211  10.363  12.492
42771W        W14442   0.219  39.094  10.979
42772W        W14443  21.467   0.010  14.469
42773W        W14444   8.815  30.466   1.440
42774W        W14445   8.886  14.212  14.616
42775W        W14446  44.538  38.061  12.283
42776W        W14447  20.718  20.685   4.459
42777W        W14448  13.810   3.797  13.201
42778W        W14449  33.856  19.818   0.859
42779W        W14450   4.877  32.818  13.928
42780W        W14451  13.131  15.104  11.686
42781W        W14452  42.072   0.909   3.935
42782W        W14453  10.448  23.505  11.825
42783W        W14454  19.952  30.632   3.209
42784W        W14455   3.890   4.271  10.819
42785W        W14456  16.950  18.992   2.609
42786W        W14457  25.402  22.596   1.215
42787W        W14458   7.912   7.458  11.097
42788W        W14459  44.907   9.325   3.150
42789W        W14460  24.915  36.711  12.024
42790W        W14461  34.319  42.319  10.389
42791W        W14462  25.192  39.607  10.835
42792W        W14463  40.361  43.492  11.328
42793W        W14464  19.294  42.315  14.709
42794W        W14465  41.816  12.335  12.998
42795W        W14466   8.975   5.743  14.684
42796W        W14467  18.751  25.380   5.257
42797W        W14468  16.451  43.818   3.635
42798W        W14469   4.405  38.855   3.681
42799W        W14470   5.333  42.828   3.618
42800W        W14471   6.225  43.397   1.401
42801W        W14472  11.836   6.786  11.240
42802W        W14473  30.918  11.787   4.554
42803W        W14474  22.674  10.702  10.620
42804W        W14475  29.082  20.889   0.511
42805W        W14476  20.322   4.190  10.677
42806W        W14477  33.927  20.161  11.136
42807W        W14478  19.640   3.772  14.289
42808W        W14479  18.560  28.028   1.415
42809W        W14480  17.634  11.115  14.057
42810W        W14481  28.155  16.610  14.053
42811W        W14482  28.137   5.314   1.178
42812W        W14483  30.703  18.301   5.030
42813W        W14484  10.395  23.530   3.295
42814W        W14485  44.987  34.405   4.349
42815W        W14486  35.976   9.597  14.338
42816W        W14487  44.993  36.977  12.001
42817W        W14488  11.743  10.248   3.546
42818W        W14489  24.247  27.451   1.477
42819W        W14490   7.435   9.261  12.465
42820W        W14491  14.333  13.118  14.376
42821W        W14492   7.826  13.808   2.663
42822W        W14493   6.657  23.969   3.691
42823W        W14494   3.156  33.649   0.260
42824W        W14495  28.631   2.565  11.329
42825W        W14496  12.761  39.194  14.935
42826W        W14497  24.004  30.415   3.097
42827W        W14498  26.792   9.698  10.205
42828W        W14499  31.350  40.783  13.313
42829W        W14500  20.993  35.301   2.247
42830W        W14501  19.170  42.458   2.685
42831W        W14502  19.512  10.731   4.869
42832W        W14503  30.977  36.112  11.218
42833W        W14504  37.560   4.438  12.075
42834W        W14505  21.261  21.272  13.010
42835W        W14506  21.137  34.948  11.628
42836W        W14507   2.313  26.842  13.706
42837W        W14508  34.458   7.235   3.280
42838W        W14509  42.607  18.743  10.632
42839W        W14510   4.797  15.597  13.871
42840W        W14511  41.956  12.525  14.957
42841W        W14512  32.164  14.966   4.309
42842W        W14513  10.391   5.456  14.940
42843W        W14514  25.671  27.366  13.490
42844W        W14515  16.075  11.176   3.645
42845W        W14516  11.625  16.784  11.049
42846W        W14517  21.645  19.620   0.862
42847W        W14518  42.514  23.450  11.592
42848W        W14519  41.515  21.058  12.895
42849W        W14520  31.231  11.875  10.995
42850W        W14521  13.060   2.309   1.810
42851W        W14522  16.808  34.397   3.597
42852W        W14523   0.819  23.058   9.817
42853W        W14524  15.492  43.177  12.464
42854W        W14525   3.085   4.796   3.405
42855W        W14526  31.832   5.135   2.528
42856W        W14527  25.146   2.766   3.679
42857W        W14528  23.970  35.153   1.888
42858W        W14529   4.433  14.332  11.538
42859W        W14530  14.515  12.142   2.976
42860W        W14531  41.947  10.137   0.319
42861W        W14532  20.928  32.380  14.083
42862W        W14533  28.547  22.797  13.739
42863W        W14534  13.357  34.169  11.154
42864W        W14535  31.758  37.724  13.039
42865W        W14536  10.930  36.889  12.385
42866W        W14537  15.087  23.757  14.328
42867W        W14538  32.099  20.596   4.967
42868W        W14539  19.110  39.407   1.922
42869W        W14540  41.784   3.130  13.535
42870W        W14541  25.129   5.407  11.153
42871W        W14542  19.603   3.017  11.592
42872W        W14543  34.051  32.096  11.966
42873W        W14544  27.440  26.826  11.094
42874W        W14545  16.364  30.374   4.040
42875W        W14546   3.229   9.890  10.638
42876W        W14547  35.479  30.350   1.847
42877W        W14548  44.883  17.640  14.388
42878W        W14549  42.218   6.227   1.425
42879W        W14550  33.055   9.316   2.273
42880W        W14551  44.071   5.926   1.763
42881W        W14552  31.659  16.030   1.901
42882W        W14553  19.929   4.426  13.763
42883W        W14554  12.366  29.039   0.866
42884W        W14555  26.526  27.968  10.210
42885W        W14556  18.091  16.573  14.425
42886W        W14557  35.223   4.876  14.181
42887W        W14558  38.090   0.512  11.984
42888W        W14559   6.248  32.169  11.699
42889W        W14560   5.808  20.622   3.652
42890W        W14561  11.926   5.427  11.636
42891W        W14562   8.893  17.319   3.277
42892W        W14563  26.645  21.460   2.691
42893W        W14564  21.490  35.609  11.841
42894W        W14565  27.605  14.538  12.016
42895W        W14566  30.824  27.485   0.177
42896W        W14567  10.561  42.447   4.593
42897W        W14568  39.861  13.626   1.361
42898W        W14569   3.867  36.026   0.977
42899W        W14570  13.207  27.100  13.914
42900W        W14571  34.572  26.467  11.157
42901W        W14572  39.997  23.076   0.488
42902W        W14573  23.152  20.672   4.569
42903W        W14574  43.681  43.355   1.752
42904W        W14575  20.551  33.000  13.427
42905W        W14576  30.395  31.140  13.761
42906W        W14577  41.792  22.188   2.176
42907W        W14578   4.013  41.461  10.624
42908W        W14579   2.921  44.506  14.318
42909W        W14580  39.980  38.485  11.997
42910W        W14581   8.389  17.712   0.199
42911W        W14582  19.661  17.550   3.786
42912W        W14583  29.506   8.492   4.535
42913W        W14584  43.906  17.708  12.526
42914W        W14585  42.375  13.320   0.478
42915W        W14586  20.038  27.946  10.734
42916W        W14587  41.839  10.985   1.333
42917W        W14588   5.895  38.656   0.799
42918W        W14589  14.665  12.657  14.546
42919W        W14590   0.502  24.450  11.430
42920W        W14591   1.948  17.813   3.703
42921W        W14592  40.784   1.864  12.994
42922W        W14593  29.900  11.191   0.917
42923W        W14594  22.915  35.243  14.000
42924W        W14595  24.153  33.559  12.254
42925W        W14596  13.770  10.323   3.713
42926W        W14597  25.089  25.150  12.524
42927W        W14598  15.131  28.874  14.087
42928W        W14599  43.925  22.486  13.434
42929W        W14600  10.208   7.331   1.473
42930W        W14601  20.063   4.748   3.160
42931W        W14602  34.430  42.340  13.503
42932W        W14603  28.054  19.165   4.463
42933W        W14604  14.016  18.261   4.105
42934W        W14605  35.878  33.897  14.857
42935W        W14606  21.134   4.205   1.891
42936W        W14607  43.829   5.077  11.604
42937W        W14608  42.423  31.979  10.511
42938W        W14609  39.075  17.863  12.349
42939W        W14610  23.583   8.513  13.980
42940W        W14611  18.714  29.596  13.891
42941W        W14612  42.323  26.452  14.755
42942W        W14613  13.950  35.590   0.947
42943W        W14614   1.417   0.809  13.929
42944W        W14615  25.377   4.793   2.847
42945W        W14616  17.420   2.503   0.064
42946W        W14617  32.944  43.839   3.189
42947W        W14618  23.274   4.314  12.131
42948W        W14619  17.612  18.694   3.602
42949W        W14620  16.309  21.400  14.201
42950W        W14621  24.565  35.001   1.654
42951W        W14622   7.755   0.503   1.855
42952W        W14623  29.535  10.736  11.241
42953W        W14624  31.627  33.589  12.817
42954W        W14625   4.271  33.926   1.802
42955W        W14626  20.241  26.542  13.059
42956W        W14627  10.234  43.819  13.971
42957W        W14628  17.601  27.466   2.740
42958W        W14629  44.776  11.567   0.432
42959W        W14630  18.744  43.173   4.898
42960W        W14631  22.244  21.136   0.366
42961W        W14632  23.607   8.312  10.815
42962W        W14633   2.874  17.114  11.679
42963W        W14634  17.078  34.502   4.667
42964W        W14635  23.462  32.543   3.172
42965W        W14636  30.416  33.747  11.403
42966W        W14637  25.216  13.595  10.567
42967W        W14638  38.257  28.192   2.241
42968W        W14639   1.548  39.345   2.287
42969W        W14640  18.991  37.498  13.356
42970W        W14641  14.104  44.985   0.310
42971W        W14642  29.683   5.369  13.756
42972W        W14643  44.829  40.658  10.689
42973W        W14644  10.223  31.244   0.420
42974W        W14645  12.403   9.634  11.555
42975W        W14646   9.415  14.375   3.458
42976W        W14647  37.955  19.265   3.628
42977W        W14648  43.550   2.908   3.779
42978W        W14649  32.460   3.861   1.205
42979W        W14650  21.237  40.050   5.531
42980W        W14651  30.206  36.567  10.631
42981W        W14652  42.447  18.912   2.325
42982W        W14653   8.196   9.316  10.916
42983W        W14654   3.199  20.768  11.481
42984W        W14655  22.073   6.935  10.468
42985W        W14656   5.462   3.357  14.440
42986W        W14657   7.748  26.627   0.043
42987W        W14658  18.038   8.666   3.065
42988W        W14659  10.596  36.436  14.265
42989W        W14660   5.959  38.465  10.809
42990W        W14661   5.724  21.969   1.841
42991W        W14662  11.229  41.042   4.435
42992W        W14663   6.395  17.487  11.609
42993W        W14664  14.232  41.099   4.416
42994W        W14665   1.996  43.324  14.587
42995W        W14666  17.653  20.544   0.666
42996W        W14667  11.365  18.692  13.892
42997W        W14668  39.845  30.839   4.049
42998W        W14669  36.786  15.305  13.445
42999W        W14670  14.755  29.349  12.184
43000W        W14671  21.270  15.198  11.159
43001W        W14672  34.450  18.199  10.616
43002W        W14673  27.778  31.409   3.885
43003W        W14674   7.259  33.051  10.621
43004W        W14675  39.017  31.372   2.654
43005W        W14676  23.803   7.117   1.835
43006W        W14677  38.066   7.103   0.819
43007W        W14678  43.346  28.128  13.696
43008W        W14679  35.543  35.751   4.098
43009W        W14680  23.498  25.979  12.063
43010W        W14681   7.937  14.580  12.455
43011W        W14682  40.003  28.151   2.993
43012W        W14683  41.438  26.259  10.743
43013W        W14684   6.435  44.989   3.349
43014W        W14685  44.011  26.622  11.667
43015W        W14686  33.282  31.925   1.836
43016W        W14687  44.511   3.533  11.167
43017W        W14688  38.497  17.064  13.102
43018W        W14689  22.895  20.728   3.186
43019W        W14690  33.835  22.442   0.198
43020W        W14691  30.193  16.129  12.566
43021W        W14692   2.479  27.927   3.736
43022W        W14693  25.526  15.873  10.953
43023W        W14694   9.850   6.632  11.484
43024W        W14695  36.608   3.863   1.472
43025W        W14696   4.262  27.636  14.293
43026W        W14697  33.331  20.737   0.335
43027W        W14698  22.126  24.094  11.040
43028W        W14699  29.936  36.921  10.866
43029W        W14700  25.005  14.552   0.045
43030W        W14701  19.452  24.537   2.881
43031W        W14702  41.659   3.113  13.018
43032W        W14703  31.929  17.510   2.608
43033W        W14704  31.572  43.245  11.352
43034W        W14705   9.772  13.086   1.858
43035W        W14706  22.215  36.468  10.676
43036W        W14707   4.333  24.728  12.616
43037W        W14708  26.093   2.254   2.405
43038W        W14709  17.819  32.990   4.664
43039W        W14710   6.824  18.524   3.781
43040W        W14711   5.356  16.090   3.297
43041W        W14712  17.331  44.722   3.280
43042W        W14713  41.053   6.035  11.412
43043W        W14714  17.709  35.433   3.884
43044W        W14715   2.465  29.505   2.264
43045W        W14716   2.176  13.073   1.313
43046W        W14717  34.132  25.940  11.530
43047W        W14718  12.229  40.022   0.820
43048W        W14719  11.408  20.215  13.491
43049W        W14720  26.170  32.013   1.483
43050W        W14721   4.864  30.634  11.891
43051W        W14722  16.316  43.092  12.712
43052W        W14723  14.217  18.590   4.921
43053W        W14724  16.716  13.444   5.237
43054W        W14725  39.945  44.225  13.864
43055W        W14726  18.621   7.375   1.952
43056W        W14727  34.323  16.206   5.141
43057W        W14728  14.672  16.182   1.781
43058W        W14729  34.994  37.562   4.045
43059W        W14730  22.763  11.457   3.931
43060W        W14731  10.114   0.768   3.350
43061W        W14732   0.494  27.471   1.425
43062W        W14733  42.401   5.281  13.337
43063W        W14734  29.086  38.283  11.614
43064W        W14735  44.169  17.090  14.240
43065W        W14736  22.720  43.481  11.551
43066W        W14737   0.308  27.696   0.366
43067W        W14738  29.451  33.463  12.165
43068W        W14739  39.766  10.693   4.217
43069W        W14740  23.643  43.090   2.703
43070W        W14741  31.008  20.391  10.672
43071W        W14742  41.776  10.542  12.968
43072W        W14743   0.979  44.763  14.922
43073W        W14744  39.819  11.845   4.796
43074W        W14745  41.434  37.133   3.357
43075W        W14746  44.779   6.879   0.415
43076W        W14747  16.733   9.818   4.910
43077W        W14748  21.572  14.421   2.265
43078W        W14749  33.130  32.594   4.289
43079W        W14750  43.660  35.583  11.560
43080W        W14751   1.339  40.057  14.524
43081W        W14752  17.763  42.113   4.611
43082W        W14753   9.828  37.377  14.748
43083W        W14754   2.855  13.278  12.823
43084W        W14755   0.994  30.007   3.038
43085W        W14756  24.219   4.704  11.957
43086W        W14757   8.976  28.931  11.590
43087W        W14758  24.264  13.605  10.947
43088W        W14759  17.811  24.722  12.259
43089W        W14760  35.135   1.345   0.821
43090W        W14761  23.141   4.915  12.485
43091W        W14762  31.967  27.408   1.802
43092W        W14763   3.723  11.949   4.121
43093W        W14764  13.220  42.472  14.807
43094W        W14765  42.436   9.405   3.100
43095W        W14766  24.436   7.251  12.161
43096W        W14767  20.217   3.992  13.868
43097W        W14768  36.026   2.735   2.965
43098W        W14769   6.331  19.132   0.371
43099W        W14770  21.537  39.030  14.399
43100W        W14771  13.407   8.888  13.397
43101W        W14772  36.330  43.782   1.964
43102W        W14773  36.156  40.806  13.325
43103W        W14774   1.262   2.854   2.662
43104W        W14775   5.624  32.997  14.330
43105W        W14776  28.755  21.560  10.768
43106W        W14777  32.782  31.381   1.223
43107W        W14778  21.672  25.593   5.072
43108W        W14779  25.426  16.853   4.135
43109W        W14780  20.216   2.493   3.873
43110W        W14781  43.531   9.366   0.600
43111W        W14782  44.219   5.488   1.995
43112W        W14783  40.223  23.363   0.858
43113W        W14784  22.859  13.388  11.153
43114W        W14785  35.360  42.917   0.461
43115W        W14786  17.627  22.617  10.736
43116W        W14787  27.005  39.251   4.566
43117W        W14788   9.713  37.057   4.102
43118W        W14789  34.601  15.842  12.882
43119W        W14790  31.649   9.825  14.422
43120W        W14791  28.439   1.006   0.920
43121W        W14792  10.884  23.570   1.901
43122W        W14793   8.257  40.922  14.855
43123W        W14794   4.375  21.762  10.717
43124W        W14795  40.595  29.983   0.258
43125W        W14796  32.583   1.878   1.380
43126W        W14797  28.866   8.693  12.023
43127W        W14798  21.380   0.617  11.995
43128W        W14799  30.831  16.976   1.264
43129W        W14800  37.345  25.686  12.374
43130W        W14801  23.748  28.488   4.029
43131W        W14802  21.961  26.139  12.011
43132W        W14803  44.952  43.694   3.610
43133W        W14804   5.841  40.642   1.022
43134W        W14805  25.217   8.197  13.319
43135W        W14806  21.203   3.517  12.977
43136W        W14807  18.430   2.935  12.062
43137W        W14808  32.086  15.212  13.562
43138W        W14809   3.255  32.992   2.195
43139W        W14810  14.465  19.362   5.253
43140W        W14811   7.400  13.084   3.659
43141W        W14812   8.964  31.931  10.716
43142W        W14813   4.256  25.083  12.232
43143W        W14814  38.187   3.826   3.596
43144W        W14815  40.409  43.520  14.839
43145W        W14816  37.088   8.825  12.530
43146W        W14817   3.906  23.114   1.302
43147W        W14818  44.264  40.053   0.793
43148W        W14819  28.021  25.038  14.780
43149W        W14820  41.421  37.326  14.719
43150W        W14821   5.751  11.995  13.498
43151W        W14822  43.002   7.672  14.569
43152W        W14823  30.129  30.624   1.245
43153W        W14824  41.360  12.519  11.081
43154W        W14825   1.453  44.678  11.356
43155W        W14826  27.165  22.931   1.589
43156W        W14827   1.990  26.018  12.460
43157W        W14828  31.971  23.530   1.427
43158W        W14829  28.922   2.015   2.390
43159W        W14830  38.002  23.386  10.664
43160W        W14831  40.459  22.560   2.291
43161W        W14832  36.666  38.867  10.492
43162W        W14833  23.162  31.693  11.093
43163W        W14834  38.979   1.431   0.942
43164W        W14835  19.681  34.879  11.959
43165W        W14836  42.146  39.068  11.038
43166W        W14837  24.318  17.831   3.271
43167W        W14838  13.436  28.004   2.254
43168W        W14839  29.616  28.253   2.373
43169W        W14840   3.414  35.345   2.446
43170W        W14841  15.197   5.960  14.863
43171W        W14842   2.236  16.074   1.237
43172W        W14843  40.209  17.324  10.757
43173W        W14844  37.356  21.552   4.639
43174W        W14845   4.905  34.385  13.306
43175W        W14846   3.907  24.554   0.185
43176W        W14847  28.083  21.237   0.206
43177W        W14848  28.663  24.489   0.385
43178W        W14849  13.195  12.146   3.113
43179W        W14850  29.422   7.901  10.465
43180W        W14851   7.405  10.089   0.790
43181W        W14852  33.922  33.215   1.008
43182W        W14853   8.972  20.490   9.982
43183W        W14854  33.365  29.542   0.288
43184W        W14855  42.331  21.131  12.457
43185W        W14856   1.912  41.933  13.825
43186W        W14857  41.291  31.924   1.913
43187W        W14858  44.023   2.273  13.930
43188W        W14859   7.023  37.543  13.278
43189W        W14860  14.613  31.906   3.980
43190W        W14861  40.974  22.682   3.093
43191W        W14862  42.039  40.645   4.751
43192W        W14863  25.287  38.062   1.763
43193W        W14864  37.280   5.713  10.607
43194W        W14865  26.232  33.439  14.567
43195W        W14866  14.766  39.605   3.331
43196W        W14867   6.469   9.446  13.338
43197W        W14868  26.664  27.652   4.565
43198W        W14869  25.823  17.279  11.988
43199W        W14870   0.951  21.202  14.769
43200W        W14871  41.470  44.421  14.004
43201W        W14872  21.577   0.345   0.792
43202W        W14873  41.896  12.848  11.706
43203W        W14874  15.695  31.536   2.277
43204W        W14875  36.703  25.434   3.727
43205W        W14876   3.135  40.020   3.458
43206W        W14877  29.028  15.307   3.464
43207W        W14878  24.698   4.925  10.619
43208W        W14879  32.951  18.323   4.596
43209W        W14880  23.154  10.755   0.036
43210W        W14881  27.676  31.641  12.913
43211W        W14882  22.667   9.149   3.326
43212W        W14883  42.446  42.906  14.485
43213W        W14884  38.455  19.284   4.189
43214W        W14885  40.534   9.399  14.570
43215W        W14886  11.660  17.239  13.784
43216W        W14887  19.747  42.723   3.763
43217W        W14888   5.489   0.698   4.049
43218W        W14889   4.302  20.739   3.998
43219W        W14890   4.338  38.801  13.951
43220W        W14891  24.798   0.766   1.305
43221W        W14892  34.055  18.575  12.383
43222W        W14893  16.201   7.907  11.512
43223W        W14894  13.670   5.422  14.779
43224W        W14895  15.651  25.531  14.188
43225W        W14896  27.585  40.845  11.676
43226W        W14897  38.451   3.817   4.356
43227W        W14898  44.924  17.073   1.183
43228W        W14899  15.367   3.988   0.928
43229W        W14900  41.373   6.868   1.826
43230W        W14901  41.430  14.437   2.344
43231W        W14902  31.208   9.998   3.198
43232W        W14903  41.261  38.403   2.393
43233W        W14904  29.583  26.689  13.800
43234W        W14905   8.764  18.881   1.402
43235W        W14906  21.166  26.494   2.540
43236W        W14907   2.736   1.255   0.527
43237W        W14908  33.018  24.195   2.362
43238W        W14909  10.609  11.408  12.354
43239W        W14910   8.626   7.649  13.974
43240W        W14911   6.226  22.131   1.832
43241W        W14912  19.415   9.816   1.710
43242W        W14913  22.072  25.645  13.866
43243W        W14914   8.967   3.171  14.274
43244W        W14915  29.324  18.085  13.917
43245W        W14916   8.879  44.807  11.412
43246W        W14917  29.008   0.236   4.550
43247W        W14918  21.787  15.102   1.366
43248W        W14919  21.726  17.702  13.381
43249W        W14920  28.214  12.371   0.991
43250W        W14921  16.214  40.834   1.340
43251W        W14922  35.568  15.098   1.923
43252W        W14923  32.113  26.014  13.498
43253W        W14924   7.824   6.778   2.889
43254W        W14925  32.550  31.515   4.493
43255W        W14926  24.170   2.345  11.618
43256W        W14927  17.688  10.360   1.834
43257W        W14928  35.786  33.018   2.801
43258W        W14929  31.685  43.272   4.545
43259W        W14930  17.194  24.503   0.320
43260W        W14931   2.771   1.481  11.212
43261W        W14932  36.821  39.489   2.243
43262W        W14933  42.775   0.850   0.922
43263W        W14934  44.778  11.137   4.300
43264W        W14935  25.154  19.407   2.917
43265W        W14936  17.656   8.351  11.522
43266W        W14937  36.761  23.049   1.795
43267W        W14938  11.601  10.932   1.987
43268W        W14939   1.704   4.931  10.420
43269W        W14940  39.250  31.093   1.714
43270W        W14941  25.792  27.931  11.090
43271W        W14942  16.636  30.562  13.476
43272W        W14943  37.885  26.366  11.977
43273W        W14944  34.466  12.754  14.121
43274W        W14945  38.967  41.657   9.896
43275W        W14946  18.564   9.656   3.377
43276W        W14947  19.363  20.182   2.964
43277W        W14948  25.168   7.833  12.442
43278W        W14949   4.206  18.201  13.454
43279W        W14950  10.150   9.841   2.317
43280W        W14951   8.456   8.722  13.512
43281W        W14952  44.094   1.021  14.073
43282W        W14953  19.072  40.992   4.355
43283W        W14954  33.432  42.312  13.487
43284W        W14955  12.520  31.978  13.895
43285W        W14956  26.998  30.735   3.676
43286W        W14957  18.517  15.231   3.661
43287W        W14958  41.993  30.482   9.830
43288W        W14959  41.475  24.747   1.952
43289W        W14960  31.112   1.756  10.599
43290W        W14961  19.644  31.076  10.711
43291W        W14962  28.561  31.658   1.264
43292W        W14963  44.671   8.045  11.704
43293W        W14964  28.036   9.707   0.216
43294W        W14965  24.590  27.562  11.609
43295W        W14966  19.085  13.379  11.214
43296W        W14967  29.705  23.705  13.419
43297W        W14968  42.806  26.164   1.287
43298W        W14969  32.081  34.083  13.844
43299W        W14970  30.456  22.183   1.939
43300W        W14971  19.600  42.894   1.725
43301W        W14972  25.534  33.070   1.427
43302W        W14973  27.053   8.707  14.450
43303W        W14974  42.742   2.976  12.171
43304W        W14975   4.302   5.720  14.321
43305W        W14976  33.896  30.656   0.701
43306W        W14977   8.254   2.349   3.641
43307W        W14978  39.016  43.533   0.068
43308W        W14979  28.633   6.131  12.424
43309W        W14980  20.071  43.948   4.106
43310W        W14981  36.659  12.851   0.354
43311W        W14982  21.324  31.540   0.668
43312W        W14983   6.677  21.613   3.441
43313W        W14984  35.123  27.376  11.134
43314W        W14985  38.861  22.637  14.886
43315W        W14986  10.737   3.788   4.525
43316W        W14987  19.481  41.445  14.974
43317W        W14988  17.649  41.396  13.563
43318W        W14989  35.401   4.866  11.082
43319W        W14990  24.705   6.171  12.514
43320W        W14991  33.801  36.484  11.587
43321W        W14992  36.399  32.679   4.580
43322W        W14993  12.182  13.203  14.728
43323W        W14994  37.312  37.645  12.024
43324W        W14995  38.375  16.726   0.958
43325W        W14996  17.145  33.827   2.630
43326W        W14997  39.882  36.420  13.501
43327W        W14998  14.666   0.509  14.945
43328W        W14999  25.699  34.476   0.537
43329W        W15000  36.367  23.040  10.505
43330W        W15001  28.849   4.578  14.879
43331W        W15002  34.584  40.384  13.776
43332W        W15003   8.318   7.273   4.932
43333W        W15004  41.734  17.260   1.838
43334W        W15005   2.788  35.099   1.370
43335W        W15006  33.854  41.538   3.609
43336W        W15007  19.226  36.284   1.878
43337W        W15008  19.151  28.884   1.198
43338W        W15009  11.735   7.630  14.352
43339W        W15010  28.510  28.394   2.910
43340W        W15011  36.428  12.282   4.731
43341W        W15012  38.434  15.266   3.134
43342W        W15013  23.232  19.550  12.844
43343W        W15014   2.932  25.550  11.715
43344W        W15015  24.706   0.417   4.808
43345W        W15016  21.119  30.495  14.397
43346W        W15017  40.044  13.602   2.780
43347W        W15018  42.362  24.131   1.315
43348W        W15019   2.359   5.680   0.413
43349W        W15020   2.826  18.136   2.609
43350W        W15021  38.063   1.872   2.239
43351W        W15022   5.382  14.347  11.562
43352W        W15023  32.150  21.217   1.739
43353W        W15024  20.028  41.394  11.688
43354W        W15025  21.514   9.932  13.369
43355W        W15026  23.743  43.737  11.998
43356W        W15027  38.027  28.580   0.871
43357W        W15028  33.562  32.858   1.014
43358W        W15029   1.348   6.642  10.561
43359W        W15030   1.972  22.672   0.008
43360W        W15031  22.664  28.982  10.776
43361W        W15032  19.107  14.441   9.756
43362W        W15033  10.255  32.854  14.529
43363W        W15034  12.260  23.081  11.004
43364W        W15035  11.940  42.514   4.607
43365W        W15036  40.237  37.950   4.875
43366W        W15037  12.680   6.893  12.830
43367W        W15038  33.442  22.032  14.516
43368W        W15039  27.759  29.623   1.790
43369W        W15040  39.061  28.101  12.346
43370W        W15041  42.831   7.140   3.366
43371W        W15042  23.055  10.296  14.183
43372W        W15043   4.988  30.160  13.897
43373W        W15044  19.014  34.579   0.145
43374W        W15045   4.038   2.548  14.062
43375W        W15046  21.956  27.501  11.682
43376W        W15047  34.004  33.872   4.135
43377W        W15048   0.267  16.361  12.353
43378W        W15049  42.088   3.484   2.302
43379W        W15050  34.660  23.454   3.139
43380W        W15051  19.646  19.779  13.312
43381W        W15052  35.123  29.638   3.502
43382W        W15053   7.162  33.590   3.087
43383W        W15054   9.756  23.919   2.730
43384W        W15055  37.492  34.887  14.494
43385W        W15056  24.668  33.121  12.792
43386W        W15057  29.647  38.998  14.275
43387W        W15058  22.535   5.889  11.624
43388W        W15059   1.488   5.638  10.565
43389W        W15060  22.239   8.054   4.111
43390W        W15061  18.963  20.775  11.464
43391W        W15062   1.632  19.679  10.609
43392W        W15063   0.495  11.377  11.091
43393W        W15064  19.649  26.956   3.757
43394W        W15065   5.315   9.334  12.942
43395W        W15066   8.358  38.698  11.544
43396W        W15067  32.577  37.798   4.110
43397W        W15068  10.236  19.248   4.095
43398W        W15069  41.513  37.015   0.712
43399W        W15070  29.347  40.918   0.636
43400W        W15071  40.800   6.876  11.157
43401W        W15072  38.386  14.220   4.203
43402W        W15073  16.232  31.870   1.852
43403W        W15074   1.285  43.897  13.151
43404W        W15075  21.770  15.144   3.639
43405W        W15076  27.062  32.586   1.703
43406W        W15077   4.801   8.164  11.195
43407W        W15078  11.286  35.553   3.828
43408W        W15079   1.257  16.967   3.675
43409W        W15080  30.421  15.744  13.900
43410W        W15081  15.472  35.772  13.413
43411W        W15082  43.085  41.981   3.585
43412W        W15083  42.746  31.159  11.862
43413W        W15084  28.189   8.112  12.381
43414W        W15085  32.380  13.628   1.984
43415W        W15086  15.693  19.057   3.305
43416W        W15087  41.399  24.091   4.257
43417W        W15088  13.845   8.794  11.585
43418W        W15089  11.703  24.730  10.465
43419W        W15090   6.428  41.351   2.257
43420W        W15091  19.058  33.788  13.888
43421W        W15092  38.579   3.197  12.473
43422W        W15093  32.525  22.944   1.807
43423W        W15094  35.990  25.386  14.372
43424W        W15095  21.120  12.122   2.651
43425W        W15096  20.457  23.247   3.542
43426W        W15097  30.126   8.220  10.817
43427W        W15098  28.202   3.883  13.936
43428W        W15099   6.713   4.945   0.351
43429W        W15100  28.976   5.666   2.427
43430W        W15101  17.593   8.809   1.980
43431W        W15102  18.198  40.710  12.126
43432W        W15103  40.921  34.359   4.790
43433W        W15104  44.613  36.355   3.875
43434W        W15105  25.750  21.205   4.703
43435W        W15106   0.571  22.646  10.572
43436W        W15107  23.652  40.433   0.824
43437W        W15108  24.953  11.338  11.765
43438W        W15109  32.603   8.850  10.802
43439W        W15110  43.445  43.416  12.302
43440W        W15111  44.675  13.581  11.102
43441W        W15112  19.610  32.820  12.018
43442W        W15113  36.761  12.745  10.436
43443W        W15114  39.015   6.400   0.346
43444W        W15115  12.257  34.137  14.960
43445W        W15116  25.434   2.831   4.134
43446W        W15117  31.422  23.368   1.340
43447W        W15118  21.573  23.020   2.394
43448W        W15119  27.948   2.392   3.245
43449W        W15120   1.477  15.320  11.079
43450W        W15121  40.440  44.330  13.935
43451W        W15122  21.649  33.202  14.799
43452W        W15123  37.959  36.091   4.866
43453W        W15124  38.352  23.103  12.449
43454W        W15125   2.315   6.938   4.352
43455W        W15126   5.314   7.917   1.150
43456W        W15127  43.433  41.218  13.951
43457W        W15128  25.604  44.910  13.536
43458W        W15129  11.187  41.995  13.388
43459W        W15130  32.800  34.553   3.256
43460W        W15131  18.345  43.785  12.035
43461W        W15132  23.500   0.271  11.938
43462W        W15133  22.749  35.611  14.351
43463W        W15134  32.123   5.207  11.642
43464W        W15135  18.763  24.829   5.210
43465W        W15136  18.434  16.829  14.798
43466W        W15137  43.789  17.194  11.557
43467W        W15138  21.137  36.943  13.768
43468W        W15139  25.930  41.523   0.223
43469W        W15140  37.100  29.234  12.017
43470W        W15141  32.608  35.431   1.864
43471W        W15142  26.027  23.160   2.393
43472W        W15143   7.154  26.666  14.942
43473W        W15144  27.136  19.318  14.063
43474W        W15145   9.958  21.524   4.095
43475W        W15146  31.594  18.911  13.887
43476W        W15147  35.607  38.613   2.733
43477W        W15148  28.386   5.341   0.722
43478W        W15149  12.534  31.764   1.334
43479W        W15150  27.052  23.168   3.231
43480W        W15151  41.710  38.518  14.507
43481W        W15152   3.938  31.036  11.893
43482W        W15153  15.297   0.269   0.245
43483W        W15154  44.968   1.013   0.296
43484W        W15155  34.343  41.383   3.678
43485W        W15156  20.225  13.365  14.063
43486W        W15157  28.391  15.662   1.808
43487W        W15158   7.463  20.206  10.769
43488W        W15159  38.365  21.520   2.513
43489W        W15160  13.233  30.544   3.759
43490W        W15161  32.132  27.588  10.701
43491W        W15162  30.315  25.071   2.670
43492W        W15163  18.266   0.889   4.278
43493W        W15164  35.095  25.045  11.518
43494W        W15165  23.741   0.989  11.098
43495W        W15166  27.883  16.482  10.778
43496W        W15167  12.627  13.322   3.701
43497W        W15168   8.247   6.265   3.585
43498W        W15169  30.592   7.826   4.375
43499W        W15170  38.095   9.815   1.878
43500W        W15171  43.387   6.402  13.009
43501W        W15172  44.759  14.149   5.016
43502W        W15173  37.562  21.480   2.813
43503W        W15174  28.438  32.072   3.502
43504W        W15175  25.940  38.334  12.492
43505W        W15176   0.297   6.363   1.401
43506W        W15177  31.611  25.348   3.716
43507W        W15178  26.689  42.457   2.125
43508W        W15179  23.932  30.558  12.774
43509W        W15180  36.024   7.264   0.937
43510W        W15181  39.384  34.099   2.118
43511W        W15182  32.018  19.576  11.989
43512W        W15183  15.268  28.669   0.072
43513W        W15184  36.357  18.800   0.282
43514W        W15185   7.346  10.917   0.409
43515W        W15186  20.799  14.790  14.932
43516W        W15187  42.295  10.777   1.638
43517W        W15188  25.932  40.970   1.136
43518W        W15189  26.702   5.693  12.453
43519W        W15190  18.890   3.189  13.738
43520W        W15191   1.585  36.880   3.279
43521W        W15192  27.029  29.422  12.875
43522W        W15193  11.886   8.882  14.919
43523W        W15194  34.149  22.487  13.882
43524W        W15195  10.165  15.422   4.206
43525W        W15196  27.324  39.405   2.307
43526W        W15197  29.623  44.985   1.263
43527W        W15198  42.727   4.356   4.179
43528W        W15199  12.811  40.938   4.157
43529W        W15200  30.619  26.159   2.274
43530W        W15201  22.152  22.163  14.390
43531W        W15202  43.727  12.584   1.851
43532W        W15203  37.365  40.285  10.187
43533W        W15204   7.911  35.617   3.644
43534W        W15205  32.591   7.049   4.641
43535W        W15206  28.897  22.988   3.174
43536W        W15207  43.287  13.525  11.077
43537W        W15208  33.918  36.593  14.877
43538W        W15209   1.211  39.695  11.251
43539W        W15210  38.496  12.829   4.405
43540W        W15211  31.134  25.063  10.642
43541W        W15212  28.838  21.984  13.040
43542W        W15213   7.715  31.279   3.556
43543W        W15214  14.266  39.746   4.051
43544W        W15215  32.762  18.750  13.351
43545W        W15216  14.749  15.104   0.541
43546W        W15217   2.305  44.585   0.427
43547W        W15218   9.838  15.734  13.357
43548W        W15219  42.969  36.647   0.690
43549W        W15220  23.426  33.835   0.796
43550W        W15221  29.202   6.331  12.856
43551W        W15222   3.358  27.484   3.241
43552W        W15223  37.354  19.495   2.709
43553W        W15224   2.204  25.503  10.574
43554W        W15225  41.844   6.626  10.453
43555W        W15226  42.052  41.787  10.752
43556W        W15227  16.704   8.184   4.262
43557W        W15228  28.628  16.058   3.911
43558W        W15229   7.194  12.243  10.496
43559W        W15230  33.789   1.658   2.657
43560W        W15231  43.917  40.224  10.654
43561W        W15232   1.100  28.153   4.550
43562W        W15233   0.692  15.689   4.980
43563W        W15234  35.659   1.930  12.416
43564W        W15235   2.508  36.992  12.183
43565W        W15236  25.004  32.253   0.260
43566W        W15237  26.123   7.333  12.455
43567W        W15238  27.673  29.007  11.076
43568W        W15239  24.912  38.834  11.149
43569W        W15240  10.792  14.055   3.306
43570W        W15241  16.267  40.387   4.595
43571W        W15242  20.150  27.991  11.231
43572W        W15243   7.973  29.634  14.431
43573W        W15244  41.799  20.068   4.675
43574W        W15245  39.041  37.439   3.201
43575W        W15246   1.563  20.828  13.680
43576W        W15247  27.781  39.970  12.741
43577W        W15248  33.720  27.691   2.674
43578W        W15249  22.980  10.101   3.748
43579W        W15250  10.599  21.751  11.513
43580W        W15251  13.441  26.146   1.266
43581W        W15252  10.044   2.315  10.600
43582W        W15253  44.465  31.154   0.017
43583W        W15254   2.972  25.511   1.786
43584W        W15255  40.972  13.788   4.083
43585W        W15256  34.688  22.124   2.911
43586W        W15257  16.775   3.437   4.098
43587W        W15258  23.024   3.177   0.338
43588W        W15259  16.477  17.091   3.633
43589W        W15260   3.964  31.796   3.077
43590W        W15261  17.799   6.783   1.107
43591W        W15262  28.203  17.644  10.543
43592W        W15263  22.749  35.942   2.666
43593W        W15264  17.414  23.450   3.203
43594W        W15265  19.724  27.677  11.293
43595W        W15266  21.793  41.022  13.915
43596W        W15267   9.732  40.346  11.893
43597W        W15268  40.351   8.935  10.529
43598W        W15269  42.617  40.576   2.747
43599W        W15270  34.397   7.697  12.657
43600W        W15271   5.748  38.431   3.206
43601W        W15272  31.303  25.720  13.526
43602W        W15273  40.602  44.296   4.127
43603W        W15274   2.203   8.199  12.080
43604W        W15275  16.735  12.646   3.192
43605W        W15276  23.408  25.275  11.097
43606W        W15277  22.003  11.366  14.767
43607W        W15278   2.712  41.211  13.333
43608W        W15279  33.575  43.812   4.953
43609W        W15280  35.588  27.664   4.234
43610W        W15281   6.310   5.161   1.694
43611W        W15282  26.723   0.885  13.459
43612W        W15283  22.111   3.140  14.395
43613W        W15284  39.517   8.691  10.889
43614W        W15285   3.537  22.746  11.901
43615W        W15286  28.507   2.894  11.704
43616W        W15287  11.228  19.028   1.682
43617W        W15288   0.286  32.640   0.895
43618W        W15289  44.678  26.506   0.325
43619W        W15290  33.844   5.425  13.442
43620W        W15291  10.372  33.141   1.372
43621W        W15292  15.861   7.889   4.148
43622W        W15293  34.175  16.229   3.680
43623W        W15294  27.281  30.407  10.667
43624W        W15295   4.036   9.991  11.107
43625W        W15296  34.207  30.885   3.293
43626W        W15297  12.606   7.694   4.280
43627W        W15298  23.405   2.370   0.931
43628W        W15299  25.943  13.680   4.986
43629W        W15300   4.267  27.116  14.126
43630W        W15301   8.098  33.085  12.904
43631W        W15302  17.115   8.066   4.565
43632W        W15303  10.753  36.659   3.570
43633W        W15304  26.015  38.044  11.637
43634W        W15305  28.300  13.079   3.722
43635W        W15306  37.507   9.321   3.393
43636W        W15307  29.207  17.558  11.661
43637W        W15308  27.223   0.465  13.947
43638W        W15309  21.003  44.449   4.080
43639W        W15310  22.966  29.448   2.718
43640W        W15311  40.273  19.984  14.323
43641W        W15312   7.425  34.693   4.379
43642W        W15313  28.540  27.155  11.603
43643W        W15314  13.564  14.183   2.846
43644W        W15315  44.450  16.151  13.310
43645W        W15316  28.036  10.915   2.117
43646W        W15317  20.623   5.161  14.442
43647W        W15318  38.801  25.538   1.250
43648W        W15319  31.916  28.136   2.102
43649W        W15320  23.116   0.753  10.693
43650W        W15321  27.453   7.825  12.908
43651W        W15322  19.629  31.492   2.865
43652W        W15323  37.299  42.820  14.510
43653W        W15324  10.142   1.294  14.871
43654W        W15325  11.424  31.114  11.207
43655W        W15326  24.527  16.563  13.407
43656W        W15327  11.585  22.150  11.893
43657W        W15328  32.234  33.428   4.229
43658W        W15329  28.188  19.973   3.500
43659W        W15330  43.069  17.534  12.073
43660W        W15331  35.326  31.987   3.612
43661W        W15332   2.011  11.806  12.641
43662W        W15333  13.296  15.145  14.444
43663W        W15334   9.178   4.111  13.834
43664W        W15335   3.158  30.150   4.073
43665W        W15336  19.822  24.436  12.367
43666W        W15337  27.642  29.586   2.473
43667W        W15338  30.053   9.225   0.497
43668W        W15339  34.918  32.132   3.280
43669W        W15340  11.814  16.644  13.889
43670W        W15341  39.099   2.151  10.797
43671W        W15342  17.167   3.339  14.803
43672W        W15343  37.594  36.786   1.782
43673W        W15344  34.536  25.099  13.457
43674W        W15345   1.357   8.761  13.216
43675W        W15346  32.897  21.674  12.424
43676W        W15347   1.887  43.367  12.107
43677W        W15348  41.436  44.356  11.877
43678W        W15349   3.136  21.996   1.687
43679W        W15350  16.500   6.045   0.802
43680W        W15351  15.905   6.280   4.123
43681W        W15352  11.652   2.772   0.270
43682W        W15353  25.219  29.020   3.760
43683W        W15354  17.335   5.845  12.679
43684W        W15355  16.476  38.109   1.257
43685W        W15356  37.930  12.344  10.755
43686W        W15357  27.035   1.687   2.390
43687W        W15358   4.650  25.083  13.611
43688W        W15359  34.988  32.837   1.682
43689W        W15360   2.558   8.998  14.353
43690W        W15361  12.727   7.379  14.501
43691W        W15362  16.267   0.782   4.351
43692W        W15363   4.571  36.271   1.566
43693W        W15364   9.559   9.897  14.325
43694W        W15365  37.420  27.415   3.557
43695W        W15366  29.170  35.522   3.664
43696W        W15367  41.890  30.109   2.831
43697W        W15368  30.540  15.638  11.040
43698W        W15369  19.975  33.026   3.596
43699W        W15370  39.965  21.050  10.777
43700W        W15371  29.592   6.485  14.332
43701W        W15372  41.088  37.286  11.546
43702W        W15373  41.396  20.223   4.387
43703W        W15374   3.125  21.281   3.173
43704W        W15375   4.473  44.944   3.329
43705W        W15376  35.359  29.242  14.341
43706W        W15377  27.627  29.219  12.593
43707W        W15378  36.199   1.853   0.427
43708W        W15379  24.901  23.576   0.041
43709W        W15380   9.153  14.158  11.143
43710W        W15381  23.207  26.959   4.139
43711W        W15382  29.562  26.032   0.035
43712W        W15383  41.749  29.368   0.219
43713W        W15384  21.077   1.838   2.903
43714W        W15385   1.228  42.161   2.117
43715W        W15386  39.410  39.119  10.316
43716W        W15387   8.718   7.649   2.812
43717W        W15388  28.295  23.238  11.997
43718W        W15389  36.231  35.116   1.644
43719W        W15390  31.519  25.517  13.942
43720W        W15391   5.090  20.104  10.709
43721W        W15392  14.680  14.665   4.671
43722W        W15393  10.874  31.676   2.396
43723W        W15394  20.196  21.344   4.261
43724W        W15395  12.858  28.708  12.929
43725W        W15396   8.598  20.481   2.069
43726W        W15397  31.990  18.102  11.015
43727W        W15398  44.392  22.980  14.748
43728W        W15399  10.892  37.839  12.925
43729W        W15400   7.071  24.979  10.792
43730W        W15401  21.714  38.923  14.896
43731W        W15402  26.296  21.889  14.976
43732W        W15403  27.655  10.347  14.529
43733W        W15404  20.995  39.460   3.736
43734W        W15405  23.408  26.633  13.077
43735W        W15406  36.226   8.564  10.739
43736W        W15407   3.338   4.331   3.333
43737W        W15408  24.968   3.250  12.514
43738W        W15409  11.416  31.368  14.530
43739W        W15410  37.475   3.299  12.578
43740W        W15411   9.107  39.106  10.110
43741W        W15412  14.106   3.358  13.171
43742W        W15413  32.252  17.507   2.179
43743W        W15414  40.247  30.000   3.772
43744W        W15415  30.365  39.544   2.571
43745W        W15416  10.829  40.103   2.640
43746W        W15417  44.977  15.131   4.133
43747W        W15418  19.509  34.341  14.376
43748W        W15419  21.325  37.266   2.769
43749W        W15420   8.083  43.940  11.306
43750W        W15421  44.200  44.732  12.391
43751W        W15422  24.978   3.770  14.933
43752W        W15423  34.835  35.980   3.680
43753W        W15424  27.695   3.024  14.255
43754W        W15425  25.675  32.010   1.339
43755W        W15426   6.208   3.038   2.202
43756W        W15427  26.912  16.026  13.651
43757W        W15428  14.811  44.213   1.189
43758W        W15429  27.194   7.278   3.556
43759W        W15430  14.161  33.500   3.407
43760W        W15431   2.111  22.964   9.531
43761W        W15432  32.390   4.600  13.833
43762W        W15433  18.669  36.722  14.951
43763W        W15434  23.124  20.177   0.777
43764W        W15435  18.389  21.034   1.394
43765W        W15436  21.648  39.448  14.798
43766W        W15437  32.515  23.420  10.745
43767W        W15438  42.409   6.172   1.901
43768W        W15439  10.558  31.900   4.999
43769W        W15440  28.029   5.746   1.434
43770W        W15441  19.031   2.057   2.283
43771W        W15442  11.387  11.210   4.922
43772W        W15443  41.993  43.352  11.958
43773W        W15444  43.567  33.395  10.796
43774W        W15445   3.189  27.645   4.149
43775W        W15446  21.397   1.099  11.755
43776W        W15447   2.827   1.482  11.718
43777W        W15448   1.695   8.187   3.654
43778W        W15449  39.575   9.437  13.482
43779W        W15450  19.489  18.734   0.836
43780W        W15451   6.261  16.582   4.417
43781W        W15452   3.391  34.452  14.764
43782W        W15453   5.148   7.927   4.794
43783W        W15454   7.332  44.712   0.275
43784W        W15455  19.465   5.202   1.726
43785W        W15456  15.078  14.702  12.368
43786W        W15457  27.453  33.626   4.082
43787W        W15458  10.151  44.359  14.323
43788W        W15459  18.579   6.785   3.631
43789W        W15460  27.251  30.518  13.805
43790W        W15461  42.347   9.823   3.362
43791W        W15462   0.807   9.969   4.505
43792W        W15463  22.042   2.394  12.575
43793W        W15464  35.412   9.682   4.656
43794W        W15465  31.940  40.557   4.991
43795W        W15466  25.181  20.794   0.512
43796W        W15467  39.797   5.729  13.527
43797W        W15468   0.847  44.507   4.066
43798W        W15469  33.530   7.728   1.596
43799W        W15470  31.430  40.324   0.017
43800W        W15471  32.683   1.970  14.412
43801W        W15472   1.214  41.132   2.275
43802W        W15473  13.376  18.608   5.269
43803W        W15474  20.343  27.392   2.189
43804W        W15475   3.932   5.935   2.353
43805W        W15476  44.127  44.047   2.886
43806W        W15477   6.140  32.982  14.330
43807W        W15478  21.566  12.880   2.694
43808W        W15479  39.098   3.821  11.582
43809W        W15480  24.145  24.765  12.994
43810W        W15481  32.751   9.428   0.248
43811W        W15482  40.109  33.581  13.308
43812W        W15483  21.598   8.192   3.668
43813W        W15484   9.800  44.342   0.212
43814W        W15485  39.082  27.728  14.955
43815W        W15486  25.953   8.745   4.739
43816W        W15487  40.230  28.266   9.855
43817W        W15488  15.637  29.443   0.924
43818W        W15489  12.341  40.850   4.461
43819W        W15490  30.383  40.811   3.158
43820W        W15491   0.499  30.949   3.797
43821W        W15492  24.209  41.592   2.279
43822W        W15493  37.895  24.866  14.780
43823W        W15494  17.476  12.639  14.547
43824W        W15495  41.045  12.144   1.332
43825W        W15496  20.474  33.156  13.920
43826W        W15497  12.551  22.145  10.720
43827W        W15498   1.864  32.142   0.548
43828W        W15499   0.667   8.174   3.721
43829W        W15500  35.832  17.585   0.736
43830W        W15501   4.156  27.637   2.568
43831W        W15502  12.480   0.339   4.042
43832W        W15503  31.986  35.496  10.417
43833W        W15504  37.431  24.646   4.426
43834W        W15505  37.847   8.878   1.411
43835W        W15506  13.574  29.417  14.978
43836W        W15507   4.265  36.313  14.318
43837W        W15508   9.768  35.146  13.060
43838W        W15509  29.861  33.064   4.116
43839W        W15510  43.759  42.460  11.339
43840W        W15511  41.347  14.541  13.115
43841W        W15512  40.215  43.773  13.991
43842W        W15513  13.149   5.956   3.170
43843W        W15514  20.657  11.316  12.920
43844W        W15515  30.028  33.916   2.755
43845W        W15516  25.481  34.749   1.737
43846W        W15517   9.159  11.281  13.947
43847W        W15518  17.797  11.655   1.347
43848W        W15519  19.310   2.440   0.071
43849W        W15520  39.887  44.738   4.639
43850W        W15521  14.618   5.798  12.951
43851W        W15522  25.600  39.612   1.291
43852W        W15523  23.598  17.744  13.910
43853W        W15524   1.689  17.207   1.459
43854W        W15525   4.568  30.822  11.482
43855W        W15526  12.210  35.942   4.587
43856W        W15527  10.157  27.423   0.967
43857W        W15528   3.997  34.912   2.713
43858W        W15529   8.618  18.813  12.284
43859W        W15530  13.558   5.451  10.048
43860W        W15531  43.381  40.756   3.256
43861W        W15532  32.486  35.677  12.407
43862W        W15533  36.828  17.226   4.862
43863W        W15534   0.417  25.937  13.299
43864W        W15535  27.020   9.197  14.609
43865W        W15536   8.228  38.339  14.059
43866W        W15537  36.914  13.413  14.335
43867W        W15538  44.274   1.212   4.298
43868W        W15539  12.427   4.433   0.861
43869W        W15540  11.814  25.727  13.007
43870W        W15541   9.804  19.216  12.230
43871W        W15542  18.549   4.951   2.394
43872W        W15543  15.098  12.627   3.324
43873W        W15544  28.528  23.200   3.485
43874W        W15545  13.148  23.000  12.376
43875W        W15546  19.353   6.802   1.928
43876W        W15547  12.779  32.591   4.029
43877W        W15548  40.924  13.258   0.323
43878W        W15549   4.469  18.880  13.321
43879W        W15550   9.651  35.945   0.363
43880W        W15551  16.244  44.250   0.942
43881W        W15552   5.056  27.447   3.774
43882W        W15553  40.135  22.960  10.711
43883W        W15554  26.265   1.997   2.806
43884W        W15555  43.524  38.568  10.280
43885W        W15556   8.925  16.493   3.672
43886W        W15557  13.760  37.327   2.496
43887W        W15558  26.207  43.542  14.807
43888W        W15559  25.032  16.974  12.617
43889W        W15560  39.185  26.435   5.202
43890W        W15561  14.622  31.141  12.372
43891W        W15562  26.132  41.316   4.828
43892W        W15563   5.991  31.434   1.303
43893W        W15564  12.211  21.277   2.136
43894W        W15565   3.516  27.890   4.918
43895W        W15566  38.992  40.294  11.799
43896W        W15567   1.925  35.060   2.255
43897W        W15568   1.890  17.724   0.023
43898W        W15569   9.152  23.795   0.760
43899W        W15570  12.125  32.408  10.542
43900W        W15571  21.506  22.895  11.215
43901W        W15572  24.716  25.437  12.196
43902W        W15573  33.020  13.655   4.899
43903W        W15574  13.678  37.199  14.188
43904W        W15575  12.065  31.987   2.738
43905W        W15576  44.371  41.548  10.153
43906W        W15577  24.049  15.376   0.458
43907W        W15578  37.095  16.749   4.719
43908W        W15579  17.821  38.287  14.535
43909W        W15580  34.426  21.790  13.029
43910W        W15581  13.802  22.034  12.870
43911W        W15582   2.163  36.569  14.747
43912W        W15583  26.542  42.345   0.259
43913W        W15584  22.625  38.453  13.093
43914W        W15585  32.031  39.577   0.365
43915W        W15586  28.486  21.685   1.372
43916W        W15587  37.328  32.199   3.082
43917W        W15588   5.477  16.601   1.554
43918W        W15589  28.447   1.538  10.608
43919W        W15590  28.900  27.051  11.240
43920W        W15591  20.977   0.207  14.473
43921W        W15592  27.902  40.783  12.523
43922W        W15593   8.143   5.454   2.451
43923W        W15594  25.834  16.625   3.898
43924W        W15595  43.010  26.982   0.705
43925W        W15596  39.852   6.732   3.216
43926W        W15597   7.661   5.651  13.436
43927W        W15598  16.899  37.122  11.497
43928W        W15599  21.089  32.164   3.868
43929W        W15600  29.116  29.726  14.543
43930W        W15601  22.560  22.138  13.503
43931W        W15602  35.869   5.134   1.950
43932W        W15603  42.293   1.260   3.635
43933W        W15604  23.564   4.964  13.418
43934W        W15605  40.513  26.395  11.497
43935W        W15606  25.191  33.132  10.670
43936W        W15607  17.846  24.278   2.355
43937W        W15608   1.450  15.080   3.673
43938W        W15609  44.871  16.226   2.574
43939W        W15610   1.311   5.888   4.673
43940W        W15611  13.292   2.452  12.478
43941W        W15612  29.668   0.664  13.408
43942W        W15613  18.288  32.522  14.863
43943W        W15614  20.685   3.414   4.511
43944W        W15615  31.155  28.798   3.113
43945W        W15616  15.795  21.742  10.651
43946W        W15617  37.046  34.975  10.598
43947W        W15618  30.870  28.453  13.223
43948W        W15619  35.416  13.805  13.001
43949W        W15620  26.203   5.781   2.196
43950W        W15621   5.768  31.084  14.256
43951W        W15622  22.551  34.025  12.862
43952W        W15623  13.641   3.774   2.385
43953W        W15624  15.842  12.209   1.714
43954W        W15625  17.560  23.728  12.903
43955W        W15626  29.508  37.028   1.294
43956W        W15627  37.132   3.900  14.148
43957W        W15628   8.456  37.259   4.470
43958W        W15629  44.945  27.608  10.727
43959W        W15630  34.958   1.992  13.131
43960W        W15631  10.263  35.476  13.467
43961W        W15632  20.999   9.734  12.473
43962W        W15633   9.248  28.228   0.498
43963W        W15634  43.224  39.980  12.007
43964W        W15635  31.848  36.370  12.896
43965W        W15636   8.089  11.085   4.142
43966W        W15637  21.748  13.069   2.114
43967W        W15638  42.241  23.622   4.566
43968W        W15639  43.681  41.430   3.136
43969W        W15640  28.439  33.097   3.244
43970W        W15641  33.065  44.049  12.773
43971W        W15642  24.142  15.347   3.811
43972W        W15643  23.300  22.649  13.904
43973W        W15644   1.416  18.376   1.010
43974W        W15645  36.868  14.270  10.845
43975W        W15646  26.301  37.929   2.147
43976W        W15647   3.270   3.366  13.743
43977W        W15648  36.615  11.379   2.927
43978W        W15649  28.067  30.820   2.347
43979W        W15650   1.238  42.309  10.639
43980W        W15651  43.828   9.726  12.861
43981W        W15652  38.561   3.795   1.458
43982W        W15653  25.006   4.250  14.734
43983W        W15654  24.366  18.152   2.792
43984W        W15655  16.745  37.019  13.924
43985W        W15656  24.429  42.851   4.194
43986W        W15657  25.957  34.053  14.769
43987W        W15658  43.719  31.258  14.849
43988W        W15659   2.362  35.513  12.648
43989W        W15660  16.690  28.497   0.008
43990W        W15661  24.404  15.044  11.143
43991W        W15662  22.423  14.642   2.748
43992W        W15663  39.231  14.218  13.579
43993W        W15664  33.291  26.595   4.259
43994W        W15665  11.870  40.541  13.470
43995W        W15666  29.039  39.661   1.206
43996W        W15667  23.615   6.005   4.976
43997W        W15668   7.908  23.362  14.262
43998W        W15669  39.752  15.218  12.071
43999W        W15670  33.073  32.553   3.783
44000W        W15671   7.824   4.537  13.992
44001W        W15672   4.945  36.377  11.021
44002W        W15673  18.786  35.422   2.818
44003W        W15674   1.075  10.905  11.596
44004W        W15675  42.043  39.557  11.927
44005W        W15676  38.744  11.536   1.097
44006W        W15677  13.765  39.252  11.422
44007W        W15678  20.268  31.642  14.038
44008W        W15679  34.376  30.915   1.915
44009W        W15680  27.206   0.885  11.854
44010W        W15681  18.887   6.093   3.093
44011W        W15682  38.056   6.993   3.594
44012W        W15683  25.200  14.112  10.664
44013W        W15684  33.044   8.904   3.619
44014W        W15685   4.113  35.442  12.908
44015W        W15686  33.908  39.307  11.895
44016W        W15687   7.700  14.699  13.927
44017W        W15688   2.977  22.493   1.878
44018W        W15689  39.818  42.578  13.179
44019W        W15690  11.315  22.119   3.845
44020W        W15691  35.001  13.157  12.804
44021W        W15692  24.548   9.067   3.236
44022W        W15693   3.712  22.488  12.583
44023W        W15694  44.915  37.898  12.941
44024W        W15695   0.751  43.201   1.269
44025W        W15696  36.009  10.233  14.979
44026W        W15697  17.850  13.778  11.590
44027W        W15698  25.666  27.047  13.083
44028W        W15699   2.960  40.334  12.287
44029W        W15700  20.579  41.540   2.806
44030W        W15701   8.406  20.658  14.999
44031W        W15702  34.952   2.158   2.130
44032W        W15703  42.191  22.742  13.756
44033W        W15704  36.511  12.624  11.244
44034W        W15705   1.301  11.891   4.574
44035W        W15706  35.718  20.499  14.066
44036W        W15707  28.045  36.455   0.855
44037W        W15708  23.497   3.936   3.221
44038W        W15709  27.251  30.825   0.828
44039W        W15710  44.966  13.621   5.240
44040W        W15711  21.560  38.562  13.538
44041W        W15712   7.916  42.513  11.164
44042W        W15713  24.076   3.767  13.600
44043W        W15714  44.208  39.402   4.782
44044W        W15715   1.393  44.737  13.436
44045W        W15716  19.732  32.006  12.614
44046W        W15717  39.758  30.663  11.047
44047W        W15718   4.014  22.557  14.886
44048W        W15719   2.962   2.005   2.293
44049W        W15720  16.373  24.121  14.375
44050W        W15721   4.114  38.570  10.933
44051W        W15722   8.908   5.180  12.122
44052W        W15723  25.931  22.524  12.100
44053W        W15724  33.833   4.399  11.548
44054W        W15725  24.722  39.323  11.069
44055W        W15726  43.903  10.183  10.149
44056W        W15727  25.737  23.043   1.200
44057W        W15728  27.884   3.172   2.031
44058W        W15729  28.100  22.869  12.402
44059W        W15730  28.389  38.909   1.753
44060W        W15731  42.850   9.710   3.153
44061W        W15732  29.767  40.265  14.412
44062W        W15733  43.962  39.918  13.873
44063W        W15734   0.388  37.820  11.798
44064W        W15735  44.919  21.127   4.646
44065W        W15736  23.246  28.319   4.115
44066W        W15737  40.754  23.304   0.787
44067W        W15738  35.116   5.160   0.922
44068W        W15739  31.402  23.030  13.122
44069W        W15740  40.065  19.318   2.285
44070W        W15741  21.724  38.455   4.925
44071W        W15742  33.312  30.078  12.185
44072W        W15743   7.350  14.140   1.347
44073W        W15744  29.893  19.833   0.955
44074W        W15745  21.040   4.072   0.951
44075W        W15746  38.773  31.236  14.921
44076W        W15747  30.679  33.468  12.829
44077W        W15748  26.189   0.955  13.336
44078W        W15749   7.373  41.246  12.844
44079W        W15750  14.680  34.023   3.250
44080W        W15751  15.325  32.407  10.704
44081W        W15752   6.602  33.054  12.062
44082W        W15753  17.308   2.353  14.515
44083W        W15754  28.137  43.166  14.032
44084W        W15755  18.120  38.352  11.376
44085W        W15756  16.133   2.065  14.488
44086W        W15757   8.209  15.118   4.621
44087W        W15758  16.311  18.386  12.597
44088W        W15759   0.125   2.420  11.696
44089W        W15760   9.333  33.697   3.820
44090W        W15761  12.264  29.842   4.349
44091W        W15762   8.363  40.511   3.827
44092W        W15763  40.632   3.277   0.320
44093W        W15764  22.706  21.684   2.677
44094W        W15765  35.978  29.124   3.546
44095W        W15766  23.634  10.348   2.001
44096W        W15767  22.758  16.967   4.241
44097W        W15768  12.738  38.675   4.207
44098W        W15769  22.685  44.414  10.566
44099W        W15770   5.694  34.612  12.679
44100W        W15771  10.401   7.087   4.730
44101W        W15772  12.146   0.589  14.948
44102W        W15773  34.158  24.903   4.555
44103W        W15774  19.646  20.571   0.978
44104W        W15775  18.767  14.820   0.843
44105W        W15776  21.818  13.852  10.675
44106W        W15777  29.226  20.128  12.373
44107W        W15778   8.329  26.585   1.168
44108W        W15779  41.585   4.945   4.161
44109W        W15780  29.497  40.272   3.353
44110W        W15781  31.041  21.028  13.360
44111W        W15782  14.831  33.943  14.294
44112W        W15783  22.949  10.220   0.181
44113W        W15784  35.635  33.999  14.380
44114W        W15785  18.247  44.834  11.036
44115W        W15786  38.799  36.036   3.395
44116W        W15787  33.814  24.675  13.948
44117W        W15788   4.143  12.210  12.976
44118W        W15789  20.151  10.193   4.599
44119W        W15790  29.051  19.048  10.700
44120W        W15791   5.458   0.839  14.773
44121W        W15792  23.258   8.627   0.751
44122W        W15793  16.878  15.165  13.422
44123W        W15794  19.999  29.189  12.418
44124W        W15795  19.849  38.692   2.324
44125W        W15796  10.311   2.900  13.579
44126W        W15797  17.567  19.889  13.201
44127W        W15798  27.941   7.295  14.011
44128W        W15799   5.742  20.422  12.414
44129W        W15800  11.135  15.695  10.704
44130W        W15801   9.151  13.342   3.148
44131W        W15802   4.578  16.711   0.971
44132W        W15803  35.966  27.558   2.244
44133W        W15804  28.146   4.649  10.145
44134W        W15805  15.059   7.169   3.287
44135W        W15806   9.576  30.575   5.311
44136W        W15807  28.709   2.915   2.698
44137W        W15808  11.050  13.243   0.391
44138W        W15809  29.732  21.176   4.626
44139W        W15810   8.921  22.098  12.255
44140W        W15811   7.547  29.792   0.418
44141W        W15812  44.385  19.821  10.635
44142W        W15813   9.403   6.658   0.977
44143W        W15814  38.681   4.354   4.264
44144W        W15815  34.105  26.097   1.980
44145W        W15816   9.595  11.135   0.804
44146W        W15817  30.156  29.622   0.935
44147W        W15818  14.296   2.832   4.580
44148W        W15819   6.403   1.752   0.925
44149W        W15820   7.742  39.922  13.036
44150W        W15821  19.803  11.847   5.060
44151W        W15822  39.992  24.212   2.425
44152W        W15823  38.380  28.180  14.806
44153W        W15824  39.281  19.244  10.591
44154W        W15825  12.647   3.673  11.449
44155W        W15826  13.135  18.339   1.540
44156W        W15827  17.175   9.105  14.004
44157W        W15828   5.967  42.286  13.012
44158W        W15829   1.182  22.064  14.016
44159W        W15830  42.768  37.469   2.348
44160W        W15831  20.637  43.362  12.844
44161W        W15832  17.565  35.064  13.976
44162W        W15833  21.423   9.197   4.552
44163W        W15834  15.680  15.296  11.112
44164W        W15835  21.052  28.586  12.541
44165W        W15836   0.540  32.429  11.164
44166W        W15837  42.514  38.801   4.598
44167W        W15838  15.578  13.708   4.706
44168W        W15839  41.226  42.362  14.368
44169W        W15840   2.363  23.417   2.689
44170W        W15841  15.456   0.384  14.232
44171W        W15842  17.337  20.432  10.991
44172W        W15843  21.229  10.346   0.997
44173W        W15844  15.430  28.094   2.346
44174W        W15845   3.451  37.113   3.264
44175W        W15846   9.924  20.993  14.324
44176W        W15847  36.752  22.376  14.446
44177W        W15848  18.108  32.666  13.896
44178W        W15849  34.132  22.663  12.446
44179W        W15850  42.980  42.739   2.454
44180W        W15851  43.458   1.990  13.809
44181W        W15852  18.711  44.046   2.316
44182W        W15853  28.747  39.882  13.043
44183W        W15854  27.732  18.109   0.418
44184W        W15855  35.566  34.264   4.091
44185W        W15856  33.964  44.317   1.368
44186W        W15857  22.234  30.221   4.138
44187W        W15858  10.890  12.769  12.511
44188W        W15859  37.006  14.593   4.806
44189W        W15860  25.675  22.791   1.646
44190W        W15861  11.579  42.078   3.195
44191W        W15862   7.682  40.995  13.651
44192W        W15863  18.632   0.751  12.978
44193W        W15864  22.542  35.020  12.404
44194W        W15865   7.380  32.878  12.264
44195W        W15866  10.056  28.745   0.781
44196W        W15867  24.510  38.973  14.742
44197W        W15868   0.069  24.110  13.335
44198W        W15869   9.314  21.970  11.063
44199W        W15870   5.709  44.354  14.899
44200W        W15871   3.985  18.333  10.735
44201W        W15872  36.610   3.472  11.672
44202W        W15873  44.317  27.455  10.704
44203W        W15874  37.391  32.245  10.564
44204W        W15875  29.144  31.465   0.860
44205W        W15876   3.942  42.710  13.905
44206W        W15877  36.005  37.606   5.010
44207W        W15878  29.618   0.408   3.272
44208W        W15879  14.884  27.415  12.080
44209W        W15880  43.524  39.458   1.282
44210W        W15881  40.461  23.159   5.103
44211W        W15882   9.872  38.984  14.241
44212W        W15883  27.411  24.983   0.338
44213W        W15884  18.875  42.399   0.709
44214W        W15885   5.655  24.530   3.168
44215W        W15886  30.099  24.494   3.691
44216W        W15887  23.279  12.351   0.824
44217W        W15888   9.821  10.319  14.520
44218W        W15889  40.200  32.492  10.442
44219W        W15890  24.247   0.465  10.654
44220W        W15891  21.506  16.145   4.052
44221W        W15892   5.767  14.187   2.911
44222W        W15893  36.945  42.171  12.559
44223W        W15894   2.388  20.687  13.843
44224W        W15895  27.561  27.498  14.538
44225W        W15896  43.800  11.079   9.704
44226W        W15897  25.530  24.895  12.646
44227W        W15898   9.883   2.402   4.518
44228W        W15899  36.136  20.763   2.253
44229W        W15900  12.201  11.740  10.547
44230W        W15901  37.351  15.682   2.916
44231W        W15902  28.440  14.303   0.564
44232W        W15903  44.759  18.474   3.881
44233W        W15904   1.690   5.219  12.415
44234W        W15905  39.835  29.948   2.299
44235W        W15906  40.931  19.833  12.839
44236W        W15907  20.533  18.665   1.654
44237W        W15908  32.598   1.856   1.907
44238W        W15909   2.348  27.163  10.983
44239W        W15910  19.568  24.039  12.557
44240W        W15911   7.417  25.233  11.528
44241W        W15912  43.997  44.242  13.410
44242W        W15913   2.344   0.471   2.279
44243W        W15914  17.618  32.944  10.617
44244W        W15915  38.636   3.687   0.035
44245W        W15916  10.633  24.513  13.220
44246W        W15917  32.882  11.286   1.629
44247W        W15918  24.007  13.219  12.505
44248W        W15919  11.558  41.356  14.996
44249W        W15920   4.441  28.322   1.846
44250W        W15921  18.623  18.314   1.912
44251W        W15922  34.596  27.809   4.181
44252W        W15923  23.056  41.652  13.301
44253W        W15924  19.324  26.576  12.674
44254W        W15925  29.605  22.202   3.026
44255W        W15926  37.899  15.081   1.610
44256W        W15927  27.449   2.289  12.859
44257W        W15928  43.175  27.831  12.916
44258W        W15929  18.740   3.828  12.445
44259W        W15930  36.154   9.421  13.088
44260W        W15931  37.887   2.151  12.934
44261W        W15932   8.662  17.714  14.743
44262W        W15933  13.578  25.225   1.812
44263W        W15934  19.316  20.177  11.959
44264W        W15935  40.327  26.139  14.316
44265W        W15936  11.267   4.015   0.483
44266W        W15937  29.251  41.522   0.007
44267W        W15938  23.701   8.646   4.681
44268W        W15939  24.189  14.378   3.539
44269W        W15940  16.262   1.533  14.417
44270W        W15941  17.080  28.098   0.806
44271W        W15942  14.803   4.223  14.787
44272W        W15943  11.028  24.555  13.552
44273W        W15944  33.559  32.545   0.037
44274W        W15945   7.010  35.483   4.689
44275W        W15946  16.703  33.121   1.326
44276W        W15947  35.717  10.735   2.785
44277W        W15948  29.981   6.940   0.224
44278W        W15949   4.223  36.567  11.524
44279W        W15950   4.863  32.967   4.260
44280W        W15951  28.529  22.329  11.108
44281W        W15952  32.545  36.392   3.714
44282W        W15953  26.772  12.682   3.246
44283W        W15954  19.236  22.789  12.653
44284W        W15955  25.563  29.435   0.885
44285W        W15956  30.111  17.624   1.361
44286W        W15957   4.231  32.945   0.059
44287W        W15958   3.471  43.566   1.321
44288W        W15959  44.742  11.351   4.771
44289W        W15960  10.294   3.719   1.426
44290W        W15961   1.697  40.579   2.587
44291W        W15962   9.237   4.409  10.477
44292W        W15963  43.457  37.654  14.042
44293W        W15964  11.665  41.222   1.309
44294W        W15965  17.009  14.990  12.944
44295W        W15966   0.904  26.482  13.984
44296W        W15967  41.286  15.384  11.959
44297W        W15968  18.343  23.139   2.828
44298W        W15969  30.114  21.645  10.761
44299W        W15970  28.657  16.028   2.819
44300W        W15971  34.180  19.924  13.556
44301W        W15972   9.085   1.504  10.665
44302W        W15973  35.587  29.694   1.434
44303W        W15974   7.795   2.218   1.335
44304W        W15975  29.234   7.225  12.922
44305W        W15976  18.291  27.137   2.680
44306W        W15977   9.852  32.962  12.794
44307W        W15978   9.727  16.545  12.645
44308W        W15979  11.148  17.783  13.868
44309W        W15980  15.422  20.511  13.794
44310W        W15981  18.560  42.922  10.758
44311W        W15982  37.979  22.699   2.785
44312W        W15983  41.315  11.771  12.481
44313W        W15984  15.883   3.388   1.414
44314W        W15985  44.976  15.270  12.424
44315W        W15986  14.052  11.577   5.060
44316W        W15987  32.494  38.833   0.665
44317W        W15988  44.289  22.771  11.117
44318W        W15989  23.706   9.480   0.340
44319W        W15990  37.468  18.827  11.059
44320W        W15991  15.341  19.990  13.165
44321W        W15992  40.778   3.332   2.004
44322W        W15993  19.611   1.236  12.073
44323W        W15994  43.424  28.177   1.876
44324W        W15995  26.099   3.506  13.567
44325W        W15996  41.837  17.620  14.694
44326W        W15997   9.832   0.787   3.831
44327W        W15998   0.379  43.495  10.689
44328W        W15999  31.399   0.029  14.207
44329W        W16000  39.827  12.541   2.208
44330W        W16001   1.946  14.337  11.158
44331W        W16002   3.540  11.273  13.539
44332W        W16003  33.624  32.838  12.215
44333W        W16004  18.490  35.877   3.214
44334W        W16005  15.671  24.089  12.421
44335W        W16006   3.392  23.841   0.012
44336W        W16007  27.473  26.465  11.648
44337W        W16008  34.601   6.325  14.973
44338W        W16009  12.282  41.657   4.571
44339W        W16010  37.965  22.006   1.448
44340W        W16011  11.342   8.811  13.425
44341W        W16012   7.832  38.081   4.531
44342W        W16013  30.249  37.145  14.355
44343W        W16014  29.776  31.577   4.442
44344W        W16015  30.850  17.636  10.465
44345W        W16016  24.434  26.573  10.724
44346W        W16017   1.567  22.276   2.798
44347W        W16018  17.908  38.459   0.379
44348W        W16019  27.087  38.094   1.832
44349W        W16020   9.843  19.272  14.963
44350W        W16021  13.343   5.917   4.489
44351W        W16022  21.809  35.039  10.674
44352W        W16023   2.140   9.288   4.444
44353W        W16024  21.618   8.195  11.694
44354W        W16025  25.875   6.659   0.201
44355W        W16026  27.006  22.437   9.870
44356W        W16027  15.617  26.488  11.387
44357W        W16028  18.111  12.958   0.175
44358W        W16029   2.152  39.810   1.577
44359W        W16030  11.425  43.497   1.297
44360W        W16031  15.261  25.041  13.035
44361W        W16032  29.555  18.009  11.686
44362W        W16033  30.589  42.539   4.299
44363W        W16034  13.240  34.401  14.123
44364W        W16035  18.792  39.748   3.279
44365W        W16036  14.773   4.205  14.262
44366W        W16037  35.415  23.650  14.371
44367W        W16038  13.199  32.852   2.741
44368W        W16039  19.945  20.710  12.944
44369W        W16040  35.118   0.468  13.334
44370W        W16041  32.633  41.365   2.207
44371W        W16042  29.543  14.294   0.259
44372W        W16043  24.935   3.829   1.304
44373W        W16044   8.717  34.174  13.001
44374W        W16045  15.708  19.277   3.759
44375W        W16046   8.734  38.353   0.809
44376W        W16047  14.640  37.444   1.350
44377W        W16048   6.911  27.610   1.963
44378W        W16049  16.151   6.385  13.073
44379W        W16050  16.633  38.102  12.560
44380W        W16051  18.074  14.393   2.668
44381W        W16052  16.825  13.843  10.776
44382W        W16053   0.692  11.871   1.314
44383W        W16054  28.628  41.270  12.059
44384W        W16055  22.084   1.557   1.201
44385W        W16056  35.557   8.828   4.167
44386W        W16057  39.875  18.554   2.738
44387W        W16058  38.479  28.042  12.860
44388W        W16059  13.642  36.876  10.649
44389W        W16060  22.940  33.381   3.290
44390W        W16061  10.849   5.896   4.677
44391W        W16062  39.305  12.002  12.037
44392W        W16063   2.184  16.595  13.418
44393W        W16064   7.773   1.403   2.339
44394W        W16065   9.692  44.752   3.159
44395W        W16066  34.280  36.534  14.032
44396W        W16067   8.310   4.491  10.892
44397W        W16068  38.402   5.340  12.212
44398W        W16069  14.395  37.357   0.894
44399W        W16070   5.486   9.652   3.960
44400W        W16071  37.875   7.256  14.055
44401W        W16072  31.075  23.129   3.044
44402W        W16073  37.532  17.160  12.140
44403W        W16074  29.474   4.267  14.494
44404W        W16075   1.352   0.161   3.692
44405W        W16076  14.188  29.508   0.874
44406W        W16077   2.820  31.418   3.882
44407W        W16078  32.303  23.603   2.774
44408W        W16079   4.178  38.065  14.479
44409W        W16080  18.688   1.787  13.125
44410W        W16081   7.355  19.717   2.370
44411W        W16082   8.365  42.380   3.190
44412W        W16083  42.034  42.198  14.780
44413W        W16084   7.003  39.031  12.094
44414W        W16085  44.802   5.566   3.291
44415W        W16086  14.580  20.692   3.847
44416W        W16087  14.510   2.413  13.341
44417W        W16088  30.638  44.977   0.405
44418W        W16089   1.898  22.661   0.524
44419W        W16090  22.802  24.205   1.976
44420W        W16091   9.162  26.202   3.585
44421W        W16092  43.248  26.644   1.837
44422W        W16093   5.229  21.747  11.560
44423W        W16094   4.073  19.423  12.549
44424W        W16095   8.236   0.174   0.897
44425W        W16096  32.189  35.838   0.115
44426W        W16097  28.843   1.034   1.256
44427W        W16098  23.159  24.633   3.849
44428W        W16099   5.407   4.432  13.909
44429W        W16100  20.074   7.587   0.216
44430W        W16101  24.477  16.734  12.349
44431W        W16102  29.688  42.567   0.467
44432W        W16103  17.635  35.873   3.586
44433W        W16104  25.440  33.741   0.893
44434W        W16105   3.899  31.545  11.972
44435W        W16106  13.856  21.460   0.461
44436W        W16107  21.638  31.975   1.217
44437W        W16108  36.340  13.892   1.607
44438W        W16109  17.428  36.530  13.639
44439W        W16110  40.009  12.057  14.538
44440W        W16111   7.763  25.326   3.766
44441W        W16112  16.732  34.573  14.683
44442W        W16113   1.746  36.097   2.344
44443W        W16114  13.012  14.828   1.872
44444W        W16115  29.889   9.201   3.179
44445W        W16116   2.938   9.723  12.288
44446W        W16117   9.808  13.798  10.950
44447W        W16118   0.786  19.330  10.241
44448W        W16119  21.763  14.888  13.428
44449W        W16120  21.564  20.053  10.778
44450W        W16121   5.289  18.777  12.263
44451W        W16122  25.976  17.609  14.500
44452W        W16123  19.628  36.114   1.269
44453W        W16124  25.401  12.104  11.582
44454W        W16125  34.612  24.127  11.722
44455W        W16126  13.431   2.492   4.462
44456W        W16127  14.755  42.890  13.576
44457W        W16128  38.065  20.674   3.941
44458W        W16129  18.852   6.145  14.887
44459W        W16130  36.711  41.997   1.080
44460W        W16131   8.186  41.829  14.385
44461W        W16132  10.958  28.672  13.754
44462W        W16133  27.060  28.198  13.948
44463W        W16134  18.651  18.273   3.132
44464W        W16135  37.436  28.174  13.912
44465W        W16136   3.925  34.136  11.414
44466W        W16137  22.790   1.727  10.346
44467W        W16138  25.640  14.788   0.345
44468W        W16139  14.174   4.701   3.735
44469W        W16140  32.451  25.496  14.790
44470W        W16141   0.854  30.455  14.383
44471W        W16142  21.719  40.402   1.638
44472W        W16143  17.182  39.375   4.104
44473W        W16144   4.636  36.568  14.027
44474W        W16145  27.046  31.469   4.877
44475W        W16146   3.999  27.156   1.721
44476W        W16147  36.993   7.718  13.930
44477W        W16148  32.504  41.520   2.728
44478W        W16149  28.389  36.537  13.148
44479W        W16150  10.783   0.988   0.781
44480W        W16151  38.392  23.531  12.138
44481W        W16152   7.167   2.355   4.935
44482W        W16153  41.862  23.751  11.388
44483W        W16154   3.918   6.052  14.700
44484W        W16155   8.859   9.175   0.612
44485W        W16156  12.071  29.653  11.184
44486W        W16157  14.143  25.477   0.982
44487W        W16158  44.269  21.637   1.505
44488W        W16159  12.577  44.239  11.920
44489W        W16160   7.747  37.949   0.967
44490W        W16161  22.894  25.292  11.039
44491W        W16162  21.146  14.681  11.902
44492W        W16163  39.149  41.835   3.308
44493W        W16164  30.159  44.060   5.035
44494W        W16165  13.692  37.410   5.171
44495W        W16166  35.017  11.817  10.675
44496W        W16167  14.665  17.125   3.680
44497W        W16168  36.975  17.121   0.239
44498W        W16169  14.078  13.358   1.920
44499W        W16170   0.356  23.806  14.700
44500W        W16171  22.227  12.653   4.871
44501W        W16172  16.222  27.913  13.521
44502W        W16173  28.434  13.930  13.238
44503W        W16174   3.374  17.529   3.675
44504W        W16175  28.511  29.613   2.447
44505W        W16176  30.633   7.796   3.868
44506W        W16177  32.315  44.743  14.573
44507W        W16178   6.242   6.198   0.398
44508W        W16179  34.449  36.176  14.860
44509W        W16180   0.846  22.034   0.993
44510W        W16181  22.760   5.826  11.156
44511W        W16182  11.059  34.595  12.376
44512W        W16183  35.548  27.184  13.639
44513W        W16184  44.944  43.573  13.184
44514W        W16185   5.918  32.439  14.967
44515W        W16186   1.323   5.378  10.979
44516W        W16187  40.387  37.995   2.895
44517W        W16188  34.801  24.344  13.920
44518W        W16189  11.900  31.276  11.180
44519W        W16190  16.772  30.167  11.205
44520W        W16191   0.629  10.451   4.575
44521W        W16192  32.067  40.535   0.280
44522W        W16193  40.438  18.537  11.996
44523W        W16194  17.796  39.560  12.555
44524W        W16195  41.847  16.349  11.595
44525W        W16196   9.615  32.943   0.891
44526W        W16197   8.849  22.228   1.691
44527W        W16198   8.241  28.051   3.619
44528W        W16199  13.340  28.318   1.249
44529W        W16200  13.513   8.147  11.977
44530W        W16201  40.207  26.620  12.075
44531W        W16202  22.940  38.041   1.016
44532W        W16203  43.792  41.560   0.616
44533W        W16204   0.946  41.077  12.920
44534W        W16205  28.717  40.864   1.956
44535W        W16206  22.303  29.778   3.291
44536W        W16207  15.966  33.554   0.916
44537W        W16208   8.856   0.608   0.222
44538W        W16209  11.736  24.215  12.808
44539W        W16210  37.839  37.536   0.000
44540W        W16211  24.209   1.489   4.114
44541W        W16212  40.987   4.945   1.334
44542W        W16213  24.401  28.676   3.848
44543W        W16214   4.873   2.090  10.998
44544W        W16215  13.110  25.613   3.877
44545W        W16216  23.504  17.017   0.838
44546W        W16217  28.129  21.573   2.629
44547W        W16218  17.543  23.021   3.834
44548W        W16219  41.736  25.416  12.421
44549W        W16220  42.260  12.352   4.148
44550W        W16221  39.023  17.592   1.663
44551W        W16222   1.808  40.562   3.598
44552W        W16223  21.028  29.981  13.712
44553W        W16224  21.616  40.820  11.965
44554W        W16225   6.237  30.508   0.425
44555W        W16226  40.422   0.269  12.991
44556W        W16227   7.421   2.495  11.210
44557W        W16228  27.157  39.117   1.911
44558W        W16229  23.919  30.003   2.228
44559W        W16230   2.977  34.022   4.744
44560W        W16231   3.898  21.032   4.066
44561W        W16232  24.742  21.600  13.780
44562W        W16233  43.829   5.155   3.329
44563W        W16234  32.070  40.989   0.503
44564W        W16235   0.861  36.240   0.202
44565W        W16236  17.121  34.002  10.406
44566W        W16237  18.286  23.567   0.362
44567W        W16238   1.255  18.253   4.281
44568W        W16239  34.402  25.790   0.485
44569W        W16240  24.626  23.984   1.885
44570W        W16241  27.665  31.626   2.945
44571W        W16242  15.111   8.796   4.179
44572W        W16243   6.407  43.972  14.313
44573W        W16244  13.617   4.869  11.086
44574W        W16245   8.272  41.491  13.986
44575W        W16246  21.158  13.332   1.251
44576W        W16247  17.673  12.701   4.012
44577W        W16248  43.816  24.684  12.964
44578W        W16249   1.932  12.859  13.393
44579W        W16250  32.601  11.836  14.136
44580W        W16251  34.866  26.919  11.132
44581W        W16252  34.362  44.672   1.357
44582W        W16253  20.731   6.672   1.561
44583W        W16254  25.641  23.549  14.529
44584W        W16255  37.755  23.636   2.218
44585W        W16256   9.450  19.815   4.487
44586W        W16257  10.600  29.971  14.868
44587W        W16258   1.705   1.592   3.488
44588W        W16259  19.289  44.389   2.676
44589W        W16260  25.125   2.650   0.663
44590W        W16261  41.508   5.829  10.779
44591W        W16262  22.116   1.012   1.215
44592W        W16263   8.936  26.547  13.236
44593W        W16264  32.045   3.940  12.070
44594W        W16265  14.716  15.452  13.514
44595W        W16266  36.467  29.079  12.606
44596W        W16267   4.635  26.523  14.287
44597W        W16268  43.993   6.101   4.754
44598W        W16269  26.335   3.844  14.429
44599W        W16270  19.248   4.240   0.766
44600W        W16271  21.107  24.673   1.907
44601W        W16272  25.705  25.164  13.518
44602W        W16273  20.204  15.856   3.546
44603W        W16274  43.231  24.222  13.397
44604W        W16275   0.453  12.743  12.464
44605W        W16276  16.393  36.598  11.963
44606W        W16277  24.362  40.228   1.577
44607W        W16278  21.571  25.413  13.944
44608W        W16279  25.165  33.582   2.258
44609W        W16280  39.819  37.496  14.043
44610W        W16281  42.272  17.036  10.726
44611W        W16282  19.055   5.294   4.550
44612W        W16283  14.805  41.267   4.129
44613W        W16284  35.935   1.767   1.394
44614W        W16285  44.517  16.278   3.917
44615W        W16286   2.530  18.947   0.440
44616W        W16287  34.095  37.773  13.097
44617W        W16288  27.119  25.999   1.135
44618W        W16289   8.815   6.968  11.242
44619W        W16290  26.685  43.524  12.191
44620W        W16291   1.685  28.735  13.549
44621W        W16292  16.598   4.722   1.153
44622W        W16293   7.480  19.375  12.893
44623W        W16294   8.701  30.600   1.952
44624W        W16295  10.594  23.221   2.150
44625W        W16296   9.189  42.269  11.151
44626W        W16297  25.766  13.605   1.617
44627W        W16298   4.723  31.974  12.246
44628W        W16299  17.357  14.603  11.215
44629W        W16300   5.179  44.344  14.912
44630W        W16301  13.116  19.562  11.848
44631W        W16302  24.210  20.870  10.042
44632W        W16303  14.691  20.258   2.765
44633W        W16304   3.053   5.322  13.905
44634W        W16305  16.758   7.912  12.731
44635W        W16306  18.737  13.069  10.969
44636W        W16307  28.120   0.825   2.456
44637W        W16308  24.320   7.659   0.220
44638W        W16309  36.237  24.183  13.750
44639W        W16310  25.237  10.349   0.700
44640W        W16311  16.774  36.073   2.778
44641W        W16312  35.246   0.769   0.387
44642W        W16313   4.327   6.319   9.698
44643W        W16314  17.688  31.359  11.950
44644W        W16315  41.828   4.998   1.778
44645W        W16316  10.809  23.716   0.994
44646W        W16317   8.889  11.235  10.512
44647W        W16318  33.244  32.223  11.181
44648W        W16319   6.807   6.224  13.039
44649W        W16320  44.565  14.616  12.888
44650W        W16321  37.462  40.917  10.456
44651W        W16322   0.806  11.851  10.697
44652W        W16323   5.804  35.349   3.631
44653W        W16324  34.442  10.096   2.566
44654W        W16325   4.927  41.054   0.135
44655W        W16326  36.132  24.570  11.117
44656W        W16327  30.027  18.282  14.853
44657W        W16328  18.537   4.757  11.628
44658W        W16329  44.331  15.904   0.498
44659W        W16330  39.959  24.569   2.823
44660W        W16331  16.136  15.216  13.759
44661W        W16332  34.173  28.172   2.757
44662W        W16333  33.065   4.961   0.975
44663W        W16334   3.885  30.095  13.369
44664W        W16335  21.180  29.341   4.880
44665W        W16336  21.650  38.922   3.148
44666W        W16337  41.955  14.225  11.494
44667W        W16338  36.602  12.012   4.289
44668W        W16339  36.034  40.329   2.361
44669W        W16340   3.154  31.036  12.387
44670W        W16341  11.749  29.309  12.592
44671W        W16342  15.325  44.903  14.406
44672W        W16343  42.782   7.636   0.037
44673W        W16344  29.972  24.196  14.927
44674W        W16345  32.347  19.601  13.800
44675W        W16346  12.702  35.467  14.111
44676W        W16347  16.343  44.200  11.974
44677W        W16348  18.862  17.300   2.746
44678W        W16349  37.802   5.409  13.970
44679W        W16350  28.673  43.483   2.323
44680W        W16351  23.165  13.852  13.010
44681W        W16352   2.431  38.762   0.718
44682W        W16353  28.204   0.965  14.694
44683W        W16354  43.433  42.508   2.749
44684W        W16355  43.231  12.162  11.153
44685W        W16356   0.040   3.689   3.739
44686W        W16357  31.051   6.243  12.468
44687W        W16358  17.376   3.797   0.057
44688W        W16359  41.046  38.861  14.992
44689W        W16360  16.642   3.264  11.202
44690W        W16361  17.243  36.912   2.963
44691W        W16362  31.013   5.647  13.540
44692W        W16363   1.194  44.068   2.900
44693W        W16364   3.429  32.855  12.561
44694W        W16365  21.573  14.144  13.143
44695W        W16366  15.850  33.240  12.367
44696W        W16367   9.604  19.275   4.681
44697W        W16368  14.077  33.449  11.419
44698W        W16369  17.570  14.060  14.979
44699W        W16370  27.223  32.428   3.091
44700W        W16371  28.418  39.336   4.255
44701W        W16372  13.884  33.916   4.981
44702W        W16373  39.784  26.999  13.359
44703W        W16374   6.931  21.232   1.457
44704W        W16375   3.001   8.810  12.927
44705W        W16376  14.524  22.313   2.274
44706W        W16377   2.983  36.971  12.436
44707W        W16378  38.291  13.580   4.634
44708W        W16379  36.468  38.865   2.830
44709W        W16380  12.376  13.615  12.578
44710W        W16381   3.191   1.473   1.308
44711W        W16382  23.139  42.701  10.564
44712W        W16383  10.456  27.239   1.887
44713W        W16384  43.922  12.421  13.105
44714W        W16385  20.130  44.303  11.964
44715W        W16386  21.528  36.969  11.112
44716W        W16387  44.807  23.782  11.247
44717W        W16388  14.510  23.788   3.335
44718W        W16389  19.597  29.151  12.063
44719W        W16390  10.691  13.425  10.971
44720W        W16391  43.293  34.985   0.840
44721W        W16392  23.031  35.775  12.942
44722W        W16393   4.678   0.130   2.862
44723W        W16394  34.907   6.917   2.177
44724W        W16395   6.980  12.902   0.202
44725W        W16396  35.963  28.607  14.435
44726W        W16397  38.141  41.573   9.744
44727W        W16398  38.540  43.942   3.657
44728W        W16399  26.708   4.282   0.531
44729W        W16400   6.367   5.280   2.303
44730W        W16401  40.900   7.650  11.916
44731W        W16402  18.655  18.221  12.829
44732W        W16403   5.787  22.272   1.372
44733W        W16404   6.196  35.468  14.905
44734W        W16405  19.447  35.284  14.504
44735W        W16406  33.385  18.563   2.641
44736W        W16407   2.647  10.826   0.078
44737W        W16408  26.768  39.064  13.499
44738W        W16409  35.889  36.870   9.663
44739W        W16410  26.012  20.489  13.567
44740W        W16411  18.416   7.812  11.222
44741W        W16412  24.946   5.101   0.796
44742W        W16413  42.925   5.149   0.594
44743W        W16414   0.962   0.779  10.739
44744W        W16415   2.360   6.650  14.457
44745W        W16416  40.820  41.330   4.834
44746W        W16417   8.104  16.283   2.475
44747W        W16418  33.974  43.011   3.344
44748W        W16419  16.145  14.559  13.061
44749W        W16420   2.864  31.671   2.339
44750W        W16421  10.453  21.113   4.512
44751W        W16422  29.455   2.410  13.947
44752W        W16423  25.923  37.888   4.628
44753W        W16424   5.680   7.106  11.672
44754W        W16425   7.449  15.389  14.521
44755W        W16426   4.783   1.873   3.476
44756W        W16427  13.712  41.518   1.035
44757W        W16428  25.272  25.748   4.117
44758W        W16429  23.122  10.651  12.437
44759W        W16430  34.200   6.872  14.843
44760W        W16431  26.663   6.245  13.134
44761W        W16432  36.971  28.467  11.503
44762W        W16433   7.403   5.819  14.807
44763W        W16434  26.176   5.708   4.174
44764W        W16435  23.797  32.583   2.795
44765W        W16436  27.160  33.968  12.410
44766W        W16437   5.389  37.343  14.962
44767W        W16438   3.360   0.148  13.822
44768W        W16439   8.201   9.936   2.831
44769W        W16440  22.499   0.925  12.982
44770W        W16441  39.586   3.225   0.824
44771W        W16442   3.911  24.870   5.060
44772W        W16443  40.587   5.685   0.249
44773W        W16444  14.378  42.266   3.271
44774W        W16445  28.535   2.486   3.592
44775W        W16446  19.385  19.291   3.841
44776W        W16447   6.329  42.508  12.137
44777W        W16448  34.509  33.689  10.741
44778W        W16449  21.795  31.941   3.246
44779W        W16450  34.033   5.366  14.567
44780W        W16451   4.447  43.998   3.736
44781W        W16452  13.742   1.171   4.118
44782W        W16453  40.917  15.557   4.751
44783W        W16454   5.349  38.957  14.983
44784W        W16455  40.740  41.435  12.550
44785W        W16456   5.883   8.295   2.765
44786W        W16457  33.125  33.511  13.612
44787W        W16458  17.679  21.636   4.156
44788W        W16459  12.681  16.756  10.574
44789W        W16460  25.536  32.084   2.715
44790W        W16461  31.086   6.165   0.905
44791W        W16462  42.602  41.021   1.763
44792W        W16463   1.335  15.267   4.532
44793W        W16464   3.101  33.566  12.131
44794W        W16465  22.518  17.652   0.226
44795W        W16466  11.935  19.196  12.390
44796W        W16467   9.775  41.267  10.679
44797W        W16468  27.543   7.186   4.854
44798W        W16469  42.512  25.954  14.827
44799W        W16470   2.764  40.441  14.248
44800W        W16471  29.979  29.332  12.394
44801W        W16472  20.584  22.743  13.439
44802W        W16473  37.721  20.715  13.898
44803W        W16474  32.914  43.319   1.369
44804W        W16475  18.051  15.131  14.370
44805W        W16476  29.105   9.821  11.081
44806W        W16477  37.755  15.041  11.125
44807W        W16478   1.565  33.020  11.554
44808W        W16479  11.225   5.325   0.813
44809W        W16480  10.612  38.787   3.855
44810W        W16481  40.896  41.537   2.237
44811W        W16482  28.321  33.527   1.272
44812W        W16483  31.597   2.434  11.624
44813W        W16484  17.969  17.355   4.572
44814W        W16485   4.468  24.311  10.867
44815W        W16486  34.876  18.607  14.747
44816W        W16487  15.154  31.167  11.066
44817W        W16488  18.678  32.796   3.386
44818W        W16489   5.486  28.668   4.486
44819W        W16490  25.548  43.918  13.563
44820W        W16491  27.432  10.244  11.444
44821W        W16492  35.484  28.117  11.947
44822W        W16493  30.965  40.886   4.716
44823W        W16494  29.823  39.153  12.170
44824W        W16495  11.840  29.765   0.544
44825W        W16496  22.104   4.332   4.241
44826W        W16497  41.480  32.084  13.541
44827W        W16498  30.190  24.779   4.118
44828W        W16499  43.848   9.901  13.350
44829W        W16500  12.515   6.452   0.040
44830W        W16501  11.220  37.011  11.513
44831W        W16502  26.691  34.510   4.366
44832W        W16503   6.972  23.586  10.795
44833W        W16504  29.549   8.388  12.200
44834W        W16505   5.740  21.776   1.275
44835W        W16506   5.826  14.226   1.783
44836W        W16507  15.356  27.282  13.397
44837W        W16508   0.359  17.022   2.410
44838W        W16509  22.230  19.158  14.282
44839W        W16510   4.188  14.155   3.206
44840W        W16511  19.182  40.583   4.066
44841W        W16512  39.900  34.870  12.207
44842W        W16513   0.879  26.236   0.242
44843W        W16514   8.849  23.702  14.361
44844W        W16515  25.266  20.770  12.517
44845W        W16516  43.367  20.124   4.912
44846W        W16517  12.930   2.251  14.933
44847W        W16518  39.985  27.612  12.393
44848W        W16519  25.598   7.297   0.024
44849W        W16520   2.306  33.003   2.283
44850W        W16521  26.998  24.438  12.558
44851W        W16522  37.756  16.335  10.616
44852W        W16523  35.113  31.682  10.713
44853W        W16524  21.495  42.274  10.972
44854W        W16525  23.116  17.225   2.835
44855W        W16526  24.006  24.698  10.767
44856W        W16527   8.440  19.929   2.879
44857W        W16528  22.507  38.540   3.417
44858W        W16529   4.928  23.612  11.417
44859W        W16530  35.155  25.182   4.536
44860W        W16531  10.456  18.652  12.559
44861W        W16532  37.756  41.400  10.433
44862W        W16533  24.590  22.530   4.850
44863W        W16534  28.412  38.764  14.722
44864W        W16535  43.055   1.266  11.600
44865W        W16536   4.654   2.381   3.648
44866W        W16537  43.658   5.598   1.909
44867W        W16538  29.087  29.720  12.652
44868W        W16539  35.005  10.143  13.473
44869W        W16540  44.013  38.730   2.623
44870W        W16541  33.356  17.038  11.980
44871W        W16542  29.002  20.635  10.514
44872W        W16543  39.362  12.414  10.703
44873W        W16544   0.558  12.327  10.691
44874W        W16545  24.865  37.324  12.954
44875W        W16546  10.601   4.741   0.873
44876W        W16547  14.907  11.733  14.313
44877W        W16548  26.164  33.067   3.590
44878W        W16549  26.469  23.555  14.941
44879W        W16550  34.291  16.707   3.051
44880W        W16551  29.129  11.388   1.890
44881W        W16552  24.236  20.308  14.017
44882W        W16553  11.790  40.463  14.362
44883W        W16554  23.429  39.793   1.819
44884W        W16555  36.313  18.749   4.145
44885W        W16556   3.378  42.974   4.863
44886W        W16557  14.238  35.620   3.827
44887W        W16558  18.204  17.088  13.395
44888W        W16559  23.275  23.940   0.685
44889W        W16560  42.311  13.062  12.841
44890W        W16561  24.134  41.523   3.169
44891W        W16562   4.326   1.076  14.894
44892W        W16563  12.846   2.924  13.397
44893W        W16564  39.025  29.789  13.771
44894W        W16565  33.052  39.240  14.794
44895W        W16566  29.900   9.773   1.870
44896W        W16567  17.497  35.600  14.550
44897W        W16568   6.067  24.607  13.839
44898W        W16569   9.690  22.451   0.837
44899W        W16570  37.033  17.825  11.086
44900W        W16571  40.243  42.831   0.410
44901W        W16572  12.868  18.345   0.694
44902W        W16573   0.096  40.291   4.212
44903W        W16574  43.441  27.644   1.706
44904W        W16575   1.549  40.861  13.393
44905W        W16576  28.895  40.867   2.444
44906W        W16577  20.517  19.702  13.615
44907W        W16578  39.532   1.609  14.795
44908W        W16579   2.846  32.345  11.709
44909W        W16580  37.356  27.043  14.535
44910W        W16581  39.727  21.538   2.347
44911W        W16582   7.339  20.034   2.800
44912W        W16583   2.055  28.933   1.678
44913W        W16584  44.966   4.870   1.216
44914W        W16585  27.138  36.866  14.298
44915W        W16586  32.284  44.873  11.856
44916W        W16587  25.066   7.733   4.139
44917W        W16588  33.946   3.248   3.281
44918W        W16589  19.596  24.720  13.270
44919W        W16590   5.813  37.545   4.505
44920W        W16591  44.427  31.341   0.487
44921W        W16592  32.974  33.011   4.056
44922W        W16593  30.348  35.124  12.640
44923W        W16594   0.915  31.255   2.883
44924W        W16595   7.104   3.892   4.549
44925W        W16596  18.722  39.777   2.409
44926W        W16597  10.271   3.452   0.955
44927W        W16598  11.270   7.767   1.305
44928W        W16599  32.419  26.473  12.177
44929W        W16600   8.368  19.186  11.127
44930W        W16601  39.784  28.049  14.527
44931W        W16602   8.600   7.088  13.070
44932W        W16603  39.127  27.375   4.631
44933W        W16604  20.988   8.292  11.682
44934W        W16605   3.720  42.412  10.649
44935W        W16606  11.126  19.853   4.818
44936W        W16607  18.597  19.805  10.366
44937W        W16608  20.009  30.888  12.888
44938W        W16609  32.168  21.151   2.825
44939W        W16610   4.429  39.361   2.375
44940W        W16611  38.581  25.172  10.623
44941W        W16612  34.663  15.032  13.347
44942W        W16613   0.322   8.901  14.953
44943W        W16614  10.612  44.243  11.490
44944W        W16615  29.972   1.204  14.811
44945W        W16616  23.359  36.921   4.567
44946W        W16617  35.917   0.974   1.000
44947W        W16618  41.097  15.606   1.683
44948W        W16619  20.761  34.488  12.640
44949W        W16620  14.748  28.978   0.993
44950W        W16621  43.486  36.849   2.744
44951W        W16622  36.941  37.056   3.175
44952W        W16623  30.218  33.524  13.744
44953W        W16624  11.578   5.967  11.093
44954W        W16625  14.448  21.966  14.012
44955W        W16626  29.414  19.990   2.381
44956W        W16627  26.376  19.517   2.203
44957W        W16628  14.647   6.167   3.334
44958W        W16629  19.267  28.063  12.610
44959W        W16630   2.834  12.423   2.492
44960W        W16631  44.792  24.995   0.187
44961W        W16632  36.535  42.455   1.272
44962W        W16633  14.798  29.917   0.378
44963W        W16634  12.269  20.739   0.717
44964W        W16635  13.989   5.243  10.252
44965W        W16636  16.203  24.425  12.432
44966W        W16637  14.103  30.333   2.664
44967W        W16638  34.450  16.654   3.560
44968W        W16639  28.679  19.143   1.286
44969W        W16640  35.060  32.311   0.783
44970W        W16641  14.216  19.047  12.587
44971W        W16642   6.847  35.402   4.173
44972W        W16643  28.170  31.131   0.971
44973W        W16644  16.806   1.594  14.369
44974W        W16645  24.256  29.316  11.594
44975W        W16646  41.403  36.968   4.379
44976W        W16647   9.800  28.127   1.365
44977W        W16648  42.738  27.735   2.819
44978W        W16649  20.719  30.630  13.098
44979W        W16650  20.064  26.968  14.384
44980W        W16651  21.286  18.125   0.721
44981W        W16652  10.277  19.659  13.085
44982W        W16653  11.874  41.466  13.603
44983W        W16654  42.015  34.632  14.991
44984W        W16655  36.216   7.918  12.031
44985W        W16656  28.662  44.997  11.636
44986W        W16657  27.240   6.652   0.949
44987W        W16658  39.946  37.810  11.559
44988W        W16659  19.599  19.656   1.930
44989W        W16660  40.056  31.558  14.493
44990W        W16661  18.745  27.033  14.795
44991W        W16662  29.193  38.321  14.294
44992W        W16663  25.152  35.848  13.669
44993W        W16664  43.921  21.564  10.540
44994W        W16665   1.238   4.960  14.519
44995W        W16666  32.473   2.221   0.411
44996W        W16667  39.352   5.197   0.723
44997W        W16668  27.559  29.602  11.564
44998W        W16669  24.560  27.080   0.078
44999W        W16670  21.080  29.183  10.886
45000W        W16671   2.963  25.136  14.939
45001W        W16672  18.582  30.047   4.862
45002W        W16673  11.672  28.752   0.302
45003W        W16674  22.656  35.935   2.151
45004W        W16675  33.141  34.420   0.876
45005W        W16676  24.515  43.424   4.985
45006W        W16677  30.533  43.418  10.367
45007W        W16678   8.554  20.717  11.069
45008W        W16679  25.253  33.547  14.431
45009W        W16680  34.029  16.132   3.194
45010W        W16681  22.132  25.714  11.262
45011W        W16682  24.448  31.247  12.839
45012W        W16683   8.552  16.726   2.120
45013W        W16684   8.101   9.792  14.459
45014W        W16685  37.556  28.380   3.675
45015W        W16686  44.681  16.217   0.778
45016W        W16687  10.230  29.448   4.269
45017W        W16688  10.884  33.344   3.675
45018W        W16689  17.837  23.226  14.143
45019W        W16690  11.087  35.804  11.656
45020W        W16691  10.105  12.480  10.689
45021W        W16692  27.418   8.772  12.379
45022W        W16693  13.373  24.960   0.506
45023W        W16694   4.802   2.718  14.382
45024W        W16695  11.142  27.174   4.181
45025W        W16696   4.923   3.703   0.497
45026W        W16697  36.954   6.327  13.485
45027W        W16698  17.959  12.695  13.213
45028W        W16699  19.368  24.108  11.139
45029W        W16700  13.309  34.600  14.980
45030W        W16701  15.142  41.871  10.842
45031W        W16702   5.420  42.286  14.037
45032W        W16703  37.611  12.783  14.263
45033W        W16704  18.515  22.624   2.684
45034W        W16705  13.623  25.920   4.586
45035W        W16706  29.425  37.236   3.381
45036W        W16707  31.207  26.590   1.323
45037W        W16708   7.377  38.774   3.621
45038W        W16709   2.945  26.038  11.500
45039W        W16710   9.372  40.407   3.715
45040W        W16711  15.630  14.560   1.823
45041W        W16712   3.153  21.092   4.861
45042W        W16713  26.177   1.823   1.060
45043W        W16714  31.007   8.669   4.824
45044W        W16715  22.113  23.871  12.320
45045W        W16716   9.107   2.989   3.327
45046W        W16717  30.007  44.465   1.763
45047W        W16718   3.900  13.321   3.632
45048W        W16719  32.562  25.268  12.517
45049W        W16720  22.676  43.885   3.061
45050W        W16721  44.877  29.989  12.568
45051W        W16722   3.697   2.967  12.855
45052W        W16723  11.796  26.933   4.584
45053W        W16724   9.278  35.819   2.735
45054W        W16725  34.885  27.791  13.927
45055W        W16726  22.734  25.638   4.120
45056W        W16727  29.017  17.177   1.717
45057W        W16728  39.912  39.819  12.412
45058W        W16729  31.958   2.589   3.004
45059W        W16730  40.373  26.260   4.833
45060W        W16731  10.258  21.968   1.310
45061W        W16732  12.621  24.066  14.800
45062W        W16733  43.910  38.222   2.668
45063W        W16734  41.876   0.467   3.730
45064W        W16735  15.163  39.522  10.405
45065W        W16736  25.340  43.800  11.128
45066W        W16737   7.827   4.429   2.865
45067W        W16738  22.747  36.000   1.646
45068W        W16739  37.096   3.322  12.943
45069W        W16740  24.217  20.510   3.743
45070W        W16741  20.980  22.650   0.825
45071W        W16742  13.778   6.751   5.563
45072W        W16743  13.280  29.403   0.730
45073W        W16744  30.989  21.368  10.160
45074W        W16745  43.246  29.869  14.015
45075W        W16746  38.577  22.697  12.201
45076W        W16747  11.397   1.479  11.814
45077W        W16748   8.139  17.097   1.909
45078W        W16749   4.448  44.414   0.498
45079W        W16750  31.694  35.073  11.622
45080W        W16751  24.526  41.087   1.862
45081W        W16752  29.710   9.397   2.738
45082W        W16753   8.871  40.360  12.001
45083W        W16754  43.234   2.432  13.565
45084W        W16755  32.782   7.793  10.699
45085W        W16756  35.160  29.028   4.182
45086W        W16757  23.512  20.659   1.894
45087W        W16758  10.043  14.096   2.822
45088W        W16759  18.670  14.399   0.542
45089W        W16760  17.961  17.276   2.772
45090W        W16761   0.387  29.600   3.278
45091W        W16762  41.704   6.233   1.262
45092W        W16763  22.993  25.249   5.089
45093W        W16764   1.264  42.589   0.798
45094W        W16765  36.625  39.225   1.837
45095W        W16766  13.818  34.833   3.326
45096W        W16767  17.662  22.103   3.919
45097W        W16768   9.783  21.148  12.096
45098W        W16769  17.728  34.342  12.350
45099W        W16770  29.467  25.659   1.575
45100W        W16771  44.363   0.782   0.367
45101W        W16772  33.335   5.701  11.801
45102W        W16773  11.282  10.690  13.286
45103W        W16774   9.395  23.091  11.052
45104W        W16775  38.905   1.598  12.558
45105W        W16776   0.480  15.249  12.498
45106W        W16777   6.855  22.719  11.862
45107W        W16778  28.050  21.046  13.393
45108W        W16779  30.821  19.948   2.943
45109W        W16780  23.802  38.280   2.736
45110W        W16781  32.385  30.528   3.324
45111W        W16782  33.164  38.984  11.082
45112W        W16783  10.277  20.346  14.501
45113W        W16784  11.186  14.906   2.157
45114W        W16785  36.560   1.247  10.430
45115W        W16786  40.011  29.572   2.623
45116W        W16787  13.517  42.361   3.797
45117W        W16788  38.407  36.193   2.152
45118W        W16789  31.742   5.009  14.969
45119W        W16790   7.945   9.103   2.706
45120W        W16791  43.249  41.736   3.065
45121W        W16792  11.865  23.983  11.088
45122W        W16793  27.396  28.487  13.031
45123W        W16794  35.497  17.034   4.076
45124W        W16795   2.451   1.954   2.328
45125W        W16796  33.060  25.621  11.124
45126W        W16797  12.642   9.129   1.276
45127W        W16798  31.967  24.794  14.021
45128W        W16799  16.603  37.270   0.238
45129W        W16800  42.335  40.567  11.439
45130W        W16801  29.473  24.156  12.200
45131W        W16802  31.584  38.266   1.331
45132W        W16803   2.749  14.538  12.119
45133W        W16804  13.970  44.420  13.687
45134W        W16805  11.379  31.119  12.078
45135W        W16806  15.323  20.728  12.459
45136W        W16807   7.722  23.117   3.636
45137W        W16808  21.110  26.240   4.922
45138W        W16809   0.018  26.500   1.341
45139W        W16810  36.043  15.123  12.551
45140W        W16811   1.527  18.237   0.535
45141W        W16812  16.194  22.491  11.947
45142W        W16813  27.133   3.686  12.995
45143W        W16814  23.155  22.750  12.385
45144W        W16815  34.967  34.592  10.542
45145W        W16816  21.521   4.778  10.635
45146W        W16817  30.032  35.910   4.939
45147W        W16818  12.805  35.319   1.844
45148W        W16819  30.461  25.624  13.502
45149W        W16820  38.421  37.323  12.022
45150W        W16821   1.329   7.520   1.317
45151W        W16822  41.020  27.639  14.803
45152W        W16823   0.925  16.413   3.750
45153W        W16824  40.451  17.473  14.999
45154W        W16825   8.354  20.318  12.614
45155W        W16826   2.106  39.300  12.982
45156W        W16827   2.868  36.380   3.318
45157W        W16828  11.133  13.729  12.956
45158W        W16829  20.643   5.383  14.901
45159W        W16830  24.378  39.407   0.009
45160W        W16831  39.507  21.437   0.979
45161W        W16832  10.717  14.475  11.938
45162W        W16833   1.376  33.309   1.047
45163W        W16834  23.359  28.124  10.636
45164W        W16835  40.160  42.804  14.058
45165W        W16836  18.328  13.883  14.844
45166W        W16837   7.138  41.396  14.295
45167W        W16838  15.276  10.470   1.744
45168W        W16839  41.443  31.040   0.170
45169W        W16840  10.792  25.027  14.704
45170W        W16841   8.784  28.837   3.774
45171W        W16842  17.299  38.931  10.755
45172W        W16843  28.948   3.870   2.417
45173W        W16844  39.499   9.710   0.237
45174W        W16845  42.355  35.503   1.010
45175W        W16846  41.528  27.937  14.849
45176W        W16847  18.027  12.814   3.644
45177W        W16848  10.841  37.918   1.380
45178W        W16849  26.112  33.806   4.251
45179W        W16850  33.563   0.061   3.141
45180W        W16851  36.575  16.038  11.443
45181W        W16852  22.158  27.735  14.529
45182W        W16853  12.799  22.771  13.149
45183W        W16854  43.941  16.556   4.280
45184W        W16855  12.758  34.792   4.742
45185W        W16856  37.520  19.635  10.698
45186W        W16857  22.081   0.966  10.746
45187W        W16858  28.184  30.079  11.118
45188W        W16859  12.859  13.812  12.672
45189W        W16860  18.492  11.688   0.362
45190W        W16861  26.159  32.603   2.240
45191W        W16862  10.237   5.466  14.021
45192W        W16863  18.366   8.161  12.754
45193W        W16864   5.776   7.181  13.910
45194W        W16865  13.245  32.900  13.744
45195W        W16866  15.281  13.222  11.554
45196W        W16867   5.772  40.056  12.641
45197W        W16868  38.398  27.014   2.839
45198W        W16869  28.662  11.083   0.259
45199W        W16870  37.902  14.012   1.281
45200W        W16871   9.813  14.719   0.274
45201W        W16872  11.091  27.484  10.888
45202W        W16873  13.082  34.088  13.320
45203W        W16874  13.569   5.273   0.273
45204W        W16875   9.382   7.672   2.360
45205W        W16876  33.537  37.470   2.387
45206W        W16877  29.947  30.439  14.825
45207W        W16878   2.851  42.224   1.245
45208W        W16879   7.586  31.836  10.970
45209W        W16880  28.738  18.604  12.931
45210W        W16881  40.531  30.512   0.509
45211W        W16882  14.317  43.353   1.770
45212W        W16883  30.420  33.894   3.230
45213W        W16884  36.774   5.835  13.842
45214W        W16885  31.821  44.330  12.014
45215W        W16886   6.238  26.008  12.964
45216W        W16887  12.245   1.655  11.261
45217W        W16888  33.079   4.764   0.491
45218W        W16889  34.998  34.886  13.896
45219W        W16890  12.729  21.164  14.095
45220W        W16891  24.951  28.634  12.021
45221W        W16892  36.217  23.716  10.907
45222W        W16893  28.797  24.106  12.494
45223W        W16894  30.817  27.024   3.765
45224W        W16895  28.005  40.558  14.900
45225W        W16896  15.798  30.554  11.148
45226W        W16897  31.971  31.958   5.012
45227W        W16898  21.996  16.970  11.100
45228W        W16899   2.682   8.269  11.177
45229W        W16900   9.327  14.183   4.558
45230W        W16901  12.538  27.714  12.072
45231W        W16902  10.150   1.415   1.356
45232W        W16903  32.339  21.759  13.658
45233W        W16904  16.065  42.474  11.098
45234W        W16905  26.122   9.237   3.707
45235W        W16906   0.977  25.000   3.129
45236W        W16907  21.087  23.557   2.851
45237W        W16908   7.088  12.045   1.925
45238W        W16909  21.551   9.668   4.741
45239W        W16910  10.422  13.077   1.258
45240W        W16911  36.990  25.119   1.430
45241W        W16912  13.126  19.104   4.201
45242W        W16913  18.505  25.199   3.664
45243W        W16914  23.249  41.922   4.767
45244W        W16915   4.323  33.023   4.121
45245W        W16916   5.295  23.051   4.637
45246W        W16917  35.091  10.868  11.623
45247W        W16918  16.125  35.944   3.650
45248W        W16919  28.696  30.455   1.736
45249W        W16920   7.333  33.751  11.116
45250W        W16921  11.366  43.269  13.875
45251W        W16922  41.562   7.236   2.805
45252W        W16923  38.567   5.726  11.918
45253W        W16924   3.740  16.712   2.754
45254W        W16925  15.641  35.562   1.968
45255W        W16926  38.844  26.675   1.734
45256W        W16927   1.478  24.589   3.595
45257W        W16928  44.377  37.318  11.515
45258W        W16929  31.468  31.715  12.973
45259W        W16930   2.734   5.663   3.683
45260W        W16931  36.606  41.267   5.238
45261W        W16932   4.332  18.177   0.980
45262W        W16933  14.654  43.277  14.398
45263W        W16934  40.889   5.226   1.788
45264W        W16935   0.333  16.300  10.957
45265W        W16936  41.330   1.794  12.965
45266W        W16937   6.780   2.058  13.888
45267W        W16938   1.587  36.701  11.788
45268W        W16939  18.458   5.139  13.966
45269W        W16940  23.690  31.984  12.935
45270W        W16941  36.826   4.210   2.181
45271W        W16942  44.846  26.457   2.913
45272W        W16943  44.521  33.183   0.756
45273W        W16944  15.115  19.332   0.255
45274W        W16945   6.818  20.788  11.956
45275W        W16946   9.344  33.337  13.409
45276W        W16947   8.772  21.926  13.957
45277W        W16948  14.210  21.213   1.799
45278W        W16949  15.424   4.351  13.367
45279W        W16950   0.038   3.722   2.555
45280W        W16951  27.439  42.551  10.552
45281W        W16952  35.441  14.798  13.852
45282W        W16953  17.544  25.708   1.728
45283W        W16954  34.411  31.172  12.820
45284W        W16955   4.439  25.661  11.729
45285W        W16956  11.339  42.517  12.642
45286W        W16957   9.340  22.140   2.123
45287W        W16958  34.427   9.562   2.523
45288W        W16959  22.173  40.869   3.816
45289W        W16960  36.387  34.622   1.909
45290W        W16961   3.902  20.181  13.532
45291W        W16962  19.727  36.603   1.404
45292W        W16963  16.744  11.195   1.887
45293W        W16964  33.449  43.716   0.786
45294W        W16965   1.971  33.443   2.292
45295W        W16966  10.625  16.960  10.238
45296W        W16967  15.471  17.218  12.495
45297W        W16968   9.271   6.957  10.471
45298W        W16969  34.983   9.255   0.638
45299W        W16970  39.687   4.828  10.743
45300W        W16971  42.426  27.681  13.492
45301W        W16972  39.049  39.659   0.466
45302W        W16973  15.124   6.880  14.070
45303W        W16974  43.499  39.905   0.109
45304W        W16975   3.158  29.602  13.065
45305W        W16976  24.429  42.360   0.033
45306W        W16977  12.053  20.820   2.304
45307W        W16978  29.132   7.708   2.706
45308W        W16979   4.942  38.546  10.631
45309W        W16980  38.345  29.074  14.702
45310W        W16981   3.368   4.456  12.037
45311W        W16982  40.420  36.136  10.768
45312W        W16983  32.801  40.516   0.923
45313W        W16984  29.667   7.277  10.753
45314W        W16985  11.076  31.426  11.487
45315W        W16986  11.307  43.610   2.698
45316W        W16987   1.515  23.196   3.260
45317W        W16988  30.451   8.354  13.939
45318W        W16989  38.033  40.812   2.677
45319W        W16990  42.509  16.193  12.140
45320W        W16991  28.427  15.815  14.621
45321W        W16992  17.576  12.259  12.432
45322W        W16993  42.447   8.884   3.693
45323W        W16994   5.756  27.112  10.428
45324W        W16995  41.752  33.131   2.886
45325W        W16996  34.093   4.583  14.321
45326W        W16997  20.164  24.178   1.894
45327W        W16998  22.244   8.194   2.314
45328W        W16999  41.360   4.265  14.761
45329W        W17000  25.466  13.526  12.817
45330W        W17001   0.825  21.738   4.967
45331W        W17002  36.828  30.842   0.715
45332W        W17003  18.134  20.714   0.565
45333W        W17004  25.929  35.000   3.773
45334W        W17005  20.446  37.539  11.214
45335W        W17006   2.137   4.293   2.714
45336W        W17007  21.889  44.396  11.083
45337W        W17008  39.908  36.557   4.800
45338W        W17009  37.133   7.893   4.188
45339W        W17010   3.949  30.879   5.143
45340W        W17011  40.347  15.581   5.252
45341W        W17012  40.750  10.523  13.816
45342W        W17013  24.982  26.984  11.731
45343W        W17014   4.630  18.355   4.110
45344W        W17015   3.797  12.362   1.938
45345W        W17016  38.628  41.003  10.310
45346W        W17017  40.187  35.016   3.228
45347W        W17018  32.299  36.974   3.680
45348W        W17019  10.756  29.604  11.655
45349W        W17020  12.588  25.298  10.982
45350W        W17021  35.416  22.367   1.191
45351W        W17022  37.900  20.236   1.781
45352W        W17023  15.860  39.239  12.536
45353W        W17024   9.908  37.539  13.314
45354W        W17025  25.878  13.678   4.451
45355W        W17026  13.323  24.685  12.808
45356W        W17027   8.473   1.888   0.463
45357W        W17028  34.507  37.645  14.694
45358W        W17029  17.014  23.065   2.728
45359W        W17030  23.175  20.869  14.805
45360W        W17031  39.649  39.595   2.275
45361W        W17032  18.063  15.590  12.500
45362W        W17033  11.171  37.004  13.514
45363W        W17034  41.399  11.067  13.014
45364W        W17035  20.684   7.168  11.573
45365W        W17036  12.512  43.980  12.686
45366W        W17037  40.713  38.016  10.587
45367W        W17038  37.431  31.270  12.441
45368W        W17039  28.765  33.304   0.207
45369W        W17040  27.395  36.453  13.407
45370W        W17041  17.876  11.826  13.283
45371W        W17042  37.887  19.104   1.160
45372W        W17043  28.142  44.331   1.579
45373W        W17044  36.561   3.828   4.675
45374W        W17045  29.487  15.866   4.135
45375W        W17046  44.040  21.738   4.158
45376W        W17047   4.382  44.475   2.398
45377W        W17048  12.172  14.904  14.802
45378W        W17049  17.450  12.242   4.148
45379W        W17050  34.369   3.688  13.265
45380W        W17051  32.115  12.206   2.924
45381W        W17052  21.075  35.966  10.708
45382W        W17053  19.101  20.803   0.099
45383W        W17054  18.544  21.995   2.406
45384W        W17055  21.690  35.104  12.001
45385W        W17056   3.231  20.407   0.841
45386W        W17057  10.706   5.156   3.342
45387W        W17058   7.772  44.476   0.496
45388W        W17059  37.966  36.593  11.627
45389W        W17060   0.390  25.150   0.010
45390W        W17061  22.380  31.813  14.315
45391W        W17062  37.412   5.548  13.270
45392W        W17063  23.792  30.138  14.886
45393W        W17064  27.421  19.582   0.789
45394W        W17065  32.578  19.076  11.153
45395W        W17066   1.669   8.660   4.166
45396W        W17067  31.666  42.115  12.957
45397W        W17068  35.448  17.749  12.372
45398W        W17069   9.316  17.939  11.545
45399W        W17070  40.513   5.198   3.732
45400W        W17071   8.664  26.774  12.025
45401W        W17072  10.656   7.699   0.455
45402W        W17073   5.973  38.905  11.119
45403W        W17074  19.088   5.996  12.074
45404W        W17075  16.492  20.246  12.317
45405W        W17076  37.557  30.948  12.038
45406W        W17077  31.498  13.636   4.927
45407W        W17078  27.223  42.320   3.517
45408W        W17079   0.230   1.970  13.364
45409W        W17080  37.379  26.970  13.016
45410W        W17081   0.511  29.162  13.944
45411W        W17082  40.570  28.673  13.477
45412W        W17083  21.016  24.077  13.772
45413W        W17084  27.139   1.014   0.917
45414W        W17085  36.426  34.645   4.542
45415W        W17086  24.309  16.392  11.126
45416W        W17087  27.156  21.718   0.437
45417W        W17088  12.653   9.639  13.454
45418W        W17089   7.025  32.124   1.823
45419W        W17090  19.582   0.352  12.866
45420W        W17091  33.649  17.517  14.458
45421W        W17092  37.091  41.909  12.104
45422W        W17093  36.138  31.443  13.383
45423W        W17094   2.895  44.828   2.733
45424W        W17095  22.750  40.275  10.330
45425W        W17096  38.412  16.199  14.132
45426W        W17097   8.469  38.334  13.413
45427W        W17098  10.612  18.834  14.977
45428W        W17099   5.263  40.493  14.240
45429W        W17100  42.797  27.348  11.485
45430W        W17101  10.847  13.056  11.740
45431W        W17102   4.672  43.309   2.817
45432W        W17103   9.490  38.356  11.476
45433W        W17104  32.801  13.749   2.918
45434W        W17105   6.720  37.906   0.705
45435W        W17106  32.802  36.871   3.643
45436W        W17107  32.624  18.272   2.357
45437W        W17108  36.061  20.462   3.628
45438W        W17109  29.252  16.685   3.569
45439W        W17110   3.264   2.710   4.150
45440W        W17111  38.542  34.034   1.326
45441W        W17112  43.479  17.125  12.495
45442W        W17113   0.527  39.460   2.192
45443W        W17114   1.373   0.831  14.477
45444W        W17115   6.023  40.092  13.122
45445W        W17116   9.117  19.068  10.438
45446W        W17117  29.233  24.956  11.026
45447W        W17118  25.512  16.615   2.851
45448W        W17119  29.096   6.969  12.176
45449W        W17120  32.668  36.441  11.938
45450W        W17121  19.150  19.254   4.749
45451W        W17122   5.544  22.513   3.769
45452W        W17123   7.901  28.880   1.677
45453W        W17124  29.807  12.065   5.069
45454W        W17125  37.593  39.813  11.474
45455W        W17126  36.300  33.346   2.325
45456W        W17127  10.795   2.904   3.712
45457W        W17128  13.445  19.156   0.967
45458W        W17129   6.383  23.994   0.476
45459W        W17130  19.691  12.253   2.558
45460W        W17131   7.782  38.600   4.533
45461W        W17132  18.840   8.774   4.507
45462W        W17133  32.666   9.254   3.727
45463W        W17134   8.447  11.754   0.148
45464W        W17135   9.313  37.066  13.282
45465W        W17136  14.141   4.848   0.871
45466W        W17137  23.969  37.520  10.803
45467W        W17138  13.095  11.866  12.069
45468W        W17139  18.074  42.842   2.655
45469W        W17140  10.111   3.396   4.101
45470W        W17141  13.087  43.081  10.864
45471W        W17142  43.219   4.714   0.827
45472W        W17143  44.432  24.297  10.133
45473W        W17144   9.547  42.973   3.703
45474W        W17145  20.233  11.082   2.813
45475W        W17146   1.971  19.703   1.692
45476W        W17147   7.925  15.818  11.237
45477W        W17148  20.671  27.036   1.393
45478W        W17149  27.003  20.297   0.093
45479W        W17150  18.897  23.466   5.161
45480W        W17151  26.625   2.694  14.139
45481W        W17152   7.218   7.215   0.375
45482W        W17153  11.700  28.205   2.196
45483W        W17154  44.769  40.565  12.453
45484W        W17155   0.995  32.673  14.277
45485W        W17156  44.332  41.364   4.536
45486W        W17157  34.531  11.511  14.359
45487W        W17158  13.602  12.837   1.420
45488W        W17159   2.692  33.409  10.854
45489W        W17160   8.865  27.389   0.313
45490W        W17161  29.414  10.136  13.934
45491W        W17162   7.757  28.111   3.361
45492W        W17163  43.722  19.813  14.080
45493W        W17164   8.242  36.377   3.715
45494W        W17165  33.564   7.328  10.751
45495W        W17166  30.104  15.064   2.101
45496W        W17167  39.601  19.265  13.819
45497W        W17168  30.372   7.275  14.095
45498W        W17169  23.989  17.241   0.845
45499W        W17170  26.451  44.280  11.700
45500W        W17171   5.619  33.886   2.178
45501W        W17172  42.855  12.356  11.533
45502W        W17173   2.438  33.123  11.530
45503W        W17174  14.836  28.071   3.653
45504W        W17175   7.716  13.814  11.078
45505W        W17176  24.170  43.741   0.213
45506W        W17177   5.522  24.135   2.660
45507W        W17178  40.140   4.295  14.332
45508W        W17179  42.915  22.040   4.529
45509W        W17180  11.766  16.124  13.909
45510W        W17181  43.274   9.792  13.086
45511W        W17182   1.849  34.981  10.627
45512W        W17183  25.751  20.051  14.768
45513W        W17184  19.878  33.219  11.809
45514W        W17185  25.901  25.964  10.726
45515W        W17186  31.651   5.502  14.134
45516W        W17187   2.494  42.210  11.170
45517W        W17188  33.432   0.130   0.453
45518W        W17189  33.633  21.160   0.444
45519W        W17190  29.113   7.357  14.915
45520W        W17191  19.083  43.466   0.372
45521W        W17192   2.436  15.161  13.437
45522W        W17193  36.547  16.794   2.638
45523W        W17194  29.122  29.242  14.369
45524W        W17195  10.804  38.896   4.749
45525W        W17196  37.412  12.648  13.266
45526W        W17197  44.782  14.739   2.437
45527W        W17198  44.487  28.480   3.737
45528W        W17199  17.476  30.155   2.262
45529W        W17200  35.516   0.676   0.860
45530W        W17201  39.010  30.779  10.660
45531W        W17202  44.989   8.865   3.439
45532W        W17203  29.942  26.642  11.579
45533W        W17204  22.832  32.404   0.224
45534W        W17205   0.424  16.379  12.830
45535W        W17206  43.425   9.420  12.770
45536W        W17207  18.787  10.955  14.749
45537W        W17208  42.955  35.103   4.654
45538W        W17209  21.724  37.304   0.072
45539W        W17210  23.238   6.322  11.907
45540W        W17211  17.074  31.860  13.456
45541W        W17212  38.356  28.145   3.369
45542W        W17213  33.047  37.329   5.013
45543W        W17214  15.833  23.201  12.353
45544W        W17215  34.578   7.183   1.859
45545W        W17216  42.289  21.382  11.520
45546W        W17217  12.687  28.843   3.780
45547W        W17218  35.711  41.336   4.041
45548W        W17219  39.364  24.556  12.478
45549W        W17220  26.661  30.782   0.411
45550W        W17221  43.932  14.817   2.929
45551W        W17222   1.615  36.958   1.413
45552W        W17223  28.634  10.717   1.378
45553W        W17224   6.074   4.197  13.480
45554W        W17225  25.238  36.945   1.737
45555W        W17226  22.756   2.442  14.932
45556W        W17227  25.789   8.323   1.696
45557W        W17228  10.697  15.654  13.141
45558W        W17229  10.088  14.803  12.891
45559W        W17230  32.879  19.317  10.822
45560W        W17231  20.954  33.979   3.621
45561W        W17232  19.996  26.299  14.399
45562W        W17233  28.399  24.962  12.933
45563W        W17234  25.113  19.813  13.963
45564W        W17235  38.601  33.388  13.895
45565W        W17236   5.317  22.264   1.659
45566W        W17237  32.374   5.916   3.313
45567W        W17238   7.136  22.308  12.634
45568W        W17239  35.674  14.916  14.831
45569W        W17240  31.036  12.666   3.546
45570W        W17241   1.216  30.066  14.478
45571W        W17242  17.133   6.654  13.296
45572W        W17243  37.855   2.164  12.057
45573W        W17244  32.991  39.395  10.844
45574W        W17245  17.357   6.447   3.828
45575W        W17246  29.387   6.894   0.789
45576W        W17247  37.909  20.625  11.357
45577W        W17248   8.233  30.127   3.610
45578W        W17249  22.503  11.752  14.545
45579W        W17250  43.876   6.897   0.218
45580W        W17251  32.988  27.438   0.411
45581W        W17252   3.536  14.391  10.718
45582W        W17253  11.704  14.073   3.273
45583W        W17254  15.784   4.797   9.763
45584W        W17255  14.666  12.806   1.944
45585W        W17256  23.272  10.755  11.573
45586W        W17257  31.566  27.054   0.915
45587W        W17258   4.346  14.706  13.967
45588W        W17259  38.811  14.456  13.386
45589W        W17260   2.285  17.243   2.766
45590W        W17261  13.672   9.705  11.225
45591W        W17262  42.484  38.006   1.229
45592W        W17263  15.182  37.381   4.196
45593W        W17264  13.643  34.418   4.121
45594W        W17265  18.691   4.369   2.428
45595W        W17266  43.497  19.431   3.795
45596W        W17267  17.268   4.369  13.248
45597W        W17268   8.354  38.785  10.929
45598W        W17269  44.034  42.128   3.734
45599W        W17270  17.811  11.882   4.144
45600W        W17271  17.768  31.958  10.511
45601W        W17272   8.916  15.251   1.944
45602W        W17273  19.696  43.280   4.126
45603W        W17274  15.296  39.527  11.860
45604W        W17275  15.670  38.110  13.856
45605W        W17276  21.001   7.806   3.308
45606W        W17277  12.972   1.449  14.267
45607W        W17278  15.109  43.689  11.233
45608W        W17279  21.523  23.912   3.657
45609W        W17280   3.292  16.874  11.517
45610W        W17281  35.563  43.028   0.016
45611W        W17282  37.642  22.052   2.836
45612W        W17283  43.073  21.184  11.214
45613W        W17284   9.333  14.398  14.444
45614W        W17285   9.979  22.004   0.844
45615W        W17286  35.976  43.187   0.856
45616W        W17287  23.287  39.039  13.844
45617W        W17288   5.536  17.201  13.927
45618W        W17289  42.321  23.775   1.711
45619W        W17290  13.840  39.968   1.189
45620W        W17291   4.365  11.137  11.980
45621W        W17292  31.007  27.497  12.087
45622W        W17293   2.970  31.930   2.826
45623W        W17294   0.949  21.040   0.801
45624W        W17295  12.378  21.627   4.019
45625W        W17296  17.281  32.645   0.780
45626W        W17297  23.256   5.447   5.041
45627W        W17298   2.309   5.762   3.360
45628W        W17299  13.271   6.007   5.367
45629W        W17300  42.629  40.850   1.011
45630W        W17301  35.126  32.976  11.156
45631W        W17302  30.112  14.782  14.781
45632W        W17303  13.839   8.646  13.607
45633W        W17304  37.902  18.551  14.987
45634W        W17305   5.795  26.216  11.710
45635W        W17306   3.953  24.403   3.101
45636W        W17307  17.948  24.036  13.062
45637W        W17308   1.509   2.795  10.635
45638W        W17309  38.449  41.029  10.799
45639W        W17310  42.971  35.591   3.738
45640W        W17311   5.738  28.058  11.666
45641W        W17312   1.432   1.735  11.461
45642W        W17313   6.734  35.270   1.720
45643W        W17314  24.963  15.830  10.260
45644W        W17315  29.635  44.998  12.514
45645W        W17316  19.148  31.349   2.130
45646W        W17317  18.157   7.678   0.491
45647W        W17318  17.077  28.668   1.296
45648W        W17319  19.131  29.400  12.066
45649W        W17320  14.358   0.946   0.873
45650W        W17321  38.106  21.668  13.439
45651W        W17322  35.958  32.392   4.603
45652W        W17323  33.030  42.746  11.620
45653W        W17324  28.453   1.043  10.656
45654W        W17325  20.646  41.549  14.482
45655W        W17326  43.419  38.521  14.450
45656W        W17327  40.737  16.422   3.353
45657W        W17328   9.857  29.855  13.394
45658W        W17329  10.132  23.803   4.911
45659W        W17330  35.858   7.701  14.404
45660W        W17331  40.920  30.104  10.984
45661W        W17332  15.906   4.929   0.065
45662W        W17333   8.101  35.276  10.647
45663W        W17334  10.799  25.999  10.494
45664W        W17335   4.404   0.759  11.653
45665W        W17336  13.283  40.866  13.088
45666W        W17337  37.101   4.744  14.110
45667W        W17338  20.544  13.541   4.834
45668W        W17339  27.911  11.679  11.663
45669W        W17340  27.934  24.528  14.922
45670W        W17341  20.973  23.345   4.206
45671W        W17342   3.336  24.169   3.695
45672W        W17343  31.979  44.327  10.326
45673W        W17344  24.219   5.257   0.890
45674W        W17345  43.420  28.833  12.578
45675W        W17346  28.497  36.980   1.454
45676W        W17347  21.142  43.449  14.964
45677W        W17348  15.974  43.061   5.083
45678W        W17349   6.670  31.073  10.654
45679W        W17350  34.063  16.321  10.614
45680W        W17351   5.181  31.138   4.237
45681W        W17352   6.839  36.084  10.887
45682W        W17353   1.531  14.325  14.088
45683W        W17354  29.019  33.829  14.973
45684W        W17355  21.679   5.281   4.479
45685W        W17356   8.830  23.958  13.922
45686W        W17357  33.070  41.866  14.535
45687W        W17358   7.154  25.013   1.364
45688W        W17359   4.385  23.866  14.773
45689W        W17360  27.909  13.001   2.960
45690W        W17361  27.338  16.736   0.461
45691W        W17362  16.165   3.981   4.575
45692W        W17363  43.811  44.724  12.708
45693W        W17364  30.012  22.108   4.258
45694W        W17365   1.222   9.155  11.173
45695W        W17366  34.037  26.474   4.690
45696W        W17367  29.505  31.585   2.996
45697W        W17368   5.155  40.447  14.758
45698W        W17369  32.972   1.488   4.717
45699W        W17370  36.571  32.893   4.130
45700W        W17371   9.266  34.842   1.633
45701W        W17372  34.605  44.712  13.650
45702W        W17373  31.527  22.824  11.610
45703W        W17374  20.118  35.625   0.696
45704W        W17375  36.694  12.554   1.923
45705W        W17376  24.091   2.849   2.053
45706W        W17377  14.699  23.548   4.739
45707W        W17378  32.643   1.741  10.606
45708W        W17379  32.323   9.630   3.743
45709W        W17380  28.231  14.232  14.887
45710W        W17381   0.330  43.038  11.548
45711W        W17382  43.018  31.616  13.871
45712W        W17383   6.283  18.243   2.327
45713W        W17384  32.421   8.844  13.131
45714W        W17385   4.442   6.294  14.055
45715W        W17386  16.783  28.142   3.711
45716W        W17387  24.070  26.078  11.195
45717W        W17388  10.578  15.814   1.432
45718W        W17389  30.018   2.321   2.262
45719W        W17390  24.740  28.635  11.549
45720W        W17391   0.984  29.874  14.920
45721W        W17392  17.794  12.608  14.960
45722W        W17393  31.090  12.732   4.560
45723W        W17394  37.395  15.793   1.670
45724W        W17395   6.487  24.029  11.265
45725W        W17396   7.865  21.099  14.864
45726W        W17397  22.005   5.797  14.434
45727W        W17398  33.551  12.627   0.273
45728W        W17399  27.570  15.135   1.158
45729W        W17400  10.878  14.317   1.482
45730W        W17401  16.011  25.282  12.443
45731W        W17402   4.661   3.387  12.839
45732W        W17403  42.044  43.511   0.366
45733W        W17404  21.704  12.278   1.853
45734W        W17405  30.155  22.980   3.622
45735W        W17406  21.725  24.916  13.977
45736W        W17407  27.961  19.617   4.174
45737W        W17408  29.532  32.637   3.289
45738W        W17409   2.721  24.645   3.444
45739W        W17410  20.630  23.875  14.349
45740W        W17411  42.965  41.935  14.809
45741W        W17412   8.359  28.014   1.207
45742W        W17413  10.327  33.007  13.518
45743W        W17414  28.010  24.904   9.939
45744W        W17415  13.904  21.196  14.547
45745W        W17416  44.646  38.857   2.071
45746W        W17417   0.550  40.033  11.448
45747W        W17418   2.346  18.378   3.368
45748W        W17419   0.858   7.738   1.274
45749W        W17420  10.639  30.476   1.675
45750W        W17421  10.762  15.116   3.349
45751W        W17422  19.125  37.756   2.840
45752W        W17423   8.565  29.995  13.148
45753W        W17424  34.232  14.026   0.539
45754W        W17425  29.855  30.002   4.173
45755W        W17426   9.799  14.259   3.773
45756W        W17427  20.072  29.377   1.349
45757W        W17428  24.607  35.863  13.811
45758W        W17429  13.307  44.049  13.046
45759W        W17430  24.990   4.364   4.333
45760W        W17431  41.502  22.463   4.923
45761W        W17432  22.830  44.242   0.411
45762W        W17433   8.951  13.250   4.701
45763W        W17434  27.068  14.638  13.220
45764W        W17435  10.703  36.366   4.405
45765W        W17436   1.346  26.040   0.367
45766W        W17437  33.133  12.680   1.216
45767W        W17438  36.398  35.511  14.284
45768W        W17439  19.857  29.067  12.945
45769W        W17440  41.113   3.455   0.244
45770W        W17441   4.018  34.477   1.610
45771W        W17442  20.531  36.248   3.407
45772W        W17443  15.140  37.960  13.753
45773W        W17444  14.844  39.231  10.683
45774W        W17445  27.198  34.068   0.455
45775W        W17446   6.258   5.734  13.706
45776W        W17447   2.610  20.579   4.422
45777W        W17448  11.119   5.897  12.913
45778W        W17449   0.435   3.064   1.255
45779W        W17450  12.287  21.915   4.852
45780W        W17451  36.133  39.935   5.699
45781W        W17452  11.174  29.360   3.388
45782W        W17453  41.427  29.113  11.642
45783W        W17454   1.348  35.812   2.129
45784W        W17455  14.201   2.741   2.728
45785W        W17456  34.756  42.604  12.832
45786W        W17457  15.259  19.284  12.562
45787W        W17458  23.987   1.869  11.592
45788W        W17459  13.316   7.390  11.225
45789W        W17460  23.486   5.433   3.200
45790W        W17461  21.990   5.084   0.935
45791W        W17462  10.236  15.034   2.730
45792W        W17463  10.293   6.295  11.056
45793W        W17464  22.134   9.102  12.402
45794W        W17465  10.809  26.589   0.743
45795W        W17466  24.511  13.029  13.089
45796W        W17467  13.944   0.162  12.508
45797W        W17468   1.717  18.216   0.002
45798W        W17469   2.970   9.434   2.724
45799W        W17470  40.614  18.714  12.456
45800W        W17471   3.057  44.377  10.988
45801W        W17472  31.922  25.346   4.649
45802W        W17473  22.683  39.707   0.458
45803W        W17474  12.572  41.302   0.388
45804W        W17475  38.145  43.951  14.935
45805W        W17476  26.784  15.056   0.886
45806W        W17477  43.402  17.635  12.462
45807W        W17478  44.885   7.262   1.177
45808W        W17479  16.525  28.403  12.900
45809W        W17480  18.773   5.383  14.311
45810W        W17481  22.634   2.008   2.765
45811W        W17482  19.063  21.306   0.045
45812W        W17483  12.129  12.068  12.297
45813W        W17484  35.053   8.754   0.707
45814W        W17485  16.371  44.440   3.240
45815W        W17486   4.425  31.805   3.288
45816W        W17487   3.228  10.774   3.255
45817W        W17488  17.270  25.247   4.576
45818W        W17489  28.743  39.271  11.027
45819W        W17490  15.992   3.218  12.497
45820W        W17491   7.263  44.222  13.033
45821W        W17492  10.723  42.887   1.806
45822W        W17493  28.070  43.937  13.285
45823W        W17494  31.861  16.217   2.401
45824W        W17495  21.452  23.666  13.499
45825W        W17496  30.689  11.412  11.116
45826W        W17497   1.060  12.206   1.397
45827W        W17498  28.168  42.432   3.192
45828W        W17499  40.070  19.404   3.775
45829W        W17500  43.090  41.954   1.824
45830W        W17501  39.257  15.342   0.460
45831W        W17502   4.967  28.178  10.450
45832W        W17503  43.547  29.539  14.782
45833W        W17504   8.899  20.718  14.312
45834W        W17505  41.439  36.104   2.263
45835W        W17506  44.179  30.641  13.920
45836W        W17507  27.510   4.841  11.621
45837W        W17508  19.550  23.254   3.560
45838W        W17509  27.170  28.500  14.898
45839W        W17510  28.794  25.262  13.056
45840W        W17511   5.862  33.380   0.291
45841W        W17512  21.490  22.724   0.684
45842W        W17513  43.969  21.142   2.899
45843W        W17514  22.006   6.543   3.148
45844W        W17515  27.896  15.633  10.586
45845W        W17516   2.459   4.478  11.674
45846W        W17517  10.899   2.876  14.419
45847W        W17518  12.388  38.980   1.210
45848W        W17519  32.483  18.941  12.440
45849W        W17520  33.376  36.620  13.896
45850W        W17521  25.231  44.941  12.972
45851W        W17522  20.492  34.493  10.749
45852W        W17523  28.749  44.405   2.262
45853W        W17524  19.515   6.930   3.694
45854W        W17525   4.847  31.554   4.296
45855W        W17526  39.304  14.776  10.988
45856W        W17527  35.512  38.847   5.317
45857W        W17528  23.781  29.663  10.589
45858W        W17529  43.869  37.767   4.174
45859W        W17530  37.080  36.509  11.464
45860W        W17531  22.036  41.954  11.079
45861W        W17532  13.204  22.096   4.385
45862W        W17533   9.725  11.598  14.813
45863W        W17534  28.443  31.274  13.381
45864W        W17535  38.439  21.057  12.433
45865W        W17536  17.169   3.018  13.031
45866W        W17537  21.988  15.694  11.117
45867W        W17538  34.840  43.469  13.064
45868W        W17539  33.813  32.883  14.216
45869W        W17540  24.080  18.468  10.974
45870W        W17541  25.680  41.855   2.636
45871W        W17542   1.132   8.198  12.136
45872W        W17543  32.863  40.926   2.334
45873W        W17544  27.532  36.839   1.804
45874W        W17545  27.866  12.744   2.065
45875W        W17546   8.785  30.638   0.476
45876W        W17547  24.969  32.629   2.248
45877W        W17548  28.701  13.750   4.323
45878W        W17549  16.805  13.322  10.730
45879W        W17550  18.620  19.351   4.599
45880W        W17551  20.280  32.844   4.506
45881W        W17552  41.631  30.130  14.038
45882W        W17553  11.940  43.001   2.404
45883W        W17554  43.197  11.255   1.788
45884W        W17555  21.268   4.472  13.528
45885W        W17556  16.088  23.222   2.842
45886W        W17557   3.808  32.328   2.999
45887W        W17558   5.056  13.557  10.998
45888W        W17559  40.083  40.307   3.269
45889W        W17560   9.094  39.005   4.837
45890W        W17561  32.359  24.510  14.277
45891W        W17562  40.426  34.365  12.430
45892W        W17563  38.058  35.182   1.461
45893W        W17564  20.261  26.182   2.696
45894W        W17565  29.528   6.307  14.835
45895W        W17566  33.505  34.021  10.229
45896W        W17567  43.480  29.631   4.817
45897W        W17568  17.063  23.970   1.838
45898W        W17569  15.331  42.357   0.884
45899W        W17570  15.943   2.877   2.016
45900W        W17571  21.636  36.184  11.559
45901W        W17572  17.492  14.198  10.148
45902W        W17573  36.577  32.172   3.077
45903W        W17574  37.402  15.653  11.225
45904W        W17575  36.070  33.561   1.791
45905W        W17576  31.847  12.816  14.337
45906W        W17577  12.592  23.092  12.335
45907W        W17578   3.537  30.517  12.512
45908W        W17579  35.576  29.026  11.839
45909W        W17580  27.295   3.948  13.961
45910W        W17581  25.831  12.251  14.753
45911W        W17582  14.303  28.112   4.597
45912W        W17583  17.988  12.636   2.583
45913W        W17584  44.005  22.722  11.566
45914W        W17585  40.125  19.857   1.183
45915W        W17586  22.232  23.061   4.063
45916W        W17587  13.349  29.776   0.320
45917W        W17588  31.106  21.065   1.997
45918W        W17589  18.455  36.931   0.387
45919W        W17590  25.212   6.367   1.775
45920W        W17591  25.651  26.120  14.072
45921W        W17592  35.427  25.751   3.777
45922W        W17593  18.963  25.487  14.340
45923W        W17594   3.566  42.520  14.229
45924W        W17595  30.510  44.253   0.845
45925W        W17596  27.322  23.966   0.943
45926W        W17597  15.772  39.989   0.401
45927W        W17598   5.574  36.876   4.237
45928W        W17599  11.716  24.924   4.673
45929W        W17600   7.193  36.161  10.520
45930W        W17601  17.827   4.719   2.829
45931W        W17602  18.502  14.170   0.959
45932W        W17603   0.791  17.385  10.542
45933W        W17604  19.310  34.864   3.525
45934W        W17605   6.351  27.224   4.166
45935W        W17606   8.723  18.008   3.816
45936W        W17607  26.759  29.038   3.351
45937W        W17608   3.715  34.987  11.226
45938W        W17609  44.775  39.890   0.866
45939W        W17610   4.399  26.954   0.784
45940W        W17611  32.466  29.091  11.652
45941W        W17612   9.924  14.284   0.014
45942W        W17613  12.329  20.750   1.226
45943W        W17614  32.049  35.685  12.131
45944W        W17615  38.319   4.267   1.386
45945W        W17616   3.713  35.865  13.572
45946W        W17617  24.656  11.599   3.781
45947W        W17618  25.586   7.830   2.850
45948W        W17619  11.329  42.489   1.224
45949W        W17620  44.563  31.674   3.084
45950W        W17621  41.851  43.344  10.579
45951W        W17622  29.905   0.781   4.081
45952W        W17623  42.933  33.428  14.570
45953W        W17624  26.490   3.254   0.415
45954W        W17625  13.899  33.115   4.372
45955W        W17626  40.028  39.583   1.145
45956W        W17627   6.662  12.069  13.468
45957W        W17628   3.391  16.377  11.566
45958W        W17629  27.569  43.962  13.430
45959W        W17630   7.214  22.668  11.071
45960W        W17631  34.559  19.768   3.246
45961W        W17632  40.584  19.125   4.568
45962W        W17633  18.512   0.231   4.749
45963W        W17634  23.572  30.913   2.300
45964W        W17635   6.827  12.734  11.122
45965W        W17636   9.369  31.308  14.461
45966W        W17637  14.226  22.357   4.086
45967W        W17638  34.038  10.300   2.836
45968W        W17639   4.022  43.647   1.310
45969W        W17640  21.162  39.729  10.924
45970W        W17641  33.597  24.918   3.412
45971W        W17642  12.600  23.630  13.037
45972W        W17643   0.737  27.960   1.656
45973W        W17644   6.923  22.406   4.866
45974W        W17645  27.578   8.389  11.750
45975W        W17646  26.024  10.547   4.493
45976W        W17647   2.226   8.349  13.897
45977W        W17648  21.987   6.105  12.862
45978W        W17649  17.103  32.320  11.228
45979W        W17650  11.254  19.760  13.131
45980W        W17651  15.689  39.002   3.260
45981W        W17652  43.727   2.165   0.401
45982W        W17653   7.367  35.069   2.207
45983W        W17654  32.086  28.671   0.841
45984W        W17655   8.879   2.481  11.601
45985W        W17656  17.483  27.452   1.364
45986W        W17657  39.105  19.173  13.882
45987W        W17658   6.156   4.760   0.772
45988W        W17659  28.828  37.293   1.152
45989W        W17660  17.210  21.745   2.395
45990W        W17661  23.650   1.939   2.167
45991W        W17662   8.293   0.486   3.154
45992W        W17663   1.464   1.500   2.303
45993W        W17664  38.676   0.827  12.681
45994W        W17665  16.590   3.910  11.121
45995W        W17666  12.020  22.627   4.170
45996W        W17667  32.891   1.086  13.003
45997W        W17668  30.901  11.003  12.966
45998W        W17669  13.744  22.560   3.322
45999W        W17670   4.428  42.227   0.269
46000W        W17671   0.268   6.318  11.553
46001W        W17672  44.717  40.359   0.050
46002W        W17673  37.101  31.032   3.717
46003W        W17674  22.592   2.918   2.450
46004W        W17675  22.362  21.683   3.646
46005W        W17676  44.922  33.758  13.164
46006W        W17677  44.063  31.088  12.663
46007W        W17678   0.025   2.264   1.336
46008W        W17679  16.013  30.524   2.808
46009W        W17680  19.730  10.176   1.242
46010W        W17681   3.993   3.406  10.279
46011W        W17682  26.011  31.425   0.766
46012W        W17683   0.464  41.077  14.858
46013W        W17684  28.592  31.955   2.611
46014W        W17685  35.509  37.804  10.672
46015W        W17686  17.626  22.972   3.317
46016W        W17687  14.020  38.533  12.079
46017W        W17688  34.498  31.487  14.269
46018W        W17689  26.204   6.327   1.352
46019W        W17690  21.482  11.783  14.723
46020W        W17691  27.167   5.117   2.948
46021W        W17692  27.573   3.718   1.387
46022W        W17693  35.592  24.005  14.959
46023W        W17694  42.070   0.273  11.278
46024W        W17695  17.712  32.241   2.914
46025W        W17696  23.189   3.851  10.966
46026W        W17697   2.295  27.924   1.326
46027W        W17698  26.452  10.826  11.900
46028W        W17699  42.710  25.578  11.209
46029W        W17700  31.719  21.306   1.419
46030W        W17701  43.384  37.494  13.223
46031W        W17702  26.490  16.112  11.866
46032W        W17703  36.818  24.108   1.861
46033W        W17704  26.999  13.886  10.935
46034W        W17705  32.903   1.948  13.941
46035W        W17706  33.226  23.127   2.912
46036W        W17707  34.773  39.835  11.096
46037W        W17708   2.417  23.919  11.070
46038W        W17709  10.183   0.781  14.938
46039W        W17710  23.865  18.024  12.970
46040W        W17711  14.711   8.890   3.667
46041W        W17712  26.676   0.646   1.723
46042W        W17713  24.242  20.819  14.947
46043W        W17714  12.103  40.088  11.782
46044W        W17715  15.848   1.832   0.378
46045W        W17716  43.907  12.217   1.526
46046W        W17717  41.253  16.305   4.279
46047W        W17718  27.911  36.232   2.728
46048W        W17719  13.858  24.966   4.657
46049W        W17720  15.240  35.992  14.865
46050W        W17721   1.399  13.351  13.841
46051W        W17722  28.466  36.162  10.498
46052W        W17723  31.386  12.459  13.057
46053W        W17724  31.854  24.141   4.245
46054W        W17725  38.862  38.862   4.236
46055W        W17726  18.779  32.730  14.465
46056W        W17727  31.444  33.501   2.296
46057W        W17728  44.491  36.878   2.628
46058W        W17729   6.141   9.235   0.262
46059W        W17730  38.014  17.239   2.688
46060W        W17731  32.950   4.274  14.814
46061W        W17732   5.261  39.501  13.251
46062W        W17733   8.376  19.849  12.781
46063W        W17734  34.646  43.912  11.459
46064W        W17735  16.705  18.200   3.127
46065W        W17736  43.429  20.786  13.213
46066W        W17737  44.301  39.552   0.813
46067W        W17738  43.151  44.181   3.848
46068W        W17739  39.230  16.221  12.146
46069W        W17740   0.852  39.582   1.784
46070W        W17741  41.503   5.403   3.905
46071W        W17742  42.532   1.777  13.445
46072W        W17743  22.984  22.003  13.744
46073W        W17744  35.602  37.059  13.675
46074W        W17745  13.389  12.722  12.580
46075W        W17746  30.438   2.489   1.062
46076W        W17747  41.251  23.196   5.269
46077W        W17748  43.737  24.270  14.266
46078W        W17749  17.731   6.775   0.249
46079W        W17750  13.718  35.666  11.860
46080W        W17751  23.451   3.904  14.476
46081W        W17752  36.100  33.064  10.953
46082W        W17753   7.248  26.055   3.214
46083W        W17754  17.202  11.867   3.371
46084W        W17755  18.805  22.146  11.296
46085W        W17756  21.197  30.268  10.610
46086W        W17757  38.055  42.981   0.731
46087W        W17758  16.775   9.403  13.834
46088W        W17759  27.947  22.582   1.317
46089W        W17760  10.693  17.220   0.298
46090W        W17761   5.147  29.888  11.975
46091W        W17762  13.255   1.530   2.877
46092W        W17763   3.247   9.765   4.420
46093W        W17764  13.263  23.101  14.519
46094W        W17765  10.128  44.446   1.343
46095W        W17766  16.588  21.537  10.607
46096W        W17767  35.396   2.247   3.366
46097W        W17768   3.342  20.099   5.376
46098W        W17769   5.417  13.238   2.299
46099W        W17770  37.042  16.983  12.960
46100W        W17771   7.373   2.812  14.816
46101W        W17772  31.919  13.670   1.716
46102W        W17773  36.383  41.828  12.685
46103W        W17774  44.110  22.444   3.114
46104W        W17775   7.702  32.274  12.904
46105W        W17776  15.097   3.976   4.283
46106W        W17777   5.406  10.152  13.253
46107W        W17778   9.154  19.589  11.719
46108W        W17779  42.297  11.243   1.404
46109W        W17780  24.906  23.899   1.322
46110W        W17781  24.679  38.398   2.497
46111W        W17782   5.743   6.926  13.425
46112W        W17783  38.294   4.562   3.828
46113W        W17784  13.266  40.781   3.164
46114W        W17785  24.684  11.994  13.006
46115W        W17786  37.381  41.357   1.525
46116W        W17787  13.344  22.557  13.350
46117W        W17788  26.678  10.735  13.924
46118W        W17789  14.587  24.581  13.295
46119W        W17790  28.032  21.283   3.067
46120W        W17791  28.454  42.319  12.906
46121W        W17792  20.649  29.089   2.694
46122W        W17793   0.733  23.680   4.838
46123W        W17794   7.085  24.459  13.877
46124W        W17795   8.458  11.695   1.829
46125W        W17796  33.098  42.560  10.704
46126W        W17797  15.679  37.351   3.666
46127W        W17798  27.001   1.445  10.973
46128W        W17799   9.493  18.013   3.377
46129W        W17800  11.342   7.100   2.993
46130W        W17801   3.656  35.704  13.070
46131W        W17802   8.621  32.886   3.699
46132W        W17803  41.297  11.631  11.081
46133W        W17804  18.199   5.166  11.732
46134W        W17805  19.698  14.645  11.767
46135W        W17806  24.809  26.099  11.660
46136W        W17807  26.726  42.846   0.063
46137W        W17808  20.189  15.735   3.067
46138W        W17809   3.279  26.398  11.665
46139W        W17810  25.832  10.262   4.902
46140W        W17811  44.297  18.491   3.641
46141W        W17812  14.442  20.696  13.819
46142W        W17813   2.959   0.688  11.834
46143W        W17814  35.503  28.081  11.418
46144W        W17815  28.540  34.849   2.487
46145W        W17816  12.575  25.247   1.781
46146W        W17817  43.876  32.915  12.027
46147W        W17818  24.689  38.756   9.472
46148W        W17819  44.735  36.529  10.368
46149W        W17820  36.796  10.468   1.392
46150W        W17821  32.902  22.995   1.412
46151W        W17822   0.777  39.567  11.481
46152W        W17823  20.620  32.593  12.066
46153W        W17824  25.984  11.160   1.310
46154W        W17825  27.007  10.075   3.426
46155W        W17826  13.948  36.015   1.256
46156W        W17827  14.703  17.841   1.225
46157W        W17828  42.950   7.664   4.562
46158W        W17829  13.511  33.315  11.747
46159W        W17830  19.570  35.106  14.048
46160W        W17831  25.365  17.266  13.986
46161W        W17832  37.970  15.252  10.693
46162W        W17833   4.699  39.055  10.711
46163W        W17834   2.295  24.102  13.913
46164W        W17835  32.945  42.794   1.302
46165W        W17836  11.319  30.108  12.052
46166W        W17837  24.508  29.563   2.644
46167W        W17838  31.243  34.022   2.453
46168W        W17839  25.244  26.496  11.111
46169W        W17840  40.020  23.936   0.976
46170W        W17841   5.724  39.939   0.809
46171W        W17842  25.765  23.186   1.950
46172W        W17843  29.262  39.849   5.030
46173W        W17844  34.116  16.395   1.772
46174W        W17845  15.661  41.896  11.053
46175W        W17846  21.605   0.960   3.801
46176W        W17847  25.097   4.843   4.148
46177W        W17848  23.696  21.522   1.971
46178W        W17849  39.411   2.198   2.855
46179W        W17850  14.386  44.743  10.917
46180W        W17851  39.775  25.839  11.627
46181W        W17852  44.772  14.835   1.412
46182W        W17853  41.790  40.348  13.501
46183W        W17854  29.922  22.114   3.742
46184W        W17855  13.510  24.724  14.684
46185W        W17856   0.959   4.165  13.505
46186W        W17857  32.144   8.944  14.553
46187W        W17858  38.874  25.428  14.435
46188W        W17859  27.955  11.598   0.078
46189W        W17860  37.198  19.739   3.405
46190W        W17861  44.771  15.418   0.269
46191W        W17862  25.897  18.578  14.907
46192W        W17863   4.531   1.444  11.076
46193W        W17864  43.477  14.139  10.827
46194W        W17865  41.456  40.344  11.994
46195W        W17866  17.337   0.035  10.860
46196W        W17867  25.897  36.664  12.761
46197W        W17868   4.235  33.156  13.037
46198W        W17869  37.070   8.305   1.829
46199W        W17870  38.621  36.522   2.484
46200W        W17871  41.541   7.941  14.326
46201W        W17872   9.877  29.852   4.162
46202W        W17873  19.663  26.187   1.517
46203W        W17874  29.871   3.682  14.788
46204W        W17875  27.616   3.484  14.506
46205W        W17876  32.355  20.069  10.351
46206W        W17877   7.623  36.352   2.625
46207W        W17878   4.896   2.334   2.201
46208W        W17879  33.074  19.145   0.704
46209W        W17880  38.537  28.634   2.301
46210W        W17881  17.562  33.964  13.092
46211W        W17882   5.597  13.001  12.702
46212W        W17883   0.965  30.858   4.589
46213W        W17884  13.772  11.371   0.911
46214W        W17885  15.361  37.354  14.793
46215W        W17886  21.196  19.468  10.455
46216W        W17887   0.923  11.010   3.313
46217W        W17888   0.312  22.596  10.136
46218W        W17889  25.763  34.425  10.758
46219W        W17890  36.562  14.667  10.682
46220W        W17891  29.029  23.704  13.001
46221W        W17892   4.604  11.379  12.468
46222W        W17893  32.352  23.082   2.766
46223W        W17894  42.339  19.299   4.528
46224W        W17895  42.524  37.424   2.806
46225W        W17896   6.504  34.905   2.820
46226W        W17897  12.412   3.908   2.814
46227W        W17898  26.147   4.505   2.021
46228W        W17899  44.023  36.449  13.736
46229W        W17900   5.883  10.643   2.726
46230W        W17901   5.805   7.468   0.303
46231W        W17902  23.556  30.368  14.457
46232W        W17903   7.927  30.889   3.215
46233W        W17904  14.819  36.222  14.305
46234W        W17905  28.521  19.151   1.777
46235W        W17906  14.099  41.500   2.698
46236W        W17907  37.371  19.799  13.831
46237W        W17908  26.955  21.228   0.429
46238W        W17909  31.725  17.612  13.832
46239W        W17910  39.794  42.429   0.269
46240W        W17911  44.819  28.506  13.713
46241W        W17912  34.480  13.612  13.038
46242W        W17913  22.785  39.275   3.805
46243W        W17914  34.603  43.880   3.856
46244W        W17915  32.899   4.527   4.544
46245W        W17916  24.494   7.764  13.029
46246W        W17917  12.158   3.642   3.191
46247W        W17918  16.071  17.072  13.837
46248W        W17919  12.501  35.896   4.146
46249W        W17920  16.646  12.706  13.101
46250W        W17921  10.416  26.942   2.396
46251W        W17922   7.333   8.512   2.228
46252W        W17923  13.869  19.840   4.138
46253W        W17924   8.677  35.970   3.256
46254W        W17925   0.795  40.205   4.857
46255W        W17926  13.366  44.568  13.049
46256W        W17927  26.421  11.336  12.009
46257W        W17928  27.535  34.931   2.411
46258W        W17929  40.350  30.943   4.809
46259W        W17930  34.553  16.107  10.460
46260W        W17931  29.326   1.921  13.834
46261W        W17932   6.280   4.754  12.028
46262W        W17933  29.345  25.965   2.625
46263W        W17934  29.858  11.263   3.119
46264W        W17935  43.860  10.891  10.583
46265W        W17936  40.385  25.502   2.380
46266W        W17937  43.824  41.198   5.443
46267W        W17938  23.093   0.054  14.474
46268W        W17939  18.194  35.506   0.930
46269W        W17940  11.977   8.214   1.831
46270W        W17941  16.388  16.691   1.852
46271W        W17942  35.994  33.621  13.037
46272W        W17943   1.206   3.682  14.450
46273W        W17944  12.166  33.209  10.994
46274W        W17945  10.196  18.782   3.248
46275W        W17946  18.772  38.297   2.340
46276W        W17947  30.625   5.410   4.786
46277W        W17948   5.389  26.402  12.912
46278W        W17949  31.573  11.846   1.247
46279W        W17950  23.508   6.753  12.044
46280W        W17951   3.699  32.822   2.810
46281W        W17952  15.247  27.184   0.790
46282W        W17953   4.855   9.008   2.293
46283W        W17954  18.300  33.181  12.445
46284W        W17955  39.289  11.839   1.758
46285W        W17956   9.330  31.862  13.632
46286W        W17957   5.612  29.206   4.589
46287W        W17958   1.823  42.873  11.422
46288W        W17959  17.249   3.896  13.508
46289W        W17960  36.997   9.609  10.997
46290W        W17961  24.872   3.438   4.495
46291W        W17962   6.565   1.448  14.870
46292W        W17963  30.105  32.413   1.905
46293W        W17964  38.914  25.514   4.334
46294W        W17965   5.338  10.610  13.045
46295W        W17966  37.935  28.698  11.681
46296W        W17967  19.267  21.080   2.660
46297W        W17968  37.880  33.956  13.787
46298W        W17969  19.360  15.119  13.376
46299W        W17970  37.321   8.874  13.951
46300W        W17971  39.313  28.189   2.196
46301W        W17972  33.664  37.436   0.256
46302W        W17973   9.647  20.613  11.888
46303W        W17974  17.156  39.756   4.471
46304W        W17975  32.608  40.363   4.258
46305W        W17976  38.350   8.690   0.137
46306W        W17977   9.555  30.154  14.867
46307W        W17978  10.217   1.361   4.661
46308W        W17979  12.668   5.893  11.767
46309W        W17980  24.116   9.927   2.411
46310W        W17981  27.720  36.951  12.121
46311W        W17982  33.146  38.361  11.611
46312W        W17983  44.196   7.453   0.841
46313W        W17984   1.179  17.731   2.276
46314W        W17985  44.285  24.010  10.644
46315W        W17986  40.732  40.920   1.390
46316W        W17987  32.497  15.001  14.944
46317W        W17988  35.489  10.949   0.909
46318W        W17989   9.315  20.524  14.074
46319W        W17990  23.573  27.063  11.942
46320W        W17991  33.470  14.212  11.402
46321W        W17992  17.274  13.588  12.974
46322W        W17993  17.617   2.578  12.487
46323W        W17994  43.884  25.232  10.689
46324W        W17995  24.429  29.974   2.321
46325W        W17996   4.792  23.278  14.926
46326W        W17997  31.573  29.119   4.518
46327W        W17998  21.550  44.990  13.614
46328W        W17999  12.628  42.777  12.974
46329W        W18000  17.533  37.104  13.348
46330W        W18001  23.703  31.978   4.490
46331W        W18002  36.937  23.536  13.166
46332W        W18003  11.848  29.381  14.012
46333W        W18004  31.077  35.528  12.779
46334W        W18005  16.629   2.394  11.474
46335W        W18006  16.356  25.273  12.031
46336W        W18007  36.454  11.499  13.362
46337W        W18008  44.923   4.139  12.417
46338W        W18009  41.461  26.618   2.972
46339W        W18010  41.358  40.083  12.408
46340W        W18011  29.085   4.377   0.430
46341W        W18012   4.411  20.186  12.619
46342W        W18013   4.844  36.861  11.008
46343W        W18014  29.911  26.041   0.422
46344W        W18015  18.311  18.174  11.230
46345W        W18016  25.767  32.566   2.675
46346W        W18017  22.419  33.156   3.768
46347W        W18018  14.877  43.553  14.774
46348W        W18019  36.873   7.822  12.932
46349W        W18020  13.200  40.484   2.730
46350W        W18021  31.511  27.165  10.900
46351W        W18022  31.123  31.150   0.728
46352W        W18023  20.627  23.974   2.018
46353W        W18024  12.783  37.456  10.818
46354W        W18025  13.654  13.693   3.676
46355W        W18026  28.537  37.034  13.255
46356W        W18027   7.537  17.928  11.195
46357W        W18028  40.171   1.497   1.481
46358W        W18029  13.095  10.373  13.486
46359W        W18030   4.281  24.889  13.964
46360W        W18031  22.721  32.451  14.711
46361W        W18032  15.216  40.316   3.250
46362W        W18033  17.002   5.983  14.627
46363W        W18034  15.706  17.094   3.352
46364W        W18035  11.663  17.042  11.479
46365W        W18036  12.674   0.404   2.712
46366W        W18037  11.414  27.174  14.807
46367W        W18038  16.578  41.902   3.907
46368W        W18039  36.837  35.418  14.550
46369W        W18040   8.179  33.335   1.516
46370W        W18041  30.471   0.768  12.985
46371W        W18042  21.348  34.640   3.403
46372W        W18043   4.665  35.987  10.871
46373W        W18044  27.158   0.496   0.858
46374W        W18045  42.877   4.468  14.717
46375W        W18046  15.622  32.557   2.335
46376W        W18047  24.107  32.670  13.507
46377W        W18048  16.726  31.781   3.362
46378W        W18049  32.144  41.464   2.351
46379W        W18050   7.423  24.198  11.223
46380W        W18051  22.654  16.900  12.408
46381W        W18052  39.325  20.136   3.704
46382W        W18053   1.332  43.240   4.312
46383W        W18054  18.143  20.554   3.377
46384W        W18055  33.636   6.743   4.789
46385W        W18056  31.498  40.895   2.624
46386W        W18057  29.781   6.745  14.763
46387W        W18058   3.700   9.124   4.729
46388W        W18059  15.758  12.251  12.046
46389W        W18060  43.346  32.810  11.983
46390W        W18061  23.248  24.399  11.550
46391W        W18062  11.367   9.820  14.837
46392W        W18063  12.226  11.448  14.295
46393W        W18064  22.699   6.585   3.714
46394W        W18065   6.495  16.475   3.240
46395W        W18066   6.753   4.326   4.402
46396W        W18067  41.820  31.049  12.973
46397W        W18068  21.634  10.568   1.262
46398W        W18069  20.991  42.436   2.873
46399W        W18070  11.625  11.177   2.579
46400W        W18071  32.166  31.920  14.149
46401W        W18072   6.249  24.804   3.709
46402W        W18073  28.987   2.942  11.497
46403W        W18074  44.430  38.151   3.228
46404W        W18075  20.615  19.688   1.902
46405W        W18076  34.062  25.916   2.476
46406W        W18077  31.914  39.304   3.744
46407W        W18078   0.054  26.023  12.063
46408W        W18079  11.639  41.057   2.135
46409W        W18080  37.109  19.376  10.928
46410W        W18081  30.669  34.311  12.779
46411W        W18082  38.808  11.062   0.878
46412W        W18083  13.979  25.188  12.458
46413W        W18084  10.667  39.488   0.079
46414W        W18085  26.048  36.383   3.116
46415W        W18086  29.540  25.143   2.341
46416W        W18087  32.692   7.425   2.869
46417W        W18088  34.395  12.518   2.838
46418W        W18089  40.879  40.526   2.264
46419W        W18090  41.914  11.046  12.863
46420W        W18091  39.690  42.355   1.669
46421W        W18092   5.650  41.340  12.159
46422W        W18093  36.849  32.490  10.691
46423W        W18094   7.324  21.258   2.203
46424W        W18095  44.009  38.083   3.799
46425W        W18096  15.285  42.970  13.759
46426W        W18097  16.746  34.520   2.761
46427W        W18098  22.194   0.387  11.516
46428W        W18099  22.629  14.153   0.308
46429W        W18100  23.452  32.433   0.964
46430W        W18101  16.587  21.004   3.351
46431W        W18102  16.531  12.272   1.289
46432W        W18103   8.379  25.640   1.740
46433W        W18104   7.372  16.376   4.339
46434W        W18105  39.385  24.144   0.748
46435W        W18106  33.423   3.790  10.887
46436W        W18107  30.994  13.924   2.187
46437W        W18108  25.629  36.481   0.499
46438W        W18109  17.178  21.553  13.417
46439W        W18110  11.348  28.270  10.677
46440W        W18111  40.504  15.066  11.573
46441W        W18112  33.874  22.210  12.530
46442W        W18113   5.988  40.990  12.991
46443W        W18114  42.475  36.622   0.854
46444W        W18115   3.147  27.189  11.779
46445W        W18116  20.946  32.620  12.481
46446W        W18117  20.040  27.229   2.598
46447W        W18118   9.141  38.951   3.410
46448W        W18119  31.395   8.249   3.693
46449W        W18120  26.843  16.506   1.687
46450W        W18121  41.949  33.109   4.503
46451W        W18122   1.160  37.395   0.727
46452W        W18123  22.807  41.275   9.481
46453W        W18124  36.576  17.348   5.346
46454W        W18125  16.320  35.603  13.452
46455W        W18126  13.388  38.560  11.005
46456W        W18127  24.153  22.912   3.364
46457W        W18128  29.397   4.958  11.906
46458W        W18129  15.682   8.137   1.691
46459W        W18130  18.175  39.304   0.356
46460W        W18131  38.892   0.876   2.658
46461W        W18132   6.905  19.469  14.749
46462W        W18133  25.650   2.320   1.296
46463W        W18134   6.615  41.299   2.793
46464W        W18135  22.827  30.039  13.970
46465W        W18136   7.434  16.083   1.831
46466W        W18137  38.771  39.935   3.912
46467W        W18138  33.995   7.280   1.019
46468W        W18139  15.689   0.426   0.531
46469W        W18140  32.415  26.212   3.991
46470W        W18141  41.482   5.412   2.442
46471W        W18142   8.850  31.505   1.946
46472W        W18143  15.798  39.054  14.990
46473W        W18144  23.926  38.009   4.307
46474W        W18145  33.523  13.947  12.234
46475W        W18146  43.952  23.594   5.279
46476W        W18147  20.400  38.032   0.030
46477W        W18148  34.288  36.871  10.339
46478W        W18149  42.728  32.095   4.204
46479W        W18150  29.927  16.498   2.030
46480W        W18151  31.111  32.213  11.577
46481W        W18152  24.706  34.101  10.531
46482W        W18153  43.495  14.023  14.354
46483W        W18154  22.518  26.040  10.368
46484W        W18155  34.557   9.401  14.282
46485W        W18156  17.017  39.995   1.915
46486W        W18157   7.873  25.169   2.045
46487W        W18158   3.943  33.601  13.919
46488W        W18159  22.560   0.354   4.747
46489W        W18160   2.720  31.549   0.919
46490W        W18161  20.132  11.119   0.420
46491W        W18162  30.416   4.689  11.986
46492W        W18163   9.771   8.820   3.632
46493W        W18164  30.904  24.999  13.465
46494W        W18165  18.218  24.181  12.242
46495W        W18166   5.981  21.188   1.852
46496W        W18167  19.175  21.262  12.849
46497W        W18168  38.966  11.189   2.945
46498W        W18169   4.129   2.310   2.429
46499W        W18170  24.935  41.791  13.087
46500W        W18171   9.932   4.347  11.677
46501W        W18172  43.446  19.547   1.648
46502W        W18173  39.393  29.194   3.653
46503W        W18174  18.802  20.119   3.813
46504W        W18175  28.864  31.220   1.876
46505W        W18176  25.375  38.834   3.361
46506W        W18177  35.040  28.915  14.817
46507W        W18178  30.029  12.383   0.964
46508W        W18179  44.482  36.121  10.870
46509W        W18180   9.362  21.040  12.356
46510W        W18181  22.095  33.284   0.498
46511W        W18182  28.932  42.439  11.746
46512W        W18183  16.719  16.218  14.354
46513W        W18184  27.490  22.795   1.216
46514W        W18185   8.381   1.829   3.687
46515W        W18186   0.556  13.654   5.069
46516W        W18187  34.457  29.088  10.354
46517W        W18188  32.966  10.232   0.402
46518W        W18189  24.644   4.430  13.140
46519W        W18190  10.993  18.291  13.913
46520W        W18191  41.358  22.739  11.154
46521W        W18192  24.959  20.913  12.981
46522W        W18193  40.422  14.790   2.737
46523W        W18194  11.728  18.076   0.253
46524W        W18195   7.886   3.510  13.942
46525W        W18196  18.745  15.752   1.836
46526W        W18197  16.370  22.625  10.650
46527W        W18198  19.822  36.787  13.360
46528W        W18199  26.933  39.541   0.201
46529W        W18200  26.531   4.408  13.510
46530W        W18201  25.272  14.829   3.207
46531W        W18202   3.744   2.834   4.199
46532W        W18203  35.351  39.800   1.681
46533W        W18204  42.406   6.237   4.706
46534W        W18205  37.567  18.551   3.157
46535W        W18206  20.259  13.983   5.044
46536W        W18207  22.494   9.692  12.872
46537W        W18208  22.073  29.135  12.560
46538W        W18209  41.585  23.725   0.870
46539W        W18210   4.980  26.120  13.050
46540W        W18211   6.768   4.904  12.784
46541W        W18212  40.329  20.359   0.543
46542W        W18213  10.122  40.998   4.691
46543W        W18214  14.894   5.485  11.688
46544W        W18215   3.954  10.855  14.315
46545W        W18216  14.185  30.205   3.604
46546W        W18217  22.654  44.047   2.055
46547W        W18218  37.935  24.252   0.228
46548W        W18219  23.095   5.915  14.477
46549W        W18220  33.652  26.247   4.415
46550W        W18221  28.157  36.225  12.408
46551W        W18222  40.359  26.497   1.245
46552W        W18223   4.660  16.697  10.402
46553W        W18224  34.599   5.316   4.781
46554W        W18225  30.018  23.734   2.398
46555W        W18226  32.923   9.616  11.687
46556W        W18227  41.963  40.519  11.930
46557W        W18228  41.267  14.593  11.684
46558W        W18229  23.597  40.809   0.392
46559W        W18230  18.287   9.324   2.849
46560W        W18231   6.523  44.218  11.627
46561W        W18232  19.594  15.326   3.605
46562W        W18233   0.280  30.933   1.856
46563W        W18234  13.386  36.018  11.455
46564W        W18235  36.257   3.155  11.492
46565W        W18236  41.491  35.567  12.426
46566W        W18237  35.545  36.154  14.080
46567W        W18238  22.712  14.237   4.122
46568W        W18239  44.759  42.761  13.482
46569W        W18240  42.707   3.787  12.928
46570W        W18241  30.604  31.675  13.018
46571W        W18242  43.749  20.832  12.476
46572W        W18243  32.949   1.959   2.902
46573W        W18244  28.222  10.794  14.306
46574W        W18245  40.015  22.599  11.439
46575W        W18246  14.655  43.232   0.370
46576W        W18247   1.884  40.160   2.838
46577W        W18248  44.000  16.200   3.919
46578W        W18249   7.651  37.616   9.998
46579W        W18250  35.562   5.388   2.431
46580W        W18251   9.210   5.818  10.685
46581W        W18252  10.378   2.759   2.431
46582W        W18253  16.299   0.515  11.573
46583W        W18254  32.704  25.200   0.391
46584W        W18255  42.001   7.185   1.038
46585W        W18256   6.990  35.449   3.156
46586W        W18257   6.325  35.364   1.995
46587W        W18258  10.654  42.925  13.350
46588W        W18259  19.844   5.376  12.868
46589W        W18260  42.299  16.024  14.024
46590W        W18261  30.198  27.427   1.609
46591W        W18262   0.056  39.555  13.861
46592W        W18263  22.271  44.368   4.632
46593W        W18264   8.906  26.566   3.318
46594W        W18265  37.387  40.961   3.226
46595W        W18266  21.575  43.464  10.706
46596W        W18267  32.576   2.524  13.268
46597W        W18268  30.915  25.964   1.714
46598W        W18269  27.951  14.757   3.318
46599W        W18270   2.726  24.591   0.802
46600W        W18271  12.538  37.455   4.666
46601W        W18272  22.437  25.612   0.276
46602W        W18273   6.285  10.353  13.399
46603W        W18274   5.957  38.438  11.698
46604W        W18275  37.568  17.572  13.261
46605W        W18276  32.010   2.759   4.485
46606W        W18277  21.252  14.334  13.967
46607W        W18278  20.590   7.593   1.920
46608W        W18279  13.656  15.795  11.166
46609W        W18280  29.891   2.680  13.822
46610W        W18281  37.364   6.112   2.322
46611W        W18282  24.987  21.200   0.257
46612W        W18283  10.825  23.090  10.507
46613W        W18284  28.054   9.582  11.436
46614W        W18285  14.377   9.138   2.306
46615W        W18286   3.226   1.509  13.342
46616W        W18287   9.576  26.075  13.913
46617W        W18288  20.056  11.941  13.095
46618W        W18289  22.636  30.023  12.061
46619W        W18290  38.525   0.999   1.378
46620W        W18291  16.158  23.242   3.361
46621W        W18292  30.465  20.938   0.382
46622W        W18293  11.795   7.480  12.590
46623W        W18294  11.128  27.645   1.313
46624W        W18295  14.750  19.705  11.194
46625W        W18296  28.150   9.618  10.615
46626W        W18297  30.804   2.407   4.139
46627W        W18298  26.068  37.083  12.994
46628W        W18299  16.667   8.569   2.625
46629W        W18300  21.718   2.432  12.992
46630W        W18301  24.285  18.712   0.213
46631W        W18302   1.468   3.270  13.256
46632W        W18303  43.006  23.886   4.528
46633W        W18304   0.613  32.928   4.834
46634W        W18305   1.429  42.955   3.326
46635W        W18306   8.393  23.017  13.334
46636W        W18307  11.391  34.116   2.272
46637W        W18308  33.607   1.306   1.264
46638W        W18309  43.345   2.049   4.098
46639W        W18310  14.996  23.439   4.347
46640W        W18311  23.047  36.514   4.631
46641W        W18312   5.564   3.013  11.427
46642W        W18313  39.784  23.513   4.746
46643W        W18314   4.423   2.020   1.418
46644W        W18315  13.336  22.603   2.625
46645W        W18316   6.376  28.915   2.676
46646W        W18317  27.775   1.246   2.643
46647W        W18318  26.167  31.602  13.035
46648W        W18319  30.477  36.063  12.386
46649W        W18320  16.253  36.518  14.509
46650W        W18321  13.121  32.773  12.874
46651W        W18322  37.758  35.800   5.235
46652W        W18323  42.078  29.546   1.674
46653W        W18324   1.387  42.895  11.692
46654W        W18325  37.654  16.299  13.493
46655W        W18326  36.394  12.794   1.264
46656W        W18327  19.283   3.002  12.455
46657W        W18328  20.297  23.158   3.076
46658W        W18329  44.063  36.611  14.753
46659W        W18330  41.749   0.426   2.731
46660W        W18331   7.954  23.948   3.442
46661W        W18332   6.927   5.300  11.888
46662W        W18333   2.901  17.679  14.281
46663W        W18334  20.999  31.164   1.460
46664W        W18335  37.757   3.956  12.021
46665W        W18336  42.323  34.058   0.488
46666W        W18337  27.121  30.248   3.716
46667W        W18338  37.957  40.732  13.216
46668W        W18339  27.592   4.678   4.276
46669W        W18340   0.590  23.070  10.274
46670W        W18341  33.962  19.590   1.337
46671W        W18342  26.015  24.615   0.868
46672W        W18343   2.212  33.514  12.002
46673W        W18344   6.898  19.607   2.619
46674W        W18345  12.834  43.806  13.062
46675W        W18346  41.381  35.379   1.368
46676W        W18347   4.217  33.556   3.855
46677W        W18348  37.280   2.443  13.661
46678W        W18349  40.216   1.552   3.717
46679W        W18350  29.749  19.074   2.557
46680W        W18351  37.387  37.339  10.711
46681W        W18352   1.312  40.509   3.726
46682W        W18353  24.954  35.357   1.493
46683W        W18354  17.338  15.248   0.806
46684W        W18355  25.163  37.693  12.071
46685W        W18356  37.595   6.679  11.427
46686W        W18357  40.108  32.018  12.791
46687W        W18358  25.775  28.420  11.625
46688W        W18359  44.189   7.635  12.074
46689W        W18360   3.655  19.526  12.820
46690W        W18361  37.389  14.283  11.503
46691W        W18362  25.208   8.689  11.179
46692W        W18363  13.148  37.823   0.703
46693W        W18364  21.504  33.076  10.734
46694W        W18365  34.379  14.173   2.284
46695W        W18366  12.815  25.115  14.262
46696W        W18367  20.113  16.837   2.368
46697W        W18368  17.199   5.360  12.874
46698W        W18369  13.449  40.329  11.917
46699W        W18370  40.126  33.589   2.281
46700W        W18371  41.852   2.398   3.782
46701W        W18372  21.511  44.547  12.815
46702W        W18373  12.853  20.989  14.582
46703W        W18374   0.677  30.935  11.563
46704W        W18375  23.269  21.103   3.176
46705W        W18376   6.190   7.159  13.613
46706W        W18377   9.059   8.733   4.961
46707W        W18378   3.436   6.168   2.175
46708W        W18379  21.532  24.036  13.894
46709W        W18380  29.157  30.553  13.105
46710W        W18381  37.437  21.214  10.905
46711W        W18382   3.507  33.418   2.091
46712W        W18383  42.458  12.637  10.613
46713W        W18384   8.187  18.237   3.297
46714W        W18385  38.702  37.887   3.820
46715W        W18386  40.456  43.301   1.289
46716W        W18387   9.344  15.698  13.356
46717W        W18388   5.847   1.014   0.800
46718W        W18389  31.673  41.706  11.597
46719W        W18390   1.695   1.331   5.056
46720W        W18391   0.423  25.230   1.907
46721W        W18392  25.989  30.657  13.454
46722W        W18393   4.493   5.966  11.660
46723W        W18394  37.180  40.592  14.616
46724W        W18395  24.820  23.484   4.511
46725W        W18396  18.905  26.629  12.985
46726W        W18397  30.427  21.555   1.720
46727W        W18398  35.543  28.699  14.125
46728W        W18399  23.066  12.103   0.251
46729W        W18400  14.649   1.810  12.493
46730W        W18401  12.231  38.155  10.669
46731W        W18402  17.587   4.984  10.582
46732W        W18403  19.603  11.785   9.521
46733W        W18404  23.519   7.581  13.054
46734W        W18405  35.723  13.084  11.937
46735W        W18406  40.465   6.974   1.942
46736W        W18407  31.922  23.295  10.065
46737W        W18408   3.429  42.584   2.283
46738W        W18409  19.168  44.120  14.105
46739W        W18410  11.058   5.855  13.812
46740W        W18411  44.476  13.532   1.278
46741W        W18412   7.923  25.385   1.529
46742W        W18413  11.746   0.528   1.270
46743W        W18414   0.491  39.576   1.170
46744W        W18415   2.575  28.706   4.220
46745W        W18416   4.741  39.829  13.260
46746W        W18417  40.397   4.454   2.280
46747W        W18418  30.377  40.863  13.362
46748W        W18419  36.359  43.876   4.858
46749W        W18420   2.423  29.394  11.565
46750W        W18421  20.188  26.617   1.768
46751W        W18422  27.668  35.520   1.314
46752W        W18423   6.801  38.133   1.192
46753W        W18424  16.416  31.940   0.979
46754W        W18425   3.435  20.557  11.895
46755W        W18426  36.999  31.163   2.640
46756W        W18427  33.170  33.258   1.643
46757W        W18428  44.683  10.301  13.088
46758W        W18429  33.505  32.834   2.687
46759W        W18430  34.088  44.376   0.857
46760W        W18431  27.792  12.202  10.163
46761W        W18432  44.867  22.067  14.090
46762W        W18433   4.199  43.960   0.490
46763W        W18434   7.367  34.914   1.702
46764W        W18435  34.369  34.092   2.659
46765W        W18436  15.647  10.855   3.647
46766W        W18437   6.681  15.735   3.684
46767W        W18438  42.446   7.854  11.177
46768W        W18439  21.936   2.252  11.572
46769W        W18440  34.578  10.422   0.280
46770W        W18441  19.707  35.589  13.991
46771W        W18442  42.056  10.331  10.683
46772W        W18443   5.930  28.993  13.650
46773W        W18444   0.255  14.666  11.696
46774W        W18445  23.131  29.375  13.344
46775W        W18446  13.648  35.410  14.501
46776W        W18447  38.056  25.443  10.732
46777W        W18448  40.985   3.996   4.507
46778W        W18449  44.638   6.805  12.811
46779W        W18450  14.281   4.945   4.667
46780W        W18451  29.970  12.196  12.194
46781W        W18452  42.629  16.006   0.085
46782W        W18453  44.224  31.955   1.339
46783W        W18454  27.390  38.136  14.299
46784W        W18455  24.683  27.999   2.904
46785W        W18456  22.265  30.005   2.841
46786W        W18457   0.438  42.985   2.950
46787W        W18458  11.337  34.035  14.486
46788W        W18459   6.705   1.038   1.948
46789W        W18460   9.192  12.159  10.860
46790W        W18461  11.044  36.560  14.022
46791W        W18462  21.296  35.865  12.540
46792W        W18463  16.788  33.832  13.444
46793W        W18464  35.288   2.296   0.047
46794W        W18465  13.412  41.337  12.057
46795W        W18466  19.259  32.047  12.398
46796W        W18467  39.798  18.086  14.946
46797W        W18468  32.544   2.546  11.935
46798W        W18469   4.309   9.189  13.048
46799W        W18470   1.786  23.298   9.746
46800W        W18471  29.059   4.690   3.634
46801W        W18472  15.758  16.792   2.426
46802W        W18473  22.280  12.325  13.322
46803W        W18474  24.061   3.463  10.738
46804W        W18475  36.209  39.083  10.567
46805W        W18476   4.909  24.624   0.972
46806W        W18477  41.088   0.850  11.074
46807W        W18478  31.364  44.190  11.759
46808W        W18479  33.478   5.408  14.363
46809W        W18480  28.674  41.736   1.840
46810W        W18481   7.242   9.483   4.536
46811W        W18482  42.296  41.964   4.033
46812W        W18483  35.775   0.573   1.312
46813W        W18484  23.314   4.342  14.893
46814W        W18485   9.573  36.532  11.958
46815W        W18486  14.958  40.057  13.740
46816W        W18487   4.386   0.376   0.525
46817W        W18488  31.439   6.344   2.605
46818W        W18489  28.371  18.714   1.994
46819W        W18490  24.999  34.620   1.018
46820W        W18491  44.317   9.581   4.934
46821W        W18492  27.504  14.161   2.713
46822W        W18493  40.550  27.025  13.912
46823W        W18494  23.958  21.447   1.346
46824W        W18495  19.685   5.876  10.784
46825W        W18496   1.020   4.315   2.074
46826W        W18497  14.329  37.915  14.258
46827W        W18498  11.353  35.200   2.382
46828W        W18499   6.166  37.539   1.463
46829W        W18500   6.354   3.809  10.337
46830W        W18501  11.133  25.054  11.593
46831W        W18502  11.259   2.796  12.992
46832W        W18503  26.454  16.221  12.852
46833W        W18504  20.150  37.753   3.623
46834W        W18505  41.570   8.141   0.829
46835W        W18506  44.521  35.088   2.743
46836W        W18507  14.824  39.276  11.180
46837W        W18508   5.742   1.740   1.435
46838W        W18509  33.571  30.572  12.040
46839W        W18510  42.312  38.081  11.617
46840W        W18511  34.937  28.301  14.017
46841W        W18512  36.407  34.488   0.343
46842W        W18513  14.971   5.762  11.255
46843W        W18514  38.514  21.454  14.636
46844W        W18515   4.116  31.173   4.058
46845W        W18516  35.316   8.869  12.030
46846W        W18517   3.471   9.234  12.618
46847W        W18518  18.574  38.639  10.249
46848W        W18519   8.818  36.084   2.767
46849W        W18520  27.237  11.756  13.513
46850W        W18521  20.316  20.553  12.045
46851W        W18522   5.663  24.078   3.752
46852W        W18523  43.450  39.324  11.237
46853W        W18524  14.362  39.753  14.803
46854W        W18525  12.220  22.550  10.664
46855W        W18526  41.330  23.008   2.197
46856W        W18527  40.516  33.145   1.745
46857W        W18528  11.429   6.456  11.184
46858W        W18529   8.612  32.482   1.361
46859W        W18530  14.568  18.339  11.992
46860W        W18531  33.238  34.179   4.628
46861W        W18532  41.006  16.582   4.730
46862W        W18533   0.196  15.717   0.363
46863W        W18534  10.690  34.691  13.056
46864W        W18535  39.335  32.009   1.404
46865W        W18536   8.945  34.041  11.645
46866W        W18537  16.529   7.891   2.003
46867W        W18538   7.673   3.714   0.297
46868W        W18539   4.567  37.852   2.352
46869W        W18540  16.155   5.865   4.380
46870W        W18541   3.768  13.098   0.508
46871W        W18542  33.842  15.543   1.706
46872W        W18543  23.765  10.180  12.126
46873W        W18544  13.186  42.062  11.655
46874W        W18545  18.574   4.764   3.330
46875W        W18546   3.786   7.261   2.666
46876W        W18547  42.086  24.645  11.757
46877W        W18548  19.093  22.994  14.407
46878W        W18549  16.383  44.870   4.844
46879W        W18550   8.728  29.200   0.825
46880W        W18551   6.170   0.449   5.227
46881W        W18552   3.037  35.191   4.635
46882W        W18553  24.786  42.019  12.540
46883W        W18554   6.193  43.109  10.923
46884W        W18555  10.960  20.928  11.617
46885W        W18556  33.955  27.738  14.559
46886W        W18557  33.250  26.214   3.623
46887W        W18558  18.337  31.069  10.955
46888W        W18559  35.936  43.465  12.951
46889W        W18560  28.285   2.853  11.108
46890W        W18561  19.265   9.393  12.496
46891W        W18562  18.534  37.974   3.395
46892W        W18563  19.120   7.168  13.964
46893W        W18564   4.845  25.889  11.074
46894W        W18565   8.632  27.429  13.707
46895W        W18566  25.114   1.517  12.942
46896W        W18567  14.811   8.387  10.750
46897W        W18568  43.365  37.965   5.037
46898W        W18569   1.453  14.849  12.007
46899W        W18570  24.046  43.050  12.989
46900W        W18571  17.030   1.914  13.813
46901W        W18572  26.625  40.924  12.627
46902W        W18573  10.774  10.295  10.859
46903W        W18574  40.290   8.329   1.317
46904W        W18575  17.722  18.085   2.199
46905W        W18576  20.471  30.735   3.247
46906W        W18577  33.958  36.773   3.529
46907W        W18578   8.243  36.512  12.392
46908W        W18579   3.320  38.768   4.122
46909W        W18580  38.941  27.007  14.438
46910W        W18581  31.533  39.318   2.226
46911W        W18582  28.131   8.222  13.320
46912W        W18583  26.045  35.913   3.361
46913W        W18584  22.564  34.078   0.358
46914W        W18585   8.839  15.241   3.907
46915W        W18586  38.519  35.615   0.419
46916W        W18587  22.068   7.977   2.760
46917W        W18588   5.551   0.828  11.576
46918W        W18589  26.714  35.086   0.036
46919W        W18590  33.129  23.746   2.647
46920W        W18591  43.998  34.360  12.981
46921W        W18592  31.463  13.849   2.479
46922W        W18593  33.407  11.287   3.544
46923W        W18594  35.961  30.766  12.654
46924W        W18595   8.630  10.179   3.690
46925W        W18596  15.801  16.367  13.510
46926W        W18597   2.065  17.649  12.041
46927W        W18598  43.965  29.941   2.069
46928W        W18599  33.439  43.996  11.304
46929W        W18600  29.395  38.889   4.919
46930W        W18601  24.013  41.984  14.306
46931W        W18602  43.396   3.811   1.273
46932W        W18603  30.826  23.172  13.881
46933W        W18604  19.171  36.576   4.262
46934W        W18605   8.787  40.939   3.352
46935W        W18606  37.249   7.012  11.250
46936W        W18607  10.375   6.545  11.511
46937W        W18608   7.350  20.390   1.202
46938W        W18609  44.954   2.813   1.322
46939W        W18610  44.210   2.274  11.592
46940W        W18611   6.945  10.892   0.741
46941W        W18612   2.499  18.021   0.512
46942W        W18613  12.381  11.885  14.964
46943W        W18614   5.428  34.496   1.462
46944W        W18615  37.364  15.543  12.166
46945W        W18616  36.802  24.764  12.532
46946W        W18617   8.789   5.181  11.181
46947W        W18618  13.244  11.750  12.996
46948W        W18619  42.830  28.150  13.513
46949W        W18620   6.828  36.376   2.179
46950W        W18621  42.147  41.044   2.608
46951W        W18622  24.495  29.171   3.264
46952W        W18623  27.197  23.236   3.742
46953W        W18624  37.109   1.189   3.427
46954W        W18625  11.166  38.798   3.250
46955W        W18626  29.294   7.855   3.213
46956W        W18627  12.316  11.297  11.465
46957W        W18628  40.751  16.276  12.015
46958W        W18629  34.723  13.131  13.831
46959W        W18630  16.072  39.759  10.640
46960W        W18631   1.822   5.404  14.514
46961W        W18632   0.377  24.111   0.830
46962W        W18633  41.444  14.611  12.147
46963W        W18634  20.089  14.323  11.904
46964W        W18635   1.879  39.019  14.033
46965W        W18636   3.302   3.019  10.711
46966W        W18637  22.280   0.714  11.133
46967W        W18638  13.768  43.462  13.482
46968W        W18639  11.185  11.004   0.850
46969W        W18640   7.149  10.797   4.360
46970W        W18641  29.764  41.177   1.383
46971W        W18642   0.713  14.649  13.591
46972W        W18643  30.749  24.477  11.113
46973W        W18644  11.810  24.545   1.009
46974W        W18645  37.333  38.924  13.920
46975W        W18646  27.638  12.668  10.933
46976W        W18647  43.755   4.098  11.176
46977W        W18648  30.709  13.401  14.006
46978W        W18649  25.236  36.880   0.329
46979W        W18650  42.051  24.170  11.186
46980W        W18651  16.800  39.519  14.017
46981W        W18652   5.701  41.023   1.794
46982W        W18653  41.881  23.016   4.114
46983W        W18654  23.948  28.698   3.601
46984W        W18655  27.811  27.597  12.786
46985W        W18656  44.760  27.424   2.738
46986W        W18657  33.397  27.132  14.337
46987W        W18658  19.074  25.782   0.349
46988W        W18659  10.857   1.669  13.518
46989W        W18660  30.693  38.326   3.154
46990W        W18661  30.440  35.423  11.578
46991W        W18662  18.791  32.067   1.679
46992W        W18663  32.482   7.191  11.049
46993W        W18664  41.869  28.502  13.955
46994W        W18665  38.087  37.566   3.256
46995W        W18666  31.663  38.332   2.168
46996W        W18667  20.563  44.906  14.433
46997W        W18668  35.431  23.138  14.317
46998W        W18669  23.227   2.290   4.649
46999W        W18670  29.616   1.886   2.763
47000W        W18671  34.945  22.154  10.160
47001W        W18672  15.720  25.690   0.205
47002W        W18673  19.293  14.886   3.678
47003W        W18674  27.687  27.990   0.070
47004W        W18675  15.841   6.442   2.806
47005W        W18676  20.089  28.869  13.605
47006W        W18677  30.304  39.757   4.252
47007W        W18678  40.560   9.061   4.126
47008W        W18679  32.951  37.362  13.848
47009W        W18680  25.205  29.636   4.397
47010W        W18681  25.968  28.658  14.264
47011W        W18682  38.017   2.365  11.618
47012W        W18683  33.387  19.078   0.277
47013W        W18684  41.857  18.345  14.596
47014W        W18685  44.292  20.703   4.186
47015W        W18686   7.457  18.060   2.011
47016W        W18687  28.351  12.851  11.780
47017W        W18688  38.416   0.988  14.515
47018W        W18689  30.045  18.727  14.100
47019W        W18690  27.970  30.016   4.091
47020W        W18691  35.001  26.304  12.911
47021W        W18692  42.958   5.588  12.987
47022W        W18693  29.095  20.380  10.952
47023W        W18694   4.760   4.202  14.756
47024W        W18695  20.077  27.093   0.823
47025W        W18696  31.648  39.292  11.159
47026W        W18697  42.001  42.903  13.512
47027W        W18698   6.700  13.285   2.724
47028W        W18699   0.361  11.975   4.839
47029W        W18700  17.024   2.481   4.081
47030W        W18701   9.591  29.877  10.761
47031W        W18702  16.672  39.001  12.861
47032W        W18703  40.956  42.219  11.202
47033W        W18704   2.514  27.046   2.703
47034W        W18705  35.830  43.016   1.851
47035W        W18706  35.474  31.505   0.301
47036W        W18707  21.780  15.847   0.774
47037W        W18708  13.901  26.599   0.955
47038W        W18709   5.738  15.276  10.831
47039W        W18710  15.324  34.301  14.908
47040W        W18711  38.309   7.357  11.474
47041W        W18712  37.739  13.279   0.879
47042W        W18713  16.833  14.190  10.220
47043W        W18714  20.270  22.620   0.390
47044W        W18715  39.840  31.258   2.160
47045W        W18716   3.670  36.551   3.645
47046W        W18717   3.978  36.820  11.123
47047W        W18718   0.825  36.491  14.415
47048W        W18719  33.882   6.548   0.214
47049W        W18720   0.776  27.578  12.544
47050W        W18721  29.381  15.106   4.585
47051W        W18722  16.246   7.556  14.900
47052W        W18723  21.026  32.185   5.216
47053W        W18724   8.282  38.839   4.424
47054W        W18725   5.911  42.214  12.189
47055W        W18726  15.886   9.267   0.459
47056W        W18727  19.030  21.106   0.517
47057W        W18728  15.224  13.874  10.666
47058W        W18729  39.407   2.709   4.624
47059W        W18730   0.417  30.457  10.983
47060W        W18731  25.099  10.396   3.916
47061W        W18732  32.418  27.438   1.124
47062W        W18733   8.268  27.688  14.890
47063W        W18734  29.135  34.399  12.991
47064W        W18735  35.469  23.499  11.583
47065W        W18736   8.874   5.306   4.865
47066W        W18737   0.783  18.002   2.460
47067W        W18738  36.932  28.980  12.887
47068W        W18739  36.964  22.459  13.944
47069W        W18740   5.318   9.274  10.712
47070W        W18741   6.503  33.947   2.812
47071W        W18742  24.625  35.804   0.759
47072W        W18743  27.638   3.982   3.686
47073W        W18744  29.901  36.925   0.718
47074W        W18745  36.483   6.105   1.723
47075W        W18746   9.301   8.684   1.151
47076W        W18747  42.871  37.736  14.392
47077W        W18748  26.549  41.598  10.338
47078W        W18749  27.538  42.456  12.403
47079W        W18750  38.814  31.648   0.250
47080W        W18751  30.166  36.528   0.337
47081W        W18752  14.518  23.894  10.853
47082W        W18753   5.778  43.550   3.784
47083W        W18754  18.739  23.413   2.707
47084W        W18755  26.244  30.979   0.097
47085W        W18756  39.342  28.223  13.779
47086W        W18757  22.025  31.723   3.647
47087W        W18758  29.064   5.385   3.076
47088W        W18759   0.945  15.306  14.727
47089W        W18760  12.081   5.890   0.833
47090W        W18761  29.634  24.206  10.278
47091W        W18762  43.694  20.732   0.806
47092W        W18763  26.697  39.635   4.744
47093W        W18764   7.505  34.149   2.767
47094W        W18765  41.418   0.810  14.332
47095W        W18766  39.618  19.841   2.783
47096W        W18767   5.940  34.199  11.925
47097W        W18768   4.187  17.872  12.932
47098W        W18769  37.692  30.675  11.627
47099W        W18770  13.378  19.922  14.300
47100W        W18771  15.534   6.882   0.853
47101W        W18772   5.149  38.666   0.391
47102W        W18773   8.679  27.286   3.767
47103W        W18774   5.399   3.924   1.604
47104W        W18775   5.969  19.929   1.751
47105W        W18776  13.674  16.212  13.971
47106W        W18777  27.386  19.778  11.128
47107W        W18778   8.985  20.026  11.471
47108W        W18779   6.204   6.958   0.953
47109W        W18780  18.707  37.932  11.606
47110W        W18781  12.667   7.752   0.463
47111W        W18782  42.702  27.545   2.347
47112W        W18783  23.053  35.086  13.479
47113W        W18784  13.425   4.149   0.827
47114W        W18785  31.422  21.051   2.423
47115W        W18786  18.776  41.416   3.871
47116W        W18787  29.225  43.078  11.458
47117W        W18788  37.645  13.268  14.993
47118W        W18789  35.971  10.663   3.234
47119W        W18790  43.236  34.588  10.624
47120W        W18791  37.128  42.444  11.482
47121W        W18792  28.208  21.439  12.602
47122W        W18793   5.380  36.472  11.939
47123W        W18794  36.378   9.964  14.449
47124W        W18795  16.674  39.701   2.210
47125W        W18796  21.110   6.263  12.916
47126W        W18797  22.635  39.921  11.560
47127W        W18798  28.677  19.402  10.847
47128W        W18799  15.795  18.317   0.724
47129W        W18800   9.167  41.251   1.815
47130W        W18801  29.756  27.137  14.050
47131W        W18802  44.842  20.995   2.718
47132W        W18803  42.919  38.261   4.994
47133W        W18804  21.544   1.981   0.425
47134W        W18805  16.106   3.094   4.870
47135W        W18806  22.716  17.841  12.454
47136W        W18807   7.199  28.931  12.146
47137W        W18808  26.166  40.427  11.065
47138W        W18809  37.409  43.970   1.316
47139W        W18810  19.728  21.493   5.019
47140W        W18811  29.122  32.044  10.636
47141W        W18812  44.765  21.604  14.957
47142W        W18813  17.011   2.809   3.646
47143W        W18814  40.860  42.777  12.057
47144W        W18815  18.848   6.188   4.786
47145W        W18816   5.764  17.167   0.861
47146W        W18817  25.778  25.176  14.453
47147W        W18818  22.055   8.651   2.116
47148W        W18819   6.273  39.893   4.730
47149W        W18820  13.145   6.194  14.424
47150W        W18821  30.689  28.546   3.086
47151W        W18822  39.465   0.531   1.943
47152W        W18823  20.546  43.857   4.310
47153W        W18824  19.268  41.015   2.612
47154W        W18825  34.815  16.261   1.412
47155W        W18826   2.585  27.067   1.734
47156W        W18827   9.549  16.680   4.616
47157W        W18828  22.687   5.095  10.696
47158W        W18829  13.384  22.551  10.394
47159W        W18830  37.280  23.032   0.362
47160W        W18831  10.607  24.511   1.443
47161W        W18832   2.236   0.190  10.273
47162W        W18833  15.440  38.743   1.463
47163W        W18834  18.247  13.535  13.410
47164W        W18835  24.525   5.777   3.416
47165W        W18836  28.541  36.984  13.774
47166W        W18837   0.791   9.204   4.129
47167W        W18838  14.217  29.867  13.448
47168W        W18839  20.052  25.194  13.375
47169W        W18840  39.466  19.599  12.052
47170W        W18841  36.796  43.007  11.660
47171W        W18842  27.040  30.674   1.833
47172W        W18843  38.861   0.552   0.182
47173W        W18844  38.660  22.266   4.117
47174W        W18845  17.414  24.551  12.538
47175W        W18846   5.700  44.981   2.743
47176W        W18847   9.916  23.430   2.778
47177W        W18848  39.336  24.214  11.924
47178W        W18849  39.049  33.342   4.541
47179W        W18850  25.475  10.693  13.157
47180W        W18851  17.026   0.153  13.381
47181W        W18852  23.645  14.812  14.964
47182W        W18853   5.315   7.226   0.407
47183W        W18854  17.170  18.980  10.258
47184W        W18855  14.237  21.241   0.858
47185W        W18856  22.215  12.819   0.371
47186W        W18857  11.624  39.222  10.693
47187W        W18858   1.860  24.031   3.658
47188W        W18859  20.773  26.871  14.031
47189W        W18860  32.415  11.097   3.756
47190W        W18861  15.256  10.243   2.207
47191W        W18862   3.932  24.126  14.881
47192W        W18863  23.609  16.427  13.305
47193W        W18864  13.334  33.925   4.658
47194W        W18865  14.096  33.501  13.931
47195W        W18866   6.855   8.596   1.364
47196W        W18867  25.974   7.829   4.634
47197W        W18868  44.350  14.890   0.725
47198W        W18869  35.097  27.243  13.944
47199W        W18870  31.481  32.605   1.313
47200W        W18871  33.804  12.137   3.739
47201W        W18872  18.572  41.436  13.902
47202W        W18873   0.459  35.861  10.506
47203W        W18874  35.044  43.761   3.596
47204W        W18875  26.731  35.945  14.545
47205W        W18876  30.955   2.976  13.873
47206W        W18877  34.117  43.343   0.616
47207W        W18878   1.881  36.624  14.053
47208W        W18879  43.017  35.138  12.020
47209W        W18880   0.769  12.797   1.245
47210W        W18881  31.847  13.316   1.313
47211W        W18882  44.410  30.954  13.554
47212W        W18883  22.540  16.037   2.676
47213W        W18884  39.543  23.926   4.484
47214W        W18885  35.530   8.823  13.470
47215W        W18886  36.961  41.472   2.734
47216W        W18887  18.652  32.927   4.168
47217W        W18888   3.910   8.330   2.799
47218W        W18889  28.415  41.989   0.227
47219W        W18890  21.104   5.448   1.380
47220W        W18891  28.062   1.102   5.091
47221W        W18892  31.858  25.775  14.284
47222W        W18893  42.525  20.057   0.466
47223W        W18894  23.151   0.972  13.564
47224W        W18895   3.386  12.909  14.962
47225W        W18896  32.570  19.140   3.814
47226W        W18897   6.789  24.163  11.683
47227W        W18898   9.845  16.168   3.295
47228W        W18899  24.666  23.561   0.502
47229W        W18900  35.816  39.251  12.004
47230W        W18901  38.549  26.517   2.930
47231W        W18902  31.807   3.639  13.803
47232W        W18903  11.802  30.092   4.342
47233W        W18904  20.812  24.532  14.969
47234W        W18905  34.837  24.192  11.239
47235W        W18906   9.857  15.350   2.882
47236W        W18907  40.750  10.341  12.029
47237W        W18908  44.989  29.516  13.799
47238W        W18909   6.032  40.879  14.347
47239W        W18910  18.746  17.329   3.523
47240W        W18911  42.417  36.656  11.045
47241W        W18912  21.131  28.468  13.315
47242W        W18913  24.173  15.844  11.241
47243W        W18914  23.073   8.297  10.716
47244W        W18915   9.842   1.911   2.769
47245W        W18916  38.100   8.921   2.362
47246W        W18917  13.481  13.651   2.697
47247W        W18918  11.685  24.771   1.814
47248W        W18919   8.328  20.114  12.070
47249W        W18920  40.922   0.917  13.468
47250W        W18921  35.061  30.886   2.243
47251W        W18922  16.323  16.164   0.832
47252W        W18923  39.084  34.231   3.725
47253W        W18924  14.636  40.832  11.966
47254W        W18925   8.675  23.653   0.620
47255W        W18926   4.324  38.352  11.889
47256W        W18927  24.955  19.790  12.539
47257W        W18928  32.676  17.572   0.251
47258W        W18929  37.474  42.912  12.643
47259W        W18930  28.555  38.357   0.015
47260W        W18931  12.334  15.246  11.278
47261W        W18932   7.929  18.522  10.605
47262W        W18933   4.234  26.754  14.505
47263W        W18934  18.893  26.333  13.512
47264W        W18935  26.880  27.044   1.800
47265W        W18936  35.457  39.802   2.169
47266W        W18937  10.973  19.981   0.387
47267W        W18938  36.890  43.942  14.280
47268W        W18939  43.404  27.167  11.727
47269W        W18940  10.897  20.698   4.364
47270W        W18941  35.827   2.327   2.341
47271W        W18942  38.729   7.913   0.932
47272W        W18943  18.613  39.335   2.136
47273W        W18944   2.496  43.078   1.344
47274W        W18945  24.483  11.224  11.584
47275W        W18946  14.706  21.090  14.041
47276W        W18947   4.707  14.423  14.886
47277W        W18948  14.240   6.233  12.996
47278W        W18949  22.182  23.667   0.453
47279W        W18950  31.848  34.496   0.384
47280W        W18951  14.658  19.593   0.358
47281W        W18952   2.941  36.841   2.246
47282W        W18953  38.411  43.012   4.136
47283W        W18954  40.779  13.267   3.682
47284W        W18955  36.034  26.057  10.480
47285W        W18956  36.316  35.950  12.980
47286W        W18957  11.666   4.495  13.358
47287W        W18958  14.117  20.681  14.301
47288W        W18959  13.398   8.738   3.168
47289W        W18960   4.058  35.021  11.827
47290W        W18961  35.389  14.388   0.740
47291W        W18962  37.354  26.153  11.535
47292W        W18963  37.646  23.290  13.998
47293W        W18964  25.938  39.935  13.038
47294W        W18965  18.329  12.016  14.968
47295W        W18966  28.506  26.737   1.349
47296W        W18967  38.381  10.926  12.064
47297W        W18968   0.525   6.761   4.358
47298W        W18969   0.535  17.708   3.145
47299W        W18970  21.218  38.605   3.339
47300W        W18971  29.718   6.833   2.652
47301W        W18972  20.048  33.908  13.556
47302W        W18973   6.733  22.487  13.441
47303W        W18974  15.467   0.040  13.436
47304W        W18975   5.121  25.124   2.692
47305W        W18976  37.537  12.865   3.660
47306W        W18977   4.483  24.693   4.169
47307W        W18978  12.905  43.501  13.874
47308W        W18979  42.020  39.605   4.558
47309W        W18980  26.969  21.266   2.338
47310W        W18981  19.110  27.163   2.229
47311W        W18982  29.838  27.808   2.281
47312W        W18983  16.246  34.296  10.401
47313W        W18984  37.026  17.702   4.652
47314W        W18985  19.121  37.375   1.133
47315W        W18986  23.928  34.466   0.779
47316W        W18987   7.792  40.295  14.433
47317W        W18988  20.670   8.725   1.468
47318W        W18989  28.129   6.199  12.444
47319W        W18990  12.052  40.234  13.073
47320W        W18991  11.917  12.283   9.976
47321W        W18992   4.321  23.444   0.054
47322W        W18993  42.269  42.684  14.932
47323W        W18994  18.688  13.629   3.878
47324W        W18995  40.045   8.157  11.607
47325W        W18996  19.670  24.227  13.445
47326W        W18997  35.414  32.174  12.380
47327W        W18998  17.396  44.609  10.588
47328W        W18999   3.509  44.362   1.739
47329W        W19000  14.259  12.787   3.229
47330W        W19001  28.535  25.128  14.996
47331W        W19002  26.516  38.129  14.463
47332W        W19003  39.575   0.962   2.293
47333W        W19004  20.547   1.805  13.984
47334W        W19005  44.909  34.668   0.162
47335W        W19006   8.754  31.414   3.676
47336W        W19007   6.899  34.595   3.324
47337W        W19008  37.638  27.886   3.609
47338W        W19009  22.533  25.934  12.833
47339W        W19010  26.601  44.562   1.435
47340W        W19011   6.865  19.608  13.764
47341W        W19012  17.085  26.494   0.045
47342W        W19013  20.037  16.734   3.199
47343W        W19014  30.057  35.918  11.127
47344W        W19015  24.675  41.341   2.300
47345W        W19016  10.021   6.178  11.632
47346W        W19017  13.269   8.850   5.167
47347W        W19018  13.814  14.422   2.236
47348W        W19019  42.855  40.979   5.814
47349W        W19020  13.193   1.423  12.182
47350W        W19021  43.241  16.682  12.521
47351W        W19022   6.735  24.786   1.606
47352W        W19023  14.264  23.105   4.867
47353W        W19024  11.138  28.861   4.763
47354W        W19025  31.434  19.101  14.578
47355W        W19026  17.764  12.648  14.119
47356W        W19027  20.583   6.018  12.410
47357W        W19028  28.410  24.655  14.724
47358W        W19029  37.885  39.428  12.715
47359W        W19030  26.925  34.901   3.851
47360W        W19031  28.959   9.379   0.023
47361W        W19032  31.144  33.073   2.393
47362W        W19033  44.695  21.565  12.940
47363W        W19034  37.995  18.356  14.484
47364W        W19035   9.026   0.879  11.567
47365W        W19036  10.453  15.619  13.997
47366W        W19037  27.644   1.738   0.735
47367W        W19038  36.022   1.262   4.106
47368W        W19039  32.069  19.616  10.360
47369W        W19040   8.156  35.650  12.492
47370W        W19041  41.143  14.138  10.457
47371W        W19042  22.261  36.486  11.686
47372W        W19043   2.892  36.615  14.416
47373W        W19044  14.577   1.828  13.947
47374W        W19045  16.178  42.527  14.040
47375W        W19046   1.722  20.022  11.595
47376W        W19047   2.439  24.763  13.957
47377W        W19048  31.844  15.556   1.871
47378W        W19049   2.967  14.363   4.115
47379W        W19050   6.445  31.127  14.900
47380W        W19051  37.097  35.126   2.361
47381W        W19052   1.182  25.920   3.148
47382W        W19053  29.492  21.231   4.141
47383W        W19054  42.066  30.067  11.246
47384W        W19055  37.370  44.474  14.799
47385W        W19056  22.025  39.802   0.399
47386W        W19057  20.119  18.061  11.904
47387W        W19058  10.596  33.899   0.639
47388W        W19059  27.914  30.570  13.009
47389W        W19060  23.738  32.321   0.519
47390W        W19061   3.162  33.841  11.025
47391W        W19062  13.679  44.175  11.323
47392W        W19063  20.034  36.780   3.889
47393W        W19064  29.936   2.872   4.137
47394W        W19065  11.189  35.042   0.822
47395W        W19066  36.985   0.810  12.612
47396W        W19067  26.536  41.040   2.377
47397W        W19068  24.526  34.821  12.993
47398W        W19069  24.561  27.396  12.129
47399W        W19070  38.039  12.793   2.625
47400W        W19071  37.974   0.423   1.892
47401W        W19072  31.975  24.235   3.154
47402W        W19073  12.506  42.195  14.269
47403W        W19074  39.827  14.711  13.318
47404W        W19075  41.417  18.030   0.458
47405W        W19076  10.854  32.907   4.659
47406W        W19077  39.554  33.666   2.338
47407W        W19078   1.153   7.937   3.719
47408W        W19079  10.280  27.202  13.347
47409W        W19080   6.231  44.916  12.168
47410W        W19081   3.982  33.622   2.147
47411W        W19082  24.279  32.958   3.544
47412W        W19083  23.548  26.975   1.774
47413W        W19084  31.306  43.301  14.287
47414W        W19085  34.148  44.250   2.259
47415W        W19086  36.891   9.789  12.845
47416W        W19087  40.104  14.498  12.322
47417W        W19088   1.391  22.704   0.688
47418W        W19089  12.370  35.905  11.618
47419W        W19090   1.825  23.995  14.094
47420W        W19091  14.121  11.378   0.254
47421W        W19092  24.950  29.988   3.773
47422W        W19093  24.415  18.713  11.284
47423W        W19094  39.369  28.148  14.826
47424W        W19095   1.500  25.740   2.770
47425W        W19096   0.839   5.086  13.473
47426W        W19097  10.077   3.396   5.081
47427W        W19098   7.428  31.348  10.962
47428W        W19099   0.830  14.126  14.873
47429W        W19100   7.022  33.399  10.939
47430W        W19101  18.116  37.080  10.884
47431W        W19102  42.414   5.690   4.099
47432W        W19103   7.215  25.923   0.980
47433W        W19104  31.340   2.950   0.167
47434W        W19105   6.359   2.517  12.281
47435W        W19106  31.694   6.421  14.963
47436W        W19107   4.297  16.600  12.548
47437W        W19108   8.387  35.669  12.958
47438W        W19109  34.577  30.452   1.853
47439W        W19110   5.402  31.332  11.156
47440W        W19111  42.864  32.041   4.724
47441W        W19112  11.663  40.244   0.974
47442W        W19113  44.090  21.036  14.846
47443W        W19114  16.269  44.933  12.969
47444W        W19115  27.850   0.259  10.783
47445W        W19116  34.088  13.294   3.150
47446W        W19117   3.353  17.065  13.286
47447W        W19118  32.437  32.034  12.816
47448W        W19119  39.634   6.718   1.709
47449W        W19120   3.513  17.260   3.229
47450W        W19121  21.011  20.598   1.674
47451W        W19122  37.612  13.535  11.925
47452W        W19123  18.728  23.552  12.623
47453W        W19124   0.952  22.346  12.574
47454W        W19125   0.893  17.208  12.401
47455W        W19126   2.747  32.377  10.492
47456W        W19127   7.598  31.488   1.742
47457W        W19128   0.152  19.038   3.135
47458W        W19129  38.395  32.075  10.166
47459W        W19130  25.246  40.959   2.975
47460W        W19131  13.512  14.263  13.474
47461W        W19132  30.681  43.762   1.330
47462W        W19133  22.629  31.196   3.141
47463W        W19134  35.848  24.555  10.690
47464W        W19135  14.859  39.528  14.560
47465W        W19136  22.178  33.392   1.938
47466W        W19137  26.224  35.647  13.424
47467W        W19138  26.108  26.083  12.614
47468W        W19139   6.176  37.976  11.865
47469W        W19140  42.284  24.483  13.018
47470W        W19141  41.951  27.433   0.402
47471W        W19142  30.944   9.337  13.009
47472W        W19143  13.844  26.743   4.216
47473W        W19144  34.060  32.388   4.631
47474W        W19145  43.366  41.478   9.755
47475W        W19146  44.747  19.239  13.520
47476W        W19147   8.926  15.952  11.121
47477W        W19148   4.264  37.481   4.739
47478W        W19149   4.278  42.794   1.593
47479W        W19150  34.349  23.398  13.901
47480W        W19151  18.979   4.277  12.335
47481W        W19152  43.978  43.976  14.961
47482W        W19153  42.927  36.644  12.404
47483W        W19154  15.673   7.737  10.764
47484W        W19155  41.799  44.002  13.042
47485W        W19156  12.795  39.535  13.941
47486W        W19157  29.223   9.799  12.878
47487W        W19158  41.284  19.120  12.991
47488W        W19159  25.654  14.232  11.753
47489W        W19160  17.287  10.602   2.963
47490W        W19161   7.547  31.709   0.459
47491W        W19162  11.468  10.012   4.236
47492W        W19163   7.384  18.523  14.793
47493W        W19164  26.084  44.930  12.747
47494W        W19165  29.458  33.708  11.269
47495W        W19166  25.727  13.567   3.141
47496W        W19167  15.600  23.991   0.836
47497W        W19168   7.185  28.782   2.332
47498W        W19169  38.182  22.315  12.903
47499W        W19170  34.866  21.518   0.209
47500W        W19171  26.493  29.976  10.644
47501W        W19172   5.508  15.648   4.359
47502W        W19173  20.642  22.977  11.025
47503W        W19174  18.176   1.085   1.379
47504W        W19175   0.978  14.997  11.847
47505W        W19176   2.220  32.996   1.343
47506W        W19177  22.775  29.515   3.251
47507W        W19178  14.094  41.927  11.142
47508W        W19179   3.052  15.148   0.761
47509W        W19180  34.499  41.031  12.967
47510W        W19181  14.874  36.623  12.992
47511W        W19182  35.110  28.419   1.042
47512W        W19183  22.153  18.214  13.830
47513W        W19184  21.024  16.513   4.158
47514W        W19185  26.151  15.563  11.645
47515W        W19186  31.260  32.168  14.421
47516W        W19187  20.531  35.711   1.448
47517W        W19188  30.092  13.345  14.037
47518W        W19189   4.303  10.964   4.556
47519W        W19190  28.050  12.165   1.442
47520W        W19191   6.703   0.902  10.548
47521W        W19192  42.945  33.320  13.645
47522W        W19193   4.741  33.777  13.431
47523W        W19194  36.316   0.977  11.206
47524W        W19195   1.883  12.148   0.119
47525W        W19196  17.825   2.346   4.531
47526W        W19197  27.087  15.291   3.398
47527W        W19198  40.419  36.795   3.133
47528W        W19199   6.581  18.719   5.238
47529W        W19200   2.661  20.478  12.275
47530W        W19201   1.989   7.745  12.933
47531W        W19202  11.657   6.985   0.372
47532W        W19203  25.206  32.609   3.600
47533W        W19204  20.508   3.154   4.105
47534W        W19205   3.721  33.515   1.171
47535W        W19206  22.258  20.527   2.224
47536W        W19207  10.684  22.299   2.078
47537W        W19208  27.890  21.567  11.060
47538W        W19209  17.007  21.784  10.765
47539W        W19210  39.508  43.026  14.848
47540W        W19211  44.447  23.049   4.229
47541W        W19212  37.247   3.356   2.629
47542W        W19213  24.021   0.918  11.546
47543W        W19214  17.610  43.309   0.457
47544W        W19215   0.978  41.981  11.563
47545W        W19216  11.705  15.635  12.844
47546W        W19217  28.170  28.838   1.619
47547W        W19218  40.311  37.642  11.935
47548W        W19219  42.030  29.518  11.238
47549W        W19220  14.060  34.443   4.433
47550W        W19221  42.022   1.760  11.673
47551W        W19222   8.612  29.018  11.206
47552W        W19223  16.804  38.518  10.654
47553W        W19224   4.382   2.357  10.987
47554W        W19225   1.704   8.402  13.866
47555W        W19226   0.655   9.768   2.609
47556W        W19227  42.240  42.868   3.281
47557W        W19228  24.017  43.814  13.465
47558W        W19229  12.489  12.070   4.416
47559W        W19230  18.178  43.742  14.898
47560W        W19231  24.658   7.453   4.381
47561W        W19232  39.343  22.199   0.588
47562W        W19233  40.783  15.563   0.421
47563W        W19234  13.780  37.023   4.824
47564W        W19235  42.174  21.938  12.380
47565W        W19236  36.339   2.150  10.556
47566W        W19237  25.429  39.994   4.067
47567W        W19238  13.845   0.967  10.724
47568W        W19239  18.974  22.502  12.038
47569W        W19240  17.840  27.976   3.760
47570W        W19241   0.824  33.911   5.086
47571W        W19242  30.979   4.121  11.786
47572W        W19243   6.430   8.237   4.745
47573W        W19244   5.832  42.746  12.092
47574W        W19245  40.509  22.599   3.796
47575W        W19246  21.213  30.876  13.592
47576W        W19247  31.081  19.919  11.567
47577W        W19248  16.778  42.322  10.547
47578W        W19249  29.400  29.366  14.827
47579W        W19250  32.397   3.446  13.141
47580W        W19251  28.982  23.717  11.603
47581W        W19252  43.009  25.644  13.727
47582W        W19253  37.297  17.166   2.244
47583W        W19254  38.537  40.152   1.463
47584W        W19255  16.390  17.330  11.534
47585W        W19256  25.015   4.597   0.759
47586W        W19257  44.305  40.394   4.521
47587W        W19258  23.127  32.075  13.866
47588W        W19259  28.620  17.442   0.964
47589W        W19260  39.777   9.950  11.008
47590W        W19261  20.050  42.208  14.261
47591W        W19262  15.840   1.245  14.186
47592W        W19263   1.670  33.355  14.344
47593W        W19264   5.146   5.678   4.271
47594W        W19265  37.985  39.115   2.178
47595W        W19266   4.197   9.371   3.584
47596W        W19267   9.663   7.706   4.097
47597W        W19268  41.613  19.827  10.658
47598W        W19269   9.769  12.867  10.884
47599W        W19270   1.047   4.517   0.765
47600W        W19271  29.711   2.202   0.365
47601W        W19272  17.387  30.146   0.371
47602W        W19273  34.576  43.325   2.112
47603W        W19274  31.988  31.062   2.507
47604W        W19275   9.216  25.176  11.664
47605W        W19276  26.469  11.924   5.211
47606W        W19277  40.810  26.018  13.095
47607W        W19278  16.616  13.338   0.456
47608W        W19279  39.984  36.911  10.551
47609W        W19280   1.548  27.523   0.730
47610W        W19281  18.195  28.399  13.532
47611W        W19282  36.338   5.618   1.747
47612W        W19283  21.007  10.646  13.504
47613W        W19284   4.292  25.677  14.423
47614W        W19285  25.153  13.069  10.480
47615W        W19286  43.447  19.766  10.613
47616W        W19287  42.080   3.764   1.707
47617W        W19288  41.874  32.363   0.207
47618W        W19289   3.327  29.055  14.135
47619W        W19290   2.506   4.170  11.218
47620W        W19291   6.688  37.927  13.360
47621W        W19292  19.115  13.699  10.822
47622W        W19293  29.051  28.266  12.914
47623W        W19294  15.732  12.140  14.381
47624W        W19295  37.465  24.432   0.382
47625W        W19296  40.478  12.320   4.390
47626W        W19297  36.066  31.474  14.999
47627W        W19298  38.401  19.610   4.602
47628W        W19299   8.920   7.429  14.355
47629W        W19300  31.963  31.458  12.341
47630W        W19301   8.223  44.700   0.668
47631W        W19302  39.774  27.397   0.255
47632W        W19303  25.053  25.689  11.891
47633W        W19304  24.501  30.656   1.917
47634W        W19305   7.694  22.283  10.534
47635W        W19306  33.747  23.939   3.629
47636W        W19307   7.887  30.692   4.154
47637W        W19308  33.411   2.349   2.269
47638W        W19309  12.739  42.527  14.606
47639W        W19310   0.456  41.942   3.732
47640W        W19311   6.324  34.792   0.453
47641W        W19312  12.446  15.621   3.141
47642W        W19313  22.724   6.134   0.420
47643W        W19314  31.509  31.549  11.196
47644W        W19315  32.860  14.042   2.161
47645W        W19316  40.754  44.017   1.817
47646W        W19317  37.813  23.092  12.540
47647W        W19318  27.124  30.413   5.091
47648W        W19319  14.323  19.066   3.194
47649W        W19320  38.030  15.737  10.521
47650W        W19321  40.980  36.281   4.203
47651W        W19322  23.046  33.301   1.963
47652W        W19323  34.422  19.463  13.351
47653W        W19324  11.421  23.188  14.997
47654W        W19325  31.344  13.182   4.707
47655W        W19326  19.942  14.232   3.221
47656W        W19327  10.928  37.295   2.047
47657W        W19328  24.952   8.759   4.687
47658W        W19329  37.996  20.054   4.135
47659W        W19330   3.000  31.476  12.717
47660W        W19331  37.184  25.544   3.817
47661W        W19332  12.091  12.629  12.974
47662W        W19333  23.687  16.826   1.278
47663W        W19334  11.362   2.757  12.407
47664W        W19335   6.769  35.903  14.357
47665W        W19336  20.072  33.844  14.513
47666W        W19337  43.581  43.481   3.438
47667W        W19338  39.563   5.752  14.000
47668W        W19339  42.037  13.865   2.713
47669W        W19340   5.437  12.308   2.343
47670W        W19341  35.065  21.691  10.722
47671W        W19342  44.882  32.860   3.424
47672W        W19343  15.340   9.922   3.750
47673W        W19344   8.296   5.459  11.182
47674W        W19345  17.446  14.606   1.388
47675W        W19346  34.494  39.890  13.961
47676W        W19347  16.587  20.046   3.265
47677W        W19348  43.358  39.885   4.587
47678W        W19349  39.037  14.571   0.887
47679W        W19350  41.711  40.415   1.878
47680W        W19351   9.265  23.258   3.657
47681W        W19352  31.575  35.914   4.783
47682W        W19353  36.312   4.977  11.167
47683W        W19354  15.589   6.709   4.209
47684W        W19355  37.937  25.413  14.076
47685W        W19356   7.688  20.795  12.054
47686W        W19357  18.086  39.593  10.587
47687W        W19358   9.087  21.681   2.762
47688W        W19359  34.981  25.784  12.952
47689W        W19360  24.081   5.466  14.671
47690W        W19361  19.625  33.947   1.647
47691W        W19362  33.579  15.521  12.000
47692W        W19363  16.836  29.912   1.681
47693W        W19364  40.934  36.381   1.777
47694W        W19365   1.084  32.579   0.487
47695W        W19366  13.802  39.077   0.900
47696W        W19367  20.845  44.689  13.992
47697W        W19368  10.756   8.223  12.461
47698W        W19369  42.525   7.673  12.338
47699W        W19370  13.749  25.231  11.624
47700W        W19371   1.646  29.031   3.349
47701W        W19372  11.780   3.353   3.974
47702W        W19373  22.757  36.004  13.348
47703W        W19374  26.700  10.392   0.797
47704W        W19375  23.112   8.886  14.719
47705W        W19376  38.450  11.127   0.297
47706W        W19377  39.973  25.686   3.213
47707W        W19378  20.326  37.014   1.724
47708W        W19379  28.169  13.272   0.747
47709W        W19380  19.054  14.930   5.362
47710W        W19381  35.898  15.284  14.502
47711W        W19382  10.262   7.609   2.872
47712W        W19383  35.273  21.791   0.349
47713W        W19384  11.408   0.985  12.984
47714W        W19385   3.409  38.995   4.584
47715W        W19386  18.168  20.194   0.298
47716W        W19387  28.087  29.972  12.158
47717W        W19388  28.917  27.490   2.197
47718W        W19389  41.433  42.423  11.390
47719W        W19390  29.863  16.172  11.153
47720W        W19391  26.190  12.159  11.670
47721W        W19392  44.272  26.149  13.116
47722W        W19393  11.918  41.741   3.614
47723W        W19394  44.610   1.921   2.787
47724W        W19395  41.429  12.585  14.341
47725W        W19396  31.863  36.159  12.210
47726W        W19397  27.581  14.777  11.109
47727W        W19398  27.673   4.758  10.382
47728W        W19399   6.737  24.438  14.398
47729W        W19400  29.979  29.716   2.453
47730W        W19401  29.957  17.788   0.690
47731W        W19402  35.152   0.103  10.103
47732W        W19403  18.036   5.233  12.286
47733W        W19404  13.593  11.630  10.619
47734W        W19405  21.054  15.115  11.635
47735W        W19406   6.952   4.849   4.201
47736W        W19407  13.840  22.456  14.496
47737W        W19408   2.702   1.636   0.970
47738W        W19409   1.021   7.244  10.191
47739W        W19410  44.847   3.605  13.994
47740W        W19411  38.422  33.896  12.149
47741W        W19412  26.880   6.418   2.548
47742W        W19413   5.228  12.119  14.820
47743W        W19414   3.396  12.396  14.953
47744W        W19415  44.032  35.597  14.525
47745W        W19416  44.389   7.763  11.179
47746W        W19417  26.055  31.045   1.122
47747W        W19418  10.222  22.628   4.724
47748W        W19419  13.694  23.061  14.030
47749W        W19420  17.112  13.090  10.328
47750W        W19421   1.351  24.697   1.678
47751W        W19422  35.384  42.019   0.263
47752W        W19423  10.094  26.963   0.722
47753W        W19424   4.878  39.849  14.783
47754W        W19425  23.607  24.498   2.390
47755W        W19426   9.261  26.725   4.366
47756W        W19427  34.693  17.332  12.315
47757W        W19428  44.864  23.050  12.514
47758W        W19429  43.259  13.510   0.946
47759W        W19430  38.840  28.244  14.050
47760W        W19431  30.455  32.197  12.885
47761W        W19432  13.782  15.377  14.367
47762W        W19433   2.820  39.721   3.140
47763W        W19434  15.783  42.105   3.155
47764W        W19435  30.983  25.648  10.229
47765W        W19436  16.003  42.784  10.699
47766W        W19437  37.968  25.754   3.187
47767W        W19438  23.261  25.200  11.793
47768W        W19439  22.475  24.695  11.928
47769W        W19440  18.264  31.336   2.231
47770W        W19441  14.325  41.478  11.226
47771W        W19442  32.363  39.035  11.594
47772W        W19443  12.091  18.683   4.390
47773W        W19444  28.881  18.582   0.361
47774W        W19445  22.057  42.699  13.421
47775W        W19446  31.211  39.615   0.890
47776W        W19447   6.404  24.557   0.736
47777W        W19448  30.857  12.098   1.996
47778W        W19449   3.377  13.839  13.873
47779W        W19450  15.395   1.979  10.608
47780W        W19451  22.759  27.801  11.488
47781W        W19452   2.420  39.884  12.016
47782W        W19453  34.009  17.886  10.737
47783W        W19454  44.454   7.785  14.775
47784W        W19455  26.352  32.070  11.751
47785W        W19456  10.948  34.222  13.038
47786W        W19457  22.782  37.293   1.531
47787W        W19458   2.797   5.202  11.748
47788W        W19459  40.426   7.472   0.394
47789W        W19460   0.240  19.743  12.969
47790W        W19461  16.813  39.547   0.356
47791W        W19462  23.571  44.569  14.444
47792W        W19463   4.753  30.599   3.695
47793W        W19464  24.125  15.560  10.665
47794W        W19465  27.545  41.817  11.655
47795W        W19466  44.879  31.536   4.734
47796W        W19467  37.572  15.329   3.842
47797W        W19468  25.265  13.843  14.484
47798W        W19469  17.888  22.247   1.692
47799W        W19470  21.144  40.221   4.943
47800W        W19471  17.513  41.280  14.585
47801W        W19472  19.533  11.643  11.347
47802W        W19473  37.792  24.525   2.643
47803W        W19474  18.208  32.119   2.663
47804W        W19475   5.239   4.881   3.192
47805W        W19476  37.102  10.451   2.615
47806W        W19477  29.144  44.805  10.792
47807W        W19478  33.086   1.777   1.190
47808W        W19479  12.372  27.913   1.389
47809W        W19480   2.618   0.588   3.265
47810W        W19481   1.749  43.447   0.884
47811W        W19482  44.865  16.544  10.840
47812W        W19483  10.735   9.995  10.447
47813W        W19484  40.431  24.078   3.207
47814W        W19485  18.560  16.306   3.250
47815W        W19486  38.315   2.741   4.472
47816W        W19487   9.631  20.301   0.762
47817W        W19488  35.373  18.143  14.864
47818W        W19489  36.266  18.241  11.102
47819W        W19490  23.045  41.421  10.765
47820W        W19491  26.203  10.702   1.159
47821W        W19492  20.175   6.942   2.726
47822W        W19493  44.900  15.621  11.470
47823W        W19494   9.265  34.939  12.920
47824W        W19495  26.574  41.843   1.509
47825W        W19496  33.613  16.054  11.980
47826W        W19497  12.378  24.151   1.414
47827W        W19498  17.975  18.226   2.766
47828W        W19499   0.525  18.800   2.376
47829W        W19500  43.648  23.064   2.270
47830W        W19501  34.490  23.247   0.835
47831W        W19502   2.746   5.185   3.326
47832W        W19503  38.446   2.012  14.335
47833W        W19504  30.680  35.307   1.510
47834W        W19505  22.240  25.383  14.289
47835W        W19506   4.926  29.430  14.314
47836W        W19507  19.837  32.492   4.601
47837W        W19508  17.062  34.436  10.689
47838W        W19509  36.463  36.438   1.156
47839W        W19510  29.813   0.147   0.555
47840W        W19511  41.828  38.582   5.487
47841W        W19512  17.550  13.100   4.329
47842W        W19513  24.067  20.103  10.677
47843W        W19514  44.916  36.580   1.791
47844W        W19515  40.827  43.913  10.525
47845W        W19516   9.354  26.140   4.085
47846W        W19517   0.043  29.205  12.301
47847W        W19518  26.157  35.997   0.933
47848W        W19519  32.029  21.255  12.402
47849W        W19520  34.494  43.878  13.547
47850W        W19521   3.503   2.415  14.181
47851W        W19522  43.504   6.283  11.178
47852W        W19523  35.224  42.732  10.930
47853W        W19524  22.746  18.310  11.101
47854W        W19525  23.607   9.599  14.788
47855W        W19526   8.690  30.452  13.393
47856W        W19527  36.436  13.463   1.974
47857W        W19528  21.981  29.433   4.154
47858W        W19529  19.584  37.809   0.975
47859W        W19530  22.164   5.561   2.945
47860W        W19531  30.080  38.826  11.220
47861W        W19532  27.719  27.858   0.978
47862W        W19533  42.597  14.036   4.638
47863W        W19534  16.727  14.684  13.280
47864W        W19535  22.766  19.992   3.581
47865W        W19536  36.492  32.062   3.660
47866W        W19537   8.609  43.478  12.457
47867W        W19538  36.099   2.929  14.818
47868W        W19539  17.604   3.841  10.692
47869W        W19540  41.932  27.532  13.567
47870W        W19541  34.121   8.487   3.002
47871W        W19542   7.432  23.498   4.015
47872W        W19543  40.895  37.968   3.116
47873W        W19544  24.763  21.796  12.838
47874W        W19545   3.045  27.148   4.170
47875W        W19546  31.251  32.425  14.924
47876W        W19547  20.550  38.070   2.743
47877W        W19548  30.462   0.700  11.246
47878W        W19549   6.403  31.351  12.988
47879W        W19550  32.580  18.254  14.798
47880W        W19551  26.171  14.695   0.242
47881W        W19552  16.708  17.066  11.175
47882W        W19553  18.209  34.938  10.690
47883W        W19554  18.463  27.916  14.478
47884W        W19555  43.337  22.636  12.656
47885W        W19556  41.849  18.251   3.910
47886W        W19557  23.163  39.452   2.806
47887W        W19558  42.404   5.359  11.398
47888W        W19559  33.997  10.797   2.774
47889W        W19560  19.538  15.560   2.322
47890W        W19561  32.242  21.555   2.121
47891W        W19562  11.631  34.380   3.685
47892W        W19563  42.837  33.341  11.422
47893W        W19564  11.773  16.810  13.411
47894W        W19565   0.343  43.521   1.293
47895W        W19566  29.006   8.392  12.917
47896W        W19567  41.421  41.089  12.403
47897W        W19568   7.786  30.258  13.839
47898W        W19569   5.881  22.885  12.074
47899W        W19570  11.102  27.836  13.578
47900W        W19571  40.336  35.701   2.831
47901W        W19572  19.618  24.910   1.320
47902W        W19573  27.787   1.436   3.563
47903W        W19574  39.469  19.705   3.244
47904W        W19575  44.916  20.707  14.945
47905W        W19576  23.464  22.677   4.175
47906W        W19577   7.756   4.691  13.461
47907W        W19578   8.715   6.139   3.389
47908W        W19579   1.402  42.839   4.684
47909W        W19580  38.687  34.627  11.161
47910W        W19581  33.099  43.639   4.221
47911W        W19582  35.031  40.319  10.039
47912W        W19583  11.119  24.009  14.409
47913W        W19584   6.257  23.928   3.153
47914W        W19585  39.234  20.188  10.423
47915W        W19586  18.778  36.939   4.324
47916W        W19587  14.279   5.206  11.059
47917W        W19588  13.356  35.765   4.209
47918W        W19589  43.984  15.844  13.009
47919W        W19590  23.631   1.005  12.377
47920W        W19591  16.575  19.737   0.499
47921W        W19592  23.198  34.565   3.652
47922W        W19593  24.782  16.095   0.428
47923W        W19594  38.828  16.899  10.677
47924W        W19595  41.899  44.536   4.173
47925W        W19596  32.684  38.985  13.781
47926W        W19597  42.347  30.954  11.478
47927W        W19598  44.439  30.345  12.345
47928W        W19599   6.472  29.944  14.318
47929W        W19600   0.688  16.661   4.363
47930W        W19601  36.539  42.027   3.194
47931W        W19602  28.967  10.607   0.921
47932W        W19603  39.402  26.356  12.261
47933W        W19604   2.917  39.496  11.563
47934W        W19605   2.894  15.834   3.313
47935W        W19606  13.125  36.970   2.329
47936W        W19607  12.157   4.793  10.394
47937W        W19608  30.930  15.935  11.186
47938W        W19609  42.542  28.759   3.550
47939W        W19610  18.550  27.963  10.562
47940W        W19611  16.795   5.547  14.436
47941W        W19612  37.563  24.238   3.599
47942W        W19613  42.879  27.459   0.877
47943W        W19614  34.970  35.027   0.869
47944W        W19615  21.665  26.136  12.529
47945W        W19616   4.260  28.644  10.973
47946W        W19617  27.841  13.818  12.492
47947W        W19618  36.078  14.041   3.773
47948W        W19619  22.666  13.625   1.497
47949W        W19620   5.460  26.924  14.353
47950W        W19621  30.237   3.318  11.340
47951W        W19622   2.842  28.675  11.685
47952W        W19623  38.034  29.666   4.681
47953W        W19624  28.184  28.964   3.419
47954W        W19625  17.254  26.701   3.527
47955W        W19626  35.069  24.914  10.666
47956W        W19627  15.655  12.628  10.608
47957W        W19628   9.417  11.695  10.721
47958W        W19629  16.269  26.201  12.177
47959W        W19630  38.405  40.775  11.494
47960W        W19631   7.662  20.606  14.798
47961W        W19632  41.803  23.381   3.759
47962W        W19633  21.029  35.624  12.996
47963W        W19634  18.270  28.137   0.446
47964W        W19635  30.985  10.149  11.631
47965W        W19636  23.773   1.398  11.455
47966W        W19637  20.027  20.574   0.633
47967W        W19638   3.321  44.193  14.458
47968W        W19639  11.589  13.162   0.533
47969W        W19640  13.048   7.945   4.372
47970W        W19641  22.806  24.037  10.612
47971W        W19642  11.111   0.950  10.959
47972W        W19643  16.475  34.082  13.805
47973W        W19644  36.473  21.575  14.419
47974W        W19645  42.302  28.467  14.687
47975W        W19646  17.483  28.937  14.874
47976W        W19647  11.278  13.073   4.583
47977W        W19648   2.625  24.878   1.212
47978W        W19649  40.556  42.073  10.868
47979W        W19650  23.009  29.950  10.770
47980W        W19651  30.549   2.822  14.249
47981W        W19652  25.966  35.054   0.723
47982W        W19653  35.361  41.013   4.227
47983W        W19654  22.231  14.390   2.351
47984W        W19655  26.900  19.864   1.639
47985W        W19656   4.478  32.415  11.055
47986W        W19657  18.611  13.292   1.866
47987W        W19658  20.773  10.208   2.938
47988W        W19659  25.114  29.831  12.429
47989W        W19660  26.246  21.495  13.529
47990W        W19661   4.490   3.410  14.341
47991W        W19662  26.727  40.201   0.739
47992W        W19663   2.192  11.130   3.969
47993W        W19664  15.096  38.642   0.544
47994W        W19665  26.250   1.451   0.338
47995W        W19666  21.444  36.864   3.309
47996W        W19667  21.896   8.824  10.726
47997W        W19668  30.611   3.688  12.029
47998W        W19669  37.899  23.239  10.166
47999W        W19670  12.530  10.493   3.140
48000W        W19671   7.261  36.573   0.862
48001W        W19672  44.991   9.320   0.689
48002W        W19673  27.679   8.830   2.314
48003W        W19674  23.557  25.641   4.657
48004W        W19675  30.373  37.869  11.846
48005W        W19676  21.650  16.988  12.141
48006W        W19677  35.063  32.947  11.656
48007W        W19678   9.226  37.358  12.532
48008W        W19679  43.312  19.068  11.556
48009W        W19680  41.112  15.258   1.282
48010W        W19681  33.114  30.787   3.192
48011W        W19682  15.476  23.854  11.185
48012W        W19683  33.347  31.060   1.870
48013W        W19684  13.775   7.791  11.152
48014W        W19685  14.134  24.588   3.134
48015W        W19686  22.232   0.455  12.416
48016W        W19687  16.813  20.023  11.929
48017W        W19688  41.412  15.302  14.934
48018W        W19689  36.982  17.837   3.327
48019W        W19690  40.962  30.669   0.734
48020W        W19691   5.330  16.279   2.374
48021W        W19692   9.838  22.641   0.342
48022W        W19693   1.810  10.809  10.986
48023W        W19694   8.169  43.136  12.481
48024W        W19695  14.761  38.795  10.959
48025W        W19696  12.606  13.155   2.228
48026W        W19697  33.976  14.052   4.090
48027W        W19698  18.109  44.190   1.314
48028W        W19699  41.295  23.762  14.900
48029W        W19700  33.951  24.252   1.421
48030W        W19701   9.211   5.355   4.075
48031W        W19702  35.444  12.388   4.529
48032W        W19703  30.032   2.180  14.760
48033W        W19704  38.559  44.788   3.336
48034W        W19705  20.200  16.246   3.190
48035W        W19706  21.044   2.809   4.388
48036W        W19707  12.703  39.906  12.583
48037W        W19708   3.951  33.375   0.174
48038W        W19709   5.516  27.606  11.601
48039W        W19710  35.600  28.497   0.829
48040W        W19711  32.680  15.846  14.454
48041W        W19712   6.915  12.274   4.667
48042W        W19713  29.472   1.310   1.948
48043W        W19714   5.426  11.157  12.364
48044W        W19715   1.779  13.846  11.070
48045W        W19716   5.909  17.806  14.315
48046W        W19717  35.102  23.084  10.691
48047W        W19718  27.627  27.700   1.476
48048W        W19719  31.653  21.574  12.257
48049W        W19720  16.652   6.068   2.651
48050W        W19721   3.524   1.880   1.267
48051W        W19722  22.797   9.282   1.250
48052W        W19723  26.458  26.624  10.939
48053W        W19724  19.145  25.748  10.195
48054W        W19725   4.784  39.785   4.645
48055W        W19726  18.193  44.507   3.263
48056W        W19727  27.750  36.586   3.573
48057W        W19728  38.574  43.388   3.725
48058W        W19729  22.888  22.927  14.788
48059W        W19730  43.973  32.991   4.140
48060W        W19731  39.977  38.916  12.353
48061W        W19732   2.263  21.597  11.887
48062W        W19733   2.768  41.772  11.913
48063W        W19734  17.786  37.770  14.554
48064W        W19735  33.625  27.518  12.021
48065W        W19736  40.314   4.570  13.926
48066W        W19737   1.445  16.508   3.802
48067W        W19738  18.767  34.163  10.458
48068W        W19739  18.171   0.323  11.927
48069W        W19740  27.709  34.043   2.923
48070W        W19741  13.703   1.181  12.488
48071W        W19742  40.855  16.528  12.495
48072W        W19743  27.927  41.783   0.255
48073W        W19744  30.220  31.407   4.672
48074W        W19745  25.473  17.760  10.572
48075W        W19746  18.542  11.874  11.395
48076W        W19747  29.738  41.502  11.024
48077W        W19748  26.511  28.504  13.594
48078W        W19749  32.502   3.531  13.650
48079W        W19750  41.862  28.743  14.811
48080W        W19751   4.024  18.661  13.244
48081W        W19752   0.380  29.451   0.968
48082W        W19753  29.621  21.648  12.851
48083W        W19754  28.531  15.812   0.531
48084W        W19755  12.862   4.301   4.194
48085W        W19756  10.313  32.599   0.516
48086W        W19757  20.750  43.217  11.045
48087W        W19758  17.249  22.795  10.427
48088W        W19759  36.767  38.420   0.813
48089W        W19760  41.906  31.915  14.282
48090W        W19761   6.927  42.365  12.807
48091W        W19762   4.918  34.127   3.454
48092W        W19763  29.972  41.017   1.876
48093W        W19764  28.158  41.713   4.572
48094W        W19765  37.666  43.943   0.851
48095W        W19766  27.579   2.666   0.141
48096W        W19767  38.340  16.394   2.654
48097W        W19768  39.888   2.711  11.419
48098W        W19769   2.239   0.236   3.170
48099W        W19770  14.389  36.732   1.532
48100W        W19771  33.119  11.719   0.468
48101W        W19772  43.503  43.300  13.298
48102W        W19773  19.524  32.442  13.871
48103W        W19774  30.498  41.365   0.970
48104W        W19775  22.000  23.507  12.659
48105W        W19776  24.011  20.750   1.858
48106W        W19777  13.774  26.368  12.114
48107W        W19778  22.638  26.687  13.325
48108W        W19779  43.713   2.185  11.711
48109W        W19780   3.509  19.839  13.663
48110W        W19781   7.808  44.949   3.835
48111W        W19782  41.525  22.482  14.427
48112W        W19783  24.970  16.818   1.590
48113W        W19784  14.505   7.695   4.099
48114W        W19785  32.339  30.154   2.363
48115W        W19786  42.982  26.759  10.678
48116W        W19787   4.392  28.340   0.861
48117W        W19788  36.553  11.548  12.598
48118W        W19789  37.635  17.327  12.619
48119W        W19790   9.610  12.421   0.925
48120W        W19791  41.045  31.601   3.153
48121W        W19792  29.935  31.077   1.036
48122W        W19793  15.262   8.060   0.846
48123W        W19794  32.525  24.225  11.179
48124W        W19795  35.571  12.079  12.520
48125W        W19796  15.391  10.832  13.041
48126W        W19797  24.937  14.594  10.751
48127W        W19798  41.857  17.650   0.901
48128W        W19799  38.949  28.010  14.527
48129W        W19800  32.569  41.061  14.797
48130W        W19801  28.221  22.456   3.752
48131W        W19802  43.398  44.802   3.269
48132W        W19803  23.668   0.629  10.735
48133W        W19804  26.948  44.400  11.528
48134W        W19805  40.499  40.746  12.032
48135W        W19806  21.768  25.701  14.343
48136W        W19807  36.912  33.471   3.219
48137W        W19808  20.622  31.094   1.130
48138W        W19809   2.753  37.347   3.890
48139W        W19810  26.894  42.739  12.026
48140W        W19811  24.264  38.104  12.841
48141W        W19812  25.587  20.306  13.332
48142W        W19813  17.465  39.404  14.822
48143W        W19814  28.548  33.492   2.369
48144W        W19815  13.170  22.151   3.875
48145W        W19816  21.862  38.868  11.939
48146W        W19817   5.487  29.721  14.971
48147W        W19818  37.329  24.655  12.542
48148W        W19819  10.366  44.826   2.619
48149W        W19820   0.262  16.667   4.084
48150W        W19821  36.971  42.418   0.969
48151W        W19822   2.956  35.544  11.200
48152W        W19823  21.668  42.487  11.402
48153W        W19824  41.753  26.026   2.708
48154W        W19825   8.209  32.279   2.136
48155W        W19826   7.432   8.915  11.073
48156W        W19827   5.500  37.837  12.376
48157W        W19828   9.249  33.869   2.470
48158W        W19829   2.256  15.157   4.310
48159W        W19830  38.081  23.997   1.293
48160W        W19831  31.900  33.026  12.922
48161W        W19832  14.753   2.725   1.572
48162W        W19833  42.317  23.277   1.837
48163W        W19834   1.393   6.126  11.478
48164W        W19835   5.318  27.911   1.675
48165W        W19836   2.497   0.397  14.891
48166W        W19837  23.250  21.729   0.052
48167W        W19838  10.496   1.249  11.378
48168W        W19839  44.916  19.183   4.604
48169W        W19840  25.996   4.467  10.761
48170W        W19841  31.648  39.121  14.809
48171W        W19842   6.637  39.755  13.913
48172W        W19843  31.904   6.302  13.580
48173W        W19844  13.321  36.948   0.275
48174W        W19845  19.675   5.691   2.580
48175W        W19846   7.282  22.340   3.154
48176W        W19847   4.113  35.903   4.658
48177W        W19848  38.785  22.025  10.238
48178W        W19849  30.562  37.987   1.513
48179W        W19850  31.617  38.565  11.571
48180W        W19851  20.218  13.881   2.277
48181W        W19852   0.475  25.107   0.947
48182W        W19853   5.476  35.764   3.606
48183W        W19854  41.711  40.360   5.030
48184W        W19855  26.043  23.642  12.072
48185W        W19856  10.164   6.283  14.818
48186W        W19857  16.849  10.366   3.241
48187W        W19858  16.794  39.176  12.361
48188W        W19859   7.698  34.038   3.663
48189W        W19860  25.753  33.209  13.888
48190W        W19861  43.548  27.214   1.430
48191W        W19862  28.556   3.966   3.633
48192W        W19863   7.835  36.135  11.648
48193W        W19864  42.840  31.424  12.989
48194W        W19865   6.981   0.801   4.256
48195W        W19866  38.374   0.896  10.750
48196W        W19867  39.280   8.198  12.958
48197W        W19868  25.578  24.971  14.875
48198W        W19869  28.221  25.688   4.128
48199W        W19870  22.521   5.682  13.424
48200W        W19871  19.000  33.103   2.061
48201W        W19872  35.953  11.862  14.281
48202W        W19873  22.026  15.063  14.458
48203W        W19874  18.729  11.911   1.452
48204W        W19875   4.376  14.227   3.690
48205W        W19876   5.407  22.068   3.121
48206W        W19877  19.050  20.863   3.632
48207W        W19878   5.118  25.516   4.124
48208W        W19879  34.685   2.888   2.626
48209W        W19880  31.238  28.974  12.409
48210W        W19881  20.173  39.859   1.375
48211W        W19882  11.491  18.582   0.295
48212W        W19883  28.391  12.701  14.825
48213W        W19884  23.009  13.058  12.617
48214W        W19885  36.995   9.958  11.350
48215W        W19886  25.270  28.142   0.775
48216W        W19887  32.432  33.446   4.718
48217W        W19888  23.054   9.689   2.430
48218W        W19889  41.547  37.473   4.173
48219W        W19890  21.804  15.285  14.893
48220W        W19891  21.791  42.396  11.892
48221W        W19892  37.053  24.124   3.696
48222W        W19893  39.663  20.700  14.649
48223W        W19894  44.471   6.107   5.028
48224W        W19895  20.695  24.558   2.236
48225W        W19896   3.733  14.201  10.257
48226W        W19897  24.119   7.206   2.601
48227W        W19898  12.793  44.301   1.803
48228W        W19899  13.662   6.762  13.677
48229W        W19900  24.314   1.779  14.493
48230W        W19901  20.180  31.425   4.756
48231W        W19902  29.921   3.118   1.359
48232W        W19903  28.463  11.872  11.472
48233W        W19904  44.916  11.245   2.886
48234W        W19905  33.104   4.298  12.032
48235W        W19906  28.445  21.165  10.722
48236W        W19907  10.567  21.763   2.727
48237W        W19908   0.756  31.529  10.988
48238W        W19909  22.056  40.315   2.599
48239W        W19910  12.775  23.179  14.772
48240W        W19911  42.383  30.431  11.530
48241W        W19912   6.412  35.655  10.008
48242W        W19913  29.975  11.836  14.321
48243W        W19914  36.118  41.287   3.131
48244W        W19915   7.366   9.282   0.370
48245W        W19916  18.858  31.533   3.912
48246W        W19917  29.683  36.736   4.814
48247W        W19918  12.824  16.213   0.299
48248W        W19919  32.680  34.307  11.566
48249W        W19920   5.320   8.365  10.512
48250W        W19921  31.474  22.935  12.632
48251W        W19922  18.377  18.818  13.874
48252W        W19923  12.399  26.107  13.508
48253W        W19924  12.911  40.803  11.246
48254W        W19925  29.700   8.859   4.204
48255W        W19926  32.428  28.151   2.169
48256W        W19927  44.325   3.770  11.599
48257W        W19928  30.053  41.512  14.380
48258W        W19929   5.733  42.894  11.049
48259W        W19930  24.555  11.118  12.080
48260W        W19931  31.513  20.046   3.168
48261W        W19932  23.099   3.438  13.929
48262W        W19933   8.421  41.220   0.788
48263W        W19934   1.198  18.222  13.342
48264W        W19935  21.937   1.797   3.359
48265W        W19936  36.035   6.768  13.476
48266W        W19937  44.211   6.443  11.584
48267W        W19938  13.355  26.900  11.169
48268W        W19939  23.516  44.858   1.407
48269W        W19940  29.964  36.838  11.427
48270W        W19941  15.056  43.528   0.273
48271W        W19942  29.122   8.913  12.837
48272W        W19943  35.294  17.504   1.706
48273W        W19944  13.445  25.562  13.032
48274W        W19945  41.267   0.324   2.127
48275W        W19946  13.449  36.362   4.148
48276W        W19947  44.564   2.483   1.057
48277W        W19948   0.656   9.932   0.354
48278W        W19949  14.249  17.620   1.402
48279W        W19950  11.348  18.087  13.024
48280W        W19951  29.981   9.331  11.933
48281W        W19952  32.250  27.111  14.070
48282W        W19953  38.568  41.311  12.388
48283W        W19954   2.531  38.855   4.492
48284W        W19955  11.695   3.035  12.708
48285W        W19956  24.519  11.594  14.910
48286W        W19957  38.115   8.676   0.600
48287W        W19958  19.321  36.566   0.452
48288W        W19959  13.234  22.937   1.826
48289W        W19960  24.708  44.886   1.543
48290W        W19961   5.188  43.924  13.528
48291W        W19962  15.608  41.913  12.476
48292W        W19963  42.906  39.596  12.902
48293W        W19964   5.960  26.606   2.760
48294W        W19965  34.415   1.812  11.551
48295W        W19966  35.539   3.587   2.667
48296W        W19967   9.071  43.783   0.382
48297W        W19968  28.243  16.140  12.474
48298W        W19969  11.880   5.284   4.601
48299W        W19970  35.078   4.271  10.814
48300W        W19971  25.402   1.448  13.969
48301W        W19972   0.785   4.919   0.315
48302W        W19973  32.900   5.326   3.703
48303W        W19974  14.095  27.524   3.695
48304W        W19975  40.380  14.166  12.716
48305W        W19976   7.963  44.228  12.569
48306W        W19977  41.298   7.329   3.254
48307W        W19978  20.246  30.383   2.233
48308W        W19979  33.505   2.491  14.816
48309W        W19980  22.510  10.171  13.511
48310W        W19981   4.204  23.062  13.569
48311W        W19982  19.206  35.937   1.491
48312W        W19983  27.401  28.920   3.106
48313W        W19984  27.483   4.775  12.555
48314W        W19985  39.576  26.621   0.812
48315W        W19986  15.242  37.431   4.719
48316W        W19987  33.860  25.216  14.190
48317W        W19988  17.328  12.388   0.817
48318W        W19989  39.035  32.702  11.668
48319W        W19990  24.465  29.153  14.951
48320W        W19991  21.967  41.847  12.390
48321W        W19992   4.379   3.013   4.776
48322W        W19993  33.103  11.727  14.209
48323W        W19994  13.940  17.568   0.989
48324W        W19995  25.172  30.572   1.338
48325W        W19996  35.744  31.453   3.736
48326W        W19997   9.008  44.287  11.157
48327W        W19998  29.296  40.087  11.076
48328W        W19999   7.438   0.834  13.428
48329W        W20000   6.845  13.708  13.376
48330W        W20001   6.138  32.320  12.724
48331W        W20002  15.651  31.401  10.568
48332W        W20003  18.388  24.233  11.111
48333W        W20004  39.605  14.404   2.361
48334W        W20005  43.715  20.335  11.573
48335W        W20006  44.527  14.064  13.398
48336W        W20007  27.650  43.022  13.930
48337W        W20008  44.250  21.251   4.174
48338W        W20009  17.725  44.259  14.018
48339W        W20010  38.642  13.692  12.311
48340W        W20011   2.022  14.616   2.207
48341W        W20012  40.495  12.123   0.438
48342W        W20013   1.411  35.850   2.641
48343W        W20014  24.091  32.905  13.030
48344W        W20015  42.176  39.100  12.753
48345W        W20016  28.272   5.391  12.306
48346W        W20017  28.990  30.111   0.513
48347W        W20018  29.426   7.258   2.706
48348W        W20019  25.038  43.465   2.719
48349W        W20020  19.581  18.821  13.601
48350W        W20021  34.589   4.727   1.954
48351W        W20022   2.309  37.765  13.015
48352W        W20023  31.890  37.024   4.026
48353W        W20024  17.999   5.639   3.221
48354W        W20025   1.687  37.452   4.900
48355W        W20026  12.743  14.670  12.536
48356W        W20027  25.979  10.814   3.178
48357W        W20028  35.852  21.291   1.634
48358W        W20029  44.149  32.039   4.266
48359W        W20030  36.090   4.391  10.431
48360W        W20031  31.433  17.274  11.170
48361W        W20032  15.787  37.391  13.459
48362W        W20033  39.984   7.893   4.098
48363W        W20034  34.473  37.401  12.346
48364W        W20035   3.766   0.270  12.015
48365W        W20036  26.945  44.989   3.183
48366W        W20037  15.011  30.178   2.291
48367W        W20038  44.968  29.036   1.426
48368W        W20039   4.763  18.493   2.879
48369W        W20040  20.220  28.908   0.449
48370W        W20041  17.276  25.032   3.159
48371W        W20042  10.020   4.864   3.126
48372W        W20043  43.798  22.812  12.474
48373W        W20044  37.158  18.574   2.802
48374W        W20045  13.354  12.872   0.435
48375W        W20046  31.890  27.167  12.219
48376W        W20047  29.389  39.341   2.811
48377W        W20048  36.918  40.812   3.495
48378W        W20049   7.864  39.818  10.825
48379W        W20050   4.209   7.859   1.380
48380W        W20051  24.448  10.729   4.840
48381W        W20052  26.162  15.801  12.974
48382W        W20053  14.796  30.718  14.753
48383W        W20054  28.568   5.272  11.907
48384W        W20055   7.149  40.306  11.534
48385W        W20056   6.378  25.077   0.860
48386W        W20057   9.066   9.842  11.293
48387W        W20058  34.588  10.546  11.554
48388W        W20059  27.512  35.819  10.700
48389W        W20060   8.655  12.403  12.404
48390W        W20061   1.767  18.671   2.370
48391W        W20062   7.718  13.714  13.032
48392W        W20063  11.469  23.214  11.634
48393W        W20064  37.109   4.935  11.542
48394W        W20065  33.894  11.153  13.503
48395W        W20066   1.595  11.545  11.871
48396W        W20067   8.331   4.302   4.899
48397W        W20068   8.378   8.214   4.720
48398W        W20069  15.172  19.499  11.605
48399W        W20070  43.692  36.031  12.528
48400W        W20071   3.089  39.596  13.976
48401W        W20072  35.463  22.743   1.600
48402W        W20073  44.451  27.705  12.058
48403W        W20074   1.430  17.304   2.367
48404W        W20075  42.920  33.075  14.961
48405W        W20076   5.295  14.086   1.686
48406W        W20077  11.163  27.386   0.226
48407W        W20078   8.065   2.227  12.127
48408W        W20079  17.158  17.239   3.175
48409W        W20080  33.542  22.613  10.709
48410W        W20081  23.656  23.477  11.695
48411W        W20082   0.937   6.552   3.051
48412W        W20083  14.645  25.186  14.970
48413W        W20084  32.916   8.464  14.896
48414W        W20085  24.440   5.091  13.762
48415W        W20086  20.260  41.741  14.207
48416W        W20087  11.203  22.985   1.941
48417W        W20088  10.231  41.800  13.521
48418W        W20089   9.969  42.463   1.301
48419W        W20090  34.174  29.030  12.494
48420W        W20091   0.246   0.793  13.384
48421W        W20092  19.564  18.042   2.693
48422W        W20093  27.634  41.306  14.672
48423W        W20094   8.901  37.026  12.952
48424W        W20095  20.234  36.316  12.392
48425W        W20096  25.360  42.733  12.920
48426W        W20097   6.613  38.583   4.120
48427W        W20098   9.909  17.285   2.422
48428W        W20099  15.395  22.489  11.647
48429W        W20100  29.135  12.297  13.459
48430W        W20101  25.466   7.321  11.683
48431W        W20102  42.741   9.918  11.607
48432W        W20103  28.681  23.623  14.273
48433W        W20104  25.959  23.561  14.947
48434W        W20105  30.436  39.244  13.393
48435W        W20106  13.380  28.792  11.116
48436W        W20107  41.425  33.526   1.787
48437W        W20108  44.441  20.292  12.095
48438W        W20109  24.927  39.882  14.871
48439W        W20110  19.329  33.601   4.144
48440W        W20111  34.990  20.983  13.969
48441W        W20112  24.333  43.444  12.471
48442W        W20113  21.989   9.887  14.766
48443W        W20114  10.369  38.912   4.319
48444W        W20115  31.834  17.182   2.150
48445W        W20116   4.047   4.025  13.399
48446W        W20117  22.214   1.245  11.982
48447W        W20118  11.146  39.025   0.417
48448W        W20119  30.397  12.687  10.863
48449W        W20120   7.841  26.744  11.682
48450W        W20121   3.894  16.819   1.255
48451W        W20122  40.842  43.673   3.303
48452W        W20123  39.070  14.649  12.496
48453W        W20124  38.308  19.027  12.964
48454W        W20125  28.701  16.309   2.383
48455W        W20126   9.732  41.500  12.420
48456W        W20127   3.336  12.240   4.265
48457W        W20128  12.227  27.124   3.234
48458W        W20129  27.206  22.462  12.779
48459W        W20130   8.590  20.763   5.364
48460W        W20131  38.529   1.208   3.127
48461W        W20132  18.256  35.898  10.738
48462W        W20133   5.177  15.624  13.495
48463W        W20134  19.193  33.106   4.218
48464W        W20135   1.838  13.834   1.110
48465W        W20136  24.288  13.662  14.329
48466W        W20137  17.795  28.329   1.158
48467W        W20138  28.156  24.605   1.276
48468W        W20139  37.910  24.066  13.384
48469W        W20140  31.851  37.680  10.961
48470W        W20141  24.049  44.390   4.989
48471W        W20142   6.844   8.496   2.413
48472W        W20143  26.215  17.328   2.779
48473W        W20144  41.264   1.815   3.283
48474W        W20145  21.168  13.241  13.771
48475W        W20146  22.623  31.058  11.529
48476W        W20147   2.368  42.029   2.681
48477W        W20148  39.391  11.687  13.369
48478W        W20149  25.770  11.396  13.572
48479W        W20150   9.345   4.871  10.256
48480W        W20151   0.554  12.813   1.742
48481W        W20152   2.317  13.831  13.978
48482W        W20153  33.549  37.312   3.317
48483W        W20154  44.023  21.860  12.568
48484W        W20155  25.727   8.726   5.658
48485W        W20156  24.668  42.159  14.029
48486W        W20157  23.073  41.926   2.846
48487W        W20158  43.241   9.868  14.927
48488W        W20159   2.358   5.330  11.994
48489W        W20160   6.922  36.739   1.381
48490W        W20161  26.001  18.481  10.685
48491W        W20162  38.475  17.378   2.884
48492W        W20163  34.853   5.486   0.537
48493W        W20164  32.904  24.156   2.875
48494W        W20165  40.577  27.732  14.534
48495W        W20166  17.354   3.844  14.026
48496W        W20167   2.455   5.962  11.288
48497W        W20168  31.878   3.654   3.927
48498W        W20169  35.089   1.299  13.910
48499W        W20170   8.258  12.310  10.614
48500W        W20171  25.494  15.781   3.429
48501W        W20172  35.826  22.832  14.516
48502W        W20173   1.382   0.473   2.315
48503W        W20174  40.281   0.933  11.692
48504W        W20175   3.710   0.984   1.769
48505W        W20176  15.333  12.268   1.827
48506W        W20177   5.267  11.097  11.575
48507W        W20178   0.777  10.461   2.154
48508W        W20179  40.340  28.606  10.333
48509W        W20180  10.921  35.020   4.620
48510W        W20181  19.015  44.887  11.663
48511W        W20182  27.094  30.970  14.003
48512W        W20183  28.494  15.696   3.584
48513W        W20184  44.234   1.488  12.020
48514W        W20185  39.242   2.623  12.440
48515W        W20186  41.811  29.997   3.763
48516W        W20187  37.294  11.261  13.535
48517W        W20188   4.291  24.182   1.433
48518W        W20189  15.396  24.553  12.164
48519W        W20190  28.484  20.583   0.853
48520W        W20191  41.562  26.224   0.223
48521W        W20192   6.669  38.324   3.204
48522W        W20193  41.773  29.924   1.938
48523W        W20194   0.234   7.809   3.717
48524W        W20195  27.561  40.101   2.779
48525W        W20196  16.566  42.794   3.147
48526W        W20197  10.215  17.144   2.827
48527W        W20198  15.136  11.309   0.461
48528W        W20199  43.149  35.829   5.079
48529W        W20200  19.840   5.754   4.425
48530W        W20201  40.801  22.009   3.166
48531W        W20202  14.280   6.761  12.971
48532W        W20203   7.759  22.190   3.177
48533W        W20204  39.024   8.656   1.634
48534W        W20205   4.693  26.534  12.505
48535W        W20206  15.121  35.052   2.459
48536W        W20207  42.276   6.221  13.501
48537W        W20208  36.938  32.054  11.916
48538W        W20209   6.924  14.300   0.448
48539W        W20210  20.750  41.282  13.167
48540W        W20211  36.146   4.255   4.069
48541W        W20212   7.576  39.356  11.572
48542W        W20213  12.489   0.598  10.878
48543W        W20214  32.043  34.842  12.433
48544W        W20215   6.723  13.627   4.323
48545W        W20216   4.361   4.670   1.390
48546W        W20217   1.291  18.830  10.952
48547W        W20218  36.482  12.195   2.750
48548W        W20219  38.926  38.430   1.475
48549W        W20220  43.995   2.862   4.546
48550W        W20221  41.227   4.840   0.884
48551W        W20222   4.286  23.227   4.226
48552W        W20223  25.561  44.975   3.169
48553W        W20224  36.637  31.821  10.984
48554W        W20225  41.591  34.431   4.181
48555W        W20226  30.648  18.799  11.905
48556W        W20227   1.255   3.648  10.603
48557W        W20228  26.577   3.320   2.836
48558W        W20229  38.298  19.318   2.790
48559W        W20230  15.757  23.952  13.446
48560W        W20231  23.994  42.792   2.946
48561W        W20232   1.456   2.229  14.035
48562W        W20233  35.874  24.129  12.015
48563W        W20234   0.807   3.045   2.830
48564W        W20235  25.183  38.312  13.881
48565W        W20236   0.279  32.407  10.714
48566W        W20237  29.945  15.185  13.443
48567W        W20238  24.226  35.909   0.400
48568W        W20239  42.205  25.518  12.572
48569W        W20240  13.374  11.919   0.748
48570W        W20241   7.671   4.938  12.975
48571W        W20242   4.983   3.299   1.718
48572W        W20243  22.530  14.663   3.858
48573W        W20244  44.411  34.588   1.169
48574W        W20245  11.759  44.871   2.384
48575W        W20246  21.783  42.477   4.705
48576W        W20247  30.995  15.718  10.722
48577W        W20248  42.546  17.235   0.420
48578W        W20249  12.276  18.518  12.471
48579W        W20250  27.206  34.065   1.267
48580W        W20251  13.368  38.431  14.988
48581W        W20252   8.682  25.476  10.612
48582W        W20253  33.100  15.108  14.191
48583W        W20254  32.076  19.747   3.334
48584W        W20255   3.049   3.724  14.509
48585W        W20256  10.826  27.579   4.262
48586W        W20257   8.805  33.433   4.527
48587W        W20258  29.097  11.123  10.503
48588W        W20259   2.978   7.087   3.180
48589W        W20260  42.911  34.137  12.870
48590W        W20261  43.205   3.439  11.592
48591W        W20262  16.305  27.890  14.498
48592W        W20263   8.867  26.810  14.426
48593W        W20264  22.146   3.484  14.011
48594W        W20265  11.673   2.284  14.588
48595W        W20266  21.016  12.328  11.597
48596W        W20267  40.557   4.776  12.368
48597W        W20268  11.064  21.518   2.726
48598W        W20269  18.755  13.095  10.447
48599W        W20270   1.410  43.078   0.677
48600W        W20271  13.729  40.947  10.741
48601W        W20272  42.917  15.706  12.973
48602W        W20273  17.614  35.567  14.041
48603W        W20274  12.591  24.610   1.377
48604W        W20275  12.629  14.211   4.240
48605W        W20276   3.691  32.755  12.034
48606W        W20277  21.304  42.497  13.790
48607W        W20278  16.920   0.696  14.262
48608W        W20279  23.950  10.704  14.586
48609W        W20280  28.212  32.392  11.950
48610W        W20281  34.454  17.758   1.416
48611W        W20282  19.042   3.329   3.622
48612W        W20283   7.824   7.050   1.015
48613W        W20284  15.674  13.564   1.913
48614W        W20285  16.665  42.264   3.189
48615W        W20286   9.228  25.570  13.382
48616W        W20287   9.849   9.779   4.221
48617W        W20288  34.665  18.060  12.877
48618W        W20289  17.646  27.969  13.859
48619W        W20290   2.913   7.827   1.861
48620W        W20291  16.179  44.508   2.306
48621W        W20292  44.289   4.781  12.479
48622W        W20293  39.050   3.876  10.485
48623W        W20294   6.738  17.361  10.778
48624W        W20295   2.410   4.739  14.350
48625W        W20296  25.974   6.264  14.247
48626W        W20297  41.469  11.855   1.517
48627W        W20298  39.130   6.808   1.810
48628W        W20299  35.636  19.820  14.100
48629W        W20300  14.973  38.613   0.031
48630W        W20301  22.891  22.314   4.234
48631W        W20302  26.472  16.149  13.895
48632W        W20303  20.263  20.088   1.861
48633W        W20304  15.695  43.368  12.932
48634W        W20305   5.804  38.097   0.954
48635W        W20306  27.576   4.932  13.771
48636W        W20307  17.602  34.849  12.955
48637W        W20308   7.410  34.057  10.712
48638W        W20309  21.796  17.740   3.357
48639W        W20310  29.047  34.933   1.282
48640W        W20311   6.408  30.094  11.522
48641W        W20312  30.685  32.913  14.248
48642W        W20313  22.220  42.142  10.631
48643W        W20314  44.932   5.927   1.395
48644W        W20315  44.727  10.255   2.677
48645W        W20316  32.515   5.976   2.545
48646W        W20317  36.908   1.565   2.795
48647W        W20318  28.094  35.677   3.941
48648W        W20319   3.824  43.762  12.991
48649W        W20320  28.861  42.966   3.580
48650W        W20321   9.847   1.676   1.860
48651W        W20322   0.828  10.221   1.715
48652W        W20323  25.591  19.362  12.919
48653W        W20324   0.503  40.343  12.098
48654W        W20325  19.340   8.578  14.995
48655W        W20326  37.492  33.590  13.311
48656W        W20327  24.461  33.476  11.828
48657W        W20328  29.447  35.330   0.888
48658W        W20329   0.908  42.820   2.687
48659W        W20330  31.389   3.343  13.834
48660W        W20331  34.596  10.451  13.399
48661W        W20332   8.843  24.042  10.877
48662W        W20333   1.789  38.757   1.000
48663W        W20334  41.287  20.605   4.028
48664W        W20335  17.067   5.347   2.175
48665W        W20336  36.732  24.515  11.738
48666W        W20337  35.676   9.344  12.208
48667W        W20338  27.832  27.919   1.927
48668W        W20339  32.336  40.944   2.346
48669W        W20340  20.122  26.339   1.327
48670W        W20341  19.473  10.093  13.856
48671W        W20342  22.630  36.704   3.838
48672W        W20343  17.293  13.747  10.962
48673W        W20344  28.127  22.590  14.476
48674W        W20345  34.926   9.659   4.930
48675W        W20346  40.452  16.316  13.758
48676W        W20347  24.239  42.389  13.293
48677W        W20348  27.465   1.523   3.983
48678W        W20349  36.932  22.915  12.840
48679W        W20350  36.497  16.323   2.842
48680W        W20351   6.212   3.499  12.502
48681W        W20352   2.766  24.668   4.895
48682W        W20353  24.100  12.237   2.835
48683W        W20354  13.380   1.340  11.155
48684W        W20355  29.796  36.408   0.019
48685W        W20356  10.098   5.858  12.972
48686W        W20357  41.721  24.125  13.554
48687W        W20358   7.899  23.293   2.381
48688W        W20359  19.596  25.940  12.136
48689W        W20360  32.305  34.965  12.861
48690W        W20361  11.713  15.346   4.231
48691W        W20362  29.306  25.230   4.597
48692W        W20363  21.240   1.451  12.079
48693W        W20364   6.482  19.733  13.419
48694W        W20365   1.693   3.238  12.607
48695W        W20366   5.460  39.973   3.634
48696W        W20367  19.489  17.297  14.279
48697W        W20368   0.260  43.539  11.516
48698W        W20369  21.784  30.342  11.165
48699W        W20370  17.535  24.076   2.710
48700W        W20371   7.130  39.480   4.025
48701W        W20372  24.106  38.563  14.785
48702W        W20373  40.734   6.520   4.129
48703W        W20374  19.009  14.326   0.945
48704W        W20375   1.365  36.331  12.615
48705W        W20376  30.524  36.999   1.420
48706W        W20377  10.808   5.187   1.938
48707W        W20378  35.013  24.291  13.427
48708W        W20379   2.858  41.396  12.871
48709W        W20380   7.641  33.863  12.833
48710W        W20381  23.236  31.172   3.672
48711W        W20382  15.085  21.073   1.958
48712W        W20383  23.865  27.240  10.708
48713W        W20384   2.651   4.835  10.419
48714W        W20385  38.939  17.604  10.243
48715W        W20386  31.566  39.757   4.439
48716W        W20387   0.661  19.729   1.458
48717W        W20388  17.246  14.708   2.843
48718W        W20389  27.332  44.685  12.560
48719W        W20390  28.143  14.535   4.152
48720W        W20391  15.773   3.836   4.926
48721W        W20392  28.464   4.931   1.330
48722W        W20393  32.549   8.968   4.573
48723W        W20394  22.092  42.491  14.434
48724W        W20395   3.765  23.483  10.569
48725W        W20396  16.839  32.428  10.778
48726W        W20397  10.844  37.983   4.360
48727W        W20398  44.047  27.163  13.833
48728W        W20399  44.723   2.768  12.547
48729W        W20400   9.537   2.711   3.173
48730W        W20401   5.248  21.651   1.311
48731W        W20402  30.003  17.277   0.755
48732W        W20403  11.086   2.431   2.455
48733W        W20404  35.372  36.293  12.706
48734W        W20405  32.118   0.252  14.822
48735W        W20406  43.350   4.937   0.384
48736W        W20407  12.845  15.183  10.380
48737W        W20408   7.871  17.569  12.505
48738W        W20409  39.353  14.792  11.483
48739W        W20410  34.666   7.851  11.125
48740W        W20411  44.790  26.739   4.688
48741W        W20412  13.081  13.298   0.850
48742W        W20413  15.921  24.010   2.216
48743W        W20414  37.417  23.731   4.497
48744W        W20415  10.654  27.956   4.879
48745W        W20416  33.498   6.798  10.724
48746W        W20417  33.485  38.858  13.475
48747W        W20418  39.791   9.228   0.269
48748W        W20419  43.548  24.001  11.007
48749W        W20420   9.348  39.352   0.328
48750W        W20421  43.726  42.485   0.798
48751W        W20422   3.756  13.365   2.826
48752W        W20423  27.424  44.312  10.753
48753W        W20424  21.789  18.355   0.795
48754W        W20425  14.661  18.029   1.704
48755W        W20426  30.130   9.303  13.607
48756W        W20427  39.858  40.414  13.122
48757W        W20428  37.284  14.138  12.444
48758W        W20429  41.526  28.223  12.965
48759W        W20430  37.658  30.935  14.198
48760W        W20431   7.751   4.341   1.959
48761W        W20432  42.226   1.432   4.562
48762W        W20433   4.895  42.336  14.010
48763W        W20434  27.059  19.752  12.383
48764W        W20435  21.591  10.189   1.843
48765W        W20436  17.385  32.533   1.754
48766W        W20437  30.872  44.475   3.801
48767W        W20438  44.769  15.923  10.152
48768W        W20439  24.087  34.312   3.283
48769W        W20440   7.545  33.639   2.736
48770W        W20441  36.598  27.608   3.328
48771W        W20442  18.747  35.685   0.874
48772W        W20443  44.725  14.157   3.201
48773W        W20444  15.313  27.947   4.658
48774W        W20445  43.806  23.260   0.983
48775W        W20446  32.449  26.761   1.940
48776W        W20447  43.062   9.133   0.525
48777W        W20448  17.226  36.615  11.005
48778W        W20449  32.337  26.516   2.381
48779W        W20450  11.213  10.210  13.520
48780W        W20451  27.054  44.070  13.379
48781W        W20452   6.838  42.491  10.884
48782W        W20453  36.136  26.870   1.440
48783W        W20454  37.909  18.892  14.604
48784W        W20455  13.679  25.730  10.797
48785W        W20456  32.924   4.387   2.234
48786W        W20457  44.826  30.957  10.562
48787W        W20458  10.327  21.327  12.297
48788W        W20459  10.637  22.207  13.249
48789W        W20460   5.821  36.928  10.970
48790W        W20461  11.724  20.755   4.192
48791W        W20462   4.492  40.501  11.580
48792W        W20463   4.233  32.668   2.334
48793W        W20464   5.492  39.864  11.152
48794W        W20465  32.324  22.632  14.669
48795W        W20466  34.585  19.971   0.817
48796W        W20467  28.484   1.415   1.305
48797W        W20468  36.600  34.339  14.397
48798W        W20469  12.938  33.346   1.814
48799W        W20470  40.753  34.393  13.552
48800W        W20471  37.559  27.950  14.405
48801W        W20472  10.627  25.569  12.452
48802W        W20473   1.811  39.773   0.773
48803W        W20474   5.829  10.324   3.184
48804W        W20475  20.480  17.766   0.373
48805W        W20476   8.033  44.252   2.789
48806W        W20477   3.211   4.196  14.377
48807W        W20478  42.922  37.799   4.070
48808W        W20479  24.263  12.712   1.108
48809W        W20480  41.954  15.623   1.686
48810W        W20481  23.887  36.680   0.204
48811W        W20482  15.690   8.085  12.658
48812W        W20483   2.963  19.005   3.619
48813W        W20484  37.499  31.911  10.932
48814W        W20485   9.754   6.130  13.412
48815W        W20486  37.530  18.880  12.007
48816W        W20487   1.253   9.664  11.252
48817W        W20488   9.760   8.743   1.788
48818W        W20489  11.526  24.084  14.034
48819W        W20490  39.876  43.438  11.476
48820W        W20491  26.213  40.411   3.233
48821W        W20492   0.443  39.920   4.270
48822W        W20493  44.092  37.163   3.335
48823W        W20494  44.519  43.245  11.071
48824W        W20495  15.607   2.240  14.438
48825W        W20496  24.322  35.296  10.840
48826W        W20497  37.062  17.104  13.883
48827W        W20498  23.541  23.562   3.285
48828W        W20499  30.050  27.894   0.670
48829W        W20500  39.405   3.400   1.939
48830W        W20501  32.182   5.739   2.873
48831W        W20502  35.095  36.473   0.716
48832W        W20503  31.394  41.268  11.512
48833W        W20504  39.048   5.764  14.907
48834W        W20505  36.463  35.198   4.647
48835W        W20506   4.287  18.206   4.885
48836W        W20507  30.429  23.468   1.479
48837W        W20508  39.502  24.296   4.109
48838W        W20509  33.105  21.283  13.035
48839W        W20510  18.988   7.350  12.463
48840W        W20511  13.242  19.896  10.389
48841W        W20512  34.607  20.419  11.537
48842W        W20513  27.397  42.086   1.488
48843W        W20514   8.092  10.079  12.083
48844W        W20515  28.607  32.323   0.567
48845W        W20516   8.054  43.935  14.263
48846W        W20517  12.918   8.619   4.144
48847W        W20518  29.854  39.753  14.418
48848W        W20519  40.354  40.025   1.146
48849W        W20520  15.071   8.711   1.467
48850W        W20521  13.777  18.712  11.602
48851W        W20522  20.155  20.703   1.107
48852W        W20523  44.461  44.066   1.730
48853W        W20524  17.081   8.166  14.614
48854W        W20525   1.287   6.372  11.939
48855W        W20526   3.529  43.843  14.830
48856W        W20527   4.664  26.031  14.440
48857W        W20528  18.639  34.706   5.039
48858W        W20529  22.158   4.894   2.340
48859W        W20530  10.436   4.886   2.144
48860W        W20531  41.356   8.411  10.801
48861W        W20532  30.449  18.978  10.837
48862W        W20533  38.416  43.878   0.394
48863W        W20534  23.671  39.885   5.039
48864W        W20535  33.830  24.495  11.608
48865W        W20536  24.651   8.840   3.718
48866W        W20537  18.518  13.124  11.835
48867W        W20538  32.086  27.875  13.419
48868W        W20539  18.997  31.605  11.070
48869W        W20540   0.475  27.458  14.952
48870W        W20541   8.830  16.287  14.357
48871W        W20542  18.315  11.695   1.256
48872W        W20543  37.025   4.792   1.290
48873W        W20544  38.032  21.734   2.811
48874W        W20545  21.577  23.055   1.401
48875W        W20546  14.097  19.787   1.048
48876W        W20547  28.681  18.794  14.832
48877W        W20548   8.657   6.665   1.231
48878W        W20549  23.895   6.253   1.297
48879W        W20550  26.576  34.587   3.336
48880W        W20551  36.600   6.880  14.725
48881W        W20552  22.651  38.910  10.399
48882W        W20553  30.670  10.628   4.121
48883W        W20554  32.229   0.946   4.988
48884W        W20555  31.355  34.799   4.804
48885W        W20556  12.163   0.891   3.118
48886W        W20557   0.401  35.086  12.613
48887W        W20558  36.539   2.484   3.726
48888W        W20559  18.902  43.381  13.503
48889W        W20560  31.933  15.403   1.350
48890W        W20561  37.545  10.121   4.859
48891W        W20562  44.362  40.311   2.358
48892W        W20563  10.805  22.512   3.453
48893W        W20564  44.767  38.641   4.731
48894W        W20565  32.572  44.914   4.092
48895W        W20566  29.110  23.957  11.106
48896W        W20567  11.138   4.541  13.355
48897W        W20568  20.796  19.140   1.412
48898W        W20569  32.104  23.571  11.524
48899W        W20570  19.740  11.210  10.669
48900W        W20571   2.126  18.324   4.355
48901W        W20572   2.913  14.276  13.500
48902W        W20573   0.911  11.928   4.169
48903W        W20574   0.869  22.655   4.788
48904W        W20575  18.300  30.464   1.332
48905W        W20576  25.486  28.682  11.988
48906W        W20577   0.489   7.312  14.902
48907W        W20578  39.869  18.536  10.869
48908W        W20579  28.403  35.623  11.618
48909W        W20580  27.354  31.211  12.046
48910W        W20581  31.064  36.795  12.757
48911W        W20582  23.363   3.882   0.824
48912W        W20583  22.070  20.651   0.345
48913W        W20584  12.173   3.264  13.762
48914W        W20585   2.949  13.419   2.378
48915W        W20586   6.402  18.509   1.854
48916W        W20587  11.026  35.346   0.392
48917W        W20588  13.910  44.924  10.682
48918W        W20589  29.018  27.624  11.194
48919W        W20590  40.064  38.894   0.860
48920W        W20591  19.458   7.888  11.174
48921W        W20592  22.067  22.573  13.661
48922W        W20593  30.053  17.580   4.837
48923W        W20594  40.587  33.034  13.099
48924W        W20595   6.606   6.579  12.563
48925W        W20596  29.376  43.994   0.019
48926W        W20597  23.805  39.800  12.502
48927W        W20598  24.091  36.025  14.047
48928W        W20599  11.233  13.245  13.125
48929W        W20600  17.655  37.578   3.211
48930W        W20601   0.128  12.763  12.063
48931W        W20602   4.680  15.051   4.546
48932W        W20603  20.079  25.388   2.237
48933W        W20604   2.982  20.296   1.292
48934W        W20605  36.797  28.867   3.548
48935W        W20606  16.848   2.323   2.687
48936W        W20607  44.742  28.929  11.980
48937W        W20608  23.488  25.711   0.371
48938W        W20609  14.173  44.895   1.902
48939W        W20610  13.441   6.389   4.705
48940W        W20611   5.073   7.554   4.407
48941W        W20612  26.680  18.563  12.963
48942W        W20613   9.815  38.834  11.930
48943W        W20614  30.492  15.841   2.390
48944W        W20615   0.355  25.673  10.761
48945W        W20616  27.404  23.713  14.068
48946W        W20617  36.386  37.050  14.377
48947W        W20618   4.713  14.134   2.290
48948W        W20619   0.848  11.195   2.840
48949W        W20620   9.142  38.854   1.902
48950W        W20621  25.991  15.150   2.386
48951W        W20622   0.796   8.288   1.301
48952W        W20623  43.219  40.313   0.469
48953W        W20624  19.153  18.648  12.426
48954W        W20625  12.775  40.962   2.983
48955W        W20626  28.058  39.322  13.461
48956W        W20627   3.219  43.815   1.711
48957W        W20628  16.288   2.467   2.120
48958W        W20629  17.110  42.807  14.954
48959W        W20630  28.145   6.576  11.625
48960W        W20631  43.414  38.654   1.237
48961W        W20632  27.065  16.082  11.574
48962W        W20633   1.370  18.029   1.422
48963W        W20634  20.932   1.483  14.354
48964W        W20635  44.699  18.309   3.354
48965W        W20636  33.782  31.144  14.889
48966W        W20637  16.598   4.689   2.452
48967W        W20638  37.423  19.947   3.843
48968W        W20639  23.058  33.886   4.480
48969W        W20640  19.288  42.535  13.818
48970W        W20641  25.925  13.808  12.656
48971W        W20642   2.091  40.498   4.664
48972W        W20643   1.786  33.561   2.778
48973W        W20644  23.642  39.347   1.931
48974W        W20645   3.501  10.944  14.598
48975W        W20646  27.570  34.515  13.476
48976W        W20647  44.416  26.553  12.841
48977W        W20648   8.137  28.043  14.027
48978W        W20649   0.282  22.697   1.813
48979W        W20650  19.031  34.009   4.054
48980W        W20651   4.937  42.708   2.173
48981W        W20652  23.273  25.510  12.194
48982W        W20653   2.254  22.062  11.128
48983W        W20654   8.381  10.121   1.791
48984W        W20655   1.409  24.580  11.525
48985W        W20656  13.273  16.863  13.805
48986W        W20657  42.100  35.470   3.409
48987W        W20658  18.371   0.225  13.549
48988W        W20659  33.336   3.817   2.806
48989W        W20660  39.219  44.593  13.538
48990W        W20661  13.742  42.564  11.493
48991W        W20662  13.653  35.935  13.517
48992W        W20663  15.693  15.064   1.653
48993W        W20664  32.854  13.304   3.333
48994W        W20665   9.964  39.059  10.014
48995W        W20666  28.913  15.887  14.811
48996W        W20667  40.392   8.952  11.829
48997W        W20668  19.581  23.269  14.371
48998W        W20669   5.221  43.747  10.789
48999W        W20670   0.806  43.536   4.607
49000W        W20671   7.435   7.188   4.519
49001W        W20672  20.488  39.533   0.711
49002W        W20673  35.963  34.958   0.651
49003W        W20674   4.291   1.433  13.477
49004W        W20675  42.593   2.360  12.736
49005W        W20676  32.737  42.773  12.986
49006W        W20677  24.179  29.277   1.614
49007W        W20678  19.577  12.532   3.653
49008W        W20679  32.104   2.377  11.144
49009W        W20680  29.375  39.344  13.497
49010W        W20681  37.082   5.788   4.581
49011W        W20682  38.097  22.906  10.527
49012W        W20683  20.219   2.304  11.935
49013W        W20684  10.259   4.864  14.664
49014W        W20685  18.819  11.850   3.278
49015W        W20686   8.323   2.453  14.280
49016W        W20687  24.254   0.281   4.522
49017W        W20688  10.232   2.600   2.903
49018W        W20689  36.104  33.523  13.969
49019W        W20690  21.228  11.940   3.156
49020W        W20691   3.943  30.189  10.454
49021W        W20692  33.912  17.071   3.120
49022W        W20693  33.992  34.779  10.379
49023W        W20694  36.851  44.202  14.979
49024W        W20695  24.912   7.656   2.186
49025W        W20696  41.364  23.291  13.985
49026W        W20697  29.894  34.887  12.617
49027W        W20698  35.422  17.460  14.361
49028W        W20699  34.526  34.398   0.415
49029W        W20700  35.063  42.486  13.869
49030W        W20701   9.629  20.734   3.767
49031W        W20702  35.630  40.872   3.753
49032W        W20703  43.213  40.549  11.336
49033W        W20704   2.160   5.340  13.591
49034W        W20705  21.430  37.634   4.526
49035W        W20706  32.021  16.850  11.887
49036W        W20707  24.488  11.170  14.532
49037W        W20708  33.595  34.438   0.647
49038W        W20709  40.939  17.304  14.466
49039W        W20710  22.147  41.417   2.679
49040W        W20711  37.565  44.792   2.679
49041W        W20712  26.516  11.876  13.442
49042W        W20713  36.416  14.184  13.795
49043W        W20714  23.160  25.728  11.077
49044W        W20715   0.051  26.046   1.606
49045W        W20716   4.649  39.536  10.281
49046W        W20717  40.976  26.216  11.649
49047W        W20718  11.208  16.878  12.418
49048W        W20719   1.937  29.105  10.695
49049W        W20720  24.629  11.039   1.489
49050W        W20721   0.778  34.080   2.877
49051W        W20722   7.138  41.464   3.915
49052W        W20723  24.459  26.054  10.772
49053W        W20724  30.953   3.460   3.752
49054W        W20725  11.754  25.738  11.678
49055W        W20726   9.296  34.364  10.760
49056W        W20727   6.388  14.679   4.921
49057W        W20728   2.536   1.748   4.165
49058W        W20729   5.162   5.136  14.589
49059W        W20730  30.711   4.275   4.079
49060W        W20731   0.292  12.787  14.873
49061W        W20732  12.884  33.479   0.895
49062W        W20733   0.157   6.990   2.960
49063W        W20734  39.707  39.059   4.156
49064W        W20735   4.750  14.546   4.570
49065W        W20736  28.967  30.600  11.584
49066W        W20737  31.877  23.545   0.537
49067W        W20738  38.250  29.095   0.194
49068W        W20739  36.339  11.748  13.798
49069W        W20740  30.344  36.088  14.338
49070W        W20741  21.050  30.094   2.102
49071W        W20742   2.015  42.354   0.295
49072W        W20743  35.212  10.961  14.358
49073W        W20744   9.371  23.629   2.925
49074W        W20745  11.812  18.763  14.112
49075W        W20746   4.829  10.325   1.679
49076W        W20747  20.139   4.352  14.247
49077W        W20748  11.463  15.284  13.823
49078W        W20749  38.307  39.932   0.624
49079W        W20750  26.021  38.663  12.050
49080W        W20751  13.134  19.681  12.344
49081W        W20752  40.336  15.667   1.444
49082W        W20753  27.957  39.289   4.039
49083W        W20754  21.144  30.746   3.381
49084W        W20755   0.698   8.399  11.253
49085W        W20756  11.760  32.994  12.554
49086W        W20757   7.863  41.588  11.042
49087W        W20758   2.775  13.202  10.905
49088W        W20759   6.754  38.436   0.775
49089W        W20760   3.173   1.812  12.767
49090W        W20761   7.757  41.399   5.159
49091W        W20762  15.038  17.177  13.822
49092W        W20763  11.377  42.763  13.903
49093W        W20764  24.088  33.857   3.070
49094W        W20765   6.254  14.650  13.487
49095W        W20766  11.381  25.009  13.005
49096W        W20767  38.458  39.415   0.739
49097W        W20768   1.269  22.911  11.105
49098W        W20769   6.174  31.889   3.336
49099W        W20770  27.641  37.084   3.674
49100W        W20771   5.863  40.526   1.835
49101W        W20772   6.450  29.434  14.386
49102W        W20773   2.631  36.636   1.889
49103W        W20774  25.662  34.627  12.443
49104W        W20775  23.214  11.282   4.157
49105W        W20776  31.626  42.746   3.203
49106W        W20777  34.145   6.233  13.335
49107W        W20778   2.944  26.468  12.967
49108W        W20779   6.619   7.117  13.326
49109W        W20780  26.614  41.510   3.407
49110W        W20781  21.958  29.255   0.771
49111W        W20782   1.799  19.877   4.534
49112W        W20783   8.142  36.178   1.700
49113W        W20784  38.523  26.789   3.374
49114W        W20785  31.701  37.369  11.779
49115W        W20786   4.421   6.186  12.126
49116W        W20787  30.713  26.150   1.256
49117W        W20788  39.478  17.799   4.321
49118W        W20789  14.777  25.685   2.634
49119W        W20790  40.456  24.196   1.172
49120W        W20791  30.113   1.024  11.059
49121W        W20792  35.838  17.369   4.280
49122W        W20793  19.182  37.425   4.738
49123W        W20794  15.661  17.080   1.344
49124W        W20795  20.094  22.336   4.082
49125W        W20796  41.761  33.737  14.887
49126W        W20797   9.674  10.633  14.054
49127W        W20798  15.324  14.371  11.054
49128W        W20799  38.952  42.909   2.517
49129W        W20800  42.889  30.628   0.340
49130W        W20801  23.567  11.295   0.064
49131W        W20802  40.055  23.767   4.393
49132W        W20803  24.775  31.418   3.586
49133W        W20804  31.773  29.903  13.445
49134W        W20805  13.825  28.185  10.725
49135W        W20806  19.801  20.541  10.493
49136W        W20807  21.001  35.327   4.770
49137W        W20808  30.535   1.793   3.679
49138W        W20809   4.862  34.742  12.867
49139W        W20810  36.472  38.383  10.680
49140W        W20811  18.798  41.417  12.937
49141W        W20812  43.731  42.695  12.948
49142W        W20813   6.715  10.678  13.119
49143W        W20814  42.457  41.488  10.920
49144W        W20815  17.297   5.697  13.704
49145W        W20816  32.190  16.632   3.740
49146W        W20817  27.917  35.266   2.511
49147W        W20818  12.836  23.015  13.748
49148W        W20819   9.905  25.568   3.293
49149W        W20820  37.635   3.099   2.366
49150W        W20821  15.503  36.518  13.983
49151W        W20822   6.172  44.460  10.865
49152W        W20823  12.733  31.915  14.604
49153W        W20824  29.509  30.011   0.324
49154W        W20825  10.805  31.246   1.305
49155W        W20826  24.493   8.368  14.478
49156W        W20827  20.997  12.953  11.051
49157W        W20828  25.168  15.731  13.894
49158W        W20829  33.188  16.123   2.779
49159W        W20830   0.433  17.260   3.395
49160W        W20831  14.259  43.192   2.277
49161W        W20832  25.564  32.040  12.474
49162W        W20833  12.757  38.059  13.376
49163W        W20834   7.814  11.370  12.311
49164W        W20835  38.400  33.793  14.799
49165W        W20836  36.410   2.271  12.420
49166W        W20837  21.232  41.780   1.248
49167W        W20838   2.726  17.557   3.899
49168W        W20839   7.927  24.822   2.439
49169W        W20840  33.465   1.998   3.752
49170W        W20841  17.560  20.685   2.779
49171W        W20842   6.912  38.104  14.502
49172W        W20843   7.381  21.071   1.713
49173W        W20844  31.825  11.119  11.737
49174W        W20845  13.474  36.920  11.134
49175W        W20846  32.915  26.911  13.034
49176W        W20847  11.630  20.514   2.315
49177W        W20848  30.624  31.428   5.046
49178W        W20849  41.679   0.507   1.808
49179W        W20850  21.598  23.143   0.413
49180W        W20851  33.111  27.384   4.157
49181W        W20852  43.319  15.428   2.701
49182W        W20853  24.317   4.874   2.365
49183W        W20854  33.077  21.580   2.301
49184W        W20855   1.455  21.031   1.454
49185W        W20856  29.113  42.831  14.292
49186W        W20857  22.830   2.836   4.426
49187W        W20858  23.026  12.283   2.541
49188W        W20859   1.940  10.937  14.384
49189W        W20860  32.592  28.233  13.435
49190W        W20861   4.767  28.022  12.024
49191W        W20862  26.033  16.820   1.874
49192W        W20863  24.968  38.408   0.454
49193W        W20864  24.989  27.627  10.941
49194W        W20865  35.944  32.838   0.722
49195W        W20866  36.899  33.110   2.823
49196W        W20867   5.488  43.938  11.196
49197W        W20868   5.880  44.523   0.908
49198W        W20869  42.993   3.322   3.207
49199W        W20870  42.656  38.945  13.511
49200W        W20871  14.676   2.331  13.844
49201W        W20872  41.108  21.069  13.206
49202W        W20873  27.497   0.480  12.097
49203W        W20874  20.774  35.355  13.883
49204W        W20875  24.674  30.380  10.680
49205W        W20876  24.241  37.762  11.163
49206W        W20877  36.876  37.798   4.285
49207W        W20878   5.372  35.384  14.550
49208W        W20879   4.137   0.824   0.377
49209W        W20880  16.362   2.227  11.871
49210W        W20881  22.514   6.758  10.754
49211W        W20882   8.435  28.501   2.423
49212W        W20883  44.836  42.449  12.594
49213W        W20884  39.084  28.541  13.449
49214W        W20885   7.252  28.592   1.846
49215W        W20886   0.326  10.942   2.744
49216W        W20887  10.762  16.952  14.849
49217W        W20888  43.483  31.387   0.548
49218W        W20889  10.459   2.970   0.882
49219W        W20890  34.357   8.209   0.788
49220W        W20891   6.160  15.177   3.693
49221W        W20892   3.487  27.234   1.779
49222W        W20893  31.064   7.312   2.249
49223W        W20894   2.160   8.210  11.204
49224W        W20895  11.249   7.219   0.840
49225W        W20896  31.288   8.755  14.466
49226W        W20897  14.495  29.485   4.229
49227W        W20898  32.978  14.109   5.274
49228W        W20899  26.558   5.444   0.384
49229W        W20900  32.015  31.871   2.142
49230W        W20901  20.773  17.472  13.158
49231W        W20902  39.377  27.678  14.420
49232W        W20903  34.527  14.374  14.806
49233W        W20904  29.875   8.219  12.560
49234W        W20905  18.795  36.369  12.455
49235W        W20906  39.840  17.292   1.324
49236W        W20907  13.088  35.773   5.110
49237W        W20908  40.875  38.841   4.110
49238W        W20909   2.844   6.960  12.205
49239W        W20910  30.914  28.157  11.494
49240W        W20911  39.048  10.644   0.645
49241W        W20912  29.497  41.333   0.920
49242W        W20913  26.454  42.470   2.589
49243W        W20914  32.984   9.662   2.876
49244W        W20915  27.051  30.556  14.834
49245W        W20916  11.749  40.306  12.590
49246W        W20917  27.648   6.913   2.102
49247W        W20918  23.745  43.381  13.358
49248W        W20919  20.082  42.014  10.515
49249W        W20920  44.032  32.060  13.028
49250W        W20921  35.878  39.174  13.741
49251W        W20922  30.093  16.222   4.095
49252W        W20923  28.698   2.481  12.020
49253W        W20924  10.172  18.109   0.391
49254W        W20925  29.138  16.151  14.414
49255W        W20926  38.064  44.740   3.505
49256W        W20927   1.170  15.652   4.817
49257W        W20928  11.057   9.918  11.115
49258W        W20929  23.171  15.741   4.307
49259W        W20930  15.984  38.314  10.103
49260W        W20931   2.516  25.790  12.471
49261W        W20932   8.875   1.961   4.250
49262W        W20933  30.636  23.834  13.260
49263W        W20934  35.494  14.663   1.653
49264W        W20935   8.837  18.617  13.309
49265W        W20936  27.045  21.464  14.470
49266W        W20937  44.113  29.088   5.007
49267W        W20938  11.822   0.529  11.520
49268W        W20939   0.662  37.418   0.945
49269W        W20940  10.628  28.510  12.451
49270W        W20941   5.749  10.565   3.650
49271W        W20942  14.772  27.973   1.797
49272W        W20943  42.382  12.414   2.373
49273W        W20944  38.316   6.601   2.211
49274W        W20945  31.699   4.481   0.062
49275W        W20946   1.401  29.561   4.340
49276W        W20947  23.200  18.583   3.573
49277W        W20948  21.756   1.275  11.405
49278W        W20949   7.826  33.500   3.709
49279W        W20950   6.220  13.742  11.731
49280W        W20951  33.010  23.076   2.419
49281W        W20952  30.392  10.902   2.767
49282W        W20953   7.785  31.356  13.091
49283W        W20954   4.787  26.770  10.778
49284W        W20955  44.322  41.819   2.415
49285W        W20956   9.947  13.616   3.042
49286W        W20957  36.915  36.609   2.905
49287W        W20958  37.256   0.509   2.267
49288W        W20959  15.178  41.540  13.450
49289W        W20960  20.980  14.652  10.921
49290W        W20961  15.806  40.762   2.608
49291W        W20962  39.044  41.587  11.660
49292W        W20963  35.749  11.710   4.702
49293W        W20964   0.188  13.405  13.675
49294W        W20965   9.252   4.438   1.617
49295W        W20966  42.967  16.033  13.407
49296W        W20967   1.886  11.144   0.452
49297W        W20968  24.523  41.004  14.881
49298W        W20969  38.697   8.834  13.646
49299W        W20970  36.014  42.340  12.819
49300W        W20971  26.941  17.175   3.126
49301W        W20972  37.003  29.031  13.865
49302W        W20973  25.381  16.615   1.988
49303W        W20974   9.901  36.303   0.658
49304W        W20975  15.170  32.618   4.605
49305W        W20976  20.798   6.680   2.082
49306W        W20977  34.295  44.819   4.226
49307W        W20978  29.474  23.282  13.882
49308W        W20979  21.846   3.944   0.714
49309W        W20980   0.978  28.661  14.704
49310W        W20981  31.661   5.739   1.418
49311W        W20982  36.757  29.986   4.080
49312W        W20983  16.792   2.763  11.127
49313W        W20984   1.802  35.033  13.000
49314W        W20985  31.024  10.904   0.465
49315W        W20986  43.532  24.977   0.793
49316W        W20987   7.000   3.947   3.654
49317W        W20988  21.974  20.546  14.263
49318W        W20989  11.306  33.856   2.711
49319W        W20990  36.808  15.391  14.074
49320W        W20991  13.142  30.408  12.535
49321W        W20992  25.113  39.761   4.527
49322W        W20993   0.256  11.243  11.528
49323W        W20994   6.041  33.619  10.903
49324W        W20995  23.944  30.674  11.373
49325W        W20996  25.990  39.391   4.098
49326W        W20997  41.297   9.060  12.036
49327W        W20998  44.774  26.927  14.445
49328W        W20999  10.174  22.722  10.626
49329W        W21000  38.434   0.961   4.502
49330W        W21001  15.034  33.940   0.543
49331W        W21002  40.391  28.623  10.845
49332W        W21003  39.019  31.913   3.354
49333W        W21004  10.760   5.685   3.323
49334W        W21005  22.044   4.363   2.231
49335W        W21006  13.926   2.481  14.048
49336W        W21007  20.078  28.697  12.487
49337W        W21008   2.211   4.700  12.458
49338W        W21009  18.095  27.579  11.191
49339W        W21010   0.137  28.249  14.555
49340W        W21011  20.860  10.835  13.023
49341W        W21012   5.457  23.726  12.735
49342W        W21013  15.135  21.259  13.402
49343W        W21014  20.957   8.894   1.002
49344W        W21015  21.671  14.966   0.885
49345W        W21016  13.235  33.676   2.396
49346W        W21017  13.188  16.142  14.295
49347W        W21018  42.430  11.134   3.875
49348W        W21019   6.291  11.413  12.921
49349W        W21020  27.706   9.781   5.645
49350W        W21021  42.223  18.472   2.170
49351W        W21022  25.277  37.517   5.078
49352W        W21023   5.472  27.935   2.177
49353W        W21024  20.040  30.002   2.779
49354W        W21025  26.269  32.928  13.248
49355W        W21026  10.710  21.140   3.199
49356W        W21027  27.924  15.210   0.779
49357W        W21028   7.948  11.732   2.772
49358W        W21029  34.100  11.914  12.415
49359W        W21030  43.516  19.804  13.585
49360W        W21031  15.070  18.679   2.323
49361W        W21032  22.831  29.183   4.292
49362W        W21033  37.392  37.971   3.163
49363W        W21034  13.087  39.593  14.911
49364W        W21035   0.454  44.636  13.787
49365W        W21036  33.356  12.370  14.369
49366W        W21037  41.972  15.843   3.711
49367W        W21038  14.629  25.966   1.843
49368W        W21039  16.297   6.670  11.040
49369W        W21040  12.569   3.218  14.105
49370W        W21041  27.108  41.237  10.427
49371W        W21042  10.452  44.858  14.554
49372W        W21043  36.139  41.421  11.590
49373W        W21044  44.397  17.524  12.510
49374W        W21045   3.694  23.705   1.796
49375W        W21046  31.355  39.014  11.487
49376W        W21047  11.584  13.261   3.740
49377W        W21048  18.313  36.837  14.596
49378W        W21049  11.384   4.355  10.685
49379W        W21050  17.693  21.870  14.123
49380W        W21051  26.399  34.512   1.343
49381W        W21052  20.468  26.142  10.326
49382W        W21053  15.581   9.295   0.878
49383W        W21054  43.854  17.809   4.610
49384W        W21055  40.056  15.202   1.254
49385W        W21056  42.480  44.795  13.601
49386W        W21057   2.450  25.180   4.142
49387W        W21058  20.170  16.815   0.949
49388W        W21059  42.419  19.245   4.006
49389W        W21060   1.689  37.970  14.299
49390W        W21061   6.477   3.217  11.480
49391W        W21062  41.265  14.555  14.374
49392W        W21063  16.066   3.718   4.144
49393W        W21064  24.875  39.384   0.133
49394W        W21065  25.067  28.514   3.250
49395W        W21066  39.814  33.865  14.461
49396W        W21067   1.299  24.225   1.903
49397W        W21068  10.669  34.180   1.068
49398W        W21069  10.978  10.257  13.994
49399W        W21070   0.481   0.431  14.961
49400W        W21071   2.761   7.588  13.596
49401W        W21072  41.524  17.726   4.301
49402W        W21073  30.636   9.936  13.564
49403W        W21074  26.717  24.729   3.280
49404W        W21075   2.687  26.666  13.405
49405W        W21076  14.653   5.915  14.840
49406W        W21077  28.467  36.495   4.607
49407W        W21078  26.920   3.702  13.674
49408W        W21079  23.456  17.243  13.848
49409W        W21080  40.922   2.908   4.622
49410W        W21081  10.784  14.074   4.219
49411W        W21082   5.974  40.290   1.380
49412W        W21083  12.935  32.377   2.664
49413W        W21084   6.617  20.285   0.777
49414W        W21085  16.103   8.440   4.835
49415W        W21086  10.229  35.529  14.845
49416W        W21087  44.863  12.599  12.505
49417W        W21088  39.440  25.179   0.803
49418W        W21089   8.896  43.014  12.117
49419W        W21090  15.467  13.078   5.165
49420W        W21091  24.718  41.555   4.143
49421W        W21092  32.144  40.423  11.631
49422W        W21093  35.925  44.251  14.973
49423W        W21094  44.982  22.666   3.640
49424W        W21095  38.819  44.306   1.867
49425W        W21096  43.034  22.006  14.501
49426W        W21097   1.930   6.374  14.648
49427W        W21098  16.318  24.967   0.459
49428W        W21099  25.744  15.036  10.797
49429W        W21100  26.612  32.921   3.330
49430W        W21101   6.953  26.633   5.146
49431W        W21102  26.898  35.397  11.584
49432W        W21103  31.974  18.658   3.406
49433W        W21104  33.887  39.922   0.311
49434W        W21105  35.597  29.551  12.592
49435W        W21106  44.700   0.929  12.452
49436W        W21107   3.798  23.663   4.197
49437W        W21108  20.613   5.361   3.848
49438W        W21109  32.899  38.750  14.659
49439W        W21110  16.398   3.405   1.403
49440W        W21111  28.706  38.842   2.165
49441W        W21112  29.161  33.289  14.002
49442W        W21113  28.046  41.829  14.378
49443W        W21114  19.750  12.372   1.712
49444W        W21115  41.814  15.746   0.298
49445W        W21116  42.377  13.315  14.925
49446W        W21117  18.464  40.973   0.952
49447W        W21118  13.076  42.903  13.723
49448W        W21119   2.279  15.057   3.386
49449W        W21120  31.945  26.402  13.822
49450W        W21121   7.356  14.723  10.825
49451W        W21122   3.640  22.232   0.748
49452W        W21123  42.489  42.515  12.231
49453W        W21124  38.738  37.090  14.680
49454W        W21125  41.769  38.063  13.371
49455W        W21126  19.441  15.690  10.636
49456W        W21127   1.724  35.579   4.615
49457W        W21128  31.128   7.038  12.999
49458W        W21129   9.971  43.323   0.033
49459W        W21130  37.973  19.013   4.096
49460W        W21131   6.646  24.238  13.012
49461W        W21132  18.653  44.980  14.462
49462W        W21133  26.711  28.773  12.375
49463W        W21134  23.999  31.520  12.822
49464W        W21135  15.854  21.064  12.017
49465W        W21136  17.966   2.916  10.379
49466W        W21137  10.936  39.378   1.796
49467W        W21138   3.990   5.450  13.388
49468W        W21139  25.424  36.839   3.796
49469W        W21140   0.484   2.885  14.315
49470W        W21141   3.959   4.802   3.635
49471W        W21142  33.573   5.925   1.402
49472W        W21143  25.684  29.044  10.286
49473W        W21144  26.151   6.953  11.034
49474W        W21145  19.168  26.221  14.724
49475W        W21146   6.435  21.196   3.268
49476W        W21147  10.234  42.950  11.136
49477W        W21148  12.182  12.776   0.029
49478W        W21149  36.321   6.840   0.201
49479W        W21150  39.304  37.764   4.483
49480W        W21151  15.855  20.995   3.505
49481W        W21152  24.922   3.815   4.081
49482W        W21153  42.751   9.767  13.021
49483W        W21154  13.692  18.543  12.096
49484W        W21155   5.570   6.717   2.191
49485W        W21156  41.509  19.683   1.424
49486W        W21157  24.438  15.653   4.623
49487W        W21158  36.442   1.739   3.069
49488W        W21159  27.648  14.946  11.622
49489W        W21160  21.665   0.289   4.249
49490W        W21161  34.227  28.484  13.489
49491W        W21162  12.266  42.399  14.757
49492W        W21163   1.990  37.952  11.618
49493W        W21164  41.731  15.225  13.957
49494W        W21165  14.577   6.434  14.810
49495W        W21166  31.578  23.254   2.254
49496W        W21167  42.723  13.708   4.266
49497W        W21168  40.330   3.758   1.251
49498W        W21169  23.972   7.654   2.876
49499W        W21170  20.693   9.436   3.847
49500W        W21171  41.762  37.355   1.442
49501W        W21172  11.847   1.750   1.891
49502W        W21173  16.951  12.213   4.183
49503W        W21174  35.594  24.003  11.596
49504W        W21175  37.022  30.542  13.097
49505W        W21176  33.826  24.567  13.036
49506W        W21177  34.817  40.570   4.062
49507W        W21178  15.693  17.282  12.035
49508W        W21179  43.876   0.525   2.048
49509W        W21180  40.494   7.208  12.571
49510W        W21181   9.651  18.217  11.108
49511W        W21182  16.199  10.387   0.494
49512W        W21183  32.563  29.724   3.936
49513W        W21184  38.531   3.230   2.153
49514W        W21185  30.914  26.973  12.025
49515W        W21186  41.910  39.299  14.622
49516W        W21187  29.559  21.653   4.440
49517W        W21188  23.781  38.438  11.575
49518W        W21189  15.589   2.933   4.336
49519W        W21190  21.555  18.113   0.236
49520W        W21191  10.884   7.635  11.783
49521W        W21192   7.409  35.868   3.828
49522W        W21193   7.197  14.877   2.174
49523W        W21194  17.353  42.393  14.796
49524W        W21195  14.235  21.762   0.891
49525W        W21196  22.493   6.172  13.524
49526W        W21197  23.202   3.000   4.110
49527W        W21198  24.654  11.637  14.381
49528W        W21199  30.081  19.299   3.372
49529W        W21200  44.380  12.480  13.374
49530W        W21201  28.466  41.528  14.309
49531W        W21202  44.464  34.326   1.604
49532W        W21203  10.171  26.985  11.791
49533W        W21204  11.714  42.570   3.134
49534W        W21205  33.310  18.379  11.647
49535W        W21206  18.773  13.142  12.298
49536W        W21207   9.948  20.007  13.462
49537W        W21208  28.046   5.402   2.886
49538W        W21209  13.818  42.544  11.989
49539W        W21210  43.885  31.208  11.703
49540W        W21211  16.274  21.721  13.334
49541W        W21212  18.277  16.122   1.240
49542W        W21213  35.880  27.112   0.930
49543W        W21214   1.449  42.303   3.962
49544W        W21215  44.904  39.145   4.662
49545W        W21216  28.494  21.141  11.639
49546W        W21217   9.684  11.600   2.706
49547W        W21218  10.744  10.387  12.436
49548W        W21219  24.647  20.523  14.794
49549W        W21220  11.414   6.357   2.897
49550W        W21221  16.171   9.885   2.842
49551W        W21222  19.071  11.450   5.486
49552W        W21223  16.070   0.463  14.192
49553W        W21224  41.300   4.371   0.699
49554W        W21225  12.236  15.614  12.015
49555W        W21226  30.601  22.084   4.987
49556W        W21227   0.942  29.901   4.935
49557W        W21228  43.111  19.505   4.684
49558W        W21229   7.074  12.300  14.238
49559W        W21230   6.240  38.128  13.470
49560W        W21231  38.240  14.384   3.255
49561W        W21232  19.210  40.491  10.574
49562W        W21233  14.612  21.570  11.804
49563W        W21234  11.318  32.953   4.914
49564W        W21235  17.707  31.056  11.499
49565W        W21236  20.631  29.758   4.107
49566W        W21237  12.271  39.020   2.683
49567W        W21238  30.612  25.281  10.985
49568W        W21239  30.441  23.600  13.966
49569W        W21240  40.307   3.077   4.361
49570W        W21241  43.611  12.122   0.742
49571W        W21242   2.952  31.216  11.957
49572W        W21243   7.907  39.069  10.368
49573W        W21244   0.639  20.574  13.547
49574W        W21245   2.324  22.923  11.259
49575W        W21246   1.758   0.610  13.449
49576W        W21247   5.982  35.643  10.958
49577W        W21248  14.778   0.271  10.851
49578W        W21249  44.011  21.136   0.723
49579W        W21250   0.621  19.069   3.384
49580W        W21251  35.002  41.645   0.878
49581W        W21252   7.924   8.444  13.643
49582W        W21253  20.134  28.854   2.506
49583W        W21254   9.191   1.256   4.560
49584W        W21255  37.869  31.473  13.386
49585W        W21256   4.132  19.801  12.892
49586W        W21257  30.457  44.554   2.351
49587W        W21258  18.050  32.941  14.312
49588W        W21259   7.697   8.905  11.533
49589W        W21260  31.907  23.977   2.689
49590W        W21261  20.747   0.461  13.520
49591W        W21262  24.635  33.633  10.313
49592W        W21263  43.737  19.535   2.501
49593W        W21264  31.420  21.552  13.249
49594W        W21265  28.041  21.507   1.637
49595W        W21266  42.987  35.925   0.016
49596W        W21267  44.185  29.701  13.039
49597W        W21268   5.424  22.737   4.235
49598W        W21269   1.833  35.442  12.660
49599W        W21270  14.841  20.802  14.809
49600W        W21271  21.400  44.785  10.586
49601W        W21272  14.525   3.204   3.404
49602W        W21273  22.477  21.231   2.748
49603W        W21274  14.363   2.535   0.850
49604W        W21275  29.469  20.806  11.684
49605W        W21276  32.231  30.442  13.940
49606W        W21277   7.679   2.486  13.749
49607W        W21278  14.011  23.030   1.387
49608W        W21279  10.117  17.699   4.932
49609W        W21280  19.489   3.267  14.423
49610W        W21281  40.409  36.872   2.554
49611W        W21282  34.578  21.062   1.651
49612W        W21283  24.529  11.114   4.461
49613W        W21284  33.875  18.214   1.936
49614W        W21285  12.953  32.415   1.866
49615W        W21286  29.461   9.942   0.311
49616W        W21287  37.453  16.339  12.599
49617W        W21288  40.086   9.737  14.568
49618W        W21289  36.904   0.941  11.009
49619W        W21290  15.481   9.309   2.825
49620W        W21291  39.277   9.623   4.161
49621W        W21292  42.334  32.451  14.808
49622W        W21293   9.678  22.576  10.591
49623W        W21294  14.832  34.889   1.403
49624W        W21295  29.748  12.110   4.105
49625W        W21296   4.772  19.987   2.836
49626W        W21297  16.876  15.399  11.554
49627W        W21298  14.268  12.102   2.136
49628W        W21299  33.584   5.921   2.734
49629W        W21300  30.910  10.896   2.793
49630W        W21301   8.851   6.224  14.854
49631W        W21302  27.979  41.921  10.440
49632W        W21303  10.255  42.353   2.922
49633W        W21304  37.617  34.023   2.046
49634W        W21305  14.096  24.567  14.006
49635W        W21306  33.033  42.325  14.779
49636W        W21307   2.853  23.507  12.432
49637W        W21308   8.956  40.451   2.360
49638W        W21309  15.290  21.764   1.710
49639W        W21310  34.552  23.835   4.039
49640W        W21311   5.452   5.391  11.967
49641W        W21312   3.935  20.686  11.936
49642W        W21313  30.350  13.346  11.604
49643W        W21314  42.757  26.494   0.487
49644W        W21315   2.364  11.241  14.849
49645W        W21316  25.317  17.451  11.037
49646W        W21317  27.577   7.323   4.361
49647W        W21318  12.887  28.612  10.476
49648W        W21319   0.924  17.730   4.084
49649W        W21320  23.363   7.969   0.326
49650W        W21321  34.025   7.177  11.618
49651W        W21322  40.814  32.597   4.296
49652W        W21323  24.509  17.283   3.930
49653W        W21324  19.621  21.811   3.021
49654W        W21325  44.949  31.151  13.349
49655W        W21326  12.811   6.781  11.394
49656W        W21327  22.787   0.686  11.109
49657W        W21328  13.718   5.463   3.531
49658W        W21329   1.728  26.929  12.476
49659W        W21330  22.842  28.553   3.841
49660W        W21331  39.496  35.038   2.122
49661W        W21332  32.106  41.947  14.896
49662W        W21333  17.297  18.323  14.853
49663W        W21334  37.800  34.608  12.836
49664W        W21335  25.200  33.042   3.291
49665W        W21336  19.448  42.910  12.956
49666W        W21337  21.869   2.982   1.975
49667W        W21338   7.033  34.256   4.209
49668W        W21339  22.269  34.821   2.121
49669W        W21340  31.068  34.629  12.640
49670W        W21341  24.893  37.939   4.587
49671W        W21342  19.817  10.802   1.891
49672W        W21343  44.024  12.244  14.107
49673W        W21344  10.703  38.853  14.615
49674W        W21345   5.813  32.402   1.012
49675W        W21346  34.086   5.328  10.532
49676W        W21347  21.087  14.213  12.964
49677W        W21348  24.685  23.483   2.789
49678W        W21349  21.059  16.186   3.769
49679W        W21350  43.906  30.764  13.484
49680W        W21351  30.222  12.656   0.297
49681W        W21352   2.466  23.620   3.555
49682W        W21353  16.644  25.551   3.795
49683W        W21354   3.451  12.092  11.326
49684W        W21355   7.404  34.608  11.995
49685W        W21356   7.166  14.899   4.672
49686W        W21357  20.749  38.295   3.587
49687W        W21358   2.195   5.127  11.120
49688W        W21359  13.617  39.063   1.908
49689W        W21360  22.726  34.185  13.527
49690W        W21361  34.580  28.988  12.876
49691W        W21362  35.788  42.831   1.356
49692W        W21363  33.437  13.016   9.788
49693W        W21364  37.763  39.069  11.829
49694W        W21365   5.807  40.406   0.560
49695W        W21366  10.844  34.054   1.523
49696W        W21367   4.401   2.958   0.384
49697W        W21368   7.391  38.433   0.395
49698W        W21369  44.073   7.518   9.865
49699W        W21370  43.857  20.663   3.367
49700W        W21371  37.036  36.837  11.016
49701W        W21372   4.361  30.076  10.766
49702W        W21373  40.401  30.007   1.370
49703W        W21374  30.904   0.464  11.092
49704W        W21375   0.677  41.032  10.576
49705W        W21376  41.804  30.898  14.180
49706W        W21377  37.222  11.647  12.001
49707W        W21378  32.394   9.335   0.754
49708W        W21379  39.599  30.166  11.014
49709W        W21380   7.885  23.050   0.268
49710W        W21381  24.553  38.508  10.004
49711W        W21382  22.318  42.478  13.958
49712W        W21383   3.537  35.891  11.532
49713W        W21384  44.759  16.491  12.500
49714W        W21385  32.445   2.864   3.758
49715W        W21386  26.219   9.785   1.328
49716W        W21387  26.130   2.756   2.327
49717W        W21388  24.917   7.257  11.083
49718W        W21389  43.769  24.621  14.757
49719W        W21390  24.026  10.855   4.250
49720W        W21391  27.027  39.722   1.587
49721W        W21392  34.243  41.846   1.146
49722W        W21393  16.378  24.913  12.436
49723W        W21394  18.279   8.173   1.875
49724W        W21395  37.078  26.469   0.865
49725W        W21396  37.818  10.467  10.720
49726W        W21397   2.625   5.981  13.934
49727W        W21398   8.492   7.259  10.479
49728W        W21399  14.995  18.471  12.847
49729W        W21400  21.240  28.131  13.940
49730W        W21401   9.822   3.525  13.759
49731W        W21402  40.533  18.591   2.193
49732W        W21403   4.706  44.875  10.423
49733W        W21404  10.350  28.465   2.737
49734W        W21405  43.074  36.496  13.350
49735W        W21406  38.965  25.781  14.892
49736W        W21407  17.275   0.277  14.358
49737W        W21408   1.774   2.691   0.285
49738W        W21409  22.249   5.762  12.571
49739W        W21410  37.362  14.596   2.016
49740W        W21411  36.129   6.687   4.797
49741W        W21412  37.508  43.434   2.145
49742W        W21413  29.399  10.962   0.798
49743W        W21414  30.646   8.747  14.350
49744W        W21415  40.855  24.538  12.693
49745W        W21416  41.292  18.019  12.783
49746W        W21417   5.236  41.825  13.905
49747W        W21418   1.802  24.932   1.799
49748W        W21419  41.890  12.752  14.497
49749W        W21420   7.116  40.242   5.117
49750W        W21421  37.152  13.347  14.812
49751W        W21422  27.460  19.201  13.039
49752W        W21423  43.302  32.338   0.177
49753W        W21424  15.525  17.265   2.531
49754W        W21425  19.308   1.247  11.089
49755W        W21426  13.870  32.282   2.288
49756W        W21427  34.363  38.823   1.273
49757W        W21428  29.100  30.601  13.607
49758W        W21429  21.560  28.721  13.435
49759W        W21430   7.389  36.995  12.796
49760W        W21431  20.062  10.726  11.184
49761W        W21432  37.612   3.491   4.651
49762W        W21433  27.246  27.923  11.558
49763W        W21434   3.837  29.375   2.269
49764W        W21435  33.445  19.557  14.367
49765W        W21436   7.291   6.978  11.159
49766W        W21437  18.971  31.683  10.535
49767W        W21438  41.303  25.070  14.490
49768W        W21439   7.698   3.284   3.628
49769W        W21440  33.480   5.160   4.363
49770W        W21441   4.840  37.457  14.319
49771W        W21442  24.222  19.666   0.822
49772W        W21443  17.565   7.690  11.114
49773W        W21444  17.710   0.347  11.155
49774W        W21445  14.252   8.301  13.745
49775W        W21446   5.498  33.985   1.384
49776W        W21447  37.001   0.501   2.727
49777W        W21448   1.493  30.035   3.174
49778W        W21449  16.888  18.322  13.515
49779W        W21450  28.301   5.329  13.998
49780W        W21451  22.509   6.734   2.308
49781W        W21452  37.071  25.632   2.714
49782W        W21453  37.629  29.392  10.729
49783W        W21454  14.392   8.407   3.135
49784W        W21455  21.031  34.958   4.170
49785W        W21456  44.368  12.212   5.007
49786W        W21457  39.130  35.628   4.288
49787W        W21458  15.227  43.450   0.769
49788W        W21459  30.341  22.876   2.688
49789W        W21460  14.244  16.562  14.340
49790W        W21461  20.493  26.094   1.057
49791W        W21462  15.608  33.831   2.710
49792W        W21463  16.559  30.621  12.487
49793W        W21464  22.543  43.280   1.905
49794W        W21465  24.618  14.578   0.444
49795W        W21466  31.249  42.437  13.020
49796W        W21467   9.457  17.049   4.978
49797W        W21468  15.239  35.821   3.046
49798W        W21469  27.916   4.787  11.306
49799W        W21470  29.805   1.995  13.101
49800W        W21471  26.068  19.203  13.138
49801W        W21472  27.992  40.407  12.865
49802W        W21473  14.143  38.734  11.614
49803W        W21474  32.300  36.215   2.010
49804W        W21475  22.120  33.639   2.935
49805W        W21476   7.800  12.759  11.544
49806W        W21477  36.047  22.366  12.806
49807W        W21478  21.386  15.503   2.443
49808W        W21479   9.818  39.043   4.208
49809W        W21480  38.506   3.005  12.945
49810W        W21481  29.515  13.681   0.841
49811W        W21482  37.862   3.579   2.426
49812W        W21483  38.487  34.733   4.655
49813W        W21484  38.353   5.228  13.063
49814W        W21485  27.631   4.404   2.732
49815W        W21486  33.098  26.821   2.727
49816W        W21487  18.720  18.317  13.335
49817W        W21488   8.621  26.739   2.322
49818W        W21489  26.738  36.642  12.499
49819W        W21490   4.278  14.754   4.368
49820W        W21491   0.815   3.409   3.228
49821W        W21492  30.190  19.602  13.573
49822W        W21493  26.601  25.769  13.387
49823W        W21494  13.646  21.620  14.373
49824W        W21495   0.797  13.125  11.474
49825W        W21496  23.230  27.219  13.899
49826W        W21497   0.093  20.262   0.767
49827W        W21498  13.393   7.856  14.788
49828W        W21499   4.676  38.615   0.208
49829W        W21500  25.324  22.071   2.400
49830W        W21501  16.353  19.180   4.444
49831W        W21502   2.232  32.168  12.546
49832W        W21503  36.569  11.353  10.615
49833W        W21504  27.599  35.519  13.721
49834W        W21505  13.367  20.152   1.721
49835W        W21506  25.448  27.130   3.619
49836W        W21507   1.748   3.311   3.527
49837W        W21508  41.340   7.820  14.801
49838W        W21509  21.198  33.125  14.513
49839W        W21510  26.230  22.599  12.529
49840W        W21511  41.052  36.907   4.758
49841W        W21512   6.698  40.788   2.862
49842W        W21513  12.478  24.067  14.270
49843W        W21514  12.682  28.329   3.774
49844W        W21515  27.288  10.099   0.022
49845W        W21516   9.345  14.901   1.235
49846W        W21517  43.977  16.223  12.592
49847W        W21518  19.653  23.155   2.601
49848W        W21519  37.061  19.275  13.391
49849W        W21520  23.621  29.131   4.356
49850W        W21521  22.139  33.590   3.958
49851W        W21522  20.704  41.380   1.666
49852W        W21523  40.880  29.443  13.973
49853W        W21524   9.377  44.703  11.021
49854W        W21525  12.824   7.236   2.894
49855W        W21526   4.784  12.829   4.143
49856W        W21527  35.036  32.874   4.608
49857W        W21528  15.107  41.795   3.378
49858W        W21529  33.033  16.691   1.070
49859W        W21530  12.840  39.999   4.268
49860W        W21531  30.019  13.545   0.113
49861W        W21532  15.745   4.331  10.017
49862W        W21533  29.245   9.773   4.123
49863W        W21534   8.414  44.902  11.100
49864W        W21535   2.377  13.857   1.765
49865W        W21536  21.867  11.798   0.093
49866W        W21537   1.389  35.366   2.817
49867W        W21538   5.904  12.243  13.075
49868W        W21539  44.340  34.805   1.786
49869W        W21540  41.135   0.361  14.984
49870W        W21541  26.404  13.815  14.808
49871W        W21542  17.728  22.900  12.614
49872W        W21543  25.430  23.613  14.989
49873W        W21544  21.629  31.307  13.731
49874W        W21545  14.599  31.193   4.711
49875W        W21546   0.411  39.945  13.576
49876W        W21547   5.634   6.187  12.935
49877W        W21548   5.793   8.285  11.226
49878W        W21549   5.769  15.664  14.052
49879W        W21550  17.025  32.150  14.772
49880W        W21551  25.825  23.479   4.562
49881W        W21552  11.925   0.404   3.149
49882W        W21553   7.353  18.463  13.837
49883W        W21554   5.440  40.483  10.651
49884W        W21555  24.578  38.256   3.508
49885W        W21556   9.864  35.068   0.011
49886W        W21557  11.408  38.408   3.832
49887W        W21558  13.029  20.027   2.435
49888W        W21559  23.861  30.192  14.079
49889W        W21560  15.557   1.965  13.973
49890W        W21561  25.532  18.754  10.686
49891W        W21562   1.993   0.473  14.875
49892W        W21563  37.880  16.733   1.166
49893W        W21564  13.421  16.801   0.031
49894W        W21565  28.625   9.069   0.287
49895W        W21566   3.236  18.581   1.321
49896W        W21567  44.863   5.425   1.274
49897W        W21568  20.594  36.348  12.806
49898W        W21569  10.377  40.464   1.462
49899W        W21570  33.959  19.900   4.741
49900W        W21571   0.947  18.578   4.604
49901W        W21572  18.256  38.057   1.007
49902W        W21573  25.396  42.919   4.267
49903W        W21574  44.731   5.246  12.421
49904W        W21575  40.764  12.235  10.797
49905W        W21576  14.658  11.092  12.647
49906W        W21577  38.917  16.675   4.384
49907W        W21578  41.077  14.641  12.508
49908W        W21579  37.783  26.004   1.810
49909W        W21580   4.789  18.819   3.277
49910W        W21581  18.295  38.290  12.330
49911W        W21582  34.656  36.287   4.208
49912W        W21583  32.392  18.290   3.335
49913W        W21584  44.301  26.890   2.250
49914W        W21585  40.253  30.544  13.574
49915W        W21586  15.013  18.996  11.592
49916W        W21587  32.875  25.636   4.229
49917W        W21588  11.226  32.835  12.417
49918W        W21589  16.611   0.063   1.703
49919W        W21590  26.427   4.797  12.614
49920W        W21591  26.137  44.133   4.543
49921W        W21592  28.506  35.550   0.260
49922W        W21593  28.912  22.330  10.742
49923W        W21594  36.911  38.608  13.831
49924W        W21595  44.512  29.222   2.335
49925W        W21596  43.239   5.639   3.671
49926W        W21597  21.166  13.443   4.074
49927W        W21598  24.661  30.731  11.626
49928W        W21599  25.895  42.980   4.196
49929W        W21600   1.305  22.210   0.546
49930W        W21601  26.687  38.913   5.286
49931W        W21602  20.128  33.523   3.749
49932W        W21603   7.843   2.930   2.342
49933W        W21604  16.062  24.511   2.262
49934W        W21605  37.896  13.156  14.503
49935W        W21606  19.727   7.885  13.952
49936W        W21607  20.648  16.234   4.410
49937W        W21608  28.904  28.675   2.756
49938W        W21609  24.719  10.711  10.898
49939W        W21610  30.143  33.136  11.986
49940W        W21611  36.054   0.528  14.399
49941W        W21612  42.295   6.437   0.426
49942W        W21613  17.809  29.886   0.108
49943W        W21614  16.870  11.847  13.457
49944W        W21615   4.447   7.324  13.709
49945W        W21616  21.036  42.836   3.236
49946W        W21617  27.551  28.717   1.397
49947W        W21618  11.362  27.940  13.144
49948W        W21619  15.045  39.006   2.918
49949W        W21620  18.727  30.947   3.657
49950W        W21621  42.926   0.022  11.549
49951W        W21622  21.478  43.940  14.457
49952W        W21623  37.996  26.883  13.411
49953W        W21624  33.423  15.156   0.486
49954W        W21625  37.992  34.980  13.928
49955W        W21626  12.354  29.658  10.720
49956W        W21627  27.649  42.179  13.393
49957W        W21628  25.506  33.363   1.867
49958W        W21629   9.845   8.932  14.905
49959W        W21630  21.807  38.580   1.781
49960W        W21631  28.193  19.942  11.999
49961W        W21632   7.403   9.440   2.289
49962W        W21633  42.959  18.730   3.264
49963W        W21634  35.857   9.872  13.102
49964W        W21635  36.906  35.818   3.767
49965W        W21636   3.515  18.669  13.163
49966W        W21637  44.224  14.836  13.740
49967W        W21638  41.611  25.433   2.729
49968W        W21639  37.786  29.214   5.046
49969W        W21640   1.569  32.434   2.686
49970W        W21641  28.486  18.043   4.374
49971W        W21642  35.567   5.232   1.182
49972W        W21643  31.034   9.514   3.243
49973W        W21644  37.999  38.772   9.841
49974W        W21645  40.347   5.545   4.084
49975W        W21646  27.407  42.185   0.992
49976W        W21647   1.852  42.902   0.853
49977W        W21648   2.724  44.788  12.045
49978W        W21649  28.897   4.359   0.918
49979W        W21650  17.439  16.092  13.635
49980W        W21651   9.163   7.825  10.693
49981W        W21652   2.952  41.931   2.961
49982W        W21653  14.773  22.549   4.531
49983W        W21654  29.654  35.069   1.305
49984W        W21655  22.229  38.470  10.995
49985W        W21656  43.984  43.066   4.562
49986W        W21657  13.944  26.187  13.497
49987W        W21658  38.455  37.573  12.848
49988W        W21659   3.259  17.536   2.265
49989W        W21660  16.495  10.453  13.883
49990W        W21661  37.752  30.651   2.661
49991W        W21662  34.308  39.498  13.371
49992W        W21663  32.647  27.648   0.736
49993W        W21664   6.668   8.756   2.915
49994W        W21665  28.280  39.422  10.234
49995W        W21666  19.695  27.816  11.828
49996W        W21667  20.598  11.738  11.502
49997W        W21668  32.058  34.291   2.430
49998W        W21669  14.761   4.948   1.310
49999W        W21670  25.076  40.092   4.942
50000W        W21671  16.170  44.281  12.452
50001W        W21672  36.905   3.094   0.412
50002W        W21673  42.109  15.787   9.972
50003W        W21674  39.274  27.629   4.178
50004W        W21675  10.684   0.333  11.008
50005W        W21676   2.050   3.675   3.783
50006W        W21677  18.624  17.793  14.611
50007W        W21678  23.786  27.459   1.727
50008W        W21679  15.082  33.898  12.467
50009W        W21680  13.733  41.072   4.189
50010W        W21681  42.867  30.123   2.890
50011W        W21682  18.629  34.491  12.616
50012W        W21683  34.669  44.892   0.957
50013W        W21684  36.290  26.859   4.197
50014W        W21685   8.288   7.324   2.765
50015W        W21686  25.603   1.347  11.140
50016W        W21687   6.384  16.676   0.807
50017W        W21688  29.646  13.823  14.808
50018W        W21689  43.844  37.467  14.828
50019W        W21690  16.767   6.241   2.190
50020W        W21691  18.688  26.109   5.132
50021W        W21692  41.048  31.354  12.601
50022W        W21693  37.099  32.331  14.059
50023W        W21694  44.492  14.136  10.202
50024W        W21695  13.787  35.666  11.357
50025W        W21696  29.592  33.640  13.950
50026W        W21697  29.726  27.979   1.423
50027W        W21698  39.797   8.378   0.386
50028W        W21699  36.357  23.869   1.748
50029W        W21700  37.244   4.785  11.083
50030W        W21701   8.357   4.049  12.593
50031W        W21702   1.697   4.655  12.449
50032W        W21703  17.371  10.832  14.830
50033W        W21704  41.098  21.161   4.567
50034W        W21705  19.001  12.695  10.698
50035W        W21706  23.467  30.601   1.814
50036W        W21707  28.996  18.020   4.600
50037W        W21708  19.171   7.077   3.218
50038W        W21709  18.280   5.804   2.317
50039W        W21710  31.073  15.947   4.173
50040W        W21711   0.318  19.499   3.313
50041W        W21712   2.958  24.535  14.062
50042W        W21713  33.395   9.198  10.813
50043W        W21714  24.485  41.918  13.371
50044W        W21715  34.019  40.192  11.982
50045W        W21716  29.534   0.794  12.117
50046W        W21717  42.420  24.231  12.427
50047W        W21718  28.891  23.082  13.449
50048W        W21719  27.911  12.800   0.787
50049W        W21720  16.361  20.903  12.110
50050W        W21721  25.904   7.083  11.554
50051W        W21722  24.254  11.074  12.931
50052W        W21723  31.113  16.466   0.043
50053W        W21724  20.559  18.300  12.515
50054W        W21725  26.563  13.702  10.658
50055W        W21726   2.332  21.025   2.685
50056W        W21727  16.141  20.436  10.463
50057W        W21728  29.235   2.203   2.743
50058W        W21729   2.256  22.190  13.482
50059W        W21730  33.002  15.644   4.529
50060W        W21731  12.320   7.372   0.352
50061W        W21732  28.645  39.784  12.130
50062W        W21733  39.603  14.654   3.236
50063W        W21734  15.406  26.424   0.507
50064W        W21735   7.250  21.965   2.745
50065W        W21736  17.029  24.729   2.813
50066W        W21737  13.620  41.466   2.424
50067W        W21738   5.896  28.437   1.253
50068W        W21739  14.037   3.124   1.606
50069W        W21740  30.613  18.960   1.277
50070W        W21741   2.299  33.709   3.539
50071W        W21742  25.635  13.613   2.637
50072W        W21743   5.198  39.939  11.585
50073W        W21744  24.574   4.706  12.608
50074W        W21745  18.680  30.139  10.865
50075W        W21746   5.524  43.763   4.834
50076W        W21747  30.536  37.063  12.571
50077W        W21748  18.291  13.283   1.413
50078W        W21749  15.125  13.201  13.087
50079W        W21750  42.418  39.667   4.999
50080W        W21751   9.805  34.774   1.021
50081W        W21752  11.002  44.950   3.953
50082W        W21753  41.860  16.724   1.927
50083W        W21754  22.254  39.068  11.672
50084W        W21755   3.107   1.111  11.440
50085W        W21756  30.396  44.726  14.814
50086W        W21757  16.977  37.017   0.463
50087W        W21758  16.545   2.743   2.729
50088W        W21759  22.547  26.700   3.068
50089W        W21760  35.456  38.397  13.551
50090W        W21761  35.893  30.654   1.867
50091W        W21762  11.874  34.506  12.074
50092W        W21763  22.094  12.341  13.805
50093W        W21764  33.320   2.253   1.249
50094W        W21765  21.706  10.750  11.051
50095W        W21766  42.411  22.899  11.817
50096W        W21767  10.354   8.185  14.747
50097W        W21768  41.710  31.010   1.418
50098W        W21769  29.915  41.804  12.101
50099W        W21770  35.110  34.679   0.205
50100W        W21771  34.576   4.183  13.925
50101W        W21772  42.636  15.264  12.528
50102W        W21773  43.477  43.688   0.032
50103W        W21774   4.351  24.071  13.508
50104W        W21775  16.371  15.935  11.512
50105W        W21776  13.456  34.792  11.534
50106W        W21777  23.819   6.591  14.145
50107W        W21778  11.035  41.359  14.996
50108W        W21779  23.662  34.833   2.163
50109W        W21780   7.725  25.510   3.288
50110W        W21781  16.867  38.736  14.308
50111W        W21782  28.678  10.215  12.531
50112W        W21783   8.160  40.781   0.892
50113W        W21784  40.528  13.071   3.269
50114W        W21785  28.162  30.486   2.737
50115W        W21786   6.654  32.622   1.516
50116W        W21787  25.182   2.427  11.584
50117W        W21788  31.573   2.274  14.121
50118W        W21789  32.095  29.557  13.800
50119W        W21790  38.678  30.490   2.243
50120W        W21791  44.330   9.749  13.672
50121W        W21792  14.138   8.955  13.242
50122W        W21793   5.200  16.365  12.481
50123W        W21794  13.213  14.558   1.436
50124W        W21795   4.342  18.293  11.990
50125W        W21796  21.217  34.031   4.105
50126W        W21797  26.503  39.248   2.755
50127W        W21798  16.836  32.393   0.848
50128W        W21799  14.707   2.900   0.629
50129W        W21800  24.444  31.573  11.486
50130W        W21801   4.404  14.911  14.908
50131W        W21802  20.171  30.614   1.715
50132W        W21803  22.547  35.183  13.626
50133W        W21804  41.568  42.557  13.867
50134W        W21805   2.444   9.913  12.912
50135W        W21806  39.033   4.622   5.065
50136W        W21807  34.795  18.162  10.998
50137W        W21808   8.135  44.013   4.150
50138W        W21809  14.121   3.839   2.270
50139W        W21810  25.590  20.063   2.556
50140W        W21811  11.262   0.766   0.860
50141W        W21812   4.930  28.698  12.984
50142W        W21813   6.496  31.566  13.868
50143W        W21814  18.477  26.685  13.830
50144W        W21815  24.215  10.453  13.496
50145W        W21816  15.777   3.759  12.005
50146W        W21817  25.656   0.607   4.077
50147W        W21818   3.684  36.307  14.996
50148W        W21819  42.217  34.700  13.018
50149W        W21820  12.365   4.152   4.161
50150W        W21821  39.658  19.736   3.730
50151W        W21822   6.419  11.396   0.386
50152W        W21823  17.702  13.649  12.088
50153W        W21824   8.808  21.575  12.954
50154W        W21825   4.435  36.331  11.943
50155W        W21826  13.738   0.662   2.926
50156W        W21827  32.227  39.412   3.367
50157W        W21828  24.179  43.331   0.506
50158W        W21829   1.375   2.751  13.265
50159W        W21830  22.259  21.004  14.434
50160W        W21831  19.175  26.198  11.848
50161W        W21832   8.923  13.526  10.827
50162W        W21833   2.042  31.374  12.465
50163W        W21834  41.093  44.581  11.514
50164W        W21835  11.144  14.081  13.630
50165W        W21836  12.035   4.950   4.222
50166W        W21837   3.360  37.975   0.912
50167W        W21838  16.911  35.049   3.376
50168W        W21839  36.254  25.536  13.943
50169W        W21840  36.718   9.383  12.048
50170W        W21841  18.600  13.062  14.013
50171W        W21842  30.507   4.450  12.453
50172W        W21843   3.257   0.739   0.003
50173W        W21844  29.229   7.589   4.556
50174W        W21845  12.463  30.672   0.475
50175W        W21846   4.644  19.574   3.702
50176W        W21847  16.956  10.390  11.003
50177W        W21848  33.895  12.254   0.434
50178W        W21849  23.134  16.554  13.136
50179W        W21850   4.791  37.313   4.122
50180W        W21851  31.000  22.756  10.715
50181W        W21852   1.322   3.301  14.784
50182W        W21853  42.349  20.286  14.468
50183W        W21854  23.516  20.204   2.675
50184W        W21855  40.558  35.090  11.101
50185W        W21856  13.984  33.059  11.711
50186W        W21857  17.072   4.787  11.608
50187W        W21858  10.042  13.998   4.962
50188W        W21859  14.233  43.246  13.366
50189W        W21860  22.995  15.251  10.503
50190W        W21861  15.847  18.775  10.807
50191W        W21862  26.000  16.253  14.766
50192W        W21863  17.306  26.949   0.931
50193W        W21864  31.541  15.210  12.876
50194W        W21865  36.531  36.988   2.839
50195W        W21866  28.360  41.502  13.431
50196W        W21867  17.061  24.600  14.053
50197W        W21868   5.484  39.025   3.303
50198W        W21869  23.719  19.043  13.275
50199W        W21870  12.131   4.849   0.853
50200W        W21871   6.440  30.125  10.715
50201W        W21872  30.002  27.063   2.808
50202W        W21873   7.766  44.787  11.458
50203W        W21874  18.983  21.720  13.013
50204W        W21875  17.075  25.427   1.756
50205W        W21876  38.622  22.920  10.431
50206W        W21877  17.297   5.937  12.140
50207W        W21878  31.969  13.439  13.533
50208W        W21879  11.207  35.507  11.258
50209W        W21880  25.259  33.537   1.413
50210W        W21881  22.704  42.358   3.702
50211W        W21882  40.449  43.931   2.650
50212W        W21883  17.216  24.466   3.224
50213W        W21884   0.695  13.599  13.960
50214W        W21885   5.739  14.171   3.444
50215W        W21886   8.170  42.148  13.426
50216W        W21887  16.562   1.888  14.740
50217W        W21888   8.485  35.114   3.158
50218W        W21889  10.852  19.558   5.175
50219W        W21890  43.192   6.244  13.449
50220W        W21891  17.706  31.694   0.177
50221W        W21892  34.747  29.520   4.439
50222W        W21893  14.622  28.480  13.298
50223W        W21894  28.936   3.691   3.388
50224W        W21895  20.097  18.857  12.795
50225W        W21896  15.619   9.484  14.536
50226W        W21897  37.005  30.070   2.699
50227W        W21898   8.775  16.559  13.371
50228W        W21899  40.025  41.778   4.979
50229W        W21900  21.588   1.960   3.016
50230W        W21901   7.329  25.972   1.858
50231W        W21902  38.732  17.695   0.227
50232W        W21903   4.353  17.212   4.393
50233W        W21904  41.230  37.473   0.171
50234W        W21905  15.623  29.891   2.758
50235W        W21906  24.161   7.221   3.100
50236W        W21907  37.906  19.032   2.206
50237W        W21908   2.207  41.856   3.867
50238W        W21909  32.162  43.490   0.708
50239W        W21910   3.252  15.326   1.320
50240W        W21911  23.641  36.552  10.759
50241W        W21912  29.176   1.883  14.792
50242W        W21913   6.454  28.642  12.564
50243W        W21914   9.733  31.232  11.136
50244W        W21915  40.798  44.771  14.437
50245W        W21916  38.471   9.769  10.958
50246W        W21917  34.058   4.466   2.852
50247W        W21918  39.074  13.652  14.883
50248W        W21919  29.451  21.580   0.984
50249W        W21920  29.678  19.767  14.560
50250W        W21921   1.421  35.403  12.318
50251W        W21922  38.556  26.520  14.033
50252W        W21923  18.054  31.860   3.667
50253W        W21924  39.417  36.119   3.675
50254W        W21925   9.378  41.539  13.370
50255W        W21926  43.335  25.986  11.024
50256W        W21927  24.638   5.787   2.001
50257W        W21928  21.793  44.522  13.667
50258W        W21929   4.978  23.567  12.614
50259W        W21930   0.011  30.246  13.006
50260W        W21931   0.188   4.293  14.671
50261W        W21932  15.585   3.955   4.090
50262W        W21933  21.039  13.751   1.875
50263W        W21934  29.100  28.705  14.342
50264W        W21935  42.439   7.699  13.381
50265W        W21936  37.806  44.800   4.028
50266W        W21937   7.979  25.057   3.375
50267W        W21938   9.297  42.348  12.162
50268W        W21939  10.151  22.734  13.996
50269W        W21940  41.982   8.444   4.739
50270W        W21941  24.841  43.403  12.444
50271W        W21942  25.902  17.495  14.006
50272W        W21943  39.024  37.995   2.205
50273W        W21944  17.691  10.341   4.139
50274W        W21945  29.638  19.073   0.320
50275W        W21946  29.857  42.424  14.828
50276W        W21947   5.901  42.324  13.875
50277W        W21948  32.194   6.359  14.834
50278W        W21949  41.992  36.400  10.992
50279W        W21950  21.291  34.921   0.462
50280W        W21951  39.427  13.386   2.212
50281W        W21952   7.320   2.831   4.739
50282W        W21953   2.984   9.289  10.431
50283W        W21954  30.422  12.382  13.955
50284W        W21955   1.027  13.349   3.411
50285W        W21956   2.695   1.942  14.477
50286W        W21957  12.502  25.984  11.529
50287W        W21958   9.103  15.507  10.924
50288W        W21959  40.292  34.373   2.304
50289W        W21960  40.104  31.869  14.934
50290W        W21961  42.404  37.072  13.372
50291W        W21962  16.323  16.067   3.314
50292W        W21963   2.699   9.815   3.283
50293W        W21964   4.347  25.192   3.213
50294W        W21965  29.078  44.389   3.222
50295W        W21966   4.428  35.871   1.875
50296W        W21967   3.400  29.887  13.410
50297W        W21968  26.090   1.548   4.107
50298W        W21969  23.492   2.857  14.942
50299W        W21970  20.807  21.485  11.126
50300W        W21971   0.486  26.563   1.099
50301W        W21972  27.071  27.477   2.088
50302W        W21973  36.861   6.217  14.499
50303W        W21974  13.645   5.900   9.805
50304W        W21975  12.526  35.129   2.968
50305W        W21976  19.317  40.269  13.401
50306W        W21977  29.505  12.783  12.202
50307W        W21978  11.280  14.368  14.898
50308W        W21979  29.894  28.590   3.558
50309W        W21980   3.691   5.725  12.021
50310W        W21981  20.166   4.756  11.386
50311W        W21982  21.414  26.661   1.704
50312W        W21983  43.765  44.439  14.861
50313W        W21984  16.068  40.868  10.679
50314W        W21985  19.985  22.609  12.131
50315W        W21986  35.518  32.960  12.971
50316W        W21987  38.481  28.073   1.754
50317W        W21988  39.143  28.388  11.084
50318W        W21989  21.186  13.673  11.874
50319W        W21990   2.023  18.200  12.022
50320W        W21991  42.416  32.430   0.868
50321W        W21992  29.651  41.380  10.533
50322W        W21993  32.556   8.759   3.677
50323W        W21994  37.397  22.580   1.447
50324W        W21995  24.279  40.743   1.539
50325W        W21996  17.043  11.950   0.930
50326W        W21997  34.384  15.704  11.211
50327W        W21998  32.621   0.489  14.991
50328W        W21999  32.244  37.333  10.979
50329W        W22000  14.106  21.672  11.933
50330W        W22001  23.162  11.232   3.184
50331W        W22002   4.996   3.205  14.237
50332W        W22003  37.568  21.753  11.505
50333W        W22004  41.057  22.265   2.770
50334W        W22005  15.197  40.827  12.876
50335W        W22006  37.530  40.459   0.436
50336W        W22007  32.695  18.485   0.272
50337W        W22008  35.880  26.513   3.403
50338W        W22009  35.617  44.623  12.053
50339W        W22010  36.427  17.000   4.070
50340W        W22011  30.173   9.681   4.517
50341W        W22012   3.700  10.047  11.597
50342W        W22013  37.850   0.454  12.432
50343W        W22014   4.267   8.842  11.545
50344W        W22015   2.836   7.583   3.282
50345W        W22016  43.088  12.731   3.080
50346W        W22017  17.207  26.651   5.052
50347W        W22018  13.572  10.639   1.707
50348W        W22019  19.134  43.308  13.044
50349W        W22020   6.079  27.647   0.828
50350W        W22021  19.848  17.497   4.776
50351W        W22022  18.811  23.998  12.952
50352W        W22023  39.945  14.781  13.939
50353W        W22024  40.969   1.948   0.033
50354W        W22025  26.832   1.155   4.474
50355W        W22026  23.674  29.386   3.516
50356W        W22027  14.232  19.568  11.657
50357W        W22028  20.406  27.007   4.159
50358W        W22029  14.816  13.770   3.864
50359W        W22030   8.397  18.494  11.421
50360W        W22031   3.951  33.867  10.536
50361W        W22032  14.286  42.484   3.727
50362W        W22033  44.539  24.937  11.473
50363W        W22034  29.566   7.628  12.906
50364W        W22035  21.094   6.130  10.576
50365W        W22036  33.596   0.086  11.054
50366W        W22037  29.164  43.780   1.769
50367W        W22038  42.377  39.565  14.514
50368W        W22039   4.937  32.243  12.624
50369W        W22040  24.802   7.341  13.092
50370W        W22041  17.873  37.987  13.027
50371W        W22042  30.162  34.944  10.377
50372W        W22043  18.011  32.466  13.037
50373W        W22044   7.250  14.352   0.876
50374W        W22045  28.002  19.528   1.685
50375W        W22046  15.236  23.656   4.769
50376W        W22047  14.816   3.886   2.695
50377W        W22048  25.482  10.012   4.586
50378W        W22049  23.128   1.262   4.687
50379W        W22050  15.606   1.316  10.665
50380W        W22051  31.979  30.385  13.482
50381W        W22052  22.797  12.721  14.411
50382W        W22053  18.485  22.081  13.021
50383W        W22054  20.002  24.197   3.735
50384W        W22055  30.168  44.974   2.243
50385W        W22056  42.724  14.416  11.143
50386W        W22057  21.021  25.838  13.117
50387W        W22058  40.765  20.014   1.278
50388W        W22059  22.051  16.702   0.298
50389W        W22060  40.055  29.996   1.790
50390W        W22061  20.717   4.843   3.796
50391W        W22062  17.062  39.391   3.234
50392W        W22063  43.096  30.457  13.053
50393W        W22064   8.110  36.027   4.263
50394W        W22065  24.475  30.536  13.534
50395W        W22066  37.804  17.591  12.143
50396W        W22067  22.958   6.418  11.491
50397W        W22068  11.539  16.715   1.158
50398W        W22069   6.237  38.880  11.547
50399W        W22070  30.482  15.776  12.880
50400W        W22071   8.125  40.554  14.118
50401W        W22072   6.857  11.354  14.006
50402W        W22073  41.421  10.774  11.256
50403W        W22074  30.920   9.940  12.930
50404W        W22075  18.258  29.212  11.000
50405W        W22076  41.341  36.286  10.978
50406W        W22077  34.179  30.966   0.415
50407W        W22078   5.817  37.486  14.705
50408W        W22079  13.063  11.160   1.244
50409W        W22080  15.879   9.024  12.422
50410W        W22081  24.757  32.468  12.010
50411W        W22082   5.255   2.242   4.296
50412W        W22083  36.625  34.320   2.260
50413W        W22084  40.015  20.315  13.020
50414W        W22085  12.689  40.487   3.729
50415W        W22086   8.764   8.514   4.541
50416W        W22087   0.455   6.399  10.559
50417W        W22088  34.535  44.326  10.648
50418W        W22089  22.326  29.977   0.554
50419W        W22090   8.335  35.520  14.481
50420W        W22091  12.009  30.683   4.509
50421W        W22092  29.202  38.259   0.345
50422W        W22093   9.414  10.234  11.035
50423W        W22094  41.939  22.727  11.681
50424W        W22095  34.996  43.982  13.249
50425W        W22096  42.202  16.835   0.491
50426W        W22097  20.086  16.085  12.438
50427W        W22098   7.232  43.358  14.405
50428W        W22099  22.160   7.362  12.267
50429W        W22100   9.729  22.501  11.536
50430W        W22101  37.316  13.021  12.902
50431W        W22102  18.836  15.195  13.460
50432W        W22103  38.423  20.569  14.825
50433W        W22104  33.593   2.814   3.354
50434W        W22105  41.223  27.686   0.285
50435W        W22106   9.713   2.445  10.972
50436W        W22107  15.757  42.258  10.672
50437W        W22108  36.258  36.346  13.782
50438W        W22109  20.708  15.956  13.044
50439W        W22110  10.188   4.445  13.450
50440W        W22111  25.761  36.477  11.026
50441W        W22112  18.774  29.609  14.879
50442W        W22113   8.133  25.700  12.653
50443W        W22114  27.720  18.479  12.056
50444W        W22115  12.468  36.913   1.699
50445W        W22116  30.324  44.968  14.362
50446W        W22117  37.451   0.218   4.672
50447W        W22118  16.987   0.914   1.971
50448W        W22119  35.977   2.729  13.303
50449W        W22120   4.780  28.659   0.689
50450W        W22121  33.503  22.493  13.763
50451W        W22122  36.900   1.295  12.455
50452W        W22123  34.913  27.766  14.831
50453W        W22124  20.979  42.323   3.358
50454W        W22125  16.545  21.153  10.958
50455W        W22126  39.310  28.022  11.894
50456W        W22127  27.213   9.209  11.543
50457W        W22128  14.588   7.455   0.984
50458W        W22129  15.081  30.969  12.564
50459W        W22130  31.395  43.828   1.782
50460W        W22131  36.452   8.718  13.856
50461W        W22132  19.637  21.016   0.724
50462W        W22133  26.985  36.176  12.674
50463W        W22134  23.708  10.825  10.989
50464W        W22135  31.004   3.929  10.886
50465W        W22136  37.989  34.145   2.376
50466W        W22137  36.359   3.377  12.112
50467W        W22138  44.730  40.447  11.541
50468W        W22139  40.570  28.290  14.249
50469W        W22140  29.120  27.657  14.383
50470W        W22141  39.263   8.223  12.056
50471W        W22142  13.732  30.024  12.496
50472W        W22143  13.575  32.806  12.460
50473W        W22144   6.759   2.142   0.904
50474W        W22145  17.133  20.032  13.488
50475W        W22146  27.519   6.523   1.783
50476W        W22147   0.068  41.445   4.919
50477W        W22148  30.166  42.515   1.192
50478W        W22149  42.592  32.482   2.763
50479W        W22150  13.406   7.410   4.692
50480W        W22151  35.537  29.153   0.005
50481W        W22152  32.392  20.481   2.740
50482W        W22153  13.331   8.318   4.027
50483W        W22154  41.889  39.161  13.468
50484W        W22155  27.655  32.084   0.275
50485W        W22156  11.712  15.793  12.347
50486W        W22157  41.050  26.886  12.913
50487W        W22158  22.994  24.739  11.854
50488W        W22159  30.368  22.883  11.032
50489W        W22160  23.517  34.362  13.122
50490W        W22161   2.736  15.583   4.693
50491W        W22162  38.016  11.182  14.948
50492W        W22163  30.002  31.367  14.512
50493W        W22164   5.120  30.564  10.556
50494W        W22165  38.021   3.756  10.727
50495W        W22166  33.914  16.460  14.620
50496W        W22167  13.935   3.639  13.680
50497W        W22168  33.166  42.413  12.086
50498W        W22169   3.274   4.987   0.849
50499W        W22170  11.212  12.180  14.024
50500W        W22171  27.720  38.812   4.162
50501W        W22172   5.416  12.366   3.260
50502W        W22173  38.831  11.633   1.604
50503W        W22174   7.247   9.138  10.628
50504W        W22175  44.728  27.127  10.777
50505W        W22176  24.743  18.299   1.501
50506W        W22177  32.043  22.192   4.214
50507W        W22178  25.222  27.509   3.315
50508W        W22179   8.788   9.851  10.531
50509W        W22180  24.075   5.453   0.431
50510W        W22181  31.887  14.777   3.586
50511W        W22182  34.589   5.327  10.695
50512W        W22183  39.574   6.787  13.063
50513W        W22184  35.157  39.321  11.072
50514W        W22185  18.222  29.347  11.490
50515W        W22186   3.809  35.368   3.191
50516W        W22187   0.557  17.591   4.449
50517W        W22188  23.432   1.391   2.380
50518W        W22189   9.410  15.906   3.327
50519W        W22190  29.940  33.634  11.124
50520W        W22191  23.097  21.568   1.309
50521W        W22192  39.866  42.273   0.768
50522W        W22193  19.130   6.625   4.362
50523W        W22194  34.925  18.079  12.006
50524W        W22195  11.854  29.991  14.656
50525W        W22196  44.504  36.475  14.524
50526W        W22197   9.588  13.394  13.507
50527W        W22198  43.131  13.719   4.567
50528W        W22199   4.015  38.248  13.303
50529W        W22200   1.753  11.265  11.220
50530W        W22201  36.342  34.836   3.156
50531W        W22202   6.227  32.353   1.348
50532W        W22203   8.693  12.740   0.989
50533W        W22204  44.502   8.709   0.247
50534W        W22205  15.587  15.380  12.032
50535W        W22206  23.145  43.235   4.962
50536W        W22207  23.417  38.499   3.693
50537W        W22208   3.460  28.625   3.171
50538W        W22209  44.511  23.515  10.699
50539W        W22210   2.773  37.806  12.099
50540W        W22211  16.903  16.314  10.658
50541W        W22212   1.429   5.910   0.574
50542W        W22213   4.150  44.220  12.255
50543W        W22214   0.649  22.130   2.358
50544W        W22215  36.501  25.917  12.953
50545W        W22216  36.368   7.769   4.591
50546W        W22217  40.975  18.196   4.933
50547W        W22218  32.589  35.386   3.667
50548W        W22219  42.418  20.746   3.356
50549W        W22220  31.518  13.601   1.010
50550W        W22221  10.349  19.631  14.114
50551W        W22222  24.419   0.874   1.682
50552W        W22223  35.818  11.181  14.976
50553W        W22224  31.598  37.916   4.737
50554W        W22225  17.667   9.804  12.692
50555W        W22226  23.732  13.890  11.474
50556W        W22227  39.080  22.297   1.782
50557W        W22228  33.138  18.666   0.511
50558W        W22229   3.295  33.419   3.678
50559W        W22230  19.258  41.717  13.449
50560W        W22231  14.193  27.606   4.640
50561W        W22232   9.930  14.103   1.877
50562W        W22233  17.175  33.374  14.455
50563W        W22234  32.820  22.744   3.639
50564W        W22235  31.225   9.960  14.855
50565W        W22236  40.529  18.488  12.902
50566W        W22237  31.015  25.319   0.751
50567W        W22238  44.130   3.344   1.492
50568W        W22239  36.132   0.442  12.484
50569W        W22240  34.447  31.119   3.692
50570W        W22241  12.737   1.133  12.305
50571W        W22242  37.925  21.128  10.114
50572W        W22243   8.764   2.969  13.114
50573W        W22244  30.608  16.205   4.055
50574W        W22245   9.354  43.344  12.020
50575W        W22246  21.540  28.156  13.372
50576W        W22247   8.431  18.811  10.335
50577W        W22248  32.709  39.697  14.510
50578W        W22249   5.317  13.899  11.261
50579W        W22250  34.205  18.350  11.480
50580W        W22251  40.174  12.442  12.156
50581W        W22252  15.778  14.864  13.733
50582W        W22253   3.480  13.441  14.192
50583W        W22254  23.503  15.892  12.438
50584W        W22255  34.608   9.885  12.561
50585W        W22256  11.582  36.334   0.290
50586W        W22257  14.088  40.575  12.666
50587W        W22258  29.155  27.021   2.358
50588W        W22259  18.914  40.575  10.979
50589W        W22260  13.855  44.526   2.181
50590W        W22261  36.630  34.905  14.416
50591W        W22262  25.231  16.827   4.604
50592W        W22263   5.252   7.211   2.505
50593W        W22264  27.059  28.404   2.195
50594W        W22265  41.507  16.110   3.863
50595W        W22266  39.765  23.667   0.613
50596W        W22267  20.155  15.828  12.912
50597W        W22268  32.959  11.819  12.007
50598W        W22269  38.501   1.397  10.782
50599W        W22270  43.715  29.750   0.224
50600W        W22271  34.157  27.984  10.579
50601W        W22272  37.483  44.251   5.119
50602W        W22273  36.577  30.640   1.347
50603W        W22274  20.547   2.844   3.686
50604W        W22275  25.664   3.731  12.746
50605W        W22276  39.724  15.471  11.083
50606W        W22277   2.402  34.012  14.184
50607W        W22278  19.949  10.660   1.007
50608W        W22279  29.456  13.197  13.499
50609W        W22280   8.893  29.890   1.335
50610W        W22281  12.998  42.776   4.147
50611W        W22282  39.754  21.282  13.073
50612W        W22283  27.541   6.193   3.193
50613W        W22284  44.140  13.115  12.524
50614W        W22285  21.859  42.795   2.969
50615W        W22286   6.222  29.557   3.817
50616W        W22287   5.543   3.643  13.398
50617W        W22288  25.615   5.803   0.472
50618W        W22289  26.589  38.567  11.058
50619W        W22290  14.676  41.503   1.436
50620W        W22291  33.806  11.956  12.001
50621W        W22292  20.046   5.259   3.197
50622W        W22293  25.607  10.625   3.543
50623W        W22294  21.204  12.848  14.527
50624W        W22295  35.037  35.202  13.445
50625W        W22296  28.078  29.871   4.578
50626W        W22297  21.454  17.021  14.873
50627W        W22298   9.268  18.123   3.849
50628W        W22299  13.880  10.236   1.640
50629W        W22300  41.540   7.105   3.653
50630W        W22301  44.730   8.411  12.095
50631W        W22302  10.355  21.252  12.854
50632W        W22303   6.721   0.805   0.510
50633W        W22304   2.034  25.272  14.453
50634W        W22305  16.985   5.842   0.891
50635W        W22306  37.815  38.935  12.967
50636W        W22307  41.413  22.005   0.369
50637W        W22308   5.892  18.557   4.180
50638W        W22309  33.286  40.269   0.999
50639W        W22310  26.984  25.518  12.661
50640W        W22311  40.330  13.291   4.643
50641W        W22312   7.286  41.591   2.093
50642W        W22313   8.146   8.904   2.229
50643W        W22314   8.242   6.118   0.297
50644W        W22315  11.736  36.151  13.575
50645W        W22316  17.230  21.842  14.344
50646W        W22317   6.248  18.951   0.882
50647W        W22318   2.274   3.216   3.701
50648W        W22319   8.696  37.376   3.256
50649W        W22320  27.181  25.538   0.840
50650W        W22321  31.942  32.852   1.264
50651W        W22322   9.200  22.021  13.230
50652W        W22323  18.625   5.387  11.049
50653W        W22324  29.176   7.777   4.086
50654W        W22325  32.860  29.589   0.270
50655W        W22326  33.853  43.929  14.346
50656W        W22327  18.488  26.506  14.434
50657W        W22328  34.540  36.576   1.863
50658W        W22329  29.633   1.954  10.606
50659W        W22330  12.105  36.975   2.058
50660W        W22331  13.818  35.826   3.144
50661W        W22332  37.842   9.837  11.541
50662W        W22333  42.943  27.562  14.290
50663W        W22334  42.914  15.600   0.551
50664W        W22335  16.633  35.565  10.357
50665W        W22336  18.533  27.044   3.130
50666W        W22337  42.385  24.042   3.178
50667W        W22338   2.645  30.798  13.919
50668W        W22339  19.156  34.080  13.454
50669W        W22340  43.216  23.665  11.197
50670W        W22341  32.404  29.203  13.039
50671W        W22342  30.669  41.811  13.360
50672W        W22343  34.715  29.063  11.619
50673W        W22344  18.864  24.803  12.448
50674W        W22345   3.117  33.511  13.631
50675W        W22346  41.968  11.921  11.652
50676W        W22347  28.121  36.011   0.236
50677W        W22348  44.021   4.439   2.818
50678W        W22349   8.573  32.908  12.404
50679W        W22350  19.605   1.068   4.833
50680W        W22351  37.638  42.366  11.531
50681W        W22352  17.424  11.521   2.702
50682W        W22353  10.123  27.141   3.418
50683W        W22354  42.062  39.345  10.627
50684W        W22355  21.262  10.327   5.009
50685W        W22356   8.823  43.076   1.067
50686W        W22357   5.040   1.472   5.030
50687W        W22358  16.238  42.746   1.720
50688W        W22359  42.877  10.188   1.327
50689W        W22360   7.838  24.605   1.983
50690W        W22361  11.296   0.958   0.358
50691W        W22362   5.191  33.570   1.491
50692W        W22363  25.242  21.119   4.655
50693W        W22364  19.338  35.806  14.277
50694W        W22365  38.567  29.464   0.008
50695W        W22366  25.540  42.322  14.271
50696W        W22367  43.415   6.653   4.601
50697W        W22368  44.922   1.005   2.398
50698W        W22369  29.102  15.816  11.340
50699W        W22370  39.558  16.249   1.868
50700W        W22371  36.370  33.647   0.623
50701W        W22372  44.339  37.313   2.892
50702W        W22373  24.542  43.537  12.017
50703W        W22374   4.297  17.706   1.183
50704W        W22375  21.169  34.070   0.728
50705W        W22376  21.719   5.354   3.963
50706W        W22377  37.379  26.423  11.960
50707W        W22378  11.113  33.564   2.292
50708W        W22379  40.297  38.513  12.521
50709W        W22380   4.375  13.116   3.866
50710W        W22381  24.315  13.795   2.320
50711W        W22382  14.597   7.002   2.288
50712W        W22383   9.053  33.941   1.497
50713W        W22384  38.079   7.194  11.050
50714W        W22385   5.725  40.756   4.096
50715W        W22386  20.791  24.423  10.231
50716W        W22387  13.244  33.583  13.520
50717W        W22388  23.982  30.411   0.912
50718W        W22389  27.503  19.608  14.342
50719W        W22390  25.713  20.180   1.150
50720W        W22391   2.617  44.919   4.058
50721W        W22392  18.121  44.969  14.397
50722W        W22393  19.072  38.820   3.647
50723W        W22394  36.416  36.831   2.322
50724W        W22395  30.248   8.483   2.744
50725W        W22396  33.625  20.274   1.002
50726W        W22397  19.024  41.836   3.725
50727W        W22398   8.768  24.110   0.871
50728W        W22399  19.077  24.591   2.489
50729W        W22400  42.987  28.479  12.476
50730W        W22401  37.298  44.471   1.399
50731W        W22402  25.693  16.224   3.622
50732W        W22403  25.207  29.623  13.574
50733W        W22404  37.299  20.140  11.560
50734W        W22405  17.550  24.597   2.674
50735W        W22406  37.330  21.117   1.046
50736W        W22407  39.392  22.746   1.761
50737W        W22408  15.314  11.096   0.965
50738W        W22409  25.508   8.354   1.250
50739W        W22410   3.692  32.028  10.742
50740W        W22411  25.439  13.074  10.997
50741W        W22412  15.706  18.757   2.891
50742W        W22413   0.861  35.352   4.083
50743W        W22414  22.027  17.776  10.834
50744W        W22415  38.018  15.226   4.048
50745W        W22416  36.382  42.315  10.709
50746W        W22417  39.131  13.684   1.880
50747W        W22418  42.537  13.375   3.477
50748W        W22419  13.532   7.267  11.689
50749W        W22420   0.465  33.949  10.630
50750W        W22421  31.197  42.923  13.940
50751W        W22422  28.106  33.194   4.551
50752W        W22423   6.055  37.116   4.316
50753W        W22424  27.427   6.806   3.645
50754W        W22425  23.687  14.370   3.041
50755W        W22426  13.494  27.507   3.135
50756W        W22427  18.124  16.513   3.043
50757W        W22428  19.731   5.232   2.803
50758W        W22429  19.039   6.817   2.348
50759W        W22430  17.249  30.383  11.202
50760W        W22431   7.967   1.807   2.681
50761W        W22432  41.973   0.638   1.215
50762W        W22433   5.141  33.950  11.764
50763W        W22434  32.688  37.452   0.192
50764W        W22435  42.014  17.726  10.725
50765W        W22436  17.091  33.019  10.561
50766W        W22437  36.262   2.394  13.767
50767W        W22438  38.365  13.359  11.466
50768W        W22439  16.949  19.706   4.950
50769W        W22440  24.179  31.634  11.020
50770W        W22441  22.181  13.837  11.423
50771W        W22442  35.061   3.783  14.913
50772W        W22443  41.078  18.025  11.508
50773W        W22444  26.462  20.583   0.958
50774W        W22445  41.964  41.831  12.534
50775W        W22446  38.834  24.073  11.912
50776W        W22447  10.253  42.801   4.353
50777W        W22448   2.008  15.110  12.495
50778W        W22449   9.332  22.948  14.573
50779W        W22450   1.500   5.855  12.423
50780W        W22451  21.397   5.444  13.966
50781W        W22452  32.070  24.527   3.985
50782W        W22453  12.699  38.163   4.314
50783W        W22454  27.263  20.270   3.396
50784W        W22455   3.585  23.715   4.695
50785W        W22456   6.159  41.015  10.236
50786W        W22457  42.864  35.672  11.205
50787W        W22458   4.854   4.938   3.715
50788W        W22459   3.908  12.156  13.503
50789W        W22460   7.830  15.790  14.320
50790W        W22461  29.402   7.265   9.820
50791W        W22462   7.733  29.146  14.575
50792W        W22463  30.387  16.285   0.722
50793W        W22464   4.945  16.139  13.796
50794W        W22465  21.102  14.798   3.968
50795W        W22466  35.533   3.940   1.299
50796W        W22467   9.166  10.670   4.931
50797W        W22468   0.872   2.344   4.516
50798W        W22469  14.814  38.246   0.795
50799W        W22470   1.019  18.337  11.956
50800W        W22471   1.241  43.352  14.107
50801W        W22472  44.416  26.697  13.341
50802W        W22473  13.936  19.330   0.836
50803W        W22474  42.282  35.490   2.424
50804W        W22475  10.641   0.857   3.412
50805W        W22476  30.126  37.043  13.278
50806W        W22477  18.105  20.481  12.607
50807W        W22478  38.181  39.252   9.867
50808W        W22479  16.376  25.646  10.426
50809W        W22480   1.190  42.484  13.924
50810W        W22481  35.915  18.590   3.609
50811W        W22482  34.485  30.593   0.082
50812W        W22483  10.223   0.325   4.507
50813W        W22484   2.766  11.635   1.361
50814W        W22485  35.163  35.253   1.334
50815W        W22486  14.699   4.668   4.547
50816W        W22487  25.962   7.947  14.910
50817W        W22488  41.711  20.681   1.716
50818W        W22489  41.645  35.581   1.772
50819W        W22490  13.045  43.860   1.868
50820W        W22491  42.350   3.579   4.116
50821W        W22492   5.464  34.324  11.557
50822W        W22493   0.459  30.118   4.919
50823W        W22494   1.224  14.008   1.914
50824W        W22495  22.400  22.790   5.027
50825W        W22496  39.997  36.559  12.042
50826W        W22497  42.488  33.456  14.837
50827W        W22498   7.126  11.790  13.391
50828W        W22499  29.743  34.782   2.609
50829W        W22500   5.832  30.633   0.705
50830W        W22501  15.739  44.457  13.415
50831W        W22502  39.829   6.906  14.029
50832W        W22503  22.608   4.923   4.220
50833W        W22504  11.507  31.853  14.367
50834W        W22505   5.222  32.026   4.135
50835W        W22506  38.543  28.600   0.888
50836W        W22507  36.553  34.334   1.258
50837W        W22508  19.588   7.931  13.436
50838W        W22509  42.843  28.209   0.060
50839W        W22510  25.070  32.051   5.041
50840W        W22511  31.932  23.996  11.973
50841W        W22512  41.941  13.761  12.260
50842W        W22513   2.487  12.071   1.331
50843W        W22514  40.515  29.974   4.262
50844W        W22515  13.178  31.901  10.572
50845W        W22516  13.167  26.426   1.928
50846W        W22517  34.474   2.580  12.675
50847W        W22518  42.994  39.526  11.921
50848W        W22519  33.326  13.819   2.909
50849W        W22520  11.758  21.483  11.894
50850W        W22521   9.105  25.182  14.544
50851W        W22522  22.337  10.700   1.814
50852W        W22523  39.577  20.688  14.135
50853W        W22524   3.941  21.652  10.438
50854W        W22525  20.671  18.190   3.170
50855W        W22526   2.904  30.020  11.934
50856W        W22527   8.363  11.805  10.722
50857W        W22528  39.529  16.452  12.504
50858W        W22529  22.695   7.984  13.817
50859W        W22530  12.447   4.405  12.033
50860W        W22531  19.168  36.551  14.953
50861W        W22532  19.691   0.561  10.666
50862W        W22533  20.787  43.878   0.966
50863W        W22534   4.026   6.754   0.798
50864W        W22535  20.233  24.267  14.381
50865W        W22536   7.238   0.411   3.919
50866W        W22537  24.829  42.607   4.931
50867W        W22538   9.805  12.061   1.770
50868W        W22539   0.699  39.767  11.026
50869W        W22540  39.822  29.721  10.823
50870W        W22541  30.788  38.014   1.052
50871W        W22542  15.389   4.453   4.195
50872W        W22543  30.587  27.799  11.992
50873W        W22544  25.597   6.713   1.469
50874W        W22545   1.811  33.217  11.977
50875W        W22546  30.211   1.406   2.308
50876W        W22547  12.731   5.527   3.324
50877W        W22548   9.546  41.055  13.468
50878W        W22549  30.114   5.684  11.620
50879W        W22550   2.223  43.730  12.897
50880W        W22551  15.713   3.952  13.531
50881W        W22552   0.904  27.485  11.504
50882W        W22553  32.122  36.408  13.374
50883W        W22554  29.542  27.534  13.439
50884W        W22555  14.139   6.229  14.298
50885W        W22556  19.968  44.520   1.859
50886W        W22557  31.284  35.941   1.902
50887W        W22558   4.357  32.016  10.368
50888W        W22559  19.333  22.200   1.257
50889W        W22560  23.193   7.206   4.679
50890W        W22561  35.983  29.317   2.523
50891W        W22562   6.380  37.320   4.669
50892W        W22563  20.566  25.421  11.659
50893W        W22564  42.773  22.065   2.117
50894W        W22565  22.506  10.771  12.013
50895W        W22566   2.378   4.872   0.889
50896W        W22567  17.459   5.896  10.242
50897W        W22568  35.400  39.887   0.331
50898W        W22569  35.084  39.148   4.094
50899W        W22570  14.580  22.717  14.412
50900W        W22571   9.898  10.260   2.947
50901W        W22572  41.684  15.436  13.462
50902W        W22573  41.834  12.499  14.047
50903W        W22574  30.786  22.794  11.757
50904W        W22575  40.483   1.585   5.133
50905W        W22576  25.213   9.195   0.412
50906W        W22577   9.232  20.025   2.407
50907W        W22578  21.039   2.814   3.845
50908W        W22579   9.332  12.224   0.530
50909W        W22580  31.385  12.127   4.802
50910W        W22581  19.499   2.241   2.331
50911W        W22582  43.554  10.175   3.584
50912W        W22583   3.875  21.674   1.182
50913W        W22584  18.746  21.676   0.290
50914W        W22585  13.399  14.881  14.028
50915W        W22586  24.222  35.460   4.548
50916W        W22587  38.972   0.047   0.211
50917W        W22588  15.148  18.201  13.556
50918W        W22589   6.138  23.309  13.802
50919W        W22590  36.811  33.453   2.331
50920W        W22591   7.077   9.316   3.736
50921W        W22592   4.766  19.747   2.383
50922W        W22593  38.918  22.770   4.128
50923W        W22594   8.242   8.119   3.272
50924W        W22595  35.048   8.657  12.449
50925W        W22596  15.218  19.122  13.499
50926W        W22597   1.385   7.319   2.875
50927W        W22598   2.239   6.217  13.642
50928W        W22599  13.280  32.053  14.887
50929W        W22600  34.945  19.600   3.663
50930W        W22601   2.551  27.867  12.876
50931W        W22602  16.408  37.199   1.353
50932W        W22603  21.918  13.840   0.743
50933W        W22604   8.168  11.821  11.532
50934W        W22605   4.148  43.514   4.597
50935W        W22606  27.618  42.433   2.308
50936W        W22607  22.053  28.171  11.064
50937W        W22608   9.147   9.038  12.455
50938W        W22609  30.723  19.437  11.539
50939W        W22610   5.657  20.259   2.263
50940W        W22611  35.408  13.622   1.822
50941W        W22612  38.983  34.862   0.433
50942W        W22613  42.779  42.917   3.327
50943W        W22614  25.073  25.960   0.527
50944W        W22615  44.309  40.815   2.208
50945W        W22616  20.708  33.011   4.880
50946W        W22617  16.216   7.729  11.036
50947W        W22618  25.108  36.942  13.306
50948W        W22619   2.881  28.119   5.398
50949W        W22620   4.096   2.968   3.738
50950W        W22621  34.137   2.372  11.523
50951W        W22622   0.854  18.987   4.924
50952W        W22623  42.296   8.941  14.809
50953W        W22624  34.956  42.711   2.958
50954W        W22625  31.409  33.876   4.239
50955W        W22626  21.181  39.881   1.435
50956W        W22627  22.237  13.694  14.239
50957W        W22628  20.775  13.872   5.176
50958W        W22629   1.688   4.901  14.246
50959W        W22630   8.176  15.948   3.773
50960W        W22631  31.465  26.894   3.371
50961W        W22632   4.691   1.736   4.339
50962W        W22633  35.607  23.228   1.390
50963W        W22634  40.521  39.350   1.852
50964W        W22635   4.691   9.519  14.268
50965W        W22636  24.435  38.058   4.388
50966W        W22637   1.255  13.704   0.759
50967W        W22638  37.829  31.946   0.358
50968W        W22639   9.125  39.886   2.825
50969W        W22640  30.673   3.127  13.463
50970W        W22641  40.834  22.532  12.438
50971W        W22642  32.781  35.387   0.561
50972W        W22643  42.387  44.365   1.832
50973W        W22644  22.111   6.768  14.480
50974W        W22645  14.614  40.817  13.369
50975W        W22646   2.388  44.352  14.420
50976W        W22647  27.015  27.535   0.211
50977W        W22648   8.827  38.729  10.675
50978W        W22649  18.337  41.266   2.453
50979W        W22650  15.508  24.589  13.098
50980W        W22651  18.245   1.381   4.512
50981W        W22652  24.717  38.861   1.716
50982W        W22653  20.172  44.578   2.354
50983W        W22654   2.360   3.882   2.950
50984W        W22655  18.007  31.822   1.317
50985W        W22656   2.680  28.566  12.508
50986W        W22657  15.646   8.201   0.250
50987W        W22658  19.772  26.721  10.157
50988W        W22659   9.309  14.695   4.408
50989W        W22660  13.742  42.779   1.109
50990W        W22661  34.156  20.988   2.739
50991W        W22662  32.970  20.283   4.435
50992W        W22663  19.511  19.780  14.374
50993W        W22664   2.682   4.112  13.070
50994W        W22665   7.706  40.985   0.892
50995W        W22666  36.450  23.984  11.947
50996W        W22667  32.865   1.266  11.670
50997W        W22668  15.617  12.316  14.845
50998W        W22669  26.808  20.416   3.615
50999W        W22670   7.263  29.114  14.301
51000W        W22671   6.446  16.825   1.294
51001W        W22672  33.869  28.657   0.211
51002W        W22673   4.216  38.592  14.972
51003W        W22674  42.874  20.541  12.526
51004W        W22675  23.669  38.522   4.609
51005W        W22676  38.118  42.365   1.790
51006W        W22677  43.950  16.753   0.979
51007W        W22678  44.943  12.649   5.482
51008W        W22679  33.090  43.297  14.988
51009W        W22680  23.761  21.007   3.342
51010W        W22681  39.937   8.872  11.117
51011W        W22682  30.411  20.860   5.069
51012W        W22683  28.931  18.697   1.401
51013W        W22684  23.245   5.437   3.684
51014W        W22685   2.687  14.085   0.463
51015W        W22686  16.897   1.334   4.656
51016W        W22687   7.963   2.235  13.390
51017W        W22688   0.952  44.782   0.964
51018W        W22689  29.214  44.879  12.809
51019W        W22690   1.024   7.194  14.017
51020W        W22691  21.253  29.527  12.588
51021W        W22692  38.112  36.404   3.937
51022W        W22693  18.621  35.099   3.744
51023W        W22694  39.354  12.370  12.976
51024W        W22695  44.788  40.064   3.819
51025W        W22696  31.929  28.129  14.226
51026W        W22697  10.277  15.765  10.233
51027W        W22698  24.066  27.664  10.909
51028W        W22699   9.796  14.309  10.678
51029W        W22700  40.843  21.156   2.316
51030W        W22701  17.421   5.521   4.761
51031W        W22702   0.732  43.755   0.392
51032W        W22703  36.995   1.575  14.408
51033W        W22704  12.123  39.831   2.283
51034W        W22705  34.449  13.622   0.298
51035W        W22706   4.380  44.442  10.372
51036W        W22707  42.732  43.493  11.609
51037W        W22708   2.484   4.255   4.555
51038W        W22709   9.000  23.506  12.019
51039W        W22710   7.911  43.345   3.332
51040W        W22711   2.931  38.378   3.594
51041W        W22712   2.255  16.043   2.147
51042W        W22713  26.944  11.151   3.330
51043W        W22714   9.605  37.641   4.936
51044W        W22715   2.886  17.089   3.782
51045W        W22716  36.846  29.002   3.034
51046W        W22717   9.707  25.013  10.930
51047W        W22718  30.397  43.349  12.643
51048W        W22719  27.504   7.464  14.692
51049W        W22720  25.600  14.210  12.259
51050W        W22721  15.516   8.308   3.638
51051W        W22722  20.570  33.870   2.587
51052W        W22723  35.076  12.890   4.601
51053W        W22724  44.371  40.019   4.129
51054W        W22725  42.584  41.827   2.734
51055W        W22726  19.223  12.260  14.895
51056W        W22727  24.275  15.418  11.522
51057W        W22728  12.168  43.538  12.612
51058W        W22729  42.441  29.112   1.501
51059W        W22730  42.449  19.766   3.791
51060W        W22731  22.995   7.827   2.519
51061W        W22732   8.950  18.578  11.473
51062W        W22733  40.235  25.870   2.770
51063W        W22734  20.369  12.163  12.223
51064W        W22735   0.370  18.315   2.403
51065W        W22736  31.739   0.221   2.839
51066W        W22737  10.901  41.808  14.760
51067W        W22738  36.040  44.347   3.479
51068W        W22739  32.416  27.780   4.283
51069W        W22740   9.843   6.406  12.923
51070W        W22741   6.274  11.613  11.525
51071W        W22742  44.455  16.295   9.939
51072W        W22743  25.571  36.646   4.245
51073W        W22744  35.784  14.925  11.141
51074W        W22745  29.408  11.830  13.377
51075W        W22746  15.711  13.898  14.831
51076W        W22747  41.697  43.622  12.376
51077W        W22748  41.232   2.257   4.453
51078W        W22749   3.340  34.186   0.214
51079W        W22750   0.463   2.044   3.241
51080W        W22751  43.041  11.142   4.486
51081W        W22752  24.955   4.405   0.243
51082W        W22753   6.247  36.629   3.338
51083W        W22754  35.614  22.986  10.664
51084W        W22755  39.478  20.617   3.874
51085W        W22756  41.340   0.089   2.616
51086W        W22757  28.032  41.522   0.991
51087W        W22758  29.549  11.644   4.345
51088W        W22759   7.871  36.067   3.836
51089W        W22760  26.405  26.763  13.341
51090W        W22761  35.932  26.084   2.696
51091W        W22762  36.445  12.913  10.838
51092W        W22763  41.891  21.987  13.409
51093W        W22764   5.808  37.016  12.861
51094W        W22765   1.426  12.155   0.366
51095W        W22766  40.340   2.853   3.447
51096W        W22767  25.650  21.051   1.757
51097W        W22768  41.064  36.891  14.023
51098W        W22769  17.106  19.620  12.546
51099W        W22770  27.003  35.231  12.843
51100W        W22771  43.628   3.339   1.479
51101W        W22772   6.308  32.617   0.271
51102W        W22773  32.145  38.411  14.338
51103W        W22774  18.365   2.759   0.758
51104W        W22775  28.001  33.848  13.534
51105W        W22776  39.399  38.426   3.702
51106W        W22777  42.517  25.872   1.819
51107W        W22778  23.754  33.662  10.510
51108W        W22779  24.527  38.834   5.029
51109W        W22780  17.671  13.264   1.842
51110W        W22781  30.658   5.176  11.072
51111W        W22782  38.948  18.035  11.533
51112W        W22783  11.226   8.640   4.774
51113W        W22784   0.522   7.727   0.807
51114W        W22785   2.647  10.108  12.046
51115W        W22786  25.146  33.498   3.513
51116W        W22787  28.203   6.174   0.393
51117W        W22788  12.378   1.784   1.890
51118W        W22789   2.224  35.423   4.650
51119W        W22790  25.966   5.750  14.231
51120W        W22791  42.851   8.838  13.020
51121W        W22792  28.312  37.061  12.071
51122W        W22793   3.496  40.886   3.271
51123W        W22794  33.376  44.740  10.745
51124W        W22795  34.043  30.316   1.046
51125W        W22796  42.848  42.250  11.408
51126W        W22797  38.946  14.361   0.407
51127W        W22798  43.215  40.817   0.390
51128W        W22799  32.929  15.090  11.431
51129W        W22800  24.048  24.494   4.135
51130W        W22801  23.094  22.611  14.417
51131W        W22802  24.186  11.672  12.831
51132W        W22803  36.329   0.324  10.788
51133W        W22804  40.913  40.810   0.915
51134W        W22805  25.706   1.003   0.831
51135W        W22806   2.648  21.278  11.977
51136W        W22807  10.683  25.432  13.348
51137W        W22808  17.599  22.766  12.134
51138W        W22809  26.683  32.638   2.432
51139W        W22810   7.427  28.936   4.143
51140W        W22811  41.802  10.048   2.130
51141W        W22812  16.306  19.584   2.706
51142W        W22813   4.149  21.611   9.652
51143W        W22814  12.636  38.506  13.122
51144W        W22815  40.168  24.588   4.739
51145W        W22816  44.351   4.783   5.051
51146W        W22817   3.389  24.716  12.525
51147W        W22818   9.744  14.100  14.471
51148W        W22819  21.306  15.738  13.240
51149W        W22820  39.480  32.488   1.271
51150W        W22821  10.813   6.413   4.668
51151W        W22822  12.095   9.173   3.241
51152W        W22823  26.498  33.828  12.208
51153W        W22824  18.369  30.410  12.159
51154W        W22825  38.606  16.069   2.317
51155W        W22826  21.091  35.462  11.545
51156W        W22827  17.735  32.496   4.785
51157W        W22828   0.820   3.944  10.519
51158W        W22829  15.191  25.579   3.249
51159W        W22830   0.278  13.670  14.265
51160W        W22831  37.353  19.859  12.102
51161W        W22832  44.333  24.286   5.051
51162W        W22833  26.998   8.944   0.522
51163W        W22834  28.406   8.104  13.753
51164W        W22835  28.027  28.428  12.408
51165W        W22836   1.498  24.672  12.046
51166W        W22837  31.455  24.757  10.362
51167W        W22838  13.384   4.427  14.094
51168W        W22839  39.534  22.367   2.088
51169W        W22840  44.962   8.645  11.151
51170W        W22841  40.918   9.710  13.525
51171W        W22842   7.863  32.967  14.891
51172W        W22843  34.537  36.326  12.625
51173W        W22844  20.111  28.879   1.450
51174W        W22845  36.597  41.955  12.211
51175W        W22846  41.904   5.177  14.240
51176W        W22847  42.575  41.399   4.380
51177W        W22848  37.073  25.618   3.306
51178W        W22849  20.759  42.679   2.247
51179W        W22850  23.120  43.832   2.186
51180W        W22851   3.808  37.635   0.843
51181W        W22852  25.239  10.864   4.226
51182W        W22853  42.413  36.471   2.226
51183W        W22854   4.249   4.804  11.292
51184W        W22855  44.389  14.513   2.691
51185W        W22856  19.178  12.881   2.206
51186W        W22857  21.090  44.089   4.437
51187W        W22858  13.124  32.471   1.386
51188W        W22859  28.176  19.105  13.879
51189W        W22860  27.709  21.252  12.021
51190W        W22861  33.071   8.166  11.607
51191W        W22862  31.032  29.975   1.486
51192W        W22863  31.480  30.345  13.342
51193W        W22864   7.591  30.016   3.072
51194W        W22865  17.286  35.656  13.364
51195W        W22866  31.239   6.392  10.539
51196W        W22867  37.071  35.074  14.241
51197W        W22868  26.701   7.270  11.983
51198W        W22869  21.800  15.382   3.177
51199W        W22870  27.947  18.149   3.059
51200W        W22871  43.691  17.383  12.884
51201W        W22872  19.116  43.822   0.821
51202W        W22873  15.702  18.813   1.992
51203W        W22874  13.162  11.578   3.755
51204W        W22875  33.074  40.636   4.232
51205W        W22876  10.037   0.308   0.930
51206W        W22877  10.688  21.174   1.419
51207W        W22878  33.276  28.387   2.243
51208W        W22879  23.584  13.807  14.758
51209W        W22880  24.085  38.969   0.662
51210W        W22881  12.314  32.243  14.515
51211W        W22882   2.768   5.750   4.580
51212W        W22883  16.537  12.214   3.896
51213W        W22884  29.694  12.197  10.980
51214W        W22885  22.548  35.481   3.240
51215W        W22886   2.546  19.294   3.474
51216W        W22887  43.443   1.252  13.454
51217W        W22888  29.135  13.027  12.611
51218W        W22889  19.107  16.844  14.834
51219W        W22890  18.006  21.250   0.475
51220W        W22891  20.801  33.429  13.222
51221W        W22892   8.778  22.430  13.975
51222W        W22893  22.927  44.506   1.784
51223W        W22894  34.433  30.863  13.246
51224W        W22895  21.419  18.678   3.330
51225W        W22896  10.803   0.471   2.674
51226W        W22897   7.337  26.147   4.283
51227W        W22898  44.768   5.846   2.865
51228W        W22899   6.134  27.268  13.309
51229W        W22900  30.051  30.376  13.526
51230W        W22901   7.199  19.929   1.399
51231W        W22902  33.407  40.992  14.272
51232W        W22903  18.351  23.904   4.099
51233W        W22904  43.281  12.127  11.721
51234W        W22905  12.676  32.777   1.340
51235W        W22906  11.890  43.250  12.995
51236W        W22907  12.508  38.201  11.893
51237W        W22908  40.455  44.195  13.064
51238W        W22909  33.864  43.512  12.879
51239W        W22910  33.823  35.672  12.071
51240W        W22911   6.687  12.817   2.375
51241W        W22912  18.931   8.835   4.007
51242W        W22913  42.366  40.893   3.078
51243W        W22914  36.891  16.728   0.825
51244W        W22915  31.687  19.888  10.671
51245W        W22916  33.385  43.435  11.713
51246W        W22917  23.007  33.353  13.372
51247W        W22918   5.707  36.917  10.478
51248W        W22919  43.207  39.769   3.180
51249W        W22920  39.322  37.122   2.246
51250W        W22921  35.929  20.837   0.934
51251W        W22922  17.631  25.064   3.870
51252W        W22923   1.420  25.126   0.770
51253W        W22924  23.234   5.803   4.662
51254W        W22925   2.278  16.661  10.316
51255W        W22926  34.484  35.914  14.424
51256W        W22927  35.876  31.136  10.902
51257W        W22928  41.016  32.850  13.329
51258W        W22929  30.527  18.357  14.940
51259W        W22930  39.744  27.675  11.931
51260W        W22931  21.089   0.767   2.774
51261W        W22932  42.875  11.848  12.391
51262W        W22933  42.068  21.214  10.653
51263W        W22934  11.391  24.792   3.260
51264W        W22935  11.354  37.019   2.205
51265W        W22936  27.675  42.951   4.220
51266W        W22937  28.400  24.938   4.658
51267W        W22938   1.501  30.514   3.377
51268W        W22939  22.666   1.826   0.761
51269W        W22940   6.941  13.557  14.308
51270W        W22941  29.872  18.393  10.483
51271W        W22942   2.469   0.950   1.471
51272W        W22943  17.712  38.099  11.603
51273W        W22944  33.080  20.506   3.983
51274W        W22945  43.958  21.217   1.721
51275W        W22946  30.430  29.334  14.544
51276W        W22947  15.095  44.818   0.409
51277W        W22948  21.584  38.980   0.833
51278W        W22949  24.239   6.843  11.060
51279W        W22950   7.208  23.244   3.631
51280W        W22951  33.952  32.090  14.521
51281W        W22952  17.623  25.228  13.035
51282W        W22953  14.333   2.447   2.317
51283W        W22954  23.033  15.701  11.137
51284W        W22955  43.582  33.675   1.294
51285W        W22956   5.505  32.503   3.262
51286W        W22957  37.104  29.494  13.045
51287W        W22958  33.109  11.351  13.855
51288W        W22959  36.702   3.909   3.780
51289W        W22960  24.410  43.698  14.767
51290W        W22961   3.916  40.774   4.396
51291W        W22962  27.143  24.609   4.439
51292W        W22963  26.080   6.739   1.677
51293W        W22964   1.859  31.834  13.370
51294W        W22965   1.680  41.862   2.458
51295W        W22966  29.475   0.268  11.206
51296W        W22967  33.602  22.663   4.957
51297W        W22968   6.756  12.693  14.375
51298W        W22969  42.953  39.483   0.494
51299W        W22970  39.537  27.842  11.489
51300W        W22971   3.979   7.678  11.095
51301W        W22972  44.398  30.484   4.758
51302W        W22973  12.105  34.371  14.450
51303W        W22974  32.303   7.804   2.216
51304W        W22975  11.293  44.581  12.031
51305W        W22976  30.153  19.055   2.887
51306W        W22977  14.305  25.935  11.499
51307W        W22978  37.415  10.664  12.962
51308W        W22979  20.203  30.134   0.808
51309W        W22980  25.475   6.805  11.651
51310W        W22981  35.138  20.252  14.491
51311W        W22982  42.823  37.363   1.413
51312W        W22983   1.452  17.824  14.731
51313W        W22984  44.275  20.810   9.568
51314W        W22985  42.868  12.323  10.658
51315W        W22986   7.682   7.363  14.532
51316W        W22987  20.986  25.976  12.344
51317W        W22988   5.510  41.516   1.980
51318W        W22989   0.755  33.458   2.182
51319W        W22990  35.669  27.033   2.717
51320W        W22991  13.535  38.151  13.843
51321W        W22992   6.329  27.024  12.892
51322W        W22993  11.868  39.274  14.315
51323W        W22994  25.977   2.815  12.823
51324W        W22995  29.829  23.010   2.647
51325W        W22996   4.121  40.345  14.882
51326W        W22997  17.868  25.657  11.038
51327W        W22998  29.937  44.235  10.488
51328W        W22999  26.692  34.657  14.259
51329W        W23000  42.213  14.297  14.482
51330W        W23001  40.021   7.792   2.110
51331W        W23002   3.446   9.626   0.932
51332W        W23003  36.446   3.983  11.652
51333W        W23004  44.035   9.160   4.684
51334W        W23005  39.576  34.163   1.637
51335W        W23006  37.857  24.548  12.557
51336W        W23007  21.968  13.299  13.946
51337W        W23008  39.929   6.253   1.892
51338W        W23009  35.188   9.362  12.043
51339W        W23010   9.279  33.311  10.786
51340W        W23011   9.811  17.326   1.104
51341W        W23012  30.989  42.489   2.432
51342W        W23013  16.745  24.928  11.449
51343W        W23014   4.757  40.806  14.709
51344W        W23015  28.456   9.767  14.301
51345W        W23016  39.907  39.602  13.698
51346W        W23017  11.243  13.495   2.784
51347W        W23018  20.914  28.544   4.991
51348W        W23019  43.989  13.162  11.438
51349W        W23020  13.235  19.997   0.666
51350W        W23021  21.115  44.109  14.064
51351W        W23022  33.366  19.812  14.912
51352W        W23023   8.087   2.318  10.823
51353W        W23024  39.767   3.377   1.289
51354W        W23025  24.470  17.076   4.498
51355W        W23026   7.866  13.671  14.031
51356W        W23027  35.489   5.516   4.329
51357W        W23028  27.226  31.555   3.849
51358W        W23029   6.077  39.999  12.234
51359W        W23030  21.970  36.862   3.323
51360W        W23031  14.298  12.849  11.917
51361W        W23032   8.451  44.063  12.547
51362W        W23033  27.984   8.850  11.040
51363W        W23034  44.463  24.993   3.207
51364W        W23035   1.300  10.909  12.055
51365W        W23036  25.987  39.298  14.380
51366W        W23037  38.733  12.781   4.857
51367W        W23038  35.053   6.247  11.492
51368W        W23039  39.801  42.431  12.461
51369W        W23040  40.448  15.008  14.989
51370W        W23041   7.541  40.095  12.587
51371W        W23042  10.892   7.932   1.891
51372W        W23043   8.323  41.016  10.792
51373W        W23044   1.790   6.448  13.806
51374W        W23045  16.856  36.268  11.880
51375W        W23046  37.043  34.440  14.968
51376W        W23047  43.326  10.266  11.196
51377W        W23048   4.786  15.754   1.755
51378W        W23049  17.142  16.269  14.025
51379W        W23050  20.583  20.194  11.318
51380W        W23051  28.949  26.442   3.439
51381W        W23052   8.229  30.764  12.542
51382W        W23053  37.052  29.230  14.338
51383W        W23054  13.164  15.068   4.095
51384W        W23055  15.836   2.583   0.753
51385W        W23056   0.043   5.400  12.883
51386W        W23057  39.142  17.647   2.441
51387W        W23058  43.388  34.874   0.318
51388W        W23059  35.159  17.783  10.811
51389W        W23060   0.851  15.274   4.274
51390W        W23061  33.661  11.856   2.176
51391W        W23062  10.225  22.502   4.211
51392W        W23063   3.452  26.677  12.041
51393W        W23064  37.405  25.420   1.309
51394W        W23065   9.278  42.752   3.286
51395W        W23066  18.060  19.257  14.775
51396W        W23067   2.840  13.985  13.960
51397W        W23068  19.304  12.317  10.852
51398W        W23069  42.905  17.992   4.442
51399W        W23070  27.213  18.654   3.248
51400W        W23071  25.765  30.418   4.168
51401W        W23072  40.437  32.009   4.587
51402W        W23073  14.739  25.812   3.135
51403W        W23074  14.733  20.755   4.859
51404W        W23075  29.570   4.450  11.764
51405W        W23076  18.581  18.726  11.935
51406W        W23077  22.565  28.939  14.920
51407W        W23078  20.514  10.108  14.038
51408W        W23079   7.622  34.607   2.297
51409W        W23080  37.984  37.118   1.793
51410W        W23081  19.251   1.521   3.724
51411W        W23082  17.775  14.780   4.626
51412W        W23083  38.820   3.068  11.976
51413W        W23084  10.335  37.953   2.248
51414W        W23085  11.287  43.791   4.922
51415W        W23086  40.207  22.725   1.192
51416W        W23087  31.394  17.602   0.837
51417W        W23088  32.387   8.986  11.853
51418W        W23089  44.627   7.977   2.296
51419W        W23090  15.551   2.242  11.093
51420W        W23091   3.557   3.669  14.385
51421W        W23092  18.823  43.915   0.402
51422W        W23093   0.503  21.792   0.613
51423W        W23094  22.083  44.951  13.574
51424W        W23095  38.391  17.894   2.850
51425W        W23096  41.966  24.795   1.263
51426W        W23097  17.347  19.163   0.247
51427W        W23098  23.016  24.125   3.890
51428W        W23099  27.851   1.180  14.353
51429W        W23100  16.121  18.781  11.256
51430W        W23101  41.545   1.665  14.967
51431W        W23102  28.420  24.316   4.095
51432W        W23103  26.623   1.132  10.753
51433W        W23104  44.533  39.973  11.543
51434W        W23105  29.021  24.193   1.175
51435W        W23106  25.538   7.400  13.436
51436W        W23107  16.613   9.313   4.780
51437W        W23108   2.597  27.205  13.473
51438W        W23109  27.715   7.276   2.857
51439W        W23110  26.723  14.425  14.900
51440W        W23111   7.730  13.088  12.741
51441W        W23112  29.605  14.181  14.335
51442W        W23113  13.699   8.205  13.339
51443W        W23114  10.738  40.799   0.333
51444W        W23115  16.999  25.571  13.994
51445W        W23116  34.898  16.053  14.011
51446W        W23117  28.156  22.201   0.823
51447W        W23118  27.165  10.700   2.127
51448W        W23119   1.774  16.142   2.300
51449W        W23120  23.170  40.713  11.605
51450W        W23121   3.771  27.206  14.994
51451W        W23122  28.091  27.459   1.774
51452W        W23123  16.388   1.236   4.613
51453W        W23124  26.000  37.549   0.787
51454W        W23125  36.029   5.246  12.444
51455W        W23126  11.249   5.872  14.468
51456W        W23127  31.069  11.490  12.983
51457W        W23128  43.574   8.289   2.329
51458W        W23129  15.659   8.145   2.214
51459W        W23130  28.356   7.635  13.970
51460W        W23131   8.370  28.638  13.353
51461W        W23132  33.561  13.694  12.703
51462W        W23133  25.446  40.935   3.515
51463W        W23134  25.983  29.072  11.582
51464W        W23135  18.580  40.402   1.466
51465W        W23136   2.626   0.249   4.527
51466W        W23137  43.239  21.427   2.275
51467W        W23138  24.108  12.836   2.084
51468W        W23139  28.016  11.689   3.627
51469W        W23140   4.111  26.118   4.434
51470W        W23141  41.441   1.554  12.426
51471W        W23142  44.889  24.022   1.740
51472W        W23143   0.768  21.008   1.866
51473W        W23144  18.651  19.623  13.943
51474W        W23145  17.640  32.143   3.432
51475W        W23146  36.487  37.533   3.748
51476W        W23147  16.020  10.626  13.806
51477W        W23148   1.221   7.930  14.310
51478W        W23149  41.362  20.591  13.065
51479W        W23150   7.704  14.724   1.715
51480W        W23151   4.659  42.868   4.176
51481W        W23152   7.257  36.067   1.891
51482W        W23153  17.875  10.472   0.785
51483W        W23154   8.660  29.632   3.120
51484W        W23155  25.026  43.599   0.429
51485W        W23156  10.151  38.329   2.577
51486W        W23157  23.995  13.007  14.873
51487W        W23158  41.839  15.638  14.800
51488W        W23159   4.417   2.748  12.105
51489W        W23160  41.942  42.770  14.546
51490W        W23161  11.846  13.160  11.518
51491W        W23162  42.032  11.896   3.608
51492W        W23163  29.435   8.686   1.669
51493W        W23164   5.459  20.951   0.329
51494W        W23165  42.221   8.950   1.632
51495W        W23166  19.231  15.042  14.513
51496W        W23167   9.203   3.198   3.797
51497W        W23168  18.090  43.308  14.045
51498W        W23169  41.520  22.221  11.151
51499W        W23170  38.385  22.586  11.137
51500W        W23171  34.452   2.326  13.897
51501W        W23172  20.064   1.639  11.421
51502W        W23173  25.595  20.344   3.760
51503W        W23174  19.952   4.307   4.344
51504W        W23175  40.681  30.497  10.786
51505W        W23176  18.141  23.042   4.697
51506W        W23177   7.878   2.160  11.258
51507W        W23178  29.501  16.286   1.836
51508W        W23179  22.035   6.470  12.498
51509W        W23180  17.308  19.557   3.787
51510W        W23181   5.284  28.145   3.107
51511W        W23182  23.187  42.990  12.809
51512W        W23183  17.229  18.543  14.387
51513W        W23184  18.988  36.536   0.890
51514W        W23185  18.165   5.393   2.022
51515W        W23186   5.970  38.037   4.310
51516W        W23187  13.266  13.580  14.306
51517W        W23188  32.917  16.938  13.833
51518W        W23189   1.229  30.507  12.133
51519W        W23190  37.873  30.198  10.697
51520W        W23191  20.055  27.445   0.352
51521W        W23192   8.912  12.562   2.075
51522W        W23193  10.306  34.056  13.557
51523W        W23194  19.876   5.603  14.451
51524W        W23195  41.079  25.932  13.920
51525W        W23196  14.628  27.699   4.899
51526W        W23197  30.437   6.992  12.495
51527W        W23198  27.568  30.195  12.906
51528W        W23199  13.751   9.112   3.096
51529W        W23200  23.122  24.500  11.034
51530W        W23201  17.117  17.676  10.860
51531W        W23202  29.675  26.977   2.330
51532W        W23203   5.429  12.054   4.076
51533W        W23204   6.137  41.356  14.486
51534W        W23205  31.661  28.680  11.186
51535W        W23206  22.955  25.697   2.529
51536W        W23207   4.654  44.394  12.097
51537W        W23208  21.919  12.069   4.160
51538W        W23209  25.630  35.672  13.825
51539W        W23210   9.422  14.077  12.495
51540W        W23211  33.223  13.105  13.223
51541W        W23212  15.902   8.096   3.366
51542W        W23213  32.039  43.091  12.974
51543W        W23214  38.081   0.652   1.346
51544W        W23215  15.628  20.606  12.915
51545W        W23216  28.178  22.159  11.882
51546W        W23217   7.903  22.195   0.029
51547W        W23218   2.193  16.557  14.950
51548W        W23219   1.542  30.132  11.960
51549W        W23220  18.405  19.003  12.618
51550W        W23221  39.947  28.028   0.048
51551W        W23222  14.685   4.146   4.554
51552W        W23223  32.060  44.384   0.733
51553W        W23224   5.717  35.039   4.189
51554W        W23225  19.537  37.354   4.350
51555W        W23226  34.795   2.156  13.575
51556W        W23227  13.275  27.811   1.280
51557W        W23228  25.118   9.629  13.818
51558W        W23229  12.618   4.179  12.553
51559W        W23230  33.324   7.896   2.227
51560W        W23231  25.067   5.185  14.444
51561W        W23232   0.207  20.700  14.524
51562W        W23233  16.280  11.760  14.517
51563W        W23234  32.057  20.129  12.037
51564W        W23235  14.631   9.233  11.126
51565W        W23236  25.417  36.476  12.740
51566W        W23237  16.628  28.650   4.257
51567W        W23238   3.816  41.420   3.108
51568W        W23239  13.110  16.666  14.288
51569W        W23240  38.234  43.930   4.385
51570W        W23241  38.064  41.992  10.582
51571W        W23242   3.237   4.834  11.103
51572W        W23243  38.561  22.642  12.744
51573W        W23244  15.130  30.237  13.150
51574W        W23245  41.326  41.339   3.419
51575W        W23246  43.611  22.691   4.693
51576W        W23247  19.294   9.556  12.011
51577W        W23248   1.914  25.515  14.004
51578W        W23249   6.764  28.527   2.029
51579W        W23250  31.681  28.945   3.017
51580W        W23251  32.146  23.301   1.893
51581W        W23252  17.526  30.330  10.367
51582W        W23253  27.463  19.585   3.908
51583W        W23254  36.118  43.335   0.338
51584W        W23255  19.180  30.994   3.349
51585W        W23256  10.803   6.168   2.185
51586W        W23257   0.515   7.711   1.734
51587W        W23258  30.568  31.971  13.873
51588W        W23259  23.201  21.892   4.307
51589W        W23260   0.255  41.347  11.184
51590W        W23261  35.672  38.848   1.799
51591W        W23262  11.093  27.999  11.079
51592W        W23263  39.495  34.648  13.012
51593W        W23264  11.288   5.229  11.333
51594W        W23265  34.024   4.427   1.332
51595W        W23266  28.933  11.149   0.968
51596W        W23267   9.718  43.761   2.293
51597W        W23268  28.743   9.866   4.200
51598W        W23269  26.612  36.306   1.866
51599W        W23270  26.148  22.489  11.623
51600W        W23271  35.491   2.369   4.302
51601W        W23272  32.388  20.531   1.219
51602W        W23273  33.877  11.275  10.693
51603W        W23274  43.761   1.692  11.574
51604W        W23275  44.783   2.269  13.426
51605W        W23276  21.315  12.792   4.943
51606W        W23277  30.065  33.540   4.023
51607W        W23278  30.723   5.230   3.267
51608W        W23279   7.668  21.016  14.355
51609W        W23280   7.378   6.209  10.714
51610W        W23281   7.766   9.317  11.192
51611W        W23282  44.042  38.349  10.719
51612W        W23283   1.981  36.993  14.488
51613W        W23284   1.345  11.037  13.436
51614W        W23285  14.868   9.550   0.006
51615W        W23286  22.737  31.607   1.161
51616W        W23287  36.095  37.410   1.245
51617W        W23288  31.094  26.837   0.846
51618W        W23289  16.516  38.561  11.625
51619W        W23290  36.360  33.100   2.813
51620W        W23291  32.633   9.269  12.905
51621W        W23292   3.218  34.393   1.199
51622W        W23293  42.013   0.849  13.913
51623W        W23294  16.591  31.217  14.534
51624W        W23295  26.078  28.035  13.004
51625W        W23296  15.767  30.510   4.407
51626W        W23297  27.578  23.553   1.943
51627W        W23298  43.923  19.250  12.342
51628W        W23299  44.889  11.965   2.225
51629W        W23300  35.409   2.545  10.805
51630W        W23301  13.048  36.517   1.213
51631W        W23302  26.638  37.859   1.712
51632W        W23303  42.360   7.079   1.998
51633W        W23304   2.153  19.366   5.125
51634W        W23305  42.512  38.597  14.233
51635W        W23306   1.470  12.468  12.081
51636W        W23307  11.955  31.782  11.113
51637W        W23308  15.175  33.634   2.508
51638W        W23309  13.933  16.110  10.776
51639W        W23310  17.257  41.992   4.502
51640W        W23311   3.396  36.107  12.856
51641W        W23312  39.901  35.423   2.727
51642W        W23313   8.780  24.681   1.582
51643W        W23314  34.097  41.975   3.369
51644W        W23315   2.407  29.705  11.132
51645W        W23316  36.821  39.043  14.686
51646W        W23317  10.336  34.623  10.209
51647W        W23318  13.930  44.972   2.404
51648W        W23319  36.193   3.106  12.995
51649W        W23320  34.216   4.852   1.623
51650W        W23321  30.512  30.472   4.604
51651W        W23322   3.817   7.550   5.067
51652W        W23323   1.766  28.641   1.333
51653W        W23324  10.412  38.336   4.037
51654W        W23325  17.291   5.555  14.532
51655W        W23326  11.621  36.585   4.702
51656W        W23327  44.924   6.204   4.768
51657W        W23328  37.468   2.709   4.410
51658W        W23329  34.938  44.592  10.208
51659W        W23330  30.689  38.533  12.915
51660W        W23331  27.218   4.502  12.957
51661W        W23332  30.655  23.631  12.804
51662W        W23333  26.714  19.321   1.370
51663W        W23334  24.230  38.346   0.863
51664W        W23335   6.334   0.422  12.080
51665W        W23336  23.292  20.358  14.821
51666W        W23337  29.886  10.900   2.711
51667W        W23338  40.949  29.974   2.883
51668W        W23339   0.349   1.365   0.290
51669W        W23340  25.654  38.766  12.433
51670W        W23341  31.519  39.452  10.687
51671W        W23342  14.183  34.818   0.720
51672W        W23343  38.338   1.443   0.459
51673W        W23344  22.535  25.194   3.727
51674W        W23345  28.217   1.323  11.477
51675W        W23346  18.526  24.574  14.806
51676W        W23347  31.425  30.830   3.571
51677W        W23348   9.628   8.630  14.415
51678W        W23349  35.210  20.807   4.121
51679W        W23350  38.533  12.772   2.227
51680W        W23351  35.757   8.705   1.878
51681W        W23352  31.472  18.798  12.476
51682W        W23353  18.989  35.556   2.371
51683W        W23354  35.068  12.650   2.280
51684W        W23355   5.791  33.363  13.904
51685W        W23356  33.948   0.194  11.969
51686W        W23357  39.868  24.663   1.398
51687W        W23358   4.370  40.160  11.954
51688W        W23359  24.072  23.038   4.665
51689W        W23360   5.148  29.670  13.880
51690W        W23361  25.849  18.536  12.445
51691W        W23362   6.718  32.906   3.642
51692W        W23363   0.867  20.240  11.290
51693W        W23364  15.127   2.809   4.096
51694W        W23365  28.585   6.044   0.056
51695W        W23366  28.919  42.348   4.245
51696W        W23367   6.319  41.213  12.645
51697W        W23368  32.570  19.528   4.156
51698W        W23369  22.828   3.918   0.750
51699W        W23370  34.361  30.030   2.806
51700W        W23371  44.763  42.788  14.418
51701W        W23372  16.591  26.629   1.382
51702W        W23373  11.734   0.800   2.227
51703W        W23374  43.839  20.515  12.054
51704W        W23375  12.862  41.277  14.396
51705W        W23376  15.065  26.890  12.079
51706W        W23377  39.330  29.435  10.484
51707W        W23378  17.114  37.589  13.036
51708W        W23379   6.321   7.861  14.980
51709W        W23380   8.804   8.301  13.370
51710W        W23381  19.192  35.585  10.690
51711W        W23382   1.391  19.125   1.352
51712W        W23383   3.717   7.254  13.536
51713W        W23384  39.409  44.283  10.611
51714W        W23385  20.690   3.642  13.009
51715W        W23386  18.047  30.888  14.333
51716W        W23387  38.774  33.615  10.715
51717W        W23388  41.861  17.232   4.140
51718W        W23389  41.829  33.153  13.841
51719W        W23390  35.940  35.536  10.667
51720W        W23391  31.074  41.413   2.847
51721W        W23392  44.389  25.416  11.399
51722W        W23393  41.100  29.035   0.959
51723W        W23394  32.070  14.740  14.815
51724W        W23395  24.239   4.679  12.971
51725W        W23396   3.274  21.693   2.428
51726W        W23397   1.479  13.602  14.741
51727W        W23398  42.309  26.323   1.752
51728W        W23399   7.602  39.372  10.659
51729W        W23400  24.450   7.773   1.975
51730W        W23401  28.468  25.573   3.690
51731W        W23402  27.916  10.180   1.717
51732W        W23403  19.973  11.089   3.272
51733W        W23404  21.790  19.700  11.130
51734W        W23405   2.683  13.279   1.445
51735W        W23406  19.235  18.906   2.336
51736W        W23407  13.265  15.720  12.951
51737W        W23408  37.100  36.156   2.289
51738W        W23409  35.445  36.019   4.575
51739W        W23410  18.000  27.473   3.677
51740W        W23411  37.764  14.441   5.000
51741W        W23412  30.940  42.861  11.966
51742W        W23413  40.022  20.162  13.885
51743W        W23414  13.833  23.986   3.366
51744W        W23415  44.771  33.846   2.315
51745W        W23416  34.518  24.231   2.716
51746W        W23417  27.932  31.376  11.546
51747W        W23418  26.018  11.213   2.320
51748W        W23419   7.140  35.529   0.921
51749W        W23420  13.969  39.841  12.891
51750W        W23421  20.618  41.830  11.014
51751W        W23422  22.196  17.995   0.859
51752W        W23423  33.656  32.179   0.409
51753W        W23424  15.754  42.484  11.553
51754W        W23425  20.185  36.618   3.428
51755W        W23426  34.522  16.362   4.070
51756W        W23427  32.503  27.186  14.518
51757W        W23428  30.510  24.933  14.860
51758W        W23429  42.517  16.015  13.161
51759W        W23430  24.448  41.072   3.307
51760W        W23431  19.801   4.731   2.712
51761W        W23432  25.510  39.378   2.846
51762W        W23433  11.589  37.214  10.705
51763W        W23434  27.073  41.931  13.757
51764W        W23435  42.432  14.992  10.543
51765W        W23436  23.239  31.032   1.918
51766W        W23437  42.281  30.755  14.374
51767W        W23438  44.379  28.400  13.100
51768W        W23439   5.233  27.709   3.369
51769W        W23440  41.003  15.590  11.563
51770W        W23441  43.117   4.744   5.242
51771W        W23442  22.687  24.738   0.010
51772W        W23443  39.302  15.030  14.520
51773W        W23444  15.323  11.067   3.972
51774W        W23445  10.116  33.849  12.095
51775W        W23446  19.195  15.621  13.407
51776W        W23447  16.263  18.553   0.708
51777W        W23448  39.277  29.212   0.657
51778W        W23449  40.952   8.179  10.588
51779W        W23450   5.145  35.766   2.285
51780W        W23451  15.772  18.772   5.045
51781W        W23452  40.134   5.719  14.879
51782W        W23453  15.433  28.468  13.855
51783W        W23454   6.875  23.296  10.360
51784W        W23455   6.436   0.376   2.281
51785W        W23456   6.025  41.573  11.214
51786W        W23457   5.420  27.465  10.692
51787W        W23458   5.962  41.489  13.508
51788W        W23459  16.102  36.992  12.309
51789W        W23460  12.698  23.967   2.532
51790W        W23461   4.525  32.144  14.782
51791W        W23462  28.006  29.013  14.778
51792W        W23463  29.179  11.115  12.378
51793W        W23464   9.437  39.397  11.056
51794W        W23465  14.631  14.136  10.527
51795W        W23466  34.296  42.944   4.587
51796W        W23467  23.806  37.296   4.144
51797W        W23468  31.961  26.475   2.010
51798W        W23469  38.630  27.513  12.676
51799W        W23470  28.462  23.194  11.058
51800W        W23471  42.815  39.987   0.484
51801W        W23472  43.003  26.524  13.651
51802W        W23473  13.374  42.786  11.178
51803W        W23474  11.679  44.518  10.318
51804W        W23475  12.767   0.724  12.609
51805W        W23476   3.840   1.305   0.008
51806W        W23477  23.430  43.571  12.408
51807W        W23478  32.375   1.470   2.161
51808W        W23479  34.804  25.068  11.077
51809W        W23480  23.540  30.680   3.215
51810W        W23481  19.673  15.709   4.690
51811W        W23482   9.636  41.776   2.404
51812W        W23483  23.313  15.620   0.950
51813W        W23484   6.106  15.630   1.416
51814W        W23485  44.385  27.949  11.576
51815W        W23486  29.283  21.679  11.492
51816W        W23487  43.358  28.650   4.185
51817W        W23488  30.716  16.263  11.513
51818W        W23489  25.411  28.920   0.094
51819W        W23490  35.166  12.321   4.067
51820W        W23491  37.671  27.053  10.417
51821W        W23492  22.115  30.947   3.248
51822W        W23493  35.913  10.271  12.368
51823W        W23494   6.131   7.634   2.405
51824W        W23495  18.241  10.190  13.370
51825W        W23496  33.910  39.414  10.842
51826W        W23497   9.447   0.810  12.466
51827W        W23498  31.807   8.902  11.138
51828W        W23499  27.651  41.142   1.213
51829W        W23500  21.112  31.826   4.776
51830W        W23501  33.728  15.809   4.407
51831W        W23502  44.989  30.479  10.673
51832W        W23503  30.158  18.652  11.124
51833W        W23504   1.074   0.808  12.046
51834W        W23505  22.637  27.606   4.107
51835W        W23506  35.513  29.463   2.017
51836W        W23507  34.011  27.382   2.962
51837W        W23508  14.298  14.647   2.273
51838W        W23509  32.380  35.880   3.657
51839W        W23510   1.417  44.825   0.707
51840W        W23511  13.775   1.868   1.623
51841W        W23512  29.323  23.883  12.607
51842W        W23513  32.906  30.632   2.743
51843W        W23514  26.300  33.380  13.533
51844W        W23515  21.476  11.369  13.301
51845W        W23516   7.433   9.943   4.863
51846W        W23517  44.805   4.953   3.077
51847W        W23518  34.630   3.186  11.530
51848W        W23519  34.423  26.904  10.902
51849W        W23520  15.642   7.368  14.944
51850W        W23521  13.739   9.377  12.474
51851W        W23522  18.383  38.003  12.934
51852W        W23523   4.638  11.222   3.744
51853W        W23524  18.693  39.149   0.241
51854W        W23525  33.756   3.728   3.113
51855W        W23526  22.921  40.851  12.927
51856W        W23527   4.015  10.918  12.972
51857W        W23528  43.952  35.654  11.999
51858W        W23529  13.126  24.561   1.322
51859W        W23530   2.146  26.235   0.130
51860W        W23531   5.938  12.539   1.229
51861W        W23532  30.729   8.731   0.256
51862W        W23533   5.853  16.967   2.679
51863W        W23534  30.703  40.286  14.439
51864W        W23535  23.914  13.644   4.148
51865W        W23536  15.814  32.000   0.364
51866W        W23537  34.458  28.745   3.181
51867W        W23538  33.815   7.196  13.427
51868W        W23539   2.725  38.745   3.220
51869W        W23540  12.109  17.184  13.501
51870W        W23541  44.840   4.716  13.470
51871W        W23542  33.330  14.556  14.268
51872W        W23543  42.434  32.348  13.928
51873W        W23544  42.922  26.059   0.787
51874W        W23545  41.230  35.666   0.403
51875W        W23546  23.159   5.446  10.719
51876W        W23547  43.499  21.640   5.526
51877W        W23548  12.047  12.712  13.853
51878W        W23549  33.064  10.147  14.220
51879W        W23550   2.860  22.967  11.557
51880W        W23551  34.513  23.792   1.760
51881W        W23552  39.480  17.674   1.417
51882W        W23553   2.429  43.962   3.630
51883W        W23554  15.557  15.313  12.902
51884W        W23555   9.896  35.914  11.176
51885W        W23556  12.604   8.322  13.482
51886W        W23557  37.342  43.835   4.769
51887W        W23558   4.194  33.634  11.988
51888W        W23559  17.237  30.467   1.066
51889W        W23560  19.256  13.832   4.626
51890W        W23561  15.134   3.915  11.382
51891W        W23562   3.092   5.567  11.524
51892W        W23563  38.468  31.990  13.933
51893W        W23564  26.461   2.885   3.160
51894W        W23565  30.558  41.065   4.437
51895W        W23566   6.794  35.172  12.514
51896W        W23567   8.689  28.044   3.294
51897W        W23568  20.573  22.471  14.476
51898W        W23569  32.460   7.191   3.276
51899W        W23570  11.243   6.296   2.416
51900W        W23571  43.358  15.074   4.514
51901W        W23572   6.318  44.504   2.641
51902W        W23573   9.108  30.906  14.244
51903W        W23574  27.489  26.752   0.483
51904W        W23575  29.973  34.160   1.878
51905W        W23576  22.254  40.554   0.805
51906W        W23577  11.422   5.136  13.966
51907W        W23578  43.732  44.471   2.168
51908W        W23579  34.969  15.244   2.632
51909W        W23580  25.012  24.222  11.425
51910W        W23581  13.377  26.586   0.930
51911W        W23582   0.329  11.919  10.451
51912W        W23583  43.934  22.279  12.939
51913W        W23584  39.961  19.083   4.467
51914W        W23585  24.703  14.410  14.033
51915W        W23586  19.550   9.766   4.320
51916W        W23587  39.928   2.864   4.639
51917W        W23588  28.540   6.878   4.201
51918W        W23589  30.480  19.463  12.657
51919W        W23590  37.504  22.181  14.732
51920W        W23591  33.824   9.157   4.471
51921W        W23592  21.346  11.451   4.880
51922W        W23593  17.794  42.378   3.775
51923W        W23594  29.744  10.159  11.612
51924W        W23595   0.876  38.585  12.155
51925W        W23596  38.617  15.832  11.611
51926W        W23597   9.383  31.117   4.201
51927W        W23598  14.165  34.108  14.709
51928W        W23599  33.520   7.851  11.261
51929W        W23600  39.898   2.364   2.784
51930W        W23601  11.924  28.402   4.820
51931W        W23602  17.134  27.972  14.510
51932W        W23603  36.160  25.194   1.733
51933W        W23604  19.746  27.237  13.024
51934W        W23605   0.897   1.337   4.655
51935W        W23606   7.459  35.848  14.863
51936W        W23607  24.011  37.050   3.350
51937W        W23608  26.777  36.328   2.831
51938W        W23609  15.535  42.322  13.550
51939W        W23610   9.299  16.640  13.487
51940W        W23611  12.896  19.105   2.194
51941W        W23612  31.441  28.319   0.369
51942W        W23613  14.617   1.097   3.255
51943W        W23614  40.578  32.999   0.202
51944W        W23615  14.762  44.294  12.833
51945W        W23616  29.929  15.739  12.782
51946W        W23617  42.326  40.393   3.164
51947W        W23618  36.788  28.035  12.409
51948W        W23619   6.520  42.289  13.103
51949W        W23620   8.414  15.175   1.793
51950W        W23621  10.675   9.218   3.149
51951W        W23622  33.863  21.173   0.988
51952W        W23623  44.010   1.745  11.129
51953W        W23624  43.682  11.209   1.653
51954W        W23625  11.902  23.624  12.486
51955W        W23626  10.550  40.847   3.312
51956W        W23627  10.829  34.044   2.875
51957W        W23628  24.399   8.971  10.738
51958W        W23629   4.428  18.813   2.661
51959W        W23630  19.825  13.164  13.821
51960W        W23631  30.944   8.426   2.128
51961W        W23632   4.801  24.960   3.336
51962W        W23633  44.358   5.739   2.438
51963W        W23634   1.055  11.333  13.733
51964W        W23635   1.001   2.007   2.651
51965W        W23636   9.742   6.694  10.494
51966W        W23637  14.533  37.906  13.782
51967W        W23638   4.102   4.077   0.342
51968W        W23639  36.092   5.617  11.161
51969W        W23640  37.270  12.607  11.300
51970W        W23641  11.125   8.664  12.954
51971W        W23642  40.684  22.634   1.378
51972W        W23643   5.853  16.583  14.792
51973W        W23644  12.427  22.887  11.910
51974W        W23645  29.984  34.137  12.034
51975W        W23646  13.267  15.321   0.548
51976W        W23647  24.455  34.858   3.710
51977W        W23648  12.323  13.753   1.913
51978W        W23649  31.755  34.426   4.126
51979W        W23650  22.744  39.790   3.792
51980W        W23651   3.613  35.661  14.529
51981W        W23652  38.188  30.847  14.280
51982W        W23653  31.035  24.576  12.139
51983W        W23654  42.007  31.171   4.931
51984W        W23655  30.558  32.929  14.767
51985W        W23656   7.736  17.272  14.776
51986W        W23657   1.503  44.495   2.908
51987W        W23658  18.829  14.790   4.546
51988W        W23659  17.285  23.194   0.343
51989W        W23660  13.715   6.354   3.854
51990W        W23661  44.654  25.321  12.991
51991W        W23662  31.705  14.672  12.126
51992W        W23663  16.558  42.117  11.487
51993W        W23664  14.537   6.488   2.161
51994W        W23665  37.380  13.863  10.645
51995W        W23666  27.860  41.014   2.200
51996W        W23667   8.407   4.114   0.170
51997W        W23668  18.132  32.307   2.161
51998W        W23669  27.105  13.740  13.437
51999W        W23670   0.181  14.101   2.224
52000W        W23671  14.533  28.657  11.292
52001W        W23672  19.080  33.616  11.684
52002W        W23673   8.276   6.890  12.105
52003W        W23674  19.554  43.064  10.191
52004W        W23675  17.202   8.654   3.899
52005W        W23676  23.664  40.858   3.623
52006W        W23677  24.517  10.282   2.143
52007W        W23678   3.783  39.841  14.064
52008W        W23679   7.570   8.032   2.297
52009W        W23680  30.535  42.353   2.155
52010W        W23681  42.129  13.336   4.773
52011W        W23682  44.224  43.380  14.383
52012W        W23683  31.004  19.750   2.504
52013W        W23684  11.447  40.857  12.991
52014W        W23685  44.789  17.480   3.829
52015W        W23686  22.104  33.910  11.442
52016W        W23687  33.842   2.586   2.444
52017W        W23688  25.200   3.299  11.581
52018W        W23689  23.028   9.323   0.414
52019W        W23690  19.757  11.794   4.201
52020W        W23691   0.341  36.631  14.401
52021W        W23692   7.165  26.505  13.907
52022W        W23693  24.131   6.731  12.941
52023W        W23694   8.063  16.735   2.263
52024W        W23695  35.849   4.006  11.977
52025W        W23696  43.076   8.125   0.875
52026W        W23697  18.637  39.249   3.141
52027W        W23698  29.992  29.592  11.098
52028W        W23699  30.880  33.639  11.178
52029W        W23700  29.643  35.313   3.718
52030W        W23701  18.204   2.105   2.452
52031W        W23702  33.395   4.841  13.907
52032W        W23703  17.343  13.301   2.226
52033W        W23704  24.736  34.122   4.183
52034W        W23705  42.186  15.130  12.076
52035W        W23706   9.243  18.219  12.007
52036W        W23707  34.525  16.538  14.318
52037W        W23708  12.918  18.135  11.103
52038W        W23709  21.490  42.061   4.825
52039W        W23710  40.069   2.625  10.933
52040W        W23711  29.534  31.974   2.656
52041W        W23712  27.824  38.561  13.729
52042W        W23713  33.513  25.145   0.688
52043W        W23714  39.960  22.587   0.734
52044W        W23715  18.738  40.328   2.279
52045W        W23716  31.494  21.950   4.775
52046W        W23717  31.023  41.557  10.805
52047W        W23718  29.413  17.297  12.119
52048W        W23719  21.155   4.194   2.785
52049W        W23720  23.997  25.011   4.117
52050W        W23721  25.215  34.459   0.362
52051W        W23722  10.783  13.210   4.533
52052W        W23723  10.372  34.589  10.741
52053W        W23724  10.185  42.232  12.038
52054W        W23725   9.388  30.900  13.401
52055W        W23726  30.407  33.916   4.134
52056W        W23727  21.694  31.865  11.108
52057W        W23728  20.506  37.470  13.008
52058W        W23729  17.235  12.149   5.217
52059W        W23730  34.496   3.293   0.196
52060W        W23731  32.196   3.398  10.351
52061W        W23732  10.806   6.414  12.121
52062W        W23733   8.408  28.374  11.177
52063W        W23734  29.159  27.863   3.150
52064W        W23735   7.588  10.917   4.090
52065W        W23736  14.319  24.770   2.254
52066W        W23737  15.165  30.637  12.142
52067W        W23738  16.051  38.981  11.126
52068W        W23739  43.821  40.456   3.217
52069W        W23740   6.440  24.586   4.147
52070W        W23741  39.955  20.222   2.853
52071W        W23742   5.661  44.053   0.776
52072W        W23743   2.790  40.809  14.889
52073W        W23744   1.716   7.823  12.507
52074W        W23745  38.203  44.913   1.266
52075W        W23746  44.871  39.321   3.327
52076W        W23747  32.032  39.045   0.493
52077W        W23748  34.064  21.646   3.190
52078W        W23749  27.146   4.399  12.453
52079W        W23750  43.272   6.840  12.763
52080W        W23751  12.420  33.333   1.846
52081W        W23752  36.476  32.829  11.884
52082W        W23753  29.873  40.998  11.630
52083W        W23754  20.846  21.157   3.277
52084W        W23755   0.934  18.687  13.260
52085W        W23756  24.347   7.741   2.498
52086W        W23757   3.949  25.127   0.938
52087W        W23758  11.575  41.024  11.609
52088W        W23759  34.853  12.213  11.517
52089W        W23760   1.439  13.640   3.356
52090W        W23761  41.774  18.150  11.978
52091W        W23762  10.734  36.247   3.885
52092W        W23763   1.018  37.260  12.944
52093W        W23764  13.226  13.980   3.646
52094W        W23765   0.494  30.446  11.584
52095W        W23766   9.254  19.511  10.137
52096W        W23767  35.521  17.106   2.587
52097W        W23768  14.285  30.996   4.159
52098W        W23769  44.644  27.566   2.235
52099W        W23770  15.318  39.927   0.737
52100W        W23771   7.204   6.246  11.598
52101W        W23772  29.688  43.238  13.341
52102W        W23773  21.628   2.748   1.599
52103W        W23774  17.674  20.718  13.376
52104W        W23775   6.262  38.834   4.703
52105W        W23776   0.543  14.293   3.665
52106W        W23777   3.377  37.130  12.050
52107W        W23778  22.789  15.265  10.994
52108W        W23779  14.985  19.081   4.400
52109W        W23780  31.245  16.737   1.489
52110W        W23781  41.046  13.641   2.657
52111W        W23782  18.837   6.914   1.878
52112W        W23783  28.998  20.595  13.487
52113W        W23784  17.236  10.441  12.240
52114W        W23785  18.662  28.949   1.370
52115W        W23786  26.780  18.710  12.068
52116W        W23787  25.030  31.446   1.623
52117W        W23788  18.686  26.145   4.610
52118W        W23789  37.994  23.897  10.638
52119W        W23790  16.064  14.059   0.776
52120W        W23791  29.924  12.639  12.514
52121W        W23792  43.000   0.750   1.919
52122W        W23793  30.076   8.711   1.417
52123W        W23794  32.388  28.124  12.984
52124W        W23795  42.566   4.367  12.865
52125W        W23796   0.504   5.716  12.892
52126W        W23797  14.265  20.222   1.668
52127W        W23798   3.032  34.603   0.297
52128W        W23799  30.962  24.089  10.452
52129W        W23800  43.062  14.299   1.329
52130W        W23801  27.953   4.978  12.422
52131W        W23802  33.823  22.153   3.970
52132W        W23803  11.229  14.312   3.169
52133W        W23804  24.419  17.625   2.822
52134W        W23805   5.837   2.016   1.887
52135W        W23806  33.633  34.512   4.528
52136W        W23807   5.259  24.030  10.908
52137W        W23808  37.027  17.619   0.027
52138W        W23809   2.186   0.809   1.899
52139W        W23810   1.663   1.778  13.024
52140W        W23811  22.291  35.535   4.583
52141W        W23812  41.508  36.107   3.342
52142W        W23813  32.453   7.722  11.105
52143W        W23814  33.707  41.444  14.100
52144W        W23815  28.671   9.206  13.399
52145W        W23816  43.368  26.173   4.913
52146W        W23817  35.987  43.908   3.777
52147W        W23818  11.188  20.760   4.786
52148W        W23819  28.894  38.445   1.842
52149W        W23820  27.746  11.910  12.748
52150W        W23821  20.144  43.383   0.010
52151W        W23822  39.596   8.838  14.947
52152W        W23823   4.949  36.301  12.208
52153W        W23824   7.803  22.034   4.568
52154W        W23825  16.512  19.643  13.302
52155W        W23826  42.752  44.560  12.446
52156W        W23827   7.601   6.211  14.449
52157W        W23828  19.538  10.997  12.510
52158W        W23829  14.472  22.668   0.333
52159W        W23830  28.148  32.427  14.924
52160W        W23831   8.219  43.425   3.746
52161W        W23832   9.389  18.639   0.337
52162W        W23833  22.848  20.286  10.366
52163W        W23834  24.698  41.542  11.804
52164W        W23835   6.801   8.820  13.796
52165W        W23836  27.235   5.282   1.978
52166W        W23837  38.843   0.731  14.665
52167W        W23838  18.184  21.097   0.926
52168W        W23839  12.620   1.346   0.894
52169W        W23840  21.157  15.962   2.425
52170W        W23841  17.546  31.042   4.695
52171W        W23842  38.233   7.961   0.856
52172W        W23843  33.878  28.575   4.174
52173W        W23844  43.339  35.458   3.148
52174W        W23845  33.932  41.021   3.770
52175W        W23846  29.937  30.963  12.886
52176W        W23847  11.282   1.442  12.752
52177W        W23848  17.888  29.545   0.871
52178W        W23849  38.630   8.789  14.156
52179W        W23850  31.949  28.497   2.860
52180W        W23851  24.480  16.731   1.702
52181W        W23852  43.829   3.738   3.301
52182W        W23853   2.048  13.787  12.492
52183W        W23854  18.617  15.722   0.989
52184W        W23855  24.230  28.777  13.112
52185W        W23856  27.379  26.506   2.796
52186W        W23857  23.428  28.551  12.920
52187W        W23858  42.898  19.365  11.457
52188W        W23859   9.646  44.029  12.354
52189W        W23860  35.434  36.470  11.230
52190W        W23861  39.340   2.239  12.082
52191W        W23862  36.413  38.749   1.906
52192W        W23863  38.601  41.490   1.948
52193W        W23864  33.143  44.844   2.930
52194W        W23865  37.279  33.763   1.729
52195W        W23866  15.572  11.323   2.763
52196W        W23867  42.938  11.702   3.081
52197W        W23868  32.138  12.625  14.755
52198W        W23869  11.225  24.779   2.391
52199W        W23870  15.231  23.982   4.379
52200W        W23871  43.148   6.246   0.234
52201W        W23872  33.065   8.517  10.267
52202W        W23873  43.108  32.833   3.279
52203W        W23874  38.076   6.241  11.677
52204W        W23875   1.939  12.369  13.531
52205W        W23876  35.413  10.323   2.667
52206W        W23877  33.619  28.580  12.934
52207W        W23878  44.024  32.072  14.479
52208W        W23879  29.626  39.426  10.676
52209W        W23880  14.264  42.808  12.108
52210W        W23881  33.722  38.466  12.642
52211W        W23882  40.351  10.016  11.972
52212W        W23883  29.172  25.499  11.323
52213W        W23884  17.965  29.387  14.856
52214W        W23885  26.161   2.372  13.522
52215W        W23886  13.585  11.088   1.312
52216W        W23887  43.491  10.966  12.230
52217W        W23888  41.218   2.544  14.460
52218W        W23889  38.321  35.052   4.274
52219W        W23890  35.457  13.515  12.021
52220W        W23891  39.748  22.038  10.642
52221W        W23892  18.323  31.020  12.595
52222W        W23893  12.246  26.907  14.874
52223W        W23894  14.111   9.180   1.003
52224W        W23895  39.895  11.383   3.369
52225W        W23896  15.767  23.289  11.511
52226W        W23897  42.215  29.573  12.936
52227W        W23898  16.662  16.499  13.867
52228W        W23899  18.827  34.443  13.075
52229W        W23900   1.204  17.183  14.296
52230W        W23901  18.059  30.942   1.297
52231W        W23902  24.667  30.628   2.800
52232W        W23903  10.155   7.849   0.691
52233W        W23904  33.384  40.817  10.564
52234W        W23905  28.186  33.128  12.329
52235W        W23906  28.096   3.367   3.246
52236W        W23907  44.294  44.784  12.908
52237W        W23908  44.375  15.731  12.064
52238W        W23909  26.952  16.229  14.136
52239W        W23910  36.113  25.652   1.962
52240W        W23911  36.072  32.969   3.235
52241W        W23912  32.595  16.895   3.568
52242W        W23913   3.173  43.373   0.944
52243W        W23914  23.183  42.895   2.586
52244W        W23915  12.911   6.573  14.707
52245W        W23916  43.878  34.134   0.481
52246W        W23917   2.284  28.163  11.981
52247W        W23918   8.656  21.210   0.251
52248W        W23919  18.134  15.390  13.816
52249W        W23920  42.519  17.740   0.592
52250W        W23921  38.560  39.215   2.646
52251W        W23922  35.285  42.929   4.883
52252W        W23923   1.955  23.466   2.351
52253W        W23924   4.962  31.554  12.476
52254W        W23925  40.924  38.805   1.735
52255W        W23926  17.813  28.466   3.561
52256W        W23927  13.754   5.415  11.056
52257W        W23928  38.828  20.277  11.916
52258W        W23929   7.897  44.963   0.344
52259W        W23930  43.970   7.377   3.556
52260W        W23931  36.323  23.342   1.853
52261W        W23932  41.674  18.159   0.919
52262W        W23933  10.837  38.566   1.817
52263W        W23934  43.997  24.728   0.868
52264W        W23935  13.750  24.715  13.101
52265W        W23936  16.186  11.469   4.262
52266W        W23937   4.366  13.537   4.874
52267W        W23938  44.184   3.492  12.909
52268W        W23939  19.184  32.668   3.283
52269W        W23940  42.091   1.741   3.681
52270W        W23941   8.669  36.410   5.004
52271W        W23942  32.431  31.961   4.225
52272W        W23943  12.142  27.541  12.338
52273W        W23944   7.654  36.632  13.069
52274W        W23945  33.123  26.135  12.455
52275W        W23946  43.370  27.881  12.432
52276W        W23947  34.069  40.287  14.354
52277W        W23948   7.928  10.335   3.158
52278W        W23949  38.338  24.014  11.024
52279W        W23950  13.851  22.313  13.312
52280W        W23951   3.941  31.665  10.436
52281W        W23952  26.845   8.537   2.302
52282W        W23953  29.976  44.801  13.433
52283W        W23954  19.595  43.807  13.881
52284W        W23955  11.678  23.274  10.352
52285W        W23956  10.378  33.340   2.728
52286W        W23957  41.666  32.969  11.654
52287W        W23958  19.099  26.204  10.434
52288W        W23959   5.261  35.006  14.911
52289W        W23960   0.189  27.580   2.456
52290W        W23961  41.758   9.715  14.662
52291W        W23962  17.845  37.974  12.094
52292W        W23963   0.339  29.099  14.875
52293W        W23964  44.937  41.330  14.692
52294W        W23965  30.653   7.292  12.144
52295W        W23966  25.612  26.691   2.211
52296W        W23967  39.912  37.815  14.738
52297W        W23968  10.348   6.270   3.530
52298W        W23969  33.096  30.782  11.037
52299W        W23970  30.497  43.315  10.874
52300W        W23971  24.473  40.307   0.059
52301W        W23972  39.137   1.237   4.944
52302W        W23973  36.880  30.983   3.213
52303W        W23974  10.660   0.230  13.532
52304W        W23975  34.962   5.429  14.100
52305W        W23976  43.413   5.982  12.328
52306W        W23977  27.766  15.779   5.050
52307W        W23978  35.259   6.964  14.758
52308W        W23979  34.672   2.294   3.810
52309W        W23980   5.828  34.022   0.799
52310W        W23981  42.975  27.996  12.102
52311W        W23982   1.771  23.039  14.403
52312W        W23983  17.338  29.488  12.162
52313W        W23984  34.530  43.947  12.376
52314W        W23985  30.992  30.960   2.233
52315W        W23986   9.253  23.952  12.688
52316W        W23987  12.200  44.679  13.250
52317W        W23988  37.815  13.710   1.760
52318W        W23989  30.068  38.470  11.656
52319W        W23990  33.150  40.789  11.036
52320W        W23991  30.651  30.873  12.468
52321W        W23992  21.268   1.850  13.301
52322W        W23993  18.347   6.237  12.863
52323W        W23994  42.572   7.694  12.884
52324W        W23995  13.158   3.425   4.928
52325W        W23996   2.896  26.686  14.890
52326W        W23997  41.046  31.153  11.228
52327W        W23998  24.724  10.682   3.606
52328W        W23999  41.417  41.435   2.406
52329W        W24000  35.743   5.971   3.705
52330W        W24001  16.553  44.117   1.889
52331W        W24002   6.691   3.494   1.409
52332W        W24003  31.922   5.688   3.780
52333W        W24004  29.612  11.454  10.636
52334W        W24005  11.496  14.845   4.246
52335W        W24006  20.073  34.211  11.118
52336W        W24007   5.800  41.871  10.624
52337W        W24008  42.072  36.932  12.586
52338W        W24009  25.011   3.266   1.306
52339W        W24010  39.479  30.559   4.747
52340W        W24011  32.827  35.004  12.887
52341W        W24012  42.606  34.780  13.339
52342W        W24013  29.923   6.731  12.524
52343W        W24014  24.229  18.168   1.433
52344W        W24015   9.284  41.474  10.679
52345W        W24016  14.714  10.237  11.169
52346W        W24017  35.357   8.916  14.696
52347W        W24018  13.091  33.405   4.805
52348W        W24019  40.278   9.885   4.091
52349W        W24020  21.448  10.178   3.706
52350W        W24021  18.130  15.210   1.433
52351W        W24022  21.052  42.028  13.431
52352W        W24023  20.308  23.132   1.858
52353W        W24024  27.108  27.689  11.996
52354W        W24025  19.008  41.864  10.668
52355W        W24026   3.337  15.905   0.454
52356W        W24027  18.209  19.578   3.882
52357W        W24028  39.557  40.346   3.256
52358W        W24029  31.546  19.392  11.194
52359W        W24030  37.941  30.178  12.904
52360W        W24031   7.228  42.504   4.735
52361W        W24032  17.771  37.865   0.909
52362W        W24033  41.889   7.228   2.389
52363W        W24034  18.423  36.525  14.020
52364W        W24035   9.901  29.189  11.607
52365W        W24036  38.421  25.562  13.047
52366W        W24037  38.247  30.106  12.491
52367W        W24038  37.481  18.922   3.926
52368W        W24039   6.128  19.997   4.726
52369W        W24040  27.069  10.367  14.076
52370W        W24041  36.879  10.788  11.634
52371W        W24042   0.506   5.157  12.893
52372W        W24043  24.155  29.154   3.718
52373W        W24044   6.678  11.242   1.017
52374W        W24045  36.114   4.395   2.659
52375W        W24046  35.691  22.098   2.709
52376W        W24047  38.982  25.170  12.646
52377W        W24048  26.204  35.047  14.835
52378W        W24049   6.884  25.181  11.591
52379W        W24050  12.167   0.318  11.203
52380W        W24051   0.521   7.728   2.749
52381W        W24052  11.887   4.973  14.135
52382W        W24053  21.798  24.945  11.996
52383W        W24054  17.099   5.186   3.238
52384W        W24055  36.916  36.958   4.542
52385W        W24056   6.243  37.380   0.492
52386W        W24057  42.344   1.979   2.356
52387W        W24058  25.116  32.599  10.678
52388W        W24059  28.041  23.183   1.205
52389W        W24060   8.136  36.102   3.284
52390W        W24061  39.415  25.880  13.058
52391W        W24062  20.379   5.884   4.539
52392W        W24063  28.979   6.649  10.355
52393W        W24064  19.163  41.734  12.092
52394W        W24065  35.955  18.028  13.964
52395W        W24066  18.966  44.416  11.436
52396W        W24067  16.979  26.438   1.778
52397W        W24068   1.915  42.253   3.709
52398W        W24069   1.857  14.200   3.611
52399W        W24070  26.689  27.576  11.042
52400W        W24071  14.199  44.041   1.371
52401W        W24072  30.678   8.895  12.862
52402W        W24073  14.686   1.718   4.128
52403W        W24074  35.789  22.720   1.177
52404W        W24075  27.021   9.166   4.108
52405W        W24076  19.829  40.264  11.242
52406W        W24077  32.096  23.215  13.841
52407W        W24078  14.758   9.730  11.144
52408W        W24079  14.696  43.267   3.984
52409W        W24080  13.685  36.447   2.105
52410W        W24081  15.140  13.187   3.581
52411W        W24082   2.913  43.022  10.631
52412W        W24083   3.466  10.741   4.141
52413W        W24084  39.368   3.092  11.995
52414W        W24085   6.878  13.116  12.894
52415W        W24086  26.626  19.804  13.433
52416W        W24087  40.691  38.752  14.577
52417W        W24088   3.162   3.402   2.314
52418W        W24089  29.030  31.529  10.705
52419W        W24090  17.633  12.751   5.358
52420W        W24091   7.585  37.628  10.559
52421W        W24092  16.852  15.140  12.444
52422W        W24093   9.252  18.420  14.873
52423W        W24094  30.620  23.769  11.991
52424W        W24095  31.905   9.194   4.198
52425W        W24096  30.477   5.749   3.524
52426W        W24097  42.119  34.166   4.670
52427W        W24098  23.781  17.543  14.914
52428W        W24099  37.359   4.331  13.950
52429W        W24100   9.911   1.152   1.722
52430W        W24101  19.070   0.384  12.369
52431W        W24102   2.539  25.457  10.955
52432W        W24103  18.676  12.069  12.580
52433W        W24104  38.494  22.494   0.615
52434W        W24105   3.277  17.644   1.216
52435W        W24106   1.886  37.098   2.417
52436W        W24107  37.152  25.981  14.066
52437W        W24108  42.467  12.155   3.709
52438W        W24109  17.499  21.352   0.483
52439W        W24110  14.502   8.177  11.715
52440W        W24111  33.000  28.971   3.354
52441W        W24112  25.116  27.948   2.555
52442W        W24113  40.277  44.266  14.405
52443W        W24114   9.427  36.103  11.167
52444W        W24115  13.115  34.461   3.989
52445W        W24116  39.294   0.320  12.246
52446W        W24117  32.851  12.285  14.255
52447W        W24118   6.964  35.015   0.944
52448W        W24119  43.405  32.538   4.496
52449W        W24120  19.670  27.296  14.352
52450W        W24121  21.489  15.720   1.192
52451W        W24122  22.971  42.560  13.404
52452W        W24123  35.606   0.248   0.550
52453W        W24124  42.424  40.328  13.878
52454W        W24125  35.906  10.481  11.580
52455W        W24126  43.497  34.854  11.941
52456W        W24127  14.605   9.258   0.956
52457W        W24128  10.713   5.624   0.376
52458W        W24129  39.047  31.850   4.613
52459W        W24130  11.111   1.348   1.638
52460W        W24131  13.384  26.007  12.381
52461W        W24132  37.502  14.101   4.157
52462W        W24133  38.262  22.099  10.946
52463W        W24134  25.220  13.425   3.182
52464W        W24135  26.649  40.972  11.634
52465W        W24136  25.287  32.880   4.349
52466W        W24137  42.696   4.682  13.339
52467W        W24138   3.250  36.159   2.969
52468W        W24139  41.743  41.934   1.211
52469W        W24140   3.840  16.812   0.328
52470W        W24141  16.138  41.765   3.295
52471W        W24142  16.688   7.864   3.805
52472W        W24143  30.021  18.570  13.573
52473W        W24144  40.045  20.687   2.092
52474W        W24145  39.000  44.475   1.417
52475W        W24146  11.611   2.360   2.362
52476W        W24147  33.378  10.251  13.259
52477W        W24148   9.766   8.214  14.116
52478W        W24149  24.000  37.498   0.763
52479W        W24150  41.927   1.535  10.609
52480W        W24151  29.977  32.054   4.277
52481W        W24152  18.342  28.941  10.544
52482W        W24153  30.081  13.721   2.109
52483W        W24154  21.125  38.299  13.407
52484W        W24155  17.708  29.114  12.196
52485W        W24156  15.366   8.281  13.345
52486W        W24157  25.683  22.288  13.028
52487W        W24158  29.958  32.046  12.870
52488W        W24159  30.555   1.531  12.478
52489W        W24160   3.926  37.113  10.699
52490W        W24161  41.977  22.740  14.452
52491W        W24162  27.232  22.722   3.764
52492W        W24163   7.712   2.859  11.634
52493W        W24164  21.617   6.442   1.018
52494W        W24165  33.374  39.026  10.613
52495W        W24166   9.274  11.175   1.757
52496W        W24167   1.991  44.993  13.365
52497W        W24168   3.091  14.295   2.186
52498W        W24169  12.377   6.927   4.611
52499W        W24170  42.202   9.467  14.512
52500W        W24171   7.649  42.514  12.083
52501W        W24172  23.621   2.610  12.422
52502W        W24173  26.608  14.738   1.257
52503W        W24174  16.340  11.269   4.752
52504W        W24175  17.857  15.596  14.183
52505W        W24176  41.507  23.572   2.364
52506W        W24177   5.696  16.514   2.863
52507W        W24178  25.533  15.117  12.458
52508W        W24179  42.413  33.527  11.671
52509W        W24180  11.328  24.481  14.358
52510W        W24181  35.632  19.219   2.207
52511W        W24182  25.054  27.429  10.468
52512W        W24183  13.692  10.001  11.636
52513W        W24184  20.189   6.322  12.574
52514W        W24185  34.479  32.741   2.220
52515W        W24186  14.147  32.906   0.585
52516W        W24187   8.412  14.583  14.440
52517W        W24188  29.244  27.563   4.363
52518W        W24189   6.602  20.531  11.553
52519W        W24190   8.769   5.190  10.667
52520W        W24191  30.042  28.234  12.823
52521W        W24192  36.937   2.290   4.440
52522W        W24193  15.667  22.794  14.889
52523W        W24194  41.479   4.921  10.579
52524W        W24195   0.879   2.200   0.381
52525W        W24196  36.356  31.807  11.721
52526W        W24197  34.496  23.271  14.787
52527W        W24198  27.768  22.545  12.047
52528W        W24199  41.903   3.867  14.909
52529W        W24200  42.321   4.825  13.004
52530W        W24201   6.829   6.221  10.731
52531W        W24202  19.120   5.212   0.885
52532W        W24203   2.343  30.574  11.204
52533W        W24204   4.724   2.232  13.370
52534W        W24205  28.968  44.243   0.983
52535W        W24206  44.933  24.157   3.662
52536W        W24207  40.549  37.418  14.221
52537W        W24208  12.287  25.470  12.965
52538W        W24209  28.902  31.482   0.350
52539W        W24210  35.606  29.157   4.426
52540W        W24211  10.216  31.404  12.512
52541W        W24212  27.958  21.975   4.659
52542W        W24213  29.594  23.312  11.448
52543W        W24214   7.348   0.254  13.003
52544W        W24215  17.112  14.853   1.088
52545W        W24216  21.627   9.561   1.104
52546W        W24217  36.349   4.298  13.865
52547W        W24218  19.184  22.731   2.210
52548W        W24219  10.123  29.379  12.508
52549W        W24220   6.765   9.287  10.734
52550W        W24221  16.609  33.360   4.085
52551W        W24222  27.591  33.851  11.637
52552W        W24223  27.987  14.350   1.706
52553W        W24224  19.755  13.900   4.874
52554W        W24225  14.059  32.033  13.996
52555W        W24226   0.288  20.605  13.148
52556W        W24227  22.255  18.250   3.849
52557W        W24228   7.310  10.138  14.942
52558W        W24229   3.247  17.788   4.122
52559W        W24230  15.021  16.296   3.036
52560W        W24231   2.036  40.214  12.042
52561W        W24232   2.968  25.139   4.733
52562W        W24233   7.725   7.131  13.654
52563W        W24234  43.301  41.111   5.512
52564W        W24235  29.566   3.723  11.244
52565W        W24236  18.137  39.101   0.855
52566W        W24237  42.530  38.535  11.489
52567W        W24238  43.177  15.067  12.194
52568W        W24239  40.652  21.774  11.080
52569W        W24240   4.658   9.764   0.731
52570W        W24241  43.196  31.188   4.785
52571W        W24242  11.319  24.504  13.113
52572W        W24243  28.817  23.251   2.729
52573W        W24244   7.104  30.055   0.268
52574W        W24245   9.794   8.325   2.734
52575W        W24246  37.336  42.745   2.874
52576W        W24247  44.954  40.082  12.455
52577W        W24248  10.893  36.752   2.220
52578W        W24249  34.417  40.318   1.289
52579W        W24250  13.047  37.466   4.628
52580W        W24251  18.467  33.527  12.095
52581W        W24252  27.644  25.710   1.026
52582W        W24253  40.516   9.918  14.348
52583W        W24254  19.009  40.501  13.963
52584W        W24255  23.071  27.649  13.640
52585W        W24256  17.299  17.727   0.453
52586W        W24257  43.296  43.953   0.471
52587W        W24258   5.498  41.572  14.909
52588W        W24259  44.094   9.920   0.954
52589W        W24260  16.510  37.510   3.110
52590W        W24261  30.046   1.293   3.162
52591W        W24262  39.937  40.037  10.385
52592W        W24263   7.881  11.138   3.270
52593W        W24264  34.192  19.686   2.674
52594W        W24265  14.375  28.490  11.771
52595W        W24266  29.631  24.085  14.318
52596W        W24267  33.945   1.767   1.784
52597W        W24268  30.899  19.063  11.080
52598W        W24269  27.112   3.423   4.544
52599W        W24270  39.106   7.905  13.781
52600W        W24271   1.420  16.721  11.546
52601W        W24272  36.813  28.079   3.246
52602W        W24273  40.590  26.154  13.855
52603W        W24274   4.902   8.243  13.950
52604W        W24275  10.212  28.142  13.179
52605W        W24276   4.959  15.156  11.917
52606W        W24277  22.287  40.017   0.830
52607W        W24278  32.006  31.009  13.131
52608W        W24279  22.137  29.709   0.979
52609W        W24280   9.921   7.339  12.985
52610W        W24281   3.445  41.186   4.618
52611W        W24282  14.696   7.751  12.948
52612W        W24283  37.804  37.574  14.074
52613W        W24284  22.731   4.779  12.829
52614W        W24285  32.358  21.367   3.286
52615W        W24286  26.413  25.524   1.825
52616W        W24287  44.909  34.084  11.590
52617W        W24288  42.459   6.153   0.952
52618W        W24289  16.242  16.238  12.252
52619W        W24290   4.317   6.382  14.587
52620W        W24291  38.274  26.060   1.687
52621W        W24292   1.978  17.378  14.652
52622W        W24293  24.201  17.068  12.842
52623W        W24294  34.995   3.155  13.374
52624W        W24295   0.249  44.109   3.708
52625W        W24296   1.173  41.367   1.342
52626W        W24297  32.467  41.230  12.844
52627W        W24298   2.520  14.634   0.052
52628W        W24299   3.438  24.253  11.131
52629W        W24300  29.745  41.354   3.254
52630W        W24301  17.492  44.381  11.440
52631W        W24302  15.714  42.050   4.090
52632W        W24303  37.942  34.696  14.340
52633W        W24304  15.338  11.809  12.393
52634W        W24305  30.484  23.600  11.526
52635W        W24306  38.941   3.282   0.035
52636W        W24307  38.407  21.717  11.659
52637W        W24308  16.805  10.743   2.863
52638W        W24309  29.203  28.967  13.338
52639W        W24310  41.208  18.308   2.602
52640W        W24311  36.102  23.558  13.602
52641W        W24312   7.031  22.264   2.360
52642W        W24313  38.501   9.748   4.582
52643W        W24314  41.061  25.823   4.064
52644W        W24315  10.248  20.905  11.102
52645W        W24316   3.839  20.623   1.792
52646W        W24317  32.318  25.683   4.455
52647W        W24318   5.749  19.105   4.360
52648W        W24319  30.867  23.943   4.145
52649W        W24320  16.278  24.100   1.274
52650W        W24321  40.527  10.238   0.196
52651W        W24322   6.861   0.800  11.019
52652W        W24323  17.188   9.729  11.000
52653W        W24324  26.036  30.718   2.811
52654W        W24325   1.318  34.033   1.617
52655W        W24326  24.725  16.828  10.485
52656W        W24327  14.769  16.899   9.849
52657W        W24328   4.240   7.526  12.305
52658W        W24329  18.287  22.968   2.347
52659W        W24330  35.835  17.359  13.129
52660W        W24331  19.692  37.916  13.329
52661W        W24332   8.350  37.025  12.465
52662W        W24333  18.028  28.439   2.722
52663W        W24334  26.489  43.982  10.523
52664W        W24335  41.759  18.209  12.841
52665W        W24336  18.776   7.180  12.891
52666W        W24337  19.638   1.436  13.947
52667W        W24338  43.485  36.790  11.882
52668W        W24339  42.593   5.783   1.294
52669W        W24340  33.611  32.076   4.832
52670W        W24341  15.942   6.088  13.472
52671W        W24342  24.875   2.342   2.762
52672W        W24343  36.414  22.726   2.556
52673W        W24344  30.947  32.025   2.158
52674W        W24345  30.199  14.558  12.523
52675W        W24346  44.517  17.937  10.281
52676W        W24347  36.451  27.870  12.935
52677W        W24348  20.860  31.206  11.087
52678W        W24349  24.120  29.529   3.302
52679W        W24350  25.053  29.162   4.251
52680W        W24351  41.989  33.646   0.392
52681W        W24352  39.359  40.866   3.205
52682W        W24353  26.538  14.553   3.481
52683W        W24354   0.210  26.447   0.267
52684W        W24355   4.837  44.411  10.629
52685W        W24356  25.721  10.517   1.363
52686W        W24357  24.103  42.543   0.974
52687W        W24358  13.406   2.579  13.851
52688W        W24359   2.701  33.413   0.342
52689W        W24360  32.940  15.839   3.144
52690W        W24361  24.750  20.556   3.823
52691W        W24362   6.808   3.933  13.058
52692W        W24363   8.693   3.811  10.467
52693W        W24364   4.761  36.827   2.985
52694W        W24365  13.911  24.681   1.926
52695W        W24366  44.073   7.454  14.031
52696W        W24367  22.665  23.737   3.784
52697W        W24368  44.498   7.349   3.507
52698W        W24369   5.927  32.010   3.763
52699W        W24370   2.727  35.984   0.277
52700W        W24371  39.378  26.724   2.736
52701W        W24372   3.839  27.611   3.390
52702W        W24373  10.298  20.413  11.844
52703W        W24374  40.020   7.369  12.546
52704W        W24375  40.365  39.934  11.177
52705W        W24376  32.023  35.914   3.276
52706W        W24377   9.871  18.606  11.388
52707W        W24378  21.400   4.908   3.317
52708W        W24379  16.903  20.980  12.811
52709W        W24380  11.759  37.323  12.754
52710W        W24381  37.845  19.033   0.652
52711W        W24382  10.156  34.052   2.310
52712W        W24383  11.525  37.626  13.324
52713W        W24384   7.570  26.565  14.566
52714W        W24385  32.934  37.142  12.560
52715W        W24386  41.564  30.393  12.060
52716W        W24387   9.075   6.262   1.178
52717W        W24388   6.406   3.258   1.759
52718W        W24389  22.995  32.329  13.415
52719W        W24390   2.378  33.624  12.628
52720W        W24391  27.484  41.570   4.629
52721W        W24392  27.064  36.563   1.914
52722W        W24393  41.706  17.885  11.547
52723W        W24394  15.150  42.807   2.486
52724W        W24395   8.947  24.406   2.474
52725W        W24396   3.233  40.189   0.182
52726W        W24397  24.260  14.092  13.442
52727W        W24398   5.881  42.854  11.556
52728W        W24399  26.718   0.327  13.931
52729W        W24400  28.134   9.287   2.771
52730W        W24401  10.718  38.789   0.619
52731W        W24402  17.083  15.204   2.739
52732W        W24403  27.660  43.759   1.855
52733W        W24404  40.931  20.281  13.076
52734W        W24405  29.315  42.082  12.952
52735W        W24406  15.160   0.981   1.228
52736W        W24407  39.286  11.166  13.269
52737W        W24408  17.713  31.054  14.699
52738W        W24409  23.122  40.639  13.352
52739W        W24410  23.817  22.691  13.885
52740W        W24411  17.978  14.198   9.894
52741W        W24412  38.071   8.731  11.899
52742W        W24413  21.944  16.079  11.510
52743W        W24414  44.407  23.001   5.579
52744W        W24415  15.581  31.093   1.915
52745W        W24416  28.540  36.467  12.662
52746W        W24417  39.086  43.009   1.499
52747W        W24418  21.065  33.209  11.009
52748W        W24419  27.742  37.833   4.167
52749W        W24420  42.074   1.431  13.004
52750W        W24421  17.593  37.338  12.830
52751W        W24422  31.897  21.704  14.700
52752W        W24423   3.669  29.613  14.908
52753W        W24424  38.952   1.104  12.343
52754W        W24425   3.677  33.021  11.015
52755W        W24426   8.229  22.930   4.273
52756W        W24427  29.221  32.454   0.074
52757W        W24428  39.536  41.541   2.410
52758W        W24429   4.294  36.111   4.213
52759W        W24430  34.060  19.431   4.558
52760W        W24431  39.536  32.045   4.730
52761W        W24432  30.365  21.129  10.653
52762W        W24433  44.451  22.290  12.023
52763W        W24434  32.669  43.550  13.870
52764W        W24435  17.117  26.507  14.154
52765W        W24436  38.614  39.272  11.737
52766W        W24437   5.925  24.767   4.780
52767W        W24438  10.442  44.065   3.692
52768W        W24439   9.224  41.379   0.148
52769W        W24440  32.807  43.826  14.291
52770W        W24441   4.378  43.471  13.929
52771W        W24442  21.568  26.681  13.397
52772W        W24443  29.455  20.928  10.455
52773W        W24444  41.416  37.931   2.225
52774W        W24445  39.931  14.325   0.304
52775W        W24446  12.149  23.768  13.957
52776W        W24447  22.423  26.451  12.877
52777W        W24448  12.537  13.289   2.753
52778W        W24449  14.784   6.756  13.207
52779W        W24450  22.094   3.299  11.559
52780W        W24451  43.292  24.568  12.984
52781W        W24452  26.639  26.291   4.129
52782W        W24453  19.129  23.780  12.311
52783W        W24454  36.949  37.367   0.178
52784W        W24455  25.867  31.300  14.805
52785W        W24456  35.834  16.751   3.800
52786W        W24457   4.393  33.290   0.454
52787W        W24458  41.326  43.578  14.695
52788W        W24459  30.825  23.060  14.728
52789W        W24460  11.357  42.783  11.612
52790W        W24461  28.719  31.978  11.571
52791W        W24462  31.396  26.300   0.448
52792W        W24463  18.130  34.771   2.738
52793W        W24464  34.186  23.270  11.099
52794W        W24465  33.450  33.539   1.223
52795W        W24466  40.922  41.212   5.395
52796W        W24467  42.875   0.462   1.253
52797W        W24468  31.901  40.777   4.540
52798W        W24469  20.120  15.160   0.725
52799W        W24470  33.860  31.680  11.158
52800W        W24471   3.386  21.863   5.220
52801W        W24472  27.437  33.367   1.277
52802W        W24473  14.361  24.447   1.867
52803W        W24474  23.815  24.583   3.322
52804W        W24475  19.872  15.085  11.604
52805W        W24476  33.351  31.212  13.617
52806W        W24477   2.315   2.119   0.575
52807W        W24478  18.378  28.978   3.858
52808W        W24479  29.971  20.281   4.230
52809W        W24480  26.710  27.994  10.714
52810W        W24481   3.493  31.497   1.349
52811W        W24482  25.621  27.226   2.207
52812W        W24483   9.800   2.411  12.971
52813W        W24484   7.821  36.837   1.948
52814W        W24485   1.053  31.700   3.693
52815W        W24486  28.694  29.550  14.268
52816W        W24487  29.244   8.308   4.940
52817W        W24488  20.967  28.355  14.959
52818W        W24489  26.241  25.648   0.048
52819W        W24490   8.758  42.488   0.401
52820W        W24491  35.566  30.538  14.975
52821W        W24492  11.169  25.431  11.185
52822W        W24493   5.255   2.506   1.250
52823W        W24494   8.436  18.314   4.317
52824W        W24495  10.214  31.876   4.176
52825W        W24496  38.480  17.189  12.110
52826W        W24497   9.518  41.582   2.856
52827W        W24498  26.030  12.997  11.622
52828W        W24499  26.501   1.655  14.387
52829W        W24500   3.638  27.436  10.985
52830W        W24501  44.410  23.063   1.716
52831W        W24502  23.170   2.418  13.995
52832W        W24503  26.578  30.394   1.318
52833W        W24504  43.467  17.090  10.749
52834W        W24505  12.726  23.124   1.932
52835W        W24506  35.902  36.075   1.974
52836W        W24507  35.698  33.882   1.554
52837W        W24508  35.012   3.831  13.022
52838W        W24509  21.105  25.511  11.693
52839W        W24510  34.581  28.619  14.262
52840W        W24511   1.958   6.072  12.227
52841W        W24512  11.583  12.478  12.933
52842W        W24513  15.114  43.778   1.153
52843W        W24514   0.411   8.315  11.667
52844W        W24515  43.950  39.869  13.356
52845W        W24516   9.302  20.545  14.567
52846W        W24517  31.730  31.467   2.325
52847W        W24518  43.887  19.433  13.776
52848W        W24519   5.001  28.954  13.425
52849W        W24520  26.395  12.883  13.336
52850W        W24521   0.633   2.416  11.601
52851W        W24522  18.529  43.581  13.840
52852W        W24523  39.359  42.603   4.471
52853W        W24524  43.620  27.365   4.085
52854W        W24525  13.152   0.363   0.122
52855W        W24526  12.729  32.068   0.938
52856W        W24527   4.421  34.910   5.014
52857W        W24528  26.556  26.226   2.363
52858W        W24529   8.693  43.765  10.711
52859W        W24530  39.358  26.593  11.047
52860W        W24531  20.314  32.650  11.655
52861W        W24532  24.613  27.671  14.737
52862W        W24533  23.462  20.706  14.398
52863W        W24534  19.687  43.966  10.593
52864W        W24535   1.199  19.263  12.026
52865W        W24536  18.682   4.875  13.534
52866W        W24537  25.222  16.579   0.373
52867W        W24538  31.356  20.723   0.318
52868W        W24539  21.471  44.052   1.867
52869W        W24540  34.046  13.237  11.570
52870W        W24541  32.664  11.664   0.210
52871W        W24542   7.877   5.238  10.989
52872W        W24543  30.134  27.504  10.763
52873W        W24544  15.573  11.198  11.145
52874W        W24545  43.242  32.093   2.288
52875W        W24546  17.341   1.471   2.731
52876W        W24547  44.754   1.755   4.734
52877W        W24548  29.090  27.219  12.140
52878W        W24549  18.313  18.140   0.809
52879W        W24550  23.488  26.473  10.761
52880W        W24551   9.753  28.166  12.924
52881W        W24552  11.165  21.034   2.277
52882W        W24553  15.337  34.044  14.373
52883W        W24554  11.826  20.460  11.134
52884W        W24555  18.573  37.558  13.963
52885W        W24556  30.389  12.218  13.098
52886W        W24557  12.262  18.970   0.361
52887W        W24558  34.656  20.705  14.844
52888W        W24559  20.119   0.057   4.090
52889W        W24560  24.507   1.962   4.855
52890W        W24561   7.688  40.554  12.392
52891W        W24562  26.278  42.612  12.064
52892W        W24563  12.415  31.029   0.069
52893W        W24564  37.045  11.323   2.634
52894W        W24565  35.105  27.946   0.317
52895W        W24566  24.496  17.776   3.766
52896W        W24567   1.826   3.776  12.653
52897W        W24568  42.832  17.312  12.910
52898W        W24569  27.459  30.203   3.343
52899W        W24570   9.842   3.112   0.810
52900W        W24571   8.971   5.112  13.648
52901W        W24572  38.082  41.527  13.425
52902W        W24573   6.615   6.675   1.162
52903W        W24574  33.566  10.782  12.516
52904W        W24575  33.144  23.567   4.121
52905W        W24576   6.249   9.340  10.634
52906W        W24577  44.496  27.927  12.943
52907W        W24578   5.344  28.238  14.069
52908W        W24579  35.510  35.496   4.551
52909W        W24580  28.850  38.407  10.776
52910W        W24581  22.160  23.572  14.419
52911W        W24582   8.951  11.353   1.353
52912W        W24583  39.007  28.669  10.683
52913W        W24584   6.870  28.451  12.832
52914W        W24585  28.756  44.946  12.508
52915W        W24586  20.818  31.682   1.838
52916W        W24587  29.999  44.239   4.084
52917W        W24588  25.970   7.692   4.134
52918W        W24589   3.843   5.038   4.067
52919W        W24590  33.406  33.538   0.282
52920W        W24591  26.556  29.267   0.544
52921W        W24592  17.272  12.870   3.649
52922W        W24593  27.879  42.390   1.859
52923W        W24594   3.582   4.824   3.279
52924W        W24595  36.404  44.114  14.715
52925W        W24596  29.082  39.319   4.832
52926W        W24597   6.932  29.633  14.428
52927W        W24598   2.415  26.543  10.892
52928W        W24599   2.530  18.818  12.014
52929W        W24600   6.493  16.127   4.554
52930W        W24601  44.285  39.558  14.830
52931W        W24602  14.264   5.934   4.436
52932W        W24603  12.292  26.542   4.971
52933W        W24604  29.030  44.444  14.007
52934W        W24605  33.596  18.244   1.507
52935W        W24606  36.780  25.554  14.104
52936W        W24607  30.081  23.956  13.040
52937W        W24608   7.452  33.689   4.565
52938W        W24609  39.026  36.536   3.310
52939W        W24610  24.810  15.876   2.806
52940W        W24611   3.718  22.555  10.076
52941W        W24612   0.680  17.497  11.442
52942W        W24613  19.601   2.536   0.507
52943W        W24614  36.971   1.830  13.061
52944W        W24615  21.064  44.042  11.150
52945W        W24616  30.931  15.697  13.129
52946W        W24617  23.745  11.637   0.453
52947W        W24618   0.666  31.472  13.860
52948W        W24619  27.080   8.192  14.399
52949W        W24620  35.168  42.278   4.322
52950W        W24621  44.438   3.621   0.374
52951W        W24622  38.431  44.330  13.114
52952W        W24623  44.151  16.309   0.763
52953W        W24624  10.731  31.189   2.262
52954W        W24625  38.630  35.058  12.861
52955W        W24626  29.901  22.514  12.472
52956W        W24627  41.814  20.590  13.754
52957W        W24628  26.698   6.715  11.315
52958W        W24629  21.813  23.366  12.190
52959W        W24630  30.901  30.282   3.387
52960W        W24631  17.661  18.753  11.660
52961W        W24632  18.718  41.382  11.074
52962W        W24633  17.330  12.081   1.827
52963W        W24634  27.148  26.788  14.074
52964W        W24635  17.835  34.883   4.527
52965W        W24636   1.502  43.990  12.384
52966W        W24637  44.511  17.087   3.659
52967W        W24638  20.538  26.514  10.720
52968W        W24639  31.656  28.162   2.569
52969W        W24640  30.009  44.036  13.887
52970W        W24641   8.495  20.068  10.698
52971W        W24642   9.284  37.406  13.677
52972W        W24643  38.513  36.653   3.169
52973W        W24644  13.579   3.508   3.721
52974W        W24645   6.746   0.706  11.934
52975W        W24646  36.796  20.575  14.234
52976W        W24647  10.799  42.835   1.299
52977W        W24648  32.230   9.477   0.275
52978W        W24649  21.146  25.354  12.970
52979W        W24650  24.022  19.259  13.635
52980W        W24651  40.626  18.388  13.464
52981W        W24652   3.451  41.037  13.064
52982W        W24653   5.791  22.110  13.348
52983W        W24654  26.047  38.355   2.785
52984W        W24655  32.413  33.041   0.982
52985W        W24656  30.647  43.043   5.081
52986W        W24657   4.441   5.626   3.243
52987W        W24658   8.146  14.838   0.758
52988W        W24659  27.964  27.478  14.878
52989W        W24660  22.611   5.026  11.452
52990W        W24661   1.529  30.554   2.475
52991W        W24662  20.408  18.508   3.720
52992W        W24663  20.797  42.486  12.079
52993W        W24664   8.760  41.532  12.815
52994W        W24665  35.446   6.194   0.138
52995W        W24666  43.947   2.073  10.733
52996W        W24667   1.952  40.879  11.091
52997W        W24668  14.224   9.620   2.363
52998W        W24669   3.213  44.572  12.130
52999W        W24670   2.498  15.350   0.687
53000W        W24671  11.087  35.057  14.934
53001W        W24672  27.669  10.882  14.604
53002W        W24673  29.575  24.672  12.172
53003W        W24674  24.481  36.461   1.719
53004W        W24675  38.473   0.191  13.034
53005W        W24676  26.886   9.460  13.027
53006W        W24677  11.734  27.916  11.498
53007W        W24678  29.345  32.793  11.703
53008W        W24679  37.799  34.102  11.097
53009W        W24680   6.887  16.996  13.894
53010W        W24681  21.137  15.092   0.867
53011W        W24682   1.577   4.885   1.852
53012W        W24683  18.662  35.857  13.911
53013W        W24684  34.877  35.490   3.349
53014W        W24685  32.765  35.096  10.665
53015W        W24686  16.539  13.496   0.949
53016W        W24687  36.765  17.348  13.187
53017W        W24688  16.128   8.277   2.486
53018W        W24689  18.469   8.622   1.708
53019W        W24690  25.729  30.086   2.774
53020W        W24691  28.386  28.558   4.270
53021W        W24692   5.252  22.832   2.366
53022W        W24693   1.923  22.705  10.130
53023W        W24694  28.575  31.134   1.276
53024W        W24695   8.484  13.428   1.596
53025W        W24696  38.114  12.247  13.481
53026W        W24697  10.367  39.548  11.093
53027W        W24698  27.026   0.544  10.504
53028W        W24699  19.267  40.280   2.120
53029W        W24700  13.255  33.477   0.516
53030W        W24701  22.813  29.678  12.419
53031W        W24702  22.951  33.381   0.018
53032W        W24703  22.233  40.019  13.971
53033W        W24704  41.203   0.782  11.941
53034W        W24705  11.704   6.452   0.255
53035W        W24706  11.897  18.187  12.790
53036W        W24707  26.676  37.952  12.188
53037W        W24708  42.361  38.913   2.335
53038W        W24709  28.394  39.729  11.206
53039W        W24710   4.762  26.243  10.688
53040W        W24711  36.041  28.327   2.594
53041W        W24712  27.557   4.211   3.220
53042W        W24713  43.759  11.313   2.659
53043W        W24714  30.397   9.558  11.741
53044W        W24715  21.194  12.255   1.714
53045W        W24716   2.206  22.522  11.923
53046W        W24717  38.057  40.232  14.699
53047W        W24718  28.458  17.190   3.245
53048W        W24719  10.776  28.979  11.104
53049W        W24720   6.651  37.332   3.637
53050W        W24721  28.463  27.772   1.235
53051W        W24722  39.317  18.712  13.031
53052W        W24723  35.947   6.230  10.578
53053W        W24724  44.641  29.791   4.048
53054W        W24725  12.314   5.711   0.431
53055W        W24726  24.283  26.657  11.193
53056W        W24727  10.258  38.699  14.426
53057W        W24728  18.619  20.153  14.007
53058W        W24729   9.796  27.759   0.688
53059W        W24730  25.563   7.198   0.514
53060W        W24731  30.586   8.195  14.431
53061W        W24732   8.609  20.649  11.995
53062W        W24733   0.283  15.838  10.368
53063W        W24734  33.566   3.329   4.069
53064W        W24735  39.058  30.182  14.106
53065W        W24736  40.700   2.119   4.328
53066W        W24737  33.092  32.197   0.131
53067W        W24738  24.732  12.849   4.191
53068W        W24739  30.238  33.433   3.128
53069W        W24740  41.079   6.709   3.738
53070W        W24741   0.992   5.226   2.394
53071W        W24742   8.793  43.455   4.673
53072W        W24743  22.037  44.073  13.650
53073W        W24744  29.039  12.320  10.556
53074W        W24745  13.736   6.598   1.875
53075W        W24746  36.033   3.849   4.585
53076W        W24747  13.988  16.287  13.548
53077W        W24748  21.525  26.053  10.611
53078W        W24749  21.592  37.982   9.849
53079W        W24750  36.185  24.393   3.645
53080W        W24751   4.897  44.779  12.367
53081W        W24752  21.313   5.766   3.115
53082W        W24753  19.598  35.099  14.982
53083W        W24754  17.624  31.887  11.909
53084W        W24755   1.880  39.828  14.814
53085W        W24756  33.008  35.449  13.305
53086W        W24757   9.165  41.805  12.952
53087W        W24758  10.038  29.370  13.363
53088W        W24759  43.614   8.886   4.604
53089W        W24760  30.632  26.738  11.017
53090W        W24761  40.654  27.217  11.207
53091W        W24762   7.931   8.173   0.519
53092W        W24763  30.966  19.305   4.166
53093W        W24764  28.438  39.344   1.253
53094W        W24765  18.663  38.587  13.914
53095W        W24766  43.773  21.785  13.025
53096W        W24767   2.821   8.719   4.692
53097W        W24768  36.595  29.492  11.597
53098W        W24769  28.463  22.195  14.526
53099W        W24770  38.123  24.914  10.689
53100W        W24771  44.424  14.588  11.114
53101W        W24772  11.917  20.970  10.295
53102W        W24773  31.155  16.189  12.994
53103W        W24774  24.372  31.100  10.675
53104W        W24775  23.207  39.137   4.077
53105W        W24776   6.279   5.897  11.534
53106W        W24777  32.226   2.394  13.622
53107W        W24778  40.057  35.156  14.649
53108W        W24779  30.445   7.145   0.379
53109W        W24780  34.439   9.648   3.212
53110W        W24781  24.753  16.643   4.482
53111W        W24782  41.156  30.592   4.535
53112W        W24783   7.807   8.608  13.101
53113W        W24784   0.647  20.765   4.527
53114W        W24785   6.758  16.024  14.763
53115W        W24786  20.764  35.400   4.290
53116W        W24787   6.925  12.544   1.342
53117W        W24788   0.461  10.406   0.230
53118W        W24789  12.780  34.128  14.103
53119W        W24790  40.606  11.300   4.120
53120W        W24791  42.295  41.023  11.170
53121W        W24792  22.092  19.116  11.536
53122W        W24793   1.332  34.468   3.093
53123W        W24794  23.038  31.481   4.320
53124W        W24795  37.603  15.145   0.309
53125W        W24796  19.706   0.070   0.746
53126W        W24797  37.449  10.681   4.788
53127W        W24798  24.712  28.072  11.070
53128W        W24799  36.404   2.689  12.769
53129W        W24800   6.700  21.024  11.485
53130W        W24801  16.513  34.182  14.948
53131W        W24802  19.592  13.705  13.541
53132W        W24803  36.430  40.408   0.170
53133W        W24804  24.336   9.129  13.023
53134W        W24805  23.694   8.346   0.899
53135W        W24806  16.332  42.493   0.794
53136W        W24807   4.144  22.211   0.568
53137W        W24808  12.878  10.194   1.374
53138W        W24809  42.296  20.837  14.483
53139W        W24810  31.620  31.306   3.746
53140W        W24811  42.363  36.504  12.618
53141W        W24812   3.510  38.080  13.331
53142W        W24813  26.994  22.300   1.384
53143W        W24814  17.812  19.695  14.633
53144W        W24815  26.100  13.508  11.683
53145W        W24816  26.527  30.915   1.334
53146W        W24817  42.359  33.098  14.479
53147W        W24818   8.882   2.177  11.206
53148W        W24819  32.773  11.743   3.186
53149W        W24820  27.555  35.481   0.785
53150W        W24821  40.745  21.463   3.132
53151W        W24822  16.134  42.895   3.874
53152W        W24823  31.878   9.812   0.495
53153W        W24824   7.648  21.816  14.781
53154W        W24825  14.162  12.813  14.756
53155W        W24826   8.049  37.640  11.826
53156W        W24827  22.833  33.799   5.023
53157W        W24828  31.067  17.845   2.867
53158W        W24829   4.678  34.085  11.150
53159W        W24830  15.158   2.570   4.529
53160W        W24831  25.932  33.669  11.058
53161W        W24832  30.214  34.333  14.887
53162W        W24833  36.904  30.505   4.685
53163W        W24834  22.462  39.090   4.790
53164W        W24835  23.667  42.491   3.217
53165W        W24836  44.910  20.366  10.162
53166W        W24837  34.920  23.002  13.464
53167W        W24838  40.547   5.008   2.203
53168W        W24839   3.777  44.980   2.715
53169W        W24840   3.384  39.519  13.514
53170W        W24841   5.470   5.872  14.995
53171W        W24842   8.733   2.675  11.136
53172W        W24843  22.683  31.917  10.252
53173W        W24844   0.319   3.710   0.279
53174W        W24845  32.603  27.418  13.839
53175W        W24846   0.996  19.589  13.515
53176W        W24847  42.936  42.067  12.920
53177W        W24848  14.090  13.322  12.066
53178W        W24849  39.560  36.114  11.671
53179W        W24850  42.372  29.901   2.813
53180W        W24851  18.485  41.396  14.797
53181W        W24852  34.992  14.955   4.583
53182W        W24853  33.047  29.231  10.931
53183W        W24854  14.433   5.927   2.170
53184W        W24855  22.597  44.434   0.838
53185W        W24856  22.576   1.379   3.442
53186W        W24857  20.815   3.871  14.964
53187W        W24858  25.979  18.638   4.215
53188W        W24859  40.471  12.336  13.364
53189W        W24860   9.154   0.822   2.307
53190W        W24861   5.670   0.296  13.920
53191W        W24862  20.272  39.818  13.548
53192W        W24863  41.495  16.758  12.063
53193W        W24864  13.079  25.087  12.049
53194W        W24865  28.003  30.990  14.027
53195W        W24866  19.514  40.448   1.254
53196W        W24867  43.050  41.588  13.945
53197W        W24868   5.377  22.764   2.863
53198W        W24869  25.334  39.115   0.867
53199W        W24870  10.378  29.420   1.272
53200W        W24871   4.699  31.968   2.387
53201W        W24872  41.917  28.254  14.991
53202W        W24873  37.913   0.722  14.912
53203W        W24874  27.548  38.458  11.037
53204W        W24875  27.424  21.906  11.294
53205W        W24876  25.488  32.652   3.129
53206W        W24877  42.705  39.958  12.023
53207W        W24878   9.636  38.727  11.137
53208W        W24879  30.575  22.459  10.812
53209W        W24880  30.097  11.246   3.636
53210W        W24881  30.356  34.240  11.630
53211W        W24882   1.773  36.554   3.956
53212W        W24883  34.611   0.320  12.496
53213W        W24884  31.147  44.287   3.328
53214W        W24885   3.276  37.490   4.535
53215W        W24886  33.879  37.351  13.955
53216W        W24887  27.806  11.372   4.206
53217W        W24888  22.643  15.141   0.381
53218W        W24889   0.026  25.846   0.820
53219W        W24890   7.986   5.514   1.025
53220W        W24891  19.553   1.736  13.533
53221W        W24892   3.489  36.357   0.904
53222W        W24893  20.216  29.940  11.981
53223W        W24894  13.244  18.163  10.701
53224W        W24895  28.464  18.144  13.072
53225W        W24896   6.712  22.952  13.186
53226W        W24897   2.987  30.489  14.299
53227W        W24898   5.188  41.531  12.225
53228W        W24899  37.461  13.872   0.854
53229W        W24900  15.617  10.716  12.507
53230W        W24901  17.060   8.610   1.950
53231W        W24902  42.892  32.140  11.187
53232W        W24903  17.087   0.288  10.505
53233W        W24904  26.396  15.669   4.052
53234W        W24905  44.464  16.125   4.920
53235W        W24906  26.778  13.669  13.880
53236W        W24907  31.444  13.084   1.604
53237W        W24908  36.928  29.728  14.351
53238W        W24909  16.528  41.432   4.777
53239W        W24910  37.841   9.422   4.186
53240W        W24911  22.807  40.650   0.934
53241W        W24912   7.316  16.941   0.755
53242W        W24913  37.171  21.367   1.572
53243W        W24914  32.199   8.263  11.317
53244W        W24915   2.079  23.860   2.667
53245W        W24916   3.900  23.942   3.318
53246W        W24917  31.599  44.910  11.083
53247W        W24918  23.320  15.338   0.055
53248W        W24919   6.357  23.083  11.116
53249W        W24920   8.767  38.622   0.346
53250W        W24921   0.571  42.714   4.341
53251W        W24922  44.774  27.438  14.372
53252W        W24923  24.673   7.713  12.145
53253W        W24924  24.322  29.065   2.596
53254W        W24925  28.138  14.535   2.188
53255W        W24926  12.130   1.240   3.548
53256W        W24927  26.204  24.976  13.545
53257W        W24928  15.450  24.713   4.715
53258W        W24929   0.376  11.345  14.282
53259W        W24930   5.413  18.010  11.660
53260W        W24931  42.456  23.164  13.918
53261W        W24932   1.983  12.688  11.836
53262W        W24933   2.816  22.996  13.136
53263W        W24934   1.271  30.997   0.669
53264W        W24935  22.606  26.080   3.248
53265W        W24936  44.713  19.627  13.898
53266W        W24937  34.644  32.084  13.623
53267W        W24938  22.790  14.533  10.334
53268W        W24939  26.968   2.939  11.569
53269W        W24940  40.552  29.684   2.721
53270W        W24941  41.261  36.874  12.933
53271W        W24942  35.922  37.451   1.763
53272W        W24943  15.094   3.244   0.963
53273W        W24944  20.763  31.140   3.261
53274W        W24945  11.967  18.494   0.545
53275W        W24946  29.889  17.287  13.952
53276W        W24947  34.024  19.154  13.911
53277W        W24948  36.781  17.483  13.685
53278W        W24949  19.181  38.465  13.254
53279W        W24950  27.775  34.907   2.863
53280W        W24951   9.079   2.475   3.240
53281W        W24952  29.411  10.866   3.498
53282W        W24953  22.085  27.604   0.025
53283W        W24954  43.810   4.818   0.188
53284W        W24955   9.943   8.431  14.933
53285W        W24956  28.190   5.852   0.834
53286W        W24957  19.361  24.862  10.979
53287W        W24958  27.865   9.694  11.896
53288W        W24959   7.625   1.711  11.644
53289W        W24960  41.252  30.403   4.060
53290W        W24961   3.807  42.221   2.186
53291W        W24962  25.409   3.594   1.383
53292W        W24963  44.784  28.078  11.989
53293W        W24964  40.822  35.471   3.683
53294W        W24965  24.547   3.684  12.600
53295W        W24966   9.241  17.106  14.467
53296W        W24967  37.597  30.459   0.847
53297W        W24968  39.543  31.508   1.787
53298W        W24969  27.735   3.432  11.570
53299W        W24970  38.757   9.104   1.443
53300W        W24971  16.173  22.148   4.595
53301W        W24972  13.316  31.424   1.439
53302W        W24973  34.616   6.500   4.992
53303W        W24974  30.195   3.941   2.407
53304W        W24975   4.609  42.753   1.147
53305W        W24976  14.255  20.858   4.215
53306W        W24977  20.852   3.851   0.524
53307W        W24978  19.977  23.187  14.687
53308W        W24979  25.607   1.905   0.410
53309W        W24980  22.726  25.168  14.298
53310W        W24981  35.097  19.174   0.845
53311W        W24982  30.642  15.601   4.093
53312W        W24983   0.925  44.275  14.227
53313W        W24984  11.415   5.422   3.639
53314W        W24985  42.811  44.830   4.981
53315W        W24986  41.090   3.842   0.948
53316W        W24987  26.004  31.690  13.537
53317W        W24988  29.624  13.776  12.047
53318W        W24989  38.745  20.612  12.354
53319W        W24990   9.296  22.745   4.366
53320W        W24991  39.532  43.564   2.723
53321W        W24992   3.090  14.694  11.752
53322W        W24993  28.992   8.799  11.489
53323W        W24994  19.134   5.919  10.422
53324W        W24995  32.557  42.010   0.200
53325W        W24996  40.472  27.367   2.930
53326W        W24997  13.204  22.807   0.002
53327W        W24998  28.685  24.566   1.408
53328W        W24999   9.264  27.191  12.527
53329W        W25000  28.898  11.741  11.241
53330W        W25001  35.665   1.393   1.158
53331W        W25002  29.499  36.949  11.594
53332W        W25003  27.421   1.804   0.274
53333W        W25004  10.251  30.631  10.277
53334W        W25005  33.766  26.007   3.968
53335W        W25006  38.162  19.833   5.031
53336W        W25007  42.919  27.001  11.853
53337W        W25008  12.982  34.477  12.984
53338W        W25009  33.370   5.159   3.860
53339W        W25010  27.470  19.011   1.980
53340W        W25011  28.190   4.299   3.732
53341W        W25012  17.101  14.678  14.101
53342W        W25013   1.186  42.442  11.563
53343W        W25014   0.170  40.910  14.468
53344W        W25015  38.943  41.418  13.058
53345W        W25016  24.392  32.385   1.358
53346W        W25017   7.291  37.489   4.152
53347W        W25018  36.081  27.441  11.236
53348W        W25019  15.105  29.689  13.517
53349W        W25020  34.150   6.178  11.569
53350W        W25021  24.901  37.400   3.724
53351W        W25022  26.460  18.090   1.076
53352W        W25023  33.500  21.026  14.477
53353W        W25024  27.746  20.523   0.376
53354W        W25025  12.456  20.263   0.742
53355W        W25026  43.960  31.994   0.891
53356W        W25027   8.876  39.157   3.855
53357W        W25028  37.846  28.361   0.391
53358W        W25029  37.026  33.570  13.529
53359W        W25030   8.271   6.826   0.870
53360W        W25031  27.502  17.983   2.735
53361W        W25032  29.636  24.397  13.895
53362W        W25033  24.257  18.600   2.097
53363W        W25034  15.995  14.275   3.597
53364W        W25035  20.712  42.046  14.554
53365W        W25036  17.630  15.546  12.788
53366W        W25037  44.773  15.194   0.837
53367W        W25038  19.164  19.079  14.389
53368W        W25039  33.107  41.662  11.408
53369W        W25040  12.385  31.491  12.927
53370W        W25041   6.872   4.361  14.303
53371W        W25042  10.228  13.012  14.021
53372W        W25043  21.033  33.003  12.146
53373W        W25044  32.002  19.955   1.920
53374W        W25045  33.515  32.909   3.202
53375W        W25046  19.162  21.523   3.026
53376W        W25047  22.084   1.762  12.872
53377W        W25048  37.602  10.299  11.617
53378W        W25049  22.568  19.968   2.914
53379W        W25050  14.793  27.045   1.702
53380W        W25051  29.567   5.263   1.382
53381W        W25052  38.567  35.153   2.235
53382W        W25053   1.406  20.650  14.693
53383W        W25054  27.175   6.374   3.525
53384W        W25055  29.498  10.680   1.642
53385W        W25056  29.738   7.382   1.425
53386W        W25057   7.643  20.150  14.539
53387W        W25058   3.238   8.245  12.009
53388W        W25059  43.918  20.298  12.538
53389W        W25060  16.099  18.716   4.630
53390W        W25061  12.173  41.827   1.565
53391W        W25062  23.103  42.786   0.433
53392W        W25063  19.330  27.445   1.347
53393W        W25064  31.427  23.209   0.845
53394W        W25065  43.246  14.858  14.014
53395W        W25066  32.109  17.114   0.831
53396W        W25067   1.831  10.285  11.694
53397W        W25068   0.460  11.487  11.930
53398W        W25069  30.137  34.583   1.648
53399W        W25070   4.664  17.809   5.003
53400W        W25071   2.164   2.511   3.718
53401W        W25072   5.933   9.402  12.456
53402W        W25073  13.778  29.218   0.801
53403W        W25074  30.012  28.230   1.073
53404W        W25075  34.208  43.776  13.138
53405W        W25076   6.345   3.375  14.031
53406W        W25077  22.563  32.612  11.624
53407W        W25078  41.956  34.052   4.191
53408W        W25079  28.445  10.293   1.630
53409W        W25080  30.453  20.835   3.812
53410W        W25081  26.307   9.458  10.730
53411W        W25082  35.699  20.103   2.234
53412W        W25083   1.550  10.848  12.521
53413W        W25084  32.574  39.511   2.195
53414W        W25085  18.358   6.683   1.817
53415W        W25086   2.585  23.138  10.270
53416W        W25087   5.684   5.782   1.324
53417W        W25088  23.202  33.786   3.154
53418W        W25089  37.738  29.139   2.260
53419W        W25090  22.652  38.311   5.104
53420W        W25091  11.348  44.644  14.900
53421W        W25092   9.755  12.583  13.322
53422W        W25093  10.955  42.399   1.569
53423W        W25094  31.466  38.009   0.503
53424W        W25095  11.412  43.925  13.523
53425W        W25096   6.460  40.816   3.711
53426W        W25097  41.590  38.961  11.595
53427W        W25098  11.160  19.123   4.181
53428W        W25099  35.808   4.675   4.112
53429W        W25100  10.072  13.451  11.463
53430W        W25101  28.367  22.505  10.644
53431W        W25102  44.399  11.090   2.126
53432W        W25103  18.702  17.927  10.017
53433W        W25104  43.793  17.502   1.197
53434W        W25105  15.828   1.030  12.215
53435W        W25106  13.289  15.254   4.695
53436W        W25107  44.392  11.584   2.249
53437W        W25108  30.503  35.078  14.251
53438W        W25109   8.268   9.608  13.971
53439W        W25110  26.209  35.275   0.294
53440W        W25111   5.956  36.044   0.848
53441W        W25112  38.506  12.415  12.258
53442W        W25113  35.150  14.838   0.882
53443W        W25114  27.151   4.366   0.280
53444W        W25115  36.547   2.810  13.918
53445W        W25116  44.469  10.155   5.145
53446W        W25117   9.799   3.822  11.124
53447W        W25118   6.874   8.187   2.841
53448W        W25119  11.388   5.112   4.578
53449W        W25120   6.891   9.376   0.976
53450W        W25121   5.333  22.290   2.660
53451W        W25122  22.860   4.182  13.539
53452W        W25123   2.235  34.613   2.138
53453W        W25124  23.210  43.896  13.895
53454W        W25125   7.285  13.712   4.488
53455W        W25126  43.970  15.384   1.366
53456W        W25127   0.204  12.357  13.089
53457W        W25128   2.052  28.678   4.179
53458W        W25129   6.335   9.312  14.795
53459W        W25130   7.160  37.285   3.706
53460W        W25131  17.610  32.408  12.740
53461W        W25132  18.335   3.755  14.900
53462W        W25133  11.418  27.578  11.272
53463W        W25134  10.541  41.643  12.817
53464W        W25135   9.768  14.566   4.207
53465W        W25136  34.320  37.898   2.277
53466W        W25137  30.169  13.033   3.324
53467W        W25138  30.080   0.076  13.844
53468W        W25139  15.131  37.406  14.325
53469W        W25140  27.717  20.039   0.731
53470W        W25141  30.548  34.624   4.654
53471W        W25142  32.778  23.381   2.801
53472W        W25143   3.943   0.730  11.921
53473W        W25144  40.337  13.402   1.283
53474W        W25145   1.379  38.518  11.408
53475W        W25146  14.252  19.807  11.161
53476W        W25147   7.866   3.700  11.090
53477W        W25148  40.275  43.946   4.331
53478W        W25149  36.078  22.489  11.260
53479W        W25150  24.331  34.444   4.186
53480W        W25151  14.516  18.806   3.749
53481W        W25152  18.771   6.803  13.522
53482W        W25153  39.868   4.477   3.258
53483W        W25154  26.894  36.134  14.085
53484W        W25155  24.509  26.997   1.515
53485W        W25156  13.619   5.708  11.515
53486W        W25157  36.368  36.473   2.701
53487W        W25158  27.423  15.245  11.233
53488W        W25159   1.053  28.463  12.883
53489W        W25160  13.356   6.661  14.444
53490W        W25161  19.522  25.870   0.592
53491W        W25162  14.472  23.175   1.784
53492W        W25163  28.057  44.119   0.079
53493W        W25164  35.395  18.009   1.805
53494W        W25165   0.500  42.258  10.999
53495W        W25166  39.071  23.689   2.129
53496W        W25167  11.894   2.065   1.000
53497W        W25168   7.849  28.133  14.459
53498W        W25169  39.852   5.162  11.123
53499W        W25170   0.230  27.111   1.128
53500W        W25171   0.901  34.253  11.240
53501W        W25172  12.657  27.855   2.898
53502W        W25173  34.039  12.402  12.575
53503W        W25174  22.627  35.646  10.739
53504W        W25175   0.326  22.956   5.464
53505W        W25176  29.524  12.518   4.329
53506W        W25177  31.968  24.296  13.843
53507W        W25178   8.813  34.672  12.131
53508W        W25179  16.261  25.166  12.884
53509W        W25180  40.450  19.685   0.222
53510W        W25181  28.145  16.586  13.067
53511W        W25182  18.794  31.573   4.420
53512W        W25183   6.096  15.295  11.197
53513W        W25184  16.609  24.187   1.662
53514W        W25185  15.781  39.115   5.154
53515W        W25186  40.478  22.589   4.373
53516W        W25187   1.551  43.918   0.747
53517W        W25188  37.009  38.528  11.853
53518W        W25189  32.282  33.641  14.076
53519W        W25190  33.863  12.855  11.832
53520W        W25191  43.874   1.011  13.599
53521W        W25192   3.118  31.589  11.025
53522W        W25193  43.362  18.633   1.099
53523W        W25194  14.804  44.225  14.250
53524W        W25195  44.118  35.131  14.786
53525W        W25196  44.213  23.140   3.761
53526W        W25197  41.352  17.097   3.141
53527W        W25198  28.788  35.426  12.524
53528W        W25199  21.744  41.657   4.643
53529W        W25200   0.367   3.463   1.944
53530W        W25201  39.563  11.769   3.281
53531W        W25202  41.325  17.798   2.632
53532W        W25203   8.924  38.088   2.710
53533W        W25204  41.430  35.310  12.892
53534W        W25205  41.306  23.619   2.862
53535W        W25206  34.582  20.493   0.759
53536W        W25207  23.241  32.997  11.704
53537W        W25208  36.535  35.736  10.696
53538W        W25209   7.360  32.651   4.637
53539W        W25210  29.048  10.776  14.001
53540W        W25211  27.433  15.325   4.650
53541W        W25212  13.410   7.121  10.244
53542W        W25213  26.106  37.806  11.201
53543W        W25214   4.809  39.894  11.987
53544W        W25215  35.531   8.991   3.675
53545W        W25216  24.230  28.470   0.520
53546W        W25217  12.175   7.370   4.415
53547W        W25218  19.339  14.115   4.133
53548W        W25219  37.565   1.833   2.446
53549W        W25220  33.481   4.762   4.696
53550W        W25221   5.482  32.749  14.786
53551W        W25222  41.327  43.488  13.634
53552W        W25223  22.663  15.290   4.690
53553W        W25224  12.704  28.377   2.844
53554W        W25225  24.065  23.186  10.562
53555W        W25226  20.304   9.332  12.418
53556W        W25227  44.801  33.631   4.011
53557W        W25228  15.422   3.683   4.576
53558W        W25229  44.083  24.058  13.869
53559W        W25230  19.664   7.315   1.982
53560W        W25231  12.426  26.110   1.292
53561W        W25232  43.033  21.275  10.257
53562W        W25233  28.000  42.104  12.992
53563W        W25234  33.476   3.252   2.209
53564W        W25235  16.726  12.629   1.872
53565W        W25236  20.708  32.673   1.736
53566W        W25237   5.426  16.273  13.871
53567W        W25238  42.771  34.104  14.258
53568W        W25239  10.662  20.140   1.266
53569W        W25240  25.192   3.599   0.907
53570W        W25241   9.112  28.500   4.928
53571W        W25242   5.780  32.653   4.623
53572W        W25243  17.741  38.042  13.547
53573W        W25244   5.788  16.940   3.581
53574W        W25245  43.487  36.934   4.120
53575W        W25246  20.039  14.864   3.205
53576W        W25247  26.702  37.841  14.860
53577W        W25248  24.544   9.423  14.353
53578W        W25249  32.515  34.074   3.239
53579W        W25250  32.193  39.890   3.182
53580W        W25251  31.531  16.542  12.394
53581W        W25252  34.100  14.336  14.543
53582W        W25253  12.660  25.288   3.895
53583W        W25254  17.630  20.174  13.930
53584W        W25255  10.400  21.253  14.924
53585W        W25256  37.008  28.470   0.662
53586W        W25257  24.161  22.617  10.708
53587W        W25258  12.810  44.943   0.037
53588W        W25259  22.526   8.173  14.275
53589W        W25260  43.586  31.879  12.738
53590W        W25261  32.284  23.031  13.355
53591W        W25262  16.657   6.746   1.316
53592W        W25263  15.848  34.119   4.266
53593W        W25264  38.768   6.447   1.699
53594W        W25265  44.905   8.452  13.856
53595W        W25266  14.373  21.140  11.649
53596W        W25267  38.896   1.994  11.255
53597W        W25268   3.444  29.670   1.965
53598W        W25269  41.974  26.659  12.685
53599W        W25270  34.066  18.546   4.080
53600W        W25271  29.685   8.771   2.375
53601W        W25272  36.814  32.852   1.852
53602W        W25273   7.242  30.394   4.599
53603W        W25274  31.932  16.256  12.565
53604W        W25275  25.871  22.671   5.026
53605W        W25276   1.851  20.311   5.285
53606W        W25277  35.373   2.045  13.968
53607W        W25278   6.932  28.089   2.290
53608W        W25279   2.753  21.550   4.699
53609W        W25280  33.848  30.992  10.706
53610W        W25281  39.579  17.444   2.257
53611W        W25282  18.099  32.358   1.262
53612W        W25283  31.744  32.549   0.855
53613W        W25284  31.431  26.955  14.486
53614W        W25285   7.797  30.406   3.715
53615W        W25286  21.945  41.865   4.154
53616W        W25287   4.861  34.503  14.182
53617W        W25288  30.374   5.820   1.654
53618W        W25289  25.540  20.835   2.782
53619W        W25290   7.139   7.878  12.981
53620W        W25291   2.536  12.121   5.026
53621W        W25292  35.485  41.889  10.652
53622W        W25293  13.624  34.632  11.082
53623W        W25294  15.393  36.340   1.763
53624W        W25295  43.261   9.447   3.373
53625W        W25296  32.557   8.385   2.912
53626W        W25297   4.755  27.469   3.322
53627W        W25298  10.673  14.089  13.850
53628W        W25299  44.949  29.557  11.440
53629W        W25300  33.684  35.000   2.312
53630W        W25301  18.426   4.214  12.369
53631W        W25302  27.936  11.536   5.070
53632W        W25303  24.881   3.678  11.751
53633W        W25304  37.589  35.326   1.703
53634W        W25305   4.995   4.252   1.761
53635W        W25306  21.168  40.144   4.366
53636W        W25307  32.049  41.454  10.323
53637W        W25308   4.862  25.992   2.325
53638W        W25309   7.924  39.338   0.353
53639W        W25310  21.257  26.626  11.189
53640W        W25311  23.491  20.131   4.498
53641W        W25312  38.925  21.942  13.877
53642W        W25313  32.362  24.496  10.776
53643W        W25314  22.204  21.941  14.860
53644W        W25315  16.962  41.116   0.728
53645W        W25316  20.192  34.537   3.862
53646W        W25317  24.023  35.125   3.620
53647W        W25318  38.851  12.073   3.652
53648W        W25319  10.798  34.512  10.470
53649W        W25320  38.324  10.546  13.893
53650W        W25321  17.243  23.032  12.446
53651W        W25322   7.049  31.674  11.203
53652W        W25323  26.564  25.629  14.296
53653W        W25324  37.364  17.829   0.373
53654W        W25325  19.937  24.115  13.909
53655W        W25326  18.643  38.466   3.641
53656W        W25327  36.342  35.254  10.762
53657W        W25328  42.858  19.959   4.056
53658W        W25329  33.605  26.498   3.853
53659W        W25330  30.157  42.000  11.676
53660W        W25331  44.746  41.777   0.345
53661W        W25332  42.959  27.573   1.902
53662W        W25333  29.375  27.168  11.095
53663W        W25334  26.709  32.262   4.259
53664W        W25335  43.981  16.198   0.199
53665W        W25336  21.156   3.646   3.384
53666W        W25337  33.448  40.886  12.811
53667W        W25338  42.021   3.449  12.766
53668W        W25339  31.412   8.416   1.903
53669W        W25340  23.734  10.955  11.478
53670W        W25341  32.944  17.220   0.974
53671W        W25342  23.594  41.244  10.917
53672W        W25343  31.756  20.732  10.817
53673W        W25344  28.416   5.612  13.139
53674W        W25345  43.183  35.914  12.454
53675W        W25346  31.701  43.677  11.098
53676W        W25347  16.685   2.540  10.649
53677W        W25348   1.659  25.528  11.727
53678W        W25349  28.649  30.258  10.375
53679W        W25350  22.628  29.067   2.708
53680W        W25351  21.990  25.162   3.706
53681W        W25352  17.113  11.023   4.412
53682W        W25353   9.139   9.131  13.833
53683W        W25354  17.826  44.673   4.525
53684W        W25355  41.653  38.132  14.823
53685W        W25356  13.956   5.220   1.767
53686W        W25357  41.765   2.682  12.712
53687W        W25358  42.892  19.858  11.323
53688W        W25359  43.422  33.172  14.843
53689W        W25360  16.113   3.470  14.590
53690W        W25361  41.570  24.948  12.545
53691W        W25362   5.993  42.743   4.752
53692W        W25363   4.418  44.845  14.284
53693W        W25364  16.584  42.768  14.939
53694W        W25365   9.182  44.936  10.584
53695W        W25366  42.308  22.145  10.652
53696W        W25367  31.578   1.467   4.377
53697W        W25368   1.279  38.212   3.275
53698W        W25369  21.048   5.556   2.240
53699W        W25370  16.698  22.195   4.583
53700W        W25371  12.993  43.506  11.139
53701W        W25372  42.949   8.426  13.335
53702W        W25373   7.932   8.550   3.267
53703W        W25374  25.548  22.208  14.003
53704W        W25375  11.404  26.749   4.296
53705W        W25376  37.064   2.679   4.772
53706W        W25377  11.594  44.468   1.203
53707W        W25378  34.666   6.774   0.746
53708W        W25379   0.392  23.733   0.390
53709W        W25380  41.384  19.712  11.943
53710W        W25381  38.810  16.163   3.372
53711W        W25382  18.524  12.191  14.239
53712W        W25383   5.010  14.581   2.333
53713W        W25384  30.623  32.408  11.613
53714W        W25385  23.081  26.071   1.006
53715W        W25386   3.316  16.527  12.523
53716W        W25387   5.719   6.191  13.885
53717W        W25388  37.526  37.298   0.929
53718W        W25389  21.983  34.048   4.823
53719W        W25390  35.776  32.600  10.648
53720W        W25391  29.061   1.535   4.138
53721W        W25392   4.183  38.804  11.620
53722W        W25393  42.380  44.357   4.154
53723W        W25394  34.567  39.013   5.196
53724W        W25395  28.077  31.851   4.268
53725W        W25396  33.442  36.124   4.656
53726W        W25397   2.280  24.484  13.531
53727W        W25398  37.521  35.427   3.429
53728W        W25399   6.203   0.337   1.270
53729W        W25400   7.212  43.329  10.724
53730W        W25401   9.630  44.782   2.267
53731W        W25402  39.849   0.505   2.332
53732W        W25403  24.477  37.323   3.397
53733W        W25404  36.511  31.164  14.953
53734W        W25405  34.942  19.352   4.988
53735W        W25406   8.659  28.150   0.783
53736W        W25407  29.837  29.495   4.615
53737W        W25408  42.088  25.437  13.090
53738W        W25409  38.828   7.664   1.598
53739W        W25410  17.760   0.714   1.299
53740W        W25411  42.981   2.027  11.989
53741W        W25412  25.550  12.410   4.143
53742W        W25413  21.696   1.343   3.457
53743W        W25414  19.330  33.150   3.412
53744W        W25415  28.537  25.712  14.288
53745W        W25416  26.263   4.144   0.289
53746W        W25417  13.310  37.529   1.694
53747W        W25418  35.288  11.224   0.007
53748W        W25419  36.906  11.142   3.685
53749W        W25420  23.413  42.767  14.091
53750W        W25421  26.579  43.720   1.003
53751W        W25422  38.913  35.645  13.498
53752W        W25423  18.722   4.872  12.095
53753W        W25424  37.593  16.760  11.001
53754W        W25425  40.517  26.111   0.765
53755W        W25426  26.374   7.816   0.189
53756W        W25427  21.193  15.655  13.729
53757W        W25428  44.764  39.356   9.837
53758W        W25429  36.240  10.217  13.917
53759W        W25430   1.797  13.041  13.866
53760W        W25431  37.281   0.446  11.608
53761W        W25432  25.239  33.082   3.851
53762W        W25433  16.477  32.062   0.471
53763W        W25434   4.549  43.439  14.421
53764W        W25435  41.439  35.826  12.900
53765W        W25436   5.461  34.144  12.617
53766W        W25437  25.865   4.208   0.619
53767W        W25438  34.029   6.674  10.724
53768W        W25439  14.669  24.057   4.963
53769W        W25440  20.941   1.238   3.657
53770W        W25441   0.513   7.816   3.284
53771W        W25442  15.105  13.089  11.099
53772W        W25443  23.166  12.213   3.059
53773W        W25444  40.335  17.780  12.680
53774W        W25445  17.116  23.648   1.414
53775W        W25446  36.099  15.423  12.995
53776W        W25447  25.146  12.323  14.461
53777W        W25448  19.315   0.532   0.370
53778W        W25449  35.659  20.977  14.347
53779W        W25450  27.145  11.730   4.190
53780W        W25451  20.888   1.797  12.079
53781W        W25452   7.133   6.714  14.785
53782W        W25453  25.498  36.235  10.658
53783W        W25454   2.548  25.293  12.529
53784W        W25455  25.016  24.013  14.339
53785W        W25456   7.253  13.447  13.153
53786W        W25457  32.379  14.494   0.121
53787W        W25458  42.263   8.577   0.719
53788W        W25459  33.417   2.633   0.913
53789W        W25460  32.603  40.010  14.916
53790W        W25461   6.715  20.643  12.438
53791W        W25462  39.899  10.747  12.337
53792W        W25463  23.503   5.826  10.784
53793W        W25464  16.693  22.500  13.874
53794W        W25465  30.153  42.394   3.905
53795W        W25466   8.361  41.779   0.808
53796W        W25467  16.342  35.575  13.979
53797W        W25468  31.062  22.656   4.405
53798W        W25469  26.997  23.992  13.622
53799W        W25470  38.419   4.845  12.086
53800W        W25471  16.683  24.035  10.554
53801W        W25472  10.730  44.285  10.621
53802W        W25473  15.180  30.032  11.742
53803W        W25474   3.931  15.537   0.437
53804W        W25475  27.601  18.638   0.773
53805W        W25476   9.172   9.446  13.391
53806W        W25477   5.418  27.718  13.979
53807W        W25478   1.378  41.288   1.805
53808W        W25479   3.513  24.619   1.741
53809W        W25480  39.745   5.352   2.272
53810W        W25481  10.669   4.674   4.286
53811W        W25482  39.243  43.681   3.158
53812W        W25483   1.315  23.141   9.831
53813W        W25484  44.979   1.158  12.015
53814W        W25485  26.411  15.537   1.751
53815W        W25486  20.346  15.140  13.371
53816W        W25487  36.470   3.214   3.257
53817W        W25488  41.924   2.047  10.661
53818W        W25489  27.648  13.695   4.386
53819W        W25490  35.780  42.642  11.091
53820W        W25491  17.275   1.007  13.882
53821W        W25492   9.763  18.605  14.374
53822W        W25493  19.945  28.167  14.903
53823W        W25494  11.348  41.231   3.186
53824W        W25495  42.572  29.616   3.689
53825W        W25496  26.453   5.602  14.390
53826W        W25497  28.048  42.466  10.120
53827W        W25498  41.433   9.496   4.148
53828W        W25499  13.807  27.652  10.691
53829W        W25500  12.453  44.414   2.168
53830W        W25501  20.366  33.549  12.058
53831W        W25502   4.247  23.401   0.960
53832W        W25503  21.219  11.308  11.648
53833W        W25504  41.807  12.747  12.677
53834W        W25505  20.727  15.953  12.041
53835W        W25506  36.792   7.811   0.633
53836W        W25507  34.977  23.985  12.097
53837W        W25508   4.809  19.134  13.613
53838W        W25509  26.906   7.183  10.521
53839W        W25510  29.094  19.510  12.583
53840W        W25511  20.514  13.854   1.409
53841W        W25512  15.561  39.741  10.676
53842W        W25513  22.540  37.211   3.792
53843W        W25514   0.748   8.717   0.808
53844W        W25515   0.404  38.479   3.591
53845W        W25516  25.079  22.125   2.879
53846W        W25517   0.950   1.012   3.817
53847W        W25518   7.276  12.099   3.295
53848W        W25519   6.405  39.033  14.922
53849W        W25520  15.086  36.084  12.353
53850W        W25521   0.723   7.134  13.395
53851W        W25522   4.474  29.189   2.757
53852W        W25523  36.434  10.413  10.765
53853W        W25524  44.023  20.305   2.975
53854W        W25525  14.185  33.375   0.383
53855W        W25526   1.965  18.799   4.508
53856W        W25527   6.907   9.091   0.516
53857W        W25528  39.661  34.495  11.986
53858W        W25529  18.574  21.667  13.818
53859W        W25530   3.674   6.993  11.624
53860W        W25531  17.690  25.088  13.966
53861W        W25532   7.758  29.332  11.639
53862W        W25533  26.445  15.150   0.427
53863W        W25534  36.587  38.081  13.576
53864W        W25535   1.356  13.055   1.573
53865W        W25536  35.034  26.058  12.456
53866W        W25537  15.602   0.493   3.941
53867W        W25538  42.093  13.315  11.583
53868W        W25539  30.543  23.078   3.179
53869W        W25540  41.006  44.473  14.927
53870W        W25541   7.459  25.441   1.276
53871W        W25542  37.754  41.284   0.573
53872W        W25543  44.718  15.736  11.005
53873W        W25544   8.590  43.974  11.177
53874W        W25545  28.224  21.206  14.703
53875W        W25546  20.045   3.615   0.720
53876W        W25547  31.693  39.988  10.705
53877W        W25548  29.078   2.035   4.279
53878W        W25549  24.513  15.207  12.516
53879W        W25550  31.840  20.614  11.919
53880W        W25551  38.589   4.823  14.763
53881W        W25552  41.028  12.778   3.612
53882W        W25553  38.933  23.327   3.306
53883W        W25554  35.958  14.894   0.267
53884W        W25555  12.213   6.925   4.105
53885W        W25556  37.316  33.113   4.541
53886W        W25557   0.321  23.652  14.228
53887W        W25558   5.790   9.619   1.628
53888W        W25559  22.722  40.466   1.909
53889W        W25560  33.753  17.149   5.168
53890W        W25561  14.294  35.582  13.303
53891W        W25562  21.280  30.438   2.421
53892W        W25563   2.493  29.029  12.357
53893W        W25564  15.354  10.396   4.526
53894W        W25565  28.112  38.097   3.253
53895W        W25566  17.991  33.482  11.367
53896W        W25567  35.047  43.972  13.762
53897W        W25568  10.795   3.895   3.693
53898W        W25569  28.081  17.333  13.518
53899W        W25570   9.076  14.114   3.169
53900W        W25571   4.120  30.327   0.931
53901W        W25572  22.245   0.322  13.224
53902W        W25573  43.258  31.334   0.074
53903W        W25574  35.577   0.940   4.117
53904W        W25575   6.969  13.104  13.424
53905W        W25576  35.099  25.214  12.277
53906W        W25577   3.435  15.521  12.385
53907W        W25578   1.805  31.442   1.136
53908W        W25579  26.551  33.829  14.535
53909W        W25580  19.529   7.439   0.364
53910W        W25581  13.182  33.365  14.002
53911W        W25582  33.194   2.760   3.018
53912W        W25583  36.127  36.118   1.516
53913W        W25584   1.983  13.074  11.437
53914W        W25585  36.091  12.347  11.164
53915W        W25586  19.094  20.845  13.619
53916W        W25587  23.718  17.205  11.101
53917W        W25588  14.570  26.722   4.926
53918W        W25589  29.113   3.245   2.710
53919W        W25590  28.735   7.395  12.032
53920W        W25591  43.844   2.482   2.776
53921W        W25592  23.270  20.319   2.237
53922W        W25593  21.068  30.918   4.580
53923W        W25594  33.957  13.176   2.140
53924W        W25595  27.210  31.981  14.298
53925W        W25596  23.077  13.189  14.361
53926W        W25597  39.131  29.993  11.201
53927W        W25598   2.821   0.902  13.275
53928W        W25599  35.633  19.091  11.041
53929W        W25600  32.598  11.571   2.386
53930W        W25601   9.808   3.992   2.142
53931W        W25602  12.314   1.791  13.275
53932W        W25603  26.556  30.904  13.317
53933W        W25604  42.034  14.823   1.318
53934W        W25605  44.504  12.521   3.125
53935W        W25606  29.191  43.225  13.285
53936W        W25607  44.016  12.318  14.608
53937W        W25608  26.817  28.119  13.457
53938W        W25609  28.664  24.070  14.015
53939W        W25610   5.754  32.408  13.043
53940W        W25611  12.660   0.856  13.542
53941W        W25612  35.365  18.768   2.180
53942W        W25613  26.504  20.031  11.165
53943W        W25614   5.800  22.417  12.921
53944W        W25615  31.591   7.250  14.682
53945W        W25616  34.795  43.498   4.143
53946W        W25617   7.936  23.089  14.746
53947W        W25618   4.439  33.571  14.445
53948W        W25619  25.010  39.786  11.939
53949W        W25620  36.453  44.253   2.226
53950W        W25621  39.577  11.831  13.845
53951W        W25622  12.564  11.232   1.436
53952W        W25623  11.785  44.731   3.252
53953W        W25624  18.831  37.118  12.948
53954W        W25625   6.766  36.368   1.066
53955W        W25626  26.076  34.885   2.767
53956W        W25627   5.876  13.845  14.761
53957W        W25628  31.250  25.924  14.101
53958W        W25629  20.151   0.210  14.487
53959W        W25630  43.395  11.337   2.276
53960W        W25631  31.145  33.192  11.226
53961W        W25632  31.051  29.625   5.143
53962W        W25633   7.794  22.171   0.862
53963W        W25634  36.435   6.517  14.388
53964W        W25635  37.725   8.423   4.697
53965W        W25636  19.199  37.404   0.630
53966W        W25637  36.588   8.647  12.534
53967W        W25638  38.443   4.937   0.238
53968W        W25639  22.093  22.531   4.210
53969W        W25640  33.945  18.077   4.290
53970W        W25641   4.153   0.844   4.262
53971W        W25642  18.086   0.755   0.236
53972W        W25643   0.247  32.873  11.186
53973W        W25644  17.340  38.024  12.192
53974W        W25645  14.082   2.262   0.489
53975W        W25646   3.240  38.847  13.916
53976W        W25647  40.658   3.323  12.984
53977W        W25648   7.449   4.938  14.029
53978W        W25649  33.931   9.874  11.892
53979W        W25650  29.533  37.414   3.999
53980W        W25651   1.297  15.686   0.978
53981W        W25652  12.594   2.740   3.232
53982W        W25653   2.904  24.668   2.415
53983W        W25654  33.858  21.956   2.655
53984W        W25655  13.221  12.436  13.408
53985W        W25656  10.771  35.550  13.366
53986W        W25657  44.542   6.185  13.841
53987W        W25658  11.711  14.649  14.831
53988W        W25659  29.240   8.776   0.768
53989W        W25660  22.703  18.246   3.161
53990W        W25661  35.456  13.360   3.877
53991W        W25662   9.844  42.373   2.573
53992W        W25663  31.506  16.786   0.219
53993W        W25664  39.068  19.477  11.456
53994W        W25665  27.157  29.699   2.708
53995W        W25666  19.872  22.109  13.660
53996W        W25667   1.153  19.614   1.414
53997W        W25668  37.552   4.052  11.554
53998W        W25669  21.148  18.247   2.950
53999W        W25670   7.982   6.427   4.031
54000W        W25671  12.196  15.104  14.338
54001W        W25672  32.125   8.400   1.272
54002W        W25673  35.849   7.054  12.068
54003W        W25674  29.214  13.022  14.686
54004W        W25675  33.361  23.185   3.437
54005W        W25676  29.423  15.752   5.140
54006W        W25677  28.968   5.993   4.276
54007W        W25678  16.936   6.264  12.895
54008W        W25679   6.794   5.912  11.440
54009W        W25680  41.262  43.332   3.240
54010W        W25681  34.670  33.866   0.261
54011W        W25682   1.930   1.683   0.393
54012W        W25683  14.680  34.125   4.961
54013W        W25684  28.737  27.662   4.698
54014W        W25685  11.780  27.920   2.650
54015W        W25686  20.189  16.083   1.300
54016W        W25687   3.460  34.935   4.798
54017W        W25688  42.535  20.838  13.585
54018W        W25689  38.043   5.768  11.955
54019W        W25690   0.009   9.454   4.596
54020W        W25691  30.411   8.532  14.803
54021W        W25692  20.620   4.343   0.778
54022W        W25693  14.552  34.824  12.773
54023W        W25694  13.720  27.809   4.526
54024W        W25695  10.072   3.873  11.583
54025W        W25696  38.908  36.259   5.225
54026W        W25697  11.875  40.325   0.518
54027W        W25698  32.552   3.494  11.833
54028W        W25699  34.434  15.273   3.591
54029W        W25700  14.824  22.788  13.380
54030W        W25701  23.356   9.227   0.029
54031W        W25702  30.207  17.059   0.290
54032W        W25703  44.871  23.458  13.964
54033W        W25704  24.865  17.041  11.666
54034W        W25705  36.263  38.316   0.802
54035W        W25706   1.448  15.088   1.635
54036W        W25707  21.417  29.644   2.717
54037W        W25708  38.397  31.102   4.115
54038W        W25709  32.400  26.676   3.242
54039W        W25710   1.115  12.821   3.409
54040W        W25711  30.475  16.532  12.406
54041W        W25712  35.537  21.497  10.691
54042W        W25713  19.549  11.296  10.195
54043W        W25714  38.087  35.782   2.222
54044W        W25715  26.499  35.882   3.669
54045W        W25716  33.976  22.771   1.425
54046W        W25717  26.059  25.316   3.199
54047W        W25718   2.948  15.007  13.916
54048W        W25719   7.316   1.331  11.549
54049W        W25720   1.893  11.737   4.563
54050W        W25721  34.968  18.981  14.391
54051W        W25722  10.800  29.468   1.985
54052W        W25723   0.856  22.657  10.140
54053W        W25724  18.300  25.965  12.917
54054W        W25725  36.901  33.868   4.385
54055W        W25726  33.953  41.188  12.082
54056W        W25727  22.491  29.252  10.371
54057W        W25728  31.148  42.384  12.099
54058W        W25729  23.200  42.493   0.851
54059W        W25730   6.644  26.774   1.799
54060W        W25731  34.169  38.997  11.087
54061W        W25732  23.956   1.288   0.894
54062W        W25733  21.517  11.280   3.855
54063W        W25734   7.282  39.552  14.368
54064W        W25735  43.004  25.106   0.773
54065W        W25736  24.085  10.564  11.234
54066W        W25737  42.579  32.615  14.376
54067W        W25738  44.149  19.610   1.518
54068W        W25739  16.819  36.319  11.131
54069W        W25740   4.425   1.224   0.871
54070W        W25741  15.618  30.469   4.891
54071W        W25742   2.770  18.047   0.943
54072W        W25743  37.819  30.422  12.458
54073W        W25744   7.821  25.996  11.195
54074W        W25745   9.619  23.602   4.885
54075W        W25746   4.147  31.089   2.091
54076W        W25747   9.618  34.064  11.037
54077W        W25748  24.594  44.443   3.852
54078W        W25749  39.436  37.811  11.994
54079W        W25750  34.569  38.985   3.254
54080W        W25751  17.125  22.699  11.895
54081W        W25752  32.420  31.986  12.266
54082W        W25753  14.205  40.897  10.470
54083W        W25754   9.748  41.550  11.656
54084W        W25755  19.398  20.618  11.714
54085W        W25756  18.627  18.654  14.727
54086W        W25757  39.641   3.895   2.023
54087W        W25758  22.171   5.210   4.270
54088W        W25759  18.367  43.883  12.988
54089W        W25760  27.177  10.786  12.862
54090W        W25761  17.574  15.649   1.077
54091W        W25762  42.957   5.998   2.461
54092W        W25763   4.075  28.619   4.573
54093W        W25764  38.756  44.419  14.462
54094W        W25765  21.766  24.480  11.081
54095W        W25766  14.827  10.892  13.900
54096W        W25767  34.381  23.590  12.879
54097W        W25768  18.598  33.704  14.424
54098W        W25769  30.816  43.240  14.438
54099W        W25770  21.765  11.811  11.941
54100W        W25771  42.031  23.514   3.313
54101W        W25772   7.267  27.578  11.426
54102W        W25773  29.927   5.145  14.417
54103W        W25774  43.558  27.533  12.073
54104W        W25775  15.270  29.511  12.994
54105W        W25776  31.586  37.278   3.116
54106W        W25777   7.516  39.960  14.121
54107W        W25778  14.664  28.426  12.623
54108W        W25779  37.940  36.105   4.356
54109W        W25780  10.285   6.778  14.654
54110W        W25781   9.158   6.471   3.376
54111W        W25782   2.232  23.507  13.284
54112W        W25783  19.324  31.681  11.487
54113W        W25784  44.885  28.016   1.264
54114W        W25785  38.573  43.291   1.850
54115W        W25786  34.943  29.186  13.479
54116W        W25787  32.322  30.159   0.729
54117W        W25788  40.096  13.338  12.152
54118W        W25789  38.130  23.989  14.763
54119W        W25790  29.131  37.100  12.559
54120W        W25791   8.896  20.977  14.831
54121W        W25792   6.606  16.200  14.284
54122W        W25793  42.889  32.105   3.687
54123W        W25794  31.755  36.819   1.401
54124W        W25795  11.911  21.636   4.327
54125W        W25796   6.216  31.817   4.445
54126W        W25797  36.516  35.463  12.119
54127W        W25798  41.352  43.942  12.173
54128W        W25799  11.557  30.111   1.827
54129W        W25800  37.438  29.120  10.338
54130W        W25801   2.654  16.806   4.146
54131W        W25802   8.323  30.501  11.990
54132W        W25803  33.761  19.675  11.148
54133W        W25804  16.728  11.795   1.327
54134W        W25805  43.794  43.756  13.468
54135W        W25806  39.107   6.121  12.799
54136W        W25807  34.208  37.105  11.013
54137W        W25808  26.592  15.027  13.084
54138W        W25809  17.184  20.766  10.623
54139W        W25810  32.069  34.682   2.758
54140W        W25811  20.462  11.191  13.883
54141W        W25812  44.903  11.376  13.010
54142W        W25813  33.314  23.559  12.107
54143W        W25814   9.707   0.424   4.587
54144W        W25815  36.611  44.292   2.716
54145W        W25816  22.716  18.156   1.008
54146W        W25817   3.921  33.393   0.704
54147W        W25818  12.794  17.617   3.460
54148W        W25819  38.895  43.789   4.642
54149W        W25820  18.304  19.158   3.591
54150W        W25821  38.029   0.211  13.366
54151W        W25822   7.444  33.775  13.785
54152W        W25823   9.213  24.053   9.917
54153W        W25824   7.698   7.993   1.360
54154W        W25825  13.854  13.348  14.295
54155W        W25826  25.749  37.883  10.831
54156W        W25827  28.037  19.159  11.595
54157W        W25828   6.219  42.893   1.208
54158W        W25829   3.854  42.729   3.641
54159W        W25830  26.918   9.348   2.187
54160W        W25831   9.123  22.235   3.156
54161W        W25832  11.859   7.893  11.637
54162W        W25833  19.768  43.938  11.824
54163W        W25834   9.834  16.352  10.495
54164W        W25835  28.180  21.494  11.484
54165W        W25836  10.801  29.332  12.101
54166W        W25837  31.165   7.809   0.295
54167W        W25838  38.740  14.276   3.317
54168W        W25839  26.211   5.490  12.441
54169W        W25840  29.630  11.289  13.387
54170W        W25841  39.101  35.252   5.170
54171W        W25842  21.232   1.528   1.067
54172W        W25843  31.410  20.333  13.953
54173W        W25844   0.798  27.320   4.653
54174W        W25845   8.094  33.112   0.734
54175W        W25846  26.517  39.803   1.725
54176W        W25847  15.638  17.116   2.039
54177W        W25848  15.684  28.632  14.736
54178W        W25849   3.256  27.515   4.637
54179W        W25850  12.952  12.831  12.863
54180W        W25851  21.781  37.893   0.396
54181W        W25852  35.332  23.194   1.830
54182W        W25853  40.884   3.267  12.029
54183W        W25854   1.935  19.656  11.011
54184W        W25855  39.921  44.686   0.428
54185W        W25856  26.181  43.334   4.475
54186W        W25857  40.036  18.354  12.992
54187W        W25858  37.351  26.488  12.841
54188W        W25859  27.738  31.208  14.867
54189W        W25860  24.057  32.969   4.018
54190W        W25861  25.419  32.680   0.577
54191W        W25862  31.155  13.085   0.864
54192W        W25863  44.841  17.966  10.697
54193W        W25864  15.120  32.501   2.211
54194W        W25865  31.486  25.420  14.468
54195W        W25866   1.099   9.228   1.821
54196W        W25867   8.314  36.119  14.524
54197W        W25868  13.243   9.902   4.505
54198W        W25869  33.113  43.871  12.280
54199W        W25870  42.271  23.611  14.127
54200W        W25871   7.801  25.463  11.135
54201W        W25872   9.635  10.860  11.568
54202W        W25873  26.708  42.269  11.125
54203W        W25874  30.124  15.611   4.232
54204W        W25875  42.565  21.195  11.942
54205W        W25876  19.134  25.421   2.436
54206W        W25877  39.165  17.129   5.052
54207W        W25878  37.436  44.218  12.094
54208W        W25879  22.915  32.505   4.401
54209W        W25880  13.451   6.812  12.595
54210W        W25881   0.786  35.458   0.918
54211W        W25882  27.736  34.562   1.742
54212W        W25883  11.773  22.721   0.093
54213W        W25884   0.795  34.290  13.025
54214W        W25885   7.824   1.232  12.519
54215W        W25886  39.765  32.814  11.612
54216W        W25887  11.851  20.453  14.471
54217W        W25888  11.995   0.368  10.706
54218W        W25889  33.272  39.406   0.720
54219W        W25890  41.940   7.089  10.666
54220W        W25891  29.711  32.150   2.190
54221W        W25892  27.916  39.981  10.972
54222W        W25893  25.258  36.145   1.909
54223W        W25894  12.696  38.971  12.878
54224W        W25895  42.527   6.164  14.049
54225W        W25896   8.280  25.689  13.149
54226W        W25897  28.470  10.021   0.213
54227W        W25898  39.428  25.599   0.018
54228W        W25899  26.502  18.765  11.625
54229W        W25900  12.199  34.438  13.031
54230W        W25901  31.550  13.691  13.934
54231W        W25902  27.095  11.270  13.579
54232W        W25903  19.833   2.214   3.691
54233W        W25904  31.170  28.086  11.929
54234W        W25905  21.630  20.170   3.330
54235W        W25906  44.920  14.383   2.783
54236W        W25907  33.010  12.064   0.046
54237W        W25908  17.876  14.597   2.124
54238W        W25909  33.527  44.407  14.955
54239W        W25910  39.375  35.438   1.342
54240W        W25911  38.949   4.522   0.796
54241W        W25912  41.980  16.350   3.744
54242W        W25913  37.434  37.858  11.576
54243W        W25914  27.560   8.161   0.960
54244W        W25915   2.355  21.665   1.910
54245W        W25916   7.668   8.687   2.826
54246W        W25917  13.111  34.233  14.630
54247W        W25918   7.394  14.046   0.474
54248W        W25919  35.966  30.228  12.866
54249W        W25920  39.363  31.427  11.868
54250W        W25921  25.513  25.240  14.006
54251W        W25922  13.229  26.746  10.085
54252W        W25923  15.716  26.644   1.830
54253W        W25924  12.472  40.127   1.759
54254W        W25925  34.380  43.429  12.802
54255W        W25926  23.577   3.140  12.386
54256W        W25927   8.398  16.295  12.438
54257W        W25928  42.806  22.066  11.560
54258W        W25929  39.746  38.333   4.073
54259W        W25930  29.770  21.959   2.006
54260W        W25931  24.139  25.403   1.377
54261W        W25932  17.133  15.549  11.083
54262W        W25933  21.276  34.455   4.396
54263W        W25934  26.225  39.934  13.482
54264W        W25935  33.216  20.542  13.422
54265W        W25936  39.552   0.773   3.744
54266W        W25937  17.573  22.966  14.960
54267W        W25938  14.691  20.459   1.864
54268W        W25939   0.804  18.427   2.138
54269W        W25940  34.967  43.110  11.195
54270W        W25941  33.585  33.002  11.657
54271W        W25942  24.005  21.058   0.419
54272W        W25943  26.230  35.440   3.700
54273W        W25944   6.497  38.397  12.564
54274W        W25945  15.591  21.219  12.459
54275W        W25946  26.179  27.006   4.104
54276W        W25947  26.202  24.804   3.223
54277W        W25948   2.563  33.394  10.347
54278W        W25949   5.294  35.303   2.428
54279W        W25950   0.709  24.210   4.638
54280W        W25951  18.077   6.360   1.543
54281W        W25952  33.610  40.569   1.938
54282W        W25953   9.554  44.027  14.521
54283W        W25954  34.980  23.566   1.775
54284W        W25955   0.034  13.876  11.439
54285W        W25956  35.985  21.223  10.708
54286W        W25957   6.371  29.334  10.901
54287W        W25958  10.446  14.453  12.943
54288W        W25959  22.061  40.867  10.052
54289W        W25960  33.424  40.365  11.143
54290W        W25961  17.090  12.981  14.499
54291W        W25962  36.052   0.500  11.173
54292W        W25963  11.748   3.441   4.489
54293W        W25964  38.144  30.963  11.623
54294W        W25965  40.818   0.561   2.334
54295W        W25966  13.165  11.077   3.072
54296W        W25967  29.731   8.459   2.790
54297W        W25968  42.290  20.685   1.905
54298W        W25969   0.381  17.721   2.654
54299W        W25970  15.741  42.468  14.985
54300W        W25971  33.308   7.303   1.765
54301W        W25972  12.900  26.065  12.592
54302W        W25973  31.155  17.217   4.583
54303W        W25974   4.937  25.614   1.287
54304W        W25975  34.660  28.620  13.730
54305W        W25976   8.526  42.893   3.687
54306W        W25977  14.305  37.388   1.757
54307W        W25978  22.362  35.524  11.723
54308W        W25979  41.468  26.175   1.707
54309W        W25980   4.434  16.288   2.948
54310W        W25981  21.081  11.816   2.247
54311W        W25982  33.358  12.756  13.991
54312W        W25983  37.889  41.083  13.632
54313W        W25984  12.126   6.919   0.130
54314W        W25985  24.411  38.470  10.595
54315W        W25986  36.572  35.783  11.652
54316W        W25987  26.708  12.074   2.702
54317W        W25988  31.605  11.699   2.236
54318W        W25989   4.182  13.588   1.130
54319W        W25990   3.291  26.282   2.537
54320W        W25991  28.535  35.302   4.279
54321W        W25992  28.044  33.474  13.906
54322W        W25993  32.972  16.376   0.667
54323W        W25994  28.238  12.077  10.963
54324W        W25995   6.927  26.990  13.909
54325W        W25996  33.628  18.713   3.124
54326W        W25997   6.435  38.480   0.357
54327W        W25998  43.861  39.285   0.917
54328W        W25999  33.424   5.730  13.297
54329W        W26000   5.470   1.258  13.368
54330W        W26001  24.453  35.170   2.127
54331W        W26002   1.777  44.331   3.353
54332W        W26003  30.439   5.587   3.028
54333W        W26004  34.149  25.536  13.839
54334W        W26005  11.733  14.642  12.609
54335W        W26006  42.846  44.371   2.754
54336W        W26007   9.201   9.009   2.600
54337W        W26008  37.064  31.115  12.101
54338W        W26009  32.475  12.468  11.215
54339W        W26010   2.783   3.285  11.074
54340W        W26011  19.991  30.614  13.707
54341W        W26012  29.662  37.318  10.641
54342W        W26013  33.402  33.979   0.929
54343W        W26014  32.958  27.254   1.329
54344W        W26015   8.896  44.405   4.061
54345W        W26016  29.167  33.584   0.396
54346W        W26017   3.965   2.132  11.200
54347W        W26018  19.788  30.864   0.656
54348W        W26019  38.405  17.938   3.727
54349W        W26020  40.776   2.908   0.833
54350W        W26021  37.877  43.717   3.357
54351W        W26022  16.524  13.109  11.174
54352W        W26023  21.421  43.055  14.158
54353W        W26024  38.503  36.952  13.735
54354W        W26025  38.778  40.470   3.650
54355W        W26026  30.993  39.794  14.395
54356W        W26027   7.620  13.800   4.075
54357W        W26028  16.190  24.144  13.261
54358W        W26029  29.561  19.484   1.809
54359W        W26030  19.731  31.429   3.883
54360W        W26031   4.428  32.267   4.693
54361W        W26032   9.888   4.960   3.650
54362W        W26033   5.155  14.212   4.685
54363W        W26034  24.831  15.211   3.297
54364W        W26035   3.254  31.895  12.508
54365W        W26036   2.501  31.264  13.770
54366W        W26037  15.293   0.062   2.198
54367W        W26038   9.231  14.805   3.896
54368W        W26039  37.147  44.979   3.811
54369W        W26040  15.648  37.588   4.130
54370W        W26041  28.956   0.387   0.097
54371W        W26042  33.484  35.000   4.447
54372W        W26043  37.673  24.534  11.201
54373W        W26044  29.020  41.453  13.466
54374W        W26045  17.146  35.272  13.702
54375W        W26046  10.293  33.047   3.161
54376W        W26047  35.237  30.784   4.058
54377W        W26048  18.103   9.940   3.687
54378W        W26049  32.860  27.714  10.709
54379W        W26050   8.333  28.748   0.063
54380W        W26051  29.666  22.730   0.287
54381W        W26052  33.724  29.402  12.578
54382W        W26053  22.282  26.586  12.003
54383W        W26054  17.162  17.142  12.039
54384W        W26055  35.339  40.396   2.823
54385W        W26056  18.157   6.279   2.123
54386W        W26057   8.910  31.169  11.131
54387W        W26058  29.138  33.057  12.088
54388W        W26059  33.679  15.367  13.335
54389W        W26060  32.294  16.185   4.618
54390W        W26061  27.502   6.558  11.105
54391W        W26062  40.342   1.458   2.382
54392W        W26063  23.103   0.448  13.373
54393W        W26064  31.960   5.167  13.853
54394W        W26065  41.534  20.654  11.028
54395W        W26066   0.427   9.779  12.632
54396W        W26067   3.145  36.483  12.578
54397W        W26068   5.955  26.374  13.614
54398W        W26069  16.621  31.597  13.384
54399W        W26070  33.593  20.206   2.393
54400W        W26071  39.949  22.900  12.215
54401W        W26072  35.446  35.178  13.784
54402W        W26073  33.130   2.970   1.774
54403W        W26074  20.488  23.687   3.102
54404W        W26075  34.614   5.581   2.237
54405W        W26076  35.350   4.746   0.203
54406W        W26077   4.667  31.208  10.210
54407W        W26078  18.008  33.798   3.764
54408W        W26079  32.561   0.802  11.646
54409W        W26080   5.298  41.092  11.883
54410W        W26081  10.718  35.448   4.864
54411W        W26082  28.860   3.330  10.575
54412W        W26083  39.303  27.251  13.305
54413W        W26084  15.103  12.079   0.876
54414W        W26085  24.193  33.964  10.558
54415W        W26086  31.579  22.694   2.230
54416W        W26087   9.574   5.738  11.693
54417W        W26088  38.035  37.573  14.532
54418W        W26089  36.880  25.096  14.353
54419W        W26090  30.187   0.743  12.486
54420W        W26091  24.201  28.469  10.668
54421W        W26092   9.934  40.235   2.398
54422W        W26093  13.872  34.695  11.868
54423W        W26094  22.582  10.866  11.096
54424W        W26095  31.394  35.320   4.643
54425W        W26096  19.026  16.513   3.174
54426W        W26097  27.175  39.919   0.595
54427W        W26098  11.903  32.698  12.132
54428W        W26099  34.815   7.519   0.411
54429W        W26100   7.941   8.860  11.068
54430W        W26101   3.672  13.877   2.771
54431W        W26102  11.754  35.559  14.571
54432W        W26103  18.537   4.397  11.077
54433W        W26104  44.048  37.404   5.089
54434W        W26105  11.715  17.250  12.768
54435W        W26106  29.949  15.221   2.994
54436W        W26107   5.341  22.233  11.410
54437W        W26108   7.536  32.008   1.913
54438W        W26109  23.631   3.315  12.846
54439W        W26110  24.808  30.844  12.858
54440W        W26111  42.489  42.803   3.734
54441W        W26112   1.360   2.236   4.700
54442W        W26113  40.261  12.966   0.703
54443W        W26114  31.918   9.029  11.665
54444W        W26115  35.606  16.088   1.751
54445W        W26116  11.109  34.154  11.096
54446W        W26117  33.936  17.042  13.313
54447W        W26118  33.789  25.949  14.837
54448W        W26119   0.955  40.873  12.063
54449W        W26120  34.412  41.087  14.848
54450W        W26121  28.665  22.090   3.029
54451W        W26122   7.266   4.867  12.615
54452W        W26123  37.843  16.539  14.813
54453W        W26124  18.945  31.173   2.681
54454W        W26125  41.403  31.117  11.610
54455W        W26126  12.654  31.605  11.638
54456W        W26127   2.565  15.731  10.037
54457W        W26128  25.007  26.203   2.776
54458W        W26129   1.868  24.081  12.693
54459W        W26130  14.573   3.352  12.899
54460W        W26131  33.288   3.701   3.324
54461W        W26132  28.752  14.507   4.846
54462W        W26133  19.793  31.106  14.062
54463W        W26134  33.874   0.197  14.907
54464W        W26135   0.385   5.382  13.323
54465W        W26136  12.375  22.441  11.133
54466W        W26137   8.924  36.384   4.081
54467W        W26138   9.472  29.491   2.653
54468W        W26139  33.500  10.927   0.897
54469W        W26140   1.924  30.638   1.709
54470W        W26141  19.096  19.584   1.965
54471W        W26142  37.534  37.686   2.321
54472W        W26143  29.082   1.762   0.687
54473W        W26144  16.300  26.261   1.143
54474W        W26145  27.410  13.103   2.780
54475W        W26146  15.547  29.371   2.650
54476W        W26147  14.689  21.039  11.242
54477W        W26148  40.322  20.114   1.582
54478W        W26149  30.696   1.508   2.415
54479W        W26150  16.021  11.405   1.385
54480W        W26151  11.707  39.351   1.186
54481W        W26152  15.292  39.075  10.919
54482W        W26153   2.957  31.385   2.763
54483W        W26154  11.416  20.278   4.857
54484W        W26155  42.743  21.623   4.793
54485W        W26156  39.955  22.214   3.131
54486W        W26157  23.279   3.435   1.579
54487W        W26158  33.914  25.731  13.407
54488W        W26159  19.852  28.463   2.247
54489W        W26160  10.699   0.233   0.453
54490W        W26161  19.587   8.372   4.567
54491W        W26162  29.118  19.639  13.087
54492W        W26163  28.472  22.073   0.024
54493W        W26164  36.576  25.237  12.467
54494W        W26165  19.732  32.996   2.727
54495W        W26166   5.714  39.153   0.716
54496W        W26167  28.952   8.720   3.627
54497W        W26168  20.807  29.403   4.494
54498W        W26169  25.889   8.788   3.811
54499W        W26170   7.298  13.629   1.411
54500W        W26171  34.980  27.189   1.849
54501W        W26172  20.689  15.573  10.503
54502W        W26173  14.024  26.128  10.674
54503W        W26174  34.897  43.425   3.222
54504W        W26175  37.359  24.823  13.323
54505W        W26176  28.224  34.768  11.965
54506W        W26177  42.808  24.398   1.146
54507W        W26178   4.895  31.488   2.189
54508W        W26179  29.416  12.607  12.660
54509W        W26180  25.039  15.076  14.989
54510W        W26181  21.324   3.689   0.715
54511W        W26182  19.657  23.638   2.402
54512W        W26183   6.211  25.961   0.408
54513W        W26184   8.721  42.992   0.558
54514W        W26185  36.343  43.265  13.452
54515W        W26186  33.067  20.307  14.233
54516W        W26187  18.008   9.063  10.870
54517W        W26188   5.978  36.632   2.550
54518W        W26189  28.992   6.771   1.462
54519W        W26190  16.713   4.626  14.843
54520W        W26191  23.014   5.246  12.879
54521W        W26192  23.040  31.917  10.629
54522W        W26193  16.708  17.180   1.313
54523W        W26194  39.039   7.270   3.389
54524W        W26195  14.143  33.605   3.904
54525W        W26196  35.563  10.169  10.631
54526W        W26197   4.311  24.598  12.023
54527W        W26198  29.095  33.929   4.796
54528W        W26199  44.782  19.332   0.848
54529W        W26200  43.819  17.723   2.860
54530W        W26201  16.905   1.315  12.580
54531W        W26202  44.689   6.757  14.738
54532W        W26203   5.434   9.704   2.931
54533W        W26204  38.280   7.291   2.681
54534W        W26205  27.934   8.789  14.299
54535W        W26206  34.315  41.032   0.853
54536W        W26207  41.909  25.867  14.444
54537W        W26208  37.359   2.185  12.279
54538W        W26209   4.877  19.616  10.728
54539W        W26210  12.310   9.848   4.536
54540W        W26211  19.574  22.046  14.845
54541W        W26212  18.853  33.864   2.629
54542W        W26213  26.406  34.096   3.466
54543W        W26214   4.835  15.175  11.402
54544W        W26215   9.060  30.020   3.124
54545W        W26216  19.630  30.705  14.991
54546W        W26217  19.511  11.008   2.287
54547W        W26218  33.615  35.404   1.839
54548W        W26219   7.103  18.555  14.298
54549W        W26220  23.492   4.200  13.578
54550W        W26221   3.432  25.388  14.967
54551W        W26222  43.548  42.300  14.145
54552W        W26223  44.449  29.969   2.920
54553W        W26224  40.323  36.507   0.830
54554W        W26225   2.566  19.669   2.618
54555W        W26226   6.391  13.713   1.983
54556W        W26227  22.589  21.096  13.457
54557W        W26228  17.704  40.384   1.415
54558W        W26229  40.293  41.500   3.710
54559W        W26230  18.689   7.442  14.315
54560W        W26231  17.031  24.454  12.873
54561W        W26232  35.498  15.304  13.850
54562W        W26233   5.783   7.673  13.010
54563W        W26234  21.101  14.523   4.983
54564W        W26235  11.353  36.131   2.788
54565W        W26236  12.899  12.368  10.545
54566W        W26237  41.678  19.678   1.923
54567W        W26238  23.627  40.039   1.236
54568W        W26239  10.901  36.110  12.011
54569W        W26240   7.941   4.009  14.950
54570W        W26241   9.902   7.350  11.975
54571W        W26242  35.436  16.623   1.758
54572W        W26243   9.036  26.763   4.887
54573W        W26244   0.859   0.385   3.580
54574W        W26245  34.008   7.993   2.917
54575W        W26246  11.623   1.405   1.600
54576W        W26247   3.812  21.696   3.233
54577W        W26248   8.268   9.266   1.418
54578W        W26249  33.969  10.789  14.820
54579W        W26250  44.621   8.129   5.133
54580W        W26251   5.839  14.505  10.967
54581W        W26252  31.470  28.651   2.665
54582W        W26253   3.382  18.335   0.418
54583W        W26254  11.391  17.425   2.396
54584W        W26255  20.595  15.839  14.962
54585W        W26256  29.987  11.344  14.459
54586W        W26257  12.297  11.791  11.574
54587W        W26258  27.672  17.800  11.719
54588W        W26259  18.840  26.531  12.474
54589W        W26260  37.773  35.231   5.083
54590W        W26261  36.857  24.096  11.420
54591W        W26262  20.146  21.833  10.727
54592W        W26263  21.527  12.429   4.164
54593W        W26264  20.995  23.187  12.807
54594W        W26265  10.215  26.098   1.259
54595W        W26266  25.096   7.787   1.175
54596W        W26267  20.639  17.464  12.024
54597W        W26268  27.172   9.165   3.601
54598W        W26269   8.775   7.798   1.712
54599W        W26270   6.801  19.963  14.904
54600W        W26271   2.990   4.854   4.165
54601W        W26272  38.019  16.570  12.376
54602W        W26273  31.362  19.080  11.965
54603W        W26274  38.464  29.666   3.779
54604W        W26275  10.433  19.696  12.579
54605W        W26276  18.380   1.238   1.834
54606W        W26277   8.637  42.438  13.358
54607W        W26278   7.217  11.758   0.970
54608W        W26279  16.445   2.861   1.798
54609W        W26280   5.915  43.730  14.129
54610W        W26281  34.369   3.423   1.639
54611W        W26282  39.842  41.376   4.665
54612W        W26283  10.260  35.586  12.195
54613W        W26284  18.648   1.867  10.207
54614W        W26285  20.209  41.243  14.447
54615W        W26286  15.290  35.480   4.574
54616W        W26287   0.830  26.160  10.733
54617W        W26288   5.502  35.438  12.123
54618W        W26289   6.795   6.743   4.608
54619W        W26290  21.125   4.895  11.555
54620W        W26291   8.418   6.409   3.067
54621W        W26292  20.084  16.635  13.437
54622W        W26293   7.402  13.744  14.238
54623W        W26294  27.491  37.159   0.782
54624W        W26295  34.796   5.015   1.343
54625W        W26296  32.481  17.455   0.995
54626W        W26297  23.139   1.178   0.284
54627W        W26298  18.979  29.482  13.462
54628W        W26299  17.543  42.593  11.108
54629W        W26300  10.497  24.548  12.707
54630W        W26301  34.124  36.534  12.392
54631W        W26302  31.423   7.327   1.867
54632W        W26303  18.706  42.719   4.619
54633W        W26304  12.232  35.112   2.499
54634W        W26305  13.375  32.882   3.241
54635W        W26306  17.998   9.735  13.404
54636W        W26307  18.158  19.503   4.399
54637W        W26308  44.464  14.429   4.559
54638W        W26309  25.492  16.203  11.678
54639W        W26310   3.502  16.101   1.742
54640W        W26311  26.218  38.285   4.961
54641W        W26312   3.173  12.735   3.031
54642W        W26313  16.778  32.311   4.277
54643W        W26314   2.755   1.121   1.048
54644W        W26315  20.128  20.372   4.175
54645W        W26316   4.704  20.331   5.053
54646W        W26317   3.341   4.426  13.927
54647W        W26318  24.507  32.120   3.731
54648W        W26319   1.904  15.177  10.797
54649W        W26320   3.740  34.502  11.023
54650W        W26321  13.499  19.957   2.682
54651W        W26322   2.822  35.777  14.769
54652W        W26323  39.757  34.095   3.198
54653W        W26324  23.112  12.850  12.163
54654W        W26325  27.568   5.696   2.256
54655W        W26326  26.849  23.621   1.283
54656W        W26327  14.944   5.260   0.190
54657W        W26328  20.161  26.111   1.810
54658W        W26329  26.251  23.545  11.611
54659W        W26330  21.221  12.394   5.286
54660W        W26331  21.047  43.218  11.496
54661W        W26332  30.918   1.379  11.143
54662W        W26333  26.319  42.435   3.077
54663W        W26334   2.496  10.926  14.379
54664W        W26335  23.005  43.089   1.718
54665W        W26336  28.193  16.782   3.389
54666W        W26337  22.811  39.787  10.426
54667W        W26338  28.474  22.518   0.498
54668W        W26339  26.513  25.729  11.082
54669W        W26340  30.492  15.356   2.305
54670W        W26341  18.492   6.267   2.813
54671W        W26342   1.777   2.713  12.586
54672W        W26343  14.365  41.147  14.838
54673W        W26344   6.687   3.518   2.727
54674W        W26345  17.397  31.161  13.738
54675W        W26346   5.857  15.693   0.408
54676W        W26347  42.896  23.318  14.957
54677W        W26348  22.647  37.529  14.598
54678W        W26349  15.964   7.209  12.986
54679W        W26350  44.334  30.347   0.364
54680W        W26351  38.400   3.192   1.645
54681W        W26352  23.527   1.459   0.521
54682W        W26353   1.261  18.496   3.802
54683W        W26354  16.772  33.057  12.286
54684W        W26355  12.462  34.136   1.440
54685W        W26356   3.962  19.254   1.334
54686W        W26357  29.560  36.406  10.706
54687W        W26358  29.916   0.468   4.504
54688W        W26359  15.079  12.142  12.109
54689W        W26360  21.582  39.726   4.308
54690W        W26361  37.683  16.810  12.670
54691W        W26362  27.771   8.377  12.215
54692W        W26363  37.981  10.280   3.098
54693W        W26364  18.692  27.250   0.789
54694W        W26365   7.465   0.785   1.521
54695W        W26366  31.002  26.472   2.922
54696W        W26367  24.925   1.720   2.183
54697W        W26368  39.424  18.783  10.767
54698W        W26369  20.694  30.660   2.795
54699W        W26370  33.008  26.483   1.835
54700W        W26371  21.708  34.590   0.536
54701W        W26372  25.913  15.932   1.265
54702W        W26373  27.047   6.845  12.588
54703W        W26374  12.910  14.402  11.304
54704W        W26375  32.434  38.120  13.325
54705W        W26376   7.282  30.591   0.743
54706W        W26377  44.436  37.137   0.421
54707W        W26378  10.411  21.096   3.635
54708W        W26379  35.007  32.548   0.318
54709W        W26380  39.447  22.543  10.572
54710W        W26381  40.937  34.829   2.217
54711W        W26382   3.942  28.084  14.928
54712W        W26383  43.907  14.621   0.903
54713W        W26384  24.222  40.574  12.937
54714W        W26385  36.892  33.014  10.620
54715W        W26386  32.222  42.843   2.398
54716W        W26387  21.596  43.374  12.190
54717W        W26388  18.049  27.379  12.016
54718W        W26389  41.558  37.157  11.388
54719W        W26390  18.729  22.545   1.010
54720W        W26391  20.242  35.781   1.886
54721W        W26392   9.396   0.903  14.343
54722W        W26393   7.138  42.972   3.162
54723W        W26394  23.118  18.169  12.495
54724W        W26395  28.974   9.355  13.951
54725W        W26396  34.773  43.544  14.487
54726W        W26397   5.906  10.934   0.378
54727W        W26398  43.416  23.449   0.236
54728W        W26399   9.360  40.047  11.645
54729W        W26400  36.379   2.721   3.319
54730W        W26401  17.039  11.213   1.442
54731W        W26402  32.331  39.257  12.846
54732W        W26403  41.903  19.621   3.727
54733W        W26404   1.696  43.782   3.799
54734W        W26405  20.251  41.481   3.769
54735W        W26406  21.101  43.284   2.740
54736W        W26407  15.591  30.695   0.182
54737W        W26408   1.926  43.734   0.430
54738W        W26409  34.378  12.314   4.576
54739W        W26410  14.178  35.166  12.890
54740W        W26411  13.627  35.716  14.039
54741W        W26412  35.412  42.162  13.471
54742W        W26413  11.807   8.998  12.647
54743W        W26414  33.094  30.184   4.427
54744W        W26415  11.700  25.322   0.336
54745W        W26416  44.901  13.279  14.232
54746W        W26417  26.689  22.096  10.731
54747W        W26418  38.239   9.410   2.198
54748W        W26419  21.611  26.472  13.883
54749W        W26420  22.730  30.963   3.626
54750W        W26421  19.313  11.480  10.608
54751W        W26422  40.506  29.025   0.919
54752W        W26423   3.140  34.026  11.927
54753W        W26424   4.937  16.137  14.781
54754W        W26425  15.527  21.310   1.825
54755W        W26426  26.847  15.648   2.013
54756W        W26427  34.515  44.924   2.741
54757W        W26428  17.287  26.711   0.475
54758W        W26429  40.918  12.365  13.094
54759W        W26430   6.150  12.454   4.950
54760W        W26431  30.394  33.025  12.923
54761W        W26432  21.652  35.970   3.425
54762W        W26433   6.705  29.964   3.084
54763W        W26434  13.564  14.084  14.802
54764W        W26435  23.964   5.305   1.363
54765W        W26436  30.163  18.740  12.043
54766W        W26437  44.781  33.306   2.230
54767W        W26438  40.044  19.692  11.580
54768W        W26439  33.019   0.432   0.352
54769W        W26440   8.404   6.712   3.855
54770W        W26441  35.881   7.864   3.322
54771W        W26442  44.270   7.728  12.887
54772W        W26443  11.922  12.281  11.514
54773W        W26444  41.694  43.130  13.943
54774W        W26445   9.164  11.403  11.882
54775W        W26446   9.769  43.034   1.802
54776W        W26447   4.747   2.933   4.399
54777W        W26448   3.831  37.495  11.975
54778W        W26449   9.761  15.080   3.301
54779W        W26450  43.386  16.226   2.210
54780W        W26451  37.569  31.780  12.366
54781W        W26452  43.233  19.558  11.042
54782W        W26453  13.725   6.937   0.727
54783W        W26454  38.353   2.441   1.563
54784W        W26455  31.053  41.187  13.132
54785W        W26456  32.903  18.250   3.272
54786W        W26457  23.310  33.539  12.994
54787W        W26458   1.187   4.751   2.314
54788W        W26459  27.502  44.931   2.287
54789W        W26460  35.893  28.963   0.716
54790W        W26461   1.659   9.646  13.336
54791W        W26462   3.329  15.603   0.872
54792W        W26463  21.122  17.487  11.223
54793W        W26464  24.586   7.297   3.368
54794W        W26465  24.396  39.748   0.734
54795W        W26466  43.580  21.628   4.560
54796W        W26467  43.881  42.326   1.904
54797W        W26468  44.277  14.528  13.324
54798W        W26469  19.439  20.816  12.943
54799W        W26470  26.931  35.443   0.747
54800W        W26471   1.392  36.090  14.971
54801W        W26472  22.256  24.723   1.296
54802W        W26473  15.346   1.227   0.804
54803W        W26474  15.496   6.733   2.355
54804W        W26475  16.761  35.766   0.745
54805W        W26476   4.783  30.153   1.843
54806W        W26477  26.621   6.684  13.892
54807W        W26478  24.022  36.614  12.011
54808W        W26479  28.625  15.713  13.145
54809W        W26480  13.555  15.768  12.508
54810W        W26481  15.261  20.152  12.112
54811W        W26482  24.095  22.998  12.085
54812W        W26483  39.573  36.561  14.516
54813W        W26484  25.251  32.065  13.038
54814W        W26485  30.665  40.936  12.830
54815W        W26486  21.452  27.555  11.659
54816W        W26487  42.593  19.360   2.029
54817W        W26488   7.662  33.299  13.177
54818W        W26489   4.835  44.477  11.148
54819W        W26490   9.430  39.692   1.934
54820W        W26491  31.119  14.913  11.181
54821W        W26492  18.744   6.272  14.365
54822W        W26493  35.419  41.846   4.153
54823W        W26494  32.231  19.711   4.581
54824W        W26495  14.887  21.520  13.763
54825W        W26496  44.193   5.850  10.303
54826W        W26497  26.701  37.871  12.709
54827W        W26498   1.325  33.360   4.360
54828W        W26499  35.444   8.767   1.074
54829W        W26500  41.301  42.874  11.698
54830W        W26501  15.184  37.078  12.453
54831W        W26502   4.044  28.611   1.642
54832W        W26503  20.529   3.474   3.325
54833W        W26504  27.586  35.478   4.627
54834W        W26505  36.440  36.351  12.324
54835W        W26506  17.683  10.502  11.927
54836W        W26507  34.853  30.977   2.695
54837W        W26508  33.300  42.890   5.007
54838W        W26509  11.689  16.892   5.125
54839W        W26510  14.998   3.663   2.272
54840W        W26511  15.867  16.473  10.348
54841W        W26512  34.425  40.708   4.344
54842W        W26513  33.813   2.539   0.600
54843W        W26514  21.683  14.637  11.988
54844W        W26515  16.030  25.646  12.858
54845W        W26516  39.506  25.968  12.571
54846W        W26517  18.888  31.370   1.483
54847W        W26518  29.194  26.698   0.990
54848W        W26519  14.584  44.710   1.213
54849W        W26520  20.113  44.352  11.419
54850W        W26521  43.174  24.381   5.311
54851W        W26522   6.279  42.057   3.885
54852W        W26523  43.787   7.808   0.091
54853W        W26524  11.352  33.339   2.692
54854W        W26525  13.748  37.988   3.772
54855W        W26526  13.576  22.252  11.591
54856W        W26527   3.561   7.342   4.253
54857W        W26528  11.716  41.319  12.603
54858W        W26529  30.911  34.660   5.046
54859W        W26530   3.512  20.741   9.633
54860W        W26531  24.174  29.287  12.999
54861W        W26532  19.533  42.558  14.301
54862W        W26533  16.826  36.627   2.777
54863W        W26534  34.318  36.327  13.136
54864W        W26535  29.847  18.338   4.181
54865W        W26536  23.589  42.895   2.228
54866W        W26537  17.759  40.614   3.988
54867W        W26538  28.442  18.099  10.589
54868W        W26539  29.606  16.104  10.722
54869W        W26540  12.363  31.933  14.953
54870W        W26541  37.863  40.131   3.663
54871W        W26542  33.666  43.284  13.869
54872W        W26543  36.665  18.564   5.172
54873W        W26544  41.351  12.902  13.359
54874W        W26545  44.853  36.621  12.391
54875W        W26546  44.804   3.864   1.519
54876W        W26547   4.641  18.282   3.351
54877W        W26548  20.163  44.586   1.373
54878W        W26549  22.984   1.946   4.074
54879W        W26550  26.645  32.620  13.871
54880W        W26551   3.652  13.010  13.991
54881W        W26552  26.615  34.783  11.249
54882W        W26553  28.752  33.047  13.772
54883W        W26554  10.989  21.185  12.061
54884W        W26555  16.491  29.640   1.246
54885W        W26556  11.117   4.008  13.424
54886W        W26557  11.082  21.481  13.485
54887W        W26558  41.185  21.687   3.223
54888W        W26559   2.401  10.682  13.924
54889W        W26560  22.493   4.281  13.030
54890W        W26561  20.147   1.592   9.877
54891W        W26562  34.349  44.356  12.836
54892W        W26563   4.792  19.187  11.676
54893W        W26564   5.287  37.326   4.390
54894W        W26565  22.080   7.406   3.626
54895W        W26566  20.788   1.224  11.128
54896W        W26567  25.870  21.058  11.705
54897W        W26568  32.708  11.360   2.825
54898W        W26569   5.457  32.130  13.365
54899W        W26570  17.934  25.954  13.270
54900W        W26571  24.667  20.756   0.273
54901W        W26572   2.908   2.935   2.256
54902W        W26573  41.532  29.957  13.385
54903W        W26574  38.007  34.951   4.677
54904W        W26575  11.599  10.654   0.932
54905W        W26576   2.248  18.262  13.726
54906W        W26577   3.201  43.554   0.143
54907W        W26578  20.590  18.541   4.379
54908W        W26579  16.564   1.731  13.926
54909W        W26580  21.475  25.886  11.896
54910W        W26581  34.247  38.058   5.028
54911W        W26582  26.158   9.344   5.109
54912W        W26583  44.774  31.077   1.895
54913W        W26584  40.552  25.527  11.965
54914W        W26585  25.246  23.237  13.091
54915W        W26586   3.749   9.011  10.828
54916W        W26587  31.423  33.914   1.966
54917W        W26588  39.334  11.881   3.723
54918W        W26589  27.467  41.474   2.871
54919W        W26590  15.164   3.936  10.861
54920W        W26591  20.844   7.868  11.985
54921W        W26592  14.907  24.704  11.237
54922W        W26593  20.793  18.615   2.193
54923W        W26594   9.218  31.474   3.873
54924W        W26595  18.020   4.246   1.217
54925W        W26596  17.170  14.245  13.390
54926W        W26597   0.941  13.866  13.180
54927W        W26598  38.044  27.436  14.066
54928W        W26599  15.359  20.910   4.188
54929W        W26600  10.238  11.783   1.899
54930W        W26601  35.868  19.223  11.524
54931W        W26602   3.587   8.735   2.949
54932W        W26603   3.321   5.982  11.724
54933W        W26604   0.193  30.626   4.105
54934W        W26605  39.526  36.592   2.302
54935W        W26606  43.525  10.288  10.724
54936W        W26607  29.382   9.015   4.581
54937W        W26608  43.361   0.748  10.382
54938W        W26609  20.401  11.555   2.748
54939W        W26610  11.115  43.016   4.227
54940W        W26611  32.705  37.099  11.026
54941W        W26612  41.232  40.965   3.764
54942W        W26613   4.345  21.724  13.872
54943W        W26614  23.734  21.792  10.801
54944W        W26615   0.896   8.801  12.957
54945W        W26616  12.652  24.317   0.684
54946W        W26617  14.617   2.749  12.084
54947W        W26618  35.658  20.595  13.554
54948W        W26619  11.268   1.738   2.696
54949W        W26620  24.453  43.520  14.265
54950W        W26621  22.203  37.071  13.902
54951W        W26622  42.960  14.825  10.970
54952W        W26623   2.687  24.679   4.342
54953W        W26624  35.072  18.168   1.433
54954W        W26625  39.072  38.934  14.457
54955W        W26626  22.834  29.158  11.310
54956W        W26627  39.399  13.667   4.646
54957W        W26628  31.641  40.492  12.128
54958W        W26629  15.339  10.283  13.409
54959W        W26630  41.068  39.880   3.557
54960W        W26631  44.389  15.140   1.196
54961W        W26632  33.457  24.245  13.827
54962W        W26633  34.792  25.399   3.136
54963W        W26634  28.358  30.375   0.035
54964W        W26635  19.848  44.936  13.809
54965W        W26636  44.330   0.773  13.058
54966W        W26637  26.495  39.763   2.650
54967W        W26638  10.227  15.264   1.737
54968W        W26639  10.347  10.336  11.644
54969W        W26640  19.627   8.096  10.702
54970W        W26641  15.500  28.682  12.836
54971W        W26642  23.081  28.978  14.801
54972W        W26643  35.204  22.106   2.891
54973W        W26644  18.212   2.234   1.946
54974W        W26645  42.058  22.251   0.338
54975W        W26646   4.912  15.686  14.420
54976W        W26647  30.537   5.290   1.604
54977W        W26648  41.116  34.490  14.470
54978W        W26649  29.645  13.475   4.135
54979W        W26650  18.058   7.833   3.111
54980W        W26651   4.902   3.886  10.768
54981W        W26652  27.106  34.349  13.033
54982W        W26653  44.047   9.062   3.105
54983W        W26654  25.911   4.228   1.148
54984W        W26655  20.708   7.713   2.875
54985W        W26656   0.745  26.659   2.987
54986W        W26657  16.809  32.062  12.485
54987W        W26658  12.116  30.585  12.447
54988W        W26659   8.357  22.637  13.759
54989W        W26660   4.329  10.185   1.881
54990W        W26661  31.470  18.971  11.465
54991W        W26662   3.248  13.295  10.626
54992W        W26663  20.079  35.127  14.806
54993W        W26664   2.050  41.541  14.473
54994W        W26665  10.103   0.262  10.063
54995W        W26666  24.220  13.685  12.378
54996W        W26667  40.093  22.316   2.623
54997W        W26668  36.398  23.534   0.961
54998W        W26669  21.774   0.817  11.146
54999W        W26670  25.831   9.186   3.270
55000W        W26671  43.443  41.576  11.122
55001W        W26672  43.252  10.023  11.654
55002W        W26673   2.344  42.959   4.553
55003W        W26674  39.096  18.421  10.620
55004W        W26675  23.027  37.529  12.384
55005W        W26676  29.953   6.421  13.943
55006W        W26677   4.331  26.709  11.072
55007W        W26678  11.854  12.719   0.429
55008W        W26679  32.885  32.354   1.343
55009W        W26680  13.748  27.594  14.845
55010W        W26681  29.996  22.453   1.817
55011W        W26682  35.563  20.515  14.580
55012W        W26683  25.701  42.994   4.702
55013W        W26684  44.299  44.414  11.584
55014W        W26685  21.653   0.964  13.071
55015W        W26686   0.389  14.368  12.276
55016W        W26687  37.811   6.136   1.760
55017W        W26688  12.777  22.038   4.701
55018W        W26689   9.684  12.925   1.046
55019W        W26690  34.968  39.930   3.406
55020W        W26691  39.038  30.494  14.511
55021W        W26692  23.452  28.468   1.892
55022W        W26693  25.785  15.655   1.752
55023W        W26694  12.290  21.355   3.608
55024W        W26695  22.553  10.717   4.462
55025W        W26696   5.634  38.467  14.944
55026W        W26697  33.070  20.789   1.664
55027W        W26698  15.860  29.159  10.314
55028W        W26699   4.260  32.803  12.196
55029W        W26700  29.681  22.768  10.605
55030W        W26701  44.626  21.899  10.244
55031W        W26702  31.213   4.200  13.121
55032W        W26703  10.047  35.523   1.286
55033W        W26704  34.136  44.482   3.850
55034W        W26705  27.632  17.492   3.640
55035W        W26706  25.415  20.481   4.268
55036W        W26707  18.525  30.555  11.174
55037W        W26708   9.632  40.535   3.187
55038W        W26709  43.983  44.259   1.748
55039W        W26710  17.750  41.908  12.814
55040W        W26711  42.933   3.949  12.474
55041W        W26712  27.728  10.445   0.891
55042W        W26713   4.118   8.804   1.326
55043W        W26714  32.964  39.046   3.168
55044W        W26715  11.838  42.407  12.670
55045W        W26716  20.142   3.864  14.387
55046W        W26717   8.676  10.605   5.086
55047W        W26718  27.657  34.100   0.987
55048W        W26719  25.572  16.282  10.676
55049W        W26720  26.779  33.092   3.794
55050W        W26721  14.682  33.475   3.195
55051W        W26722  40.599  32.060   0.511
55052W        W26723  18.768  28.598  11.882
55053W        W26724   8.463  44.544  11.579
55054W        W26725  36.152  37.973   2.868
55055W        W26726   6.470  40.612   5.080
55056W        W26727  26.534  12.870   0.150
55057W        W26728  13.731  43.701   0.948
55058W        W26729  25.777  24.183   0.714
55059W        W26730   0.976  15.065  12.419
55060W        W26731  36.472   5.096  14.399
55061W        W26732   9.108  37.599  12.058
55062W        W26733  25.641  30.651  13.008
55063W        W26734   9.263  20.265   1.105
55064W        W26735   3.830  12.607  13.736
55065W        W26736  21.282  22.256   0.995
55066W        W26737  32.037  40.134   2.734
55067W        W26738   9.811  12.019  10.656
55068W        W26739  42.507   5.451   0.392
55069W        W26740  41.365  22.476   2.225
55070W        W26741   2.854   2.172  14.938
55071W        W26742  32.444  14.334  10.945
55072W        W26743   2.754   0.786   3.724
55073W        W26744  43.402  20.467  12.353
55074W        W26745  22.524  37.668   1.844
55075W        W26746  43.289  43.895  12.095
55076W        W26747   6.131   7.583   4.253
55077W        W26748   3.683   5.000  13.393
55078W        W26749  34.705  43.700  11.944
55079W        W26750  10.398  44.464  11.024
55080W        W26751  14.876  37.579  14.989
55081W        W26752  42.474   7.881   4.559
55082W        W26753  20.024   3.302  10.290
55083W        W26754  30.331   2.355  10.827
55084W        W26755   7.274   4.549   2.132
55085W        W26756   7.335  22.266   5.122
55086W        W26757  13.026  29.039   3.081
55087W        W26758  23.153  14.265   4.380
55088W        W26759   0.549  20.519  10.023
55089W        W26760  31.659  15.489   2.838
55090W        W26761  42.386  40.129   4.077
55091W        W26762  35.611  39.179  14.660
55092W        W26763   8.088  26.577  14.659
55093W        W26764  21.159  25.513  12.197
55094W        W26765  43.318  11.665   3.800
55095W        W26766   5.885   6.758  10.890
55096W        W26767   5.452   6.759   2.723
55097W        W26768  38.033  30.445   3.626
55098W        W26769   4.331  40.810   0.032
55099W        W26770  40.003  28.421  11.115
55100W        W26771  22.496   3.049   2.960
55101W        W26772   5.986  43.451   1.895
55102W        W26773   7.517  34.544  10.816
55103W        W26774  25.981  40.387  13.411
55104W        W26775  17.077  37.957   4.656
55105W        W26776  36.428  43.838   1.449
55106W        W26777  31.290  38.015   0.983
55107W        W26778  18.659  10.907  12.919
55108W        W26779  38.746  25.928  13.291
55109W        W26780  13.384  35.835   1.350
55110W        W26781  12.930  35.518  11.987
55111W        W26782  13.692  23.444  12.173
55112W        W26783  37.013  16.241   4.612
55113W        W26784  34.869  25.924   0.214
55114W        W26785  16.541  18.142   1.282
55115W        W26786  37.608   7.678   0.367
55116W        W26787   1.769   2.097   3.596
55117W        W26788  14.291   5.231   5.111
55118W        W26789  17.724  24.240  12.095
55119W        W26790   6.389  11.795   1.824
55120W        W26791  39.868  19.785   2.082
55121W        W26792  25.745  22.489   4.513
55122W        W26793  10.787  26.285   1.696
55123W        W26794  18.331  13.759  12.950
55124W        W26795  15.878  31.970  10.578
55125W        W26796  35.605  22.995   2.790
55126W        W26797  41.537  34.059  12.957
55127W        W26798  38.481  11.912  12.190
55128W        W26799  25.498   5.470   2.165
55129W        W26800  38.872  23.576   1.292
55130W        W26801  19.669  40.300  12.999
55131W        W26802  38.566  11.112   4.123
55132W        W26803  39.516   6.683  14.971
55133W        W26804  19.270  40.915   1.209
55134W        W26805   6.808  17.102  11.231
55135W        W26806  20.817  24.393   1.228
55136W        W26807  21.670   8.099   0.651
55137W        W26808  40.268   2.441   4.613
55138W        W26809  10.908  18.567  13.485
55139W        W26810   0.097   9.799  14.449
55140W        W26811  14.947   0.271  13.405
55141W        W26812  22.722  32.868  13.751
55142W        W26813  19.644  24.299   1.910
55143W        W26814  38.845  31.128  12.608
55144W        W26815   5.381  11.131  13.099
55145W        W26816  30.920  22.433  13.817
55146W        W26817   4.132  15.017  12.142
55147W        W26818  17.832   4.403   0.757
55148W        W26819  22.067   1.298   0.752
55149W        W26820  33.647  18.203   3.406
55150W        W26821   1.864   5.858  14.774
55151W        W26822  40.936  16.272   1.210
55152W        W26823  25.017  17.979  14.348
55153W        W26824  14.936  36.994   1.464
55154W        W26825  12.212  18.172   4.233
55155W        W26826  41.902   4.824   3.787
55156W        W26827  24.553  21.223  11.056
55157W        W26828  27.953   6.364   4.682
55158W        W26829  12.583  13.318   0.677
55159W        W26830  14.923   5.440   4.142
55160W        W26831  18.983   3.118   5.207
55161W        W26832   9.111  35.729   1.724
55162W        W26833  30.009  21.602  14.617
55163W        W26834   7.870  40.011  14.878
55164W        W26835  28.915  42.648  12.205
55165W        W26836  25.443  43.735  12.988
55166W        W26837  34.892  39.663   1.428
55167W        W26838  43.887   4.401  12.813
55168W        W26839  28.063  20.616  13.091
55169W        W26840  29.586  38.283   1.177
55170W        W26841   2.787  24.083  13.751
55171W        W26842   4.171  13.655   3.048
55172W        W26843  40.935   2.821  12.288
55173W        W26844  26.082  17.754   0.953
55174W        W26845  17.794  19.726  14.139
55175W        W26846   9.663  22.686  13.035
55176W        W26847  17.551  28.256  11.234
55177W        W26848  24.452   3.596  10.409
55178W        W26849   4.022  38.072  12.500
55179W        W26850  44.320  19.608  13.532
55180W        W26851  11.841   4.461   1.274
55181W        W26852  43.925  16.041  10.792
55182W        W26853  35.134  21.627  13.360
55183W        W26854   8.235   4.924  11.667
55184W        W26855  30.629  36.412   1.900
55185W        W26856  33.692  13.131   0.337
55186W        W26857  16.543  34.565   4.596
55187W        W26858  20.010   1.380   4.154
55188W        W26859  39.539  28.589  14.571
55189W        W26860  16.331   2.444  11.064
55190W        W26861   0.484   1.870   0.290
55191W        W26862  19.674  17.850  12.029
55192W        W26863  22.997  20.405  13.089
55193W        W26864  32.587  25.132  11.575
55194W        W26865  25.572  37.351   1.710
55195W        W26866  32.690  38.988   4.593
55196W        W26867  21.077   5.300   3.194
55197W        W26868  31.984  30.945  12.172
55198W        W26869   4.789  37.523   1.172
55199W        W26870  21.052  34.582   0.786
55200W        W26871   5.811   8.813  11.117
55201W        W26872  12.226  40.627   4.949
55202W        W26873  21.962   3.762   2.986
55203W        W26874   1.893   6.460  11.517
55204W        W26875  28.270  20.947   4.522
55205W        W26876  25.534  13.172  13.542
55206W        W26877  12.675  16.136   4.719
55207W        W26878   3.681   2.234   0.934
55208W        W26879  15.330  23.000   0.226
55209W        W26880  33.076  12.922   1.749
55210W        W26881  11.489  21.034  12.054
55211W        W26882  23.525   6.417   0.540
55212W        W26883  15.447  33.560  14.527
55213W        W26884  32.552  39.145  14.677
55214W        W26885   9.490   5.216  11.785
55215W        W26886  42.780  10.600  13.885
55216W        W26887  10.782  19.012   2.851
55217W        W26888  43.705  21.530   1.404
55218W        W26889  40.143   5.694  12.580
55219W        W26890  35.756  11.795   2.765
55220W        W26891  30.016  25.291  12.346
55221W        W26892  12.153  27.065   3.732
55222W        W26893  32.164  31.134   3.297
55223W        W26894  22.131  41.281  10.317
55224W        W26895  22.204  40.893  12.530
55225W        W26896  39.421   0.242  14.344
55226W        W26897  30.501  10.552   0.407
55227W        W26898  39.140   4.377  13.362
55228W        W26899  38.653  39.766   2.313
55229W        W26900  26.672  15.146  14.436
55230W        W26901  16.570  20.224  11.507
55231W        W26902  33.579  41.040   1.696
55232W        W26903   1.981   5.739   2.168
55233W        W26904   2.585  38.536   1.184
55234W        W26905  20.297  23.647  12.090
55235W        W26906  17.774   4.520  14.378
55236W        W26907  17.063  33.188   4.222
55237W        W26908  16.439   0.782  13.357
55238W        W26909  22.008  30.133   2.422
55239W        W26910  42.523  24.050   4.589
55240W        W26911  12.124  28.258  14.569
55241W        W26912  12.643  39.038  13.824
55242W        W26913  29.463   2.007   4.646
55243W        W26914  16.183  30.095   4.473
55244W        W26915  20.049  12.771  10.654
55245W        W26916  21.433  29.678  14.916
55246W        W26917  17.175   9.206  14.975
55247W        W26918  19.406  43.511  13.509
55248W        W26919  42.785  19.485   4.292
55249W        W26920  18.216  18.823   0.529
55250W        W26921   4.108   1.795   4.192
55251W        W26922  11.780  32.147   2.330
55252W        W26923   6.355   8.789   1.384
55253W        W26924  23.421  27.999  14.364
55254W        W26925   2.849  10.412  11.209
55255W        W26926  15.644   2.656  14.779
55256W        W26927  14.258   2.753  10.449
55257W        W26928  12.835  39.990   3.320
55258W        W26929  25.734  41.375   1.400
55259W        W26930  26.444   6.219   0.837
55260W        W26931  28.968  43.729   0.903
55261W        W26932  17.655  34.311   0.239
55262W        W26933  34.156  21.338  13.108
55263W        W26934   1.949  37.026   4.721
55264W        W26935   5.799  13.487   4.057
55265W        W26936  34.017  10.268  12.986
55266W        W26937  13.143  15.832   0.540
55267W        W26938  20.424  40.821  11.080
55268W        W26939  42.805   2.465   3.650
55269W        W26940  18.084  25.022  10.570
55270W        W26941  13.462  20.514  12.901
55271W        W26942   0.430  21.406  11.979
55272W        W26943   7.109  19.243  12.524
55273W        W26944  30.839  34.315  12.285
55274W        W26945  17.130  35.397  14.207
55275W        W26946  11.284  24.585   3.726
55276W        W26947  44.346  28.168  14.546
55277W        W26948  35.161  38.050  12.573
55278W        W26949  17.095  39.373   2.319
55279W        W26950  15.569   0.986  13.025
55280W        W26951  19.189  43.999  11.640
55281W        W26952  28.867  34.256  13.974
55282W        W26953   8.256   5.521  11.707
55283W        W26954   5.325   5.411   0.976
55284W        W26955  30.679  32.564  12.241
55285W        W26956  18.187   5.594   0.867
55286W        W26957  33.665   3.465   0.337
55287W        W26958  14.772  43.706   4.248
55288W        W26959  35.175  40.976   1.052
55289W        W26960  15.637  32.555   0.421
55290W        W26961   1.485   0.693   0.928
55291W        W26962  29.747   6.509  10.728
55292W        W26963  20.520  29.099  11.615
55293W        W26964  31.488  31.108   2.638
55294W        W26965  19.540   5.865  14.750
55295W        W26966  13.258  26.140   3.151
55296W        W26967   3.893  25.442   3.246
55297W        W26968  38.497  14.656  11.015
55298W        W26969  41.190  14.522  13.601
55299W        W26970  31.818  16.105  10.221
55300W        W26971   9.426  44.223   2.390
55301W        W26972  37.760   4.183   0.788
55302W        W26973   2.676  18.301   2.137
55303W        W26974   4.936  26.143   4.695
55304W        W26975  21.150  44.386  11.648
55305W        W26976  28.047  44.994  12.090
55306W        W26977   1.524  40.254  12.121
55307W        W26978  43.895  37.314   2.635
55308W        W26979  25.245  21.955  13.040
55309W        W26980  25.961   4.323   2.463
55310W        W26981   4.759  24.925  11.218
55311W        W26982  43.344  10.769  10.729
55312W        W26983  26.239  44.234   0.936
55313W        W26984  41.908  37.875  10.841
55314W        W26985  21.471  24.297   1.776
55315W        W26986   6.938  18.700  12.042
55316W        W26987  22.689   9.361   2.662
55317W        W26988  28.472   2.080  11.314
55318W        W26989  18.135  27.992   2.487
55319W        W26990  28.014  31.872   3.761
55320W        W26991  44.989  25.564   4.540
55321W        W26992  21.677  41.376  12.065
55322W        W26993  33.527   2.514   4.649
55323W        W26994  39.647  43.400  14.334
55324W        W26995  32.343   5.799   4.616
55325W        W26996  32.965  24.905   4.359
55326W        W26997  33.435  38.418  12.046
55327W        W26998  12.331  20.340  14.285
55328W        W26999  37.285  22.674   4.126
55329W        W27000  12.995  11.702  13.909
55330W        W27001   9.979  34.347  13.315
55331W        W27002  13.322  16.147   1.199
55332W        W27003  33.145  34.750   1.267
55333W        W27004   8.841  27.193   2.133
55334W        W27005  25.130   6.469  12.846
55335W        W27006  32.732  14.122   0.072
55336W        W27007   1.801  19.285  12.532
55337W        W27008  10.783   7.686   1.400
55338W        W27009  14.819   8.546   0.066
55339W        W27010   4.806  24.706  10.010
55340W        W27011   2.530   7.381  14.011
55341W        W27012  37.045  32.936  12.867
55342W        W27013  38.246  34.219   1.916
55343W        W27014  28.420  13.995   2.796
55344W        W27015  18.075  24.616  10.893
55345W        W27016  36.266  17.094   1.309
55346W        W27017   2.001  34.349   0.372
55347W        W27018  27.498  29.629  14.296
55348W        W27019  13.379  28.893   2.209
55349W        W27020  11.209  18.083   2.714
55350W        W27021  12.298  25.604  14.742
55351W        W27022   0.008  42.069  13.947
55352W        W27023   5.718  43.828   1.659
55353W        W27024  32.467  28.055  10.872
55354W        W27025  32.411  24.171  12.988
55355W        W27026  22.471  38.832  14.373
55356W        W27027  21.128  38.812  13.479
55357W        W27028  13.945  15.663  14.780
55358W        W27029  13.936   5.772  14.469
55359W        W27030  13.884  36.586   3.837
55360W        W27031  44.925  17.395  11.994
55361W        W27032  19.148   1.006  12.166
55362W        W27033  16.128  41.358   1.372
55363W        W27034  26.121   6.483  12.830
55364W        W27035  17.197  17.688   0.953
55365W        W27036  22.428   0.143  10.222
55366W        W27037  28.212  32.363  10.235
55367W        W27038   3.940  20.255   3.392
55368W        W27039  43.487  16.826   4.200
55369W        W27040  22.003   4.361   0.422
55370W        W27041  41.908  44.332   2.710
55371W        W27042   1.398  10.958   3.166
55372W        W27043  25.136  19.592  10.715
55373W        W27044  27.036  23.286   2.693
55374W        W27045  44.829  32.875   1.945
55375W        W27046  40.578  11.518  12.908
55376W        W27047  44.715  29.153   1.863
55377W        W27048  25.259   8.727  13.295
55378W        W27049   7.090  32.024  12.026
55379W        W27050  32.339  15.661   1.216
55380W        W27051  42.213  38.533  11.903
55381W        W27052  31.902   8.070   3.669
55382W        W27053   7.735   6.225  11.616
55383W        W27054  23.936  32.289  10.999
55384W        W27055   0.452   4.822   3.235
55385W        W27056  17.274  27.454   0.815
55386W        W27057  34.010   7.634  14.450
55387W        W27058  11.598  15.110   1.902
55388W        W27059  22.814  36.098   0.609
55389W        W27060   2.493  23.411  11.170
55390W        W27061  15.263  38.264   1.519
55391W        W27062  11.210   1.717   4.657
55392W        W27063  24.737  20.124   1.427
55393W        W27064   8.784  29.635  14.806
55394W        W27065  24.945   9.823   3.799
55395W        W27066  13.611   7.863   0.262
55396W        W27067  40.779  30.096  12.093
55397W        W27068   8.757  34.502  13.844
55398W        W27069  31.557   1.235  12.541
55399W        W27070   5.160  40.334  12.972
55400W        W27071  27.925  42.966   0.896
55401W        W27072  19.324   5.468   1.289
55402W        W27073   9.652   1.039  13.904
55403W        W27074   2.989  41.459  10.733
55404W        W27075  40.132   1.799  11.163
55405W        W27076   9.690  13.771   4.613
55406W        W27077  36.809  41.238   3.200
55407W        W27078  17.631  29.528   4.552
55408W        W27079  22.725  14.370  14.858
55409W        W27080  26.111  25.931  13.597
55410W        W27081   8.608  28.485  14.460
55411W        W27082  26.950  11.172  14.065
55412W        W27083   1.208  12.328   4.341
55413W        W27084  30.448  30.695   1.642
55414W        W27085  27.461  40.285  12.988
55415W        W27086  38.274  11.828   4.610
55416W        W27087  22.162  10.405   3.243
55417W        W27088  37.328   4.264  14.905
55418W        W27089   5.679  30.978   2.206
55419W        W27090  29.910  16.085   0.562
55420W        W27091   5.544  16.114  10.693
55421W        W27092  37.878   5.298   4.834
55422W        W27093  19.965  15.629   1.426
55423W        W27094   8.255   2.288   0.735
55424W        W27095   9.195   5.738   1.046
55425W        W27096  10.080  39.613  11.539
55426W        W27097  34.236  13.223  14.022
55427W        W27098  25.772  20.887   3.797
55428W        W27099  29.100  24.579  12.005
55429W        W27100   1.558  27.726   1.742
55430W        W27101  11.110  40.490   2.782
55431W        W27102  23.000  14.662   4.069
55432W        W27103  32.748  23.006  12.420
55433W        W27104   4.876  22.750  14.839
55434W        W27105  42.309   4.955  12.062
55435W        W27106  43.757   5.693   3.730
55436W        W27107  12.315   1.383   0.340
55437W        W27108  11.846  26.514   4.193
55438W        W27109  37.761  36.973   1.307
55439W        W27110   8.608  27.226   0.741
55440W        W27111  30.629  18.608   3.699
55441W        W27112  22.683   4.440   0.949
55442W        W27113   1.732  13.126  14.778
55443W        W27114  14.052  11.178   2.655
55444W        W27115  11.279  24.424  12.586
55445W        W27116   7.587  10.700   3.292
55446W        W27117   6.954  18.191  10.382
55447W        W27118  41.721  19.220   2.682
55448W        W27119   0.812  29.682   2.649
55449W        W27120  11.274  39.946   0.709
55450W        W27121  13.837   8.571   1.807
55451W        W27122  13.351  38.458   2.884
55452W        W27123  42.805  20.069   5.037
55453W        W27124  25.681  40.356  13.861
55454W        W27125  20.082   6.756  14.325
55455W        W27126  41.932  28.932  11.113
55456W        W27127  24.080  37.605  12.850
55457W        W27128  29.635  12.628   2.779
55458W        W27129  28.277  30.595   3.656
55459W        W27130   6.026  29.508   3.245
55460W        W27131  37.447  23.545  13.132
55461W        W27132  29.970   0.539   3.633
55462W        W27133  14.694  11.820   2.161
55463W        W27134   6.724  37.035  13.805
55464W        W27135  30.364  36.310   2.889
55465W        W27136  15.152  15.228   2.256
55466W        W27137   5.177   9.412   1.329
55467W        W27138  20.989   1.944   4.422
55468W        W27139  11.379  36.887  12.640
55469W        W27140  18.999  24.014   3.631
55470W        W27141  11.624   1.922   1.421
55471W        W27142  23.064   0.863   3.792
55472W        W27143  22.167  28.762  12.900
55473W        W27144  26.992  18.157   3.470
55474W        W27145  41.468  39.974  11.479
55475W        W27146   4.298   9.273  13.951
55476W        W27147  44.932  23.784  12.955
55477W        W27148  19.068   2.551   2.463
55478W        W27149   2.286   9.684  11.462
55479W        W27150   7.199  18.877   3.876
55480W        W27151  16.035   6.751  12.317
55481W        W27152   2.303   0.018   4.892
55482W        W27153  41.947   7.981   4.499
55483W        W27154  28.620   2.933  14.241
55484W        W27155  22.042   8.486   2.737
55485W        W27156  28.479  31.776  13.340
55486W        W27157   7.407  25.469  11.979
55487W        W27158  20.175  41.905   1.190
55488W        W27159  21.370  37.079   1.899
55489W        W27160  33.066  33.746   4.414
55490W        W27161  34.436   6.354   2.813
55491W        W27162   5.227  44.417  11.965
55492W        W27163  41.902  23.238   2.188
55493W        W27164  13.224   3.307  12.107
55494W        W27165  24.488  24.573   2.124
55495W        W27166  10.236  12.188  12.871
55496W        W27167  18.667  39.969  12.192
55497W        W27168  28.662  33.950   1.258
55498W        W27169  43.844  23.091   3.308
55499W        W27170  38.338  40.937   0.240
55500W        W27171   4.457  30.079   4.881
55501W        W27172  41.302  16.778  13.421
55502W        W27173  16.315  36.360   2.841
55503W        W27174  25.098  38.197  12.124
55504W        W27175  30.885   3.476  10.083
55505W        W27176  12.754   0.275  12.909
55506W        W27177  31.125  26.015   2.196
55507W        W27178  18.097  11.332  12.370
55508W        W27179  20.483  31.673  12.262
55509W        W27180  39.537   4.453   4.112
55510W        W27181  44.769  32.301  10.688
55511W        W27182  12.641   4.863  13.343
55512W        W27183  10.687   4.665   0.372
55513W        W27184  28.895   0.328   2.305
55514W        W27185  17.796  26.525   0.375
55515W        W27186  26.989  18.320   2.466
55516W        W27187   4.424   2.902  11.147
55517W        W27188   7.648  41.865   1.782
55518W        W27189  13.914  26.119   2.338
55519W        W27190  42.309  36.137  13.379
55520W        W27191  20.349  11.163  11.154
55521W        W27192   1.817   1.493  13.650
55522W        W27193  29.797  34.365  12.497
55523W        W27194  35.759   4.156   0.887
55524W        W27195  35.165  21.735   1.047
55525W        W27196   0.438   3.875  12.397
55526W        W27197  21.554  17.203   2.163
55527W        W27198  42.842  13.681   2.200
55528W        W27199  43.794  16.632  14.333
55529W        W27200  41.454  44.585   2.646
55530W        W27201  35.955  20.104   0.473
55531W        W27202   5.727  13.563   1.212
55532W        W27203  41.599  36.218   2.832
55533W        W27204  22.155  30.453  13.463
55534W        W27205   0.088  31.496   0.804
55535W        W27206   0.730  25.230   0.400
55536W        W27207  16.738  26.123   0.194
55537W        W27208  12.284  44.880   4.203
55538W        W27209   7.251   4.953   2.444
55539W        W27210   2.776  20.768   1.233
55540W        W27211  18.070  28.436  10.553
55541W        W27212  10.100   4.373  14.809
55542W        W27213   5.657  20.991  10.618
55543W        W27214  15.635  39.320  13.463
55544W        W27215   8.972  39.373  14.794
55545W        W27216  26.900  30.338  12.852
55546W        W27217  16.554  41.558  12.580
55547W        W27218   9.965   6.677  10.977
55548W        W27219  20.661  37.327   2.265
55549W        W27220   3.173  36.956   0.361
55550W        W27221  39.046  40.465   3.216
55551W        W27222  16.634  23.176   3.194
55552W        W27223  36.085  20.060   4.445
55553W        W27224   2.762  36.160  11.657
55554W        W27225  25.295   5.282   1.739
55555W        W27226  28.933  17.013   0.858
55556W        W27227  14.699   1.394   2.653
55557W        W27228  44.585  17.763   4.214
55558W        W27229  18.266  42.261  13.012
55559W        W27230  15.580  12.850  11.100
55560W        W27231  11.652  29.600   1.838
55561W        W27232  20.063   5.946  11.703
55562W        W27233  37.411  44.406   3.602
55563W        W27234  32.196  27.608   3.664
55564W        W27235  14.025  18.203  10.794
55565W        W27236   9.576  36.597  14.292
55566W        W27237   6.413  33.511   1.303
55567W        W27238   0.493  11.666  14.761
55568W        W27239  10.664   8.457  14.418
55569W        W27240  31.448  42.235   3.164
55570W        W27241  14.780  36.033  11.608
55571W        W27242  27.650  16.972   3.600
55572W        W27243  23.774   2.405   1.321
55573W        W27244  15.779  32.320  14.367
55574W        W27245   4.192  33.882   3.313
55575W        W27246   0.906  37.092  13.525
55576W        W27247  40.115  10.154  14.050
55577W        W27248  35.740  42.118   1.631
55578W        W27249   1.225  27.674   2.736
55579W        W27250  36.912  39.990   2.093
55580W        W27251   2.863  38.177   0.737
55581W        W27252  22.488  43.030  11.694
55582W        W27253  25.958  29.563  11.207
55583W        W27254  13.563  30.680  11.726
55584W        W27255   6.241   4.647   0.282
55585W        W27256  13.269  17.754  11.063
55586W        W27257  15.061  15.117  12.030
55587W        W27258  20.553  24.762   0.936
55588W        W27259  42.202  43.894   1.961
55589W        W27260  13.400  31.920  12.302
55590W        W27261   7.507  27.022  14.808
55591W        W27262  39.961   7.664   3.097
55592W        W27263  16.053  19.113  11.649
55593W        W27264  33.812  21.705  14.330
55594W        W27265  23.884  35.113  11.106
55595W        W27266  37.002  44.468   1.878
55596W        W27267  19.479  14.718   5.160
55597W        W27268   7.809  28.796   4.472
55598W        W27269  21.255  35.936   3.747
55599W        W27270  40.387  36.390  13.323
55600W        W27271  31.640  17.099  14.521
55601W        W27272  34.446  24.524   3.690
55602W        W27273  10.235  32.820   0.061
55603W        W27274  14.560  11.200   2.783
55604W        W27275  27.099  20.944  13.377
55605W        W27276  38.486  25.450  11.625
55606W        W27277  36.440  11.910  10.404
55607W        W27278  20.781  25.657  13.531
55608W        W27279   9.647  25.280  11.917
55609W        W27280  11.661  18.549  13.051
55610W        W27281  27.037   6.559   5.007
55611W        W27282   0.935   9.251  10.739
55612W        W27283  16.232  41.451   0.424
55613W        W27284  13.826   4.492  14.869
55614W        W27285   5.679  31.624  14.899
55615W        W27286  14.685   3.834  11.110
55616W        W27287  34.036   9.948   1.645
55617W        W27288  39.557  43.741  13.120
55618W        W27289  24.938  36.200  12.098
55619W        W27290  28.182  30.661   0.466
55620W        W27291  12.782  30.280   3.819
55621W        W27292  27.524  18.113  10.819
55622W        W27293   5.343  25.514  11.510
55623W        W27294  21.678  44.579   3.767
55624W        W27295  19.134  10.724  13.341
55625W        W27296  11.130   3.713  12.976
55626W        W27297  23.651  23.982   1.679
55627W        W27298  28.216   6.288  14.451
55628W        W27299  18.786  24.354   0.263
55629W        W27300  18.635  41.827   4.171
55630W        W27301   0.987  24.243  11.400
55631W        W27302   4.590   9.197   4.584
55632W        W27303  42.576  13.762  12.878
55633W        W27304   9.186  40.290  12.589
55634W        W27305   5.384  35.528   1.452
55635W        W27306  30.658  22.300  11.654
55636W        W27307  11.819  40.082   4.133
55637W        W27308  24.583  42.513   1.417
55638W        W27309   6.881  43.541  13.720
55639W        W27310   9.350  41.845   4.060
55640W        W27311  32.688  22.051   1.398
55641W        W27312  37.990  19.058   3.152
55642W        W27313   9.333  33.102   1.296
55643W        W27314  37.076  35.385   1.855
55644W        W27315   2.564  27.968   4.613
55645W        W27316  13.244  31.030   3.576
55646W        W27317   9.246   8.388  11.949
55647W        W27318  18.287   3.336  10.371
55648W        W27319  11.122   7.258   1.349
55649W        W27320   2.258  26.893   5.046
55650W        W27321  21.149  42.260   1.409
55651W        W27322  27.791  20.180   2.154
55652W        W27323  12.886  38.209   2.892
55653W        W27324  20.018  21.112   3.842
55654W        W27325  10.068  11.720  13.563
55655W        W27326  11.280  33.358  11.629
55656W        W27327  42.544   5.783   2.235
55657W        W27328  20.790  10.165   1.200
55658W        W27329  28.456  41.359   2.696
55659W        W27330  12.116  43.409   4.242
55660W        W27331   8.960  38.908   0.773
55661W        W27332  17.672   2.922  10.806
55662W        W27333  13.163  20.134  13.584
55663W        W27334  24.755   5.654  12.483
55664W        W27335  35.109  16.598  14.339
55665W        W27336  25.133   3.831  10.814
55666W        W27337   2.721  29.946  12.973
55667W        W27338  22.484  25.731   3.652
55668W        W27339  26.945  12.874   2.706
55669W        W27340  25.611  13.877  11.339
55670W        W27341  17.046  19.115   0.661
55671W        W27342   0.241  37.938   4.569
55672W        W27343   8.680  34.421   0.333
55673W        W27344  30.557  20.224  10.904
55674W        W27345  40.328  28.301  12.867
55675W        W27346  19.813  40.273   0.718
55676W        W27347  13.468  29.589  12.671
55677W        W27348  28.463  42.753  12.004
55678W        W27349  35.214  34.011  12.099
55679W        W27350  23.596  14.530   2.193
55680W        W27351   3.655  21.545  14.424
55681W        W27352   6.298   1.511  11.601
55682W        W27353  40.469   3.175  13.457
55683W        W27354   9.268  11.721   2.966
55684W        W27355  38.349  40.597  10.546
55685W        W27356  14.531  13.572   1.853
55686W        W27357   1.423  41.968  14.012
55687W        W27358   8.148  17.817  13.132
55688W        W27359  40.872   3.851   0.010
55689W        W27360  31.475  26.388  14.056
55690W        W27361  13.031   8.947  11.903
55691W        W27362   1.269  15.804   4.333
55692W        W27363   2.331   3.855   4.894
55693W        W27364   4.407  17.454  11.652
55694W        W27365  35.930  34.407  12.585
55695W        W27366  14.676   5.279   3.716
55696W        W27367   4.506   2.201   1.902
55697W        W27368  10.825  21.641   3.169
55698W        W27369  31.866  36.751   3.551
55699W        W27370  36.578  44.880  11.956
55700W        W27371  33.688  38.523   4.089
55701W        W27372  44.871  24.037   0.825
55702W        W27373   3.162   0.273   4.590
55703W        W27374  44.363   6.279  12.068
55704W        W27375  16.657   0.907  12.366
55705W        W27376  15.629   0.830   5.111
55706W        W27377  44.610   3.005   0.993
55707W        W27378  37.058   8.800  11.103
55708W        W27379   1.010  25.376   9.858
55709W        W27380  19.255  16.873   0.620
55710W        W27381   9.625  34.020  13.881
55711W        W27382  33.627  12.415  13.505
55712W        W27383  35.723  22.686  13.046
55713W        W27384  17.019  21.271   2.296
55714W        W27385  40.013  19.433  12.021
55715W        W27386  18.767   7.225   1.462
55716W        W27387  37.267  17.184   4.081
55717W        W27388  17.280  32.056   2.652
55718W        W27389   3.891  10.418   3.944
55719W        W27390   0.218  39.116  14.769
55720W        W27391  35.905   8.166   3.734
55721W        W27392  26.817   3.865  14.188
55722W        W27393   0.541  13.899   4.612
55723W        W27394  34.130  10.358  14.040
55724W        W27395   7.179   5.817  12.457
55725W        W27396   8.444  15.571   0.475
55726W        W27397  12.702   0.135  14.543
55727W        W27398  28.432  42.437  13.401
55728W        W27399   8.852  11.919  14.848
55729W        W27400   1.321  40.784   1.812
55730W        W27401  32.613  16.048  14.927
55731W        W27402   8.895  20.210  13.381
55732W        W27403  42.075   4.018  13.589
55733W        W27404   5.871   1.233   2.383
55734W        W27405  39.911  36.147  14.341
55735W        W27406  14.213  27.434  12.858
55736W        W27407  13.880  37.766  12.514
55737W        W27408  19.229   9.214   4.202
55738W        W27409   7.878  39.440   3.240
55739W        W27410  12.252  44.410   3.933
55740W        W27411   2.834  12.821  12.192
55741W        W27412  26.832  27.373   1.201
55742W        W27413  30.747  34.067   2.346
55743W        W27414  19.511   8.758   0.843
55744W        W27415  10.488   1.608   4.164
55745W        W27416  29.937  36.415  11.071
55746W        W27417  15.079  32.212   4.037
55747W        W27418  34.385   4.653  13.870
55748W        W27419  42.356  39.361  13.380
55749W        W27420  31.697   3.428  11.545
55750W        W27421   9.685  35.782   3.307
55751W        W27422   1.280   0.409  11.168
55752W        W27423  44.500  43.319   4.152
55753W        W27424  10.438  30.441  12.897
55754W        W27425  34.809  24.446  10.783
55755W        W27426  30.835  16.415   1.461
55756W        W27427  33.083  27.520  11.998
55757W        W27428   4.114  27.619   1.272
55758W        W27429  35.048  33.891   3.690
55759W        W27430  24.138   7.337  14.355
55760W        W27431  35.936  24.083  11.166
55761W        W27432   5.813  25.090   3.859
55762W        W27433   1.753  36.612   2.249
55763W        W27434   6.022  37.736  10.806
55764W        W27435  35.831  25.975   1.680
55765W        W27436   3.219  16.465   4.546
55766W        W27437  28.666  20.904   1.858
55767W        W27438  13.830  43.473   2.242
55768W        W27439  34.509  27.397  14.706
55769W        W27440  21.250  27.124   1.881
55770W        W27441   0.347   4.753   1.741
55771W        W27442   2.997  37.652  11.665
55772W        W27443  39.259   2.468   4.183
55773W        W27444  22.821  28.596   2.735
55774W        W27445   2.250  37.810   3.301
55775W        W27446  20.063  36.490   4.329
55776W        W27447  38.021  16.032  13.801
55777W        W27448  23.498  19.375  11.495
55778W        W27449  14.047  44.261   4.565
55779W        W27450  33.449  37.493  12.001
55780W        W27451  32.064  16.482  13.018
55781W        W27452  26.565   6.153  11.138
55782W        W27453  20.516  31.050   3.728
55783W        W27454  10.946  44.501   2.232
55784W        W27455  12.187  23.287   4.255
55785W        W27456   0.139  12.860  12.862
55786W        W27457  30.030  21.145  11.057
55787W        W27458  21.789  43.626   4.093
55788W        W27459  32.878   0.042  13.026
55789W        W27460   5.365  10.191  11.031
55790W        W27461  34.862  36.390   3.242
55791W        W27462  17.671  35.815   0.466
55792W        W27463   6.347  10.247   1.861
55793W        W27464  19.151  26.398   3.292
55794W        W27465  27.984   3.282  11.120
55795W        W27466   2.271  31.477   1.378
55796W        W27467  10.157  11.267  12.113
55797W        W27468   7.917  35.192   0.911
55798W        W27469  13.011  28.126   4.143
55799W        W27470   2.729  25.140  11.459
55800W        W27471   1.971   0.807  10.800
55801W        W27472  40.943  26.435  10.761
55802W        W27473  28.543  22.036   3.982
55803W        W27474  17.507  32.033   4.842
55804W        W27475   7.804  43.835  10.463
55805W        W27476  40.646  35.291  11.675
55806W        W27477  21.751   7.839  13.884
55807W        W27478  37.591  15.051   2.125
55808W        W27479  13.595  31.679   4.240
55809W        W27480  33.739  29.123   2.699
55810W        W27481   0.585  35.556  12.526
55811W        W27482  37.531  10.818  13.430
55812W        W27483  43.789  28.990   3.773
55813W        W27484  10.715  43.845  10.266
55814W        W27485  34.150  25.751   4.209
55815W        W27486  11.635  31.251   3.343
55816W        W27487  25.630  31.375  10.812
55817W        W27488  31.899  11.841  13.522
55818W        W27489  43.781   4.552  10.886
55819W        W27490  11.769  28.582   3.301
55820W        W27491   5.020  22.239   3.406
55821W        W27492  21.767  31.357  11.125
55822W        W27493  20.721  20.868  14.955
55823W        W27494  29.615  39.284   3.676
55824W        W27495   0.666  21.547  11.120
55825W        W27496  39.286  14.711  13.356
55826W        W27497  25.707  38.388   1.751
55827W        W27498   7.945   3.294   4.681
55828W        W27499  23.528  36.961   3.543
55829W        W27500  23.182  36.553  11.492
55830W        W27501  34.556  37.858  13.359
55831W        W27502  30.196  31.618  14.020
55832W        W27503  41.900  23.048   0.814
55833W        W27504  25.516  22.315   1.668
55834W        W27505  24.737  13.496   2.480
55835W        W27506  21.998  15.865   1.859
55836W        W27507  25.318  11.732   2.701
55837W        W27508  23.270  25.079   3.613
55838W        W27509  13.409  35.458  12.215
55839W        W27510  32.916   6.977   1.704
55840W        W27511   7.138  44.572   5.203
55841W        W27512  38.641  16.049   0.879
55842W        W27513  35.188  37.411   4.521
55843W        W27514  25.488  21.743  12.011
55844W        W27515  18.356  13.755   3.463
55845W        W27516  39.737  30.384   4.298
55846W        W27517  18.702  22.693   0.497
55847W        W27518  32.566  33.871   4.243
55848W        W27519  20.754  44.792  14.923
55849W        W27520   3.896  10.839  11.514
55850W        W27521  29.999  12.812  12.023
55851W        W27522  14.557  34.476   4.592
55852W        W27523  13.134   9.606  14.391
55853W        W27524  34.385  16.247  14.729
55854W        W27525  18.592  38.908   1.326
55855W        W27526  14.771  11.661   0.779
55856W        W27527  29.494  31.023   3.785
55857W        W27528  41.239  44.468  14.456
55858W        W27529  43.856  30.340   2.406
55859W        W27530  19.228   7.852   4.532
55860W        W27531   6.916   1.256   0.201
55861W        W27532  17.302  33.934   0.318
55862W        W27533   5.573   8.283  14.376
55863W        W27534  20.722  42.787  11.667
55864W        W27535  30.543  33.131   1.428
55865W        W27536  37.805  10.164  11.136
55866W        W27537  40.698  42.922  10.825
55867W        W27538   1.530  37.148  12.012
55868W        W27539  18.547  39.371  14.385
55869W        W27540  38.806  20.811  11.079
55870W        W27541  31.215  17.560  13.814
55871W        W27542  39.065  38.509  12.031
55872W        W27543   4.260  40.937  12.502
55873W        W27544  20.768  36.741  11.851
55874W        W27545  10.586   3.388   3.654
55875W        W27546   3.156  22.066   0.806
55876W        W27547  39.107  32.928  14.190
55877W        W27548  19.647  12.390   3.087
55878W        W27549   9.184  36.602   0.933
55879W        W27550  40.305  18.281  11.154
55880W        W27551  33.367  38.787   2.317
55881W        W27552  13.244  14.081   1.213
55882W        W27553  22.132  38.953   2.456
55883W        W27554  43.027  18.184  11.124
55884W        W27555  13.105  14.119  13.163
55885W        W27556  22.981  31.946   1.466
55886W        W27557   3.010  24.594   1.894
55887W        W27558  44.828   2.344   2.445
55888W        W27559  17.705  17.085  11.144
55889W        W27560  40.424  16.827  12.405
55890W        W27561   7.422  33.923  14.692
55891W        W27562  24.431   8.827   4.863
55892W        W27563  21.682  25.711   5.575
55893W        W27564   3.382  41.969  11.541
55894W        W27565  15.180   4.680   3.781
55895W        W27566  20.469  31.966   3.307
55896W        W27567  11.973  28.050   0.350
55897W        W27568  42.729  11.648  14.901
55898W        W27569   8.810   7.130   2.800
55899W        W27570  37.071  15.078   2.035
55900W        W27571  20.833  12.523  10.349
55901W        W27572  30.011   4.941   0.355
55902W        W27573  43.874  19.842   0.984
55903W        W27574  42.821   1.952  10.577
55904W        W27575  15.097  20.789  14.219
55905W        W27576  24.572  28.127   1.767
55906W        W27577  14.203  36.932  12.539
55907W        W27578  41.393  28.086   3.990
55908W        W27579  20.478  19.367   4.691
55909W        W27580  10.403  26.963  10.757
55910W        W27581  18.204  25.898   3.727
55911W        W27582  10.737  27.775   0.651
55912W        W27583  22.298  35.625  13.738
55913W        W27584  44.176  41.451   3.251
55914W        W27585  10.149  12.400   2.344
55915W        W27586  33.660   9.055  13.024
55916W        W27587  22.475  28.224   2.818
55917W        W27588  16.223  21.827  10.390
55918W        W27589   3.678  33.460   4.543
55919W        W27590  38.915   2.175   0.884
55920W        W27591  22.654  10.182   3.140
55921W        W27592   3.728   6.989   3.765
55922W        W27593  10.186  15.794   2.289
55923W        W27594   5.618  13.653   3.593
55924W        W27595  44.210   5.795  13.834
55925W        W27596   4.907  29.041  10.736
55926W        W27597   2.786  36.098  14.344
55927W        W27598  35.784  12.789   2.875
55928W        W27599  21.739  17.061   3.642
55929W        W27600   6.837  13.512   1.223
55930W        W27601   5.207  13.157  13.035
55931W        W27602  28.184   5.091   3.325
55932W        W27603  18.580  27.210   0.279
55933W        W27604  10.555  23.498   4.579
55934W        W27605   2.969  35.553   1.177
55935W        W27606  21.766  21.510   1.170
55936W        W27607  42.576  36.963   2.281
55937W        W27608   4.922  21.981   2.407
55938W        W27609   0.792  18.107  11.150
55939W        W27610   5.021  30.629  11.393
55940W        W27611  41.644  15.510  12.338
55941W        W27612  17.248  44.332   0.733
55942W        W27613  15.318   6.211  14.394
55943W        W27614  43.311   2.297   0.889
55944W        W27615  21.782  15.153   4.205
55945W        W27616  30.930  17.260   1.814
55946W        W27617  24.411  22.721   3.841
55947W        W27618   4.900  41.053   2.491
55948W        W27619   4.425  33.422  14.944
55949W        W27620  16.512  14.850  12.823
55950W        W27621  11.827  32.361  11.033
55951W        W27622   7.923  18.560  14.687
55952W        W27623   9.108   7.827   4.077
55953W        W27624  13.786  20.713  14.716
55954W        W27625   2.696  10.612   4.707
55955W        W27626  10.191  27.645   1.444
55956W        W27627  23.550  39.803   4.140
55957W        W27628  29.546  27.965   4.084
55958W        W27629  12.831  28.141  11.962
55959W        W27630  17.222  33.982  11.417
55960W        W27631  15.347  40.801  11.573
55961W        W27632  32.292   2.341   1.319
55962W        W27633   3.911  16.793   3.641
55963W        W27634  12.905  39.296  11.180
55964W        W27635  13.709  26.652  12.543
55965W        W27636  36.988  41.721   3.204
55966W        W27637  33.939  20.273   1.882
55967W        W27638  35.889  30.608  11.025
55968W        W27639  37.635   8.953   2.064
55969W        W27640  40.776   5.434   1.297
55970W        W27641  23.641  34.565   3.384
55971W        W27642  12.337  39.357   2.273
55972W        W27643  43.267  20.645   1.780
55973W        W27644   9.860  29.464  10.622
55974W        W27645  40.453  44.791   4.145
55975W        W27646  33.090  16.623  13.384
55976W        W27647  16.979  38.057   1.213
55977W        W27648  29.119  33.001  13.353
55978W        W27649  23.661   2.332   4.351
55979W        W27650  23.485  18.645   4.671
55980W        W27651  21.191  26.348   0.146
55981W        W27652  40.861  33.594  14.914
55982W        W27653  18.608   5.981   0.870
55983W        W27654  32.164  28.867  11.185
55984W        W27655  37.976  14.697  11.936
55985W        W27656  22.777  44.605  14.140
55986W        W27657  30.163  16.836   3.290
55987W        W27658   5.133  38.165  10.998
55988W        W27659  40.090  32.047   0.444
55989W        W27660  39.446  16.274  11.677
55990W        W27661   1.823  44.310  12.124
55991W        W27662  25.484  14.436  13.858
55992W        W27663   4.959   8.342   3.946
55993W        W27664  18.560  10.887  11.641
55994W        W27665  11.120  30.930  12.520
55995W        W27666  17.367  15.131  13.329
55996W        W27667  32.032  40.910  14.485
55997W        W27668   0.284   2.297   3.809
55998W        W27669  32.377   7.401  10.122
55999W        W27670  27.080   1.182   4.023
56000W        W27671  16.086  14.309  12.609
56001W        W27672  15.754   0.463   4.463
56002W        W27673  40.306  31.092  14.458
56003W        W27674   5.736  24.731  10.423
56004W        W27675  27.511   3.269   4.833
56005W        W27676  27.484  29.585  11.063
56006W        W27677  23.533   1.274  11.931
56007W        W27678  29.997   6.437  11.171
56008W        W27679  29.403   8.283   3.642
56009W        W27680  32.015  35.213   4.122
56010W        W27681   3.410  18.069   3.732
56011W        W27682  23.949  38.869   3.406
56012W        W27683   6.717  11.946   3.221
56013W        W27684  16.067  11.337  11.119
56014W        W27685   9.442  16.266   4.239
56015W        W27686   0.912  31.099  13.105
56016W        W27687  31.667  29.030   2.355
56017W        W27688  40.497  22.988  12.526
56018W        W27689  38.923  16.484  13.427
56019W        W27690  44.824   3.689   4.620
56020W        W27691   5.657   3.179  10.928
56021W        W27692   1.991  21.723  10.232
56022W        W27693   5.644  33.600   1.718
56023W        W27694  21.221  31.620  13.958
56024W        W27695  30.515   8.269   0.263
56025W        W27696  27.934  17.175   3.176
56026W        W27697  10.207   7.644   0.218
56027W        W27698   3.911  17.493   0.914
56028W        W27699  16.103   0.431  11.069
56029W        W27700  11.067  44.535  14.022
56030W        W27701  19.707  23.014  11.975
56031W        W27702   0.720   6.475   0.533
56032W        W27703  44.805  30.394  14.717
56033W        W27704  41.621  34.960  12.033
56034W        W27705  44.562  28.459   1.924
56035W        W27706  39.760  37.122   1.913
56036W        W27707  14.504   4.937   0.349
56037W        W27708  26.696  33.416  10.578
56038W        W27709  10.652  26.793   1.655
56039W        W27710  39.680  22.678   5.034
56040W        W27711   0.421  43.583   1.799
56041W        W27712  19.097  20.198   2.476
56042W        W27713  30.073   1.384  12.372
56043W        W27714  22.604  21.912  14.526
56044W        W27715  10.479  37.028   4.323
56045W        W27716  43.998  30.076   4.823
56046W        W27717  34.281   1.498   2.792
56047W        W27718  21.532   8.214  10.775
56048W        W27719  42.845  39.356   4.993
56049W        W27720  23.218  20.592   0.301
56050W        W27721   1.006  26.679  10.765
56051W        W27722  42.490  40.369   2.296
56052W        W27723  10.425  36.979  12.022
56053W        W27724   6.745  36.341   3.152
56054W        W27725  19.384  32.906  11.096
56055W        W27726   2.350  44.452   4.193
56056W        W27727   4.996   1.211  11.119
56057W        W27728  33.330  11.611   1.847
56058W        W27729   0.329  25.162  10.843
56059W        W27730  32.532   5.355  12.628
56060W        W27731  31.102  28.852  11.165
56061W        W27732   6.084  41.606   4.094
56062W        W27733   8.001  43.575   0.734
56063W        W27734  29.118  39.482   2.404
56064W        W27735  42.204  41.871   5.073
56065W        W27736  25.602   6.410   3.756
56066W        W27737   9.669  19.654   0.264
56067W        W27738  22.596  37.706   3.630
56068W        W27739   0.418   0.482  12.440
56069W        W27740   8.650   7.490  11.733
56070W        W27741  43.439  40.460   0.036
56071W        W27742   3.602  17.256   1.288
56072W        W27743  16.300   0.179  14.888
56073W        W27744  26.098  41.483   4.301
56074W        W27745  21.211   2.311   3.100
56075W        W27746  40.296  43.795   1.342
56076W        W27747  21.098  10.142  13.578
56077W        W27748  38.523  28.914   4.506
56078W        W27749  31.582  21.495   4.448
56079W        W27750  11.323  27.039  11.008
56080W        W27751  38.915  20.533  12.862
56081W        W27752  41.685  44.677   1.355
56082W        W27753  14.710   5.183   4.533
56083W        W27754  10.008  43.041  10.194
56084W        W27755  10.287  44.262   1.814
56085W        W27756  20.631  18.084   4.703
56086W        W27757  11.147   4.994   3.618
56087W        W27758   0.400  29.540   0.476
56088W        W27759  19.586  31.614  12.330
56089W        W27760  16.849  23.080  12.079
56090W        W27761  24.179  37.003  14.253
56091W        W27762  39.883  25.699  13.826
56092W        W27763  12.530  26.220   2.155
56093W        W27764  20.482  29.006  12.659
56094W        W27765   0.401  25.544  13.774
56095W        W27766  41.842  40.276  12.403
56096W        W27767  34.128  37.110   3.172
56097W        W27768  12.147  12.836   2.442
56098W        W27769  12.417  15.599   2.597
56099W        W27770   9.216  17.198  10.251
56100W        W27771   1.598  22.542  11.436
56101W        W27772  17.830  25.029  14.488
56102W        W27773  35.942  32.115   2.857
56103W        W27774  42.272   3.695  10.693
56104W        W27775  43.517  29.154   4.200
56105W        W27776  41.796  41.512   0.757
56106W        W27777  31.905  11.338   1.159
56107W        W27778  42.750  27.061  14.312
56108W        W27779   8.265   7.135   0.408
56109W        W27780   5.800  11.002  13.375
56110W        W27781  11.624   7.110   2.353
56111W        W27782   1.082  33.537  13.912
56112W        W27783  29.295  34.885   4.612
56113W        W27784   7.046  11.322  12.424
56114W        W27785  20.447  28.354  14.870
56115W        W27786  20.370   9.719   0.773
56116W        W27787  26.057  11.038  14.587
56117W        W27788  24.782   2.750  12.496
56118W        W27789  37.941  43.437  13.148
56119W        W27790  34.606  42.330   2.821
56120W        W27791  34.105  27.068  10.538
56121W        W27792  18.096   0.247   0.350
56122W        W27793   4.395  14.575   1.395
56123W        W27794   5.684  25.473  14.845
56124W        W27795  11.765   2.521  11.444
56125W        W27796   4.962  27.166  13.015
56126W        W27797  27.684  30.950   4.763
56127W        W27798   5.449  42.424   0.967
56128W        W27799  13.448  41.363  13.028
56129W        W27800   0.893  11.677  11.162
56130W        W27801  20.553  35.200   1.413
56131W        W27802  34.119   1.875   2.289
56132W        W27803   5.825   4.476   2.155
56133W        W27804   3.978   3.926   0.918
56134W        W27805  13.135  22.296  14.737
56135W        W27806  26.502   0.442   3.243
56136W        W27807  39.270  10.738  13.853
56137W        W27808   4.855  32.339  14.089
56138W        W27809  39.694  38.502   0.779
56139W        W27810  30.635  36.470  13.430
56140W        W27811  31.013   4.413  13.929
56141W        W27812   9.054  39.378   2.778
56142W        W27813  33.764  30.886  11.628
56143W        W27814  40.799   3.206  13.850
56144W        W27815  26.220  37.095   4.786
56145W        W27816  12.096  24.235  11.520
56146W        W27817  10.266  30.654  14.300
56147W        W27818  11.385   2.805   2.270
56148W        W27819  28.599   0.907   3.792
56149W        W27820  42.720   1.017  11.884
56150W        W27821   1.924  39.536   0.298
56151W        W27822   4.366  11.065   0.063
56152W        W27823   1.822  30.105  10.593
56153W        W27824  26.955  44.263   0.220
56154W        W27825   7.839   9.362  13.786
56155W        W27826  43.125   6.888  10.927
56156W        W27827  29.815  25.430   4.613
56157W        W27828   4.374  26.422  14.932
56158W        W27829   3.554  34.924   3.066
56159W        W27830  10.103  14.079   1.378
56160W        W27831   5.197  33.626   4.831
56161W        W27832  22.552  23.792   1.791
56162W        W27833   9.630  36.392   1.126
56163W        W27834  24.680   4.180  11.703
56164W        W27835  42.419  17.058  11.505
56165W        W27836  30.614  41.458  12.907
56166W        W27837  39.850  29.382   4.356
56167W        W27838  22.252  25.451   4.064
56168W        W27839  18.982  34.337  12.065
56169W        W27840  20.762  12.830   2.300
56170W        W27841  10.885  37.927   0.254
56171W        W27842  27.604  29.575   0.727
56172W        W27843  15.575  10.584   3.209
56173W        W27844  28.687  35.174  14.925
56174W        W27845  28.071   6.901   2.828
56175W        W27846  13.399  13.145   4.159
56176W        W27847   6.489  30.935   4.607
56177W        W27848   3.836   8.645   4.929
56178W        W27849  17.640  29.682  14.486
56179W        W27850  24.476  14.803   1.818
56180W        W27851  12.176  26.499   1.932
56181W        W27852  43.545  30.353  14.736
56182W        W27853  36.429  22.731  12.852
56183W        W27854  27.050  16.368  14.664
56184W        W27855  30.478  12.252   0.743
56185W        W27856  30.858  12.663   0.819
56186W        W27857  35.467   0.976   1.366
56187W        W27858  11.322   8.012  13.729
56188W        W27859  34.696   1.278   4.325
56189W        W27860  41.922   6.413  13.863
56190W        W27861  19.556  18.051  12.596
56191W        W27862  33.180  21.444  13.515
56192W        W27863  28.760  20.983  13.986
56193W        W27864  33.641   8.733  10.740
56194W        W27865  18.586  10.961   1.374
56195W        W27866   5.299   3.066  10.571
56196W        W27867  10.458   0.614  11.415
56197W        W27868   5.281   8.880   1.376
56198W        W27869  26.238  40.131   0.945
56199W        W27870  10.159  11.303  13.849
56200W        W27871  33.070  42.914  13.985
56201W        W27872  27.454   4.235  13.364
56202W        W27873   7.389  11.580   3.825
56203W        W27874  10.219  34.515   3.741
56204W        W27875  39.343  30.984   2.557
56205W        W27876  40.349  14.795   4.554
56206W        W27877  42.850  35.401  14.654
56207W        W27878  25.050  37.088   0.790
56208W        W27879  36.921   5.349  10.617
56209W        W27880  26.950  30.997   4.148
56210W        W27881   7.837   2.744  10.644
56211W        W27882  23.412   8.053  14.516
56212W        W27883  14.593  27.142   1.214
56213W        W27884   5.151  41.780   2.852
56214W        W27885  19.651   7.095  14.588
56215W        W27886  27.585  40.693   0.889
56216W        W27887   7.948  30.937   0.957
56217W        W27888   3.815  21.079   0.106
56218W        W27889  15.145  17.788  12.628
56219W        W27890  18.121   9.845  11.872
56220W        W27891  15.301  29.205  11.637
56221W        W27892  22.127   9.331   0.974
56222W        W27893  36.405  26.891   0.546
56223W        W27894  13.196  20.621   0.405
56224W        W27895   9.248  22.703   4.866
56225W        W27896   5.636  17.005  10.649
56226W        W27897  38.597  39.807  14.768
56227W        W27898  30.397   1.683  11.598
56228W        W27899  25.965  26.080   4.554
56229W        W27900  10.110  41.870  13.032
56230W        W27901  11.819  22.278  11.444
56231W        W27902  13.705  39.106  12.861
56232W        W27903   3.859  31.332  12.886
56233W        W27904   6.760  33.895  11.796
56234W        W27905  33.584  14.637  11.725
56235W        W27906  42.893  23.031  10.622
56236W        W27907  12.155  14.268   3.588
56237W        W27908  34.896  43.631  11.020
56238W        W27909  13.674  37.634  14.431
56239W        W27910  22.275  17.536  11.729
56240W        W27911  19.933  26.165   9.834
56241W        W27912  11.132  16.653   4.303
56242W        W27913  34.429  39.297   2.541
56243W        W27914  22.261  32.439   2.337
56244W        W27915   5.726  29.446  12.368
56245W        W27916  17.590   0.215   1.354
56246W        W27917   9.873  39.512   3.748
56247W        W27918  12.895  23.607   1.788
56248W        W27919  20.629  10.459   0.315
56249W        W27920  37.954   4.027   2.725
56250W        W27921  44.628  43.272  13.463
56251W        W27922   1.405  16.307   4.280
56252W        W27923  25.504  32.553   1.437
56253W        W27924  11.685  43.914   2.398
56254W        W27925  19.318   0.573  14.345
56255W        W27926  31.472  25.931  14.583
56256W        W27927  37.518  29.516   1.306
56257W        W27928  19.318  36.654  13.261
56258W        W27929  14.413  24.662  11.054
56259W        W27930  14.151  31.264  13.498
56260W        W27931  41.090  11.707  10.597
56261W        W27932   9.955  26.185   2.528
56262W        W27933  11.053  33.525   0.029
56263W        W27934  26.488  13.121   3.377
56264W        W27935  20.575  21.950  11.220
56265W        W27936  21.657  22.112  13.015
56266W        W27937  32.715  14.111  12.551
56267W        W27938   2.477  41.212   2.434
56268W        W27939   0.766  36.685   0.455
56269W        W27940  20.211  12.673   3.144
56270W        W27941  19.739  20.644   4.790
56271W        W27942   2.977  14.513  14.880
56272W        W27943  39.636  16.968  11.527
56273W        W27944  41.503  44.020  13.503
56274W        W27945   6.792   0.309  12.324
56275W        W27946  29.499  44.595   1.623
56276W        W27947  27.891   6.422   9.792
56277W        W27948  36.180  13.864  14.442
56278W        W27949   5.327  17.379   4.610
56279W        W27950  36.959  22.622  11.067
56280W        W27951  10.851   5.930  10.428
56281W        W27952   1.734  42.816   1.822
56282W        W27953  24.710   4.843   0.342
56283W        W27954   9.901  25.913   4.539
56284W        W27955  18.057  41.975   0.819
56285W        W27956  28.904  24.498  14.873
56286W        W27957  20.829  22.091  14.135
56287W        W27958   7.922   2.937  12.098
56288W        W27959  33.443  18.601   4.669
56289W        W27960  44.483  33.488  14.953
56290W        W27961  21.659  41.441   4.198
56291W        W27962  24.224  31.302   0.978
56292W        W27963  23.555  37.457   2.281
56293W        W27964   1.398  34.571   4.059
56294W        W27965  35.406   8.144   2.571
56295W        W27966  22.029  28.935  13.520
56296W        W27967   2.560  37.049  13.651
56297W        W27968  32.978  42.662   4.178
56298W        W27969  35.632  38.572  14.561
56299W        W27970   9.137  29.634  10.801
56300W        W27971  36.113  22.021   4.219
56301W        W27972  23.640  16.669   2.849
56302W        W27973  27.183   5.037   1.521
56303W        W27974   0.958  22.790   5.289
56304W        W27975   9.885  42.725  10.608
56305W        W27976  10.377  32.062   3.584
56306W        W27977  11.761  13.072   1.978
56307W        W27978   0.092  29.687  11.908
56308W        W27979  44.343  38.414   4.542
56309W        W27980  16.736  11.732   3.203
56310W        W27981  16.617  41.469  14.996
56311W        W27982  22.024  44.180  10.215
56312W        W27983  41.782  23.595  12.437
56313W        W27984  20.597  18.041   2.147
56314W        W27985   8.251  19.654   1.938
56315W        W27986  31.784   3.250   4.213
56316W        W27987  18.413  26.839   2.264
56317W        W27988   1.835  15.235   4.715
56318W        W27989  24.022   9.967   4.780
56319W        W27990  10.186  30.394  12.444
56320W        W27991   1.147  41.047  10.785
56321W        W27992  36.554  14.259  12.786
56322W        W27993  44.336  18.020  13.373
56323W        W27994  28.079  24.251  11.954
56324W        W27995  30.387  16.068   3.598
56325W        W27996  14.007  15.451   4.541
56326W        W27997  42.536  29.956  11.427
56327W        W27998  39.117  34.347  12.876
56328W        W27999   2.831  22.530  12.419
56329W        W28000  39.499  41.395   1.909
56330W        W28001  26.161  38.064   0.777
56331W        W28002  29.866  15.616  11.744
56332W        W28003  43.400  42.923   1.671
56333W        W28004  31.821  15.578  10.068
56334W        W28005  17.314  40.433   1.788
56335W        W28006  14.259  10.261   2.978
56336W        W28007  10.620  25.534   0.434
56337W        W28008  41.478  43.858   4.141
56338W        W28009  39.308  30.095  12.926
56339W        W28010  18.296  20.086  11.972
56340W        W28011  31.066  12.300  11.254
56341W        W28012  35.446   6.615   3.493
56342W        W28013  41.452  23.566   4.858
56343W        W28014  26.617   3.325   3.348
56344W        W28015   9.763   3.479  11.600
56345W        W28016  22.056  12.281   2.254
56346W        W28017  33.379  20.015  10.170
56347W        W28018  25.210  10.777  11.067
56348W        W28019  36.334  44.843   4.132
56349W        W28020   0.390  14.221  12.787
56350W        W28021  44.413  23.969  11.587
56351W        W28022  13.548  43.908  12.608
56352W        W28023  10.264   2.546  12.860
56353W        W28024  21.685  39.445   3.120
56354W        W28025  11.983  32.298  14.940
56355W        W28026  22.427  43.514  14.859
56356W        W28027  13.590  27.522   2.271
56357W        W28028  20.794  17.237  12.468
56358W        W28029  40.629   0.486  14.955
56359W        W28030  24.196  38.928   0.158
56360W        W28031  21.067  14.191  14.801
56361W        W28032  30.141  33.952   3.690
56362W        W28033  14.655  18.533   0.326
56363W        W28034  34.614  42.242  13.998
56364W        W28035  44.085  33.452  10.751
56365W        W28036  12.397   9.792  13.921
56366W        W28037  17.788  42.858   1.322
56367W        W28038  27.416  20.713   1.280
56368W        W28039  29.080  32.665   1.588
56369W        W28040  31.400  27.951  14.640
56370W        W28041  26.442   0.443  13.334
56371W        W28042  22.473  34.969   2.568
56372W        W28043  15.290   8.899  12.064
56373W        W28044  25.692  20.821  13.311
56374W        W28045  27.280  38.491  11.527
56375W        W28046   8.695   2.739   0.459
56376W        W28047  27.787   6.837   4.562
56377W        W28048  13.803  31.772   2.315
56378W        W28049  44.431   8.871   4.251
56379W        W28050  24.204  34.490  12.042
56380W        W28051  28.155  28.755  11.075
56381W        W28052  30.031   8.949   2.744
56382W        W28053  34.565   1.024  13.709
56383W        W28054  31.525  15.689  11.891
56384W        W28055  12.143  14.413  11.140
56385W        W28056  10.239  24.715  13.480
56386W        W28057  28.189  26.497  13.841
56387W        W28058  16.228  43.776  12.265
56388W        W28059  19.641   6.684   1.509
56389W        W28060   8.852  42.256  14.936
56390W        W28061   2.456  17.897   3.576
56391W        W28062  39.296   5.711  14.457
56392W        W28063  34.080   2.004   1.343
56393W        W28064  20.459  39.537   2.835
56394W        W28065  40.405   3.736  12.817
56395W        W28066  44.776   8.953  13.848
56396W        W28067  15.542  42.971   4.182
56397W        W28068  31.638  13.721  11.209
56398W        W28069  43.999  13.815   4.213
56399W        W28070  13.993  28.521  13.843
56400W        W28071   0.102  15.229  14.385
56401W        W28072  21.054  43.660   3.578
56402W        W28073  19.729  20.186  14.611
56403W        W28074  37.326   0.729  13.881
56404W        W28075  26.758   2.415   4.972
56405W        W28076  18.876   2.905   4.689
56406W        W28077  28.620  37.879   3.335
56407W        W28078  36.157  20.573  13.764
56408W        W28079  44.753  37.617  12.387
56409W        W28080  41.522  13.708   3.689
56410W        W28081  14.673  17.774  13.324
56411W        W28082  34.627   3.874   1.687
56412W        W28083  42.753   0.224  12.101
56413W        W28084   2.753   5.472   1.821
56414W        W28085  35.312  19.516  11.094
56415W        W28086  24.552   2.400  12.149
56416W        W28087   5.712  34.348   2.441
56417W        W28088   4.909  43.953  12.050
56418W        W28089   1.007  31.072  11.121
56419W        W28090  15.146  43.766  13.418
56420W        W28091  37.767  39.946   1.953
56421W        W28092   6.390  14.239   4.573
56422W        W28093  32.114  44.895  11.046
56423W        W28094  17.071  28.227  10.786
56424W        W28095  14.630  16.016  12.836
56425W        W28096   1.984  23.129   0.783
56426W        W28097  13.267  12.323   4.716
56427W        W28098  22.174  22.513   1.194
56428W        W28099  35.559  13.200  14.439
56429W        W28100  23.564   7.447  13.918
56430W        W28101  38.593  15.722  13.354
56431W        W28102  44.265  11.097  13.451
56432W        W28103  38.794  22.171  14.330
56433W        W28104   9.613  10.153  13.048
56434W        W28105  35.469  15.501  14.316
56435W        W28106   8.331  24.924   2.134
56436W        W28107  22.173  10.782   3.609
56437W        W28108  15.626  37.088   4.744
56438W        W28109  22.108  14.238  10.485
56439W        W28110  33.135   7.240  12.691
56440W        W28111   2.871  19.918   2.943
56441W        W28112   1.920  29.356   3.067
56442W        W28113  33.991  32.709  13.253
56443W        W28114  30.883  12.333  13.048
56444W        W28115  20.282  27.116   1.751
56445W        W28116  35.496  33.085   4.791
56446W        W28117  44.522  10.239  13.567
56447W        W28118  26.645  30.959  10.738
56448W        W28119  12.387  20.637  12.009
56449W        W28120  37.917   5.327  11.017
56450W        W28121  19.692  30.744   1.208
56451W        W28122  23.536  33.618  11.543
56452W        W28123  15.287  23.000  11.583
56453W        W28124   9.214   4.192   0.677
56454W        W28125  13.225  40.924   3.858
56455W        W28126   1.742  33.880   3.320
56456W        W28127   2.157   6.017   2.870
56457W        W28128  26.477  32.725   0.543
56458W        W28129   2.750  36.088  13.399
56459W        W28130  22.893  14.656   1.682
56460W        W28131   9.210  16.553  12.977
56461W        W28132  31.071   4.928  13.908
56462W        W28133   8.857  44.778  14.545
56463W        W28134   8.608   1.446  12.988
56464W        W28135  35.054  17.295   4.031
56465W        W28136  29.493  17.691   2.148
56466W        W28137   1.442  25.148  14.848
56467W        W28138   9.325   1.756   2.762
56468W        W28139   6.116  17.566   0.729
56469W        W28140  29.190  24.453  12.499
56470W        W28141  18.243  15.515   1.895
56471W        W28142  19.260  26.324   2.366
56472W        W28143   3.906  25.049  10.915
56473W        W28144  34.558  40.518  14.286
56474W        W28145  33.505  31.224   3.870
56475W        W28146  17.666  36.077  12.411
56476W        W28147  25.134  16.982   2.834
56477W        W28148  37.601   5.872  12.890
56478W        W28149   3.822  24.029   3.823
56479W        W28150  13.695  15.616  10.689
56480W        W28151  28.722  14.736  12.651
56481W        W28152  44.432  17.045   2.239
56482W        W28153  18.123  22.056  14.475
56483W        W28154   1.837  40.726  12.906
56484W        W28155   5.691  23.544   1.864
56485W        W28156  40.203   7.799   4.830
56486W        W28157  11.254  33.130  11.145
56487W        W28158  33.089  43.119   0.918
56488W        W28159  20.596  21.106  13.839
56489W        W28160   2.919   5.289   2.859
56490W        W28161  10.298  44.720  13.544
56491W        W28162   9.895   0.771  14.464
56492W        W28163  27.468  43.878   0.010
56493W        W28164  44.070  29.611  11.504
56494W        W28165   6.579  39.980  12.155
56495W        W28166   8.680  39.851  13.581
56496W        W28167  40.768  27.946   1.829
56497W        W28168  29.851  40.897  10.670
56498W        W28169  35.375   0.529  14.930
56499W        W28170  44.012  20.262  14.329
56500W        W28171   1.437  30.040   1.697
56501W        W28172  32.364  10.324   1.262
56502W        W28173  15.719  36.893   3.394
56503W        W28174  12.319   8.950   4.975
56504W        W28175   2.944  24.021   2.269
56505W        W28176  24.636   1.468  11.317
56506W        W28177  39.868   7.808  11.225
56507W        W28178  42.356  36.790  13.967
56508W        W28179  32.271   2.679  11.529
56509W        W28180  40.710  36.523   4.594
56510W        W28181   7.747   2.003  12.965
56511W        W28182  25.960  27.374  13.910
56512W        W28183  14.853   0.210  10.337
56513W        W28184  24.463  30.553   4.591
56514W        W28185  31.502   3.222   2.834
56515W        W28186  13.686  43.818   1.473
56516W        W28187  21.646  12.093  13.802
56517W        W28188   1.800  21.340  14.757
56518W        W28189  42.370   2.859   0.754
56519W        W28190  10.955  28.486   1.872
56520W        W28191  17.186  32.906  13.489
56521W        W28192  43.381   0.842   4.303
56522W        W28193  33.667  30.246  13.527
56523W        W28194  12.761  16.752  13.877
56524W        W28195  17.707  40.499   3.425
56525W        W28196   0.266  18.239  11.682
56526W        W28197   1.461  16.056  14.453
56527W        W28198  38.255  13.026  11.092
56528W        W28199  36.402  43.314  12.087
56529W        W28200  15.616  10.033   1.885
56530W        W28201  25.646   0.200  11.924
56531W        W28202   8.278  42.723   1.742
56532W        W28203  34.803   0.998   0.585
56533W        W28204   6.760   0.433  14.781
56534W        W28205  32.863   2.304   3.296
56535W        W28206   7.677  24.744  10.682
56536W        W28207  18.643   7.193   4.782
56537W        W28208   3.894  34.903  10.729
56538W        W28209  25.118   8.085  11.444
56539W        W28210   8.722  18.752   4.136
56540W        W28211  38.635  24.098  14.713
56541W        W28212   0.496  16.609   1.305
56542W        W28213   0.962  44.078   4.893
56543W        W28214  26.265  20.655   3.804
56544W        W28215  22.337  17.390  14.761
56545W        W28216   6.804  36.866   0.885
56546W        W28217   8.899  42.899   2.338
56547W        W28218  19.640  44.301   4.117
56548W        W28219  37.967  28.599  12.180
56549W        W28220  29.584   2.955  12.871
56550W        W28221  34.406  39.868  11.467
56551W        W28222  44.742  32.667  14.884
56552W        W28223   1.359  36.885  12.785
56553W        W28224  17.192  31.057   2.717
56554W        W28225  11.767   0.030   4.567
56555W        W28226   1.742  28.688   2.082
56556W        W28227   1.349   0.674  11.622
56557W        W28228  34.841  35.087  12.409
56558W        W28229  29.036  36.629  10.973
56559W        W28230  36.377  16.197  12.004
56560W        W28231  29.589  44.837   4.346
56561W        W28232  11.617   6.232   1.615
56562W        W28233   1.189  17.864  12.878
56563W        W28234   1.820  30.409  11.355
56564W        W28235   1.978   3.663  14.934
56565W        W28236  14.731   3.927   0.497
56566W        W28237  17.379  14.151  12.919
56567W        W28238   5.718  25.471  13.055
56568W        W28239   3.431  31.121  13.998
56569W        W28240  33.042  43.013   2.965
56570W        W28241  42.327  37.430  12.927
56571W        W28242  27.055  34.466  12.250
56572W        W28243  12.920  10.205   0.462
56573W        W28244  39.456  17.350  13.460
56574W        W28245   5.502  28.427  10.399
56575W        W28246   3.002  35.853   4.173
56576W        W28247   7.372  41.997   4.610
56577W        W28248   0.377  37.662   3.316
56578W        W28249   0.212  40.173   4.730
56579W        W28250  15.302  12.599  12.274
56580W        W28251  33.635   4.297  10.686
56581W        W28252  37.541  17.389  11.690
56582W        W28253  37.174  29.571  13.916
56583W        W28254  20.658  40.043   5.083
56584W        W28255  44.337  23.537  13.907
56585W        W28256  11.782  26.812   1.864
56586W        W28257  28.152   5.770  11.135
56587W        W28258  28.533  36.922   3.376
56588W        W28259  34.090  44.546   1.828
56589W        W28260  15.336   5.523   2.808
56590W        W28261  12.597  31.014   1.878
56591W        W28262   2.040  14.685   3.645
56592W        W28263   5.757  30.211   0.440
56593W        W28264  17.162  25.320  12.594
56594W        W28265  40.484  29.060   3.265
56595W        W28266   3.806   7.286   0.410
56596W        W28267   3.384   3.897  14.859
56597W        W28268   3.273  30.602  14.771
56598W        W28269  33.470   1.641   1.671
56599W        W28270  26.367  38.405   2.384
56600W        W28271   9.824  10.690   3.229
56601W        W28272  10.350  34.135   4.667
56602W        W28273  44.273   9.680  11.876
56603W        W28274   5.969  29.922  11.322
56604W        W28275   0.452  31.994  12.935
56605W        W28276  13.872  34.393   3.056
56606W        W28277  15.688  43.095   3.114
56607W        W28278  31.204  13.358  14.155
56608W        W28279   6.380  24.542   1.267
56609W        W28280  19.167  12.320  10.276
56610W        W28281  37.813  10.340   1.231
56611W        W28282  28.437  13.470  14.380
56612W        W28283  26.906  10.402  11.577
56613W        W28284  38.652  35.003  11.937
56614W        W28285  27.620  43.496   4.811
56615W        W28286  38.285   2.728  12.549
56616W        W28287  19.824  38.886   1.809
56617W        W28288  23.310  31.603  13.741
56618W        W28289  37.597  19.473   3.184
56619W        W28290   8.436   9.772   1.409
56620W        W28291  31.820  36.509   2.137
56621W        W28292  38.018  43.024  12.253
56622W        W28293  24.047  10.573  13.013
56623W        W28294  29.426  15.096   3.724
56624W        W28295  30.105  17.545   2.787
56625W        W28296  32.496  28.014   3.834
56626W        W28297  26.243  29.069  14.440
56627W        W28298  40.690  27.593   4.233
56628W        W28299   5.928  26.215  12.617
56629W        W28300   3.681  28.647  14.128
56630W        W28301  12.109  36.533   1.708
56631W        W28302   5.436  26.520  11.500
56632W        W28303  11.281  44.133   2.695
56633W        W28304  26.540  26.948   4.943
56634W        W28305   0.744  15.959  10.119
56635W        W28306  13.823  16.257   2.556
56636W        W28307  44.871  21.955  14.574
56637W        W28308   5.929  14.572   4.642
56638W        W28309  35.499  17.769   3.513
56639W        W28310   7.759  43.293  14.765
56640W        W28311  31.693  18.983   0.730
56641W        W28312  44.335  12.588  12.557
56642W        W28313  15.613   7.194   0.436
56643W        W28314  40.002  29.830  11.305
56644W        W28315  21.204  42.987  11.051
56645W        W28316  12.604  17.135  10.193
56646W        W28317  32.573   9.850  12.035
56647W        W28318  25.201  29.088  12.036
56648W        W28319  22.660  38.764   3.871
56649W        W28320  19.722  14.156  10.565
56650W        W28321  19.547  27.428  12.177
56651W        W28322  27.931  42.397  10.637
56652W        W28323  15.449  28.194  14.975
56653W        W28324   0.447  42.985  10.732
56654W        W28325   7.983  32.299  14.572
56655W        W28326  20.760   1.335   1.167
56656W        W28327  10.737  11.112  12.824
56657W        W28328  44.512  44.591  12.014
56658W        W28329  27.541  31.255   0.385
56659W        W28330  15.311   6.093   1.065
56660W        W28331  18.615  15.624  11.616
56661W        W28332  23.807   5.031   3.245
56662W        W28333  39.740  43.307   4.087
56663W        W28334  40.901  28.244   4.756
56664W        W28335   9.884   2.693  13.378
56665W        W28336  16.756  20.016   2.772
56666W        W28337  35.074  22.589  14.825
56667W        W28338  25.720  16.264  11.216
56668W        W28339  12.182  32.911  11.420
56669W        W28340  24.681  21.824   0.866
56670W        W28341   7.807  33.567  14.089
56671W        W28342  29.480   2.153   2.287
56672W        W28343  42.283  39.104   2.798
56673W        W28344  27.503   6.031   1.879
56674W        W28345  23.936   6.865   2.255
56675W        W28346   8.880  11.928   2.715
56676W        W28347  12.855   8.094   1.902
56677W        W28348  40.509  16.560   1.177
56678W        W28349  30.646  26.694   4.228
56679W        W28350  41.982  23.771   2.184
56680W        W28351  41.578  39.864  13.504
56681W        W28352  34.241  15.017   3.129
56682W        W28353  14.117  19.721   1.579
56683W        W28354   2.865  35.065  11.032
56684W        W28355  14.790  13.050   4.964
56685W        W28356  12.085  21.669   3.096
56686W        W28357  40.877  40.241   0.926
56687W        W28358  30.526  25.246   0.863
56688W        W28359  26.696  13.801   0.241
56689W        W28360  11.871  20.636   1.432
56690W        W28361   1.247  17.267  12.017
56691W        W28362  43.062  43.897   0.939
56692W        W28363  11.075  32.143   0.123
56693W        W28364  12.152  24.967   1.794
56694W        W28365  28.884  27.150   4.841
56695W        W28366  25.266  33.694   4.968
56696W        W28367  29.610  14.514  11.653
56697W        W28368  17.817  42.655  14.848
56698W        W28369   7.591  36.131   4.271
56699W        W28370  37.952   8.455  12.499
56700W        W28371  18.631   7.417   4.322
56701W        W28372  27.746  36.068   2.245
56702W        W28373  30.085  39.387  10.933
56703W        W28374   7.882   2.458   3.215
56704W        W28375   5.826  42.513   1.730
56705W        W28376  42.430  18.229  13.401
56706W        W28377  13.954  30.773  13.360
56707W        W28378  23.235  29.922   0.344
56708W        W28379  30.128  22.016  12.464
56709W        W28380  24.705  11.747   2.200
56710W        W28381  16.449   7.288  10.274
56711W        W28382  43.770  36.465   2.980
56712W        W28383  37.958  33.671   3.235
56713W        W28384  39.326  31.662   0.392
56714W        W28385  25.077  44.130   4.667
56715W        W28386  42.313  44.072  13.020
56716W        W28387   7.088  12.231  13.692
56717W        W28388   5.975  35.564  13.321
56718W        W28389  39.549  26.213   1.147
56719W        W28390  41.122  24.676   0.829
56720W        W28391  30.018  38.218  14.499
56721W        W28392  29.835  41.252  12.533
56722W        W28393  33.333  28.929  14.338
56723W        W28394  42.767  39.582   0.015
56724W        W28395  27.253  20.995   0.811
56725W        W28396  24.210  35.072  13.928
56726W        W28397  25.198  20.093   1.057
56727W        W28398  41.956   1.726  10.104
56728W        W28399  10.957  18.563   0.254
56729W        W28400  38.893  13.917  10.504
56730W        W28401  40.558  14.793   3.583
56731W        W28402   0.076  31.007   4.544
56732W        W28403  13.721  31.469   0.517
56733W        W28404  35.678  14.395   4.771
56734W        W28405  36.825  24.162   0.890
56735W        W28406  32.584  27.942  13.872
56736W        W28407   5.839  42.260   3.365
56737W        W28408  30.666  32.019   1.675
56738W        W28409  26.487  11.116  12.502
56739W        W28410   3.174  18.816   0.479
56740W        W28411  33.510  13.364   2.406
56741W        W28412  43.287  44.852   2.741
56742W        W28413  33.023  11.289   0.150
56743W        W28414   1.376  33.839   4.541
56744W        W28415   8.110  36.250   0.364
56745W        W28416  34.111  36.275   3.512
56746W        W28417  27.060   5.395  12.670
56747W        W28418  25.810   6.879  12.572
56748W        W28419  23.057   4.961   2.654
56749W        W28420  16.578  18.202  13.905
56750W        W28421  18.219  33.136   0.837
56751W        W28422  11.093  10.626  10.600
56752W        W28423   5.769  44.667   1.449
56753W        W28424  22.639  41.595   3.284
56754W        W28425  17.864  10.212   3.326
56755W        W28426  42.377  20.189   4.535
56756W        W28427  25.679   8.801  12.859
56757W        W28428   0.448   0.535   1.489
56758W        W28429   2.359   1.669  11.558
56759W        W28430  30.060  42.446   2.923
56760W        W28431  26.643  24.529   2.813
56761W        W28432  16.055  20.573   3.749
56762W        W28433  31.891  22.260   1.933
56763W        W28434  10.651  30.134  12.481
56764W        W28435  35.835  37.391  11.918
56765W        W28436  25.665  19.376  12.416
56766W        W28437  24.009  30.442  12.248
56767W        W28438   1.987  21.089  10.227
56768W        W28439   0.055   5.773   1.866
56769W        W28440  23.590  29.387  11.000
56770W        W28441  42.313   3.345  12.169
56771W        W28442  24.552  40.345  13.604
56772W        W28443  44.998  42.888  11.185
56773W        W28444   1.786  11.811   2.162
56774W        W28445  19.899  16.766   1.869
56775W        W28446  34.669   9.422   1.421
56776W        W28447  18.629  38.518  12.995
56777W        W28448  17.532  13.365  11.251
56778W        W28449   5.366   1.007  12.921
56779W        W28450  12.516  34.426   4.012
56780W        W28451  28.139  28.615   3.767
56781W        W28452  31.267  34.488   3.155
56782W        W28453  44.764  23.320  12.094
56783W        W28454  19.641  12.283  10.091
56784W        W28455  22.645   4.418   4.334
56785W        W28456  43.713   3.929  13.004
56786W        W28457  13.371  43.775  13.614
56787W        W28458  37.836  25.979   2.733
56788W        W28459  11.179  18.825   2.561
56789W        W28460   8.288   4.251   0.657
56790W        W28461  19.941   7.369   4.623
56791W        W28462   1.016  35.162  11.481
56792W        W28463  34.553  28.199  11.366
56793W        W28464  22.756  16.782  10.664
56794W        W28465  32.334  23.278  12.311
56795W        W28466  28.732  13.092  14.870
56796W        W28467  23.363   2.610  11.596
56797W        W28468  13.788  14.670  11.704
56798W        W28469  42.609   3.532   2.379
56799W        W28470  16.740  38.803  12.019
56800W        W28471  29.638   7.884   2.337
56801W        W28472  19.051  12.818  13.879
56802W        W28473  43.954  25.008   3.346
56803W        W28474  21.207   7.905  12.994
56804W        W28475  29.035  24.950   3.104
56805W        W28476  29.968   2.752   0.986
56806W        W28477  20.028  15.749   0.912
56807W        W28478  36.095  26.900  14.793
56808W        W28479  28.149  21.192  10.295
56809W        W28480  36.471  40.659   1.808
56810W        W28481  43.386  33.584   3.153
56811W        W28482  38.865  28.144   4.954
56812W        W28483  35.185  18.129   3.707
56813W        W28484  34.387  22.698  12.926
56814W        W28485  24.225  41.402  11.957
56815W        W28486  36.206  27.110  11.625
56816W        W28487  32.890   2.205  11.640
56817W        W28488  42.322   7.968   1.824
56818W        W28489   9.859  33.091  14.295
56819W        W28490   6.344  32.335  13.711
56820W        W28491  18.484   4.727   1.387
56821W        W28492   9.390  16.034  12.911
56822W        W28493  15.601  10.635   0.806
56823W        W28494  21.435  40.997   4.199
56824W        W28495   8.196  20.492  10.719
56825W        W28496  16.275  41.366  10.616
56826W        W28497   3.978  39.844   4.376
56827W        W28498  43.994  22.057  12.095
56828W        W28499  28.799   3.400   4.021
56829W        W28500  38.527  38.877   4.618
56830W        W28501  38.181  25.340   2.251
56831W        W28502   7.637  34.060  14.242
56832W        W28503   0.338  11.608   3.395
56833W        W28504  34.785   8.343  11.278
56834W        W28505  38.937   9.697  10.657
56835W        W28506  39.479  15.898   1.123
56836W        W28507  27.517  44.415   1.356
56837W        W28508  31.007  19.754  12.042
56838W        W28509  37.370  37.407  13.558
56839W        W28510  29.577  30.525   3.610
56840W        W28511   3.497  16.044  12.440
56841W        W28512  41.519  42.426  11.896
56842W        W28513  30.959  30.134   1.966
56843W        W28514  27.877  26.099  13.776
56844W        W28515  39.853   7.674  14.983
56845W        W28516   2.133  19.634  13.863
56846W        W28517   3.831  17.910  10.956
56847W        W28518  25.532   5.508  14.456
56848W        W28519  18.156  17.346  11.237
56849W        W28520   0.053  43.966   0.931
56850W        W28521  33.274  11.288   1.278
56851W        W28522   5.019  42.915   4.538
56852W        W28523  32.142  38.013  12.379
56853W        W28524   3.283   1.793   3.219
56854W        W28525   6.299  33.369   2.211
56855W        W28526  20.525   3.928  11.817
56856W        W28527  31.371   4.767   1.225
56857W        W28528   4.417  11.998   4.589
56858W        W28529   7.276   8.306   4.000
56859W        W28530  41.829  40.499   3.258
56860W        W28531  27.721  42.993  13.381
56861W        W28532  16.975  31.833   1.247
56862W        W28533   2.222  18.486   0.466
56863W        W28534  11.780  16.653   4.142
56864W        W28535  25.736  16.492  14.054
56865W        W28536  19.737  26.945  11.968
56866W        W28537  22.192   4.757   3.968
56867W        W28538   2.914  17.133   1.924
56868W        W28539  33.135  30.563  12.351
56869W        W28540   3.957  42.930  10.636
56870W        W28541  31.949  23.289   3.546
56871W        W28542  40.697   7.051  13.392
56872W        W28543  19.794   2.507  12.931
56873W        W28544  37.164  32.651   0.514
56874W        W28545   8.062   9.028   3.244
56875W        W28546  32.703  43.932  11.916
56876W        W28547  30.384  11.264  14.789
56877W        W28548  24.905  26.553  12.990
56878W        W28549  36.263  33.065  11.430
56879W        W28550   7.164  27.374  14.928
56880W        W28551  15.781  27.622  13.464
56881W        W28552  35.939  40.669  13.854
56882W        W28553  33.397  14.390  13.555
56883W        W28554   4.229  20.292   4.885
56884W        W28555   7.737  13.232  13.248
56885W        W28556   9.184  24.781   4.155
56886W        W28557  35.794  28.448   4.620
56887W        W28558   8.534   3.236  14.541
56888W        W28559   1.949  36.962   0.028
56889W        W28560  33.910  29.735   2.812
56890W        W28561  12.609  23.199   0.732
56891W        W28562  37.130  24.195   4.527
56892W        W28563  22.659  27.384  11.181
56893W        W28564  31.673  42.249  11.610
56894W        W28565   1.331   3.833   0.699
56895W        W28566  18.174  13.840   2.536
56896W        W28567  39.433  32.957   3.641
56897W        W28568  42.012   8.325   3.719
56898W        W28569  20.667   8.146   4.309
56899W        W28570   5.671  17.374  14.475
56900W        W28571  30.606  38.935  14.369
56901W        W28572  18.536   7.766  10.730
56902W        W28573   7.961  28.912  10.398
56903W        W28574   5.901  13.687   1.752
56904W        W28575  39.900  13.187  10.998
56905W        W28576  33.907  21.540  11.285
56906W        W28577  19.527   0.886  12.493
56907W        W28578  29.710  12.755   1.151
56908W        W28579   4.977   9.799  13.849
56909W        W28580  28.631  42.844  14.872
56910W        W28581  10.995  30.180   0.838
56911W        W28582  31.901  18.154   4.253
56912W        W28583  31.776   5.648  14.636
56913W        W28584   5.402  26.934  10.764
56914W        W28585  10.132  23.635  11.424
56915W        W28586  44.962  27.960   2.166
56916W        W28587  39.327  44.333  12.525
56917W        W28588  38.917  37.629  11.903
56918W        W28589  38.373  19.236  12.499
56919W        W28590  32.553  22.066   0.514
56920W        W28591  16.676  37.633   1.149
56921W        W28592  22.124  24.935   1.826
56922W        W28593  43.452  25.413  11.941
56923W        W28594   3.852  17.807   4.537
56924W        W28595  44.607  12.313   9.871
56925W        W28596  29.417  32.001  10.214
56926W        W28597  25.850  13.152   1.825
56927W        W28598   9.840  20.029   2.687
56928W        W28599   6.745  13.555  14.782
56929W        W28600  30.442  22.614  13.989
56930W        W28601  34.290   7.280   1.443
56931W        W28602   5.884  36.366  12.150
56932W        W28603  25.461  26.291  10.652
56933W        W28604   6.789  41.917  12.112
56934W        W28605  41.457   9.328   0.299
56935W        W28606  22.080  31.469  10.694
56936W        W28607  44.039  19.245   4.634
56937W        W28608  30.671   3.807   4.558
56938W        W28609  33.078  10.288   1.860
56939W        W28610  27.232  34.426   0.840
56940W        W28611  26.743  32.125   3.368
56941W        W28612  38.632   4.960  13.914
56942W        W28613  14.161  43.470   3.649
56943W        W28614  40.560  39.802   2.141
56944W        W28615  25.728  19.373   3.779
56945W        W28616  30.503  15.847  13.392
56946W        W28617  34.574   9.396   4.659
56947W        W28618  19.669  44.681  13.398
56948W        W28619   4.736  32.676  12.387
56949W        W28620  35.071  39.007  12.368
56950W        W28621  22.977   4.781   4.543
56951W        W28622  36.605  38.507   1.494
56952W        W28623  43.195  39.985  10.249
56953W        W28624  39.967  33.869   2.770
56954W        W28625  27.016  33.549  14.700
56955W        W28626  31.685  27.105  13.589
56956W        W28627  10.366  32.081  10.555
56957W        W28628  28.988  32.425  12.913
56958W        W28629  43.241   1.527   3.665
56959W        W28630  34.157  14.047   1.846
56960W        W28631  26.564  43.498  11.209
56961W        W28632  28.639  21.200   2.292
56962W        W28633   1.579  19.269  13.004
56963W        W28634  33.411   3.902  10.391
56964W        W28635  12.765  11.789  14.548
56965W        W28636   6.710  42.033   1.873
56966W        W28637   4.457  28.830   1.891
56967W        W28638  25.139  12.714   1.943
56968W        W28639  28.465  39.626  13.527
56969W        W28640  32.024  23.364  11.054
56970W        W28641   4.019  39.653   0.745
56971W        W28642   3.675  27.384   4.896
56972W        W28643  40.440   7.334  10.743
56973W        W28644  31.868   4.411  11.167
56974W        W28645   7.467  14.446  12.302
56975W        W28646  23.651  23.761   0.388
56976W        W28647  22.285  30.205  11.259
56977W        W28648  27.649  18.612  12.852
56978W        W28649   1.373  32.065  11.468
56979W        W28650  32.308  22.529  12.965
56980W        W28651   3.383  27.174  14.521
56981W        W28652  41.316  26.468   2.497
56982W        W28653   5.934  43.657   0.585
56983W        W28654  11.664  22.502   3.207
56984W        W28655  40.320  40.810   4.129
56985W        W28656  33.006  32.022  13.478
56986W        W28657  16.321   1.753  11.707
56987W        W28658  35.835  35.521   3.722
56988W        W28659  32.690  28.915  12.527
56989W        W28660   6.066   5.429  11.545
56990W        W28661  23.647  38.429  14.984
56991W        W28662  30.910  42.465  11.636
56992W        W28663   8.250  13.866   1.695
56993W        W28664  31.892  22.483  11.888
56994W        W28665  40.120  27.647  14.740
56995W        W28666  34.675  38.298  12.626
56996W        W28667  19.260  18.066   2.280
56997W        W28668  12.995  38.771   3.124
56998W        W28669  11.102  44.204  14.794
56999W        W28670  35.907   6.068  11.919
57000W        W28671  40.087  17.702  14.573
57001W        W28672  13.307   8.110   2.555
57002W        W28673  39.385  40.317   2.761
57003W        W28674  25.435  26.927   1.691
57004W        W28675  24.689  37.163   0.416
57005W        W28676  36.353   4.561  10.868
57006W        W28677  21.769  37.487   4.161
57007W        W28678  33.186   3.755  12.026
57008W        W28679  33.414  10.641   2.738
57009W        W28680  19.728   8.865  14.235
57010W        W28681  33.984  13.275  10.578
57011W        W28682  11.055  32.011   4.802
57012W        W28683  24.226   1.157  11.156
57013W        W28684  10.170  20.497  13.595
57014W        W28685  41.891  22.516   0.832
57015W        W28686   4.560  33.229  11.993
57016W        W28687  11.250  26.236  10.701
57017W        W28688  20.984  19.780   0.357
57018W        W28689   9.800  14.596  14.276
57019W        W28690  41.387  24.517  10.676
57020W        W28691  35.428  37.385   0.941
57021W        W28692  38.009  14.213  12.775
57022W        W28693  23.942  41.558  11.148
57023W        W28694  39.024   9.057   1.986
57024W        W28695  41.568  41.484  11.953
57025W        W28696  38.757  26.172   4.053
57026W        W28697   5.888   8.878  12.546
57027W        W28698   8.058  21.692   3.682
57028W        W28699  17.124   0.416   0.240
57029W        W28700  32.677  43.852   1.462
57030W        W28701   3.891  35.932   2.868
57031W        W28702  17.761  27.588   4.117
57032W        W28703  17.190   0.906   0.491
57033W        W28704  12.269   9.854   1.855
57034W        W28705  31.119   5.737  12.449
57035W        W28706  40.538  11.732  11.704
57036W        W28707   3.028  27.261   1.385
57037W        W28708  19.218  43.070   4.152
57038W        W28709  39.622  20.466  12.160
57039W        W28710  20.199   8.957  10.703
57040W        W28711  33.469  40.744  11.486
57041W        W28712  17.133  30.175   2.662
57042W        W28713  13.914  30.641   4.315
57043W        W28714  43.582  39.392  10.726
57044W        W28715   9.688  29.126  13.951
57045W        W28716   6.040  44.903   3.693
57046W        W28717  33.077  36.376  10.897
57047W        W28718   6.878   6.816   2.173
57048W        W28719  11.270  11.545  13.491
57049W        W28720  16.642  24.171  13.052
57050W        W28721   1.494  12.241  13.801
57051W        W28722  15.532  13.899  11.083
57052W        W28723  22.531  40.091   3.349
57053W        W28724  37.975  16.633   0.647
57054W        W28725  34.827  10.665  12.968
57055W        W28726  18.341  12.290   0.812
57056W        W28727  37.576  18.682   1.279
57057W        W28728  35.525  13.330   1.019
57058W        W28729  36.507  37.586  13.530
57059W        W28730  41.072  22.720  14.412
57060W        W28731  24.813  39.415   4.783
57061W        W28732  19.241  40.063   5.037
57062W        W28733  42.293  13.779   0.212
57063W        W28734  21.609  44.185   9.885
57064W        W28735   3.534   9.871  11.065
57065W        W28736  20.828   9.419  14.433
57066W        W28737  40.581   6.933  12.065
57067W        W28738  24.453  19.717   0.348
57068W        W28739  36.858  32.479   4.298
57069W        W28740  20.949  34.406  12.167
57070W        W28741  12.727  20.867  13.238
57071W        W28742  42.692  23.740  11.156
57072W        W28743  26.040  12.273   3.407
57073W        W28744   2.130  25.049  10.344
57074W        W28745  39.337  17.281   4.109
57075W        W28746  24.230  24.558  11.211
57076W        W28747   0.118  36.106   1.633
57077W        W28748   4.736  25.101  10.430
57078W        W28749  37.515  41.381   1.034
57079W        W28750  27.030   0.950  14.491
57080W        W28751  20.230   7.330  12.939
57081W        W28752  24.254   2.491   2.390
57082W        W28753  35.091   1.353  11.315
57083W        W28754  26.751  32.539   2.970
57084W        W28755  14.125   5.586  14.948
57085W        W28756  39.087  44.066  11.575
57086W        W28757  31.610  28.616  13.857
57087W        W28758   3.720  36.095   0.481
57088W        W28759  39.027  38.142  13.202
57089W        W28760  25.096  29.898  12.935
57090W        W28761  16.656  29.459   0.790
57091W        W28762  37.930  40.941   3.189
57092W        W28763  33.610  30.632   4.915
57093W        W28764  19.074   0.215   4.749
57094W        W28765  13.840  41.824   4.714
57095W        W28766  35.518  29.344   3.341
57096W        W28767  34.547  40.819  13.480
57097W        W28768  24.013  32.141  13.485
57098W        W28769  12.317  25.482   3.555
57099W        W28770  23.699  38.092  14.177
57100W        W28771  44.311  28.016   2.832
57101W        W28772  26.035  43.048  14.732
57102W        W28773   1.725  23.920   1.859
57103W        W28774  30.735   8.212   1.151
57104W        W28775  44.536   2.144   1.445
57105W        W28776  33.363  23.955  11.064
57106W        W28777  24.617  39.801   0.275
57107W        W28778  21.149  30.672   1.398
57108W        W28779  39.203  36.980  14.490
57109W        W28780   0.890   2.001   3.575
57110W        W28781  42.149  37.633   9.949
57111W        W28782  26.016   7.784  10.600
57112W        W28783  23.704  20.040  14.743
57113W        W28784   4.776   8.201  12.942
57114W        W28785  21.716   1.807   1.483
57115W        W28786  14.577   1.291  14.010
57116W        W28787   1.166  39.610  13.080
57117W        W28788  34.560  16.816   1.308
57118W        W28789  42.856  20.937   0.384
57119W        W28790  42.250  43.678  11.641
57120W        W28791  13.858   7.709   4.689
57121W        W28792  42.860  26.969   4.646
57122W        W28793  28.525   9.389  11.606
57123W        W28794  41.927  34.625   4.542
57124W        W28795   2.329   6.451   0.914
57125W        W28796  24.924  15.263  11.155
57126W        W28797  41.849   9.660   0.164
57127W        W28798  13.084   9.336   1.073
57128W        W28799  38.470   2.771   1.935
57129W        W28800   7.219  33.019  11.811
57130W        W28801  22.136  15.414   4.787
57131W        W28802  27.153  38.505   0.320
57132W        W28803  27.879  43.400  13.644
57133W        W28804   4.495  36.993  11.405
57134W        W28805  26.528  24.268  13.404
57135W        W28806  39.264  25.513   1.468
57136W        W28807  17.359  27.875   4.350
57137W        W28808   6.158  34.947  14.988
57138W        W28809  16.320  43.756   0.469
57139W        W28810  19.937  14.084  11.465
57140W        W28811  31.332   4.732  10.440
57141W        W28812  43.727  10.418   2.638
57142W        W28813  15.759  23.688   4.624
57143W        W28814  24.481  15.359   1.699
57144W        W28815   3.019   2.285  12.996
57145W        W28816   6.541  43.321   2.762
57146W        W28817  37.598  20.245  11.155
57147W        W28818  36.814  44.731  14.895
57148W        W28819  24.456  26.084  14.931
57149W        W28820   8.379  21.586  14.456
57150W        W28821  32.911  28.849   1.395
57151W        W28822  30.748  24.320   2.428
57152W        W28823   3.421   6.655   4.031
57153W        W28824   3.808  29.581   4.424
57154W        W28825  12.309   5.350  14.062
57155W        W28826  14.665  16.614   3.615
57156W        W28827  42.504   7.245  14.830
57157W        W28828  33.227   3.009  12.883
57158W        W28829  43.040  12.345   3.847
57159W        W28830  13.415   5.108   1.357
57160W        W28831   4.901  29.998  13.437
57161W        W28832   2.195  43.809   1.761
57162W        W28833   7.827  23.335  11.262
57163W        W28834  27.726  40.410   1.357
57164W        W28835  24.056  29.014  12.526
57165W        W28836  42.580  20.973   5.118
57166W        W28837   7.357  43.880  14.350
57167W        W28838  27.993  10.860   0.686
57168W        W28839  14.569  18.675   4.254
57169W        W28840  23.695  36.079   2.717
57170W        W28841   7.781  21.564  12.642
57171W        W28842  30.942  20.217   2.116
57172W        W28843  33.149  26.078   4.379
57173W        W28844   3.334  38.289   0.495
57174W        W28845  32.659  40.581  13.406
57175W        W28846  13.443   8.151  10.417
57176W        W28847  14.830  25.985  11.414
57177W        W28848  38.333  34.338  13.518
57178W        W28849  31.181  38.281  12.447
57179W        W28850  31.327  40.839   3.682
57180W        W28851   2.808  26.902   3.118
57181W        W28852  12.075  24.037   1.814
57182W        W28853  18.158  20.495  10.706
57183W        W28854  42.926  11.127   2.208
57184W        W28855  13.657  31.424  11.257
57185W        W28856  41.775  30.459   3.181
57186W        W28857   6.228  13.873   4.206
57187W        W28858  17.866  10.797   1.623
57188W        W28859   9.430  19.678  12.605
57189W        W28860   8.088  15.290  11.038
57190W        W28861   3.152  23.282  14.303
57191W        W28862   9.316  21.635   2.293
57192W        W28863  11.869  39.421  13.815
57193W        W28864   2.839  13.872   3.653
57194W        W28865  43.865  22.992  13.529
57195W        W28866  43.968  41.354   4.139
57196W        W28867  39.451  11.907  10.810
57197W        W28868   0.213  41.175  12.187
57198W        W28869  37.220  37.123  14.541
57199W        W28870   7.497  43.258   1.743
57200W        W28871  21.471  14.676   2.787
57201W        W28872  20.787  26.437   3.291
57202W        W28873  15.921  17.297   2.865
57203W        W28874  42.767   1.657   2.374
57204W        W28875   6.429  41.950   4.360
57205W        W28876  19.974   7.274  12.107
57206W        W28877  29.065  17.849   3.850
57207W        W28878  20.994  36.350  14.460
57208W        W28879   6.854  35.154  11.201
57209W        W28880   3.635  14.301   3.148
57210W        W28881  16.141  34.712  12.833
57211W        W28882  38.490  31.451  11.992
57212W        W28883  17.741  40.592   0.682
57213W        W28884   0.983   5.975   0.816
57214W        W28885   7.760  33.131   0.364
57215W        W28886  23.688  16.919  13.455
57216W        W28887  36.149  34.622   1.452
57217W        W28888   2.733  21.053   4.557
57218W        W28889   2.304  38.036   4.836
57219W        W28890  32.472  29.033   1.627
57220W        W28891  40.561  16.321   4.616
57221W        W28892  32.165  10.476   1.724
57222W        W28893  19.733  32.775  13.274
57223W        W28894  30.017   0.377  14.261
57224W        W28895  23.672   4.125  14.047
57225W        W28896  40.955  25.902  10.793
57226W        W28897  37.770  26.702   4.221
57227W        W28898   6.111  37.869   3.844
57228W        W28899  18.586  21.351   4.619
57229W        W28900  32.012  37.520   2.111
57230W        W28901  15.690  15.580   1.446
57231W        W28902  34.724  32.007  10.902
57232W        W28903  17.695   0.225  13.005
57233W        W28904  16.260   1.583  11.033
57234W        W28905  10.665  31.605  12.632
57235W        W28906  22.194  41.270   4.401
57236W        W28907  39.407  44.502   3.721
57237W        W28908   3.295  22.774  11.376
57238W        W28909  26.176   9.905  13.764
57239W        W28910  13.392  21.080   4.295
57240W        W28911   7.739  31.061  11.489
57241W        W28912  12.879   9.190  14.257
57242W        W28913   4.993   7.141   4.768
57243W        W28914  34.684  20.564  13.993
57244W        W28915   5.663  41.376   3.160
57245W        W28916  40.341  39.316  14.826
57246W        W28917  30.480  24.157   0.256
57247W        W28918  42.879  17.699  12.550
57248W        W28919  30.375  21.605  14.996
57249W        W28920  37.632  28.673   3.255
57250W        W28921  35.822  38.086   0.930
57251W        W28922  38.960  16.650   3.381
57252W        W28923  15.649  35.075   1.832
57253W        W28924  16.322  27.151  14.854
57254W        W28925  38.534  35.080   1.236
57255W        W28926   6.786   4.771   2.333
57256W        W28927  36.333   0.470   3.098
57257W        W28928  42.827  24.174   4.970
57258W        W28929  41.669   4.517   3.461
57259W        W28930  44.309  29.031  11.677
57260W        W28931  16.210  19.701   3.187
57261W        W28932   9.082   5.334   2.348
57262W        W28933  26.464  20.170   1.642
57263W        W28934  17.362  43.395  11.554
57264W        W28935  29.110  38.361  13.024
57265W        W28936  36.511  25.913   3.839
57266W        W28937  12.596  28.211   2.365
57267W        W28938  10.617  28.086   1.989
57268W        W28939  44.401  42.313   2.000
57269W        W28940  41.874  12.909   2.655
57270W        W28941  20.208   4.646   0.930
57271W        W28942  43.281  12.811  12.628
57272W        W28943  30.222  17.171  12.566
57273W        W28944   2.034   7.892  10.496
57274W        W28945   3.532   7.274  14.035
57275W        W28946  31.697  34.996   2.938
57276W        W28947  21.964  43.317  14.825
57277W        W28948  32.641  14.820   0.419
57278W        W28949  24.582   4.428  12.184
57279W        W28950  21.535   9.684   3.833
57280W        W28951  30.168  18.272   0.784
57281W        W28952  21.473   9.079   1.153
57282W        W28953  42.449  22.468   2.213
57283W        W28954   3.670   4.666   2.752
57284W        W28955  37.502   4.198  12.980
57285W        W28956  42.292  32.838   1.767
57286W        W28957   2.319  16.545   3.375
57287W        W28958  28.675  19.240   3.793
57288W        W28959  23.242  20.067   0.259
57289W        W28960  39.766  32.306  10.705
57290W        W28961   9.412  42.776   0.891
57291W        W28962  31.435   9.324  12.780
57292W        W28963  11.855  24.229  10.219
57293W        W28964   6.030  29.388  11.983
57294W        W28965  30.495  34.148   2.793
57295W        W28966   9.816  24.731  14.353
57296W        W28967  17.201   7.251   9.855
57297W        W28968  19.981  30.727  12.369
57298W        W28969  44.080  36.303  11.168
57299W        W28970  29.878  28.585   2.680
57300W        W28971   5.191  23.135  10.610
57301W        W28972  21.763  29.043   1.636
57302W        W28973  42.514  26.893  11.560
57303W        W28974  14.849  13.784  13.114
57304W        W28975  13.658  25.201   4.207
57305W        W28976  22.056  11.869  14.027
57306W        W28977  32.887   3.313  13.909
57307W        W28978  18.900  16.774  13.893
57308W        W28979  35.439  20.170  11.323
57309W        W28980  12.878   0.608   4.243
57310W        W28981  21.030  29.748   1.220
57311W        W28982   4.289  17.289   2.866
57312W        W28983  25.067  25.955   1.888
57313W        W28984  33.427   9.339   0.726
57314W        W28985  14.281  18.078  12.568
57315W        W28986  19.301  29.460  13.074
57316W        W28987   7.594  26.934   4.790
57317W        W28988  33.304  34.131   2.611
57318W        W28989  32.533   0.284   2.322
57319W        W28990  16.606  41.831  13.332
57320W        W28991  29.472  10.568   1.130
57321W        W28992  19.198  14.405   5.454
57322W        W28993  23.894   0.652   3.718
57323W        W28994  11.825   5.408  12.797
57324W        W28995  29.967  24.243   2.520
57325W        W28996  18.762   5.969   2.171
57326W        W28997  42.584  42.991   1.343
57327W        W28998  44.067   1.994   2.677
57328W        W28999  28.571  28.881   3.810
57329W        W29000  30.200  20.072  12.190
57330W        W29001   8.377  26.689  11.591
57331W        W29002  19.393   3.943  12.440
57332W        W29003  41.849   8.614   2.860
57333W        W29004  14.178  35.311   4.237
57334W        W29005  14.787  16.553  11.629
57335W        W29006   8.802  12.273   0.747
57336W        W29007  31.773  19.298   2.518
57337W        W29008  14.908  42.310  12.949
57338W        W29009  31.490  31.128  13.013
57339W        W29010  39.467  13.513   0.219
57340W        W29011   1.033  26.230  14.417
57341W        W29012   0.957  44.511  11.245
57342W        W29013  18.843   5.747  12.914
57343W        W29014  15.751   8.180  12.137
57344W        W29015  14.642  11.880  12.047
57345W        W29016  38.295  13.095   4.809
57346W        W29017  33.867  39.536   4.958
57347W        W29018  10.018  16.151  14.788
57348W        W29019   6.895  24.191  14.897
57349W        W29020  39.518  12.712   2.602
57350W        W29021   6.567  18.726   4.653
57351W        W29022  20.109  44.148   0.885
57352W        W29023  26.049  10.684   0.184
57353W        W29024  32.288  21.379  10.713
57354W        W29025  33.602   7.707  14.809
57355W        W29026   8.503  14.154   4.812
57356W        W29027  29.089  38.043   1.567
57357W        W29028  38.022  13.391  10.819
57358W        W29029  25.660  11.103   3.688
57359W        W29030  44.805   9.521   1.140
57360W        W29031  17.567  28.969   4.284
57361W        W29032   2.533  17.007   1.563
57362W        W29033  18.334   8.703   4.565
57363W        W29034  42.357  22.412  14.225
57364W        W29035   6.349  14.126  13.973
57365W        W29036   4.816  17.158   2.760
57366W        W29037  33.818  41.304   0.443
57367W        W29038  44.946  25.256   2.802
57368W        W29039  33.933  44.698  14.790
57369W        W29040  41.650  17.237  13.825
57370W        W29041  27.212  23.951  12.757
57371W        W29042  42.814  21.757  10.262
57372W        W29043  21.328  24.749   4.293
57373W        W29044  35.875  39.932   0.525
57374W        W29045  20.663  37.718  11.643
57375W        W29046  12.806  22.765   1.014
57376W        W29047  43.505  17.612   4.932
57377W        W29048  34.201  24.938  12.993
57378W        W29049  40.283  39.736  13.353
57379W        W29050  12.008  43.131  12.334
57380W        W29051  10.069   3.707  10.704
57381W        W29052  35.792  21.954  11.218
57382W        W29053  28.077  36.648  13.944
57383W        W29054  31.780  33.994  12.526
57384W        W29055  10.233  22.429  11.196
57385W        W29056  14.672  31.378  13.418
57386W        W29057   5.627  21.588   3.131
57387W        W29058   4.962   7.246  14.778
57388W        W29059  43.826  22.500  10.262
57389W        W29060  32.559  30.173  11.362
57390W        W29061  24.091  21.075  12.711
57391W        W29062  30.513  13.088   0.220
57392W        W29063   6.179  21.566  13.393
57393W        W29064  39.240  13.254   3.743
57394W        W29065   2.031  23.323   5.071
57395W        W29066  10.455  20.007   0.348
57396W        W29067   0.797   2.456  14.880
57397W        W29068  22.128  42.207  14.877
57398W        W29069  12.854  26.544   0.883
57399W        W29070  15.654  41.593   1.511
57400W        W29071   8.403  40.545   0.503
57401W        W29072  17.925  14.170  10.416
57402W        W29073  16.172  23.620   1.072
57403W        W29074  26.402   4.200  11.129
57404W        W29075  43.004  39.851   4.988
57405W        W29076  24.130  19.114  11.578
57406W        W29077  14.368  28.268  14.133
57407W        W29078  34.376   1.220   0.391
57408W        W29079  30.461  28.465  10.693
57409W        W29080  11.478  31.979  11.117
57410W        W29081  28.177  21.487   4.544
57411W        W29082   0.286  12.131   4.203
57412W        W29083  16.043  13.140  12.108
57413W        W29084  12.153  40.565  12.364
57414W        W29085  24.736  31.596  13.083
57415W        W29086  36.667  12.387   3.202
57416W        W29087  13.169  25.060   5.081
57417W        W29088  29.212   4.972  14.929
57418W        W29089  20.504  26.198  12.077
57419W        W29090  17.040   8.436   1.410
57420W        W29091  34.604   9.747  11.086
57421W        W29092  23.852  11.842  10.064
57422W        W29093  26.567   9.892  11.514
57423W        W29094  24.167  30.196   0.488
57424W        W29095  20.124  36.304  14.091
57425W        W29096  36.448  28.448  14.532
57426W        W29097  35.504  25.501  12.123
57427W        W29098  15.688  27.660   1.588
57428W        W29099  33.851  36.492   2.238
57429W        W29100  41.283  18.538   0.332
57430W        W29101  42.135  35.158  11.983
57431W        W29102  22.545  24.091   2.968
57432W        W29103  32.451  12.561   2.230
57433W        W29104   8.880  34.006   0.916
57434W        W29105  21.006   4.418  14.479
57435W        W29106  39.014   6.517  12.477
57436W        W29107  36.073   1.356   4.609
57437W        W29108  40.704  44.392   3.288
57438W        W29109  29.901   0.026   3.550
57439W        W29110  19.621  38.580  14.050
57440W        W29111  19.146  44.711  14.857
57441W        W29112  23.444  18.196  13.502
57442W        W29113  14.395  23.954  13.350
57443W        W29114   1.760  31.502   3.083
57444W        W29115  32.131  13.200   1.750
57445W        W29116  25.898  43.907   2.687
57446W        W29117   9.843  10.811   1.180
57447W        W29118  14.552  12.866  13.976
57448W        W29119  34.943  39.919   1.956
57449W        W29120  43.876  24.737   4.506
57450W        W29121   2.043  17.516  11.546
57451W        W29122  43.724  37.198  10.892
57452W        W29123   7.342  13.522   0.491
57453W        W29124   2.817  13.070  10.409
57454W        W29125  22.180  29.120   2.411
57455W        W29126  39.888   4.505   0.289
57456W        W29127  10.325  35.538  10.211
57457W        W29128  22.461  24.995  12.941
57458W        W29129  37.949  22.031   2.386
57459W        W29130   6.396  43.994  10.139
57460W        W29131   7.534   5.767   4.522
57461W        W29132  11.677   3.971   1.268
57462W        W29133  30.208  19.812   3.606
57463W        W29134   6.232  42.335   0.435
57464W        W29135  29.992   9.710  12.312
57465W        W29136  17.170  35.990   4.372
57466W        W29137  44.452  44.282  12.463
57467W        W29138  42.723  13.153  13.766
57468W        W29139  28.941  29.691  11.052
57469W        W29140  16.958   5.104   9.770
57470W        W29141  26.523   7.880  10.610
57471W        W29142  13.062   2.040   1.349
57472W        W29143  23.735   5.626   0.993
57473W        W29144  27.377  20.650  11.157
57474W        W29145  10.186  42.221  14.794
57475W        W29146   7.196  42.387  11.521
57476W        W29147  26.535  13.339   2.405
57477W        W29148  17.873  13.133  12.704
57478W        W29149   8.701  16.487   4.571
57479W        W29150  28.717  21.207  11.157
57480W        W29151  31.149  23.759  12.654
57481W        W29152  28.863  41.837   0.443
57482W        W29153   6.703  28.782   3.892
57483W        W29154  22.363  28.165  12.301
57484W        W29155   9.778  12.506   4.460
57485W        W29156  14.778  23.458  12.548
57486W        W29157  22.939  41.785   1.926
57487W        W29158  40.502  14.361   2.132
57488W        W29159  30.057   7.382  10.200
57489W        W29160  36.960  37.074  10.570
57490W        W29161   3.159  40.056  10.723
57491W        W29162  41.477  16.390   1.770
57492W        W29163  42.522  40.622   4.029
57493W        W29164  36.986  11.721  13.497
57494W        W29165   4.894  42.489  12.124
57495W        W29166  38.896  22.325   0.874
57496W        W29167  43.067  14.284   4.703
57497W        W29168  14.243   1.751   2.894
57498W        W29169  10.725  31.361  14.901
57499W        W29170  23.930  36.470  13.835
57500W        W29171  19.698  37.906   5.275
57501W        W29172   8.040  20.755  11.127
57502W        W29173  23.254  18.855   0.763
57503W        W29174  18.309  17.994  14.225
57504W        W29175  13.270  18.730   0.729
57505W        W29176  32.989  34.539   2.743
57506W        W29177   9.912  10.271   2.442
57507W        W29178  39.222  42.595  14.795
57508W        W29179  25.669  20.606   1.459
57509W        W29180  14.698  29.027   1.496
57510W        W29181  35.833  11.173  12.118
57511W        W29182  14.130   6.080   9.796
57512W        W29183   5.321  32.202   3.649
57513W        W29184  16.198  42.540  12.827
57514W        W29185  32.407  12.715  13.786
57515W        W29186  13.807   2.791   1.964
57516W        W29187  36.870   2.222   4.965
57517W        W29188  10.193  28.007   4.633
57518W        W29189  26.470  10.801   3.329
57519W        W29190  37.376  20.331  13.796
57520W        W29191  23.941  15.077   4.224
57521W        W29192  25.105   5.319   3.887
57522W        W29193  44.677  33.604  11.428
57523W        W29194   5.258  15.057   1.372
57524W        W29195  43.716  35.372   2.818
57525W        W29196  26.179  44.079  14.783
57526W        W29197  29.884  16.724   4.565
57527W        W29198  23.946  36.959  10.890
57528W        W29199  42.036  21.732   3.000
57529W        W29200  29.143  13.623   1.376
57530W        W29201  35.897  23.431   2.438
57531W        W29202  21.782  27.950  11.461
57532W        W29203  17.674  43.936   4.255
57533W        W29204  17.288  22.517  12.492
57534W        W29205  13.369  13.880  13.896
57535W        W29206  42.929  11.172   3.075
57536W        W29207  20.064  44.709   9.814
57537W        W29208  38.769  13.105  12.137
57538W        W29209  16.154   4.351  14.020
57539W        W29210   6.510  30.416  14.475
57540W        W29211  16.355  36.356   4.316
57541W        W29212  22.686  14.591  14.397
57542W        W29213  16.822  38.833   1.645
57543W        W29214   8.474  34.890  13.356
57544W        W29215  40.010  13.656  11.749
57545W        W29216  34.584  11.665   1.506
57546W        W29217  19.256   9.097  11.597
57547W        W29218  44.245  44.718  13.427
57548W        W29219  43.187   3.263  12.100
57549W        W29220  20.306  38.247  10.983
57550W        W29221  12.488  43.052  12.527
57551W        W29222  25.013  20.820   2.910
57552W        W29223  24.773  24.098  12.850
57553W        W29224  10.276  37.278  12.399
57554W        W29225  15.197  28.726   2.244
57555W        W29226  25.796   6.237  10.476
57556W        W29227  36.523   2.679   2.824
57557W        W29228   6.932  17.727   0.732
57558W        W29229  37.079  21.096  12.820
57559W        W29230   9.780   8.647   0.861
57560W        W29231  36.133  18.712  14.303
57561W        W29232  28.203   8.805   0.034
57562W        W29233  11.547  40.399   3.774
57563W        W29234  18.793  16.435  14.837
57564W        W29235  11.862  39.292   0.628
57565W        W29236  41.525  11.290  12.559
57566W        W29237  11.182  20.627   2.560
57567W        W29238  26.665   8.101   0.974
57568W        W29239  36.986  10.819  13.531
57569W        W29240  43.486   9.811   4.364
57570W        W29241  26.059  18.665   2.216
57571W        W29242  15.017  11.627  10.435
57572W        W29243  17.373  39.532   3.627
57573W        W29244  40.287   8.543  13.597
57574W        W29245  44.777  29.241   4.795
57575W        W29246  23.065  34.020  11.513
57576W        W29247  40.829  21.399   4.139
57577W        W29248  21.595  44.285   2.339
57578W        W29249  39.886  43.317   0.762
57579W        W29250  33.924  32.605   3.161
57580W        W29251  11.005  12.539   3.299
57581W        W29252  37.533  20.916  12.990
57582W        W29253   6.155   6.729   1.409
57583W        W29254   8.446  30.519   2.420
57584W        W29255   0.991   3.005   0.936
57585W        W29256  34.625  42.283   2.302
57586W        W29257  13.826  30.646   1.034
57587W        W29258  31.653  32.589   1.793
57588W        W29259  33.877   7.090   2.970
57589W        W29260  13.167  42.157   2.481
57590W        W29261  42.525  38.424  13.219
57591W        W29262  19.740  22.049  12.671
57592W        W29263   2.058  13.396  11.022
57593W        W29264  38.569  20.866   3.237
57594W        W29265  13.137   7.251   3.358
57595W        W29266  34.283  40.033  12.452
57596W        W29267  30.784  37.867  12.179
57597W        W29268   9.805  15.721   0.424
57598W        W29269  43.832  18.754  12.405
57599W        W29270  36.090   4.838   3.679
57600W        W29271  36.818  26.645  12.490
57601W        W29272   0.294   4.721   0.313
57602W        W29273   7.746   5.331  10.515
57603W        W29274  15.401  32.066   2.379
57604W        W29275  38.630  16.207   0.009
57605W        W29276  38.420  37.431   2.470
57606W        W29277   3.434  28.375  13.769
57607W        W29278  24.886  16.097  12.973
57608W        W29279  19.946  34.058   3.740
57609W        W29280  11.679  43.879   2.916
57610W        W29281  28.194  43.775  13.777
57611W        W29282  27.932  24.708   2.190
57612W        W29283  13.370  21.898   1.768
57613W        W29284  37.788  26.611   0.333
57614W        W29285   6.189   3.190   3.130
57615W        W29286  25.171  18.360   3.253
57616W        W29287  15.376  37.520  10.279
57617W        W29288  19.987  26.548   3.776
57618W        W29289  13.102  24.381  14.834
57619W        W29290  12.166   7.403   3.438
57620W        W29291  10.626  31.183  11.590
57621W        W29292  28.357  42.089   2.843
57622W        W29293  20.948   5.257   1.839
57623W        W29294   0.368  25.643  14.776
57624W        W29295   5.236  43.230   2.699
57625W        W29296  27.372  21.472  11.043
57626W        W29297  19.544  13.662   2.848
57627W        W29298  37.448   9.789  11.201
57628W        W29299  43.267   5.895   2.857
57629W        W29300  10.964  44.919   0.796
57630W        W29301  26.726   8.341   4.746
57631W        W29302  17.721  11.623  14.198
57632W        W29303  36.599  40.369   0.802
57633W        W29304  13.514  17.332  13.852
57634W        W29305  33.670  40.911   2.816
57635W        W29306  44.733  12.098  12.564
57636W        W29307  27.886  34.889  13.260
57637W        W29308  38.909  12.736  14.839
57638W        W29309  23.504  10.077  11.712
57639W        W29310   2.943  18.348   4.601
57640W        W29311  30.565  43.300   2.756
57641W        W29312  31.949  42.366  12.561
57642W        W29313  43.304  23.081   1.048
57643W        W29314  28.673  25.664  13.394
57644W        W29315  42.974  33.086  12.244
57645W        W29316  27.050  34.328  14.107
57646W        W29317  12.269  10.790   4.615
57647W        W29318  39.511   0.839  12.069
57648W        W29319  22.180   8.581  11.085
57649W        W29320  12.314   6.834  11.500
57650W        W29321  23.456  31.165   1.478
57651W        W29322  13.653  20.801  13.285
57652W        W29323   5.753   6.956   0.293
57653W        W29324  17.491  27.611   3.636
57654W        W29325  29.600   7.938   4.624
57655W        W29326  17.818  22.677   0.887
57656W        W29327  31.814  23.460   2.725
57657W        W29328   5.945  20.207  10.598
57658W        W29329   2.986  16.265   0.304
57659W        W29330  15.048   0.874   2.221
57660W        W29331  10.938  24.134  11.155
57661W        W29332  28.701  39.009   3.895
57662W        W29333  44.398  41.675  12.086
57663W        W29334   0.321  27.115   2.238
57664W        W29335   0.674  32.694  13.872
57665W        W29336  38.341  23.793  13.841
57666W        W29337  12.184   0.800   4.689
57667W        W29338   0.793  18.486  11.503
57668W        W29339  41.788  33.938  14.295
57669W        W29340  10.208  30.848   1.864
57670W        W29341  18.742   4.176  14.095
57671W        W29342  20.470  25.230   3.733
57672W        W29343  13.776   0.194   3.249
57673W        W29344  12.106  41.849   5.023
57674W        W29345   2.934  14.218   2.678
57675W        W29346  28.150   1.232   1.650
57676W        W29347  42.921   4.983  14.749
57677W        W29348  14.367  11.149  12.002
57678W        W29349  37.475  42.355   0.680
57679W        W29350   0.875   3.429  11.924
57680W        W29351  23.026  28.767   1.857
57681W        W29352   5.192  11.848   3.219
57682W        W29353  12.315   3.408  14.719
57683W        W29354  41.360  18.880   1.746
57684W        W29355  11.289  26.571  12.822
57685W        W29356  30.013  32.542   0.494
57686W        W29357  28.544  14.889  14.669
57687W        W29358   5.805  38.911   4.137
57688W        W29359  42.220  37.940  10.401
57689W        W29360   1.331  39.019   1.166
57690W        W29361  13.775   8.143  13.858
57691W        W29362  28.086   5.022   2.509
57692W        W29363  40.873   7.802  13.747
57693W        W29364  24.679   6.206   3.183
57694W        W29365  31.154   3.468  11.070
57695W        W29366  38.867  32.336  13.883
57696W        W29367   1.774  11.325  12.607
57697W        W29368  23.793  44.074   1.135
57698W        W29369  26.577  36.622  10.691
57699W        W29370  26.981  14.729   1.610
57700W        W29371   1.541  20.174  14.873
57701W        W29372  25.134  35.881   0.586
57702W        W29373  30.626  22.601   0.553
57703W        W29374  13.572   1.669   0.291
57704W        W29375  29.072  17.591  13.875
57705W        W29376  34.121   6.887   1.747
57706W        W29377  44.908   4.566   2.701
57707W        W29378  37.178   9.159  12.924
57708W        W29379  18.091  27.976   0.910
57709W        W29380  30.495  35.082   0.678
57710W        W29381   0.340  18.642  12.511
57711W        W29382  21.976  20.487  12.966
57712W        W29383   6.875   6.843   0.231
57713W        W29384  39.801  13.320   4.621
57714W        W29385  18.262  34.958  11.626
57715W        W29386  44.207  42.469  10.697
57716W        W29387  18.516   7.091  12.434
57717W        W29388  27.028  38.318   3.819
57718W        W29389  17.621  21.035   0.886
57719W        W29390   9.753  17.163   0.340
57720W        W29391  19.459  15.630   2.901
57721W        W29392   9.244   3.470  12.561
57722W        W29393  19.211  11.648  13.157
57723W        W29394  21.738  35.047   3.405
57724W        W29395  32.425  15.624  10.771
57725W        W29396   9.344  29.920  13.470
57726W        W29397  44.780  20.628   0.951
57727W        W29398  12.897  10.764   3.417
57728W        W29399  42.820  16.582   5.008
57729W        W29400  12.654   8.418   3.662
57730W        W29401  20.670   1.698   3.795
57731W        W29402  19.576  42.291  11.666
57732W        W29403   7.980  35.008   2.412
57733W        W29404   0.797  41.391   0.975
57734W        W29405  41.788  25.366  10.510
57735W        W29406  34.111  29.468   3.669
57736W        W29407  19.092  35.371   1.623
57737W        W29408  17.189   5.342   1.344
57738W        W29409  19.213  13.342  10.281
57739W        W29410  36.439  10.166   0.250
57740W        W29411  18.661  30.825  12.134
57741W        W29412  30.950   0.231  12.889
57742W        W29413   0.961  39.795   1.251
57743W        W29414   7.124  29.127   1.242
57744W        W29415  22.398  25.479   0.838
57745W        W29416  28.996   7.268  14.392
57746W        W29417  20.284  41.167  12.595
57747W        W29418  17.474   7.348  11.816
57748W        W29419  24.472  16.852  13.922
57749W        W29420  33.983  31.488  13.650
57750W        W29421  28.946  12.762   2.172
57751W        W29422  40.041  18.977  14.571
57752W        W29423  11.773  44.333  13.505
57753W        W29424  16.814   9.331   1.294
57754W        W29425   3.584   6.171   0.363
57755W        W29426   9.737  38.108   2.779
57756W        W29427  25.531   3.436  14.245
57757W        W29428  14.913  17.535  15.000
57758W        W29429  19.618  37.308   1.007
57759W        W29430  23.977  30.022   3.432
57760W        W29431   4.379  12.751  14.398
57761W        W29432   0.708  19.700   2.375
57762W        W29433  26.379  39.069  12.131
57763W        W29434   9.075  19.627  12.239
57764W        W29435   8.757  22.584  12.125
57765W        W29436  25.205  21.816  14.025
57766W        W29437  36.295  33.995  10.563
57767W        W29438  30.552  41.431   3.667
57768W        W29439  10.960  35.834   4.108
57769W        W29440   8.034  32.541   4.077
57770W        W29441  40.642   6.763   0.773
57771W        W29442  29.046  40.579   1.517
57772W        W29443  29.407  29.112  10.229
57773W        W29444   0.713  42.875   1.681
57774W        W29445  15.761  20.656   2.271
57775W        W29446  44.708   8.204  11.219
57776W        W29447  20.736  12.812  12.831
57777W        W29448  32.402  38.325  11.166
57778W        W29449  40.745  29.644   1.491
57779W        W29450  26.708  28.562  11.363
57780W        W29451  28.904   5.592  14.828
57781W        W29452  44.200  25.163   1.312
57782W        W29453   6.004  17.163  11.887
57783W        W29454  37.697   7.829  13.271
57784W        W29455   0.009  41.344   0.213
57785W        W29456  11.295  16.164   4.483
57786W        W29457  32.878  17.821  12.053
57787W        W29458  39.247  33.934   3.201
57788W        W29459   7.572  11.505  13.253
57789W        W29460  21.303  11.309  13.768
57790W        W29461   3.253  44.850  10.940
57791W        W29462  29.637  16.751   2.574
57792W        W29463  27.294  38.383   2.237
57793W        W29464  22.246  24.644  13.730
57794W        W29465  38.043  35.868  12.602
57795W        W29466   9.216   5.881   4.163
57796W        W29467  19.684   4.664  14.224
57797W        W29468   6.847   9.834   2.646
57798W        W29469   9.865  37.981  14.136
57799W        W29470  26.251  32.337   5.051
57800W        W29471  26.140  18.704   1.170
57801W        W29472  40.440  33.520  11.514
57802W        W29473  43.461  30.079  11.166
57803W        W29474  15.141   2.498  11.271
57804W        W29475  41.061   9.330   3.254
57805W        W29476   7.284  21.254   4.513
57806W        W29477   6.200  16.610   2.834
57807W        W29478  14.694   7.361  12.521
57808W        W29479  20.460  34.602   1.479
57809W        W29480  31.908   8.422  14.048
57810W        W29481  13.120  27.312   2.402
57811W        W29482  12.240  31.601   2.214
57812W        W29483  16.727   7.455  12.481
57813W        W29484   0.469   7.047   0.375
57814W        W29485   0.227  15.728  12.394
57815W        W29486  15.824  16.134   3.202
57816W        W29487  28.519   2.176  13.831
57817W        W29488  30.038   6.901  10.942
57818W        W29489  33.509  30.089   1.665
57819W        W29490  26.944  17.849   2.197
57820W        W29491  40.589  23.550  11.654
57821W        W29492   2.382  31.696   3.695
57822W        W29493  38.494   6.339   0.407
57823W        W29494  23.764  43.960   4.732
57824W        W29495  32.842   2.245  12.554
57825W        W29496   6.573  11.550  12.391
57826W        W29497  37.082  10.830  11.144
57827W        W29498   7.975   5.014  14.019
57828W        W29499  44.050  39.281   0.443
57829W        W29500  41.526   1.050  12.304
57830W        W29501   6.786  21.074  13.652
57831W        W29502   6.680  43.798  12.457
57832W        W29503   8.827  44.940   4.717
57833W        W29504  25.623  32.206  14.125
57834W        W29505  22.944  14.129  14.435
57835W        W29506  33.088   8.138  12.465
57836W        W29507  22.122  21.993  12.839
57837W        W29508  11.698   1.866  12.011
57838W        W29509  30.485   2.462  12.785
57839W        W29510  42.472  17.756   0.042
57840W        W29511  28.680   7.686  13.510
57841W        W29512  12.962  30.595   4.191
57842W        W29513  13.615  18.531  12.900
57843W        W29514  39.398   9.807   0.739
57844W        W29515   1.530  20.745   1.869
57845W        W29516  32.523  39.835   4.273
57846W        W29517   1.028  27.186   2.758
57847W        W29518  16.501  20.169  10.768
57848W        W29519  30.215  32.132  10.713
57849W        W29520  16.592  33.172   0.383
57850W        W29521  34.449  23.083   2.254
57851W        W29522   6.464   0.380   2.986
57852W        W29523  10.908   5.448   3.739
57853W        W29524  39.177  30.420   2.113
57854W        W29525  10.760  39.960  11.329
57855W        W29526  39.009  34.959   2.604
57856W        W29527  10.602  29.078  12.883
57857W        W29528  22.591  12.720   3.184
57858W        W29529  30.699   6.801  12.900
57859W        W29530  28.047  20.257  14.902
57860W        W29531  26.112   1.215   1.190
57861W        W29532   4.828  40.926   1.978
57862W        W29533   2.189  31.177   0.381
57863W        W29534  26.102  16.495  12.500
57864W        W29535  35.998  43.703  13.869
57865W        W29536  14.193  42.920  12.946
57866W        W29537   0.582  23.451  15.000
57867W        W29538   2.266  19.306  11.165
57868W        W29539  11.314  36.509   1.998
57869W        W29540  38.837  18.487  13.026
57870W        W29541  43.809  37.153  13.166
57871W        W29542  41.627  21.542   3.830
57872W        W29543  13.329   0.458   3.321
57873W        W29544   2.548   3.641   3.959
57874W        W29545   3.387  31.139  12.829
57875W        W29546  22.233  33.873   1.737
57876W        W29547  23.079   0.319  12.374
57877W        W29548  15.054  21.766  12.027
57878W        W29549  40.013   3.343  13.583
57879W        W29550  15.043  23.747   3.406
57880W        W29551  17.623  43.813   3.324
57881W        W29552   4.945  12.939  10.477
57882W        W29553  11.330  11.623  10.705
57883W        W29554  11.865   9.920  13.042
57884W        W29555  39.561  34.181   4.592
57885W        W29556  13.140   9.798   4.020
57886W        W29557   6.946   8.236   0.977
57887W        W29558   8.461  30.032   4.090
57888W        W29559  28.210   9.898  11.075
57889W        W29560  21.549  21.336  13.960
57890W        W29561  37.920  26.322  11.151
57891W        W29562  15.860  11.730   4.847
57892W        W29563  31.191  36.424  10.777
57893W        W29564   5.759  24.006   3.247
57894W        W29565   3.752   1.496   2.461
57895W        W29566  22.989  40.598   4.707
57896W        W29567  12.154  13.591  11.595
57897W        W29568   0.830   1.415  12.361
57898W        W29569   0.603  14.807   3.641
57899W        W29570  22.108  44.498  14.913
57900W        W29571  26.473  20.624   1.918
57901W        W29572   1.712  35.806  11.596
57902W        W29573  17.042  41.993   0.585
57903W        W29574  17.220  25.151  13.355
57904W        W29575  26.491  35.272   1.900
57905W        W29576   0.391  20.003   0.407
57906W        W29577   4.185  17.714   1.687
57907W        W29578  32.146  36.589   4.003
57908W        W29579  36.114  41.344   1.271
57909W        W29580   3.367  11.584   2.730
57910W        W29581  40.855  30.576   1.233
57911W        W29582  39.039  35.362  12.640
57912W        W29583  36.344  16.019   0.385
57913W        W29584  27.708  23.168   3.815
57914W        W29585  35.061  34.669   2.123
57915W        W29586  11.075  16.365   2.331
57916W        W29587  34.510  30.653   4.884
57917W        W29588  44.945  19.732   0.475
57918W        W29589  23.866   9.505   4.655
57919W        W29590   2.523  28.898   0.745
57920W        W29591  43.804  13.273  12.920
57921W        W29592  37.051   1.259   4.822
57922W        W29593   8.913  28.970   1.844
57923W        W29594  21.686  35.582   0.943
57924W        W29595  36.754   2.580   0.284
57925W        W29596  44.235  42.451   0.896
57926W        W29597  29.956  21.061   0.340
57927W        W29598  21.713  15.883   3.313
57928W        W29599  14.890   4.339  11.250
57929W        W29600  21.801  38.939   4.067
57930W        W29601  27.512  28.183   1.407
57931W        W29602   7.706  26.146   1.025
57932W        W29603   2.388   3.133  13.032
57933W        W29604   6.704   7.263   1.877
57934W        W29605  28.510  29.494   0.711
57935W        W29606   3.542   6.772   2.738
57936W        W29607   7.339  41.921   0.735
57937W        W29608  14.584  41.728  14.382
57938W        W29609  15.086   7.097  11.455
57939W        W29610   9.196  16.808  11.184
57940W        W29611  19.647  38.644  14.554
57941W        W29612  24.959   9.460   2.355
57942W        W29613  36.295  32.598  10.651
57943W        W29614  33.434  42.436  14.416
57944W        W29615  42.844  25.590   0.032
57945W        W29616  19.577  10.835  14.259
57946W        W29617   7.704  35.150   3.658
57947W        W29618  11.553  35.111  11.982
57948W        W29619  33.924  39.496  13.026
57949W        W29620   0.945  26.118  12.644
57950W        W29621  28.513  43.382  13.724
57951W        W29622  12.314  38.482  14.037
57952W        W29623  11.773  26.681  12.704
57953W        W29624  13.394  11.671   2.402
57954W        W29625   2.889  39.463   1.180
57955W        W29626  13.423  17.545   1.767
57956W        W29627  28.083   3.787   1.311
57957W        W29628  16.682  11.045  14.825
57958W        W29629  42.876  22.822  12.026
57959W        W29630  32.965  25.066   1.367
57960W        W29631  30.550  29.924   1.265
57961W        W29632  12.874  42.968   0.934
57962W        W29633  37.333   7.233   0.485
57963W        W29634   8.016   0.893   0.680
57964W        W29635  14.166  34.937  12.413
57965W        W29636   9.370  30.657  14.698
57966W        W29637  24.158   1.780   0.936
57967W        W29638  39.530  43.036   4.637
57968W        W29639   0.922  23.349   3.094
57969W        W29640  21.238  29.607  11.621
57970W        W29641  40.521  27.717  11.268
57971W        W29642  27.161  24.111   0.062
57972W        W29643  13.853  38.089  14.283
57973W        W29644  12.100  12.749  10.721
57974W        W29645  10.792   6.805  10.625
57975W        W29646   4.177   6.293   4.510
57976W        W29647   5.473  23.150   3.211
57977W        W29648  18.821  13.239   2.341
57978W        W29649   3.168   2.862  13.929
57979W        W29650  23.404   2.664   2.688
57980W        W29651  30.506   9.171  13.273
57981W        W29652  22.671  30.419   2.195
57982W        W29653  12.241  38.709  11.795
57983W        W29654  42.773  23.042   1.856
57984W        W29655  13.658  41.374   0.500
57985W        W29656   6.973  41.002  13.047
57986W        W29657  37.268  30.851   0.973
57987W        W29658  17.869  21.760   4.617
57988W        W29659  10.700   2.065  14.886
57989W        W29660  24.542  17.751  12.647
57990W        W29661   2.840  43.896   0.745
57991W        W29662   6.126  16.125   2.648
57992W        W29663  35.810  41.108   4.517
57993W        W29664  40.795   8.203   1.394
57994W        W29665  24.557   6.036   3.898
57995W        W29666  21.050  44.983   2.357
57996W        W29667  35.899  40.538  14.894
57997W        W29668  39.827  29.661  12.739
57998W        W29669  44.373  26.397   4.712
57999W        W29670   9.314  12.311  12.001
58000W        W29671   8.163  18.283  10.990
58001W        W29672  19.662  10.285   1.798
58002W        W29673  30.907   5.906   3.782
58003W        W29674   9.911  26.078  10.454
58004W        W29675  44.826  20.355  13.230
58005W        W29676  40.536   7.551  13.425
58006W        W29677   4.187   3.138  12.891
58007W        W29678   2.477  28.635  12.029
58008W        W29679  11.817  34.917   3.325
58009W        W29680  36.624  41.816  10.817
58010W        W29681  14.268   6.453   4.492
58011W        W29682  21.447  21.080  11.337
58012W        W29683  38.671  30.181  11.131
58013W        W29684  17.193  32.047   1.679
58014W        W29685   3.531  26.687   1.813
58015W        W29686  28.742  10.617  14.405
58016W        W29687   5.792  33.181   2.756
58017W        W29688  41.118   1.900  12.008
58018W        W29689  25.247  11.822   0.667
58019W        W29690  12.328  10.350  12.527
58020W        W29691  42.258   1.297  14.007
58021W        W29692  10.229  18.368  11.658
58022W        W29693  25.552  32.152   4.211
58023W        W29694  34.892   8.738  14.801
58024W        W29695   3.207  34.346  11.121
58025W        W29696  41.945  17.574   3.172
58026W        W29697  22.058  26.779   2.884
58027W        W29698  10.232   5.370   2.127
58028W        W29699   4.146  21.057   3.468
58029W        W29700  32.057  14.855   0.370
58030W        W29701  18.555   9.168   4.710
58031W        W29702  42.160   2.041   5.065
58032W        W29703  38.863  17.436  10.750
58033W        W29704  25.729  41.334  11.014
58034W        W29705  16.851  10.198   0.745
58035W        W29706  19.194  36.109  10.691
58036W        W29707   3.338  44.393  11.630
58037W        W29708  28.369  42.252  11.971
58038W        W29709  35.911  27.416  14.928
58039W        W29710  16.832  24.908   4.550
58040W        W29711  38.670  37.294   3.832
58041W        W29712  33.434  20.020  10.785
58042W        W29713  13.241  15.919  14.788
58043W        W29714  41.529  18.568  13.756
58044W        W29715   0.948  31.507  13.425
58045W        W29716  16.568   0.290  13.547
58046W        W29717  17.359  42.147  13.086
58047W        W29718  35.679   4.359  13.388
58048W        W29719  30.164   9.979  11.854
58049W        W29720  19.198  38.320   3.625
58050W        W29721   7.762  24.990  14.884
58051W        W29722  13.550  40.133   3.739
58052W        W29723  33.641  35.164  12.587
58053W        W29724   5.194  12.758   2.367
58054W        W29725  14.009  43.373   4.576
58055W        W29726  31.276  14.573  12.413
58056W        W29727  22.505  40.738  12.013
58057W        W29728  14.598  31.914  11.684
58058W        W29729  41.293   3.872  12.987
58059W        W29730  17.579  22.087   0.863
58060W        W29731  17.513  30.901   1.263
58061W        W29732  20.148  37.955   1.677
58062W        W29733  32.479  27.655   2.927
58063W        W29734  20.315  32.327   4.539
58064W        W29735  25.677   5.142  13.112
58065W        W29736  41.235  13.552  11.187
58066W        W29737  34.945   4.650  11.172
58067W        W29738   5.641  39.979   3.153
58068W        W29739  35.672  25.465   1.727
58069W        W29740   5.988  23.731  12.806
58070W        W29741  37.905   7.749  14.266
58071W        W29742  43.023  41.440  12.119
58072W        W29743  24.656  15.860  13.841
58073W        W29744  41.642  22.430   1.302
58074W        W29745  24.227   2.809  14.503
58075W        W29746  29.705  17.195   4.737
58076W        W29747  22.611  43.702  12.416
58077W        W29748   6.476   4.679   1.607
58078W        W29749  28.570   5.391   4.534
58079W        W29750  35.268  21.962   2.393
58080W        W29751  14.288   0.346  13.932
58081W        W29752  20.082   4.647   2.294
58082W        W29753  23.452   4.828   4.343
58083W        W29754  16.318  23.160   0.375
58084W        W29755  32.892  27.002   1.814
58085W        W29756  14.322  38.493  10.629
58086W        W29757   5.428  37.494   4.894
58087W        W29758  11.500  16.537   0.251
58088W        W29759  26.793  43.566   3.650
58089W        W29760  39.027  36.650  13.333
58090W        W29761  12.593  25.398   0.127
58091W        W29762   0.637  44.661   1.374
58092W        W29763  24.421  33.382   1.005
58093W        W29764  32.248  33.841   2.592
58094W        W29765  36.189  39.776  13.545
58095W        W29766  12.258  19.451   2.721
58096W        W29767  11.571  22.185  10.634
58097W        W29768  42.371  16.784   2.128
58098W        W29769  43.682  22.273  12.461
58099W        W29770  27.568  18.164  14.410
58100W        W29771   3.826  42.978  14.371
58101W        W29772  10.684  25.953  11.632
58102W        W29773  33.720  16.215   2.782
58103W        W29774  19.001   6.414   0.354
58104W        W29775  44.598  27.714   3.130
58105W        W29776  25.257  41.850   4.597
58106W        W29777  23.113  42.162  11.980
58107W        W29778  26.955   4.884  12.548
58108W        W29779  34.485  39.959  12.940
58109W        W29780  11.652  29.768   3.572
58110W        W29781  24.029  20.094   2.711
58111W        W29782  31.682  42.786  12.436
58112W        W29783  26.542   6.412   4.958
58113W        W29784   1.732   8.670   0.231
58114W        W29785  35.278  28.492   0.002
58115W        W29786  15.197  22.649   2.780
58116W        W29787   1.790  28.896   2.857
58117W        W29788   9.937  21.972  12.543
58118W        W29789  18.204  35.426   1.961
58119W        W29790  35.105  28.680  13.496
58120W        W29791  26.893  21.575  11.952
58121W        W29792  41.728  14.141   4.934
58122W        W29793  27.004  23.677   2.330
58123W        W29794  23.744   5.294  10.660
58124W        W29795   1.992  11.541   3.710
58125W        W29796  35.573   9.833  11.090
58126W        W29797   5.225  19.136   4.507
58127W        W29798  26.642  44.281  14.818
58128W        W29799  19.167  34.815  12.881
58129W        W29800  44.683  19.757   2.416
58130W        W29801  44.239  41.729   0.398
58131W        W29802  27.771   0.565  11.613
58132W        W29803  16.083   4.603   2.456
58133W        W29804  29.962  24.177   0.445
58134W        W29805  39.482  21.575  10.629
58135W        W29806   6.447  39.293  12.630
58136W        W29807  14.826   1.795   0.274
58137W        W29808  41.445  19.468   3.409
58138W        W29809  16.595  22.266   1.595
58139W        W29810  42.718  22.516   4.360
58140W        W29811  44.554  21.651   9.780
58141W        W29812  13.190  10.683   3.913
58142W        W29813  30.456  13.408  14.809
58143W        W29814  31.859  19.823   2.416
58144W        W29815   6.812  17.253   1.954
58145W        W29816  35.652  18.420  11.786
58146W        W29817  23.668  10.796   0.027
58147W        W29818  11.564  23.499  11.123
58148W        W29819  12.120  31.456  10.743
58149W        W29820  20.016  34.404  13.767
58150W        W29821  25.671  25.054  12.184
58151W        W29822  17.653  44.413  14.509
58152W        W29823  39.330  37.534   0.736
58153W        W29824  29.410  42.770  13.349
58154W        W29825  22.775  17.414   4.483
58155W        W29826  39.918  24.667  12.320
58156W        W29827   8.300  25.754  14.852
58157W        W29828  27.628  28.738   3.568
58158W        W29829  30.163   6.969  12.066
58159W        W29830  37.429  33.466   3.180
58160W        W29831  17.605   5.503  12.084
58161W        W29832  22.659  20.474   2.812
58162W        W29833  41.938  19.347   4.167
58163W        W29834  29.094  26.475  13.385
58164W        W29835   2.254  36.450   4.112
58165W        W29836  19.053  44.275   1.691
58166W        W29837  29.644  17.694  13.757
58167W        W29838  32.026   7.259  11.883
58168W        W29839   8.652   9.474   4.609
58169W        W29840  44.364   0.196  14.553
58170W        W29841  43.415  33.051  13.528
58171W        W29842  29.591   1.753   3.728
58172W        W29843  15.080  22.267   0.763
58173W        W29844  22.427  41.691   4.154
58174W        W29845  37.818  34.481  13.794
58175W        W29846  26.156   1.484  13.321
58176W        W29847   0.364  22.163   1.885
58177W        W29848  36.884  18.052   0.308
58178W        W29849  23.631   8.869   1.920
58179W        W29850  31.508  22.451   4.584
58180W        W29851  11.599  17.899   2.317
58181W        W29852   9.484  39.752  13.002
58182W        W29853  35.308  18.527   1.727
58183W        W29854  37.625  21.089   4.637
58184W        W29855  13.202  24.126   4.753
58185W        W29856  32.339  21.967   1.788
58186W        W29857   0.286  11.538   1.281
58187W        W29858  16.793  41.393  14.520
58188W        W29859   0.429   5.704   2.209
58189W        W29860   6.113  13.073  12.554
58190W        W29861  37.100  26.648  13.372
58191W        W29862  28.620  38.334   2.259
58192W        W29863  40.441  29.536   3.578
58193W        W29864  27.944  18.362   0.005
58194W        W29865  20.426  34.510  12.214
58195W        W29866  25.469  42.739   1.675
58196W        W29867   9.072   8.026   2.748
58197W        W29868   2.830  10.208   1.657
58198W        W29869  37.500   4.090  10.351
58199W        W29870  22.686  34.995  13.124
58200W        W29871  14.227  18.024   0.996
58201W        W29872   7.265   6.922  12.862
58202W        W29873  36.337  30.583  13.809
58203W        W29874  25.435   2.939  12.044
58204W        W29875  32.055  36.365  10.995
58205W        W29876  10.241  25.643  14.921
58206W        W29877  34.174   8.300   4.739
58207W        W29878  22.712  40.592   0.342
58208W        W29879  15.847   4.420   0.777
58209W        W29880   5.996  44.930  11.672
58210W        W29881   2.787  16.585   1.725
58211W        W29882   6.227  32.582   1.815
58212W        W29883  20.028  26.676   2.678
58213W        W29884  43.573  20.991  14.784
58214W        W29885   4.193  30.581  10.721
58215W        W29886  19.136   9.666   0.319
58216W        W29887  10.771  20.135   3.667
58217W        W29888   2.341   8.800   3.277
58218W        W29889  28.857  12.503   4.201
58219W        W29890  29.527  16.148   4.835
58220W        W29891  28.003  22.735   2.324
58221W        W29892  15.568  37.406   5.160
58222W        W29893  25.667   3.861   1.750
58223W        W29894  10.222  39.873   2.173
58224W        W29895  22.716  29.728   1.286
58225W        W29896  35.485  24.421  13.293
58226W        W29897  41.860  10.983  11.426
58227W        W29898  30.572  43.762  11.740
58228W        W29899  18.069  18.587   4.769
58229W        W29900   6.517  19.145  11.185
58230W        W29901   2.220   5.233  12.507
58231W        W29902  16.022  43.732   2.717
58232W        W29903  41.831  38.909  12.407
58233W        W29904  37.346  16.702  12.254
58234W        W29905  40.080  10.788  11.489
58235W        W29906   1.462   7.698   1.806
58236W        W29907  14.182  29.687   1.352
58237W        W29908  31.044  27.221   3.338
58238W        W29909   6.600  37.623   1.152
58239W        W29910   1.760  27.592   4.252
58240W        W29911   0.007  30.155  11.667
58241W        W29912  27.603  10.806   3.940
58242W        W29913  13.700  29.347   3.660
58243W        W29914  36.014  21.755   2.472
58244W        W29915  43.414  10.369  10.230
58245W        W29916  31.413   2.743  11.266
58246W        W29917  10.572  12.265  10.616
58247W        W29918  21.797   4.315  13.585
58248W        W29919   7.169  42.574   2.420
58249W        W29920  16.586  23.930   3.654
58250W        W29921  40.734  28.659   2.829
58251W        W29922   8.389  40.973   1.306
58252W        W29923   2.735  26.530   1.845
58253W        W29924  17.217  37.859  13.916
58254W        W29925  37.281   4.195  12.469
58255W        W29926   8.329  28.507  10.691
58256W        W29927   8.266  22.555   0.640
58257W        W29928  25.459   9.866   0.629
58258W        W29929   8.823   5.248   1.902
58259W        W29930   1.910   4.349   3.223
58260W        W29931  23.987   6.409   0.285
58261W        W29932  15.215  23.025   2.425
58262W        W29933   1.890   2.947   3.892
58263W        W29934  43.789  37.070  12.164
58264W        W29935  13.084  41.504   2.586
58265W        W29936  36.485   4.413  14.500
58266W        W29937  27.482  29.785  10.599
58267W        W29938   7.621  10.293   3.623
58268W        W29939  20.849  18.619   1.237
58269W        W29940  33.685  14.687  13.919
58270W        W29941  14.106  26.683  11.626
58271W        W29942  39.347   1.047   1.832
58272W        W29943  34.713   6.840  13.012
58273W        W29944  40.000  32.389   1.398
58274W        W29945   2.348  15.594   1.160
58275W        W29946  12.890  31.460   1.118
58276W        W29947  32.120  40.323  10.715
58277W        W29948  15.894  14.032  13.102
58278W        W29949  21.058  13.808  13.922
58279W        W29950  41.402  12.817   4.737
58280W        W29951  31.556  15.063  13.854
58281W        W29952  18.435  25.578  14.299
58282W        W29953  30.631  40.858  11.145
58283W        W29954  28.221  42.931  12.434
58284W        W29955  33.921  32.595  13.762
58285W        W29956  34.189  28.772  13.917
58286W        W29957  25.456   1.037   9.729
58287W        W29958   8.426  32.055  14.878
58288W        W29959   3.456  40.680   4.673
58289W        W29960   5.282  41.371   4.401
58290W        W29961   3.508  17.695   2.729
58291W        W29962  39.320  32.910  13.427
58292W        W29963  39.622  27.059  11.962
58293W        W29964   1.172  21.946   2.752
58294W        W29965  37.784  12.118   0.422
58295W        W29966  28.802  37.319   2.658
58296W        W29967  27.010  39.583  14.356
58297W        W29968  36.516  38.361  14.044
58298W        W29969  19.977  32.111  14.040
58299W        W29970  38.554  25.052  14.280
58300W        W29971  33.371  35.543  14.330
58301W        W29972  27.136   1.945   2.871
58302W        W29973  15.089  43.816   1.684
58303W        W29974  40.639  18.707   3.925
58304W        W29975  10.700  13.068  13.841
58305W        W29976  30.702   9.937  14.967
58306W        W29977   8.838  13.247  11.239
58307W        W29978  38.196  44.238  11.494
58308W        W29979  41.892  11.203  10.553
58309W        W29980  25.221  43.230  10.480
58310W        W29981  14.221  15.252  12.196
58311W        W29982  44.180  35.036   1.346
58312W        W29983  23.898   4.415  10.519
58313W        W29984  22.111  36.593   2.688
58314W        W29985  26.212   0.194   0.896
58315W        W29986   0.347  43.054  14.926
58316W        W29987   0.780   3.979  13.930
58317W        W29988  17.339  11.747  10.700
58318W        W29989  43.417  41.838  12.907
58319W        W29990  21.219  14.684   1.949
58320W        W29991  20.945  16.078  11.589
58321W        W29992  15.212  19.037  14.801
58322W        W29993  19.925  15.226   2.289
58323W        W29994  28.241  30.711  12.596
58324W        W29995  20.751  34.855  13.436
58325W        W29996  18.435  24.328  13.927
58326W        W29997  14.671   9.864  14.362
58327W        W29998  32.651  23.538   5.025
58328W        W29999  37.939  37.958   1.353
58329W        W30000  26.200  29.108  14.992
58330W        W30001  37.329   2.294   1.760
58331W        W30002  36.981  31.489   3.099
58332W        W30003  39.545  22.457   2.822
58333W        W30004   7.502  13.117   2.296
58334W        W30005   0.835  24.424   0.798
58335W        W30006  17.351  24.019   0.462
58336W        W30007   0.348   5.888   2.820
58337W        W30008  14.781  32.127  11.081
58338W        W30009  26.341  43.918  11.019
58339W        W30010  34.795  15.413   4.409
58340W        W30011  10.651  33.839   0.125
58341W        W30012   5.990  27.089  14.298
58342W        W30013   3.648  41.115   4.090
58343W        W30014  18.078  43.558   4.200
58344W        W30015  21.228  33.767  10.799
58345W        W30016   7.382  15.791   2.738
58346W        W30017   0.380  26.968  14.374
58347W        W30018  17.137  27.208  11.797
58348W        W30019  35.936  24.032   2.355
58349W        W30020   5.732  27.939   4.532
58350W        W30021  43.395  41.758   1.435
58351W        W30022  29.022  36.815   1.096
58352W        W30023  35.135  27.432   3.182
58353W        W30024   2.935  37.351   1.322
58354W        W30025  28.359  23.587  12.404
58355W        W30026  36.033  41.590  13.029
58356W        W30027  32.597  33.041  12.027
58357W        W30028  15.091  13.325   1.234
58358W        W30029  40.022  20.760  12.036
58359W        W30030  25.480  16.230   1.178
58360W        W30031  19.253  30.523   1.364
58361W        W30032   2.230  37.338  13.342
58362W        W30033  40.746   7.175   2.404
58363W        W30034   6.717  28.992  12.905
58364W        W30035   1.476  30.539   1.434
58365W        W30036   7.170  13.194   4.559
58366W        W30037  42.533  34.845  11.112
58367W        W30038  40.597  36.059   1.530
58368W        W30039  11.503  11.410   2.120
58369W        W30040  18.550  42.692  11.230
58370W        W30041   4.855   6.407  13.456
58371W        W30042  21.354  38.223   2.681
58372W        W30043  41.156  25.751  13.447
58373W        W30044  33.784  20.896  10.685
58374W        W30045   4.297   0.331  10.878
58375W        W30046   0.411  13.179  14.067
58376W        W30047  29.975  23.149  10.771
58377W        W30048   0.765  23.695  11.904
58378W        W30049  36.732   6.098   4.827
58379W        W30050   9.965  40.530   4.519
58380W        W30051  22.140  32.210  12.972
58381W        W30052   6.775  35.821  10.409
58382W        W30053  14.153  35.435  11.638
58383W        W30054  43.381  27.081  10.692
58384W        W30055   8.676   2.978  14.996
58385W        W30056  39.480  25.586   3.597
58386W        W30057  15.109  21.378   4.095
58387W        W30058   4.883   2.935  13.010
58388W        W30059  43.308   8.338   4.235
58389W        W30060  37.624  38.012  14.282
58390W        W30061  19.736   5.052  11.420
58391W        W30062  29.560  16.328   4.355
58392W        W30063  23.204  19.766  13.691
58393W        W30064  25.034  11.029  13.343
58394W        W30065  13.766  25.718   1.901
58395W        W30066  35.306  29.561  12.156
58396W        W30067  40.796  36.112   1.052
58397W        W30068  22.596  27.419  14.781
58398W        W30069  33.557   3.425   4.558
58399W        W30070  40.802  43.389  13.461
58400W        W30071  33.839  31.168   2.776
58401W        W30072  15.274  30.977  11.516
58402W        W30073  11.417  35.043  11.441
58403W        W30074  42.060   8.676  13.397
58404W        W30075   9.441  43.654  12.663
58405W        W30076  17.085  31.945   4.520
58406W        W30077   3.751  27.665   0.250
58407W        W30078  22.177   7.221  11.351
58408W        W30079  18.021  38.787   4.618
58409W        W30080   9.092  11.171  14.862
58410W        W30081  17.129   0.418   4.561
58411W        W30082  22.953  42.092  12.490
58412W        W30083  12.781  10.162  14.799
58413W        W30084  33.012   2.007   0.284
58414W        W30085  16.639  32.034   4.772
58415W        W30086   6.403  34.871  14.034
58416W        W30087  26.668  16.168   2.710
58417W        W30088  18.182  21.231   1.852
58418W        W30089  15.306  32.124   1.849
58419W        W30090  23.318  24.012  10.751
58420W        W30091  40.362  43.578   0.850
58421W        W30092  44.264  14.599  14.246
58422W        W30093  20.339   8.036   3.454
58423W        W30094  21.477  38.355   1.440
58424W        W30095  35.450  40.886  13.857
58425W        W30096  40.683  11.336  11.983
58426W        W30097  24.771  43.351   0.901
58427W        W30098   5.645  30.642   4.760
58428W        W30099  23.638  25.041  13.628
58429W        W30100   4.744  26.741  14.772
58430W        W30101  14.632  36.953   3.630
58431W        W30102   5.928   6.165   3.320
58432W        W30103  31.123  26.933  11.160
58433W        W30104  32.791   5.978   1.721
58434W        W30105  20.236   2.740  13.215
58435W        W30106   9.747  31.201  12.450
58436W        W30107  30.378   7.266  14.598
58437W        W30108  10.638  38.460   2.610
58438W        W30109  44.850  23.001   3.127
58439W        W30110  37.159   3.698  10.453
58440W        W30111  21.029  24.514  12.007
58441W        W30112  21.715  44.951   1.701
58442W        W30113   6.843  44.982  11.378
58443W        W30114  22.499  16.237  11.523
58444W        W30115  35.961  44.891  14.702
58445W        W30116  39.315  19.015  11.579
58446W        W30117  41.391  27.672  14.422
58447W        W30118  21.701  20.709  13.343
58448W        W30119  33.493  39.935  11.874
58449W        W30120  27.416  21.037  10.778
58450W        W30121  14.704  37.981   3.692
58451W        W30122  23.523  30.089   0.799
58452W        W30123  13.912   9.642  14.833
58453W        W30124  32.553  16.337  13.061
58454W        W30125  15.750  35.314  12.290
58455W        W30126  33.572   0.239   1.765
58456W        W30127  26.394  29.576   3.069
58457W        W30128  43.315   2.039  11.450
58458W        W30129  29.914   9.187   1.437
58459W        W30130  34.223  34.881   0.274
58460W        W30131  41.486  39.518   5.095
58461W        W30132  14.552  16.626  10.827
58462W        W30133  40.022  25.160   2.266
58463W        W30134  35.103  37.770  11.019
58464W        W30135   9.693   4.632  13.436
58465W        W30136  42.059  33.881   2.230
58466W        W30137  41.225  15.377  11.158
58467W        W30138   0.843   6.062   2.198
58468W        W30139  13.221  28.983  13.277
58469W        W30140  35.382  43.198  13.440
58470W        W30141  23.316   0.499   0.797
58471W        W30142  24.198  10.828  12.501
58472W        W30143  10.967  27.546   4.772
58473W        W30144  40.600  26.638   0.780
58474W        W30145  18.127  12.223   4.785
58475W        W30146  12.824   4.402   2.374
58476W        W30147  30.437  42.777  12.017
58477W        W30148  20.529   5.490  12.363
58478W        W30149  16.316  18.025   0.761
58479W        W30150  16.725  39.223  14.463
58480W        W30151  34.405  33.889   1.168
58481W        W30152  43.517   7.447  14.840
58482W        W30153   8.747  44.317  14.237
58483W        W30154  30.651   5.450   2.352
58484W        W30155  11.124  26.120  11.977
58485W        W30156  15.008   7.605   0.717
58486W        W30157  22.484  43.806  14.431
58487W        W30158  22.205  34.492   2.529
58488W        W30159  32.674  41.671  14.808
58489W        W30160  11.312   1.963  12.569
58490W        W30161  41.887  21.554   5.052
58491W        W30162   1.757  25.765   0.918
58492W        W30163  38.165  37.510  12.427
58493W        W30164  39.693  14.328  13.913
58494W        W30165  42.281  14.186  12.956
58495W        W30166   7.229  34.484   1.989
58496W        W30167  44.715  40.501  13.796
58497W        W30168  20.596  13.159  13.189
58498W        W30169  26.494  42.509  10.713
58499W        W30170  26.042  25.080  11.279
58500W        W30171  11.674   6.694   1.831
58501W        W30172  38.930  27.566  10.952
58502W        W30173  24.513   7.931  14.796
58503W        W30174  27.662  31.048   1.769
58504W        W30175  19.816  33.419   0.872
58505W        W30176   5.417  43.475   3.116
58506W        W30177  36.498  32.601   0.678
58507W        W30178  26.537  22.264   0.265
58508W        W30179  16.154  44.947   0.359
58509W        W30180  11.650  38.967  10.176
58510W        W30181  44.729  37.117  13.975
58511W        W30182   0.341  12.815   0.880
58512W        W30183   1.438  40.872  14.962
58513W        W30184  15.293  37.066  10.733
58514W        W30185  40.777  26.096   3.572
58515W        W30186  26.067  41.468  12.811
58516W        W30187  11.128  12.269  13.073
58517W        W30188   6.156  19.023   1.781
58518W        W30189  29.911   4.044  14.335
58519W        W30190  12.104  42.651   0.192
58520W        W30191  17.548  22.725  11.604
58521W        W30192   7.627   2.496  12.044
58522W        W30193  29.708   1.302   2.405
58523W        W30194   0.405  28.862   4.222
58524W        W30195  23.994  13.805   1.907
58525W        W30196  26.517  18.240   2.264
58526W        W30197  12.616   3.669   4.182
58527W        W30198  40.231  32.426  13.684
58528W        W30199  29.913  11.721  13.455
58529W        W30200  33.114  16.537   1.583
58530W        W30201  43.974  36.104  14.713
58531W        W30202  30.947  31.565   1.695
58532W        W30203   4.843   4.557   3.163
58533W        W30204  41.010   4.327   1.167
58534W        W30205   6.278  28.739   3.144
58535W        W30206  20.800   9.002   3.584
58536W        W30207  41.989   5.732  10.963
58537W        W30208   4.428  20.956  11.078
58538W        W30209  15.845  12.295  12.993
58539W        W30210   2.985  29.601   2.313
58540W        W30211  19.649  30.606   1.718
58541W        W30212  40.717  40.507  10.460
58542W        W30213   9.168  15.657   4.089
58543W        W30214  12.435  38.353   2.326
58544W        W30215  19.189  23.339  11.525
58545W        W30216  41.894   3.816   4.389
58546W        W30217   2.239  25.206   1.376
58547W        W30218  24.026  40.480   0.281
58548W        W30219  33.540  28.901   5.099
58549W        W30220  12.247  26.692   4.458
58550W        W30221  10.849  11.211   2.904
58551W        W30222   5.962  29.477  14.251
58552W        W30223  18.783  42.252  10.977
58553W        W30224  41.356   0.178   1.236
58554W        W30225   7.721  42.317  10.730
58555W        W30226   6.953  15.550  14.573
58556W        W30227  19.462   6.242   1.732
58557W        W30228  42.934  15.765  13.850
58558W        W30229  17.750  28.982   2.826
58559W        W30230   7.079  30.976   2.910
58560W        W30231  38.321  40.761   3.935
58561W        W30232   2.636  36.554  12.433
58562W        W30233  39.260  30.207   3.520
58563W        W30234   9.772   6.915   0.368
58564W        W30235  38.069  18.480  12.395
58565W        W30236  25.016   1.697   1.633
58566W        W30237  20.130  15.514  11.584
58567W        W30238  16.201   5.196   0.524
58568W        W30239  23.027  26.846   3.673
58569W        W30240   0.728  37.652   3.702
58570W        W30241  35.030  36.836   1.855
58571W        W30242   0.861   8.161   0.796
58572W        W30243  21.188  29.120  10.389
58573W        W30244  42.240  16.536  12.478
58574W        W30245  37.292  38.635  11.084
58575W        W30246  29.328  19.872   3.817
58576W        W30247  17.364  31.968   0.487
58577W        W30248  35.341  22.264  11.204
58578W        W30249  35.914  13.166   2.059
58579W        W30250  15.574   6.386   0.731
58580W        W30251  11.605  41.742  12.906
58581W        W30252  10.804  10.843  13.281
58582W        W30253  14.553  22.095  10.672
58583W        W30254  12.781  17.186  11.483
58584W        W30255   2.644   7.374  10.999
58585W        W30256  19.493  24.148   3.635
58586W        W30257  44.038   4.959  12.062
58587W        W30258  31.384  10.839   3.787
58588W        W30259   6.913  15.767  11.162
58589W        W30260   1.622  31.588  11.538
58590W        W30261  18.839  31.667  11.605
58591W        W30262  20.956  13.851   2.890
58592W        W30263  36.634  16.063  13.622
58593W        W30264  15.630   9.468   1.847
58594W        W30265  44.598  18.236  11.976
58595W        W30266  17.019  10.058   3.680
58596W        W30267  36.015  35.474  12.162
58597W        W30268   8.050  18.444  13.949
58598W        W30269  35.071  38.935  13.171
58599W        W30270   4.906   5.526   3.449
58600W        W30271  19.138  12.829  10.221
58601W        W30272  31.038   5.157  11.624
58602W        W30273  12.656  14.080  14.906
58603W        W30274   2.538  11.178   2.269
58604W        W30275  38.057  21.855  13.921
58605W        W30276  12.093   3.773   1.030
58606W        W30277   2.323   8.297   0.908
58607W        W30278  23.601  19.251  12.419
58608W        W30279  27.482  42.949   1.225
58609W        W30280  17.988  35.399   0.456
58610W        W30281  24.697  34.206   2.903
58611W        W30282   4.291  27.474   2.086
58612W        W30283  23.229  43.899  12.984
58613W        W30284   5.217  40.000  13.425
58614W        W30285   1.316  41.566  12.025
58615W        W30286   2.723  29.589   0.242
58616W        W30287  20.687   0.187  13.976
58617W        W30288  21.069  35.521  14.289
58618W        W30289  21.510  36.472   0.822
58619W        W30290  39.474   4.823   4.441
58620W        W30291  17.237  30.917  11.305
58621W        W30292   1.512   6.797   0.363
58622W        W30293  33.487  20.082   4.650
58623W        W30294  16.007  31.403   1.834
58624W        W30295  33.671  33.390  14.305
58625W        W30296   9.373  20.139  11.953
58626W        W30297  33.169  12.990   0.300
58627W        W30298  35.878  35.017  10.618
58628W        W30299  40.936  13.887  12.040
58629W        W30300  14.682  33.614   1.693
58630W        W30301  39.315  24.609   2.339
58631W        W30302  37.523  18.504  13.406
58632W        W30303   4.846   9.327  11.776
58633W        W30304   9.690  20.001  11.009
58634W        W30305   2.752  44.504   2.285
58635W        W30306  20.859  11.782   3.871
58636W        W30307   7.655  41.904   2.308
58637W        W30308  14.951   3.763  10.148
58638W        W30309  41.747  19.133   3.700
58639W        W30310  28.896  23.187   0.277
58640W        W30311  14.145  42.549   4.242
58641W        W30312  44.314  17.638   0.255
58642W        W30313  33.774   2.930   0.248
58643W        W30314  23.291  33.026   3.210
58644W        W30315  20.684  42.932   4.550
58645W        W30316  33.245   1.533   3.789
58646W        W30317  33.394   2.280   4.198
58647W        W30318   4.265  41.860  11.006
58648W        W30319   0.232  30.656  12.008
58649W        W30320   5.777  30.983  11.085
58650W        W30321  38.298  41.742  12.413
58651W        W30322   9.921  44.301   2.227
58652W        W30323  12.210  30.170   0.476
58653W        W30324  43.222  10.319  14.620
58654W        W30325  22.005   4.302  14.469
58655W        W30326   4.421  30.107   0.551
58656W        W30327  28.373  36.657  10.377
58657W        W30328   4.390   9.364  11.567
58658W        W30329   6.300   8.946  12.858
58659W        W30330  11.567  41.339  11.207
58660W        W30331  30.397   4.691   1.289
58661W        W30332  17.491  33.539   3.269
58662W        W30333  18.405  40.516  10.935
58663W        W30334  21.476  13.773   2.864
58664W        W30335   5.109   4.704  10.538
58665W        W30336  27.222  40.465  14.364
58666W        W30337  28.264  35.440  12.441
58667W        W30338  14.361   0.849  10.724
58668W        W30339  28.591   0.746  14.997
58669W        W30340  37.662  38.465  13.115
58670W        W30341  39.896  40.461  11.638
58671W        W30342  25.797  14.276  13.019
58672W        W30343  12.707  15.578  12.858
58673W        W30344  10.839  23.805  12.089
58674W        W30345  38.039  40.214  13.344
58675W        W30346  24.946  14.626  13.589
58676W        W30347  25.238  30.149  12.059
58677W        W30348  28.397  27.098  13.410
58678W        W30349   6.917  12.773  11.618
58679W        W30350  43.787  11.916   5.128
58680W        W30351  34.499  22.267  10.911
58681W        W30352   7.820  21.914  10.864
58682W        W30353  39.491  19.713   4.541
58683W        W30354  29.569  26.883  14.521
58684W        W30355  29.695  41.071   4.803
58685W        W30356  22.450  41.955  12.507
58686W        W30357  23.687   1.512   4.454
58687W        W30358  14.900  20.643  11.523
58688W        W30359  18.065  13.893   3.863
58689W        W30360   9.327  23.654  14.006
58690W        W30361  35.024   9.636  13.472
58691W        W30362   4.430  32.442   1.912
58692W        W30363  29.721   9.265   3.719
58693W        W30364  26.665  26.459   3.635
58694W        W30365  27.014  43.379  10.608
58695W        W30366  21.124  35.577   1.818
58696W        W30367  40.340  42.532  10.688
58697W        W30368  22.995  19.495   3.645
58698W        W30369   6.774  33.069   0.232
58699W        W30370  31.474  27.207   1.427
58700W        W30371  34.955  29.227   3.749
58701W        W30372   1.954  41.541   0.193
58702W        W30373  23.262   2.213   2.356
58703W        W30374   6.606  13.847   3.865
58704W        W30375  18.768   9.729   1.093
58705W        W30376   2.198  31.866   4.154
58706W        W30377  18.124  36.553  10.777
58707W        W30378  27.842  44.838  11.209
58708W        W30379  16.119  17.846  13.458
58709W        W30380  12.627  27.068  11.517
58710W        W30381  39.444  17.681   3.816
58711W        W30382  25.626  17.809   4.439
58712W        W30383  13.037  25.633  12.118
58713W        W30384  19.920   4.915  10.597
58714W        W30385  43.429  34.873  13.489
58715W        W30386   6.877  21.160  14.130
58716W        W30387   3.299  25.907   1.694
58717W        W30388  40.412  44.590   1.862
58718W        W30389   3.617  18.248   3.277
58719W        W30390  41.568   3.840  14.522
58720W        W30391   4.891   6.401   0.399
58721W        W30392  38.306  13.750  12.722
58722W        W30393  12.817  41.712  11.599
58723W        W30394  28.233  24.060  12.845
58724W        W30395  43.783  37.590   2.217
58725W        W30396  12.542   6.822   0.886
58726W        W30397  15.947  35.958  13.483
58727W        W30398   8.227  15.912   5.006
58728W        W30399  11.780  41.586   0.827
58729W        W30400  39.061  13.090   0.913
58730W        W30401  22.679  38.381   4.220
58731W        W30402   6.440  41.892   0.256
58732W        W30403   7.566  29.280   0.343
58733W        W30404  12.700  38.918   0.358
58734W        W30405  41.373  15.843  14.955
58735W        W30406   4.132  19.540  11.299
58736W        W30407  22.447  13.783   4.181
58737W        W30408   9.751  27.573  10.744
58738W        W30409  23.653  31.101  11.528
58739W        W30410  15.832  15.843  13.399
58740W        W30411  15.772  28.719   4.421
58741W        W30412  27.181  21.224   3.803
58742W        W30413  37.528   6.982   1.444
58743W        W30414  32.130   3.691  11.629
58744W        W30415  16.151   4.138  12.032
58745W        W30416  39.291  22.119  14.579
58746W        W30417  42.788  10.676  13.040
58747W        W30418  28.919  17.218  11.973
58748W        W30419  21.203  30.387   4.492
58749W        W30420  20.019  12.809   3.608
58750W        W30421  29.546  14.051  10.745
58751W        W30422  40.074  36.414   3.240
58752W        W30423  40.094   8.656   0.027
58753W        W30424  10.188   3.745   2.352
58754W        W30425  38.451  33.466  14.391
58755W        W30426   7.237  44.450  11.243
58756W        W30427   4.770  41.012  10.727
58757W        W30428   2.342  12.963  11.078
58758W        W30429   2.254   8.332  14.831
58759W        W30430  42.020  15.993  12.211
58760W        W30431  12.188   1.851  14.308
58761W        W30432  33.002  44.318  12.002
58762W        W30433  33.982  30.092   2.441
58763W        W30434  36.251   9.259  11.193
58764W        W30435   8.283  27.639  11.877
58765W        W30436  36.195  25.764  11.621
58766W        W30437   9.688   5.458   0.313
58767W        W30438  27.349  24.265   2.689
58768W        W30439   1.264  34.661  14.852
58769W        W30440  42.773  16.168   4.192
58770W        W30441  28.128  21.176   1.254
58771W        W30442  20.984  23.678   3.368
58772W        W30443  24.590  42.938  10.915
58773W        W30444   7.843  30.217  14.936
58774W        W30445  35.303  22.023   3.793
58775W        W30446  39.193  14.263  14.104
58776W        W30447  33.785  24.509   3.671
58777W        W30448  17.659  37.345  10.124
58778W        W30449  37.806  37.763   2.829
58779W        W30450  40.485  11.691   1.391
58780W        W30451   7.299  12.703  13.473
58781W        W30452  31.547  37.380  12.723
58782W        W30453  18.821  19.187   1.760
58783W        W30454  16.086   8.071  14.961
58784W        W30455   8.147   9.465  12.925
58785W        W30456  20.716  19.160   0.537
58786W        W30457  41.992  18.305  11.514
58787W        W30458   4.559  14.163  10.299
58788W        W30459  28.977  28.911   2.314
58789W        W30460  22.685  27.913  13.888
58790W        W30461  24.539  40.659   1.105
58791W        W30462   3.396   4.315  11.075
58792W        W30463  14.134  31.795   2.739
58793W        W30464  38.065  21.576  10.836
58794W        W30465  12.777  18.858   0.543
58795W        W30466  22.148  29.085  10.731
58796W        W30467  41.532  26.910  11.541
58797W        W30468  24.975  40.606   2.651
58798W        W30469   8.456   2.279  11.793
58799W        W30470  26.200  25.929  13.099
58800W        W30471  39.309  39.354  14.637
58801W        W30472  11.239  11.121   3.866
58802W        W30473  38.669   7.408  14.364
58803W        W30474   2.704  44.005  10.887
58804W        W30475  39.031  16.362   2.397
58805W        W30476   8.530   7.929  12.067
58806W        W30477  31.858  29.612   0.289
58807W        W30478  31.471   7.435   3.263
58808W        W30479  11.658  28.000   0.769
58809W        W30480  44.414  25.168   2.711
58810W        W30481  27.326  44.802  11.100
58811W        W30482  20.534  22.741   3.291
58812W        W30483  43.035  28.131  14.121
58813W        W30484  20.522  21.088   3.712
58814W        W30485   7.662  11.861   1.221
58815W        W30486  31.166  30.738   4.538
58816W        W30487  13.111  21.334   5.210
58817W        W30488  11.708  15.254  11.206
58818W        W30489  38.312  18.028  12.369
58819W        W30490  42.869  31.227   4.355
58820W        W30491  37.808   9.267  14.834
58821W        W30492  43.197   2.871   3.394
58822W        W30493  43.209   8.716  14.056
58823W        W30494  43.935  39.277  14.476
58824W        W30495   8.291  44.461  12.919
58825W        W30496  38.915   0.065  10.634
58826W        W30497  30.871  35.439   0.594
58827W        W30498  22.617  16.819  12.921
58828W        W30499   6.435   6.525  12.073
58829W        W30500  11.789  13.097   0.053
58830W        W30501   1.887  43.617  11.118
58831W        W30502  23.527   6.750   3.917
58832W        W30503  11.309  40.988  14.726
58833W        W30504  39.319   4.306  10.658
58834W        W30505  32.083   1.393   4.252
58835W        W30506  32.365  15.388  12.986
58836W        W30507  19.552   4.466  14.945
58837W        W30508  25.493  16.857  13.685
58838W        W30509  34.606   1.746   2.116
58839W        W30510   8.125   3.237   1.700
58840W        W30511   5.997  22.966   3.159
58841W        W30512  28.574  41.896   0.911
58842W        W30513  21.025  22.568  14.250
58843W        W30514  37.510  19.413  10.208
58844W        W30515  31.720  44.747   0.421
58845W        W30516   9.859  27.475   3.121
58846W        W30517   0.984   9.376  11.607
58847W        W30518  40.799   3.330   1.482
58848W        W30519  33.086   3.916  12.987
58849W        W30520  42.242  10.238  11.743
58850W        W30521  37.804   2.535  13.833
58851W        W30522  16.106   7.793   2.746
58852W        W30523  33.854   2.638  14.452
58853W        W30524   8.495   7.412   0.029
58854W        W30525   8.909   8.435  11.469
58855W        W30526   0.802  22.692   2.391
58856W        W30527  17.358  40.884   2.731
58857W        W30528  44.974  44.953   3.379
58858W        W30529  18.882  22.562   4.510
58859W        W30530  25.675  38.915   1.821
58860W        W30531  44.900  35.711  14.372
58861W        W30532   8.139  36.564  12.970
58862W        W30533   2.203   3.808   0.389
58863W        W30534  41.217  28.895   1.813
58864W        W30535  25.281  23.999  12.850
58865W        W30536  14.554   7.083  13.585
58866W        W30537  35.940   2.322  14.941
58867W        W30538   9.114  17.127  12.966
58868W        W30539  19.261  32.915  14.639
58869W        W30540  42.082   2.795   4.090
58870W        W30541   0.950  13.583   2.117
58871W        W30542  13.767   7.788  10.625
58872W        W30543  23.234  27.370  13.248
58873W        W30544  22.680  12.407  10.086
58874W        W30545  31.778  33.906  13.438
58875W        W30546  42.489  30.692   1.246
58876W        W30547  28.045  19.682   5.138
58877W        W30548  38.403  35.524  12.833
58878W        W30549  28.353  16.438   3.718
58879W        W30550  12.515  14.774  11.159
58880W        W30551  15.059  24.568   3.026
58881W        W30552   3.858  26.036   0.780
58882W        W30553  22.418  31.065  13.430
58883W        W30554  24.316  24.024  12.610
58884W        W30555  36.433  20.769  12.935
58885W        W30556   7.682  12.846  12.067
58886W        W30557  11.785   5.841  13.558
58887W        W30558  44.912   1.219  13.367
58888W        W30559  26.841  26.086  12.096
58889W        W30560  20.997  15.661   2.847
58890W        W30561  19.892  35.873  14.373
58891W        W30562  35.104  39.144   1.402
58892W        W30563  16.161  30.195  11.021
58893W        W30564   7.760   7.735   1.850
58894W        W30565   0.559  19.262   2.891
58895W        W30566  27.417  11.713  11.902
58896W        W30567  35.245  31.495   3.606
58897W        W30568   1.287  30.195   2.166
58898W        W30569  16.833  39.498   2.765
58899W        W30570   5.914  21.114   2.373
58900W        W30571  38.950  14.858  14.958
58901W        W30572  17.985   8.680   0.339
58902W        W30573  24.031  38.764  11.120
58903W        W30574  20.675  28.584   0.324
58904W        W30575  14.304  30.155  11.781
58905W        W30576  14.162   4.217   0.224
58906W        W30577  24.465  18.509   4.370
58907W        W30578  41.371  33.504   4.627
58908W        W30579   4.845   6.954   0.298
58909W        W30580  11.359  18.162  12.124
58910W        W30581  17.784  33.466  14.897
58911W        W30582  36.548  37.062  13.465
58912W        W30583   3.664  22.151   3.406
58913W        W30584   3.760  20.294   0.929
58914W        W30585   3.512  36.074  11.046
58915W        W30586  41.175  17.720  11.103
58916W        W30587   3.196   5.732   2.820
58917W        W30588  25.433  30.949  14.829
58918W        W30589  26.109  25.557   4.547
58919W        W30590   4.284   5.230  11.002
58920W        W30591  25.803   9.475   1.411
58921W        W30592  19.752  27.609  14.777
58922W        W30593  21.368   5.764   4.943
58923W        W30594   1.643  35.529  14.890
58924W        W30595   9.391  42.771   4.135
58925W        W30596   7.491   1.234  12.037
58926W        W30597  24.507  32.342   2.402
58927W        W30598  41.395   0.802  13.273
58928W        W30599   3.638  21.223   3.162
58929W        W30600  25.535  28.474   1.826
58930W        W30601  34.907  17.210   1.876
58931W        W30602  31.904   2.066  11.500
58932W        W30603  16.225  11.240   1.839
58933W        W30604  12.854   2.187  12.509
58934W        W30605  40.773  40.227   1.844
58935W        W30606  33.440  10.735   4.694
58936W        W30607  22.154  16.324  11.912
58937W        W30608  37.773   6.605  14.993
58938W        W30609  32.835  21.323  14.458
58939W        W30610  12.893   5.734  14.526
58940W        W30611  23.229   5.305   1.842
58941W        W30612  44.860  32.055   2.901
58942W        W30613  43.883  23.046  14.924
58943W        W30614  12.729  11.364  14.261
58944W        W30615  32.996  28.531   0.479
58945W        W30616   1.423   8.829  13.885
58946W        W30617  15.708  28.123   2.788
58947W        W30618  43.197  30.932  11.090
58948W        W30619  12.828  21.657  13.886
58949W        W30620  30.243  13.320   1.067
58950W        W30621  27.888   8.672  13.289
58951W        W30622  31.689  16.586   4.563
58952W        W30623  24.962  31.040  13.823
58953W        W30624  30.954  41.555   1.099
58954W        W30625  32.339   5.261  12.139
58955W        W30626   2.018  30.339   3.723
58956W        W30627   8.263  44.393  11.115
58957W        W30628  17.879  38.029   1.759
58958W        W30629   8.330  21.493   3.230
58959W        W30630  34.367  28.572  10.659
58960W        W30631  26.001  13.613   0.720
58961W        W30632   2.816  24.188   3.718
58962W        W30633  13.552  15.787   4.657
58963W        W30634  15.226  42.945  12.054
58964W        W30635  35.581  21.517   2.277
58965W        W30636  39.961  28.056   4.357
58966W        W30637   4.825  42.740   1.652
58967W        W30638  10.370   0.940   1.888
58968W        W30639  28.699   8.649  14.990
58969W        W30640  43.532  39.973   5.057
58970W        W30641   0.410  40.166  13.125
58971W        W30642  41.939  33.365   0.838
58972W        W30643  44.231   4.142   3.331
58973W        W30644  28.399  23.035  13.275
58974W        W30645  32.749   7.882  12.092
58975W        W30646   0.479  22.655   0.452
58976W        W30647   9.325  20.571  12.602
58977W        W30648  39.976   1.449  14.560
58978W        W30649   1.633  27.615  13.010
58979W        W30650  39.811  30.171  12.918
58980W        W30651   6.856  13.410   3.239
58981W        W30652  33.884  35.814   4.719
58982W        W30653  18.400  10.425  12.922
58983W        W30654   6.252  44.533   3.181
58984W        W30655  39.333  37.335  11.945
58985W        W30656  20.211   8.467   3.133
58986W        W30657  17.971  33.933   0.006
58987W        W30658  39.342  16.134  10.676
58988W        W30659   6.789  42.791  13.116
58989W        W30660   8.747   5.677   3.178
58990W        W30661  13.117   7.727   3.148
58991W        W30662  33.184  30.671  12.859
58992W        W30663  33.388   1.185  13.492
58993W        W30664  36.909  43.341   0.966
58994W        W30665  19.503   7.359  12.359
58995W        W30666  31.115  26.092  11.559
58996W        W30667   3.414  25.154  14.457
58997W        W30668  25.826   8.388   5.096
58998W        W30669  15.880  44.555  10.773
58999W        W30670   5.279  15.257   0.890
59000W        W30671  22.208  17.157   3.349
59001W        W30672  41.046   7.203   2.825
59002W        W30673  26.550  36.999  12.103
59003W        W30674   5.021  17.963   1.826
59004W        W30675  31.087  29.886  12.090
59005W        W30676  31.443  26.435   2.193
59006W        W30677   2.768  42.920   1.791
59007W        W30678  33.607  31.052   2.306
59008W        W30679  37.819   2.479   4.070
59009W        W30680   2.816   6.861  13.843
59010W        W30681  17.723  39.052  13.821
59011W        W30682  36.601  36.802   1.818
59012W        W30683  27.053  34.753   2.393
59013W        W30684   7.128   1.823  11.515
59014W        W30685  27.384   8.733   1.899
59015W        W30686   4.309  17.175   3.866
59016W        W30687  25.746  30.095  12.069
59017W        W30688  36.795  31.080  14.415
59018W        W30689  16.939  29.674   0.411
59019W        W30690  35.129  38.429  14.480
59020W        W30691  30.209  42.884  12.500
59021W        W30692  33.021  36.976  13.039
59022W        W30693  36.601  17.168  12.580
59023W        W30694  34.631   1.470  12.921
59024W        W30695   0.270   1.970  14.321
59025W        W30696  22.693  34.837  10.679
59026W        W30697   9.664  43.537  14.672
59027W        W30698  27.586  26.180  12.483
59028W        W30699  17.820  14.618  10.152
59029W        W30700   6.385   3.935   2.814
59030W        W30701  20.266  10.122  14.488
59031W        W30702  23.147  23.680  10.400
59032W        W30703  20.920  20.222   4.616
59033W        W30704  25.383   1.818   1.970
59034W        W30705  26.827  19.750   4.539
59035W        W30706  25.791   6.718   2.410
59036W        W30707  23.234  17.167  12.877
59037W        W30708   3.229   5.396  15.000
59038W        W30709  24.610   8.398   0.033
59039W        W30710  42.352  28.957  10.598
59040W        W30711  38.414  36.816  14.958
59041W        W30712  34.466   2.268   2.228
59042W        W30713  39.921   9.358   4.597
59043W        W30714  23.707  20.316   0.194
59044W        W30715  43.642  37.923  14.801
59045W        W30716  33.952  16.998   0.438
59046W        W30717  35.026  42.498   2.060
59047W        W30718  32.966   1.756  12.418
59048W        W30719  13.417   3.068   2.167
59049W        W30720  33.407  34.069   3.683
59050W        W30721   2.141  37.402  13.858
59051W        W30722  31.379   1.355   3.278
59052W        W30723  11.151   8.306   3.571
59053W        W30724  20.577  23.744  10.724
59054W        W30725  16.496  28.084  12.030
59055W        W30726  43.717   9.266  14.749
59056W        W30727  11.071  17.716   4.588
59057W        W30728  16.579  25.922   2.567
59058W        W30729   6.873   2.472   2.992
59059W        W30730   9.030  38.247  13.464
59060W        W30731  18.637  40.876   4.134
59061W        W30732  43.991  40.913  11.198
59062W        W30733  25.024  19.956  14.454
59063W        W30734  14.809  34.905   0.401
59064W        W30735   8.290   7.786   1.912
59065W        W30736  40.937   8.068   2.886
59066W        W30737  25.514   9.374   3.937
59067W        W30738   4.818  18.089  14.704
59068W        W30739  35.995  16.802   2.494
59069W        W30740  10.633   7.265   1.146
59070W        W30741  17.350  18.720  10.699
59071W        W30742   8.330  33.898  10.805
59072W        W30743  28.548  13.275  10.941
59073W        W30744  17.194  10.877  12.522
59074W        W30745   2.207  25.688   1.150
59075W        W30746  38.007  40.336   3.189
59076W        W30747  38.336  23.025  11.404
59077W        W30748   4.689  23.032   3.955
59078W        W30749  12.321   7.772   2.176
59079W        W30750   7.391  28.006  12.108
59080W        W30751  28.234  28.742  14.419
59081W        W30752  14.374   3.797  13.899
59082W        W30753  25.105  28.004   1.244
59083W        W30754   5.249  22.001  10.608
59084W        W30755  28.412  11.030  13.498
59085W        W30756   4.445  23.693  12.533
59086W        W30757  40.384  20.792   3.393
59087W        W30758  39.857   6.346   3.651
59088W        W30759  27.249  30.069  11.040
59089W        W30760  40.122   9.246  14.314
59090W        W30761  38.308  27.020  12.501
59091W        W30762  23.978  41.034  11.681
59092W        W30763  42.357  19.771   0.854
59093W        W30764  43.078  29.234  12.627
59094W        W30765  13.166  17.190  12.845
59095W        W30766  35.461  20.474  10.881
59096W        W30767  35.954  21.061  12.439
59097W        W30768   4.533  43.567   1.160
59098W        W30769  22.257  16.673   3.555
59099W        W30770  31.551  20.233  12.958
59100W        W30771  14.145  21.112  14.027
59101W        W30772   7.199  22.970  10.598
59102W        W30773  32.535  37.949   0.169
59103W        W30774  29.076  29.982   0.006
59104W        W30775  41.006  31.498   1.729
59105W        W30776  18.537  37.297  13.494
59106W        W30777  36.903  26.424   2.673
59107W        W30778  22.484  40.021  12.485
59108W        W30779  31.708   0.245   4.129
59109W        W30780  21.040   1.795  12.846
59110W        W30781  41.371  19.484   0.444
59111W        W30782  16.579  25.812  13.763
59112W        W30783  26.026   7.236  13.402
59113W        W30784  21.015   5.037   2.355
59114W        W30785   1.839  31.977   1.924
59115W        W30786  20.141  27.974   4.527
59116W        W30787  10.981   0.451   4.162
59117W        W30788  26.999  29.958  10.607
59118W        W30789  42.241  37.110  12.010
59119W        W30790  41.919  25.918   0.447
59120W        W30791  34.157  43.749  12.045
59121W        W30792  33.887  25.120   3.050
59122W        W30793  36.020  18.066  12.573
59123W        W30794  34.773  32.478  10.661
59124W        W30795   6.480  11.864  11.949
59125W        W30796  28.326  29.350   3.791
59126W        W30797  19.162  37.830   1.387
59127W        W30798   2.311  36.522  13.752
59128W        W30799  28.541  28.196  11.620
59129W        W30800  36.426  11.223   3.831
59130W        W30801  14.733   6.238   4.313
59131W        W30802  27.592   3.988   0.285
59132W        W30803  29.228   4.315  10.644
59133W        W30804  31.898  33.431   1.336
59134W        W30805  32.426   1.266   2.618
59135W        W30806  16.820  33.833   0.780
59136W        W30807  39.623  19.008   2.603
59137W        W30808   6.144  32.895   2.409
59138W        W30809   5.675  37.344   4.050
59139W        W30810  34.547  11.826   1.989
59140W        W30811  31.614  16.299   0.089
59141W        W30812  20.823  31.175  12.558
59142W        W30813  17.852  37.016   0.678
59143W        W30814  15.241  34.379  12.369
59144W        W30815  41.049  40.907   4.634
59145W        W30816  37.930  42.821   1.610
59146W        W30817   8.418  44.187  13.340
59147W        W30818  38.340   0.690   3.197
59148W        W30819   1.755  27.602   2.744
59149W        W30820  25.249  39.807  13.742
59150W        W30821  14.428   8.290   2.632
59151W        W30822  34.568  31.546   4.669
59152W        W30823   1.284  40.447  12.514
59153W        W30824  36.992  36.077   4.652
59154W        W30825   1.696   1.028   1.858
59155W        W30826  36.038  44.430  14.486
59156W        W30827   6.545  19.119  14.899
59157W        W30828  33.919  31.395   0.327
59158W        W30829  43.314  44.950   4.203
59159W        W30830  17.122  10.762   1.161
59160W        W30831   0.948  30.884  14.687
59161W        W30832  25.326  31.881   1.699
59162W        W30833  28.070   3.418  12.496
59163W        W30834   8.801  44.390   2.225
59164W        W30835   7.584  44.874   4.878
59165W        W30836  16.533  25.431   2.368
59166W        W30837  20.082  17.937   2.722
59167W        W30838  32.848  24.477  14.020
59168W        W30839  34.680   5.689  13.772
59169W        W30840  41.499   2.380   0.801
59170W        W30841  18.610   1.891   4.522
59171W        W30842  10.030   7.712   3.702
59172W        W30843  35.254  41.984  12.306
59173W        W30844  21.739  22.503   0.275
59174W        W30845  12.249  34.971  13.086
59175W        W30846  41.329  37.386  12.911
59176W        W30847  43.595  29.024   2.301
59177W        W30848   1.837   3.591   0.803
59178W        W30849  17.061  28.964   3.365
59179W        W30850  25.632  28.174  10.661
59180W        W30851  42.766  11.385  13.511
59181W        W30852   3.202  15.631   1.794
59182W        W30853  35.483  31.882  11.967
59183W        W30854  11.740  15.391   0.532
59184W        W30855  39.099  16.230   1.036
59185W        W30856  31.602  14.191  14.697
59186W        W30857  24.798   6.846   0.522
59187W        W30858  23.162  31.096  12.368
59188W        W30859  13.076  33.388  14.995
59189W        W30860  12.737   6.757  13.828
59190W        W30861  12.382  24.091   3.371
59191W        W30862  32.922  18.514   2.856
59192W        W30863   6.337  44.878  14.437
59193W        W30864  19.491  32.940   4.614
59194W        W30865  35.853  22.741   3.237
59195W        W30866  13.319  17.066  13.339
59196W        W30867  40.361  34.627  12.891
59197W        W30868  31.943  30.472   1.623
59198W        W30869   1.994  28.300  13.155
59199W        W30870  17.340  23.164  11.930
59200W        W30871   8.662  14.860  14.006
59201W        W30872  15.160  15.724   2.275
59202W        W30873  15.487  27.267   2.205
59203W        W30874  23.578   7.826   0.827
59204W        W30875  26.499  14.287  11.614
59205W        W30876   9.768  38.305  11.941
59206W        W30877  18.335  36.084  12.464
59207W        W30878  11.885  21.229  11.478
59208W        W30879   3.196  11.273   3.110
59209W        W30880   3.792  30.431   3.848
59210W        W30881   0.504  27.283   4.186
59211W        W30882   8.053  25.957  12.027
59212W        W30883  42.960  24.705   4.094
59213W        W30884  32.130  39.189   2.903
59214W        W30885  30.571  39.449  10.709
59215W        W30886  28.877  29.395  14.871
59216W        W30887  43.041   9.738  12.597
59217W        W30888  23.403  40.442  12.040
59218W        W30889  13.654  41.994   2.300
59219W        W30890  14.507  11.254  13.114
59220W        W30891  14.647  30.138   3.796
59221W        W30892  34.793  41.744  12.190
59222W        W30893  36.445   0.932   0.204
59223W        W30894  17.994   3.888   4.610
59224W        W30895  20.974   2.506  14.303
59225W        W30896  18.123   9.971  12.916
59226W        W30897  28.142  44.333  14.599
59227W        W30898  20.310  23.326  10.830
59228W        W30899  29.371  11.427   0.061
59229W        W30900  27.708  10.663   1.364
59230W        W30901  37.862   1.417   2.382
59231W        W30902   2.246  16.219  13.095
59232W        W30903   4.001  44.486   1.781
59233W        W30904  43.242   3.491   2.771
59234W        W30905  27.162   5.886   2.857
59235W        W30906   5.401  44.243   4.645
59236W        W30907  44.524  18.507  11.117
59237W        W30908  28.197  44.858  10.811
59238W        W30909  39.655  33.812  10.876
59239W        W30910  44.525  29.564   0.543
59240W        W30911  12.894  42.075   2.042
59241W        W30912  38.560   7.372   4.201
59242W        W30913   6.447   9.334  12.368
59243W        W30914   3.979  31.664   1.381
59244W        W30915  24.922  35.062   3.703
59245W        W30916  15.027  30.025   0.824
59246W        W30917  36.374   0.102  14.971
59247W        W30918  18.607  30.547  13.562
59248W        W30919  37.443  17.571   2.769
59249W        W30920  39.061  11.198  14.025
59250W        W30921  44.288  18.049  12.429
59251W        W30922  37.354  37.668   0.050
59252W        W30923  20.304  15.542   0.307
59253W        W30924  12.295  27.057   2.722
59254W        W30925  40.627  27.865  12.925
59255W        W30926  11.819  17.152   1.196
59256W        W30927  13.998   9.221   2.659
59257W        W30928  14.404  41.265  12.114
59258W        W30929   4.832  27.673   5.106
59259W        W30930  11.009   7.656  14.125
59260W        W30931  10.665   6.789   0.899
59261W        W30932  42.979  21.152   4.839
59262W        W30933  25.327  37.167   2.856
59263W        W30934  23.428  31.978  13.391
59264W        W30935  44.193  13.392   4.381
59265W        W30936   6.952  38.594   1.444
59266W        W30937  34.088  30.064   0.517
59267W        W30938  21.714  42.340   4.191
59268W        W30939   6.140   1.221  14.719
59269W        W30940   8.062   9.676   1.778
59270W        W30941   3.842  39.132   1.213
59271W        W30942   8.590  25.159   1.756
59272W        W30943   2.959  36.567   2.795
59273W        W30944  34.539   1.733   1.346
59274W        W30945   6.847  25.515  12.532
59275W        W30946  26.133  13.110   0.857
59276W        W30947  18.397  21.228  14.451
59277W        W30948  19.759  39.542   0.166
59278W        W30949  35.877  20.137  11.554
59279W        W30950  31.850   3.255  12.559
59280W        W30951  19.278  37.018  14.314
59281W        W30952  37.007  20.167   2.095
59282W        W30953   0.252  33.620   2.261
59283W        W30954  35.432  39.913  13.967
59284W        W30955  35.134  29.156   4.687
59285W        W30956  25.319  33.866   1.849
59286W        W30957   2.494   9.702  13.775
59287W        W30958  19.541   5.303   4.837
59288W        W30959  11.894  21.043   3.634
59289W        W30960  26.290  44.304  13.876
59290W        W30961  29.392   9.764  11.512
59291W        W30962   1.417   0.565  12.447
59292W        W30963   7.184  36.690  10.660
59293W        W30964  44.268  21.061  13.764
59294W        W30965   5.617  14.255   4.935
59295W        W30966  24.534  19.012  14.855
59296W        W30967  17.964   8.831  13.491
59297W        W30968  30.633   2.442   2.242
59298W        W30969  13.757  27.554   4.091
59299W        W30970  16.595  16.186  11.097
59300W        W30971   5.085  33.778   2.377
59301W        W30972  17.222   4.536   1.722
59302W        W30973  24.456  39.335  10.591
59303W        W30974  11.101  39.558   0.384
59304W        W30975   6.759  19.620  10.832
59305W        W30976  35.366   7.207   2.331
59306W        W30977  28.250  34.946  14.012
59307W        W30978  17.998  16.333  10.734
59308W        W30979   2.671  39.360  14.939
59309W        W30980  24.737   5.321   3.308
59310W        W30981   0.776  22.185  11.603
59311W        W30982  12.902  31.719  14.165
59312W        W30983  38.900  41.900   0.232
59313W        W30984  29.917   4.269   4.588
59314W        W30985  36.080  38.487   2.892
59315W        W30986  44.997  36.533   3.562
59316W        W30987  18.352  19.612   0.891
59317W        W30988  37.023   5.719  11.986
59318W        W30989  10.725  35.926  10.698
59319W        W30990  11.215  12.168   1.796
59320W        W30991  24.549   9.747   2.203
59321W        W30992   8.382  28.972   3.132
59322W        W30993  18.538  29.720   4.497
59323W        W30994  32.100  16.843   3.198
59324W        W30995  22.748  41.003  11.593
59325W        W30996  12.045  23.017  13.576
59326W        W30997  25.467  36.408   2.350
59327W        W30998   1.683  11.405  14.356
59328W        W30999  38.861   3.425   1.791
59329W        W31000  18.010  42.895  10.804
59330W        W31001  14.849  40.293   4.096
59331W        W31002   8.573   4.290  13.557
59332W        W31003  19.808  31.900   1.879
59333W        W31004  24.460  42.909   0.126
59334W        W31005   0.500   3.900  10.938
59335W        W31006   9.208  38.497   4.998
59336W        W31007   0.003  42.225   0.409
59337W        W31008  11.408  26.960   2.200
59338W        W31009  16.098  41.825  10.761
59339W        W31010  27.073  43.942   0.988
59340W        W31011  25.137  29.894   0.466
59341W        W31012  15.278  32.037   4.502
59342W        W31013  34.060  40.481  13.823
59343W        W31014   3.541   0.870   3.582
59344W        W31015   7.967  20.099  11.598
59345W        W31016  32.376  27.182   3.408
59346W        W31017  13.604  39.762  11.381
59347W        W31018  28.421  37.956   2.865
59348W        W31019   9.501  34.927  13.443
59349W        W31020  32.450  43.689   2.543
59350W        W31021  14.142  37.377  14.465
59351W        W31022  17.658  27.686  13.433
59352W        W31023  25.083   3.539   2.225
59353W        W31024  33.994  26.459  14.892
59354W        W31025  41.775  37.551   3.254
59355W        W31026   3.750  12.200  14.574
59356W        W31027   8.343   4.989   4.305
59357W        W31028  34.034  23.742   1.509
59358W        W31029   3.739  33.415   4.011
59359W        W31030   8.759  33.975  13.487
59360W        W31031  36.068   6.797   0.689
59361W        W31032  19.661  43.418  13.066
59362W        W31033  28.511  18.741   3.668
59363W        W31034   6.706  22.006  12.620
59364W        W31035  44.082  24.983   0.004
59365W        W31036  12.194  39.861   1.357
59366W        W31037  37.476  22.881   1.870
59367W        W31038  23.514  24.579  13.851
59368W        W31039  40.842  13.203  11.030
59369W        W31040   5.221  39.063   4.723
59370W        W31041   2.643  15.145   2.604
59371W        W31042  40.062  12.278   3.453
59372W        W31043   2.398  23.737   1.356
59373W        W31044  23.940  27.901  11.502
59374W        W31045  17.255  11.696   1.362
59375W        W31046  23.095   3.345  13.064
59376W        W31047  27.597  39.581  13.465
59377W        W31048  44.780  28.717   4.600
59378W        W31049  21.521  16.693   0.373
59379W        W31050  39.016  16.685   3.884
59380W        W31051  43.617   3.795   0.801
59381W        W31052  39.889  37.882   0.269
59382W        W31053  30.642   3.924   2.165
59383W        W31054  26.531  36.533   1.394
59384W        W31055  31.703   7.596  14.204
59385W        W31056  32.928  12.882   0.775
59386W        W31057  23.583  23.677  12.593
59387W        W31058  25.353  14.353   0.430
59388W        W31059  35.550  40.348  10.127
59389W        W31060  19.536  12.646  10.523
59390W        W31061   0.256  13.873   0.870
59391W        W31062   2.459   9.894   3.748
59392W        W31063  18.327   9.479   1.422
59393W        W31064  36.596  43.480   4.484
59394W        W31065  21.611  18.216   3.486
59395W        W31066   4.273  12.637  12.593
59396W        W31067  36.373  24.055   2.664
59397W        W31068  19.757  36.117  12.511
59398W        W31069   5.361  24.104   0.356
59399W        W31070  16.369  29.505  14.828
59400W        W31071  20.728  19.055   4.351
59401W        W31072  17.629   6.903  10.672
59402W        W31073   9.310  25.690  11.598
59403W        W31074  34.927  17.197  14.563
59404W        W31075  35.902  11.062   1.900
59405W        W31076  31.161  31.091   1.686
59406W        W31077  18.703  37.007   3.832
59407W        W31078  28.028  13.695  12.965
59408W        W31079  30.641   7.668  14.398
59409W        W31080   8.922  44.895  12.375
59410W        W31081  12.834  33.963  12.660
59411W        W31082  37.577   3.939   3.220
59412W        W31083   4.363  26.172  12.368
59413W        W31084  12.258   1.864  13.782
59414W        W31085  13.668  39.341   3.370
59415W        W31086  37.009  38.288   1.245
59416W        W31087  11.085  13.291  11.274
59417W        W31088  18.551  36.652  12.030
59418W        W31089   2.201  22.506   2.305
59419W        W31090  17.818  15.373  13.368
59420W        W31091  15.045  12.253  14.520
59421W        W31092  32.653  12.571  14.680
59422W        W31093  41.235  35.074  12.482
59423W        W31094  39.048   3.207  14.206
59424W        W31095  26.922  36.014   0.504
59425W        W31096  34.187  38.818  12.972
59426W        W31097  24.158  40.557  11.459
59427W        W31098   9.156  20.530   3.768
59428W        W31099  10.220  20.978   3.179
59429W        W31100   1.985  23.592  14.944
59430W        W31101   0.290  27.031   3.382
59431W        W31102  25.089  35.928   2.353
59432W        W31103  26.152  31.204   2.187
59433W        W31104   1.437  43.202  10.390
59434W        W31105   3.628  42.720  11.065
59435W        W31106  20.926  40.234   3.841
59436W        W31107   2.849  26.640  13.898
59437W        W31108  31.381   4.384  13.580
59438W        W31109  32.284  19.245   3.341
59439W        W31110  37.110   3.788   3.450
59440W        W31111  38.849  19.293  13.424
59441W        W31112  18.722  35.110   2.104
59442W        W31113   8.659  40.328  13.360
59443W        W31114  43.864  18.209   3.718
59444W        W31115  43.481  38.862   3.347
59445W        W31116   4.866   3.639  11.283
59446W        W31117  32.486  36.935   4.153
59447W        W31118   8.697  43.493   2.966
59448W        W31119  12.637  13.239  12.320
59449W        W31120  17.088   4.081   2.465
59450W        W31121  18.106  42.404   0.258
59451W        W31122  34.251  38.603  10.263
59452W        W31123  21.110  38.339  12.544
59453W        W31124  14.827  14.225   0.006
59454W        W31125  21.362   0.959   3.253
59455W        W31126  14.161   7.707   0.779
59456W        W31127  39.277  34.006  11.183
59457W        W31128  30.917  33.441  12.121
59458W        W31129  27.981  25.223  10.717
59459W        W31130  31.355   9.217  13.278
59460W        W31131  22.608  27.869  10.988
59461W        W31132  26.139  11.896   0.027
59462W        W31133  31.030  21.703  10.566
59463W        W31134  26.099   9.689  11.507
59464W        W31135  26.545   8.055  12.814
59465W        W31136  34.046  10.135   3.724
59466W        W31137   2.356   7.817  13.331
59467W        W31138  18.191  40.535  10.478
59468W        W31139  24.960  40.591  13.402
59469W        W31140  28.591  14.103   1.037
59470W        W31141  16.790   8.788  11.444
59471W        W31142  13.674  16.237   3.553
59472W        W31143  25.552  37.952   2.891
59473W        W31144  26.846  39.435  13.877
59474W        W31145  28.246  33.479   0.306
59475W        W31146  34.000  43.862   0.778
59476W        W31147  13.853  12.108   1.821
59477W        W31148  36.975  29.488   4.659
59478W        W31149  22.443  32.718   4.403
59479W        W31150   0.906  35.690  11.611
59480W        W31151  37.526   1.234   4.409
59481W        W31152  35.984  34.915  11.518
59482W        W31153   3.675  20.620   0.316
59483W        W31154   0.221  20.028   4.153
59484W        W31155  26.554   6.931   0.396
59485W        W31156  14.036  16.029   3.860
59486W        W31157  22.574  30.417  13.753
59487W        W31158  30.649  39.039  14.906
59488W        W31159  41.923  10.217  10.172
59489W        W31160  31.015  37.083  13.783
59490W        W31161  20.838  13.215   0.628
59491W        W31162  15.127  38.233   3.507
59492W        W31163  24.797  10.061   4.240
59493W        W31164  37.092  41.167   4.514
59494W        W31165  26.195  32.007  12.712
59495W        W31166  12.097  38.443   0.432
59496W        W31167  21.685  38.430  10.115
59497W        W31168  23.627  42.824  10.698
59498W        W31169  36.354   4.284  12.446
59499W        W31170  26.233  12.695  10.676
59500W        W31171  34.423   2.293   3.359
59501W        W31172  31.408   4.655  12.029
59502W        W31173   4.365  13.786  10.666
59503W        W31174  38.770  13.742  12.937
59504W        W31175  14.410   5.453   1.943
59505W        W31176   5.356  40.817   2.625
59506W        W31177  21.228  17.511   3.327
59507W        W31178  31.153  17.222   3.679
59508W        W31179   5.141  28.569  10.736
59509W        W31180   2.137  27.181  12.232
59510W        W31181  34.819  24.279   4.114
59511W        W31182   6.672  35.557   0.717
59512W        W31183  44.870  38.412  14.815
59513W        W31184  17.223   1.911  11.114
59514W        W31185  29.223  20.804   4.251
59515W        W31186   7.275  37.095   0.800
59516W        W31187  23.494  10.398   0.813
59517W        W31188  42.860   3.960   2.167
59518W        W31189  11.930  27.888   5.050
59519W        W31190   1.929  30.158  13.835
59520W        W31191  33.989   1.909   3.694
59521W        W31192  15.251  14.162   4.553
59522W        W31193  21.328  14.652   0.686
59523W        W31194   4.304  21.316   3.917
59524W        W31195  12.652  19.095  12.994
59525W        W31196  24.233  23.189   1.315
59526W        W31197  33.629  37.521  10.582
59527W        W31198  41.980  27.668  14.945
59528W        W31199  25.557  39.102   4.237
59529W        W31200  40.526  15.799  12.041
59530W        W31201  32.678  10.189  13.852
59531W        W31202  38.625  26.601  10.147
59532W        W31203  37.360  29.854  10.679
59533W        W31204   8.084   1.322   3.909
59534W        W31205  35.520  30.851   3.209
59535W        W31206  35.422  32.653  14.720
59536W        W31207   6.741  12.431   0.305
59537W        W31208  16.293  29.228  12.529
59538W        W31209  21.205   3.383  11.504
59539W        W31210  32.007  25.372   5.232
59540W        W31211   9.265  42.420  12.684
59541W        W31212  41.624   2.238  13.039
59542W        W31213  42.339  27.274   2.694
59543W        W31214  25.750  31.089   0.271
59544W        W31215  30.716  30.131   3.848
59545W        W31216  36.151  27.377  12.109
59546W        W31217   3.440   8.412  10.696
59547W        W31218  28.643   9.914   3.302
59548W        W31219  21.958  32.423   3.381
59549W        W31220   5.829  24.983  13.140
59550W        W31221  43.445  21.940   2.096
59551W        W31222  18.514   2.648   1.840
59552W        W31223   8.010  42.954   3.644
59553W        W31224  43.478  21.217   2.693
59554W        W31225  40.785  38.296   4.163
59555W        W31226  13.665  43.927   4.777
59556W        W31227  18.718  44.116  13.750
59557W        W31228  33.287   6.348   5.114
59558W        W31229  15.753  37.092  13.030
59559W        W31230  12.026  25.166   3.256
59560W        W31231   8.067  25.179   4.977
59561W        W31232  33.452   0.948   2.968
59562W        W31233  19.395   4.116  11.529
59563W        W31234  14.847  36.470   1.513
59564W        W31235  37.680  34.043   0.485
59565W        W31236  34.705   3.817   3.286
59566W        W31237  24.107  16.531   1.409
59567W        W31238   5.454   2.931  13.070
59568W        W31239  29.608  12.107   3.581
59569W        W31240   2.330   8.283   4.825
59570W        W31241  20.944  13.647   3.627
59571W        W31242  19.924  14.748   9.424
59572W        W31243  35.480  22.161   4.553
59573W        W31244   8.277  13.061   0.255
59574W        W31245  36.373   9.807  12.851
59575W        W31246  32.912  20.529   2.551
59576W        W31247  12.624  21.561  12.513
59577W        W31248   2.252  22.203  10.190
59578W        W31249   3.763   9.890  14.434
59579W        W31250  42.468  38.997  11.746
59580W        W31251  25.243   0.515   2.729
59581W        W31252  18.871  42.783   2.388
59582W        W31253  44.670  33.122   0.268
59583W        W31254  18.082  24.265  14.931
59584W        W31255  30.374  24.256  13.350
59585W        W31256   9.994  36.109  12.969
59586W        W31257  31.182  11.221  12.557
59587W        W31258   4.724  43.844  14.072
59588W        W31259  26.781   0.126  10.740
59589W        W31260  31.873  18.817   0.280
59590W        W31261  41.240  25.489  12.504
59591W        W31262  14.714  37.082   1.917
59592W        W31263  31.335  25.656  11.408
59593W        W31264  26.747  30.042  11.073
59594W        W31265  34.857  19.174  13.387
59595W        W31266  42.383  35.054  10.674
59596W        W31267  11.754  42.135   0.780
59597W        W31268  24.895  25.585  13.816
59598W        W31269   7.150  39.047  14.454
59599W        W31270  39.809  25.661  11.149
59600W        W31271  15.543  42.971  13.320
59601W        W31272  13.748  43.661  13.961
59602W        W31273   9.176  33.382  12.878
59603W        W31274   4.457  15.234   1.023
59604W        W31275  38.516  36.403   3.615
59605W        W31276  24.103  38.678  10.215
59606W        W31277  40.405  17.244   1.778
59607W        W31278  29.645  29.685   0.770
59608W        W31279  12.668  32.662  11.438
59609W        W31280  13.258  10.284  12.553
59610W        W31281  17.331  27.611   2.190
59611W        W31282  13.369  10.729   2.168
59612W        W31283  16.780  26.854  10.631
59613W        W31284   4.295  16.658  11.243
59614W        W31285  14.782  41.395  12.491
59615W        W31286  19.578   6.742  14.976
59616W        W31287  11.679  35.055   1.326
59617W        W31288  20.903  21.948  13.654
59618W        W31289  32.958  27.439  14.513
59619W        W31290  28.551   6.359  10.182
59620W        W31291  31.685  20.379  14.410
59621W        W31292  24.501  31.907  13.469
59622W        W31293  11.301  10.248   3.803
59623W        W31294  11.031  44.793  12.407
59624W        W31295  11.561  41.989   2.297
59625W        W31296  21.064  23.561   9.809
59626W        W31297  21.775  14.707  10.526
59627W        W31298  26.732   9.832   2.277
59628W        W31299  35.400  26.063   1.403
59629W        W31300  26.476  26.976   0.089
59630W        W31301  44.352  18.224  11.532
59631W        W31302  25.743  30.071  11.124
59632W        W31303  14.625  15.152  12.951
59633W        W31304  33.128  40.339  10.699
59634W        W31305   6.516  37.525  10.772
59635W        W31306   1.767  43.222   4.674
59636W        W31307   5.779  23.978  14.423
59637W        W31308  25.406  15.530   4.275
59638W        W31309  35.762  18.335  14.352
59639W        W31310  32.940  18.688   2.376
59640W        W31311   6.864  23.210   3.247
59641W        W31312  25.649  22.607  11.634
59642W        W31313   9.397   4.819  14.463
59643W        W31314  28.105   8.938   0.853
59644W        W31315  16.805  24.041  12.043
59645W        W31316  11.158   4.792  14.236
59646W        W31317   1.182   3.167  10.788
59647W        W31318  37.093  28.058   4.679
59648W        W31319  44.057  23.027  14.026
59649W        W31320   5.915  24.968   3.342
59650W        W31321  41.968  16.574   2.401
59651W        W31322  15.149   9.363  11.177
59652W        W31323  15.162  16.284   0.236
59653W        W31324  19.493  13.741   0.477
59654W        W31325   8.369  23.612   1.442
59655W        W31326  39.032  42.246   3.871
59656W        W31327   5.330  25.893  14.909
59657W        W31328  13.715  26.622   3.731
59658W        W31329  26.692   9.963  13.816
59659W        W31330  13.743   3.802  12.236
59660W        W31331  36.566  36.093  13.420
59661W        W31332  37.606   6.412  14.037
59662W        W31333   6.771   2.759  12.509
59663W        W31334  41.064  21.724  10.575
59664W        W31335  25.144  35.432  10.580
59665W        W31336   4.024   3.243   2.829
59666W        W31337   8.951  39.421  12.916
59667W        W31338  37.064  29.393  10.695
59668W        W31339  31.499  22.551  10.686
59669W        W31340   2.666  39.431  11.129
59670W        W31341  28.616  33.124  13.275
59671W        W31342  23.715  35.323   0.815
59672W        W31343   0.688  39.116  12.699
59673W        W31344   8.844  11.155   3.699
59674W        W31345  44.489   4.643   4.174
59675W        W31346   1.564  20.497  11.394
59676W        W31347   6.227   8.537  11.366
59677W        W31348  31.876  16.639   1.783
59678W        W31349  40.978   9.721   2.875
59679W        W31350   6.608  29.141   1.485
59680W        W31351  16.147   5.482   3.035
59681W        W31352  33.625  43.737  10.860
59682W        W31353  34.086  17.353  14.212
59683W        W31354  18.588  39.480   0.631
59684W        W31355  43.424  14.122   3.080
59685W        W31356  14.962  39.037   3.785
59686W        W31357  19.098  26.457   5.073
59687W        W31358  23.763  29.095   1.837
59688W        W31359  15.576  37.348  11.120
59689W        W31360  40.876  39.956  11.209
59690W        W31361   6.220   5.934   0.836
59691W        W31362  19.210  44.026  12.650
59692W        W31363  14.117  34.522   3.906
59693W        W31364   9.782   0.665  13.444
59694W        W31365  36.902  14.806  14.910
59695W        W31366  32.454  37.851  14.307
59696W        W31367  36.484  32.861  12.397
59697W        W31368   8.831  23.503   3.846
59698W        W31369  44.348  13.322  12.966
59699W        W31370  11.305  13.291   3.256
59700W        W31371  40.450  21.045  14.605
59701W        W31372  13.768  27.965   1.391
59702W        W31373  28.608  19.800  14.468
59703W        W31374  15.612   5.653   4.679
59704W        W31375  23.026  26.969  12.993
59705W        W31376   0.554   5.339   4.628
59706W        W31377  40.924  41.521   3.120
59707W        W31378  10.638  37.338  11.552
59708W        W31379  16.103  26.451  14.410
59709W        W31380  39.659  44.450   3.210
59710W        W31381  35.609  31.528   2.756
59711W        W31382   2.256  19.403   0.368
59712W        W31383  17.810  20.454  14.347
59713W        W31384  25.940   4.991   4.878
59714W        W31385   0.164   2.102   4.607
59715W        W31386  34.481  31.871   3.206
59716W        W31387   1.612  24.916  14.402
59717W        W31388  22.205  24.346  11.469
59718W        W31389  33.591   4.236   2.984
59719W        W31390  44.814  12.170   3.344
59720W        W31391  29.623  11.619  11.556
59721W        W31392   6.475   3.992   1.467
59722W        W31393  17.986  36.009  11.577
59723W        W31394  17.877  42.858   0.353
59724W        W31395   3.281  37.381   4.036
59725W        W31396  38.406  41.053  11.945
59726W        W31397  22.490   6.628   4.800
59727W        W31398  33.951  37.709   5.301
59728W        W31399  23.576  31.503  13.110
59729W        W31400  11.399  27.408  14.016
59730W        W31401  13.657  13.593  12.494
59731W        W31402  16.248  22.032  11.666
59732W        W31403  42.791  44.833   2.446
59733W        W31404   8.708   3.138   3.642
59734W        W31405  16.568  32.576   4.706
59735W        W31406  23.047  34.666   0.799
59736W        W31407  22.072  11.310   3.280
59737W        W31408   5.506  40.943   4.554
59738W        W31409  44.420  30.919   2.871
59739W        W31410  41.116  10.475   4.019
59740W        W31411  34.027   5.701   3.300
59741W        W31412  28.652  20.724   2.973
59742W        W31413  24.965  41.865   3.352
59743W        W31414  26.416  30.434  10.914
59744W        W31415  34.232   3.753   2.898
59745W        W31416  28.972  18.406   2.738
59746W        W31417  16.357  13.813  11.540
59747W        W31418  19.622  23.775   0.170
59748W        W31419   7.150  34.105   3.680
59749W        W31420  20.835  13.798  12.640
59750W        W31421  38.824  26.640   4.297
59751W        W31422   2.397  35.941   1.862
59752W        W31423   1.251   1.393   3.250
59753W        W31424   1.891  10.323  11.197
59754W        W31425  19.531   4.816  11.830
59755W        W31426   7.664  12.125   1.671
59756W        W31427  30.367   9.254  10.597
59757W        W31428   8.688  35.505   4.408
59758W        W31429  17.794  18.076   1.692
59759W        W31430  15.562  40.759  10.716
59760W        W31431  27.645   6.666   5.023
59761W        W31432  32.108   3.242   3.645
59762W        W31433   3.811  24.045  12.951
59763W        W31434  40.381   3.418  11.923
59764W        W31435   8.312  35.805   0.494
59765W        W31436  25.968   9.421  11.097
59766W        W31437  33.467  33.717   2.342
59767W        W31438  21.741  34.351   4.181
59768W        W31439  37.020  35.144   1.319
59769W        W31440   4.817  32.148   1.718
59770W        W31441  12.919   6.428   3.278
59771W        W31442  43.280   4.204   2.400
59772W        W31443  27.921  27.915  12.346
59773W        W31444  43.113   0.465   0.759
59774W        W31445  39.252  19.743   4.095
59775W        W31446  34.400  40.886  12.049
59776W        W31447  27.701  13.621  13.882
59777W        W31448  10.140   2.005  13.020
59778W        W31449  28.045  10.981  12.401
59779W        W31450  11.494  17.323  11.080
59780W        W31451  43.288  37.001   4.598
59781W        W31452  24.483   9.525   2.666
59782W        W31453   1.715  15.570  11.660
59783W        W31454  19.598  34.528   4.928
59784W        W31455  19.806  42.805   2.660
59785W        W31456   1.832  16.272   4.620
59786W        W31457  30.205  14.227   1.666
59787W        W31458  28.477  19.633  13.837
59788W        W31459  34.479  42.880  12.143
59789W        W31460   0.770  34.081  11.718
59790W        W31461  33.976  19.768   3.648
59791W        W31462  20.969  40.394  12.477
59792W        W31463  39.706   7.803   4.635
59793W        W31464  10.981   0.338   2.211
59794W        W31465   3.954  38.144   3.610
59795W        W31466  23.643  35.936  14.813
59796W        W31467  13.652  14.625  12.254
59797W        W31468  24.151  14.231   2.723
59798W        W31469   2.487  13.311   0.967
59799W        W31470   7.647  22.331   4.130
59800W        W31471  24.962  32.411  13.927
59801W        W31472  25.326   4.421  12.750
59802W        W31473  34.791  14.777  12.378
59803W        W31474  31.884  12.667  10.601
59804W        W31475  20.514  43.450  13.402
59805W        W31476  21.765  40.493  13.246
59806W        W31477   9.408  30.240   2.228
59807W        W31478  34.556   3.326   4.117
59808W        W31479  24.526   5.351   2.269
59809W        W31480  12.184   7.125  11.059
59810W        W31481  12.740  44.626  14.591
59811W        W31482  10.149  31.860   3.034
59812W        W31483  38.064  36.597   3.420
59813W        W31484  38.406  18.011  14.452
59814W        W31485  35.879  35.046   4.007
59815W        W31486  25.724   8.954  13.334
59816W        W31487  12.399  43.246  13.001
59817W        W31488  30.137  28.741   2.262
59818W        W31489  40.614  12.489  11.942
59819W        W31490  26.458   9.087   5.429
59820W        W31491  42.365  35.862  12.395
59821W        W31492  22.263  30.497   1.268
59822W        W31493   5.319  29.051  12.982
59823W        W31494  10.837  17.063   4.114
59824W        W31495  10.936   0.244   1.439
59825W        W31496  16.319  10.339   3.231
59826W        W31497   2.751   2.886   4.493
59827W        W31498  44.265  11.385   4.559
59828W        W31499   2.446  24.382   2.406
59829W        W31500  29.658  36.576   1.074
59830W        W31501  40.779   6.327   2.318
59831W        W31502  24.774  13.681  14.480
59832W        W31503  17.142  21.793  12.956
59833W        W31504  35.840   1.946  11.212
59834W        W31505  39.642  31.627   4.171
59835W        W31506  15.868  21.278   2.592
59836W        W31507  34.395  24.033   1.283
59837W        W31508  33.664  39.636  12.605
59838W        W31509  22.607   2.914  14.289
59839W        W31510   2.166   7.435   0.790
59840W        W31511  13.544  42.266   0.333
59841W        W31512  42.081  19.126  11.120
59842W        W31513   4.652  21.050  10.461
59843W        W31514  36.985  22.877   0.792
59844W        W31515  24.111  16.741   0.908
59845W        W31516  11.153  16.593  11.080
59846W        W31517  39.193  39.736   2.106
59847W        W31518  19.699   3.936   2.269
59848W        W31519  25.799  17.987   0.437
59849W        W31520  37.612  23.046   2.736
59850W        W31521  42.263  38.948  13.848
59851W        W31522  19.633  19.625  12.049
59852W        W31523  18.336  42.461  10.788
59853W        W31524  17.256  18.160   0.731
59854W        W31525  28.462  10.843   4.437
59855W        W31526   3.644  16.177   3.334
59856W        W31527   4.128   4.199   1.374
59857W        W31528  10.860  17.667   3.398
59858W        W31529  31.616   0.483  14.291
59859W        W31530   2.568   4.967  14.791
59860W        W31531   8.080  38.871  14.369
59861W        W31532  19.088  39.801  14.257
59862W        W31533   5.817   0.459   1.872
59863W        W31534  39.400  22.576  13.835
59864W        W31535  40.303  22.258   1.359
59865W        W31536  30.444  44.197  13.077
59866W        W31537  33.633  42.517   2.776
59867W        W31538  26.480  30.382  11.423
59868W        W31539   2.879   1.714  12.251
59869W        W31540   9.220  18.694   2.663
59870W        W31541  20.931   1.409  11.661
59871W        W31542   9.574   6.937  11.808
59872W        W31543  20.699  37.297   1.450
59873W        W31544  25.995  20.446  12.262
59874W        W31545   7.721  24.873  13.130
59875W        W31546  30.547  34.522  13.370
59876W        W31547  35.628  39.982   3.086
59877W        W31548  42.112  21.319   2.669
59878W        W31549  36.974  28.290   1.459
59879W        W31550  26.693  35.557   2.328
59880W        W31551  17.874  21.061   1.343
59881W        W31552  29.524  39.429   1.259
59882W        W31553  38.654  15.742   3.120
59883W        W31554   3.731  28.955   1.436
59884W        W31555  41.892   3.115  12.411
59885W        W31556  40.898  11.842   3.876
59886W        W31557  37.408  15.265   1.667
59887W        W31558   9.868  15.091  14.450
59888W        W31559   9.798  12.257  11.553
59889W        W31560  13.642  44.377  14.746
59890W        W31561  19.960  21.151  13.323
59891W        W31562  43.030  17.787   0.760
59892W        W31563  16.787  38.134  11.598
59893W        W31564   5.444  42.076  11.568
59894W        W31565  20.225  23.525   4.706
59895W        W31566   7.713  25.874   1.486
59896W        W31567  23.686  33.582   2.667
59897W        W31568  13.620  15.407   1.356
59898W        W31569  27.491  27.505   0.045
59899W        W31570  44.814  22.492   2.272
59900W        W31571  29.255  13.781   4.288
59901W        W31572  29.611  24.765   3.617
59902W        W31573  16.327  18.208   4.605
59903W        W31574  42.476  33.881  12.046
59904W        W31575  21.830  10.366  14.900
59905W        W31576  32.519  31.056  14.297
59906W        W31577   9.889  23.540  12.346
59907W        W31578  23.180  21.119   0.272
59908W        W31579   2.236  17.589   0.416
59909W        W31580  29.678  44.949   2.463
59910W        W31581  38.716  29.927  12.461
59911W        W31582  25.132   6.434   3.188
59912W        W31583  14.290  37.986  13.331
59913W        W31584  21.459  32.548  12.437
59914W        W31585  38.910   0.248   3.863
59915W        W31586  19.288  36.957   4.572
59916W        W31587  40.022  13.720   4.378
59917W        W31588  39.752   7.862  14.526
59918W        W31589  28.233  37.508  14.643
59919W        W31590  43.348  18.936   0.206
59920W        W31591  37.019  33.414   0.060
59921W        W31592  44.039  13.805   5.231
59922W        W31593  32.617  22.321   3.347
59923W        W31594  23.460  11.871   0.914
59924W        W31595  25.744  23.479  11.670
59925W        W31596  41.196  18.519   5.299
59926W        W31597  18.000  29.656  11.112
59927W        W31598  44.481  15.688   1.506
59928W        W31599  35.004  19.051   4.572
59929W        W31600  29.093   9.208   1.033
59930W        W31601  17.895  43.837   3.766
59931W        W31602   2.709   3.450  12.546
59932W        W31603  12.205  23.099   1.714
59933W        W31604   5.851  40.518  12.871
59934W        W31605  38.211   6.675   4.349
59935W        W31606  14.041  17.301   4.501
59936W        W31607   4.762   1.180  12.575
59937W        W31608  41.563  28.484   4.318
59938W        W31609  31.577  16.041  11.163
59939W        W31610   4.061  41.566   0.740
59940W        W31611  34.936  44.987  13.359
59941W        W31612   1.990  33.643  14.010
59942W        W31613  27.032   7.586   5.060
59943W        W31614  23.682  27.632  13.139
59944W        W31615  18.656  28.670  13.505
59945W        W31616   8.682   6.311  14.382
59946W        W31617  28.760  29.143   4.207
59947W        W31618  21.741  22.273   2.973
59948W        W31619  43.916   7.213  11.896
59949W        W31620  26.631   7.924  14.270
59950W        W31621  12.090  35.905   0.869
59951W        W31622  37.822  29.973  14.746
59952W        W31623   7.170  12.297  12.299
59953W        W31624  27.399   7.310   5.320
59954W        W31625  33.850  14.877  13.024
59955W        W31626  35.933   0.465  12.973
59956W        W31627  44.669   8.473   3.273
59957W        W31628  27.469  34.464   2.694
59958W        W31629  38.041  39.178  10.809
59959W        W31630   8.888  13.249  12.232
59960W        W31631  43.781  23.521  13.425
59961W        W31632  28.952  29.897   2.267
59962W        W31633   5.845  10.950   4.084
59963W        W31634  39.458  33.313  14.292
59964W        W31635  29.617  11.148  13.909
59965W        W31636  27.768  32.513  10.449
59966W        W31637  23.023  32.388  11.921
59967W        W31638  41.430  12.460   3.375
59968W        W31639  16.023  18.166   0.272
59969W        W31640  37.793  28.855  12.570
59970W        W31641  27.701  27.651  11.580
59971W        W31642  29.937  33.327  13.331
59972W        W31643   1.321   3.179  11.904
59973W        W31644  38.545  28.892  11.967
59974W        W31645  14.241   3.050   4.093
59975W        W31646  36.098  28.986  10.956
59976W        W31647   3.825  24.798  12.025
59977W        W31648  39.185  18.046   0.811
59978W        W31649   0.221  22.176  11.622
59979W        W31650  11.395  40.415   1.369
59980W        W31651  38.011  40.370  12.351
59981W        W31652  14.155  25.060  12.948
59982W        W31653  29.028  10.738   1.856
59983W        W31654  41.638   4.219  13.778
59984W        W31655  37.911  33.605   2.150
59985W        W31656   0.987   2.350  11.960
59986W        W31657  12.202  28.379  13.260
59987W        W31658  42.316  14.129   5.395
59988W        W31659  25.474   4.980   3.825
59989W        W31660  23.093  28.152   3.616
59990W        W31661  10.231  32.344  10.082
59991W        W31662  38.824   0.926  13.208
59992W        W31663  16.086   8.399   0.950
59993W        W31664  27.539  26.673   1.384
59994W        W31665  41.219  27.644   4.219
59995W        W31666   6.276  14.799  14.532
59996W        W31667   6.297  14.311   2.170
59997W        W31668   3.059  29.734   1.202
59998W        W31669  20.176  29.862   2.241
59999W        W31670  27.867  37.983  14.467
60000W        W31671  17.519  17.192   4.795
60001W        W31672  35.331  22.836   3.354
60002W        W31673  43.368  40.725  13.806
60003W        W31674  20.449  14.094  12.455
60004W        W31675  37.530   5.835  11.983
60005W        W31676   8.802  14.755   1.327
60006W        W31677   1.669  37.639  13.857
60007W        W31678  41.612  34.107   4.599
60008W        W31679  22.271  23.270  11.092
60009W        W31680   0.302  10.023  10.441
60010W        W31681   3.206  20.307   2.939
60011W        W31682  12.755  29.076   1.393
60012W        W31683   9.819  32.859   4.571
60013W        W31684  37.406  19.829  12.957
60014W        W31685  39.068   0.893   0.501
60015W        W31686  15.096  34.429   4.443
60016W        W31687   0.303  11.941  13.425
60017W        W31688   8.201  15.648   1.875
60018W        W31689  17.039  25.488   2.259
60019W        W31690   3.414  41.749   3.086
60020W        W31691  14.566  12.133  14.391
60021W        W31692  26.736  17.108   4.449
60022W        W31693   3.979  30.006  14.801
60023W        W31694  18.223   8.953   1.372
60024W        W31695   4.362  37.266   3.799
60025W        W31696  42.272  35.481   4.283
60026W        W31697  26.387   5.372  11.510
60027W        W31698   6.690  37.821   4.524
60028W        W31699  23.457  15.334  14.066
60029W        W31700  42.934  41.482  11.139
60030W        W31701  29.949   0.474  12.087
60031W        W31702  10.489  26.014   2.089
60032W        W31703  19.083  16.580  12.947
60033W        W31704  41.117   2.701   4.166
60034W        W31705  18.684  41.814   1.437
60035W        W31706  41.582  29.140   3.238
60036W        W31707   0.833  14.763  10.946
60037W        W31708  21.613  40.722   2.968
60038W        W31709  16.861  30.548  12.948
60039W        W31710  40.807  41.705  11.192
60040W        W31711   7.056  35.472  11.553
60041W        W31712  34.912  36.413   2.169
60042W        W31713  36.201   1.647  10.405
60043W        W31714  29.890  35.016  11.324
60044W        W31715  16.213  43.445  13.092
60045W        W31716  16.318  41.962   4.670
60046W        W31717  13.725  44.702   0.501
60047W        W31718  13.413  35.563  12.950
60048W        W31719  33.869  19.211   3.100
60049W        W31720  26.174  36.038   1.811
60050W        W31721  18.110  26.606   4.101
60051W        W31722  32.076   0.633   4.163
60052W        W31723  43.478  39.964   2.727
60053W        W31724  19.144  10.674  11.102
60054W        W31725  32.489  43.504  13.345
60055W        W31726  33.426  24.252  12.852
60056W        W31727  34.415  42.295  10.894
60057W        W31728   6.250  22.307  14.770
60058W        W31729  34.490  34.950   2.698
60059W        W31730  33.532  44.246   1.692
60060W        W31731  14.316   1.796   3.762
60061W        W31732  23.977  23.148   2.253
60062W        W31733  31.100   5.394  11.178
60063W        W31734   2.419   6.656   0.373
60064W        W31735  31.118   4.102   4.535
60065W        W31736  23.328  15.579   1.855
60066W        W31737  13.641   6.852   2.748
60067W        W31738   9.795  25.129  13.802
60068W        W31739  40.929   9.844   0.564
60069W        W31740  38.793   1.466  13.618
60070W        W31741   9.132  34.379   5.282
60071W        W31742  18.243   0.181   3.773
60072W        W31743  20.539   6.665   0.245
60073W        W31744  33.315   0.481  11.206
60074W        W31745  12.362   4.836  13.986
60075W        W31746  21.280  26.297   3.539
60076W        W31747   0.229  23.541  11.386
60077W        W31748  40.569  25.081   1.180
60078W        W31749  22.613   7.678   0.453
60079W        W31750  18.334  14.060   0.348
60080W        W31751  44.400  26.645   1.273
60081W        W31752   0.979  42.455  11.091
60082W        W31753  35.920  20.721  10.693
60083W        W31754  36.287  24.775  11.557
60084W        W31755   4.472  25.955   3.607
60085W        W31756  39.609  27.681  14.863
60086W        W31757   0.082  20.973  14.099
60087W        W31758  33.068   1.610  14.336
60088W        W31759  40.288  38.664   1.257
60089W        W31760  12.415  34.538  14.003
60090W        W31761  34.616  32.281   4.131
60091W        W31762  32.404  35.649   2.321
60092W        W31763  14.745  24.706   0.170
60093W        W31764  26.601  37.575   1.251
60094W        W31765  37.380  29.128   3.212
60095W        W31766   3.194  13.101   4.237
60096W        W31767  16.081  13.952  14.391
60097W        W31768  41.251  40.072   1.675
60098W        W31769  20.079  22.647  14.405
60099W        W31770  33.724   7.554  12.069
60100W        W31771  15.934   4.418  13.373
60101W        W31772  23.692   9.006  14.093
60102W        W31773  33.532  13.636  14.059
60103W        W31774  37.930  35.415   2.547
60104W        W31775  21.161  37.546   2.352
60105W        W31776   8.149  28.056   0.703
60106W        W31777   7.394  34.944   1.190
60107W        W31778  33.492  11.738  13.858
60108W        W31779  29.011  28.467  13.882
60109W        W31780  17.638  36.036  13.762
60110W        W31781  13.125  17.043   1.706
60111W        W31782   9.091   5.714   1.970
60112W        W31783   0.822  28.639   0.878
60113W        W31784  34.845  26.636  10.698
60114W        W31785  10.807   8.467  10.712
60115W        W31786  40.384  29.512   0.032
60116W        W31787  19.247  23.214   4.875
60117W        W31788  14.196   9.898   4.455
60118W        W31789  18.889  20.485  11.047
60119W        W31790  43.242  39.875   1.360
60120W        W31791   2.745   4.739   3.019
60121W        W31792  10.237  27.613   2.822
60122W        W31793  12.009  20.665  14.012
60123W        W31794  23.525   4.434  14.414
60124W        W31795  15.561   8.450   4.926
60125W        W31796  29.359  19.598   3.322
60126W        W31797  41.851  23.177  13.002
60127W        W31798  21.545  18.696  14.274
60128W        W31799  39.628   2.175  14.965
60129W        W31800  43.368   0.372   2.094
60130W        W31801   6.184   6.828   0.015
60131W        W31802  16.288  23.649   4.550
60132W        W31803  41.707   5.686   3.529
60133W        W31804  18.158  36.870   1.348
60134W        W31805   4.688  28.456  13.381
60135W        W31806  21.279  14.681  14.740
60136W        W31807  10.771   8.590  12.043
60137W        W31808  26.009  18.998   3.219
60138W        W31809  29.072  38.859  14.116
60139W        W31810  41.361  39.500   3.759
60140W        W31811  31.835   0.553   3.717
60141W        W31812  39.606  24.257   1.194
60142W        W31813   0.569  36.027   2.875
60143W        W31814   9.389   1.668   3.672
60144W        W31815   3.329   5.173  10.674
60145W        W31816   4.131  31.531  13.553
60146W        W31817  36.913  23.653   1.005
60147W        W31818  44.060  22.654   5.016
60148W        W31819   5.859  32.359  13.901
60149W        W31820   7.767   9.407  13.261
60150W        W31821  23.534  17.636  12.942
60151W        W31822  24.105  26.617  10.288
60152W        W31823  28.157  33.176   4.011
60153W        W31824  16.889  26.615   0.911
60154W        W31825   1.938  41.872   2.915
60155W        W31826  28.462  31.838  11.148
60156W        W31827  12.642   9.267   0.200
60157W        W31828   7.692   1.241   3.507
60158W        W31829  28.038  19.776   1.229
60159W        W31830  10.773   1.149  10.605
60160W        W31831  11.318   7.302  14.939
60161W        W31832   1.798  34.144  11.040
60162W        W31833  20.246   9.897   2.219
60163W        W31834  14.302  11.794   4.658
60164W        W31835  22.913  21.370   2.323
60165W        W31836  35.929  32.128   4.160
60166W        W31837   9.882  37.265   2.139
60167W        W31838  18.515  21.141  14.964
60168W        W31839  17.627   8.436   0.031
60169W        W31840  39.448   5.734   1.620
60170W        W31841  18.135  16.273   4.073
60171W        W31842  30.175  30.889   4.661
60172W        W31843   5.532  26.637  13.494
60173W        W31844  43.339   7.346   4.724
60174W        W31845  22.551  43.011   4.455
60175W        W31846  43.426  28.481  12.197
60176W        W31847  43.341   8.138  13.492
60177W        W31848  19.664  26.665   1.756
60178W        W31849  37.069   2.818  14.018
60179W        W31850  27.225  13.132  12.467
60180W        W31851  43.129  38.265   3.695
60181W        W31852  34.018   6.844   2.397
60182W        W31853  42.544  10.259  14.754
60183W        W31854   9.266  17.247   3.776
60184W        W31855  34.285  36.537   4.473
60185W        W31856   0.028  29.191   3.361
60186W        W31857  39.523  10.685  14.329
60187W        W31858  18.693  34.997   0.206
60188W        W31859  41.675  11.456   3.348
60189W        W31860   4.771  40.522   2.730
60190W        W31861  41.920   2.835   0.225
60191W        W31862  44.318  43.777  13.307
60192W        W31863  15.575  30.024  14.874
60193W        W31864  41.229   8.714  13.783
60194W        W31865  23.718   3.251   1.843
60195W        W31866  36.421  41.798   4.675
60196W        W31867   0.842  30.604  11.207
60197W        W31868  33.413  29.682  11.631
60198W        W31869  42.168  27.508   4.116
60199W        W31870   9.920  44.939  12.438
60200W        W31871  36.794  39.509  11.870
60201W        W31872  41.944  35.589  14.105
60202W        W31873  28.740   1.540   2.475
60203W        W31874  22.658  29.737  14.377
60204W        W31875  19.492  24.010   4.564
60205W        W31876  24.645  32.201   4.227
60206W        W31877   7.846  11.146  11.842
60207W        W31878  43.553   2.031   2.721
60208W        W31879  33.373  32.909  12.705
60209W        W31880  22.538  20.989  12.068
60210W        W31881  38.633   6.975  11.578
60211W        W31882  31.620  37.764   1.336
60212W        W31883   4.606   1.158   2.896
60213W        W31884  20.273   3.375  10.736
60214W        W31885  16.070  42.828  14.850
60215W        W31886   6.138   2.354  11.320
60216W        W31887  39.032  40.934  13.913
60217W        W31888  17.688  16.796  10.708
60218W        W31889  19.288  13.148   0.425
60219W        W31890  19.720  27.012   2.943
60220W        W31891  14.800   6.304  10.372
60221W        W31892   0.164  12.802   5.032
60222W        W31893  21.816   7.655   4.599
60223W        W31894  29.926  31.859   3.802
60224W        W31895  44.377  43.748   1.337
60225W        W31896  43.189  32.320  11.926
60226W        W31897  24.572  22.261   3.215
60227W        W31898   5.253   1.937  14.533
60228W        W31899   2.239  24.134   1.692
60229W        W31900  40.194  13.857   1.727
60230W        W31901   1.721  14.837  11.130
60231W        W31902  37.492  13.056  12.010
60232W        W31903   6.786  22.848   0.304
60233W        W31904  42.422  29.411  11.973
60234W        W31905  36.735  18.146  12.493
60235W        W31906  34.035  29.910  13.396
60236W        W31907   8.380  19.726  10.311
60237W        W31908  33.221  29.229  12.508
60238W        W31909  31.063  33.388   4.201
60239W        W31910   8.730  25.723   2.382
60240W        W31911   3.869  32.639   1.428
60241W        W31912  28.716  11.618   1.157
60242W        W31913  16.146  40.948   1.841
60243W        W31914  32.410   6.576   3.832
60244W        W31915  16.567   8.616  11.022
60245W        W31916   2.319  16.814  13.850
60246W        W31917  14.772  22.916  11.600
60247W        W31918  18.499  35.386   0.508
60248W        W31919  44.861  40.472   2.403
60249W        W31920  29.631  43.996  11.703
60250W        W31921  21.998   3.117  10.626
60251W        W31922  21.178  24.079   2.738
60252W        W31923  22.310   4.766  10.114
60253W        W31924  23.235   7.269   0.697
60254W        W31925  34.903  10.993  13.896
60255W        W31926  42.107  13.701  10.886
60256W        W31927  36.885  15.148  11.576
60257W        W31928   1.791  10.375  10.688
60258W        W31929  19.005  10.333   4.641
60259W        W31930  21.262  23.486   4.652
60260W        W31931  36.796  38.066  11.950
60261W        W31932  41.838   9.792   3.268
60262W        W31933  39.832  31.475  13.465
60263W        W31934  37.816  36.446  13.954
60264W        W31935  12.420  25.720   2.177
60265W        W31936  11.597   9.827   0.328
60266W        W31937  34.085  17.084  11.222
60267W        W31938  37.973  43.418   4.206
60268W        W31939  22.524  39.501  11.889
60269W        W31940   4.861  33.351  13.758
60270W        W31941  35.562  22.576   0.722
60271W        W31942   2.176  38.741  11.490
60272W        W31943  10.627  41.278  11.248
60273W        W31944  14.633  37.903   2.245
60274W        W31945  44.853  16.792  13.459
60275W        W31946  35.455  29.051  13.352
60276W        W31947  26.356  33.446   2.673
60277W        W31948  26.849  17.097  14.098
60278W        W31949  43.531  12.228   2.195
60279W        W31950  14.354  32.187   1.811
60280W        W31951  33.128  24.603  14.434
60281W        W31952   4.753  27.929  12.534
60282W        W31953  19.295  29.894   2.337
60283W        W31954  23.958   4.152   0.274
60284W        W31955   4.709   0.365  11.157
60285W        W31956   0.326  40.049   0.831
60286W        W31957  20.006   2.863   0.483
60287W        W31958  15.128   6.275   3.193
60288W        W31959  13.817  12.755   3.793
60289W        W31960  19.305  20.522  10.707
60290W        W31961  40.540  35.891  12.474
60291W        W31962  23.658  12.218  12.593
60292W        W31963  29.663  32.518  13.767
60293W        W31964  31.036  19.684  14.224
60294W        W31965  11.219  22.088   4.369
60295W        W31966  11.870  27.022  11.029
60296W        W31967  44.437  20.006  14.485
60297W        W31968  36.582  33.840  14.589
60298W        W31969  38.279  31.582   2.204
60299W        W31970  22.790  24.184  14.428
60300W        W31971  20.042  40.352   2.643
60301W        W31972  16.173   3.316   1.863
60302W        W31973  16.662   3.022   3.143
60303W        W31974  30.695   7.965  12.862
60304W        W31975  11.533   1.775   0.755
60305W        W31976  20.117  32.300   4.072
60306W        W31977  39.600  35.883   1.276
60307W        W31978  18.856   9.715  10.939
60308W        W31979   5.776  22.051   2.766
60309W        W31980  27.725  36.491  12.412
60310W        W31981  26.071  31.504  12.042
60311W        W31982  21.202  15.962  11.137
60312W        W31983  43.361  44.389   2.938
60313W        W31984  44.841  19.084  14.032
60314W        W31985  28.471  18.773  11.275
60315W        W31986  33.505  14.566   1.764
60316W        W31987  16.874  37.844   3.594
60317W        W31988  22.050  11.217   3.858
60318W        W31989   5.571  41.285  13.034
60319W        W31990  23.604  28.986   2.848
60320W        W31991  15.563  22.483   3.482
60321W        W31992  43.800  41.522   2.189
60322W        W31993  26.835  16.512  11.761
60323W        W31994   6.327   0.975  12.052
60324W        W31995  19.709  18.202   1.725
60325W        W31996   0.372  36.849   0.799
60326W        W31997   3.535  44.841  11.853
60327W        W31998  10.026  11.163  14.716
60328W        W31999  35.445   8.209  14.257
60329W        W32000  15.765   9.898  12.855
60330W        W32001   0.809  16.659  14.840
60331W        W32002  40.569  37.460   2.658
60332W        W32003  25.533  27.632  14.044
60333W        W32004  42.248   2.505  14.429
60334W        W32005  40.918  19.035   1.518
60335W        W32006  26.592   1.904   0.773
60336W        W32007   9.364  20.335  11.200
60337W        W32008  15.835  34.035  12.084
60338W        W32009  12.179   9.117   4.099
60339W        W32010  39.426  18.191   4.703
60340W        W32011  15.597  32.175   4.098
60341W        W32012  39.285  32.006  10.576
60342W        W32013  30.053  42.859   3.217
60343W        W32014   9.301  24.149   2.738
60344W        W32015  21.184  40.494   0.151
60345W        W32016  43.431  18.726   4.483
60346W        W32017   0.494  18.769  14.010
60347W        W32018  10.236  27.706  13.474
60348W        W32019   6.171  37.935   2.281
60349W        W32020  30.388   9.075   3.122
60350W        W32021   7.761   1.508   3.063
60351W        W32022  17.776  25.679   4.624
60352W        W32023  41.623  21.689  11.109
60353W        W32024  10.707  37.449   0.033
60354W        W32025   6.839   0.705   3.214
60355W        W32026  43.858  17.293  11.012
60356W        W32027  18.006  34.530  11.435
60357W        W32028  18.694  37.554   1.880
60358W        W32029  11.582  29.047   2.152
60359W        W32030  18.185  18.998   1.343
60360W        W32031   5.787  31.821  11.500
60361W        W32032  12.876   9.604  14.842
60362W        W32033   6.735  42.795  12.606
60363W        W32034  30.519   6.880   5.010
60364W        W32035  38.954  11.440   4.284
60365W        W32036  20.701  37.973  11.130
60366W        W32037  13.158  25.507   1.449
60367W        W32038  43.366  40.618   2.296
60368W        W32039   0.393  34.882   2.444
60369W        W32040   4.784  14.862   1.711
60370W        W32041  30.130  26.815   2.122
60371W        W32042  11.062  33.758   3.233
60372W        W32043  26.657  33.120   0.808
60373W        W32044  32.857   0.569   3.757
60374W        W32045  26.197  10.674  14.226
60375W        W32046  23.018  34.159   0.933
60376W        W32047  29.642   6.079  11.999
60377W        W32048  31.278   3.324   3.347
60378W        W32049  25.373  20.605   1.898
60379W        W32050  35.829  23.194   1.974
60380W        W32051  41.979  32.037   1.220
60381W        W32052  40.370  16.984   0.242
60382W        W32053  26.909   4.744   4.700
60383W        W32054  27.340  15.723   3.250
60384W        W32055   9.162  18.289   4.810
60385W        W32056  22.336   7.733   4.505
60386W        W32057  40.538  29.973   3.312
60387W        W32058   8.891   7.430   3.243
60388W        W32059  37.123  21.156   2.921
60389W        W32060  23.205   7.030   0.230
60390W        W32061   0.374  41.714  12.084
60391W        W32062  15.896  11.428  11.943
60392W        W32063  29.131  20.904  11.162
60393W        W32064  10.616  35.040  10.737
60394W        W32065   3.756  34.369   4.654
60395W        W32066   2.653  15.623  11.529
60396W        W32067   1.774  37.201   2.930
60397W        W32068   9.266  14.865   3.370
60398W        W32069  17.256  22.766   2.345
60399W        W32070  27.024  38.843   0.700
60400W        W32071  22.196   6.118   4.074
60401W        W32072  43.578  35.524  12.462
60402W        W32073  34.751  37.905   4.939
60403W        W32074   7.621  17.121   1.921
60404W        W32075  24.739  37.991   1.169
60405W        W32076  44.818  22.069  13.590
60406W        W32077   9.204   7.475   2.810
60407W        W32078   8.582   5.182   2.388
60408W        W32079  34.909  32.320  12.978
60409W        W32080  24.194  39.268  11.028
60410W        W32081  41.469   9.798  13.337
60411W        W32082  18.937  19.221  13.049
60412W        W32083  39.062  15.110   2.451
60413W        W32084  41.432  35.251  10.701
60414W        W32085   6.854  21.596  12.350
60415W        W32086   1.266  31.721  14.540
60416W        W32087  22.863  34.363  14.022
60417W        W32088  37.301  30.586   4.368
60418W        W32089  37.250  14.651   3.407
60419W        W32090   9.766   8.889  11.679
60420W        W32091  32.415   4.031   3.262
60421W        W32092   5.358  36.617  14.426
60422W        W32093   5.875   3.901   0.166
60423W        W32094  19.534  44.388   3.151
60424W        W32095  30.732  16.940   4.419
60425W        W32096  32.883  11.833  12.873
60426W        W32097  21.962  25.670   3.620
60427W        W32098  19.196  30.077  10.753
60428W        W32099   4.591  12.730   2.468
60429W        W32100   1.299  19.284   4.980
60430W        W32101  21.084  39.740   5.155
60431W        W32102   4.669  25.617   0.835
60432W        W32103  10.160  15.198  13.556
60433W        W32104  38.728   1.465   2.717
60434W        W32105  18.165  41.182  11.279
60435W        W32106  43.324  11.218  14.349
60436W        W32107  38.946  20.838  10.212
60437W        W32108  35.110  41.398   2.800
60438W        W32109  19.306  28.399   0.311
60439W        W32110  27.016  34.420   3.593
60440W        W32111  38.832  25.007   2.763
60441W        W32112   7.298  15.291   2.912
60442W        W32113  19.525  37.390   1.995
60443W        W32114   3.961  20.179  12.081
60444W        W32115  31.642   4.859  12.463
60445W        W32116  24.944  37.263   2.486
60446W        W32117  36.876  22.275  10.585
60447W        W32118  28.713  36.238   2.517
60448W        W32119  20.475  11.862   0.641
60449W        W32120  43.288  33.037   4.342
60450W        W32121   9.233   4.904   4.352
60451W        W32122  12.875  23.946  13.353
60452W        W32123  24.974  22.550   0.294
60453W        W32124  39.644   1.695   0.325
60454W        W32125  10.160   1.044   5.066
60455W        W32126  12.406  29.626   3.187
60456W        W32127  11.246  14.086  14.391
60457W        W32128   5.440  36.787   0.485
60458W        W32129  33.803  17.595   4.144
60459W        W32130  43.880  14.384   3.201
60460W        W32131   9.850  41.907   3.859
60461W        W32132  35.363  21.711  12.012
60462W        W32133  21.219  10.882  12.580
60463W        W32134   0.248   1.301   1.638
60464W        W32135  44.769   7.626  12.870
60465W        W32136  17.744  13.662   5.462
60466W        W32137  12.214  36.760  12.172
60467W        W32138  13.179  43.780  14.568
60468W        W32139  28.278  10.920  11.234
60469W        W32140  10.828  37.300  14.517
60470W        W32141  17.080  28.942  10.997
60471W        W32142  37.122   4.413   0.373
60472W        W32143  30.101  36.019  12.733
60473W        W32144  16.825  32.967   3.717
60474W        W32145  12.838  32.372  14.801
60475W        W32146  18.544  40.016  13.586
60476W        W32147   7.273  38.682  14.942
60477W        W32148  29.945  29.538  13.219
60478W        W32149  32.658  38.593   3.701
60479W        W32150   6.726   5.607  12.236
60480W        W32151   3.316  41.952   1.222
60481W        W32152  44.490  25.949  11.223
60482W        W32153  18.187  21.165  11.462
60483W        W32154  28.696  15.802   2.322
60484W        W32155   9.251  27.500  14.055
60485W        W32156   1.811  21.427   3.136
60486W        W32157   7.325  38.331   1.692
60487W        W32158   1.297  19.632  11.634
60488W        W32159   0.737  25.202   1.435
60489W        W32160   0.429   0.938   2.239
60490W        W32161  19.453  39.363  13.872
60491W        W32162  24.275  12.411   1.782
60492W        W32163  14.944  34.582   4.918
60493W        W32164  42.440  21.225   4.122
60494W        W32165  27.476   8.717  10.968
60495W        W32166  41.846   5.373   1.011
60496W        W32167  32.204  16.116  10.618
60497W        W32168  38.532   6.346  10.732
60498W        W32169  28.753  21.160   1.406
60499W        W32170  31.452  12.639   4.913
60500W        W32171  40.891  31.422  14.236
60501W        W32172  17.706   4.382  10.613
60502W        W32173  40.493   3.581  11.398
60503W        W32174  27.940   3.619   0.405
60504W        W32175  44.904  44.073  12.597
60505W        W32176  37.469   9.247  14.455
60506W        W32177  25.455  43.870   2.339
60507W        W32178  19.628  28.225  13.349
60508W        W32179   2.051  12.932  14.405
60509W        W32180   9.924  21.010   1.908
60510W        W32181  44.311   9.944  10.429
60511W        W32182  12.412  18.129   3.724
60512W        W32183  17.264  38.856   0.038
60513W        W32184   0.474  12.766  13.256
60514W        W32185  38.597  10.701   1.423
60515W        W32186  28.486  11.616   3.415
60516W        W32187  43.847  11.251   0.230
60517W        W32188  42.217  33.925  13.995
60518W        W32189  24.957  24.429  14.012
60519W        W32190  21.666  41.901  13.834
60520W        W32191  15.775  17.927   1.708
60521W        W32192  21.656  13.847  11.671
60522W        W32193  36.111  16.230  14.466
60523W        W32194  29.490  36.969   1.822
60524W        W32195  19.104  24.610   1.053
60525W        W32196  24.425   6.251   2.171
60526W        W32197  27.048   1.231  13.284
60527W        W32198   0.044   2.121  13.848
60528W        W32199  16.107  36.871   4.661
60529W        W32200  43.473   7.732  12.837
60530W        W32201  44.948   7.682  14.929
60531W        W32202  34.945  33.907   1.891
60532W        W32203  35.640  21.724  13.320
60533W        W32204   2.253  20.479   2.716
60534W        W32205  28.728  21.561   3.851
60535W        W32206  41.491   4.458   3.958
60536W        W32207  23.201  16.093   3.544
60537W        W32208  29.173  41.041   4.775
60538W        W32209  38.600  31.741  13.509
60539W        W32210  35.455  13.109  14.940
60540W        W32211  43.881  18.743   3.771
60541W        W32212   7.401  18.955   1.196
60542W        W32213  22.159  16.575  12.853
60543W        W32214   2.358  28.230   4.217
60544W        W32215  23.987  19.587   1.292
60545W        W32216  17.397  35.823  10.597
60546W        W32217  36.135  36.069  11.558
60547W        W32218  28.238   4.939  14.871
60548W        W32219  26.190  42.164   2.235
60549W        W32220   8.392   8.366   0.951
60550W        W32221  34.529  19.240  13.806
60551W        W32222  27.140   9.501  11.140
60552W        W32223  42.524  12.023   3.205
60553W        W32224  32.112  18.025  10.504
60554W        W32225  21.962  24.644  10.609
60555W        W32226  32.341  10.797  11.934
60556W        W32227  29.674  15.132  14.847
60557W        W32228  15.779  42.899  11.157
60558W        W32229  37.759   4.416  12.553
60559W        W32230  42.477  21.703  13.731
60560W        W32231  36.977   6.750  12.146
60561W        W32232   4.001  35.456  12.106
60562W        W32233  22.719  34.115   1.836
60563W        W32234  19.645  10.726  10.869
60564W        W32235  43.876  13.155   3.141
60565W        W32236   6.787  28.073   4.525
60566W        W32237  34.569  28.247   3.130
60567W        W32238  20.093  43.399   3.781
60568W        W32239   8.018  21.966  14.425
60569W        W32240  29.549   4.150   0.354
60570W        W32241  30.889  30.291   0.592
60571W        W32242  28.897  14.055  12.905
60572W        W32243  28.309  10.247   3.018
60573W        W32244   7.949   2.378  14.841
60574W        W32245  39.862   5.812   4.009
60575W        W32246  14.224  42.796   0.542
60576W        W32247  42.720  28.442  11.444
60577W        W32248   6.822  11.152   1.508
60578W        W32249  35.016  30.155  14.419
60579W        W32250  26.642   2.367   1.710
60580W        W32251  35.077  31.376   2.113
60581W        W32252  20.212   9.270   2.872
60582W        W32253  11.264  17.291  14.561
60583W        W32254   9.626  15.649   1.405
60584W        W32255  30.459  16.722   2.895
60585W        W32256  38.078  25.952  10.836
60586W        W32257  37.984   9.256   1.748
60587W        W32258  13.108  27.231   3.337
60588W        W32259  26.090   5.890  12.102
60589W        W32260   0.425  37.893  14.753
60590W        W32261  31.166  40.869   0.476
60591W        W32262  18.997   1.217  11.473
60592W        W32263  10.200  24.340   3.620
60593W        W32264  13.559  26.120   3.694
60594W        W32265  38.053  39.484   0.416
60595W        W32266  28.312   0.762  12.414
60596W        W32267   2.744   6.192  13.470
60597W        W32268  36.998  35.468  11.762
60598W        W32269  31.920  39.950  11.526
60599W        W32270  34.995  24.716   4.385
60600W        W32271  30.226  11.473   0.245
60601W        W32272  41.429  20.574   1.309
60602W        W32273  25.960   6.738  13.344
60603W        W32274  11.274  36.486  14.904
60604W        W32275  38.115   3.392  13.348
60605W        W32276  24.316  23.633   4.504
60606W        W32277  40.285   7.802  12.575
60607W        W32278  33.396  26.757   0.450
60608W        W32279  30.969  42.484   1.910
60609W        W32280  38.113  38.993  12.533
60610W        W32281   0.712  21.924  12.847
60611W        W32282  36.369   2.657  11.453
60612W        W32283  43.382  21.078   3.203
60613W        W32284  32.487  22.821   3.221
60614W        W32285   3.477   8.366  11.565
60615W        W32286  41.871  15.816  12.692
60616W        W32287  41.881  35.732   0.887
60617W        W32288  21.164   6.901  11.606
60618W        W32289   6.733  29.305   3.748
60619W        W32290  36.806   8.863  12.092
60620W        W32291  29.110  12.635   4.631
60621W        W32292  33.535  13.641  10.840
60622W        W32293  30.938  16.630  14.557
60623W        W32294  38.012  21.554  11.342
60624W        W32295  30.641  18.144   2.894
60625W        W32296  17.584  36.301  12.894
60626W        W32297  28.727  32.605   5.036
60627W        W32298  32.345   5.247  13.514
60628W        W32299  25.659  26.416  12.553
60629W        W32300   2.369  43.269   0.355
60630W        W32301  28.757  34.884   2.967
60631W        W32302  30.709  42.728  13.872
60632W        W32303   4.851  28.428  12.496
60633W        W32304   3.675  43.972  10.790
60634W        W32305  44.567  44.787  14.851
60635W        W32306  42.216  32.075   4.208
60636W        W32307   5.038   7.668   2.674
60637W        W32308  16.152  10.789  10.555
60638W        W32309   8.373   4.573  12.577
60639W        W32310  29.680  38.986  14.778
60640W        W32311   2.429  11.091   1.364
60641W        W32312  16.233  16.246   4.819
60642W        W32313   1.252   3.733   3.210
60643W        W32314  14.220  18.051  13.088
60644W        W32315  37.937   8.432   3.771
60645W        W32316  11.232  25.968  14.388
60646W        W32317  37.607  24.941   1.207
60647W        W32318  17.889   0.809  11.008
60648W        W32319  20.541  44.853   4.304
60649W        W32320  14.107   7.142  14.277
60650W        W32321  41.018   1.022   3.805
60651W        W32322  42.380  24.328  14.831
60652W        W32323  36.436  13.428  14.485
60653W        W32324  21.452  16.065  10.631
60654W        W32325  16.334  13.304   5.552
60655W        W32326  26.701  39.154   0.428
60656W        W32327  29.442  14.184   0.762
60657W        W32328  38.468  10.933   3.125
60658W        W32329  31.971  11.422   1.714
60659W        W32330  17.107  18.694   4.377
60660W        W32331   1.583   6.270   0.243
60661W        W32332   4.103  21.255   0.966
60662W        W32333  32.107   7.644   5.101
60663W        W32334  11.841   2.066   3.624
60664W        W32335  42.940  25.107  11.333
60665W        W32336  36.362   7.852   1.552
60666W        W32337  18.153  16.956  10.890
60667W        W32338   8.842   8.684   2.838
60668W        W32339  39.754   4.916  13.092
60669W        W32340   6.471  16.995   3.248
60670W        W32341  21.163  33.464  14.110
60671W        W32342  23.067   2.698   2.297
60672W        W32343  20.371  31.711   5.167
60673W        W32344   1.827  37.625   1.696
60674W        W32345  38.468  15.533  10.766
60675W        W32346  43.279  20.737   4.086
60676W        W32347   4.546  29.562  14.687
60677W        W32348   9.030  32.331   0.503
60678W        W32349   4.842  27.343  11.390
60679W        W32350   9.318   1.300  11.609
60680W        W32351  33.991  31.732  14.922
60681W        W32352  32.372  10.219  10.535
60682W        W32353  30.848  22.215  11.192
60683W        W32354  22.477  13.306  10.812
60684W        W32355   8.735   6.270   1.561
60685W        W32356  16.956  27.261   2.257
60686W        W32357  36.081   5.449  14.313
60687W        W32358   1.838   8.203   2.309
60688W        W32359  24.926  36.889   3.713
60689W        W32360  24.613  43.682  12.837
60690W        W32361  20.753  38.041  14.281
60691W        W32362   6.570  41.258  10.477
60692W        W32363  37.953  40.955  10.644
60693W        W32364   0.421  36.310   2.131
60694W        W32365  33.987  13.658  14.808
60695W        W32366  25.478  28.831   3.290
60696W        W32367  26.675  36.875   3.596
60697W        W32368  35.115  19.225   2.229
60698W        W32369  42.446  38.510   5.009
60699W        W32370  14.712   1.910   2.718
60700W        W32371   2.304   5.945   0.874
60701W        W32372  32.638  20.604  11.216
60702W        W32373   2.715  11.399  14.295
60703W        W32374   2.314  42.928  11.636
60704W        W32375  34.446   2.798   4.608
60705W        W32376  32.115  44.105  13.474
60706W        W32377   4.275  35.260   2.992
60707W        W32378   3.725   9.131   1.244
60708W        W32379  27.983  44.422   1.098
60709W        W32380  25.812  40.867  10.740
60710W        W32381  41.386  29.421   1.175
60711W        W32382   7.270  11.631  13.871
60712W        W32383  38.839  35.783   2.929
60713W        W32384  22.114   5.612  13.036
60714W        W32385  29.025  34.641   1.762
60715W        W32386   4.064  32.192   3.412
60716W        W32387  40.142   5.614  10.985
60717W        W32388  15.201  21.266  11.024
60718W        W32389  29.513  19.541  11.911
60719W        W32390  20.628  32.979   3.448
60720W        W32391  11.573  16.683   3.672
60721W        W32392  38.704  31.898   2.377
60722W        W32393  43.278  29.411   2.524
60723W        W32394  15.755  16.040   4.802
60724W        W32395  10.172  32.648  12.528
60725W        W32396  36.377  44.151   0.246
60726W        W32397  25.743  40.773   3.145
60727W        W32398   4.667  27.201  10.515
60728W        W32399   7.921  19.988   4.267
60729W        W32400   8.061  11.812  12.437
60730W        W32401  11.808  25.522  13.862
60731W        W32402  29.186  15.069  13.892
60732W        W32403  40.975  23.760   4.154
60733W        W32404  14.109  18.557  12.520
60734W        W32405   4.691   2.405  14.790
60735W        W32406  10.639   8.927   2.726
60736W        W32407  28.052  33.068   1.014
60737W        W32408   1.788  43.293  14.115
60738W        W32409  11.304  21.552   0.851
60739W        W32410  21.690  21.418   3.331
60740W        W32411  15.642   1.967  12.329
60741W        W32412  40.281  41.799  13.895
60742W        W32413  24.203  28.153   0.942
60743W        W32414   3.675  19.116  14.954
60744W        W32415  21.976   0.849   1.717
60745W        W32416  10.417  39.042   0.976
60746W        W32417  42.395   8.320  10.916
60747W        W32418  11.728   8.499  12.589
60748W        W32419  41.802  38.002  12.863
60749W        W32420   2.027  24.604   0.282
60750W        W32421  14.703  28.965   0.460
60751W        W32422  34.826   3.645   4.515
60752W        W32423  37.196  25.609  14.853
60753W        W32424  21.826   1.939  13.292
60754W        W32425  24.190   7.652  11.452
60755W        W32426   5.710   0.247  11.982
60756W        W32427   5.212  40.071   2.229
60757W        W32428  21.843  37.232  12.053
60758W        W32429   5.989  28.708   3.567
60759W        W32430  18.849  21.300   1.373
60760W        W32431  29.195   5.838  11.978
60761W        W32432  36.330   9.185  14.061
60762W        W32433  20.753  38.791  14.826
60763W        W32434  32.619  26.648   3.708
60764W        W32435  12.882  43.002   2.425
60765W        W32436   3.767  26.363   3.315
60766W        W32437  16.588  44.349   3.710
60767W        W32438   5.683  11.360   4.473
60768W        W32439  26.759   9.078   9.878
60769W        W32440  13.119  35.662  11.139
60770W        W32441   9.672  17.553  11.674
60771W        W32442   5.331  11.126   4.782
60772W        W32443   8.601  31.395   2.377
60773W        W32444  18.560   1.744   2.648
60774W        W32445  33.982   2.553  11.061
60775W        W32446  30.551  41.375  10.995
60776W        W32447  15.172  12.608  14.867
60777W        W32448  30.994  23.640  11.653
60778W        W32449  39.829  39.410  12.099
60779W        W32450  41.912  24.199   4.957
60780W        W32451  14.166  20.338   4.232
60781W        W32452  26.954  18.526  11.611
60782W        W32453   2.810   1.490   2.365
60783W        W32454   0.261  41.677   3.137
60784W        W32455  34.404  22.087   0.809
60785W        W32456   9.839  43.506  14.136
60786W        W32457  31.105  31.219   4.767
60787W        W32458  25.730   3.948   2.738
60788W        W32459  12.642  27.415   2.596
60789W        W32460  10.237   5.941  13.464
60790W        W32461  10.685   3.393   2.306
60791W        W32462  24.047  41.050   4.090
60792W        W32463  41.103  19.906   3.215
60793W        W32464  28.035  12.793   4.580
60794W        W32465  19.661  26.050  10.799
60795W        W32466  38.360  26.321  14.531
60796W        W32467  41.649  19.704   0.071
60797W        W32468  32.204  43.265   2.722
60798W        W32469  40.355  28.963   0.229
60799W        W32470  30.089  43.141  10.080
60800W        W32471   6.210  11.315  13.434
60801W        W32472  30.706  35.004   2.606
60802W        W32473  31.958  28.437  12.928
60803W        W32474  44.335  41.337  11.616
60804W        W32475  43.425  30.411   0.272
60805W        W32476  33.887  34.279   3.823
60806W        W32477  39.886  35.447  12.963
60807W        W32478  12.811   8.707   5.002
60808W        W32479   6.588  28.023  11.150
60809W        W32480  17.801  15.149  11.394
60810W        W32481  36.317  37.594  10.221
60811W        W32482  10.198   4.765   0.161
60812W        W32483  36.930   3.758  13.192
60813W        W32484  16.713  42.532   1.713
60814W        W32485  12.234  15.677   4.042
60815W        W32486  27.765  30.146   1.864
60816W        W32487  29.654  42.866   0.034
60817W        W32488  34.397  29.636   0.502
60818W        W32489  38.887   6.474   2.674
60819W        W32490  17.089  44.685   4.565
60820W        W32491  10.945  22.098   2.958
60821W        W32492  27.494   8.108   0.451
60822W        W32493  32.866  13.649  11.720
60823W        W32494   3.960  39.839  12.006
60824W        W32495  23.216  21.633   3.284
60825W        W32496  25.514  43.712   3.991
60826W        W32497  40.093  39.833  12.884
60827W        W32498  21.285  17.270   2.853
60828W        W32499  12.817  31.105   4.476
60829W        W32500  22.441  27.575   0.789
60830W        W32501  34.286  42.406   3.658
60831W        W32502  21.832  34.081  14.816
60832W        W32503  24.007   9.278  13.390
60833W        W32504  23.927  28.949  13.523
60834W        W32505  32.101  29.038  12.110
60835W        W32506   7.666  39.289   2.759
60836W        W32507  29.502  24.174   0.194
60837W        W32508   1.004  31.839   1.708
60838W        W32509  35.551  33.158   0.481
60839W        W32510  39.858  38.850  10.457
60840W        W32511  18.642  42.815   0.953
60841W        W32512   0.801   5.600  13.535
60842W        W32513  30.867   1.400  11.676
60843W        W32514   1.823  36.493  13.550
60844W        W32515  11.752  16.564  12.953
60845W        W32516   7.872  33.338  11.986
60846W        W32517  31.896  21.247   2.370
60847W        W32518   7.295   3.862  13.963
60848W        W32519  15.894  40.490  11.047
60849W        W32520  22.014  39.791  10.636
60850W        W32521   2.272  31.113   1.778
60851W        W32522  44.746  20.873  12.336
60852W        W32523  42.847  20.733  13.037
60853W        W32524  16.351  40.924  12.965
60854W        W32525   6.689  44.734   2.958
60855W        W32526  34.277   9.791  12.949
60856W        W32527  37.097  26.033   0.491
60857W        W32528  23.383  21.299   3.673
60858W        W32529  34.095  21.640   2.277
60859W        W32530  19.372   6.239   3.102
60860W        W32531  34.964  28.504  12.771
60861W        W32532   0.159  31.612   2.244
60862W        W32533  12.585  20.397  11.577
60863W        W32534   5.775   2.910   0.464
60864W        W32535   1.454  18.732   4.627
60865W        W32536  17.014  20.598   1.445
60866W        W32537  36.965  44.547  11.996
60867W        W32538  15.188  13.761  14.391
60868W        W32539   7.909   7.212  10.646
60869W        W32540  38.075   4.519  11.100
60870W        W32541  15.237  43.275  14.343
60871W        W32542   1.870  26.656  12.936
60872W        W32543  38.153   5.820   3.373
60873W        W32544  13.851  35.258   2.419
60874W        W32545  31.563  27.435  14.594
60875W        W32546  10.202  15.261   2.248
60876W        W32547   7.076  32.074   3.368
60877W        W32548   6.385  20.065   1.459
60878W        W32549  14.010  40.875   1.674
60879W        W32550  36.017  13.778  12.551
60880W        W32551  18.893  38.278   3.216
60881W        W32552   2.982  22.172   4.128
60882W        W32553  17.513  39.602  10.741
60883W        W32554  13.862  34.212   1.329
60884W        W32555  33.496  18.581   5.187
60885W        W32556   7.813  12.795  13.546
60886W        W32557   8.920  17.143   0.910
60887W        W32558   7.662  20.650  13.368
60888W        W32559   2.008  44.486  14.067
60889W        W32560  21.714  17.654   1.881
60890W        W32561   6.067  15.192  14.252
60891W        W32562  27.146  23.997  11.707
60892W        W32563  30.240  10.851  14.478
60893W        W32564  31.019  13.085   1.937
60894W        W32565   0.246   7.322   2.581
60895W        W32566  17.230  25.793  12.416
60896W        W32567  40.035  44.513  13.009
60897W        W32568   2.930  25.369  14.457
60898W        W32569  44.668  17.476  13.935
60899W        W32570  36.279  39.386  11.166
60900W        W32571  31.845  23.642   4.994
60901W        W32572  11.652  38.774   4.684
60902W        W32573  41.760   8.910   4.990
60903W        W32574  14.271  13.545   0.429
60904W        W32575  21.023   2.366   4.133
60905W        W32576   5.989  12.646   3.757
60906W        W32577  41.446   2.647   0.373
60907W        W32578  26.447   3.657  11.995
60908W        W32579  20.270  26.584  10.166
60909W        W32580   8.456   3.916   1.454
60910W        W32581  36.374  12.897  14.428
60911W        W32582   9.110   1.884   0.742
60912W        W32583  34.582  19.993  12.749
60913W        W32584  21.743   8.141   2.144
60914W        W32585   1.826  22.343  11.007
60915W        W32586  32.916  40.418  14.895
60916W        W32587   9.811  33.073   2.216
60917W        W32588  21.070  40.163  14.741
60918W        W32589  25.472  29.338   3.442
60919W        W32590  33.331  30.392   2.894
60920W        W32591  17.466  40.070  11.661
60921W        W32592   4.302  27.626  13.355
60922W        W32593   3.572   4.763   1.866
60923W        W32594   0.378  15.748   4.166
60924W        W32595  31.144  32.545   1.746
60925W        W32596  43.286  10.651  13.732
60926W        W32597  35.988  10.302   0.505
60927W        W32598  39.757  37.829   4.705
60928W        W32599  20.616  39.564  14.312
60929W        W32600   6.847   9.549  14.504
60930W        W32601  29.186  29.240  12.893
60931W        W32602  42.503   1.380   1.383
60932W        W32603  36.008  27.005  13.796
60933W        W32604  26.363  43.322  13.828
60934W        W32605  12.233  29.228  10.439
60935W        W32606  10.653  42.872   5.048
60936W        W32607  43.396  10.375   2.226
60937W        W32608   2.255  13.016  12.123
60938W        W32609  31.098  16.695  13.647
60939W        W32610  42.175   8.149  13.607
60940W        W32611  37.590  41.281  12.763
60941W        W32612  22.923  28.694  11.116
60942W        W32613  38.523  29.575   2.378
60943W        W32614  14.863  41.903   3.952
60944W        W32615   2.926  12.071   1.036
60945W        W32616  25.512  24.637   4.096
60946W        W32617   4.838   2.678   4.872
60947W        W32618  26.053  35.621  12.082
60948W        W32619  38.272   9.223   1.275
60949W        W32620  42.830  36.076   4.554
60950W        W32621  14.669  12.693   0.536
60951W        W32622  22.778  17.239   0.066
60952W        W32623  14.705  35.122  14.950
60953W        W32624  29.593  11.338   3.563
60954W        W32625  39.694  33.853  11.419
60955W        W32626  22.804  20.790  11.628
60956W        W32627  43.950   0.349  11.585
60957W        W32628  20.246   4.643  10.889
60958W        W32629  26.228  17.257   0.874
60959W        W32630  43.135  34.314   1.294
60960W        W32631  24.623   6.519   4.872
60961W        W32632   3.921  39.466  12.558
60962W        W32633  32.054  42.528   1.970
60963W        W32634  33.346  26.598  13.423
60964W        W32635  16.472   4.014   3.125
60965W        W32636  15.162  44.433  11.971
60966W        W32637  32.969  23.582  11.059
60967W        W32638   5.918  44.022  11.487
60968W        W32639  29.908  22.400  13.996
60969W        W32640   1.981  40.954   3.309
60970W        W32641  42.520   3.967  11.050
60971W        W32642  18.192   8.615  12.598
60972W        W32643  24.283  31.071   0.362
60973W        W32644   6.874   1.701   3.694
60974W        W32645  32.109  11.454  12.025
60975W        W32646   6.697  36.583  10.797
60976W        W32647  41.581  34.472   1.201
60977W        W32648   0.016   7.710   0.953
60978W        W32649  22.493   0.523  14.103
60979W        W32650  40.286  30.442  10.445
60980W        W32651  31.963   6.752   2.622
60981W        W32652  27.995  21.656  14.020
60982W        W32653  20.066  13.870   3.635
60983W        W32654  13.540  29.632   1.693
60984W        W32655  36.981  10.161  14.449
60985W        W32656  11.147   9.255  10.472
60986W        W32657  22.396   4.723   4.664
60987W        W32658   4.868   7.446  13.435
60988W        W32659  26.070  18.623  13.913
60989W        W32660   8.184  30.628  14.826
60990W        W32661  20.696  31.545   3.582
60991W        W32662  16.509  19.111   3.098
60992W        W32663  23.508  32.385  14.194
60993W        W32664  42.106   8.627   2.404
60994W        W32665  24.019  27.488   3.244
60995W        W32666  14.543  14.228  11.516
60996W        W32667  43.746  24.936   1.283
60997W        W32668  14.556  40.343   2.891
60998W        W32669  14.170  33.842   0.634
60999W        W32670  22.613  31.914  11.965
61000W        W32671  32.863   0.832   4.252
61001W        W32672  23.125   8.279  14.965
61002W        W32673   5.066   5.780   2.018
61003W        W32674  17.429  30.592  11.636
61004W        W32675   4.883  42.840   2.806
61005W        W32676  12.306   9.197  12.668
61006W        W32677  40.082  32.090   3.796
61007W        W32678  44.332  25.283  13.394
61008W        W32679   2.191  28.691  13.435
61009W        W32680  22.754  38.868   1.390
61010W        W32681  27.736  22.099   3.087
61011W        W32682   1.896  14.241  12.314
61012W        W32683  16.591  41.921  14.693
61013W        W32684   8.272  29.051  13.054
61014W        W32685  19.250  12.088   9.787
61015W        W32686   4.813  24.620   3.735
61016W        W32687   1.368   3.218  10.303
61017W        W32688  40.589  11.267   0.842
61018W        W32689  17.144  25.850  11.881
61019W        W32690  12.744  24.396   2.218
61020W        W32691  36.762  23.213   0.397
61021W        W32692  41.736  42.335  14.347
61022W        W32693  37.027  17.932   1.555
61023W        W32694  37.957  25.345  12.865
61024W        W32695  42.960  17.703   1.749
61025W        W32696  16.569  17.241   0.363
61026W        W32697  38.981  35.549   3.428
61027W        W32698  31.201  19.704   3.841
61028W        W32699  37.458  21.313   5.083
61029W        W32700  11.318   6.502   3.715
61030W        W32701   5.173   0.399  14.828
61031W        W32702  35.883   4.636  12.860
61032W        W32703  24.156  26.773  14.071
61033W        W32704  42.463  10.497   4.477
61034W        W32705   4.932  26.651  12.939
61035W        W32706  10.451  34.452   5.067
61036W        W32707  21.125  40.594  10.634
61037W        W32708  44.436  14.849  10.574
61038W        W32709   2.021   7.766   3.639
61039W        W32710  13.123  26.452  13.268
61040W        W32711  43.418  14.675   2.178
61041W        W32712  33.869  30.378   3.700
61042W        W32713  11.685  17.089  14.792
61043W        W32714  10.801  25.694   3.815
61044W        W32715  38.547   3.591   3.882
61045W        W32716  35.443  15.067   0.274
61046W        W32717   8.136  39.567  14.908
61047W        W32718  12.230  44.371   4.426
61048W        W32719   4.725   4.964  14.257
61049W        W32720  26.795  23.706   4.613
61050W        W32721  19.311  22.173   2.766
61051W        W32722   5.233  32.085   3.116
61052W        W32723   0.388  35.568   4.166
61053W        W32724   2.843   3.932  10.894
61054W        W32725  40.405  16.219   2.111
61055W        W32726  44.366   7.064  10.631
61056W        W32727  12.410   6.217  14.000
61057W        W32728  28.899  16.645   4.428
61058W        W32729  12.518  38.491  10.944
61059W        W32730  35.560  31.595   1.862
61060W        W32731  36.521  41.081   1.488
61061W        W32732  23.636  28.022   4.266
61062W        W32733  26.993  28.910  11.623
61063W        W32734  34.472  27.288   4.242
61064W        W32735  20.615  41.954  10.505
61065W        W32736  27.385   3.230   1.425
61066W        W32737  16.864   3.873  14.146
61067W        W32738  12.789  10.140  12.404
61068W        W32739  17.585  26.663  12.847
61069W        W32740   5.291   7.451  13.083
61070W        W32741  19.758  13.647   2.368
61071W        W32742   5.286  18.815   3.542
61072W        W32743  30.885  35.103   3.083
61073W        W32744  35.806  27.416  14.070
61074W        W32745  20.066   4.485   0.429
61075W        W32746  32.634  14.989  13.938
61076W        W32747   5.236  20.540   2.131
61077W        W32748  39.475  13.185   3.265
61078W        W32749  19.232  20.410   3.774
61079W        W32750  18.759  35.854  10.575
61080W        W32751  34.531  34.657   4.749
61081W        W32752  18.139  37.068   4.148
61082W        W32753   3.085   6.480   1.972
61083W        W32754  15.375  17.642  12.195
61084W        W32755  43.613  18.584  13.229
61085W        W32756  11.300  15.561   3.608
61086W        W32757   6.239  30.325  12.040
61087W        W32758   3.362   9.721   3.920
61088W        W32759   6.741   8.652   0.296
61089W        W32760  31.660   1.300   0.331
61090W        W32761  33.037  31.893  12.115
61091W        W32762  12.175  42.435   0.670
61092W        W32763  39.608  44.542   4.199
61093W        W32764  30.017  41.712   4.191
61094W        W32765  33.041  10.404   3.795
61095W        W32766  14.354  25.714   4.527
61096W        W32767  31.626  14.588  14.016
61097W        W32768  29.855  11.821   0.222
61098W        W32769  28.198  39.790  12.453
61099W        W32770  17.397  17.652   3.372
61100W        W32771  34.324  24.532  13.936
61101W        W32772  27.001   9.693   1.809
61102W        W32773  35.120  39.403  14.491
61103W        W32774  32.734  30.231   1.045
61104W        W32775  20.834  10.684   4.160
61105W        W32776  31.758  23.160  14.556
61106W        W32777  39.762  41.852  12.968
61107W        W32778   0.371   8.900  11.248
61108W        W32779   0.140  40.646  14.915
61109W        W32780  21.439  10.482  11.428
61110W        W32781   6.349  42.077  11.839
61111W        W32782  24.997   9.711   1.381
61112W        W32783  15.152   7.819  14.167
61113W        W32784  29.722  20.758  13.130
61114W        W32785  35.056   8.148   4.921
61115W        W32786  35.181  25.015  14.780
61116W        W32787  31.010   4.638  11.703
61117W        W32788  33.869  11.834  14.230
61118W        W32789  14.179  33.001  13.532
61119W        W32790  16.987  20.529   1.954
61120W        W32791  13.784   7.423   0.505
61121W        W32792  33.550  38.079   1.546
61122W        W32793  43.797   1.783   3.104
61123W        W32794  41.021  34.974   3.690
61124W        W32795  19.067  16.513  11.592
61125W        W32796  19.946  24.681  11.474
61126W        W32797  35.630  18.650  10.730
61127W        W32798  42.021  41.907  14.354
61128W        W32799  41.393  40.988   4.258
61129W        W32800  36.388  35.952   1.952
61130W        W32801   8.208  17.817   3.620
61131W        W32802   8.559  34.452  11.728
61132W        W32803  14.130  19.221  13.079
61133W        W32804  22.786  40.980  10.727
61134W        W32805  11.287  23.266  10.739
61135W        W32806   7.827  12.832   3.778
61136W        W32807  36.613  27.480  11.318
61137W        W32808   9.868  29.897  12.027
61138W        W32809  32.549  19.603  11.108
61139W        W32810  41.777   4.831  10.985
61140W        W32811  25.534  39.246  10.709
61141W        W32812  41.518   0.921   2.898
61142W        W32813  14.626  19.308  11.483
61143W        W32814  32.601  43.951  13.539
61144W        W32815   2.698  17.968  12.754
61145W        W32816  29.341  27.572  12.514
61146W        W32817  24.809  25.198   4.267
61147W        W32818   2.827  27.759   1.396
61148W        W32819   1.303   3.551   0.256
61149W        W32820  13.271   9.305   0.602
61150W        W32821   4.320   5.823   4.686
61151W        W32822  28.708   9.784  13.827
61152W        W32823  14.319  33.496  13.475
61153W        W32824  34.360  31.118  10.701
61154W        W32825  21.607  25.239   0.262
61155W        W32826  41.331   1.257  14.043
61156W        W32827  18.950  44.777   1.703
61157W        W32828  40.252  18.701  13.308
61158W        W32829  11.798  34.418  10.828
61159W        W32830  29.554   3.808  10.734
61160W        W32831  24.716  29.514  12.516
61161W        W32832  20.707  43.239  11.913
61162W        W32833   6.710  42.868   2.338
61163W        W32834  10.315  25.638   3.624
61164W        W32835  16.765   9.831  11.976
61165W        W32836  10.132   4.005  12.633
61166W        W32837  27.974  31.979  12.110
61167W        W32838  15.887  26.544  12.855
61168W        W32839  13.666  10.227  11.144
61169W        W32840  16.084  36.918   3.746
61170W        W32841  28.481  15.557  11.610
61171W        W32842  42.356  25.235   4.284
61172W        W32843  29.078  28.182  14.348
61173W        W32844   7.208  32.604   0.276
61174W        W32845   6.188  28.181  11.455
61175W        W32846  36.806  30.167   1.223
61176W        W32847  42.350  25.956  11.263
61177W        W32848  24.028  17.120   3.267
61178W        W32849  40.763  30.901   1.764
61179W        W32850  13.422  30.999   3.103
61180W        W32851  18.082  22.563   4.074
61181W        W32852  14.541  15.113   3.484
61182W        W32853  29.561  29.595  12.897
61183W        W32854  15.604   0.454  11.211
61184W        W32855  44.903  20.096  13.742
61185W        W32856  14.272  21.809   0.376
61186W        W32857   3.249   5.047  11.574
61187W        W32858   7.610  44.509  14.012
61188W        W32859  22.304  19.662  11.220
61189W        W32860  20.173   0.316  13.968
61190W        W32861   6.173  29.456  12.584
61191W        W32862  24.399  34.180  13.829
61192W        W32863  35.044  18.862   4.092
61193W        W32864   6.250  12.822  14.476
61194W        W32865  19.319  37.563  12.375
61195W        W32866  19.803   8.323   1.712
61196W        W32867  12.680   4.013   5.038
61197W        W32868  25.049  24.708   2.255
61198W        W32869  14.293  38.651  11.109
61199W        W32870  35.846  30.038  14.801
61200W        W32871  35.588  32.683  12.390
61201W        W32872  27.050  42.545   0.334
61202W        W32873  44.036  11.744   1.922
61203W        W32874  27.984  42.821   2.407
61204W        W32875   7.225  20.173   3.733
61205W        W32876  35.123  29.576   1.682
61206W        W32877  32.817  27.503  12.927
61207W        W32878   2.819  27.584  13.850
61208W        W32879  27.287  24.469   0.413
61209W        W32880  14.721   0.792  14.064
61210W        W32881  19.553  38.564   0.419
61211W        W32882  33.922  19.752  14.934
61212W        W32883  40.018  19.094  14.076
61213W        W32884   6.465   4.338  13.854
61214W        W32885  13.454  28.385   0.746
61215W        W32886  44.992  41.742  13.316
61216W        W32887   7.371  44.942   2.179
61217W        W32888  41.924  16.116   4.846
61218W        W32889  20.111  34.441   5.221
61219W        W32890  26.171  22.328   2.366
61220W        W32891   1.833  40.419  11.258
61221W        W32892  29.084  36.670   1.972
61222W        W32893   6.703  34.634  12.505
61223W        W32894  22.805  32.657  12.918
61224W        W32895  16.144   0.565  13.710
61225W        W32896   8.937   5.448   1.426
61226W        W32897   9.302  39.809  10.791
61227W        W32898  37.534  15.799  12.606
61228W        W32899   6.770  26.682  10.743
61229W        W32900  27.562  11.104  12.492
61230W        W32901   2.017  30.211  11.790
61231W        W32902  34.614  27.053   2.186
61232W        W32903  43.670  14.789   3.919
61233W        W32904  38.032  28.667   1.405
61234W        W32905  38.878  34.021  14.937
61235W        W32906   8.336  12.185   1.972
61236W        W32907  31.428  37.516  13.447
61237W        W32908  25.557  37.270  13.412
61238W        W32909  26.679  40.444  12.837
61239W        W32910  41.776  15.757   4.199
61240W        W32911  31.993  12.810   0.220
61241W        W32912  31.748  23.648   1.878
61242W        W32913  13.661  17.826   1.322
61243W        W32914  33.196  41.182  11.526
61244W        W32915  25.218  35.000  11.188
61245W        W32916  43.681  30.508  13.899
61246W        W32917  13.021   3.283   2.402
61247W        W32918   6.469  10.802  13.584
61248W        W32919  18.859  23.520  13.115
61249W        W32920  31.670  32.518   4.222
61250W        W32921  22.460  42.678  11.188
61251W        W32922   8.313   0.912   3.599
61252W        W32923  40.945  26.740   2.238
61253W        W32924  23.151  15.130   3.946
61254W        W32925  36.123  13.743  12.000
61255W        W32926   5.700  14.251   0.038
61256W        W32927  26.680  15.181  10.585
61257W        W32928  17.287  32.655  13.049
61258W        W32929  29.480  21.761  11.954
61259W        W32930  33.261  22.624   2.703
61260W        W32931  28.044  29.680  11.390
61261W        W32932  16.628  33.955   2.729
61262W        W32933   7.720   3.820   2.080
61263W        W32934  30.137   6.728  11.591
61264W        W32935  34.570  33.501  12.458
61265W        W32936  30.028  12.791   4.471
61266W        W32937  25.951  29.155   1.838
61267W        W32938  24.071  12.164   3.865
61268W        W32939   1.714   1.962   0.766
61269W        W32940  15.858  22.138  14.410
61270W        W32941   2.849  26.180  13.518
61271W        W32942  42.547  39.997  13.086
61272W        W32943   8.216  32.127   4.556
61273W        W32944   8.760   9.877   4.102
61274W        W32945   2.153  39.426  11.178
61275W        W32946  23.228   9.248   3.413
61276W        W32947  20.255  35.530   3.397
61277W        W32948   9.138  18.447   1.208
61278W        W32949  15.419  44.827  14.951
61279W        W32950  33.873  12.126   1.306
61280W        W32951  33.631  22.654   4.067
61281W        W32952  36.073  44.693   4.557
61282W        W32953  23.710  19.930  12.880
61283W        W32954  29.619  16.014   1.408
61284W        W32955  25.935  25.487  13.825
61285W        W32956   6.679  39.465  12.060
61286W        W32957  43.543  12.854   0.396
61287W        W32958  43.180  16.625   4.593
61288W        W32959  10.316  38.904  13.944
61289W        W32960  26.107  28.919  12.932
61290W        W32961  32.112  13.114  11.606
61291W        W32962   5.197  20.200   3.107
61292W        W32963   1.216   9.718  13.053
61293W        W32964  14.697   9.371  13.469
61294W        W32965  41.064   5.615   2.150
61295W        W32966  11.334  10.285   0.408
61296W        W32967  40.987  14.168   1.955
61297W        W32968   7.808  12.477  11.096
61298W        W32969  40.440  24.585  12.376
61299W        W32970  35.570  29.090  12.339
61300W        W32971  42.990  41.349  13.478
61301W        W32972  34.142   1.225  13.971
61302W        W32973   5.204  23.603  14.977
61303W        W32974  33.930  39.601   3.301
61304W        W32975  40.435  31.457   4.557
61305W        W32976  17.972  16.753   2.050
61306W        W32977  40.558  32.478  14.465
61307W        W32978  31.423  35.984  11.974
61308W        W32979  14.678  44.569  14.883
61309W        W32980  33.322   9.165   1.839
61310W        W32981  19.653  11.352   1.905
61311W        W32982   5.339  16.730  14.142
61312W        W32983  27.689  38.512   1.272
61313W        W32984  19.672   4.683  12.764
61314W        W32985  37.569  43.237   3.708
61315W        W32986  31.515  13.090  12.004
61316W        W32987  13.620  17.284   4.208
61317W        W32988   4.809  38.044   2.761
61318W        W32989  30.168  20.688   3.412
61319W        W32990  37.353  30.691  11.245
61320W        W32991  16.140  40.444  13.011
61321W        W32992  17.732  24.343   3.125
61322W        W32993  26.731   7.176  13.029
61323W        W32994   4.080  37.375   2.631
61324W        W32995   8.819  29.355   4.518
61325W        W32996  32.981  16.183   1.203
61326W        W32997   9.319  28.665  13.652
61327W        W32998  41.784  32.770   3.563
61328W        W32999  18.845   1.748  14.982
61329W        W33000   0.978  31.852   4.479
61330W        W33001   7.769  25.959  13.813
61331W        W33002  19.685  20.994  12.403
61332W        W33003   2.905  39.260  12.020
61333W        W33004  44.199  30.828   3.323
61334W        W33005  28.721  38.334   1.327
61335W        W33006  12.649  21.959   2.214
61336W        W33007   5.383   9.751   3.445
61337W        W33008  15.492  26.526  10.525
61338W        W33009  15.085  39.422   1.536
61339W        W33010  33.393  31.949   2.407
61340W        W33011  11.698  20.684   4.695
61341W        W33012  31.510   4.861   2.228
61342W        W33013   0.193  32.285   4.283
61343W        W33014  34.065   0.421  13.413
61344W        W33015  35.107  35.408  12.781
61345W        W33016  25.535  44.714  14.034
61346W        W33017  33.545  36.618   4.727
61347W        W33018  40.251  20.309  12.003
61348W        W33019   2.528   6.474  13.995
61349W        W33020  11.085  26.750  11.469
61350W        W33021   0.621  33.398   0.346
61351W        W33022  25.312   2.798   2.693
61352W        W33023   1.776   1.330   0.039
61353W        W33024  11.717  25.141  10.803
61354W        W33025  26.826  44.480   5.197
61355W        W33026  18.450   4.246   1.927
61356W        W33027  41.333   9.133   3.714
61357W        W33028  27.131  24.990  13.456
61358W        W33029  44.350  43.553   2.852
61359W        W33030  14.608   4.908   4.091
61360W        W33031  16.808  31.409  14.986
61361W        W33032   1.158  24.531  14.300
61362W        W33033  43.723  41.337  14.892
61363W        W33034  10.601  25.062  12.552
61364W        W33035   8.594   0.144   2.876
61365W        W33036   6.228  13.398  11.369
61366W        W33037   0.883  36.647   3.742
61367W        W33038  31.188   8.449  11.512
61368W        W33039  44.661  20.187   5.542
61369W        W33040  33.145  37.261  10.776
61370W        W33041  17.310   5.573   1.788
61371W        W33042  12.139  30.836   4.033
61372W        W33043  35.979  27.936   1.260
61373W        W33044  23.790   6.900  12.469
61374W        W33045   6.985  27.905   0.825
61375W        W33046   7.319  11.181  10.696
61376W        W33047  10.603  31.516   4.260
61377W        W33048  37.985  29.187   2.695
61378W        W33049  29.177  34.283   0.866
61379W        W33050  11.386  34.217   4.546
61380W        W33051  36.429  39.348  12.779
61381W        W33052  19.248  15.855   3.773
61382W        W33053  33.772  25.483  11.583
61383W        W33054   1.756  44.813  11.949
61384W        W33055  36.829  12.827   4.148
61385W        W33056   3.517  33.497  11.178
61386W        W33057  23.110  30.666   2.303
61387W        W33058  11.351   1.965   3.723
61388W        W33059  22.622  42.261  12.104
61389W        W33060  21.186  12.308   4.766
61390W        W33061  21.372  35.129  14.360
61391W        W33062  27.872  25.229   0.248
61392W        W33063  25.093   2.504  14.409
61393W        W33064  30.584  23.111  12.816
61394W        W33065  27.220  28.508   4.359
61395W        W33066   4.634  36.043   3.232
61396W        W33067  33.022  42.957  12.096
61397W        W33068  20.523   4.391  11.249
61398W        W33069  21.445  34.675  13.502
61399W        W33070  19.583  17.050   4.000
61400W        W33071  20.976  10.376   3.755
61401W        W33072  34.973  38.011  10.512
61402W        W33073  15.038  25.082   1.816
61403W        W33074   1.318   5.338  12.758
61404W        W33075   2.309  32.938  11.993
61405W        W33076  16.097  19.531   1.264
61406W        W33077  29.940   1.487  11.887
61407W        W33078  43.373  42.306  12.642
61408W        W33079  13.876  16.560   0.009
61409W        W33080  40.911  33.969   4.016
61410W        W33081  28.779   3.914  11.910
61411W        W33082  28.420  18.532   4.142
61412W        W33083  17.199  19.178   2.206
61413W        W33084   5.673  29.922   3.226
61414W        W33085  19.024  10.239  14.128
61415W        W33086  33.322  31.200  11.566
61416W        W33087  30.825   0.033  14.401
61417W        W33088  12.817   3.188  11.556
61418W        W33089  27.822   5.024   9.938
61419W        W33090  11.345  34.323  12.042
61420W        W33091  37.631  31.870  11.426
61421W        W33092  43.590  41.920  10.741
61422W        W33093  22.548  10.198  10.435
61423W        W33094  16.922  42.470  11.434
61424W        W33095   5.118  21.638   3.268
61425W        W33096  41.880  19.599   0.778
61426W        W33097  19.680  30.208   1.374
61427W        W33098  41.915  38.295   1.553
61428W        W33099  44.898  29.248   0.960
61429W        W33100  27.937  38.612   0.832
61430W        W33101  28.001   7.069   4.166
61431W        W33102  10.701  41.346  14.603
61432W        W33103   6.243  35.831   4.610
61433W        W33104  12.981  44.405   4.642
61434W        W33105  21.947  29.630  14.910
61435W        W33106  23.187  34.615  11.184
61436W        W33107  22.095  24.720   2.299
61437W        W33108  29.631   7.723   2.836
61438W        W33109   1.116  24.126   4.326
61439W        W33110  35.173  36.805   2.374
61440W        W33111  26.337  12.158   4.669
61441W        W33112  21.885   4.763   3.176
61442W        W33113  10.641  16.109  13.386
61443W        W33114  30.977  29.921   0.964
61444W        W33115  17.309   1.460  12.913
61445W        W33116  44.899   2.433   4.170
61446W        W33117   2.309  33.320   2.703
61447W        W33118  28.296  43.839   0.474
61448W        W33119   3.875  39.143   0.679
61449W        W33120  23.025  26.129  13.909
61450W        W33121  12.675  37.048  12.125
61451W        W33122  23.300  44.933  13.159
61452W        W33123  18.275  24.965   2.824
61453W        W33124  21.776  36.330  12.455
61454W        W33125  34.360  10.911   0.225
61455W        W33126  10.386  16.616  10.696
61456W        W33127   9.862   4.953   2.621
61457W        W33128   1.042   2.254   1.860
61458W        W33129  21.722  37.795  14.899
61459W        W33130  17.152  15.503  13.003
61460W        W33131   0.836   0.390   1.192
61461W        W33132  11.815  43.302   1.565
61462W        W33133  41.057  18.495  12.579
61463W        W33134   9.584  21.221   0.972
61464W        W33135  18.881   5.879   0.421
61465W        W33136  44.997  29.408   2.242
61466W        W33137  20.294  41.525  13.047
61467W        W33138   3.179  14.678  14.427
61468W        W33139   4.943  44.968   3.679
61469W        W33140   9.036  40.851   2.674
61470W        W33141  26.060   1.490  11.903
61471W        W33142  27.152  21.499  11.513
61472W        W33143   8.799  37.108   1.884
61473W        W33144  42.148  37.961  14.853
61474W        W33145  11.034  14.422  14.017
61475W        W33146  17.494   1.028   1.992
61476W        W33147  41.930   5.278  11.191
61477W        W33148  30.182  41.103  12.930
61478W        W33149   7.807  30.460   0.807
61479W        W33150  43.713  26.710   0.232
61480W        W33151  24.587  41.095  12.117
61481W        W33152  32.889  30.088   2.417
61482W        W33153  29.550  39.769   2.487
61483W        W33154  18.639  25.520  12.002
61484W        W33155  24.098  14.733   0.675
61485W        W33156  43.757  33.122   0.314
61486W        W33157   7.892   6.502   5.053
61487W        W33158   0.876   9.318   2.725
61488W        W33159  15.701  33.302  10.352
61489W        W33160  12.040  19.728  10.595
61490W        W33161  37.508  22.118   0.758
61491W        W33162  12.942  36.091   2.219
61492W        W33163  10.633  12.220   4.389
61493W        W33164  29.936  30.566  10.607
61494W        W33165  14.883   5.765   0.271
61495W        W33166  24.479  23.998   2.796
61496W        W33167  24.784  41.433   3.142
61497W        W33168   9.237  22.171   2.642
61498W        W33169   9.574  39.180   1.927
61499W        W33170   6.672  40.884   2.220
61500W        W33171  21.962  20.264  14.714
61501W        W33172  27.450  12.820   0.098
61502W        W33173  37.929  31.168   4.331
61503W        W33174  34.155  36.948   1.334
61504W        W33175   7.151   1.887   4.117
61505W        W33176  31.108  11.227  13.457
61506W        W33177  31.374  22.200  11.144
61507W        W33178  31.635   4.215   3.524
61508W        W33179  22.471   8.521   1.466
61509W        W33180  14.609  31.063   2.379
61510W        W33181  26.033   6.479  10.865
61511W        W33182   9.460  20.874  10.909
61512W        W33183  24.098  27.392   4.115
61513W        W33184  36.426  39.511   3.149
61514W        W33185  35.116  27.954   4.141
61515W        W33186  24.963  11.847  11.726
61516W        W33187  19.313  11.657   5.079
61517W        W33188   9.097  10.784  14.543
61518W        W33189  38.234  22.811  13.107
61519W        W33190  29.224  15.390  11.075
61520W        W33191   9.507  34.522  11.503
61521W        W33192  43.362  22.066   3.688
61522W        W33193  25.086  44.190  10.889
61523W        W33194  18.623  25.261   1.020
61524W        W33195  36.902  26.874  14.771
61525W        W33196  21.575  38.444   0.492
61526W        W33197  27.750   1.537  11.247
61527W        W33198   3.193  34.997  12.058
61528W        W33199  27.711  24.591  11.244
61529W        W33200  20.555  18.264  13.466
61530W        W33201   7.772  20.580   4.932
61531W        W33202  18.030  36.613  14.948
61532W        W33203  39.111  21.821   0.913
61533W        W33204  17.378  13.352  13.439
61534W        W33205   0.976   3.168   0.437
61535W        W33206  10.966   3.575  12.485
61536W        W33207  29.473  19.514  13.775
61537W        W33208   5.283   1.501  14.161
61538W        W33209   1.798  11.600  13.079
61539W        W33210  44.899  34.578   4.855
61540W        W33211  13.753   1.953   0.748
61541W        W33212  33.013  32.478   4.772
61542W        W33213  22.828  12.560  12.480
61543W        W33214  32.208  33.463   1.779
61544W        W33215  28.422  40.630   0.655
61545W        W33216  22.537  22.072  14.028
61546W        W33217  37.598  12.021  12.002
61547W        W33218  34.927  42.144  12.663
61548W        W33219   7.433   1.376   0.311
61549W        W33220  38.019  42.121   2.366
61550W        W33221  43.052   8.275   2.275
61551W        W33222  25.575  17.134  12.877
61552W        W33223   0.049  23.510  10.885
61553W        W33224   0.202  43.483   0.811
61554W        W33225  13.423  34.695   3.015
61555W        W33226  32.520  32.434   3.900
61556W        W33227  12.653   8.812  12.202
61557W        W33228  44.607  41.939   1.719
61558W        W33229  43.352   0.729   3.366
61559W        W33230  13.015   7.163   2.384
61560W        W33231   5.830   6.895  14.360
61561W        W33232  44.215   2.444   4.755
61562W        W33233  21.210  18.645   2.600
61563W        W33234  10.060  18.303  12.492
61564W        W33235  10.256  34.540  11.242
61565W        W33236   6.438  23.786   4.102
61566W        W33237   5.625  12.793   4.574
61567W        W33238  35.979  35.310  11.144
61568W        W33239  17.334  13.944   0.824
61569W        W33240  30.995   5.149  13.456
61570W        W33241   2.503  20.780  13.103
61571W        W33242  27.132   2.941   3.769
61572W        W33243  24.062  32.366   0.924
61573W        W33244  15.540  24.491   2.832
61574W        W33245  29.471  14.132   2.723
61575W        W33246  18.336   5.241   3.291
61576W        W33247  28.646   5.406   1.197
61577W        W33248  26.513  13.183  11.620
61578W        W33249  27.774  26.311   0.270
61579W        W33250  31.171  10.843  14.970
61580W        W33251  37.879  15.605   1.633
61581W        W33252  31.074   3.276  14.285
61582W        W33253  23.245   6.124  11.163
61583W        W33254  36.462  41.324   3.926
61584W        W33255  37.912  23.288  12.987
61585W        W33256  32.624  33.964  13.001
61586W        W33257  19.344  35.038  11.598
61587W        W33258  19.124   5.661   0.002
61588W        W33259  26.992  21.027   1.301
61589W        W33260  36.332  26.396  13.048
61590W        W33261  16.308   5.087   2.762
61591W        W33262  12.207  18.583   3.904
61592W        W33263  32.909   9.427  14.736
61593W        W33264  36.100  20.564  13.263
61594W        W33265   4.733  31.941   0.240
61595W        W33266   2.125  21.851  14.472
61596W        W33267  18.649  38.364   4.136
61597W        W33268  35.480   1.692  10.801
61598W        W33269  32.657  40.971   1.843
61599W        W33270  10.591  10.476   4.384
61600W        W33271  13.258   6.194  10.723
61601W        W33272   8.187  39.324  13.566
61602W        W33273   8.821  38.521   4.658
61603W        W33274  14.915  31.985   2.209
61604W        W33275  40.496  26.707  10.667
61605W        W33276  42.554   9.185  13.832
61606W        W33277  11.099   4.269   2.400
61607W        W33278  22.707   9.795  10.805
61608W        W33279  41.762  21.938  13.977
61609W        W33280  15.345  36.689   1.385
61610W        W33281  19.613  28.870   0.878
61611W        W33282   2.957   8.033  14.521
61612W        W33283   2.737  22.153  14.855
61613W        W33284  36.950  33.636  11.137
61614W        W33285   1.186  27.744  14.339
61615W        W33286  22.693  38.000   5.513
61616W        W33287   5.307  41.075   2.163
61617W        W33288  23.767   6.338  11.922
61618W        W33289  24.226   9.625  11.317
61619W        W33290  39.381  22.108  14.063
61620W        W33291  42.576  12.185  10.247
61621W        W33292  31.623  17.438  10.738
61622W        W33293  42.799  33.895  12.446
61623W        W33294  20.138  12.839   0.951
61624W        W33295  39.057   0.533  13.452
61625W        W33296  24.755  42.941  10.435
61626W        W33297  16.880  36.445   3.700
61627W        W33298   9.733  33.579  10.749
61628W        W33299   3.134   6.617  10.978
61629W        W33300  36.967  32.565   2.345
61630W        W33301  43.957  14.857   1.359
61631W        W33302  24.598  37.976   2.144
61632W        W33303  42.933   2.482   0.030
61633W        W33304  17.527  39.273  11.123
61634W        W33305  20.346  13.664  10.659
61635W        W33306  25.717  38.974   0.500
61636W        W33307  42.329  13.834   2.153
61637W        W33308  36.915  31.721  13.587
61638W        W33309  31.638  39.394  12.488
61639W        W33310   4.709  16.136  14.262
61640W        W33311  11.455  28.479   4.612
61641W        W33312  34.217   6.970   4.679
61642W        W33313  29.014  31.371   1.384
61643W        W33314   5.227   2.188  13.549
61644W        W33315  10.170  34.309   2.824
61645W        W33316  18.579   1.371  13.437
61646W        W33317  13.142  39.682   1.319
61647W        W33318   3.791   5.028  11.183
61648W        W33319   4.071  22.808  14.428
61649W        W33320  10.968  37.175   4.440
61650W        W33321  30.119  22.559   3.952
61651W        W33322  27.559   4.361  14.398
61652W        W33323  38.004  42.443   0.728
61653W        W33324  31.966  18.184  13.393
61654W        W33325  27.073   8.723   1.491
61655W        W33326  32.847  40.152   1.328
61656W        W33327   3.177  12.374   3.805
61657W        W33328  44.463  34.563   2.707
61658W        W33329   3.799   6.454   2.391
61659W        W33330  24.305  24.612   1.632
61660W        W33331   1.327  10.776  10.621
61661W        W33332  10.755  14.876   2.897
61662W        W33333  25.238  22.680  14.878
61663W        W33334  25.557  27.242  10.508
61664W        W33335  37.850  19.485   0.408
61665W        W33336   7.668  35.348   0.081
61666W        W33337  21.759   5.506  10.648
61667W        W33338  38.461  24.063   0.253
61668W        W33339  20.286  10.013   4.117
61669W        W33340   5.304  14.374  13.692
61670W        W33341  37.971  16.006  10.942
61671W        W33342  29.927  17.776  14.849
61672W        W33343  30.618  35.400   3.411
61673W        W33344  17.754  42.047  12.329
61674W        W33345   1.652  10.601  12.954
61675W        W33346  36.840  42.462  10.997
61676W        W33347  38.335   8.885  11.477
61677W        W33348  42.244  10.838   2.592
61678W        W33349  27.684  25.175   2.370
61679W        W33350   3.340  42.472   1.289
61680W        W33351  42.884   4.558  11.477
61681W        W33352  42.563  33.641  13.744
61682W        W33353  23.635   7.999   1.773
61683W        W33354  18.694   0.198  12.088
61684W        W33355   7.129  40.335   3.554
61685W        W33356  18.780   1.264   0.789
61686W        W33357   3.294  37.384  10.756
61687W        W33358  14.674  43.520   0.815
61688W        W33359  20.291  42.925   2.755
61689W        W33360   1.746  34.065  12.610
61690W        W33361  30.608   5.859  10.706
61691W        W33362  37.740  14.531   3.279
61692W        W33363  30.030  25.263   2.306
61693W        W33364  25.536  15.839   0.851
61694W        W33365  35.480  25.576  11.197
61695W        W33366   7.991  37.948   4.068
61696W        W33367  40.285  20.132  11.502
61697W        W33368  33.589   4.707   2.754
61698W        W33369  10.661  31.871  14.965
61699W        W33370  17.889   6.352  14.477
61700W        W33371   0.509  38.335  12.462
61701W        W33372   6.666  27.663  12.452
61702W        W33373  27.077  28.459   1.380
61703W        W33374  12.610  15.123  13.086
61704W        W33375  34.410  28.985   0.843
61705W        W33376  11.831  30.145   1.393
61706W        W33377  31.759   1.826  10.141
61707W        W33378  30.595  25.130   0.357
61708W        W33379  37.707  34.651  11.928
61709W        W33380  16.576  32.102   1.458
61710W        W33381  10.791   9.959  11.561
61711W        W33382  41.102  23.481  11.638
61712W        W33383  31.990  36.551  13.938
61713W        W33384  12.612  43.135  11.188
61714W        W33385  36.295  17.622  14.330
61715W        W33386  13.384  43.303  13.907
61716W        W33387  20.309  11.495   3.248
61717W        W33388  23.558  31.875   3.525
61718W        W33389  36.142  40.905  12.358
61719W        W33390  33.490  36.953   3.704
61720W        W33391  13.245  26.955  13.396
61721W        W33392  34.675  41.330   3.205
61722W        W33393   7.456  44.742  12.950
61723W        W33394  37.093  38.104   4.627
61724W        W33395  28.040  28.720  11.872
61725W        W33396  15.308  34.884  12.444
61726W        W33397  24.288   3.984  14.346
61727W        W33398  32.584  40.030  10.318
61728W        W33399   5.985  43.833  14.643
61729W        W33400   8.895  18.076   1.468
61730W        W33401  19.545  41.938  10.551
61731W        W33402  25.902   4.115  11.138
61732W        W33403  24.106  36.710  14.712
61733W        W33404   0.282  25.102  10.324
61734W        W33405   5.252  32.690   3.834
61735W        W33406  39.338  36.815   1.825
61736W        W33407   4.784  35.158   2.272
61737W        W33408  20.807   0.326   4.464
61738W        W33409  16.757  12.358   0.371
61739W        W33410   1.662  20.934   3.217
61740W        W33411   3.299  12.897  10.281
61741W        W33412  27.046   6.832   0.495
61742W        W33413  13.220  30.140  14.923
61743W        W33414  12.802  22.581  10.599
61744W        W33415   7.683  15.524  12.891
61745W        W33416  32.156  40.072  13.643
61746W        W33417  27.888  44.353  11.056
61747W        W33418  10.856  41.377  13.130
61748W        W33419  26.067  20.966  12.181
61749W        W33420  32.674   2.336   1.715
61750W        W33421   2.293  25.102   1.904
61751W        W33422  41.093  10.183  13.658
61752W        W33423  27.950  37.611  11.047
61753W        W33424   1.495  29.654   1.325
61754W        W33425   4.534  22.563   0.684
61755W        W33426   4.851  30.449   1.427
61756W        W33427  43.811  30.406   4.151
61757W        W33428  20.296  42.030  12.906
61758W        W33429  33.125  22.059   0.470
61759W        W33430  38.030  20.787  13.084
61760W        W33431  10.851  30.926  12.037
61761W        W33432   7.855  27.647  14.330
61762W        W33433   1.916  22.931  11.612
61763W        W33434  17.616  12.078   4.599
61764W        W33435  36.820  12.793   0.941
61765W        W33436  36.109  11.096  12.963
61766W        W33437  20.896  17.912  13.421
61767W        W33438  39.512  12.753   3.648
61768W        W33439   1.170  13.069  13.469
61769W        W33440  30.702   9.783   4.524
61770W        W33441  32.049   0.476   0.410
61771W        W33442   1.411  15.738  12.900
61772W        W33443  37.384  10.215  14.804
61773W        W33444  39.543  11.242   0.679
61774W        W33445  17.892  16.609  11.171
61775W        W33446   0.091  27.224  14.722
61776W        W33447  24.182  24.449  14.350
61777W        W33448   5.727  29.658   3.675
61778W        W33449  15.478  26.739  13.435
61779W        W33450   0.209   6.904   1.363
61780W        W33451   8.853  40.644   1.446
61781W        W33452  27.945  17.703  12.589
61782W        W33453  15.358  27.428  11.049
61783W        W33454   5.989  36.945  14.824
61784W        W33455   6.967   1.606   2.711
61785W        W33456  30.719  20.909  12.920
61786W        W33457  35.833  29.047   2.111
61787W        W33458  44.440  28.904  12.952
61788W        W33459  21.568  10.588   3.383
61789W        W33460  30.462   1.178  11.453
61790W        W33461   5.716   0.915  10.697
61791W        W33462  21.505  38.893   9.938
61792W        W33463  23.178  34.652   2.196
61793W        W33464  37.576   1.543   3.448
61794W        W33465  30.508  42.823  11.024
61795W        W33466  16.357   4.406  14.494
61796W        W33467  38.838  21.323   4.120
61797W        W33468  14.603  13.314  11.936
61798W        W33469  15.350  21.054  12.896
61799W        W33470  42.246   0.570   2.694
61800W        W33471  11.814  10.276  12.637
61801W        W33472  10.389  23.672   2.808
61802W        W33473  22.617  10.576  12.491
61803W        W33474  23.476  21.095   2.704
61804W        W33475  19.567   8.857   0.347
61805W        W33476  40.878   1.984   0.564
61806W        W33477   1.005  36.972  14.523
61807W        W33478   4.174   0.167  13.931
61808W        W33479  44.874  12.656   1.196
61809W        W33480  33.582  28.266   1.811
61810W        W33481  28.066   3.226   3.751
61811W        W33482  17.762   0.690   2.288
61812W        W33483  35.511  43.849   2.423
61813W        W33484   6.944  44.814  14.198
61814W        W33485   8.978  42.874  10.420
61815W        W33486   9.652  42.726  12.864
61816W        W33487   7.959  27.633   1.303
61817W        W33488  38.516  29.954  10.687
61818W        W33489   3.576   3.137  14.101
61819W        W33490  39.151  26.101   2.332
61820W        W33491  26.488  19.728   1.177
61821W        W33492  10.761  44.560   2.834
61822W        W33493   3.040  22.086  10.694
61823W        W33494  21.222   2.994  14.183
61824W        W33495  23.506  37.004   0.020
61825W        W33496  33.499  26.400  14.722
61826W        W33497  16.715  14.472   1.233
61827W        W33498  13.268  40.406  12.868
61828W        W33499  12.167  30.011  11.561
61829W        W33500  16.469  28.596   3.763
61830W        W33501  23.744  27.564  14.640
61831W        W33502  42.097  12.364  10.337
61832W        W33503   2.637   0.985  11.302
61833W        W33504  28.886  23.560   1.367
61834W        W33505  15.244  44.293  13.427
61835W        W33506  30.982   5.173  14.901
61836W        W33507  42.212  32.255   5.058
61837W        W33508   0.459  11.765  11.464
61838W        W33509  17.200  27.322   1.778
61839W        W33510  11.270  12.584  13.458
61840W        W33511  31.702  13.312  14.267
61841W        W33512  19.299  14.712   1.799
61842W        W33513  21.781   3.885  10.979
61843W        W33514  17.291   8.806  10.533
61844W        W33515  35.301  41.938   1.206
61845W        W33516  29.137  13.630  13.722
61846W        W33517   7.628   8.941   2.343
61847W        W33518  26.543  43.528  11.717
61848W        W33519   4.211  22.073   0.057
61849W        W33520  23.742   9.415  13.790
61850W        W33521  25.694  35.663  12.467
61851W        W33522   3.320  10.484   2.252
61852W        W33523  12.798  10.123  13.822
61853W        W33524  36.413  10.362   4.200
61854W        W33525  22.320  34.387  12.565
61855W        W33526  31.143  14.780   2.206
61856W        W33527  11.867   3.949   4.545
61857W        W33528  12.746  11.077  14.977
61858W        W33529  14.677  29.099  11.000
61859W        W33530   7.626  43.147  13.916
61860W        W33531  29.975  44.214   0.829
61861W        W33532  14.124  28.783  13.386
61862W        W33533  16.228  14.781  14.062
61863W        W33534  11.211  44.374   4.568
61864W        W33535  39.548  41.373  11.269
61865W        W33536  44.505  29.186   3.235
61866W        W33537  20.503  31.084  12.969
61867W        W33538  43.919  36.170  12.077
61868W        W33539  18.733  10.787  14.246
61869W        W33540  42.899  16.039   2.046
61870W        W33541  13.664  34.844   4.668
61871W        W33542   3.862   5.401   0.241
61872W        W33543  29.879  33.097  13.818
61873W        W33544  14.363  44.847  10.414
61874W        W33545  33.691  38.130  13.097
61875W        W33546  38.932  42.295   3.362
61876W        W33547  43.250   6.121   3.789
61877W        W33548  18.472  33.493   1.451
61878W        W33549  36.883  42.970   2.794
61879W        W33550  20.678  12.582  12.385
61880W        W33551   6.230  31.850  13.001
61881W        W33552   9.640  30.540   0.476
61882W        W33553  43.620  43.884   1.778
61883W        W33554   2.362  14.381   1.795
61884W        W33555  16.319  36.045  13.148
61885W        W33556   1.441  15.377  13.287
61886W        W33557  41.929  17.108  14.667
61887W        W33558  19.635  23.059  12.491
61888W        W33559   9.215  37.385   2.717
61889W        W33560  30.971  37.510   4.537
61890W        W33561  18.589  19.024  11.500
61891W        W33562  26.284  30.102  12.104
61892W        W33563  41.528  15.296   4.213
61893W        W33564  33.053  17.084  11.549
61894W        W33565   7.028  11.311  11.109
61895W        W33566  15.989  28.971   5.080
61896W        W33567   5.213  29.580  12.949
61897W        W33568  42.048  32.121  10.170
61898W        W33569  32.850  11.178  10.686
61899W        W33570  27.879   0.985  13.844
61900W        W33571  10.268  27.903   3.746
61901W        W33572  34.184   3.712   0.254
61902W        W33573  40.603  14.388   1.099
61903W        W33574  35.068   4.883   4.546
61904W        W33575  36.530  16.363   3.362
61905W        W33576  41.068  29.936  14.229
61906W        W33577   0.384  27.024   4.839
61907W        W33578  29.604  41.877   0.848
61908W        W33579  24.282  24.011   4.107
61909W        W33580   5.414  30.542  12.960
61910W        W33581  41.491  41.024  10.632
61911W        W33582  40.117  15.794   0.558
61912W        W33583   6.182  16.689  12.603
61913W        W33584  34.366  27.546   3.802
61914W        W33585  23.609  26.666  11.629
61915W        W33586  14.343   0.455  12.404
61916W        W33587  21.412  32.868   0.176
61917W        W33588   8.805  20.833   0.782
61918W        W33589  18.139  33.316   2.252
61919W        W33590  28.510  44.782  11.199
61920W        W33591  37.426  44.252  10.983
61921W        W33592   0.460  10.826  14.298
61922W        W33593  22.016   0.882  11.593
61923W        W33594   6.636   1.593  14.065
61924W        W33595  44.504   7.810  13.325
61925W        W33596  19.317   5.890  13.615
61926W        W33597  33.995  29.198  14.896
61927W        W33598  17.164  12.044   0.435
61928W        W33599  28.144  17.692   4.242
61929W        W33600  16.203  34.990   2.092
61930W        W33601  10.464  14.828  11.037
61931W        W33602  31.442   6.825  10.338
61932W        W33603  20.071  14.191  14.938
61933W        W33604  20.232  28.374  13.836
61934W        W33605   6.624   4.891  10.644
61935W        W33606  25.535  23.651  13.156
61936W        W33607  26.844  14.220   0.884
61937W        W33608  31.108  13.143   4.257
61938W        W33609   4.403  32.952  11.196
61939W        W33610  15.656   9.226  11.914
61940W        W33611  37.380   6.462  11.027
61941W        W33612  39.509  41.927   0.492
61942W        W33613  30.549  44.871   4.606
61943W        W33614  24.254  20.600  12.452
61944W        W33615  15.578   6.448   4.979
61945W        W33616  42.308  24.375   2.365
61946W        W33617   3.886   5.532  11.138
61947W        W33618   0.569  29.593  12.763
61948W        W33619  11.600  12.507   0.829
61949W        W33620  12.358  20.182  13.255
61950W        W33621   6.792   1.244   4.013
61951W        W33622   0.382  17.106   4.347
61952W        W33623  20.125   2.781   4.839
61953W        W33624  22.033  19.247  11.041
61954W        W33625  31.454   9.119  13.799
61955W        W33626  18.486   3.739   1.729
61956W        W33627  43.984   3.380  11.097
61957W        W33628  43.895   3.264   0.989
61958W        W33629  15.577  33.003   0.695
61959W        W33630  33.334  24.525  11.733
61960W        W33631  10.062  31.851   2.510
61961W        W33632   0.961  29.957  14.018
61962W        W33633  42.130  39.749  14.938
61963W        W33634  32.165   9.582  12.534
61964W        W33635  28.121  18.009   0.789
61965W        W33636  28.155   4.874   1.990
61966W        W33637  32.876   8.306  10.734
61967W        W33638  14.412  11.528   1.325
61968W        W33639  14.063  38.220   1.551
61969W        W33640  29.388   5.645   1.709
61970W        W33641   8.207  10.421   2.721
61971W        W33642  40.298   4.968   0.818
61972W        W33643  28.939  27.104   0.374
61973W        W33644   5.151   0.333   1.392
61974W        W33645  31.620   3.638  11.992
61975W        W33646  29.992  31.150  14.067
61976W        W33647  25.587  37.714  12.589
61977W        W33648  18.210   4.753  12.114
61978W        W33649   5.806  44.944   0.549
61979W        W33650  23.980  41.386  10.638
61980W        W33651  22.232  21.595  10.821
61981W        W33652  18.536  34.525   0.390
61982W        W33653  34.865   1.525  12.164
61983W        W33654  42.823  31.541  14.848
61984W        W33655   8.504   2.461   4.276
61985W        W33656   8.188  26.002   1.242
61986W        W33657  42.964   3.379   4.124
61987W        W33658   6.368  15.884  10.629
61988W        W33659  30.949   5.079  10.337
61989W        W33660  42.096   6.736   2.312
61990W        W33661  43.840  13.074   1.768
61991W        W33662  25.541  13.711  12.338
61992W        W33663  16.559  12.843  13.604
61993W        W33664  21.488   9.050  13.814
61994W        W33665  29.037   6.018  11.036
61995W        W33666  41.646  44.062   3.535
61996W        W33667   2.637  18.022  10.725
61997W        W33668  24.823  37.368   2.976
61998W        W33669   1.337  14.108  14.992
61999W        W33670   7.206   6.163   3.655
62000W        W33671  37.972  27.717   2.349
62001W        W33672  12.106  40.532   0.937
62002W        W33673  15.728  10.202  12.463
62003W        W33674  40.938  34.890  13.615
62004W        W33675  16.182  29.995  11.818
62005W        W33676   8.735  36.370   3.584
62006W        W33677   1.278  12.718   1.185
62007W        W33678  39.830  17.551   1.766
62008W        W33679  26.948  39.064  14.320
62009W        W33680   7.898  34.522   2.747
62010W        W33681  25.798  28.670  10.647
62011W        W33682   9.207   2.310   1.400
62012W        W33683   2.313   7.363  11.387
62013W        W33684  27.081  40.991  11.361
62014W        W33685   4.766   6.812   3.234
62015W        W33686   5.308  14.678  14.556
62016W        W33687  25.521  38.849  11.914
62017W        W33688  15.540  32.554   4.966
62018W        W33689   5.792  43.364  14.511
62019W        W33690  19.963  35.335  14.360
62020W        W33691  40.374   5.465  11.983
62021W        W33692  43.517  15.308  14.491
62022W        W33693  28.335  34.430  13.999
62023W        W33694  43.388   2.872  14.789
62024W        W33695  14.461  35.857  14.491
62025W        W33696  19.177  44.720   4.916
62026W        W33697   3.148  38.379  13.052
62027W        W33698  34.808   4.277   0.630
62028W        W33699  32.117   3.818  13.411
62029W        W33700  13.168  40.674   2.091
62030W        W33701  19.123  40.558   3.042
62031W        W33702   6.429  43.688  12.934
62032W        W33703  23.503  24.051  14.979
62033W        W33704  23.786  21.081  13.099
62034W        W33705  44.499  35.567  12.805
62035W        W33706  37.989  29.547  14.473
62036W        W33707  43.341   5.442  11.188
62037W        W33708  40.557  12.699   2.869
62038W        W33709  24.509  41.221  14.281
62039W        W33710  38.819  40.986  13.418
62040W        W33711  14.146  15.487   0.795
62041W        W33712  17.529   9.709   1.350
62042W        W33713  39.537  24.295  11.057
62043W        W33714  16.000  23.130  11.088
62044W        W33715  10.842   1.980  11.218
62045W        W33716  17.809  27.584  10.732
62046W        W33717  17.957   6.563   0.676
62047W        W33718  22.568  28.521   1.840
62048W        W33719  28.536  24.455  12.924
62049W        W33720  10.666   6.587  13.463
62050W        W33721  43.917   0.254  11.090
62051W        W33722  35.813   3.487  12.103
62052W        W33723  17.819  36.146  10.563
62053W        W33724  25.925  21.783  11.218
62054W        W33725   8.078   1.945  11.681
62055W        W33726  37.421  21.777  14.034
62056W        W33727   8.668   9.744   3.111
62057W        W33728  26.002  19.968  13.473
62058W        W33729   6.337  24.793   2.771
62059W        W33730   4.862  23.707  14.600
62060W        W33731  31.211  32.267  12.752
62061W        W33732  11.311   6.907   4.029
62062W        W33733  25.721  25.072   3.865
62063W        W33734  16.875  41.933  11.843
62064W        W33735  19.027  19.939   3.312
62065W        W33736   1.573  35.966   3.153
62066W        W33737  39.470  12.245   2.855
62067W        W33738  38.469  42.297  14.842
62068W        W33739   2.987   9.501  11.832
62069W        W33740  30.313  37.904   4.150
62070W        W33741  11.953  24.936   5.120
62071W        W33742  35.117  12.855  11.453
62072W        W33743  18.258  23.089  14.575
62073W        W33744  27.971  12.285   2.317
62074W        W33745  44.744  39.013   1.581
62075W        W33746  34.713  16.612  11.173
62076W        W33747  19.784   4.757   4.139
62077W        W33748   3.595  14.015  12.832
62078W        W33749  40.279   5.941   0.645
62079W        W33750  10.262  22.039   2.255
62080W        W33751   0.268   0.258  14.515
62081W        W33752  35.008  42.783  12.213
62082W        W33753  13.040   3.810   0.760
62083W        W33754  34.145   3.599   2.421
62084W        W33755  30.557   3.807   0.306
62085W        W33756  29.547  32.708   0.403
62086W        W33757   2.056  33.756   4.842
62087W        W33758  38.494  34.953   2.717
62088W        W33759  14.869  31.533   3.723
62089W        W33760  27.212  20.313  12.104
62090W        W33761  40.316  33.955   3.171
62091W        W33762  33.051  29.259  14.905
62092W        W33763  15.376  32.140   3.316
62093W        W33764  41.587  36.707  11.126
62094W        W33765  41.798   6.638  12.431
62095W        W33766  29.898  42.206   4.321
62096W        W33767  38.023  18.700  13.327
62097W        W33768  37.550   2.703   1.997
62098W        W33769   1.373  25.509   3.551
62099W        W33770  21.742  25.746  10.955
62100W        W33771  16.587   8.072  13.232
62101W        W33772   3.311  13.597   3.502
62102W        W33773  40.996  20.055   0.740
62103W        W33774  34.339  17.689   4.038
62104W        W33775  32.084   5.825  14.231
62105W        W33776  31.527  42.915   1.216
62106W        W33777  38.784   5.628  14.493
62107W        W33778   0.020  33.605  14.035
62108W        W33779   9.206   4.451  10.977
62109W        W33780   6.612   0.806   2.754
62110W        W33781  29.477   1.510  13.040
62111W        W33782  26.210  39.469  12.998
62112W        W33783   5.541  40.292  11.490
62113W        W33784  39.364   4.398   3.102
62114W        W33785  32.715  13.568  12.237
62115W        W33786  20.811  19.202   1.938
62116W        W33787  28.155  25.400  12.473
62117W        W33788   0.150  37.252   1.053
62118W        W33789  14.594  21.293   2.148
62119W        W33790   0.453  16.467  13.412
62120W        W33791  13.402  41.262  14.484
62121W        W33792  13.767   1.846   2.671
62122W        W33793  30.963  36.066   4.653
62123W        W33794  18.608  11.019  10.284
62124W        W33795  33.118  10.597   0.076
62125W        W33796   4.369  28.452   4.150
62126W        W33797  41.800  16.545  13.455
62127W        W33798   7.500  31.589  11.419
62128W        W33799  43.869   4.290   0.860
62129W        W33800   6.939   2.267  14.477
62130W        W33801  30.660  25.999  12.436
62131W        W33802   3.671  32.547  10.708
62132W        W33803  34.433   0.494   4.745
62133W        W33804  41.269  28.042  13.411
62134W        W33805  21.078   6.173   0.861
62135W        W33806  42.337  33.347   1.712
62136W        W33807  32.664   7.806  11.569
62137W        W33808  44.694   7.623  11.978
62138W        W33809  32.913  28.011  13.100
62139W        W33810   8.221  20.570   1.689
62140W        W33811  40.009  34.050  10.560
62141W        W33812   1.194  40.632   3.242
62142W        W33813  16.494  43.950   2.774
62143W        W33814  23.182  30.677   3.733
62144W        W33815  41.654  37.825   0.715
62145W        W33816  34.561  25.015  11.533
62146W        W33817  43.534  14.127  13.457
62147W        W33818  22.725  37.377   5.142
62148W        W33819   6.792  12.602   4.262
62149W        W33820  35.023  13.136  11.032
62150W        W33821  27.620  11.256   3.710
62151W        W33822  19.859  20.274   3.151
62152W        W33823  37.598  41.885   0.900
62153W        W33824  32.017  33.870   2.078
62154W        W33825  27.732  43.417  14.917
62155W        W33826  31.958  36.865  13.531
62156W        W33827  32.458  10.235   0.752
62157W        W33828  26.102  35.284   4.173
62158W        W33829   2.186   2.024  14.445
62159W        W33830  42.085  19.834  11.679
62160W        W33831  30.063  18.728  13.064
62161W        W33832  31.561  21.550  11.773
62162W        W33833   1.387  43.685  10.616
62163W        W33834  30.508   5.712  11.967
62164W        W33835  42.042  17.707   0.401
62165W        W33836  43.822   0.922   3.233
62166W        W33837  28.549  12.146   3.360
62167W        W33838  41.126  19.955   1.694
62168W        W33839  33.111   3.958   3.751
62169W        W33840   4.168   4.925   4.429
62170W        W33841  37.316  39.642   2.155
62171W        W33842   3.426   9.209  11.757
62172W        W33843   8.519   5.042  13.994
62173W        W33844  31.384  32.444   3.761
62174W        W33845  43.343  21.288  12.571
62175W        W33846   2.605  36.814   3.143
62176W        W33847  34.157  28.494   0.878
62177W        W33848  39.994   1.300   3.329
62178W        W33849   0.502  44.753   0.138
62179W        W33850  22.618  15.326  11.496
62180W        W33851  20.268  17.764  14.392
62181W        W33852  10.345  39.617  12.985
62182W        W33853  31.547  24.329   2.879
62183W        W33854  22.212  29.444  14.438
62184W        W33855  11.567  24.340  11.953
62185W        W33856  26.292  22.093   2.822
62186W        W33857  14.322  12.416   1.740
62187W        W33858  14.739  44.936   4.559
62188W        W33859  21.767   5.229  13.072
62189W        W33860  42.868  31.012  14.953
62190W        W33861  29.506  21.806   2.430
62191W        W33862  44.700  35.281  11.217
62192W        W33863  14.340   1.246  12.830
62193W        W33864  35.870  29.104  14.298
62194W        W33865  40.562  43.009   1.708
62195W        W33866  40.370  10.286  12.391
62196W        W33867  32.714  39.109  11.964
62197W        W33868  18.819  17.975   4.299
62198W        W33869  12.231   9.667   2.398
62199W        W33870  11.611  20.574  10.145
62200W        W33871   8.876   6.421  13.415
62201W        W33872   5.973   2.654   0.065
62202W        W33873  39.246  41.861  12.941
62203W        W33874  38.618  26.269   0.759
62204W        W33875   1.404  38.076   3.761
62205W        W33876   9.877  17.025  11.793
62206W        W33877   9.503   1.938   5.059
62207W        W33878  13.121  19.668  13.371
62208W        W33879  36.032  10.344  14.399
62209W        W33880  31.786  44.022   3.703
62210W        W33881  30.623  26.461  14.980
62211W        W33882   0.059  33.177  14.329
62212W        W33883  21.592  29.655   0.908
62213W        W33884  36.688   9.760   1.915
62214W        W33885  15.349  15.164   1.275
62215W        W33886  15.924  31.255   3.312
62216W        W33887  18.544   6.052   5.162
62217W        W33888  14.196  26.336  14.373
62218W        W33889  39.098  18.257  11.991
62219W        W33890   0.267   7.079   4.674
62220W        W33891  43.299  12.106   4.268
62221W        W33892  37.407  34.944   3.229
62222W        W33893   9.302  11.133  12.354
62223W        W33894  17.295   2.028   4.033
62224W        W33895   5.423  23.581   0.451
62225W        W33896   6.680  21.786  14.449
62226W        W33897  35.389  11.746  13.801
62227W        W33898  16.639  33.390  11.329
62228W        W33899  28.156  17.481  13.028
62229W        W33900  26.770   0.296  12.943
62230W        W33901  19.980  43.370   4.997
62231W        W33902  33.622  36.018   3.390
62232W        W33903  20.584  42.917  10.267
62233W        W33904  38.754  10.330  13.631
62234W        W33905   5.843  40.788  10.600
62235W        W33906  43.736   6.287   1.926
62236W        W33907  16.676  16.065   2.180
62237W        W33908  37.397  27.976   1.617
62238W        W33909  26.466   5.975   0.360
62239W        W33910  20.044  25.998  14.831
62240W        W33911  34.344  40.723  11.166
62241W        W33912  27.265  42.886   4.527
62242W        W33913  16.216  17.165  14.512
62243W        W33914   6.174  13.067   4.564
62244W        W33915  37.468  29.576  14.340
62245W        W33916  40.833  24.010  14.894
62246W        W33917  22.443  13.805   3.668
62247W        W33918  27.146   4.630   2.760
62248W        W33919   2.384  44.216   3.193
62249W        W33920  10.719  19.166   3.357
62250W        W33921  20.215   7.378  11.691
62251W        W33922   6.410  35.465   2.489
62252W        W33923  42.790   0.145  13.821
62253W        W33924  36.634  21.792  12.487
62254W        W33925  36.497  10.865  14.513
62255W        W33926  17.352  34.376  14.014
62256W        W33927  42.533  39.115  14.321
62257W        W33928  24.648  33.541   3.431
62258W        W33929  33.038  20.315   3.077
62259W        W33930  31.127   8.281  10.617
62260W        W33931  14.543  21.698  12.824
62261W        W33932   5.833  24.666  10.926
62262W        W33933  36.945  11.663  10.433
62263W        W33934  15.375  13.502  14.792
62264W        W33935  37.474   1.348  12.558
62265W        W33936  10.356  17.461  12.983
62266W        W33937  15.659  10.234  11.043
62267W        W33938   3.978  40.574  11.607
62268W        W33939   9.791   2.000   2.270
62269W        W33940  23.136   0.354   2.083
62270W        W33941  12.896   0.252  10.758
62271W        W33942   6.910  40.772  13.889
62272W        W33943  44.360  43.020  14.730
62273W        W33944  37.433  29.058   0.908
62274W        W33945  27.104  44.851  12.070
62275W        W33946  32.386  24.133   2.848
62276W        W33947  37.798  13.127   2.939
62277W        W33948  13.035  21.651   2.670
62278W        W33949   3.219  44.816  14.987
62279W        W33950   8.682  18.115   0.465
62280W        W33951  20.458  40.278   2.325
62281W        W33952   2.932   0.732  12.326
62282W        W33953  28.080   3.744   3.627
62283W        W33954   7.304  39.677  12.815
62284W        W33955  39.013  35.270  13.136
62285W        W33956  19.716  25.095  14.031
62286W        W33957  36.089  11.347  12.515
62287W        W33958   0.317  36.409  10.687
62288W        W33959  21.719  33.088   1.200
62289W        W33960   7.398  25.204   2.298
62290W        W33961  42.783  28.653   0.318
62291W        W33962  33.775  40.144  12.467
62292W        W33963  19.641   0.844  11.106
62293W        W33964  42.293  15.058  12.906
62294W        W33965  32.170  13.003   0.781
62295W        W33966  25.596  38.859   2.846
62296W        W33967  12.397   8.226  13.001
62297W        W33968  32.439  11.327   1.947
62298W        W33969  32.632  34.599   4.174
62299W        W33970   2.804   6.960  10.706
62300W        W33971  19.023   9.784  11.461
62301W        W33972  32.426  35.700  11.156
62302W        W33973  12.900   0.132   0.531
62303W        W33974  25.436  23.248   3.245
62304W        W33975  43.981  17.162   3.589
62305W        W33976  44.025  26.181  10.312
62306W        W33977  37.553   9.389  11.508
62307W        W33978  12.646   3.814   1.449
62308W        W33979  12.168  32.617   2.322
62309W        W33980  39.440  26.839   1.828
62310W        W33981  26.475  38.626  13.552
62311W        W33982  13.591  43.413  14.387
62312W        W33983  32.433  42.013  13.334
62313W        W33984   6.640  29.827   0.211
62314W        W33985  44.314  22.005   1.896
62315W        W33986   8.114  44.725  13.329
62316W        W33987  40.345  37.791  13.460
62317W        W33988  43.303  34.904   4.293
62318W        W33989  40.235  39.390  14.015
62319W        W33990   5.781  21.392  12.601
62320W        W33991   0.747  42.489   0.829
62321W        W33992  27.877  14.672  12.926
62322W        W33993  41.914  23.649  13.347
62323W        W33994  21.808  23.081   0.937
62324W        W33995  19.696  39.776  11.234
62325W        W33996  40.523  25.226  10.328
62326W        W33997  42.325  39.087   1.841
62327W        W33998  24.347  37.435   2.775
62328W        W33999  39.084   7.983   4.051
62329W        W34000  31.398   0.321  13.770
62330W        W34001  12.845   8.002   3.916
62331W        W34002  32.936   5.859   2.270
62332W        W34003  29.207  13.142  13.976
62333W        W34004  34.066  33.124  11.902
62334W        W34005  13.050  10.286   4.206
62335W        W34006  24.627  21.567   1.323
62336W        W34007  19.073  34.453  13.994
62337W        W34008  34.621  42.493   4.516
62338W        W34009  20.842  19.123  13.859
62339W        W34010  43.108  29.583   1.948
62340W        W34011  29.959   2.683  14.919
62341W        W34012   0.386  31.469   1.221
62342W        W34013  26.042  24.270  14.476
62343W        W34014  35.415  20.830  13.173
62344W        W34015  23.270  34.034  12.822
62345W        W34016  42.074  19.826   0.345
62346W        W34017  28.973   2.290  13.064
62347W        W34018  10.662  37.116  13.415
62348W        W34019  40.066  23.471   1.974
62349W        W34020  24.689   3.744   0.850
62350W        W34021  21.731  21.250   1.902
62351W        W34022  29.379  24.164   3.222
62352W        W34023  12.450  43.930   3.149
62353W        W34024  43.583  24.339   0.164
62354W        W34025  20.641  44.750  13.519
62355W        W34026  31.641  44.676   1.984
62356W        W34027  43.007   6.929   4.738
62357W        W34028   6.473   3.159  14.544
62358W        W34029  25.624   3.192   3.799
62359W        W34030   9.893  12.674   2.877
62360W        W34031  12.280  33.830   2.732
62361W        W34032  23.549  38.577   5.465
62362W        W34033   0.949   6.358  10.373
62363W        W34034  17.187  23.722   2.369
62364W        W34035  16.524  27.536   0.886
62365W        W34036  10.375   9.807  10.775
62366W        W34037   4.336  18.855  12.814
62367W        W34038  14.350  32.892   4.210
62368W        W34039  42.032  39.636  13.661
62369W        W34040  21.774  28.949  12.138
62370W        W34041  26.569  21.777   4.460
62371W        W34042  37.644  27.451  14.406
62372W        W34043  21.051   1.989  14.287
62373W        W34044  17.550  34.218  11.737
62374W        W34045  26.354   6.491   0.113
62375W        W34046   0.767  30.538  13.829
62376W        W34047  17.739  43.580  11.204
62377W        W34048   1.475  43.344  14.556
62378W        W34049  39.362   9.631  11.191
62379W        W34050  34.892  13.366  11.466
62380W        W34051  43.065  20.841   3.564
62381W        W34052  33.037   4.431   3.596
62382W        W34053  16.592  15.576  12.438
62383W        W34054   8.613  32.662  12.845
62384W        W34055  34.854  38.630   1.404
62385W        W34056  31.329  40.550   0.894
62386W        W34057   8.329  29.975  12.014
62387W        W34058   3.462  31.665  12.910
62388W        W34059  10.447   2.428   0.837
62389W        W34060  29.603  44.807   4.859
62390W        W34061  43.422  15.649   0.412
62391W        W34062  21.720   2.828  12.542
62392W        W34063  38.862  34.949  10.577
62393W        W34064  13.084  13.186  12.004
62394W        W34065   5.740   6.176   0.871
62395W        W34066  22.591   4.253  10.986
62396W        W34067  17.228  14.214  13.902
62397W        W34068  22.287  37.326   1.402
62398W        W34069  37.313  25.115  14.630
62399W        W34070  12.235  26.056  14.458
62400W        W34071  33.321  13.856  10.406
62401W        W34072  35.016  18.537   4.608
62402W        W34073  43.750  25.672   0.512
62403W        W34074  11.779  26.740   3.329
62404W        W34075   9.213  33.444  14.325
62405W        W34076  31.537  16.599  11.774
62406W        W34077   0.057   4.927  11.043
62407W        W34078  43.359   4.613  12.714
62408W        W34079  37.968  11.637  14.689
62409W        W34080  40.791   4.233   0.706
62410W        W34081   3.789  43.277  11.636
62411W        W34082   8.023  18.794  11.209
62412W        W34083   8.178  44.945   2.164
62413W        W34084  42.295  14.080  11.971
62414W        W34085  19.833  24.134   2.355
62415W        W34086  36.523  11.532   0.532
62416W        W34087   4.372  30.916   1.675
62417W        W34088  23.512   9.890  13.766
62418W        W34089  36.336  43.305  10.723
62419W        W34090  43.578  24.693  11.533
62420W        W34091  19.815  28.633  14.006
62421W        W34092  28.728   0.496  12.538
62422W        W34093  16.335  23.694  10.801
62423W        W34094   6.809   7.096   3.895
62424W        W34095   3.929   2.822   3.259
62425W        W34096  39.929  13.135  12.607
62426W        W34097  43.485  26.569  10.743
62427W        W34098  17.332  30.706  14.733
62428W        W34099  34.090  20.665  12.475
62429W        W34100  37.476  25.623  13.356
62430W        W34101   3.305  34.519  11.897
62431W        W34102   8.342  21.543   1.506
62432W        W34103  31.903  28.238   0.605
62433W        W34104  41.641   9.296  13.353
62434W        W34105   9.961  21.433   0.172
62435W        W34106   3.698  23.180   1.775
62436W        W34107  40.829   2.760   2.696
62437W        W34108  17.759  20.453   2.342
62438W        W34109   8.847  21.771   3.224
62439W        W34110  14.050  13.916  12.615
62440W        W34111  39.741  12.036   2.195
62441W        W34112  29.704  43.234   2.270
62442W        W34113  32.081  33.393  12.638
62443W        W34114  19.007  24.508  11.186
62444W        W34115  32.877  42.851   0.505
62445W        W34116  42.593  13.305  11.560
62446W        W34117  37.026   2.727   2.108
62447W        W34118  42.187   5.803   3.624
62448W        W34119  11.193   9.386  11.984
62449W        W34120   0.996   4.140  14.359
62450W        W34121   9.604  15.221  14.900
62451W        W34122  31.195  26.669   3.765
62452W        W34123  16.074  23.775  14.092
62453W        W34124  33.979  36.745   2.710
62454W        W34125  43.840   6.492  14.873
62455W        W34126  30.886  32.904  10.470
62456W        W34127   4.044   6.261  10.627
62457W        W34128  29.498  31.828  13.108
62458W        W34129   2.357  27.130  12.701
62459W        W34130   0.427  39.879   1.846
62460W        W34131  32.915  23.963   3.860
62461W        W34132  26.967   0.250   2.498
62462W        W34133  37.897  36.493  12.615
62463W        W34134  39.932  29.775   1.261
62464W        W34135  16.690  36.090   4.606
62465W        W34136  35.501  30.557  12.621
62466W        W34137  11.436   1.193   4.122
62467W        W34138   2.449  41.609   2.940
62468W        W34139   5.659  16.559  12.599
62469W        W34140  43.334  10.208   4.054
62470W        W34141  17.702  18.683  12.669
62471W        W34142   3.526  28.669   1.875
62472W        W34143  41.838  41.758   2.263
62473W        W34144   7.715  42.990  11.175
62474W        W34145  42.430  20.066  11.385
62475W        W34146   5.903  23.673   1.080
62476W        W34147  18.355  24.492   1.771
62477W        W34148  41.248  41.772   4.544
62478W        W34149   1.297  23.102   4.050
62479W        W34150   4.840   6.382  11.688
62480W        W34151  22.202   8.180   0.039
62481W        W34152  43.915   5.518   1.438
62482W        W34153  11.101  11.576   3.628
62483W        W34154  36.462   7.930   1.047
62484W        W34155  44.453  33.935  11.744
62485W        W34156  33.452  13.873  13.581
62486W        W34157  24.175  18.092  12.542
62487W        W34158  27.367  31.443  14.559
62488W        W34159   4.871  16.244   4.136
62489W        W34160  25.207   4.390  13.759
62490W        W34161  15.616  39.893  12.047
62491W        W34162  23.272  25.210   0.487
62492W        W34163  41.252  11.864   4.677
62493W        W34164  22.952   7.501  11.929
62494W        W34165  13.757   2.784  12.125
62495W        W34166  26.056  18.034  11.509
62496W        W34167  29.846  19.742   3.190
62497W        W34168  26.968  42.043   0.245
62498W        W34169  11.171  38.045  13.964
62499W        W34170   1.793  37.823  12.993
62500W        W34171  34.208  20.049  11.545
62501W        W34172  22.085   8.422  13.103
62502W        W34173   4.751  25.107  14.689
62503W        W34174   8.251   0.536   4.036
62504W        W34175   6.974   8.244   1.926
62505W        W34176  18.086  29.922   4.749
62506W        W34177   1.808  32.482  14.748
62507W        W34178  33.871   0.759  14.062
62508W        W34179   4.209  12.926  11.736
62509W        W34180  41.405   4.961  13.494
62510W        W34181  25.097  34.909  10.711
62511W        W34182   7.308   9.558  14.924
62512W        W34183  26.637  29.593   2.614
62513W        W34184  25.579   8.409   3.612
62514W        W34185  34.528  22.903  13.830
62515W        W34186  20.284   6.173  14.605
62516W        W34187  43.807  19.006  13.455
62517W        W34188  44.888  17.157   4.712
62518W        W34189  43.522  23.507  11.617
62519W        W34190   7.083   9.638  11.590
62520W        W34191  36.388  18.524  11.690
62521W        W34192  26.507  35.587  10.763
62522W        W34193   7.851  21.480  14.459
62523W        W34194  22.264  23.479  13.917
62524W        W34195  39.523   8.811   0.483
62525W        W34196  21.368  27.095   5.025
62526W        W34197  37.705  28.850  10.702
62527W        W34198  33.113   8.764  10.746
62528W        W34199  40.891  30.333  11.653
62529W        W34200  24.713   8.368   0.879
62530W        W34201  21.524  14.202  12.630
62531W        W34202  24.092  30.327  11.731
62532W        W34203  44.275  28.146   0.043
62533W        W34204  29.556  22.124   1.545
62534W        W34205  34.150  32.979   1.387
62535W        W34206  15.710   8.208   4.509
62536W        W34207  38.590  26.032  13.811
62537W        W34208  29.112  41.366   0.481
62538W        W34209   6.434   2.065   0.454
62539W        W34210  23.976  29.567  14.957
62540W        W34211   1.754  44.524   1.527
62541W        W34212   7.196  39.521  11.956
62542W        W34213  32.958  28.256  14.953
62543W        W34214   3.415  31.535   0.305
62544W        W34215  18.863  10.335   2.408
62545W        W34216  20.694  15.022  11.996
62546W        W34217  29.557  13.236  14.364
62547W        W34218   8.740   0.349  13.314
62548W        W34219  40.700   8.710  12.881
62549W        W34220   4.280  18.496   2.267
62550W        W34221  30.928   3.119   4.687
62551W        W34222  42.835  19.483   1.574
62552W        W34223  34.812  32.020  10.385
62553W        W34224   1.012  10.815  12.495
62554W        W34225  33.074  36.576   0.462
62555W        W34226  15.509  33.508   4.602
62556W        W34227  11.398  29.554  10.673
62557W        W34228  17.790  35.867   0.971
62558W        W34229  23.700  13.606  12.385
62559W        W34230  33.967  26.896   2.736
62560W        W34231  31.866   6.716  10.615
62561W        W34232   3.627  41.877   0.812
62562W        W34233   7.852  37.522  13.916
62563W        W34234  28.024  17.355   1.333
62564W        W34235   3.409  17.058  12.580
62565W        W34236  26.427  32.178  14.803
62566W        W34237  26.646  37.649  11.481
62567W        W34238   9.879   3.393   1.308
62568W        W34239  41.334   9.412  14.810
62569W        W34240   7.140  30.183   3.284
62570W        W34241  36.158   8.335  12.487
62571W        W34242  44.231  19.697  14.094
62572W        W34243   6.969  20.654   3.865
62573W        W34244  17.773  39.909  13.040
62574W        W34245  42.996  14.121  14.086
62575W        W34246  22.906  31.580  11.548
62576W        W34247  18.263   5.799  10.944
62577W        W34248  42.877   6.580  12.932
62578W        W34249  42.470  20.252   2.121
62579W        W34250  41.258  10.587  12.924
62580W        W34251  32.238  26.876  11.910
62581W        W34252   8.280  36.739   0.362
62582W        W34253  27.919  27.781   2.441
62583W        W34254  29.749  39.843   4.229
62584W        W34255  42.400  29.110  13.280
62585W        W34256  36.500  32.098  10.561
62586W        W34257  23.066   1.101  11.107
62587W        W34258  41.856  39.214   2.522
62588W        W34259  37.552  25.696  13.864
62589W        W34260  21.055  20.518   2.182
62590W        W34261  27.697   7.927  12.457
62591W        W34262   7.814  32.447   4.545
62592W        W34263   9.643   5.608   4.208
62593W        W34264  21.186  38.607   2.358
62594W        W34265  12.201  25.616   1.130
62595W        W34266  16.086  39.302   1.262
62596W        W34267  26.979  13.414   2.728
62597W        W34268  15.200   9.373  12.250
62598W        W34269   7.949  17.990  14.331
62599W        W34270  15.787  20.525   0.560
62600W        W34271  32.797  27.573  11.556
62601W        W34272  13.355  24.007   0.241
62602W        W34273  25.078  12.339   1.295
62603W        W34274  32.955  13.050   4.386
62604W        W34275   0.876  41.823  12.041
62605W        W34276  38.496  24.241   0.817
62606W        W34277  40.735  19.092   0.962
62607W        W34278  35.549  25.213  12.561
62608W        W34279  40.786  31.884  10.666
62609W        W34280  28.952   6.696   3.714
62610W        W34281  16.001  11.721   1.915
62611W        W34282  18.367  25.070   5.402
62612W        W34283  18.216   1.650  10.440
62613W        W34284  27.133  17.754  14.882
62614W        W34285  24.051  35.939   4.001
62615W        W34286   1.357  28.090  12.026
62616W        W34287  18.706  28.413  12.363
62617W        W34288   8.506  33.172  11.154
62618W        W34289  23.061  10.295  11.591
62619W        W34290  44.467   8.201  10.627
62620W        W34291  31.100   9.131   0.854
62621W        W34292  26.615   2.756   4.595
62622W        W34293  24.736  40.095   2.715
62623W        W34294   7.425  35.541   3.419
62624W        W34295   6.416  12.874   2.852
62625W        W34296  43.775  32.500   4.866
62626W        W34297  33.785  26.762  14.451
62627W        W34298  14.902  38.807  11.817
62628W        W34299  40.663   4.584   9.774
62629W        W34300  20.049  37.935   2.779
62630W        W34301  41.787  26.872  14.544
62631W        W34302   0.790  19.558  14.771
62632W        W34303  44.089  40.456  11.056
62633W        W34304   4.688  16.223   0.297
62634W        W34305  31.164  24.514   0.544
62635W        W34306  30.624  36.396  11.478
62636W        W34307  21.214  40.061  13.906
62637W        W34308  38.884  10.214  12.609
62638W        W34309   4.773  41.512  14.961
62639W        W34310  12.293  30.514  11.136
62640W        W34311  37.584  34.135  11.985
62641W        W34312  37.918  37.886   5.541
62642W        W34313  44.315  12.626   4.079
62643W        W34314  37.571  27.946  12.935
62644W        W34315   7.916   1.442  14.560
62645W        W34316   3.891  40.341  12.057
62646W        W34317  15.620  23.605  10.383
62647W        W34318  41.026  44.990  13.459
62648W        W34319   9.275   9.627   1.515
62649W        W34320  41.366  29.715   2.274
62650W        W34321  30.723  39.937  13.485
62651W        W34322  32.434  35.157  11.052
62652W        W34323   7.579  36.386  10.787
62653W        W34324  32.051  33.478  13.646
62654W        W34325  30.917  36.055  13.920
62655W        W34326  22.593  41.056   5.518
62656W        W34327   4.701  36.953  14.441
62657W        W34328  35.535  26.191  14.510
62658W        W34329   1.931  31.611   0.593
62659W        W34330  25.192   3.901   2.648
62660W        W34331   5.690  14.937  11.215
62661W        W34332  33.703  39.373  14.350
62662W        W34333  19.559  32.069  12.002
62663W        W34334  44.874  24.933  10.684
62664W        W34335  31.940  43.527  10.662
62665W        W34336  10.313  25.186   4.332
62666W        W34337  18.125  34.439   0.043
62667W        W34338  34.967   0.465  11.183
62668W        W34339  41.840  16.783  14.286
62669W        W34340  23.466  38.291  12.464
62670W        W34341  40.356  24.214   0.677
62671W        W34342   0.898  29.163   4.958
62672W        W34343  19.257  35.705   0.087
62673W        W34344  10.845  41.990  10.793
62674W        W34345  14.809  32.360  11.537
62675W        W34346  33.294  24.514   3.318
62676W        W34347  24.203  19.920   2.009
62677W        W34348  37.078  40.879  12.185
62678W        W34349  39.141  27.525  11.402
62679W        W34350  27.594   1.019   3.893
62680W        W34351  22.071  18.191   0.364
62681W        W34352   7.208   9.633  14.031
62682W        W34353   7.818   3.036   0.813
62683W        W34354  37.492  27.632  13.917
62684W        W34355  37.285   2.973  13.247
62685W        W34356   6.194  25.947   4.907
62686W        W34357  31.956  10.380   3.592
62687W        W34358   2.517  18.315  11.185
62688W        W34359  16.333  24.574  11.484
62689W        W34360  34.392  10.387   4.509
62690W        W34361  30.685  38.835   4.229
62691W        W34362  36.348  28.544  10.807
62692W        W34363  40.877  29.131  11.766
62693W        W34364  11.358  11.335  13.999
62694W        W34365  44.534   8.257  14.998
62695W        W34366   1.720  19.991   0.759
62696W        W34367   8.701  22.084   4.206
62697W        W34368   8.129  44.403  14.038
62698W        W34369  29.153  23.651  10.711
62699W        W34370   7.641  22.260  12.322
62700W        W34371  30.715  31.512   4.544
62701W        W34372  37.506  36.484   2.218
62702W        W34373   6.947  44.289  13.433
62703W        W34374  26.886  28.468  10.876
62704W        W34375  41.282  30.369   3.058
62705W        W34376  29.859  11.200   2.258
62706W        W34377  19.738  32.017  13.129
62707W        W34378   4.693  41.321   5.025
62708W        W34379  37.962  30.687  12.901
62709W        W34380  39.981  27.532   1.717
62710W        W34381   3.834   0.178  11.080
62711W        W34382   2.717  27.543  10.982
62712W        W34383   1.822  39.548  12.603
62713W        W34384  21.153  33.312   0.010
62714W        W34385   1.409  17.644   4.225
62715W        W34386   6.692   7.638  13.200
62716W        W34387  36.616  18.655  10.767
62717W        W34388   3.204  27.139  12.315
62718W        W34389  17.318   7.203  10.364
62719W        W34390  42.799  44.956   3.973
62720W        W34391  27.953  23.306  13.247
62721W        W34392  15.326   2.166   2.343
62722W        W34393  25.087  32.974  12.171
62723W        W34394   7.820  15.268  11.468
62724W        W34395  21.655  15.567   4.616
62725W        W34396  10.939  21.099  14.013
62726W        W34397  42.845  15.808   1.537
62727W        W34398  18.728  36.365  10.698
62728W        W34399  43.731  19.936   1.469
62729W        W34400   3.274  33.951  14.761
62730W        W34401   8.597  13.564  13.534
62731W        W34402   6.225  30.001   0.457
62732W        W34403   0.356  35.627   3.270
62733W        W34404   8.351   6.521  11.683
62734W        W34405  10.316   0.442  14.456
62735W        W34406   0.528  41.342   0.299
62736W        W34407  30.298   3.335   1.030
62737W        W34408  14.680  39.786  11.851
62738W        W34409  21.402  34.139   2.665
62739W        W34410  32.642   6.403  10.752
62740W        W34411  30.672  40.723  11.919
62741W        W34412  31.279  23.109  13.621
62742W        W34413   6.196  25.018  11.165
62743W        W34414  35.398  21.731  12.866
62744W        W34415   1.866  38.330  13.446
62745W        W34416  27.766  39.154   2.349
62746W        W34417  12.242  44.088  14.999
62747W        W34418   9.704  22.993   3.737
62748W        W34419  27.577  12.067   2.574
62749W        W34420  22.397  22.764  14.741
62750W        W34421   5.317  12.288  13.428
62751W        W34422  37.370  14.666  11.119
62752W        W34423  40.388   0.078  14.671
62753W        W34424  14.194  42.417  11.201
62754W        W34425  23.261  26.543   0.714
62755W        W34426   7.147  38.896   0.389
62756W        W34427  37.538  18.095  14.522
62757W        W34428  16.372  44.683  10.715
62758W        W34429  24.767  28.270  12.371
62759W        W34430  29.240  41.518   1.327
62760W        W34431  32.086  21.508  11.955
62761W        W34432  31.953  30.513   0.734
62762W        W34433  37.913  35.645  12.166
62763W        W34434  28.976  26.601   0.515
62764W        W34435  30.294  18.058   4.157
62765W        W34436  24.688  42.298   3.490
62766W        W34437  23.560   0.706  13.357
62767W        W34438  26.633  23.603   2.798
62768W        W34439  34.634   7.984  13.072
62769W        W34440  41.456  21.923   5.045
62770W        W34441  12.012  13.710  12.923
62771W        W34442  43.755  12.734  10.628
62772W        W34443  44.444  23.730  10.230
62773W        W34444  21.533  39.279  11.989
62774W        W34445  42.100  17.939  14.359
62775W        W34446  24.018  43.045   0.911
62776W        W34447  22.774  18.577   0.226
62777W        W34448  40.586  18.737  13.862
62778W        W34449  20.850  22.644   0.319
62779W        W34450   7.427  36.853   3.763
62780W        W34451   6.320   5.787  12.482
62781W        W34452  14.899  30.431   4.203
62782W        W34453  20.189  19.231  14.330
62783W        W34454  20.035  39.465   4.368
62784W        W34455   2.749  37.036   2.677
62785W        W34456   9.029  29.300  11.172
62786W        W34457  41.484  40.484   1.416
62787W        W34458   2.672   8.726   1.412
62788W        W34459  23.189  13.548   1.500
62789W        W34460  20.472   6.726  12.348
62790W        W34461  22.611  12.322   0.330
62791W        W34462  27.928  21.758   2.174
62792W        W34463  26.748   7.570   4.282
62793W        W34464  21.346   7.168   4.769
62794W        W34465  34.695   1.690  14.496
62795W        W34466  16.226  28.613  11.727
62796W        W34467  26.517  16.007   2.182
62797W        W34468  41.428  28.201  14.275
62798W        W34469  30.511  25.195   3.916
62799W        W34470  22.687  33.154   4.227
62800W        W34471   9.596  32.666  12.398
62801W        W34472  20.630  29.339   0.854
62802W        W34473  21.906   1.741  11.536
62803W        W34474  23.159   9.351  14.392
62804W        W34475  10.336   9.435  14.364
62805W        W34476  29.731  14.690   4.578
62806W        W34477  43.271   9.694   2.291
62807W        W34478   1.816   0.251  11.199
62808W        W34479  36.355  21.746  12.045
62809W        W34480  44.039  28.545   0.291
62810W        W34481  34.341   0.343   0.850
62811W        W34482  10.898  32.204   2.386
62812W        W34483  31.118  36.575   3.805
62813W        W34484   5.210   4.895   0.897
62814W        W34485  14.189   3.495   3.156
62815W        W34486  41.257  37.056   2.650
62816W        W34487   4.627   4.282   2.761
62817W        W34488  39.711  12.292  12.145
62818W        W34489   9.763  23.255  12.787
62819W        W34490  20.072  19.661  13.908
62820W        W34491  31.738  24.719  13.517
62821W        W34492  20.314  20.041  12.085
62822W        W34493  40.862   0.792   4.613
62823W        W34494  13.090  43.569   0.767
62824W        W34495   4.874  44.078   0.347
62825W        W34496  26.585  38.393   3.585
62826W        W34497  43.775  26.252  13.916
62827W        W34498  19.583  28.890  12.504
62828W        W34499  30.901   3.538  12.436
62829W        W34500   0.462  26.245  12.859
62830W        W34501  25.495   2.736  14.709
62831W        W34502  30.651  23.605  10.996
62832W        W34503   3.412   5.373  12.437
62833W        W34504  16.536   3.803  14.546
62834W        W34505  11.164  33.337   4.583
62835W        W34506  16.072  33.637  12.582
62836W        W34507  31.441   5.338  13.676
62837W        W34508  13.345  37.540  14.851
62838W        W34509   6.446  17.237   0.950
62839W        W34510  16.175  32.840   1.490
62840W        W34511  29.103  11.307   0.495
62841W        W34512   3.894  19.704   3.285
62842W        W34513  18.100   7.511  13.323
62843W        W34514   6.374   6.856   3.755
62844W        W34515  21.244  44.965  12.930
62845W        W34516  40.399  20.763   0.883
62846W        W34517  42.067  18.825  11.529
62847W        W34518  28.205  11.059  11.896
62848W        W34519  11.644  22.736  11.526
62849W        W34520  34.948  23.251   2.197
62850W        W34521  41.935  10.630  13.461
62851W        W34522  34.936   7.337  14.912
62852W        W34523  27.051  44.867   3.721
62853W        W34524  42.375  11.890   2.327
62854W        W34525  17.951  17.590   3.397
62855W        W34526  26.687  17.936   2.635
62856W        W34527  12.384  27.211  11.078
62857W        W34528  18.529  44.419   0.426
62858W        W34529  31.904  42.852   3.633
62859W        W34530  37.522  40.450  14.005
62860W        W34531   3.369  17.517  10.587
62861W        W34532  20.515   8.167  13.942
62862W        W34533  34.366  16.371   0.218
62863W        W34534  16.560  13.321  13.871
62864W        W34535  31.935   4.728   2.857
62865W        W34536  40.044  26.599   2.242
62866W        W34537  23.874   7.897   0.323
62867W        W34538   7.490   4.837   2.873
62868W        W34539  33.623  30.371  11.203
62869W        W34540  26.462  23.929   1.418
62870W        W34541  15.568   4.798  11.125
62871W        W34542  27.434  26.758   2.320
62872W        W34543  30.548  21.662   3.081
62873W        W34544  30.263   3.271   4.135
62874W        W34545  44.556   0.992   3.652
62875W        W34546   7.827  25.487   2.439
62876W        W34547  16.561  29.697  12.619
62877W        W34548  39.993  13.704   0.495
62878W        W34549   4.660  36.000   4.594
62879W        W34550  41.701  37.221   2.310
62880W        W34551  42.421  29.723  14.405
62881W        W34552  14.198   6.696   1.011
62882W        W34553  43.838   5.448   2.390
62883W        W34554  38.944  15.724   1.197
62884W        W34555  43.866   7.363  12.883
62885W        W34556  30.433  37.127  14.862
62886W        W34557  23.768  23.786   2.865
62887W        W34558   8.589  39.033   4.791
62888W        W34559   0.910   3.526   0.879
62889W        W34560  42.431   8.255  14.041
62890W        W34561  30.913   7.696  12.492
62891W        W34562  44.654  31.518   2.185
62892W        W34563   2.001  30.577   2.305
62893W        W34564  29.477  30.068  10.068
62894W        W34565  27.999  25.553   2.801
62895W        W34566   8.436  21.121   2.853
62896W        W34567  16.244  33.420  10.633
62897W        W34568  33.877  14.187  13.587
62898W        W34569  40.309  35.358  14.253
62899W        W34570  43.921  41.885  12.040
62900W        W34571  32.579  43.024  13.837
62901W        W34572   1.905  40.952  13.789
62902W        W34573   0.492  34.489  11.062
62903W        W34574  29.820  37.097  11.960
62904W        W34575  21.783  26.112  11.517
62905W        W34576   8.650   4.161   3.113
62906W        W34577  22.918  25.808  12.479
62907W        W34578  24.502  43.761  11.556
62908W        W34579  33.514   4.260   2.040
62909W        W34580  32.590  10.624  13.524
62910W        W34581   0.238  34.035  11.076
62911W        W34582  14.394  14.346  11.040
62912W        W34583  37.629  11.322  11.991
62913W        W34584  35.628  25.031   3.211
62914W        W34585   5.194  18.308   4.726
62915W        W34586  30.201  11.335  11.012
62916W        W34587   0.499  42.122  13.815
62917W        W34588  24.117  18.515  14.327
62918W        W34589  23.296  34.587   4.163
62919W        W34590   6.880  34.991   4.738
62920W        W34591   3.012  19.699   5.131
62921W        W34592  29.494  22.639   1.423
62922W        W34593  33.936   1.495   0.423
62923W        W34594   0.894   1.308  13.359
62924W        W34595  22.807   9.910   1.841
62925W        W34596  40.878   0.366   2.804
62926W        W34597  33.329  10.788   1.379
62927W        W34598   3.202  22.995   4.704
62928W        W34599   9.471  11.273   4.544
62929W        W34600  33.055  39.570   3.158
62930W        W34601  42.248  23.738   3.727
62931W        W34602  30.330  15.569  12.453
62932W        W34603  25.897  36.911  13.992
62933W        W34604   3.886   1.504  11.630
62934W        W34605  41.945  42.715   3.691
62935W        W34606  26.518  36.826   0.789
62936W        W34607  12.710  43.513  12.625
62937W        W34608  31.223   1.930  11.069
62938W        W34609  19.427  33.045  11.601
62939W        W34610  29.414  20.911   5.029
62940W        W34611  43.962  15.599   0.283
62941W        W34612  24.179  34.717  11.098
62942W        W34613   7.208  14.823  11.299
62943W        W34614  29.217  10.246  11.578
62944W        W34615  10.293  19.691   4.342
62945W        W34616  23.481   6.338  10.750
62946W        W34617  44.564   4.907  11.118
62947W        W34618  37.599  11.616   3.296
62948W        W34619  36.673  24.900  10.450
62949W        W34620  14.562  15.312  10.537
62950W        W34621  36.489   1.267   2.840
62951W        W34622  13.121  27.261  11.438
62952W        W34623  22.671   4.901   2.127
62953W        W34624  31.819  36.956  12.053
62954W        W34625  38.358  15.138   0.779
62955W        W34626  14.290  27.142   1.631
62956W        W34627  16.954  39.202   1.315
62957W        W34628   4.796  11.203   4.234
62958W        W34629  25.061   9.158   3.783
62959W        W34630  24.554  21.302  12.850
62960W        W34631  20.059  43.725   3.358
62961W        W34632  42.469  28.208   0.432
62962W        W34633   4.169   0.814   2.864
62963W        W34634   7.704  26.786   2.812
62964W        W34635   9.932  18.641  13.870
62965W        W34636  42.098  23.665   0.786
62966W        W34637  43.214  15.563  13.459
62967W        W34638  31.468  40.519   4.773
62968W        W34639   5.154  10.314   1.248
62969W        W34640  12.233  44.930  14.414
62970W        W34641   9.632  30.616   2.527
62971W        W34642  38.769  19.989   0.529
62972W        W34643   0.281  26.432  11.128
62973W        W34644  30.349  29.066   0.912
62974W        W34645  28.524  37.940   0.349
62975W        W34646   5.400  36.472  12.435
62976W        W34647  38.048  15.079  12.557
62977W        W34648  30.125  26.287   2.203
62978W        W34649  11.265  16.521  12.774
62979W        W34650  15.597  19.518   0.346
62980W        W34651  35.627   4.915   2.745
62981W        W34652  16.573  35.394  14.453
62982W        W34653  40.958   1.988   1.081
62983W        W34654  21.432   6.259   4.754
62984W        W34655  23.455  34.985   4.820
62985W        W34656   9.621  39.624  12.347
62986W        W34657   7.279  15.010   1.699
62987W        W34658   2.108  22.483  11.408
62988W        W34659   5.774  41.134   2.688
62989W        W34660   1.875  39.341  14.426
62990W        W34661  40.120  34.280   4.452
62991W        W34662  39.897  10.334  10.705
62992W        W34663  33.281  27.235  14.855
62993W        W34664  34.420  21.552   0.764
62994W        W34665   0.982  28.093  13.981
62995W        W34666   9.818  23.031  12.343
62996W        W34667  11.382   5.475   2.730
62997W        W34668  24.407  33.871   3.857
62998W        W34669  30.669  31.190  13.323
62999W        W34670   8.385  31.501  11.944
63000W        W34671  35.586   6.409   2.076
63001W        W34672  21.095   3.917  11.663
63002W        W34673   5.780   0.007  12.454
63003W        W34674  16.051  35.702   1.152
63004W        W34675  10.926  25.692   0.847
63005W        W34676  11.240  29.357  12.408
63006W        W34677  17.828   8.768   4.782
63007W        W34678  30.480  19.828   2.578
63008W        W34679  25.270  18.648   0.578
63009W        W34680  22.719  42.217  13.094
63010W        W34681  10.807  35.374   3.868
63011W        W34682  28.869  30.109  11.380
63012W        W34683  26.202   9.125  13.336
63013W        W34684  11.773  40.852   1.684
63014W        W34685  15.562  15.772   2.935
63015W        W34686  29.089  38.577   2.378
63016W        W34687  12.389  35.126   0.337
63017W        W34688  36.445  10.391   3.215
63018W        W34689  36.173   8.673  14.294
63019W        W34690   6.426  13.132  11.735
63020W        W34691  14.495  43.017  10.737
63021W        W34692  42.023  42.996   2.313
63022W        W34693  15.947  30.688   3.976
63023W        W34694  23.571  20.603   4.262
63024W        W34695  26.929  26.785  11.009
63025W        W34696  35.176  37.891  14.971
63026W        W34697  30.045  43.765   3.048
63027W        W34698  22.548  32.592   1.628
63028W        W34699  28.561  20.276  10.673
63029W        W34700  26.493  17.547   2.304
63030W        W34701  36.043  14.449   0.527
63031W        W34702  32.012  13.203  12.110
63032W        W34703  39.662  13.970  11.567
63033W        W34704  27.983  12.307   2.843
63034W        W34705  23.743  44.087  14.353
63035W        W34706  11.979  11.100  11.989
63036W        W34707   4.238  37.414  13.631
63037W        W34708  12.846  40.330  14.456
63038W        W34709  39.331  23.652  12.988
63039W        W34710   3.212  16.378  14.019
63040W        W34711  23.727   2.738  10.648
63041W        W34712  39.436  35.655  14.213
63042W        W34713  26.176  16.834  11.124
63043W        W34714   9.099  28.749   0.455
63044W        W34715   8.234  35.952   2.194
63045W        W34716  13.173  30.998  14.353
63046W        W34717  20.323   3.803  10.998
63047W        W34718  35.612  25.370  13.465
63048W        W34719   3.483  38.774   1.422
63049W        W34720   5.095  41.809   0.730
63050W        W34721   4.686  34.631  11.126
63051W        W34722   9.063  37.495  10.213
63052W        W34723  26.722  22.904   2.913
63053W        W34724  12.948  37.946   1.186
63054W        W34725  40.854   1.608  11.697
63055W        W34726  37.514   6.300   3.696
63056W        W34727  22.746  36.120  14.277
63057W        W34728  19.729  11.690  10.878
63058W        W34729  41.141  22.656   0.298
63059W        W34730  20.838  39.622   1.115
63060W        W34731   2.627  21.558   0.865
63061W        W34732  42.074  16.873   3.704
63062W        W34733  19.774   0.288   0.255
63063W        W34734  19.161  28.883  12.090
63064W        W34735  12.762   8.369   0.762
63065W        W34736  32.021  22.623  10.612
63066W        W34737   1.725  22.174  13.295
63067W        W34738  14.851  15.588  14.946
63068W        W34739  41.431  40.712   0.464
63069W        W34740  26.048  31.840  14.046
63070W        W34741  39.533  26.490  14.905
63071W        W34742  20.204  32.605   2.249
63072W        W34743  40.246  18.603  10.473
63073W        W34744  40.075  13.898   0.963
63074W        W34745  38.495  33.523   3.509
63075W        W34746  35.103  39.075  10.603
63076W        W34747  40.349  17.824   2.322
63077W        W34748   1.354   5.631   4.220
63078W        W34749  25.284  26.459   3.851
63079W        W34750   8.819  36.845   3.302
63080W        W34751  18.008  21.090  14.795
63081W        W34752  36.458   2.221   3.256
63082W        W34753  38.483  32.953   2.617
63083W        W34754  23.729  17.785   2.241
63084W        W34755   4.266   0.571  14.899
63085W        W34756  26.568  29.362  10.678
63086W        W34757   2.730  22.995   1.463
63087W        W34758   7.622  40.567  13.349
63088W        W34759  26.634  41.761  11.159
63089W        W34760  22.087  19.994   2.247
63090W        W34761  38.100  17.157  14.001
63091W        W34762  15.720  43.499   1.733
63092W        W34763   7.709  34.483   0.221
63093W        W34764  15.802  21.787   4.493
63094W        W34765  13.166  39.089   5.033
63095W        W34766  20.763  39.093   2.767
63096W        W34767   8.688   8.941  10.693
63097W        W34768   3.391  32.488   2.227
63098W        W34769  38.375  18.989   3.776
63099W        W34770  44.673   0.375  12.982
63100W        W34771  15.823   2.289   3.567
63101W        W34772  16.298  37.003  10.961
63102W        W34773  40.480  36.989  14.518
63103W        W34774  23.035  18.811  14.821
63104W        W34775  39.530  27.524   0.948
63105W        W34776  17.188   2.437  11.144
63106W        W34777  38.226  30.912   0.700
63107W        W34778   1.289  10.881   4.624
63108W        W34779  35.603  18.043  11.459
63109W        W34780  20.134  15.373   1.851
63110W        W34781  39.816   6.127  11.934
63111W        W34782  32.097  44.034   2.369
63112W        W34783  15.853  19.467   4.487
63113W        W34784  20.191  36.476   0.090
63114W        W34785  18.588   3.879  10.943
63115W        W34786  44.554   3.789   3.715
63116W        W34787  33.667   4.625  11.105
63117W        W34788  30.354  43.952  13.522
63118W        W34789   2.987  19.079   3.118
63119W        W34790  31.918  21.984  12.029
63120W        W34791  23.115  42.563  12.339
63121W        W34792  22.520  26.125  12.029
63122W        W34793  16.684  35.366  11.870
63123W        W34794  14.813  28.918  14.938
63124W        W34795  19.459  36.989  14.883
63125W        W34796   8.661   1.283   2.374
63126W        W34797  23.010  13.365  13.077
63127W        W34798  12.698  22.224  12.536
63128W        W34799  32.384  42.627   3.601
63129W        W34800  17.292   1.131   3.114
63130W        W34801  29.293  19.655  11.474
63131W        W34802  21.716  26.243   0.929
63132W        W34803  31.255  24.512  11.220
63133W        W34804  35.878  31.867   2.419
63134W        W34805   1.041  33.680   1.270
63135W        W34806  34.617  17.326   0.500
63136W        W34807  10.654  27.403   0.244
63137W        W34808  31.954   1.976   0.408
63138W        W34809  29.347   9.414  14.346
63139W        W34810  43.073  21.009  10.701
63140W        W34811   1.026  24.642  12.372
63141W        W34812   4.147  44.064  11.606
63142W        W34813  27.693  44.465   4.517
63143W        W34814   1.012   3.515  14.019
63144W        W34815  17.586  15.390  10.483
63145W        W34816  29.238  39.473   1.869
63146W        W34817  36.891  34.167  11.208
63147W        W34818  31.153  16.281  13.947
63148W        W34819   1.886  44.486  13.560
63149W        W34820  11.653  26.671  13.201
63150W        W34821  21.721  43.219   2.332
63151W        W34822  34.847  29.093  14.378
63152W        W34823  40.957  11.140  11.579
63153W        W34824  43.747  29.167  11.012
63154W        W34825  11.562  44.848  12.372
63155W        W34826   3.016  27.091  13.718
63156W        W34827   5.767   3.410   4.845
63157W        W34828   3.219  30.131  12.930
63158W        W34829  32.436  30.120  12.838
63159W        W34830  33.926  41.057   1.303
63160W        W34831  33.574  29.731  13.592
63161W        W34832  10.822  25.784  14.106
63162W        W34833  38.519  31.904   4.598
63163W        W34834  34.794  44.299   0.126
63164W        W34835  30.150  32.054   0.280
63165W        W34836  34.802  36.510   0.278
63166W        W34837  37.041  18.705  12.523
63167W        W34838   6.266   3.631   0.430
63168W        W34839   3.006  33.394  11.258
63169W        W34840  36.382  39.547  14.633
63170W        W34841  40.755  18.683   0.242
63171W        W34842   9.771  19.497   1.847
63172W        W34843   0.616  30.886  10.187
63173W        W34844  41.528  13.433   3.261
63174W        W34845  42.590   7.838  10.674
63175W        W34846  16.986  24.290  10.195
63176W        W34847  13.363  25.067  10.332
63177W        W34848  40.924  27.229  11.652
63178W        W34849  36.090  11.642   0.764
63179W        W34850  32.578  30.667  14.894
63180W        W34851  27.560  33.454  13.525
63181W        W34852  16.969  18.147   2.684
63182W        W34853  11.827  17.577   3.824
63183W        W34854  36.621   7.263   1.879
63184W        W34855   6.646  16.855   2.782
63185W        W34856   7.440  36.159  13.045
63186W        W34857   7.947  36.198  14.879
63187W        W34858  20.376  38.037  13.009
63188W        W34859  43.858  34.594  11.183
63189W        W34860  36.802  28.984  11.597
63190W        W34861  21.126  22.538   3.681
63191W        W34862  27.977  39.597   4.490
63192W        W34863  19.830  22.031   1.436
63193W        W34864   6.728   1.612  13.561
63194W        W34865  29.252   5.007   1.710
63195W        W34866  26.445  20.677   3.313
63196W        W34867  34.070  32.874  11.457
63197W        W34868  18.262  20.654   2.217
63198W        W34869  22.856  10.181   1.412
63199W        W34870  43.623  19.603  12.113
63200W        W34871  33.394   7.718  12.592
63201W        W34872  41.566  44.169   1.344
63202W        W34873  11.908   3.312   0.896
63203W        W34874  31.405  10.793  11.413
63204W        W34875  31.039  27.369  13.021
63205W        W34876  16.469   6.272  10.663
63206W        W34877  38.676  12.926   2.832
63207W        W34878  32.480  23.017  12.863
63208W        W34879  44.455  17.478   4.606
63209W        W34880  43.201   1.528  13.836
63210W        W34881   8.892   1.092   0.721
63211W        W34882  29.191  30.536   0.263
63212W        W34883  13.733   7.898   2.365
63213W        W34884  37.335  11.265  11.057
63214W        W34885  12.415  13.759   0.387
63215W        W34886  44.225  42.663   4.856
63216W        W34887  39.853   8.323  13.857
63217W        W34888  26.947  20.691   3.179
63218W        W34889   3.514   7.383  14.720
63219W        W34890  35.956  42.657   0.877
63220W        W34891  10.112  17.010   1.425
63221W        W34892  15.623  13.612   0.314
63222W        W34893  10.405  25.446  12.906
63223W        W34894  36.621  19.098   3.861
63224W        W34895   1.759  24.296   0.780
63225W        W34896  43.246  40.340  14.319
63226W        W34897  42.579  12.646   3.801
63227W        W34898  19.971  40.016   3.717
63228W        W34899  41.042   7.327   1.003
63229W        W34900  12.230  40.535  10.911
63230W        W34901   4.422   4.792  13.830
63231W        W34902   8.651  15.383  14.883
63232W        W34903   4.977  43.966  11.215
63233W        W34904  11.976   2.252  10.127
63234W        W34905   6.243   3.341  11.975
63235W        W34906  10.419   5.553  10.514
63236W        W34907  22.237  26.357  14.523
63237W        W34908  36.964  37.467   5.331
63238W        W34909  31.107   8.651   2.882
63239W        W34910  12.499  36.556   3.373
63240W        W34911  16.767  35.378   3.806
63241W        W34912   6.841  33.414  10.457
63242W        W34913   9.412   5.729   2.364
63243W        W34914  19.669  22.007   4.220
63244W        W34915  42.914  17.652   3.582
63245W        W34916  27.660  18.575  10.539
63246W        W34917  29.043  33.637   2.537
63247W        W34918  41.690  39.467  10.164
63248W        W34919   9.640  31.252  11.635
63249W        W34920  26.623  10.085  14.657
63250W        W34921  13.362  29.892  11.431
63251W        W34922   3.868  11.706   3.695
63252W        W34923  13.748  36.694  14.152
63253W        W34924  14.675  30.367   0.680
63254W        W34925  29.199  31.315   2.267
63255W        W34926  14.399  32.628  12.802
63256W        W34927   3.943  41.490   1.755
63257W        W34928  41.930  25.854  10.692
63258W        W34929  21.054  44.941  11.551
63259W        W34930  41.187  40.506   4.355
63260W        W34931  39.514   4.123   0.170
63261W        W34932   2.302  25.654   3.235
63262W        W34933   1.910  27.703   2.247
63263W        W34934  24.354   2.412  13.858
63264W        W34935   0.450  41.425   1.871
63265W        W34936   0.840  21.789  10.099
63266W        W34937   1.668  36.352  12.174
63267W        W34938   9.403  35.148   4.839
63268W        W34939  34.503  13.170   2.264
63269W        W34940  32.483  40.264  12.625
63270W        W34941   1.861  31.820   3.750
63271W        W34942  27.597  38.262  12.848
63272W        W34943  37.511  43.734   2.742
63273W        W34944   4.449   5.841   2.677
63274W        W34945  41.790  27.944   2.667
63275W        W34946  21.011   3.334   2.130
63276W        W34947   3.521  20.851  10.154
63277W        W34948  15.467   1.920  11.474
63278W        W34949   3.878  18.425  12.295
63279W        W34950  29.745  39.437  11.597
63280W        W34951  14.715   7.738  11.908
63281W        W34952  22.209  40.400   4.132
63282W        W34953  18.516  29.689   2.791
63283W        W34954   3.138   5.644   4.221
63284W        W34955  35.961   5.473   4.527
63285W        W34956  40.282  23.940   3.696
63286W        W34957   0.856  16.672  10.615
63287W        W34958  41.520   3.492  12.711
63288W        W34959   1.817  37.915   4.672
63289W        W34960  12.058  24.584   1.460
63290W        W34961   2.968  36.312  12.102
63291W        W34962   7.215  34.489   0.434
63292W        W34963  20.512  13.131  11.179
63293W        W34964  34.838  18.706  12.596
63294W        W34965  34.841  41.516   3.698
63295W        W34966  31.950  32.085   0.916
63296W        W34967   5.366  16.482  13.009
63297W        W34968  32.175  34.921   5.175
63298W        W34969  39.535   8.221  12.481
63299W        W34970  22.655   1.818  13.745
63300W        W34971   2.239  43.253   0.861
63301W        W34972  43.945  18.665   1.847
63302W        W34973  11.368  29.540   2.683
63303W        W34974  18.153   0.624   4.708
63304W        W34975   4.773  28.899   2.317
63305W        W34976  28.684  13.215  13.982
63306W        W34977  41.059  29.506   2.692
63307W        W34978  11.182  20.048   1.879
63308W        W34979  34.377  39.485  11.082
63309W        W34980  36.350  32.944   3.673
63310W        W34981  12.423   4.402  10.691
63311W        W34982  25.017  26.690   0.757
63312W        W34983  43.369  13.151   3.795
63313W        W34984  29.553  44.192  13.145
63314W        W34985  20.219   1.057   9.866
63315W        W34986  42.373  31.849   4.708
63316W        W34987   2.558  18.807   5.141
63317W        W34988  22.163  29.723  12.360
63318W        W34989  10.833  25.063   0.248
63319W        W34990  27.550  30.440  11.645
63320W        W34991   9.568  26.276  10.786
63321W        W34992  17.793  10.661   3.094
63322W        W34993   9.342   2.939  10.633
63323W        W34994   4.662   5.826   1.702
63324W        W34995  15.597  16.086  11.634
63325W        W34996   5.550  42.971   4.575
63326W        W34997  34.859   8.332  13.953
63327W        W34998  24.206  20.451  11.897
63328W        W34999  39.428   3.444  12.806
63329W        W35000  34.388   1.757   0.379
63330W        W35001  39.527   3.475  13.686
63331W        W35002  13.200   1.330  10.650
63332W        W35003   5.479  42.174   2.736
63333W        W35004  29.885  20.611   3.837
63334W        W35005   0.323   9.341   1.814
63335W        W35006  32.413  16.598  12.175
63336W        W35007  21.376   1.443   3.834
63337W        W35008  43.531  25.926  12.088
63338W        W35009  33.107  36.821   0.956
63339W        W35010   5.985  41.424   0.873
63340W        W35011   3.892  30.886  14.778
63341W        W35012  25.074   6.316  13.791
63342W        W35013  31.995  23.741  12.938
63343W        W35014  37.975  18.602   0.905
63344W        W35015  12.286  11.887  11.027
63345W        W35016  27.175  31.210  11.594
63346W        W35017   0.029  21.676   3.988
63347W        W35018  34.067  20.389  13.351
63348W        W35019   4.273  17.514  14.287
63349W        W35020   6.102  40.806   1.476
63350W        W35021  42.895  33.780   3.167
63351W        W35022  38.789  18.528   4.751
63352W        W35023  24.157  21.250  11.408
63353W        W35024  21.052  10.796   3.211
63354W        W35025  21.811  21.481  12.097
63355W        W35026  15.315  26.102   3.363
63356W        W35027  42.445  17.696   3.837
63357W        W35028  43.437   0.059  11.040
63358W        W35029  44.358  35.628  11.004
63359W        W35030  27.981  43.086  12.929
63360W        W35031   8.894  14.902   4.690
63361W        W35032  35.400  35.276   4.049
63362W        W35033  11.604  44.965  10.598
63363W        W35034  28.177   7.122  10.280
63364W        W35035  33.369  42.259   2.351
63365W        W35036  42.851   6.628   3.349
63366W        W35037   2.037  21.770   0.418
63367W        W35038  20.741  39.869  10.203
63368W        W35039  40.433   6.730   2.410
63369W        W35040  26.921  14.788   2.126
63370W        W35041  40.141  30.469  14.911
63371W        W35042  39.716  33.642  12.477
63372W        W35043  39.728  29.209   2.854
63373W        W35044  34.477  31.927   0.018
63374W        W35045   7.397  22.260  13.100
63375W        W35046  15.686  44.009   3.128
63376W        W35047  41.765   3.145   1.064
63377W        W35048  44.490  14.342  10.673
63378W        W35049   9.806  23.754  14.564
63379W        W35050  25.748  20.720  12.644
63380W        W35051   9.742  33.860   0.800
63381W        W35052  32.130   9.808  10.758
63382W        W35053  13.108  29.927  14.467
63383W        W35054   1.362   4.254   2.460
63384W        W35055  32.564  33.303  14.986
63385W        W35056  21.614   2.960  13.041
63386W        W35057   0.861  36.139  10.682
63387W        W35058  10.579  10.103  12.039
63388W        W35059  32.709  42.422   2.723
63389W        W35060   9.884   0.286   3.183
63390W        W35061   6.483  19.792   1.890
63391W        W35062  38.793  39.986  14.290
63392W        W35063  42.215  24.149  10.721
63393W        W35064  42.637   0.275   0.845
63394W        W35065  15.458  14.727  10.544
63395W        W35066  30.588  17.760  12.012
63396W        W35067  27.919  39.055  13.884
63397W        W35068  22.273  35.805  14.210
63398W        W35069  35.588  12.159  12.019
63399W        W35070  38.745   8.455  11.172
63400W        W35071  12.160  35.370   3.300
63401W        W35072  13.918  38.035  12.044
63402W        W35073  25.910  25.937   0.731
63403W        W35074  41.377   3.922  12.477
63404W        W35075  13.363  29.498  13.153
63405W        W35076  31.595   3.910  14.201
63406W        W35077  37.333  19.774  11.200
63407W        W35078  35.594  25.921  14.953
63408W        W35079  40.980  19.712   4.149
63409W        W35080  40.065  12.634  12.611
63410W        W35081  38.486   7.962  13.023
63411W        W35082  11.700   4.495  12.339
63412W        W35083   6.256  17.229   3.658
63413W        W35084   8.347   8.159  13.533
63414W        W35085  25.970  22.192  13.722
63415W        W35086   4.958   1.150   4.173
63416W        W35087   9.266   1.359   0.027
63417W        W35088  28.062  35.663   2.128
63418W        W35089  41.011  17.329   0.899
63419W        W35090   3.638  25.580   0.860
63420W        W35091  31.616   1.894  14.513
63421W        W35092  13.307  30.622   2.760
63422W        W35093  11.177  18.376   3.182
63423W        W35094  36.357  25.397   4.579
63424W        W35095  15.911   5.680  10.316
63425W        W35096   5.635  36.974   2.400
63426W        W35097  18.610  24.276   4.466
63427W        W35098  13.261  12.769   4.481
63428W        W35099  25.972  26.670   0.370
63429W        W35100   4.321  30.146   2.350
63430W        W35101  32.531   9.958   2.868
63431W        W35102  24.441  28.064  14.319
63432W        W35103  33.935   2.130  13.813
63433W        W35104   5.530  14.292   4.335
63434W        W35105  25.091  39.476   1.139
63435W        W35106   8.816  40.866   4.503
63436W        W35107  35.403  34.663   3.336
63437W        W35108  35.436  21.010  12.589
63438W        W35109  27.105  33.899  13.783
63439W        W35110  32.521  14.874  13.073
63440W        W35111  33.851   5.874  11.183
63441W        W35112  27.735   9.457  14.332
63442W        W35113  15.363  29.329  14.133
63443W        W35114  30.987  11.429  13.922
63444W        W35115  43.154   5.881  10.974
63445W        W35116  30.061  42.780   2.130
63446W        W35117  16.749  41.565   0.499
63447W        W35118   9.670  15.755  14.920
63448W        W35119   6.763   6.897  11.138
63449W        W35120  37.214  29.134   2.272
63450W        W35121   5.860  35.319  14.355
63451W        W35122  23.985   6.300   0.792
63452W        W35123  40.862  32.649   3.761
63453W        W35124  31.211  12.193  13.470
63454W        W35125  37.453  27.082   4.405
63455W        W35126  31.644  34.384  14.885
63456W        W35127  26.176   6.278  13.328
63457W        W35128  29.619   5.744  13.383
63458W        W35129  37.337  42.068  12.983
63459W        W35130  18.731   3.638   1.230
63460W        W35131  19.097  14.323   4.546
63461W        W35132  42.747  30.900  13.019
63462W        W35133  14.825  14.651   0.774
63463W        W35134  39.666  26.824  12.877
63464W        W35135  26.708   0.977   0.609
63465W        W35136  38.837  25.195  11.105
63466W        W35137  33.644  35.247  13.948
63467W        W35138  34.383  37.553   5.040
63468W        W35139   0.985  24.656  10.595
63469W        W35140  21.012  18.538   5.179
63470W        W35141  29.093  21.509  14.850
63471W        W35142  18.322  22.480   9.945
63472W        W35143  17.222  21.403  11.159
63473W        W35144  40.421  16.012   3.279
63474W        W35145  11.327  17.136   1.966
63475W        W35146  14.115  39.080   5.060
63476W        W35147  31.691  11.395   0.291
63477W        W35148  34.937  13.905  12.389
63478W        W35149  20.678   6.062  14.298
63479W        W35150   8.688   2.314   2.174
63480W        W35151   3.825   0.427   1.222
63481W        W35152  28.577   0.285  14.719
63482W        W35153  31.862  26.755  14.190
63483W        W35154  28.534  18.343   0.648
63484W        W35155  12.067   3.673   0.518
63485W        W35156  23.724  35.888  11.420
63486W        W35157  39.614  15.721   0.679
63487W        W35158  11.836  11.828  11.336
63488W        W35159   8.298   2.771  12.992
63489W        W35160  39.794   3.774   4.457
63490W        W35161  13.409  44.838   4.012
63491W        W35162   1.498  41.444  12.489
63492W        W35163   8.794  34.571   4.411
63493W        W35164  36.888   3.350  14.928
63494W        W35165  37.523  10.842  14.742
63495W        W35166  33.323  42.344  11.579
63496W        W35167   6.427  37.889  13.913
63497W        W35168  31.053   3.712   1.068
63498W        W35169  17.615  38.008   0.419
63499W        W35170  36.956  38.102  13.922
63500W        W35171  38.980  35.516   4.764
63501W        W35172  32.575  20.965  13.900
63502W        W35173  12.131  38.940   4.569
63503W        W35174  29.737  15.660   1.015
63504W        W35175  43.541  13.066   2.211
63505W        W35176  20.710  39.118   0.986
63506W        W35177   3.989  28.101   4.637
63507W        W35178   4.511  19.854   4.988
63508W        W35179  21.236  40.229  11.031
63509W        W35180  28.555   5.208  10.910
63510W        W35181   3.854  29.546   4.946
63511W        W35182   4.162  25.131  13.476
63512W        W35183  18.294  23.666   2.300
63513W        W35184   4.002  32.314  13.419
63514W        W35185  23.519  13.422  13.999
63515W        W35186  13.540  16.877   1.362
63516W        W35187  10.029   2.336   4.027
63517W        W35188  42.777  37.118   4.527
63518W        W35189  12.436  33.032   3.285
63519W        W35190  44.024  12.626   3.267
63520W        W35191  26.553  43.921  10.006
63521W        W35192  30.577   8.688   1.316
63522W        W35193  30.642  19.951   0.555
63523W        W35194  32.529  25.243   4.270
63524W        W35195   2.691  18.783  11.075
63525W        W35196  16.684  13.796   3.009
63526W        W35197   5.296   2.305  11.769
63527W        W35198  18.737   3.974   4.129
63528W        W35199  31.382  27.783   1.297
63529W        W35200  11.890  18.098   3.732
63530W        W35201  34.150  24.124  11.498
63531W        W35202  18.579   8.098  11.856
63532W        W35203  39.870  26.605   2.745
63533W        W35204  37.121   0.038  11.916
63534W        W35205  10.832  40.420   3.339
63535W        W35206  23.485  25.527  13.582
63536W        W35207   2.857  31.546   4.855
63537W        W35208  35.230  26.799   0.833
63538W        W35209   9.669  42.890   1.321
63539W        W35210   2.467  26.683   2.303
63540W        W35211  38.325  20.993  14.526
63541W        W35212   0.417  31.611  14.823
63542W        W35213  39.525  24.715  11.979
63543W        W35214  31.701  31.941   3.084
63544W        W35215  37.795  13.213   2.420
63545W        W35216   2.703  16.738  13.439
63546W        W35217  30.884   1.889  11.478
63547W        W35218  31.020  36.343   0.338
63548W        W35219  16.651  42.521   4.132
63549W        W35220  41.314  32.096  10.619
63550W        W35221  11.267   7.861  14.519
63551W        W35222  43.893  27.136  11.607
63552W        W35223  19.936  22.736   5.023
63553W        W35224  24.930  22.827  13.030
63554W        W35225  17.688  41.310   1.471
63555W        W35226   1.950   7.412  10.715
63556W        W35227  39.434  36.832  14.939
63557W        W35228  21.827  29.850   0.458
63558W        W35229  34.338  23.591  10.707
63559W        W35230   8.362  38.809   3.901
63560W        W35231   1.362  12.175   2.803
63561W        W35232  39.322   2.138   1.475
63562W        W35233   0.375   0.503   3.917
63563W        W35234  32.972  34.516  12.807
63564W        W35235  24.915   4.616  11.553
63565W        W35236  24.580  11.419   1.838
63566W        W35237  12.207  17.096   0.379
63567W        W35238  34.414  35.539   2.275
63568W        W35239   7.202   4.761   1.669
63569W        W35240  28.923  32.108  13.359
63570W        W35241   7.111   4.765  10.495
63571W        W35242  36.156  20.024   3.933
63572W        W35243  16.151   5.692   0.990
63573W        W35244  20.820  32.520  11.570
63574W        W35245  30.088   6.388   3.837
63575W        W35246  11.444  31.834   0.340
63576W        W35247  29.988  30.662  13.949
63577W        W35248  24.574   8.119   2.838
63578W        W35249  44.980  16.876  14.767
63579W        W35250  17.365  17.779  14.940
63580W        W35251  16.093   0.395   4.057
63581W        W35252  22.118  26.705  10.950
63582W        W35253  14.578  16.870   2.239
63583W        W35254  31.243   6.288  11.090
63584W        W35255  31.856  30.860   4.224
63585W        W35256  32.376  43.325  12.438
63586W        W35257   8.582  40.476   3.347
63587W        W35258  34.569  38.431  14.126
63588W        W35259  27.618  30.471   0.608
63589W        W35260  40.893  25.136  11.990
63590W        W35261  44.806   6.971   2.312
63591W        W35262  25.043   7.922  14.810
63592W        W35263   9.095   4.424   3.240
63593W        W35264   9.625  40.041   2.754
63594W        W35265  12.915   4.011   2.905
63595W        W35266  15.365   4.244   5.475
63596W        W35267  17.720  19.665  12.474
63597W        W35268  28.957  43.353  12.541
63598W        W35269  16.879  17.729   3.316
63599W        W35270  31.737  15.739  14.397
63600W        W35271   5.927  35.613  12.368
63601W        W35272  22.147  39.394   2.726
63602W        W35273  41.224  11.226  14.243
63603W        W35274  44.791  40.613  10.171
63604W        W35275  12.708   4.000   3.792
63605W        W35276  35.269  31.132  13.434
63606W        W35277  32.629   5.362   4.567
63607W        W35278   2.865  44.990  12.979
63608W        W35279  27.587  32.093  13.871
63609W        W35280  41.798   1.657   1.031
63610W        W35281  25.572  42.752   0.834
63611W        W35282  34.482   8.904   1.364
63612W        W35283  40.343  34.770  13.822
63613W        W35284   7.315   0.845  14.430
63614W        W35285  39.936  44.914   3.250
63615W        W35286  22.633  15.851  14.953
63616W        W35287  40.478   2.925  12.042
63617W        W35288   5.275  30.721   1.349
63618W        W35289  40.803   4.756  11.906
63619W        W35290  23.249  37.817  12.008
63620W        W35291   2.253  31.314   0.889
63621W        W35292  13.364   9.329   1.506
63622W        W35293  40.576   2.298   1.036
63623W        W35294  38.964   4.298   3.439
63624W        W35295  23.745  21.239  11.762
63625W        W35296   2.942  37.146   4.926
63626W        W35297  31.136  22.964   2.537
63627W        W35298  10.372  17.717  11.167
63628W        W35299   4.060  29.556  14.531
63629W        W35300  15.514  15.781   0.968
63630W        W35301  22.936  32.441   1.258
63631W        W35302  20.748  22.558  11.667
63632W        W35303   8.397   6.018  11.014
63633W        W35304   0.499  15.605  12.902
63634W        W35305  12.601  36.289   4.500
63635W        W35306   0.904  17.578   2.762
63636W        W35307  42.718  30.739   4.210
63637W        W35308  27.744  38.062  13.615
63638W        W35309   6.041  29.949   4.108
63639W        W35310  25.903  20.615   1.931
63640W        W35311   6.373  35.210  10.319
63641W        W35312  40.179  26.662   1.716
63642W        W35313   2.453  13.629  14.894
63643W        W35314   9.213  15.173   0.711
63644W        W35315  21.549  22.304  11.637
63645W        W35316  38.774   7.157  13.143
63646W        W35317  39.542   8.167   4.250
63647W        W35318  33.081  12.173   3.217
63648W        W35319   3.571  21.028  12.110
63649W        W35320  30.483   0.854  13.811
63650W        W35321  16.023  34.303  13.750
63651W        W35322   3.466  24.339  14.851
63652W        W35323  30.212  21.749   2.163
63653W        W35324  11.052  18.302  11.371
63654W        W35325  12.224   0.917   2.118
63655W        W35326  12.424  23.570  12.543
63656W        W35327  40.296  36.424   2.787
63657W        W35328   5.222  21.247  11.687
63658W        W35329  39.264   8.359   3.736
63659W        W35330  16.669  16.550  12.504
63660W        W35331  19.536  41.414  11.384
63661W        W35332  32.462  13.392  13.008
63662W        W35333  21.867  19.395   4.669
63663W        W35334   8.505  39.209  14.898
63664W        W35335   2.677  41.475  13.779
63665W        W35336  39.243  27.900   3.223
63666W        W35337  10.798   1.771  14.432
63667W        W35338  42.999  32.939   2.114
63668W        W35339   4.350   1.609  13.978
63669W        W35340   3.176  30.973  11.559
63670W        W35341  17.384  34.987   3.198
63671W        W35342   8.883   0.713  14.274
63672W        W35343   4.126  33.124   2.797
63673W        W35344  22.667  13.832  12.952
63674W        W35345  28.634  31.585   3.617
63675W        W35346  30.900  20.540  13.897
63676W        W35347  25.069  43.683   3.214
63677W        W35348  41.487  38.407  13.070
63678W        W35349  34.702  40.353   0.415
63679W        W35350  26.624  10.142   1.263
63680W        W35351  13.685  16.316   4.666
63681W        W35352   6.362   9.770  14.566
63682W        W35353   1.866  20.377   4.712
63683W        W35354  10.675  22.655  10.761
63684W        W35355  30.058  37.128  10.366
63685W        W35356  11.796   7.193  13.587
63686W        W35357  13.636  29.205  10.967
63687W        W35358  16.073   4.652  12.220
63688W        W35359  28.230   9.814   1.524
63689W        W35360  42.996  27.250  14.740
63690W        W35361  35.190  39.408   0.417
63691W        W35362  26.207  34.777  14.377
63692W        W35363  42.737  35.103   1.056
63693W        W35364  20.619  26.744  12.764
63694W        W35365  30.125  32.426   0.986
63695W        W35366  23.504   1.752  10.678
63696W        W35367   1.932  34.562   3.934
63697W        W35368  18.531   0.231  13.067
63698W        W35369   2.160  20.758   4.538
63699W        W35370  26.943  20.771  12.061
63700W        W35371  16.598  40.045   3.681
63701W        W35372  33.780  31.561   2.378
63702W        W35373  40.198   8.884   3.136
63703W        W35374  37.851  41.912  13.674
63704W        W35375  20.654   2.103   1.792
63705W        W35376  26.615   5.967   1.686
63706W        W35377  23.775  44.761  11.082
63707W        W35378  17.257  20.643   0.989
63708W        W35379  12.360  31.956   3.155
63709W        W35380  28.640   5.635   0.371
63710W        W35381   2.000  41.116  13.173
63711W        W35382   5.300  35.903   1.094
63712W        W35383  38.056   7.822   2.196
63713W        W35384   0.791   2.331   3.964
63714W        W35385  32.425   9.472  11.653
63715W        W35386  28.891  20.127  14.184
63716W        W35387  35.408  16.238   3.629
63717W        W35388  23.598   7.127  14.879
63718W        W35389   7.882   3.158  10.955
63719W        W35390   1.524  17.930  11.068
63720W        W35391   3.035  17.198   1.426
63721W        W35392   5.342  40.598   0.818
63722W        W35393  12.688  44.343  10.588
63723W        W35394   6.500  35.400   2.996
63724W        W35395  10.847  15.621   3.332
63725W        W35396   1.291   2.164   0.959
63726W        W35397  34.005  19.153   0.731
63727W        W35398  29.407  39.893   1.510
63728W        W35399   7.886   4.321   3.470
63729W        W35400  42.961  18.583   1.448
63730W        W35401  30.042  13.212   1.952
63731W        W35402  10.514  39.823  12.463
63732W        W35403  44.003  33.485  14.002
63733W        W35404  27.918  43.854  12.797
63734W        W35405  18.629   9.222   1.113
63735W        W35406  44.737  15.123  12.859
63736W        W35407  33.494   4.181   3.472
63737W        W35408  39.107  12.843  13.002
63738W        W35409  15.169  11.136  12.114
63739W        W35410  19.960  12.245   5.393
63740W        W35411  35.022  25.675   4.632
63741W        W35412  16.680  44.539  14.300
63742W        W35413   2.952  28.912   2.704
63743W        W35414  27.097  33.063   1.053
63744W        W35415   7.712  28.710   2.611
63745W        W35416  11.146   1.901  11.618
63746W        W35417  34.922  11.486  13.735
63747W        W35418  38.076  24.475  14.488
63748W        W35419  11.308  11.710  12.547
63749W        W35420  40.116  32.397  14.191
63750W        W35421  19.222  10.150   2.079
63751W        W35422  27.036   7.133  13.504
63752W        W35423  19.746   8.671  11.954
63753W        W35424  33.264  44.100   4.033
63754W        W35425  25.007   5.783   4.110
63755W        W35426   1.940  12.053  13.952
63756W        W35427  39.190  33.403   3.268
63757W        W35428   1.651  20.158  13.021
63758W        W35429   4.377  43.951   2.373
63759W        W35430  34.159   6.110   0.147
63760W        W35431  44.592  39.024   5.056
63761W        W35432  32.997  29.584  10.538
63762W        W35433  36.015  26.091  11.247
63763W        W35434  13.716  20.223   0.950
63764W        W35435  27.095  43.278   2.429
63765W        W35436   6.218  33.923  12.901
63766W        W35437  14.168  43.281   0.280
63767W        W35438   5.667  38.073   3.707
63768W        W35439  32.913   9.145   4.909
63769W        W35440  13.615  16.628   0.487
63770W        W35441  10.076  15.795   3.803
63771W        W35442  30.437   7.763  13.248
63772W        W35443  12.691  24.768   3.876
63773W        W35444   7.679  22.666  14.948
63774W        W35445   1.967  24.148   1.242
63775W        W35446   4.723  32.066   4.298
63776W        W35447  32.262  41.977  12.369
63777W        W35448  22.954  38.905   1.867
63778W        W35449   5.521  29.431   3.184
63779W        W35450  32.944  14.241  14.539
63780W        W35451  34.335  17.996  13.265
63781W        W35452  41.237  13.846   3.143
63782W        W35453  33.930   9.304   0.817
63783W        W35454  43.799  36.525   4.102
63784W        W35455   3.235  33.874   3.414
63785W        W35456   8.995   6.818   2.400
63786W        W35457  17.094  37.009  12.285
63787W        W35458   4.298  28.141  11.147
63788W        W35459  37.484  23.576  11.433
63789W        W35460   2.033  22.593  14.489
63790W        W35461  37.416  36.827  10.664
63791W        W35462  40.785   0.964  12.945
63792W        W35463  12.656  10.152  13.327
63793W        W35464   2.839  13.767   4.866
63794W        W35465  13.300  40.181  10.367
63795W        W35466  35.011  44.018   1.662
63796W        W35467  20.326  14.488   2.949
63797W        W35468  14.774   0.185   4.100
63798W        W35469   9.342  40.575  13.531
63799W        W35470  39.488  25.058  12.486
63800W        W35471  38.368  22.713   4.109
63801W        W35472  24.125  26.484   0.316
63802W        W35473  36.339   7.319   1.405
63803W        W35474  13.084   5.845   0.824
63804W        W35475   2.369  16.908   3.730
63805W        W35476  41.905  15.289  14.442
63806W        W35477  38.829  14.896   4.247
63807W        W35478  16.893  43.268   0.005
63808W        W35479   4.393  24.582   0.342
63809W        W35480  23.238   2.607  13.531
63810W        W35481   7.292  31.063   3.374
63811W        W35482   6.875  35.565  12.866
63812W        W35483   8.830   0.571   0.808
63813W        W35484  11.699  41.941  13.456
63814W        W35485  30.493  44.544  12.712
63815W        W35486  21.317  20.215   1.864
63816W        W35487  18.385  42.048   2.986
63817W        W35488  34.346   5.390   2.792
63818W        W35489  16.765  44.040  11.087
63819W        W35490  40.854  11.108  14.823
63820W        W35491  18.038  41.287   2.880
63821W        W35492  31.512   9.399   0.700
63822W        W35493  25.770  26.204   2.346
63823W        W35494   7.140  32.189   4.583
63824W        W35495  42.173  23.052   3.599
63825W        W35496  16.527  21.593  11.742
63826W        W35497   4.730  14.345  12.011
63827W        W35498  13.199  23.598   1.331
63828W        W35499  16.752  16.099   3.642
63829W        W35500   0.978  13.588  12.374
63830W        W35501   7.409  37.753   2.825
63831W        W35502  19.509  25.924   0.071
63832W        W35503  11.206  33.331  12.301
63833W        W35504   5.385  44.243   4.116
63834W        W35505  19.708  44.892  14.914
63835W        W35506  41.389  26.985   2.423
63836W        W35507  36.505   1.143   2.339
63837W        W35508  33.928  16.146   0.021
63838W        W35509  21.758  27.195   2.703
63839W        W35510   4.991  29.129   2.724
63840W        W35511  41.352  40.948   2.193
63841W        W35512  42.667  22.074  12.446
63842W        W35513   4.695  13.718   1.303
63843W        W35514  16.067  12.279   0.691
63844W        W35515   2.157   4.167  12.995
63845W        W35516  42.490   4.948   0.372
63846W        W35517  10.338   6.355   1.855
63847W        W35518   2.016  32.335  10.936
63848W        W35519  18.368  24.653   0.300
63849W        W35520  15.148   1.536  10.750
63850W        W35521  36.637  35.931  14.443
63851W        W35522  33.582  13.147  10.891
63852W        W35523   4.252  41.251   3.669
63853W        W35524  36.673   5.145   3.346
63854W        W35525  12.248   5.159   3.283
63855W        W35526   6.178  28.893   1.282
63856W        W35527   4.860   3.219   3.191
63857W        W35528  38.894  16.700  14.336
63858W        W35529   1.751  30.854  10.468
63859W        W35530  35.311   9.492   0.295
63860W        W35531  40.940  28.686   2.304
63861W        W35532   0.579  33.427   3.613
63862W        W35533   4.336   1.963  13.583
63863W        W35534  36.912  42.467   4.639
63864W        W35535  18.728   0.375  11.013
63865W        W35536  43.971  33.476  12.073
63866W        W35537  29.181  42.282   1.808
63867W        W35538  43.445  24.915  13.804
63868W        W35539  21.713  35.136   1.317
63869W        W35540  10.452  19.541  11.617
63870W        W35541   4.905  10.825  12.868
63871W        W35542  32.617   3.862   4.838
63872W        W35543  23.976  36.608  12.953
63873W        W35544  11.547  26.667   0.527
63874W        W35545  35.964  13.455  14.706
63875W        W35546  16.797  34.121  12.482
63876W        W35547  40.990  43.383  10.628
63877W        W35548  42.362  41.679   9.691
63878W        W35549  30.690  24.571  12.550
63879W        W35550  28.066   3.203  12.006
63880W        W35551  34.063  35.256   3.595
63881W        W35552   8.368  34.104   3.193
63882W        W35553  28.960   9.972  10.189
63883W        W35554   2.824   6.544   0.673
63884W        W35555  42.898   0.857  11.311
63885W        W35556   7.275  24.923   0.789
63886W        W35557  15.370  31.375   3.717
63887W        W35558  27.555  23.723  11.550
63888W        W35559  30.922  31.129  10.942
63889W        W35560  34.093  24.039  10.601
63890W        W35561  40.300  27.997   1.199
63891W        W35562   9.904   2.511   0.092
63892W        W35563  42.348  13.586   3.934
63893W        W35564  17.691   3.318  13.069
63894W        W35565   7.984  36.634   2.401
63895W        W35566  28.099   4.176   0.429
63896W        W35567  16.858  14.572   2.548
63897W        W35568  19.095  29.474   0.290
63898W        W35569  42.582   2.811  11.636
63899W        W35570  10.221  44.588  12.903
63900W        W35571  35.704  18.156   3.794
63901W        W35572  12.150  14.074   4.068
63902W        W35573   8.160  17.226   0.064
63903W        W35574  24.688   1.765  13.145
63904W        W35575  29.901  11.650   3.913
63905W        W35576  16.124  25.745  11.911
63906W        W35577  44.916  30.976  12.346
63907W        W35578  17.726  41.276   3.906
63908W        W35579   8.382  14.230  10.661
63909W        W35580  17.062  12.281  12.531
63910W        W35581   5.162  21.239  14.446
63911W        W35582   2.364   9.068   2.430
63912W        W35583  17.038  25.586  13.030
63913W        W35584  16.087  11.288   2.767
63914W        W35585  42.706  19.258  11.952
63915W        W35586  39.500  38.138   3.276
63916W        W35587   0.945  33.484  12.999
63917W        W35588  31.883  10.624  11.688
63918W        W35589   8.933  18.086  13.368
63919W        W35590  40.753  35.993   4.564
63920W        W35591  22.486  19.473   3.843
63921W        W35592  15.766  11.902   3.773
63922W        W35593  42.649  29.099   1.035
63923W        W35594  32.589  40.503   2.150
63924W        W35595   5.766  13.679   2.752
63925W        W35596  19.855  16.505   2.733
63926W        W35597  39.973  41.021   3.743
63927W        W35598  24.504  43.032  11.997
63928W        W35599  21.034  30.073  11.584
63929W        W35600  13.769   6.743  10.198
63930W        W35601   0.602  26.818  11.073
63931W        W35602  12.574   7.113   2.073
63932W        W35603  38.784  15.054  11.132
63933W        W35604  35.385  24.325  12.063
63934W        W35605   6.843  17.269   2.494
63935W        W35606  27.014   7.963  13.938
63936W        W35607  21.269  31.526  11.097
63937W        W35608  14.008   4.988  12.463
63938W        W35609  23.199  33.411   4.378
63939W        W35610  31.702   9.283   3.720
63940W        W35611  10.421  24.109  12.967
63941W        W35612  12.531  42.004   4.253
63942W        W35613  42.791   7.472  13.770
63943W        W35614  18.765  26.234   2.904
63944W        W35615  24.995  17.010   3.752
63945W        W35616  17.121  39.094   3.671
63946W        W35617  39.205  12.049  11.519
63947W        W35618  21.200  22.497  10.976
63948W        W35619  23.537   6.631   0.067
63949W        W35620  31.024  34.477   1.707
63950W        W35621  22.416  41.751   5.038
63951W        W35622  29.490  38.520   4.214
63952W        W35623  23.696  38.019  10.654
63953W        W35624  21.101  14.201   2.149
63954W        W35625  35.608  17.381   0.291
63955W        W35626  42.034  30.120   4.236
63956W        W35627  25.231  24.460   4.482
63957W        W35628  38.363  39.788   1.141
63958W        W35629  17.578  36.989  12.427
63959W        W35630  22.166  26.146   3.687
63960W        W35631  15.436   5.325  10.051
63961W        W35632   8.930  17.084   2.353
63962W        W35633  24.526  31.161   4.076
63963W        W35634  24.794  15.033   4.450
63964W        W35635  14.093  19.107   3.657
63965W        W35636  11.326   7.393  10.882
63966W        W35637   2.890  21.329  10.234
63967W        W35638  20.302  40.886  14.067
63968W        W35639  37.927  36.074  10.751
63969W        W35640  14.669  12.819   2.466
63970W        W35641   1.664  40.305  13.121
63971W        W35642  17.499  43.460   4.282
63972W        W35643  16.804  12.189   3.463
63973W        W35644   2.502  30.948  12.013
63974W        W35645  27.257  33.612   0.222
63975W        W35646  11.830  13.580   1.884
63976W        W35647  15.479  23.535   4.221
63977W        W35648  36.309  34.047   1.907
63978W        W35649  39.093  18.688  12.557
63979W        W35650  41.775  42.019  11.141
63980W        W35651  38.818   6.716  13.425
63981W        W35652  31.632  30.012   2.973
63982W        W35653  13.893  33.324   2.277
63983W        W35654  13.364  41.893  13.854
63984W        W35655  28.288  29.892  14.088
63985W        W35656  28.799   0.778  13.841
63986W        W35657  33.472  28.445  10.913
63987W        W35658  40.423   5.071  13.285
63988W        W35659  28.247  25.551  11.555
63989W        W35660  27.898   2.967   9.999
63990W        W35661  23.987   4.165   3.347
63991W        W35662  43.001  38.020   1.184
63992W        W35663   8.119   6.303   0.759
63993W        W35664  37.397  37.868  10.656
63994W        W35665   2.223   9.685   4.763
63995W        W35666   7.916  30.744  13.734
63996W        W35667  16.200  33.057  13.378
63997W        W35668  30.413  28.962  10.588
63998W        W35669  34.048  19.699   3.153
63999W        W35670  19.116  40.836   4.873
64000W        W35671  24.742  14.749  12.688
64001W        W35672   9.627  25.727  14.334
64002W        W35673  12.001  37.671   3.764
64003W        W35674  17.869  18.318  11.462
64004W        W35675  18.519  10.187  11.026
64005W        W35676  10.783  20.440   1.744
64006W        W35677  14.795  12.844  12.117
64007W        W35678   8.891   8.301   4.096
64008W        W35679  37.602  26.217   4.136
64009W        W35680  27.960  17.640   0.344
64010W        W35681  35.880  32.403   0.453
64011W        W35682   1.887  33.784  13.506
64012W        W35683   6.102  39.466   0.002
64013W        W35684  30.677  10.074   3.233
64014W        W35685  44.568  10.141  12.589
64015W        W35686  21.293  17.482  11.685
64016W        W35687  13.104  30.983   1.688
64017W        W35688  15.826  41.498  11.837
64018W        W35689  19.236   6.907   0.337
64019W        W35690  28.043  37.534   3.403
64020W        W35691  35.965  28.855  12.637
64021W        W35692   4.838  15.016   0.717
64022W        W35693  18.711  17.251  12.071
64023W        W35694   1.970  42.439  14.389
64024W        W35695  29.513  20.134   3.072
64025W        W35696  17.697  19.884  11.156
64026W        W35697  24.573  35.518  11.642
64027W        W35698  29.059  35.010   0.742
64028W        W35699  12.841  32.923   4.701
64029W        W35700   4.869   3.115  11.274
64030W        W35701   5.354   1.768   1.791
64031W        W35702  14.572  13.365   3.668
64032W        W35703   1.241  39.244   1.845
64033W        W35704  11.568  19.108   1.273
64034W        W35705  37.791   0.931  13.954
64035W        W35706   6.316  25.584  10.779
64036W        W35707   7.098  29.025  13.272
64037W        W35708   3.151  36.120   0.586
64038W        W35709  38.415  12.409   1.861
64039W        W35710   0.338  31.384  10.684
64040W        W35711  15.567  36.577  10.666
64041W        W35712   3.306  41.757   2.580
64042W        W35713  37.852  27.520  14.978
64043W        W35714  19.480   9.497   2.142
64044W        W35715  33.524  22.839   0.160
64045W        W35716  29.407  38.572  11.903
64046W        W35717  34.925  40.353  14.617
64047W        W35718  30.351  19.225  11.862
64048W        W35719  23.034  38.040  12.469
64049W        W35720   0.429  25.948   0.221
64050W        W35721  40.467  23.563  10.717
64051W        W35722  33.538   5.295  10.572
64052W        W35723   7.384  14.578   0.423
64053W        W35724  39.869  20.136   0.829
64054W        W35725  38.047  27.769  14.552
64055W        W35726   9.310  24.230  10.728
64056W        W35727  10.159   2.723   0.526
64057W        W35728  19.269  36.657  11.595
64058W        W35729   3.941  29.124   0.815
64059W        W35730  23.627   9.381   1.722
64060W        W35731  38.800   9.239  13.969
64061W        W35732  20.759  12.078   1.922
64062W        W35733   8.812  41.116   4.959
64063W        W35734  30.445  29.402   3.700
64064W        W35735   1.497  41.137  12.935
64065W        W35736  34.122  21.858  13.449
64066W        W35737  18.146  25.659   1.181
64067W        W35738   0.372  17.123   1.456
64068W        W35739   7.572  37.100  14.029
64069W        W35740   0.658  37.415  14.882
64070W        W35741  16.619   9.817   0.347
64071W        W35742  25.500   2.296   1.804
64072W        W35743  17.141  32.685   4.111
64073W        W35744  15.258  12.815   1.263
64074W        W35745  33.505  10.608   1.855
64075W        W35746  21.327  42.229   1.893
64076W        W35747   6.731  13.163  10.864
64077W        W35748   5.859  13.194  11.717
64078W        W35749  16.356  39.468  12.351
64079W        W35750  14.305  31.937   2.262
64080W        W35751  26.833  31.999   0.830
64081W        W35752  14.350  33.102  12.084
64082W        W35753  21.560  16.267   2.565
64083W        W35754  10.610   4.441   2.326
64084W        W35755  40.912  16.839   1.057
64085W        W35756  29.382   1.305   0.438
64086W        W35757  32.176  16.721   2.298
64087W        W35758  34.142   8.589   1.108
64088W        W35759  22.712  39.369  10.146
64089W        W35760  38.354   8.417   2.281
64090W        W35761   0.452  36.375  13.409
64091W        W35762   0.799  16.321   1.709
64092W        W35763   9.680  11.248  11.206
64093W        W35764  13.450   4.179  14.537
64094W        W35765  14.889  24.955   4.631
64095W        W35766   5.700   9.244  14.924
64096W        W35767   4.276  31.016  12.803
64097W        W35768   0.987   1.702   2.244
64098W        W35769   2.188   3.361  14.551
64099W        W35770  16.740  21.207   4.631
64100W        W35771   3.475   4.161  13.503
64101W        W35772  19.569   5.156  10.940
64102W        W35773  44.544  11.149  11.065
64103W        W35774  40.481  37.872   1.834
64104W        W35775  11.798  36.442  14.827
64105W        W35776  27.186   5.105  13.489
64106W        W35777  43.473   5.416   2.776
64107W        W35778  17.101  12.915  12.066
64108W        W35779  27.501  22.187  14.896
64109W        W35780  11.791  19.204  14.433
64110W        W35781  32.105  16.368   1.393
64111W        W35782  23.274  27.479  11.965
64112W        W35783  38.173  32.434   2.775
64113W        W35784  44.341  39.640   9.881
64114W        W35785  15.539  22.049   0.775
64115W        W35786  25.624  10.361   0.343
64116W        W35787   5.269  15.782  13.993
64117W        W35788  37.958  10.537  13.030
64118W        W35789   5.689  37.580  13.775
64119W        W35790  16.516  30.122   2.071
64120W        W35791  11.882  31.600  12.839
64121W        W35792   3.432  29.442  12.627
64122W        W35793  12.467  32.999  14.521
64123W        W35794  25.160  18.836   4.793
64124W        W35795  18.176  28.925  11.853
64125W        W35796  10.044  11.808   4.135
64126W        W35797   4.824  40.019   0.301
64127W        W35798  16.293  26.348   0.355
64128W        W35799  42.772  32.735  13.903
64129W        W35800  40.452  27.222  10.720
64130W        W35801  24.092   4.607   0.009
64131W        W35802  24.440  33.296   2.060
64132W        W35803  28.171  43.890   1.829
64133W        W35804  42.570   2.956   1.227
64134W        W35805   3.413  14.579   3.687
64135W        W35806  38.777   4.168  12.447
64136W        W35807   4.508   8.369  11.581
64137W        W35808  44.883   9.311   2.112
64138W        W35809  19.039  13.853   1.446
64139W        W35810  27.407  25.184  13.921
64140W        W35811  22.006   6.906  13.991
64141W        W35812  33.418  31.656  11.824
64142W        W35813   3.636   4.180   2.882
64143W        W35814  31.134  10.871   1.014
64144W        W35815   7.143  20.136   4.636
64145W        W35816  13.806  14.663   0.904
64146W        W35817  17.310  38.471  10.421
64147W        W35818  21.198  36.911   1.409
64148W        W35819   4.744   1.815  12.850
64149W        W35820  39.631  40.904   1.835
64150W        W35821  12.253  27.169   4.635
64151W        W35822  29.240  25.087  12.114
64152W        W35823   6.420  44.521  13.007
64153W        W35824  22.059   0.850   4.156
64154W        W35825  11.870  30.626  12.898
64155W        W35826  24.247   6.647  13.867
64156W        W35827  38.824  13.767   3.351
64157W        W35828  36.621   7.837  11.238
64158W        W35829   0.646  42.848  14.479
64159W        W35830  38.304  25.678   4.679
64160W        W35831  32.399  25.384   4.881
64161W        W35832  38.938  40.051   4.421
64162W        W35833  20.924  34.876   5.015
64163W        W35834  31.354  31.096  10.626
64164W        W35835  12.850  37.483   2.232
64165W        W35836  19.257  17.167   2.403
64166W        W35837  24.675  32.621   3.875
64167W        W35838   6.737  41.431  12.867
64168W        W35839  25.110  31.142   1.201
64169W        W35840  41.096  19.044   3.287
64170W        W35841  32.116  40.801  11.204
64171W        W35842  13.325  16.284   0.193
64172W        W35843  33.572  29.017   3.210
64173W        W35844   5.941  15.587  14.534
64174W        W35845  43.335  26.751  10.278
64175W        W35846   1.047  34.055  14.399
64176W        W35847   1.962   5.296  14.046
64177W        W35848  35.605  29.938  11.998
64178W        W35849  36.348  26.774  10.792
64179W        W35850   7.247  17.328  12.950
64180W        W35851  35.832  42.923  13.399
64181W        W35852   0.370  33.994  13.019
64182W        W35853  28.840  37.003  10.665
64183W        W35854  22.203  14.178   4.411
64184W        W35855  26.145  18.294  13.536
64185W        W35856  35.345  42.399  10.566
64186W        W35857  26.951  26.457  14.485
64187W        W35858   0.240  16.646   2.789
64188W        W35859  14.867  33.976  12.948
64189W        W35860   8.806  31.125  13.853
64190W        W35861   4.953  12.315   4.107
64191W        W35862  35.633  37.397   2.217
64192W        W35863   6.131  25.923   1.859
64193W        W35864  44.497  11.972   1.890
64194W        W35865  41.567   6.342  14.263
64195W        W35866   3.583   5.763  14.972
64196W        W35867  26.229   6.015  10.757
64197W        W35868  32.147  21.256  14.814
64198W        W35869  40.753  25.403  12.416
64199W        W35870  38.875  26.234  11.853
64200W        W35871   9.244   5.705   0.430
64201W        W35872  40.234   6.762   4.204
64202W        W35873  11.685  10.330   4.563
64203W        W35874   4.554  38.848   2.393
64204W        W35875  19.932  16.534   1.303
64205W        W35876  25.641  25.944   2.775
64206W        W35877  33.046   2.234   0.753
64207W        W35878  35.533  21.582   3.660
64208W        W35879  12.107  13.097  14.215
64209W        W35880  33.255  17.280  14.691
64210W        W35881  25.224  18.347  13.406
64211W        W35882  37.381  41.738  13.495
64212W        W35883   4.426   5.226  12.038
64213W        W35884  42.293   2.673   3.643
64214W        W35885  41.185  10.151   3.621
64215W        W35886  18.497   3.812  10.443
64216W        W35887  38.259  10.802   1.811
64217W        W35888  11.898  41.859  13.952
64218W        W35889  20.038  27.833   3.562
64219W        W35890  40.424  29.086  14.725
64220W        W35891  42.321  31.414  11.215
64221W        W35892  32.688   0.439   2.808
64222W        W35893  44.291  22.744  10.211
64223W        W35894  11.812  44.916   9.975
64224W        W35895  26.542   5.684  14.916
64225W        W35896  28.583   2.027  11.796
64226W        W35897  12.809  29.889  13.709
64227W        W35898  42.445  34.853   1.644
64228W        W35899  30.408   0.464   0.332
64229W        W35900  35.116  39.367   0.936
64230W        W35901   4.999  22.274  11.032
64231W        W35902   2.392  18.816   3.087
64232W        W35903  24.504  27.110  14.563
64233W        W35904  16.025  11.831  13.194
64234W        W35905  24.463  16.218  12.466
64235W        W35906  28.918  24.215   4.192
64236W        W35907  21.931  44.400   3.333
64237W        W35908  32.647  12.253   2.917
64238W        W35909   6.195  17.085   0.495
64239W        W35910  12.894  18.125   3.505
64240W        W35911  28.046   4.025  10.722
64241W        W35912   4.144  10.689  14.761
64242W        W35913   9.322   7.733  11.172
64243W        W35914  35.689  26.028   4.152
64244W        W35915  27.647  16.339   0.652
64245W        W35916  36.389  38.112  10.238
64246W        W35917  33.548  32.547  13.036
64247W        W35918  17.123   6.527   1.648
64248W        W35919  26.984   3.475   1.635
64249W        W35920  24.520   0.454   0.292
64250W        W35921  38.506  21.549  13.144
64251W        W35922  21.037  12.241   4.246
64252W        W35923  17.331  18.649   1.455
64253W        W35924  28.075  10.633   5.200
64254W        W35925  14.374  23.135   3.583
64255W        W35926  17.795   2.144   0.230
64256W        W35927  18.772  34.313   3.181
64257W        W35928   8.364  24.903  11.562
64258W        W35929   5.922  35.968   3.813
64259W        W35930  29.428  30.233   3.176
64260W        W35931   0.348   5.390   1.016
64261W        W35932  19.094  19.476   1.447
64262W        W35933  10.644  23.482   3.732
64263W        W35934   5.696  44.674  13.063
64264W        W35935   0.319   4.921   3.752
64265W        W35936  32.986  30.981   0.918
64266W        W35937  19.898   1.339  14.400
64267W        W35938  23.520   7.247   3.741
64268W        W35939   7.004  22.392  11.504
64269W        W35940  32.623   6.927   1.280
64270W        W35941  32.844  17.570  12.499
64271W        W35942  20.534  13.627   1.925
64272W        W35943  39.891  39.807   0.404
64273W        W35944   4.754  15.826   3.226
64274W        W35945  20.126   5.187  10.172
64275W        W35946  27.707  14.236   1.242
64276W        W35947  43.965  20.595  10.470
64277W        W35948  10.857   7.128   4.128
64278W        W35949  39.307   5.718   2.610
64279W        W35950  10.155  25.617   2.243
64280W        W35951  35.083  21.357   3.678
64281W        W35952  17.774  35.329   1.482
64282W        W35953   2.198  26.999  13.236
64283W        W35954   6.815  16.786   1.658
64284W        W35955   8.321  20.936   3.301
64285W        W35956  29.966   8.407   4.139
64286W        W35957  42.753   9.011   1.552
64287W        W35958   8.195  44.079  14.849
64288W        W35959  22.424  11.231  10.759
64289W        W35960  30.234  43.990  12.045
64290W        W35961  30.533   1.282   3.710
64291W        W35962  25.165  13.557   3.700
64292W        W35963  17.735  32.946  13.042
64293W        W35964  37.579   0.971  13.484
64294W        W35965  36.372  40.393  13.913
64295W        W35966  35.965   3.713   0.747
64296W        W35967   1.050  12.430  10.126
64297W        W35968  42.186  38.347   3.704
64298W        W35969  13.794  35.861  10.530
64299W        W35970  31.492  39.454   4.887
64300W        W35971  13.766   4.749   1.220
64301W        W35972   7.810  28.806  11.643
64302W        W35973   8.847  29.131   3.279
64303W        W35974  10.702  37.616  11.099
64304W        W35975  22.205  42.328  11.508
64305W        W35976  27.710   9.676   2.462
64306W        W35977  14.992  27.676   3.338
64307W        W35978  43.800  44.474   1.299
64308W        W35979   2.187  23.660   1.899
64309W        W35980  12.864  34.796   1.734
64310W        W35981  19.153  24.647  12.934
64311W        W35982  28.841  16.575   3.850
64312W        W35983  28.926  39.526  13.355
64313W        W35984  44.773  38.886   0.555
64314W        W35985  13.346  12.652   3.981
64315W        W35986  11.527  18.502   2.821
64316W        W35987   5.929   9.751   1.102
64317W        W35988  21.150  30.377  14.921
64318W        W35989   3.259   7.205   2.696
64319W        W35990   0.348  16.237   4.389
64320W        W35991  41.787  34.247   0.764
64321W        W35992  12.275   2.932  14.470
64322W        W35993  28.641  35.034   0.423
64323W        W35994   1.334  26.719   1.864
64324W        W35995   3.875  19.572   2.796
64325W        W35996  32.779  13.821   1.708
64326W        W35997  21.298   3.693   1.879
64327W        W35998  13.328  42.762  12.061
64328W        W35999   7.428   3.735  12.515
64329W        W36000  30.942  18.516   0.187
64330W        W36001  17.940  16.992  14.826
64331W        W36002  29.728  32.461  11.993
64332W        W36003   2.792   9.914  11.564
64333W        W36004  25.661  33.889  11.613
64334W        W36005  23.973  12.732   4.641
64335W        W36006  20.635  10.219  10.706
64336W        W36007  40.433  31.628   2.587
64337W        W36008  39.290  27.123  11.124
64338W        W36009   2.322   2.962   0.971
64339W        W36010  25.442   9.313   0.847
64340W        W36011  10.739  35.954  14.455
64341W        W36012  36.914  34.671  11.076
64342W        W36013  42.573  41.483  10.120
64343W        W36014  34.363  30.204   1.429
64344W        W36015  24.541  28.546  14.086
64345W        W36016  42.973  22.034   5.036
64346W        W36017   6.575   2.409   1.311
64347W        W36018  31.817  10.255  13.552
64348W        W36019  30.152   9.202  11.470
64349W        W36020  10.764   3.687   1.872
64350W        W36021  34.914   7.206  11.833
64351W        W36022  26.545  16.948  11.805
64352W        W36023  36.988  31.173   0.344
64353W        W36024  38.834  41.068   0.076
64354W        W36025  24.573   0.297  11.115
64355W        W36026  43.974  37.018  11.647
64356W        W36027  40.886   8.824   0.812
64357W        W36028  21.239   2.244  12.012
64358W        W36029  31.983   1.888  12.346
64359W        W36030  29.334   4.990  14.007
64360W        W36031  32.989  42.555   3.201
64361W        W36032  43.258   6.752  11.408
64362W        W36033  20.914  13.881   9.808
64363W        W36034  37.003  42.000   5.037
64364W        W36035  37.992  20.571  11.865
64365W        W36036   6.822  15.675   0.819
64366W        W36037  35.088   3.500   2.979
64367W        W36038  37.005  15.716  13.652
64368W        W36039   7.353  37.634  14.894
64369W        W36040  18.959  32.557  11.418
64370W        W36041  34.470  21.154  11.838
64371W        W36042  29.182   6.894   5.382
64372W        W36043  26.536  21.969   2.382
64373W        W36044  38.469   3.930   0.473
64374W        W36045  31.553  41.811   1.357
64375W        W36046  21.051  15.707   1.500
64376W        W36047  14.134  27.164   4.927
64377W        W36048   4.335  12.917   2.082
64378W        W36049  18.656  25.497  14.773
64379W        W36050  37.493  28.620   2.356
64380W        W36051   2.632  19.154   3.977
64381W        W36052   4.209  21.026  14.452
64382W        W36053  14.189  38.509   3.383
64383W        W36054  44.500   9.135   0.548
64384W        W36055   4.855   3.283  10.380
64385W        W36056   4.771  31.565  11.471
64386W        W36057  42.009  34.163   3.190
64387W        W36058  40.000  26.774  14.961
64388W        W36059  24.239  39.237  12.064
64389W        W36060   7.628  13.739  11.572
64390W        W36061   4.271  41.421  12.668
64391W        W36062  33.690   9.586   5.133
64392W        W36063  37.419  43.579   4.044
64393W        W36064   5.862   5.408   1.788
64394W        W36065   1.014   2.920  14.959
64395W        W36066  19.362  22.062   0.358
64396W        W36067  25.603   9.115   4.783
64397W        W36068  24.463   6.646   0.209
64398W        W36069  38.841  36.471  13.787
64399W        W36070   9.305  15.747   2.412
64400W        W36071   8.685  32.278   2.285
64401W        W36072  19.265   6.237  14.457
64402W        W36073  41.485  11.605   1.963
64403W        W36074  19.595  18.824  14.461
64404W        W36075  39.951  35.016   1.802
64405W        W36076  34.042   1.226   0.856
64406W        W36077  42.927  37.218  14.498
64407W        W36078  11.353  40.216  10.657
64408W        W36079  19.761  17.657   0.903
64409W        W36080   7.489  10.852   1.351
64410W        W36081   9.071  13.599  11.537
64411W        W36082  12.306   7.337   2.952
64412W        W36083   7.662   5.239  12.529
64413W        W36084  32.779  29.532   3.102
64414W        W36085   3.271   3.399   0.966
64415W        W36086  42.712  18.118   1.493
64416W        W36087   2.287   7.784   4.977
64417W        W36088  42.266  10.837  10.669
64418W        W36089  26.712  37.009  12.979
64419W        W36090  18.914  29.781   0.681
64420W        W36091  14.808  43.891   2.347
64421W        W36092  38.372  40.542  12.879
64422W        W36093  38.148  39.218  13.542
64423W        W36094   8.938   7.298   1.859
64424W        W36095  15.719  25.993  11.469
64425W        W36096  23.936  34.032   2.599
64426W        W36097  36.777  34.468   3.644
64427W        W36098  22.103  41.449   5.383
64428W        W36099  27.601  32.142   3.280
64429W        W36100  24.590  39.568   3.831
64430W        W36101  10.850  18.752  11.440
64431W        W36102  39.930  27.426  10.667
64432W        W36103  11.815  10.800   4.384
64433W        W36104  17.628   6.369  11.531
64434W        W36105  43.006   9.334  13.081
64435W        W36106  38.532  31.166   0.367
64436W        W36107   5.827  26.897  14.755
64437W        W36108  22.697  34.168   4.183
64438W        W36109  29.719   7.903   3.755
64439W        W36110  29.175  23.935   3.640
64440W        W36111  42.949  22.670   2.930
64441W        W36112  44.029   4.668   3.301
64442W        W36113  10.928   7.642   0.899
64443W        W36114   0.237  38.308  14.470
64444W        W36115  27.206  37.813  10.603
64445W        W36116  10.837  30.024   1.463
64446W        W36117  37.099  16.073  11.485
64447W        W36118   6.209  18.683   2.700
64448W        W36119  29.673  41.750  12.568
64449W        W36120  17.064   9.215   2.564
64450W        W36121   8.794  43.842  13.986
64451W        W36122   7.011  39.979  14.247
64452W        W36123   8.672   5.663  13.314
64453W        W36124  32.994   1.343   3.364
64454W        W36125  11.301  42.944  11.114
64455W        W36126   2.007  39.984  13.314
64456W        W36127  32.804  21.111   3.238
64457W        W36128  33.166  31.095  12.496
64458W        W36129  37.534  43.004  14.056
64459W        W36130  24.203  31.566  14.336
64460W        W36131  27.161  21.500  13.332
64461W        W36132  15.986   6.861   2.474
64462W        W36133  15.711   0.859  10.901
64463W        W36134  42.423  34.885   0.233
64464W        W36135  42.919  14.809   3.128
64465W        W36136  32.982  26.721  11.616
64466W        W36137  31.167   8.719   0.518
64467W        W36138  32.074   6.263   2.837
64468W        W36139  21.027  30.143   0.696
64469W        W36140  13.892   5.689  12.429
64470W        W36141  23.820  23.150   1.643
64471W        W36142  38.996   0.373   2.859
64472W        W36143  16.869  22.259  11.057
64473W        W36144  25.342  17.033  11.846
64474W        W36145  12.279   1.011  10.589
64475W        W36146  14.568  42.333   1.230
64476W        W36147   3.912   2.290   4.888
64477W        W36148  43.277  34.047   2.888
64478W        W36149  16.078  15.308  14.262
64479W        W36150  28.445   0.257   0.220
64480W        W36151  13.581  38.327   1.393
64481W        W36152   1.849  29.584   4.113
64482W        W36153   2.755  34.474   4.610
64483W        W36154   4.375  23.084   4.739
64484W        W36155  32.961  20.068   2.217
64485W        W36156  30.226   5.467   2.006
64486W        W36157  13.674   1.039  14.642
64487W        W36158   7.930  25.170  11.538
64488W        W36159  10.161  15.269  12.662
64489W        W36160  40.009  41.971   3.918
64490W        W36161   5.763  34.913  10.599
64491W        W36162  13.201  16.041   4.291
64492W        W36163  37.314  44.988   2.274
64493W        W36164  30.481  44.039   4.221
64494W        W36165  14.111  31.389   0.192
64495W        W36166  16.123   8.349   0.415
64496W        W36167   3.378  43.990   3.851
64497W        W36168   2.330  40.896  13.523
64498W        W36169  36.068  33.479   5.066
64499W        W36170  44.939   6.731  12.292
64500W        W36171   9.684   0.913  11.560
64501W        W36172  18.701  26.042  11.966
64502W        W36173   3.925  37.297   3.121
64503W        W36174  34.582  13.227  12.356
64504W        W36175  21.720  14.081   1.388
64505W        W36176  36.380  26.442  10.397
64506W        W36177  40.542  24.388  13.734
64507W        W36178   5.869  17.196   3.999
64508W        W36179  29.358  37.333   0.227
64509W        W36180  18.331  38.496   3.225
64510W        W36181   7.029  22.011  14.098
64511W        W36182  29.499  15.591  13.514
64512W        W36183   8.727  40.076  12.666
64513W        W36184  37.947  30.435  14.970
64514W        W36185  27.182   8.415  14.857
64515W        W36186  32.858  36.498   3.295
64516W        W36187  44.237  41.794  14.183
64517W        W36188  30.534   4.939  13.362
64518W        W36189  24.623   7.937  11.663
64519W        W36190  13.805   2.377  12.471
64520W        W36191   1.983  41.466  10.751
64521W        W36192  44.965   0.323   4.682
64522W        W36193  19.697  15.589  12.087
64523W        W36194  37.210  10.621   1.658
64524W        W36195  20.434  33.801  11.187
64525W        W36196   9.210   0.738  13.875
64526W        W36197  11.276  23.109   1.419
64527W        W36198  18.479   9.771   1.810
64528W        W36199  35.646  13.030  13.377
64529W        W36200  12.179  31.464  12.399
64530W        W36201   0.724  14.838   0.360
64531W        W36202  19.126  22.395  13.557
64532W        W36203  15.333   5.272   0.540
64533W        W36204  30.779  24.815   2.237
64534W        W36205   0.203  34.396  10.648
64535W        W36206  28.352  42.605   2.745
64536W        W36207   0.158  16.735  11.212
64537W        W36208  17.552   9.843  13.630
64538W        W36209  43.479  39.890  10.690
64539W        W36210   4.413  25.422   1.800
64540W        W36211   9.483  43.505   0.196
64541W        W36212  29.710   9.514  12.696
64542W        W36213  21.945   4.811  12.842
64543W        W36214  39.807  22.375   1.168
64544W        W36215  30.864   7.362  13.980
64545W        W36216  24.241  40.261   3.696
64546W        W36217  14.232  34.056   4.122
64547W        W36218  29.169  36.542   3.921
64548W        W36219  33.134  30.452   1.796
64549W        W36220  41.398  32.886  11.208
64550W        W36221   6.459  43.242   4.362
64551W        W36222   2.881  38.328  13.501
64552W        W36223  39.727  34.595  11.151
64553W        W36224  13.171   9.258   0.108
64554W        W36225  19.559  32.400   1.027
64555W        W36226  13.629   9.710  14.379
64556W        W36227  15.064  10.861   4.609
64557W        W36228   4.504  19.629  13.824
64558W        W36229  33.949  36.783   1.796
64559W        W36230  15.681   4.388  13.821
64560W        W36231   5.107  10.238   4.203
64561W        W36232  16.976  38.790  11.565
64562W        W36233  30.094  35.136   0.386
64563W        W36234  39.225  11.314   1.086
64564W        W36235   8.340  10.680   4.358
64565W        W36236  22.958  16.608  11.109
64566W        W36237   8.632  12.733  13.105
64567W        W36238  21.787   6.856  14.895
64568W        W36239  33.179  26.008   2.269
64569W        W36240  11.544  35.396   0.468
64570W        W36241  15.581   5.141   4.671
64571W        W36242  10.239  11.141  12.603
64572W        W36243  19.881   6.349  12.996
64573W        W36244  30.316  38.554   2.847
64574W        W36245   5.842  19.898  12.195
64575W        W36246  32.843   8.432   0.849
64576W        W36247  26.701  11.576  10.867
64577W        W36248  37.244  20.720   3.210
64578W        W36249  33.436  40.585   4.660
64579W        W36250  44.999   6.498  12.947
64580W        W36251  42.508   4.806   3.099
64581W        W36252  28.070  29.515   2.769
64582W        W36253  33.290   4.093   1.492
64583W        W36254  16.162  30.478  14.399
64584W        W36255  43.296  27.070   4.392
64585W        W36256  43.799   0.329  12.066
64586W        W36257  15.224  10.838  10.979
64587W        W36258   4.878  38.880  13.686
64588W        W36259   4.643  44.221  12.928
64589W        W36260  29.182  40.032   0.314
64590W        W36261   9.572  28.166  13.780
64591W        W36262  24.301  12.932  12.183
64592W        W36263  14.697  18.059  14.312
64593W        W36264  34.466   9.890   0.201
64594W        W36265  42.223  25.443  11.314
64595W        W36266   7.834   4.025  14.010
64596W        W36267   1.880  23.486  10.521
64597W        W36268  17.998  33.550  11.873
64598W        W36269  33.012  12.088  10.667
64599W        W36270  25.303  23.110  11.000
64600W        W36271  16.545  43.269  13.488
64601W        W36272  29.192  15.796   1.202
64602W        W36273  24.233  27.547  14.395
64603W        W36274  34.295  39.188  10.617
64604W        W36275  11.315   7.338  14.388
64605W        W36276  30.541  32.174   1.195
64606W        W36277  41.520   0.342  14.570
64607W        W36278  32.608  43.304   4.671
64608W        W36279  21.901  37.053   1.975
64609W        W36280   4.443  22.141   2.683
64610W        W36281  23.070  39.905  11.296
64611W        W36282   7.375  39.038   4.062
64612W        W36283  42.635  23.170   2.701
64613W        W36284  38.534  16.175  13.635
64614W        W36285  33.955  40.544   1.170
64615W        W36286   7.695  43.833  10.965
64616W        W36287   7.689   4.846   4.721
64617W        W36288  17.685  27.247  11.118
64618W        W36289  39.999   7.390  14.039
64619W        W36290   1.939  38.037  14.757
64620W        W36291   7.434  18.906  14.432
64621W        W36292   2.718  28.263   1.334
64622W        W36293  14.808  24.022   1.208
64623W        W36294  35.457  28.702   1.340
64624W        W36295  40.627  23.536   3.840
64625W        W36296  15.280  24.945   1.356
64626W        W36297  28.745  30.866  13.347
64627W        W36298  41.876  22.242   4.623
64628W        W36299  14.013  22.459   2.302
64629W        W36300  27.431  17.687   0.353
64630W        W36301  40.757  38.945  10.661
64631W        W36302   9.781  36.400  11.422
64632W        W36303   3.391   0.250   1.789
64633W        W36304   0.775  31.534   3.288
64634W        W36305  30.069  37.956  10.762
64635W        W36306  23.772   9.137   1.286
64636W        W36307  36.644  34.141  12.950
64637W        W36308  42.004   9.245  14.074
64638W        W36309  15.252   3.390  14.102
64639W        W36310  19.236   0.447   2.207
64640W        W36311  40.925   8.658  14.830
64641W        W36312  28.465   6.243  11.059
64642W        W36313  32.689  43.536  14.756
64643W        W36314  25.145  18.663   2.326
64644W        W36315  23.609  15.145   2.788
64645W        W36316   0.666  37.631  11.427
64646W        W36317  11.087   8.852   2.060
64647W        W36318  40.565  36.144  13.946
64648W        W36319  32.836  44.247  11.479
64649W        W36320  24.491  27.075  13.087
64650W        W36321  42.930  23.438   0.968
64651W        W36322  26.278  19.082   2.443
64652W        W36323  14.267  30.824   4.868
64653W        W36324  21.789   9.773  13.805
64654W        W36325  13.871  11.746   0.554
64655W        W36326  16.869  31.934  10.435
64656W        W36327  14.233  41.505   4.965
64657W        W36328  15.739  34.853  14.982
64658W        W36329   5.440   8.835  12.884
64659W        W36330   2.017  31.546  13.821
64660W        W36331   4.434  31.476   0.421
64661W        W36332  32.503  37.859   1.752
64662W        W36333   1.858  25.724   3.680
64663W        W36334  11.531  18.680   1.940
64664W        W36335  38.132  30.350  14.487
64665W        W36336  28.017  40.300  12.332
64666W        W36337  29.569  11.700   1.319
64667W        W36338  14.614  37.882  11.476
64668W        W36339   6.297  34.123  13.365
64669W        W36340  15.118  10.735  13.494
64670W        W36341   9.923   3.960   0.033
64671W        W36342   7.143  34.310  11.096
64672W        W36343  11.473  42.188   4.439
64673W        W36344  38.574  31.455   1.323
64674W        W36345  10.397   8.146   2.824
64675W        W36346  23.124  37.966  10.600
64676W        W36347  33.523   0.372  14.106
64677W        W36348  24.464  31.404   2.279
64678W        W36349  34.513  42.472  11.828
64679W        W36350  22.278   1.333  14.299
64680W        W36351  13.091  21.238  11.946
64681W        W36352  33.933   7.354   2.392
64682W        W36353  19.593  20.507  12.578
64683W        W36354  11.406   6.236  13.797
64684W        W36355   8.916  19.657  12.749
64685W        W36356  17.702  30.460  13.873
64686W        W36357  37.596  10.697   3.695
64687W        W36358  38.356   9.795  11.469
64688W        W36359  41.126  38.974   4.578
64689W        W36360  13.192  40.484   3.584
64690W        W36361   5.364  17.877   4.510
64691W        W36362  40.572  13.921  14.808
64692W        W36363  16.117  18.406  14.792
64693W        W36364  35.607  20.604  11.577
64694W        W36365  21.847  40.936  11.109
64695W        W36366  40.796  13.620   4.561
64696W        W36367  13.914  43.176  13.872
64697W        W36368  40.433  26.019   2.329
64698W        W36369   7.176  18.542  11.163
64699W        W36370  10.841  14.626   1.045
64700W        W36371  38.032  32.964   2.895
64701W        W36372  18.442   5.884   4.068
64702W        W36373   9.194  28.257  10.240
64703W        W36374   7.164  38.433   2.659
64704W        W36375   5.337  14.008  12.711
64705W        W36376  22.542  33.150  13.326
64706W        W36377  31.480   6.322  14.106
64707W        W36378  15.064   5.389  13.983
64708W        W36379  33.176  34.956   0.362
64709W        W36380  23.600   8.334  12.939
64710W        W36381  24.406  39.688  11.224
64711W        W36382  10.909   3.919   2.828
64712W        W36383   8.859  42.255  14.078
64713W        W36384  26.602  24.189   4.504
64714W        W36385  29.048  41.553   4.844
64715W        W36386  42.568   1.363  13.110
64716W        W36387  22.661  11.270  14.367
64717W        W36388   6.138  11.726  13.776
64718W        W36389   5.834  16.660  11.229
64719W        W36390  14.685  42.572  10.981
64720W        W36391  31.674  31.369  14.900
64721W        W36392   7.877  37.533  14.843
64722W        W36393  41.833  17.179   5.026
64723W        W36394   4.840  39.383   1.002
64724W        W36395   6.559  24.339   1.803
64725W        W36396  16.821  20.477  13.461
64726W        W36397   9.094  44.829   2.325
64727W        W36398  31.996   4.243  12.485
64728W        W36399  18.330  29.114   0.177
64729W        W36400  17.664   5.732   0.886
64730W        W36401   0.467  37.822  12.293
64731W        W36402  20.040  18.883  10.675
64732W        W36403   1.385  20.035  13.479
64733W        W36404   9.196   6.699   4.699
64734W        W36405  20.321  36.375   2.418
64735W        W36406  31.321  19.512  10.728
64736W        W36407   7.305  26.112  11.506
64737W        W36408  25.937   3.697   1.330
64738W        W36409  22.713   4.196  14.039
64739W        W36410   9.774   7.057   0.893
64740W        W36411  14.914  32.979   3.328
64741W        W36412   2.403   1.766   1.830
64742W        W36413  19.734  33.461  14.725
64743W        W36414  36.927   2.835   3.690
64744W        W36415   2.655  23.446   1.731
64745W        W36416  27.523  40.743  11.198
64746W        W36417  11.119  11.073  13.615
64747W        W36418  43.770  27.152   2.240
64748W        W36419  35.415  43.218  14.355
64749W        W36420   6.429   3.064   2.669
64750W        W36421  35.811  44.895   4.151
64751W        W36422  40.998  39.888   3.045
64752W        W36423   7.891   3.048   4.038
64753W        W36424  13.991  36.384   3.063
64754W        W36425  12.695  20.859   5.006
64755W        W36426  40.640   1.491  10.604
64756W        W36427  19.741  35.621  12.590
64757W        W36428  35.505  34.122  11.685
64758W        W36429  13.377  37.258  10.387
64759W        W36430   1.888  41.915  11.861
64760W        W36431  31.627  38.978   2.863
64761W        W36432  34.589  35.644  14.001
64762W        W36433  38.786  10.525   4.525
64763W        W36434  13.732  30.315   3.825
64764W        W36435  33.906  16.798   2.032
64765W        W36436  34.385  14.701   4.360
64766W        W36437  30.074   1.828   0.455
64767W        W36438  28.812  43.443  11.586
64768W        W36439  42.104  44.828  11.037
64769W        W36440  20.944  16.685  14.011
64770W        W36441  30.870  39.489  14.971
64771W        W36442  20.042  17.493   1.374
64772W        W36443   8.720  30.655  14.937
64773W        W36444  10.829  41.334   3.195
64774W        W36445  40.455   8.935   1.785
64775W        W36446  41.210  36.799   1.644
64776W        W36447  30.888  20.731  12.034
64777W        W36448  23.537  27.732   1.281
64778W        W36449  12.377  40.263   3.297
64779W        W36450  13.185  14.481   3.654
64780W        W36451  11.648  39.572   4.182
64781W        W36452  24.310  24.291  13.042
64782W        W36453  37.452  26.955   0.545
64783W        W36454  30.047  23.417   3.338
64784W        W36455   1.375  10.106  13.637
64785W        W36456  12.406  22.757  14.363
64786W        W36457  22.445  33.315   3.199
64787W        W36458   4.390  22.934  14.967
64788W        W36459  20.839   6.269   4.474
64789W        W36460   1.394  14.622   3.142
64790W        W36461  14.834   9.952   2.218
64791W        W36462   0.870  15.024  13.908
64792W        W36463  13.536  11.266  10.974
64793W        W36464  15.165  43.219   2.866
64794W        W36465  10.144  39.607  12.146
64795W        W36466   8.398  37.049   1.251
64796W        W36467  36.430   8.784  10.297
64797W        W36468  31.795   2.670  13.858
64798W        W36469  15.837   8.343   2.921
64799W        W36470  26.389  23.557  14.064
64800W        W36471   0.018  11.774   0.861
64801W        W36472   0.537  31.103  14.983
64802W        W36473  25.342  34.268   0.869
64803W        W36474   2.732   7.104  13.394
64804W        W36475  35.494  16.773  13.876
64805W        W36476  38.173  10.706   0.446
64806W        W36477  10.230  23.114   3.876
64807W        W36478  18.867   4.478   4.249
64808W        W36479  14.737  20.248  11.904
64809W        W36480  30.562  24.087  10.816
64810W        W36481  11.082  11.005  11.981
64811W        W36482   6.765  15.638   2.147
64812W        W36483  14.566  28.957  11.895
64813W        W36484  29.379  25.923  11.075
64814W        W36485  12.380  39.355  11.231
64815W        W36486  12.906  12.792  11.119
64816W        W36487  18.739  38.523  12.449
64817W        W36488  42.801   8.126   4.201
64818W        W36489  41.902   1.033   4.776
64819W        W36490  31.654  25.773   1.307
64820W        W36491  24.247  22.857  10.209
64821W        W36492   0.613   9.806  13.132
64822W        W36493  30.372  12.795   0.821
64823W        W36494   6.831  24.720  14.863
64824W        W36495  15.351  14.851  12.876
64825W        W36496  36.328  30.913   1.924
64826W        W36497  15.825   1.303  11.137
64827W        W36498  20.254   6.676  14.809
64828W        W36499  10.911  35.925  11.188
64829W        W36500  32.590   6.278   2.985
64830W        W36501  21.038  35.427  12.522
64831W        W36502   1.333   3.530  12.362
64832W        W36503   2.852  25.932  12.975
64833W        W36504  42.584   1.516   3.236
64834W        W36505  39.834  12.618   1.346
64835W        W36506  34.507  26.959  12.940
64836W        W36507  28.759  38.436   0.492
64837W        W36508  20.969  25.659   4.318
64838W        W36509  17.669  40.447  11.921
64839W        W36510  20.545  14.984  14.515
64840W        W36511  18.809  34.105   0.241
64841W        W36512  12.176  34.362   0.423
64842W        W36513  18.183  15.985   3.094
64843W        W36514   1.325  22.240   1.850
64844W        W36515   6.895  15.827  13.462
64845W        W36516  32.069  33.998   3.461
64846W        W36517  31.057   3.351   0.335
64847W        W36518  43.565  43.142   1.236
64848W        W36519  35.426  36.851   4.968
64849W        W36520   9.424  10.821   2.340
64850W        W36521  33.851   3.581  11.092
64851W        W36522   2.396  29.995   0.293
64852W        W36523  24.178  18.111   4.612
64853W        W36524   9.949  21.224   4.549
64854W        W36525   6.177  41.386   0.363
64855W        W36526  32.485  10.018  11.560
64856W        W36527  23.704  14.614  14.477
64857W        W36528  30.197  12.211  12.641
64858W        W36529  29.646  42.508   3.693
64859W        W36530  10.879   5.742  12.473
64860W        W36531  22.065  25.141  10.454
64861W        W36532   8.365  39.559   2.335
64862W        W36533  38.933  11.549  13.149
64863W        W36534  33.688  15.721   3.025
64864W        W36535  30.865  42.420  14.876
64865W        W36536  11.504  39.729  10.573
64866W        W36537  25.518  30.419  13.484
64867W        W36538   5.702  23.686   4.508
64868W        W36539   3.262  14.663   1.793
64869W        W36540  42.896   8.255   1.775
64870W        W36541  23.681  16.412   4.323
64871W        W36542  25.409   9.197   2.332
64872W        W36543  13.576  27.496  12.178
64873W        W36544  18.563  32.388  13.885
64874W        W36545   1.854  29.305   4.556
64875W        W36546  34.566  36.425   3.675
64876W        W36547  31.008  19.877   5.024
64877W        W36548  33.585  21.770  12.605
64878W        W36549  20.988  34.015  12.504
64879W        W36550  12.121   9.942  11.203
64880W        W36551   4.916   3.768  10.183
64881W        W36552  26.626  42.608  12.458
64882W        W36553  18.281  39.947  12.594
64883W        W36554  41.559   8.378  11.664
64884W        W36555  36.127  20.609  11.589
64885W        W36556  13.462  39.016   2.952
64886W        W36557  10.118   4.893  12.793
64887W        W36558  32.247   2.769  12.958
64888W        W36559   6.129  23.120  11.589
64889W        W36560  38.770  33.024   1.322
64890W        W36561  44.321  38.624   3.043
64891W        W36562  13.727  28.445   1.587
64892W        W36563  14.606  29.145   3.859
64893W        W36564  37.832  19.786  11.235
64894W        W36565  29.905  11.258  12.931
64895W        W36566  16.646   9.583  10.802
64896W        W36567  21.961   5.238   1.977
64897W        W36568  12.776  27.764  12.954
64898W        W36569  24.229  36.481  14.271
64899W        W36570  10.779  22.232   1.276
64900W        W36571   6.841  20.628  12.938
64901W        W36572  10.649  15.076   1.948
64902W        W36573  17.253  14.393   3.292
64903W        W36574  33.931  39.780  11.655
64904W        W36575  41.878   2.217   1.099
64905W        W36576   4.291  36.848   4.872
64906W        W36577   0.288  38.462  13.374
64907W        W36578  34.568   1.920   0.854
64908W        W36579  29.127  34.938  13.690
64909W        W36580  24.714  15.870  14.959
64910W        W36581  29.456  17.244  12.990
64911W        W36582  35.856  40.468  12.997
64912W        W36583  37.618  25.169  10.640
64913W        W36584  23.189   7.817   1.578
64914W        W36585   1.332   2.221  11.244
64915W        W36586   0.932  43.867   3.307
64916W        W36587  33.996   5.113   4.511
64917W        W36588  17.591  42.558   1.730
64918W        W36589  11.595  34.877   3.793
64919W        W36590  12.870  29.555  10.665
64920W        W36591  26.225  32.048  11.262
64921W        W36592   5.650  26.068  10.834
64922W        W36593  31.674  26.275   1.342
64923W        W36594  16.956  34.157   1.443
64924W        W36595  30.680  44.838  13.068
64925W        W36596  25.921  35.502  14.811
64926W        W36597   9.465  20.968   2.852
64927W        W36598   8.743  20.718  13.431
64928W        W36599  28.051  15.834   4.178
64929W        W36600  32.987  20.316  10.976
64930W        W36601  14.832   8.181  12.604
64931W        W36602  39.338   9.816   3.161
64932W        W36603  18.277  36.375   2.072
64933W        W36604  30.539  13.345   1.930
64934W        W36605  20.187  34.478   2.486
64935W        W36606  39.961   8.816   2.255
64936W        W36607  37.103   4.629   2.680
64937W        W36608  22.303  32.036   3.310
64938W        W36609  40.565   4.710   5.068
64939W        W36610  27.581   7.035   1.089
64940W        W36611  27.553  42.283  11.922
64941W        W36612  10.702  29.118   4.648
64942W        W36613  44.669  16.108   2.081
64943W        W36614  14.696   7.165  12.043
64944W        W36615  23.134  31.987   0.976
64945W        W36616   1.920   9.084   4.939
64946W        W36617  16.145  22.221   1.893
64947W        W36618  35.397  32.197   0.370
64948W        W36619  11.753   8.286   0.531
64949W        W36620  12.268   8.368  10.471
64950W        W36621   7.327   7.626   2.554
64951W        W36622  13.682  33.555   4.169
64952W        W36623  28.503  27.988   2.592
64953W        W36624  35.843  18.020   0.993
64954W        W36625  21.200   0.251   2.775
64955W        W36626  19.645  40.820  10.565
64956W        W36627  23.088  31.179   2.388
64957W        W36628  11.969  27.533  11.182
64958W        W36629  27.866  15.769   3.228
64959W        W36630   8.798   2.798   4.026
64960W        W36631   1.785  28.091   2.554
64961W        W36632  16.689  32.933  11.510
64962W        W36633  43.980  40.209   2.755
64963W        W36634  25.000  21.370   4.253
64964W        W36635   1.006  14.818  14.910
64965W        W36636  39.093  26.269  11.370
64966W        W36637  39.846   3.936   1.307
64967W        W36638  29.853  43.715   0.748
64968W        W36639  11.335  38.729   4.235
64969W        W36640   3.426   0.909  14.541
64970W        W36641  22.635  14.580   4.501
64971W        W36642  16.743   3.309  11.931
64972W        W36643  24.470   3.160  12.553
64973W        W36644  24.942   9.397   0.944
64974W        W36645   2.307  31.661  11.521
64975W        W36646  28.470  42.076  11.178
64976W        W36647  24.055  39.729  11.897
64977W        W36648  21.928  25.247  11.461
64978W        W36649  16.448  18.176   2.653
64979W        W36650  24.964  28.933   0.408
64980W        W36651  18.698  17.791   4.761
64981W        W36652   2.244   6.865  11.483
64982W        W36653  25.070  39.371   4.171
64983W        W36654  11.385  33.427   1.817
64984W        W36655  42.746   3.418  14.505
64985W        W36656  41.415  44.410   0.351
64986W        W36657  11.829  25.994   4.105
64987W        W36658   7.458   2.224  13.353
64988W        W36659  38.344  36.920  10.676
64989W        W36660  14.580  15.919   4.944
64990W        W36661  42.371  44.620   2.695
64991W        W36662  13.650  42.305  13.935
64992W        W36663  38.782   0.379   2.372
64993W        W36664  21.589   0.977   2.760
64994W        W36665  30.774   3.205   2.072
64995W        W36666  13.149  11.063   0.317
64996W        W36667  24.646  15.612  12.846
64997W        W36668  29.990  22.807   1.423
64998W        W36669  16.040  22.690   2.619
64999W        W36670  32.964   1.736   4.211
65000W        W36671   5.484  43.360  11.969
65001W        W36672  21.727  32.407  11.072
65002W        W36673  26.053  42.659   2.334
65003W        W36674  14.466  25.285  12.606
65004W        W36675  28.789   1.384  14.272
65005W        W36676  30.998  10.719  13.415
65006W        W36677  36.043  33.093  12.144
65007W        W36678  22.518   3.392  10.705
65008W        W36679  20.460   7.625  12.470
65009W        W36680   2.647   3.401   2.278
65010W        W36681  41.249  27.682  13.900
65011W        W36682  26.844   4.238   4.588
65012W        W36683  42.372  37.247  14.332
65013W        W36684  16.241  23.989  12.733
65014W        W36685  29.879  15.980   3.701
65015W        W36686  10.582  22.614  12.029
65016W        W36687  36.743  25.060   0.998
65017W        W36688  16.817  13.802  13.839
65018W        W36689  17.002  14.784   1.595
65019W        W36690  37.335  43.465  10.514
65020W        W36691  34.576  13.207  11.844
65021W        W36692  38.792  43.853  11.941
65022W        W36693  21.768  24.513   3.118
65023W        W36694  36.261  29.052   1.830
65024W        W36695  19.581  20.642  14.389
65025W        W36696   1.450  44.691  14.735
65026W        W36697  17.454  19.025   1.783
65027W        W36698  35.580  33.043  13.508
65028W        W36699   5.936  21.048  10.174
65029W        W36700  11.683   7.774  12.997
65030W        W36701  25.155  14.698  11.206
65031W        W36702  25.460  37.105  14.898
65032W        W36703  10.668   8.099   2.369
65033W        W36704   0.991   5.314  11.357
65034W        W36705  17.705  13.628  14.718
65035W        W36706   1.666  13.310  14.295
65036W        W36707  23.136   5.396  14.525
65037W        W36708  41.797  19.993   1.110
65038W        W36709   6.414  10.144  14.905
65039W        W36710  15.801  24.731   3.788
65040W        W36711  41.328  30.399   1.017
65041W        W36712  43.797  40.361   1.831
65042W        W36713   6.818  25.973   3.485
65043W        W36714  33.181  32.576  12.354
65044W        W36715  18.301  12.685   4.117
65045W        W36716  33.542  37.748   4.242
65046W        W36717  32.561  27.364  10.431
65047W        W36718  31.222  37.544  11.722
65048W        W36719  14.857  23.679   2.924
65049W        W36720  43.315  34.677   2.226
65050W        W36721  27.625  26.448   1.885
65051W        W36722  34.355  36.011   3.882
65052W        W36723  32.007   3.328  14.996
65053W        W36724  33.550  16.825  14.757
65054W        W36725  17.471  32.159   0.034
65055W        W36726  39.263  26.574   1.388
65056W        W36727  37.651  34.117  12.847
65057W        W36728  41.866  16.146   0.787
65058W        W36729  18.787  10.941  13.718
65059W        W36730  28.008  16.837  14.892
65060W        W36731  35.965   0.950  14.666
65061W        W36732  16.154  35.354  12.612
65062W        W36733   6.917  36.908   0.384
65063W        W36734  37.115   3.834   1.328
65064W        W36735  17.067   2.771  14.767
65065W        W36736   3.518  32.032   0.831
65066W        W36737   0.288  42.179  11.837
65067W        W36738  32.948  40.407   4.677
65068W        W36739  41.555  29.306  11.178
65069W        W36740   4.662  36.223  12.633
65070W        W36741  17.722   3.664   0.936
65071W        W36742   1.647  20.192  10.675
65072W        W36743   4.667  12.798  11.885
65073W        W36744  37.493  31.951   4.925
65074W        W36745  22.209  39.070   0.041
65075W        W36746  31.404  15.949   2.754
65076W        W36747  39.238  33.447  12.613
65077W        W36748   2.490   9.586  11.940
65078W        W36749  23.103  29.780   4.081
65079W        W36750  32.460  12.544   3.798
65080W        W36751  28.563  31.439   2.690
65081W        W36752  11.200   3.914  14.438
65082W        W36753  33.181  23.710  11.510
65083W        W36754   4.775   5.957  14.377
65084W        W36755  25.984  22.031   1.635
65085W        W36756   5.428  26.923   4.613
65086W        W36757  17.629  26.956   2.808
65087W        W36758  10.664  33.674  14.633
65088W        W36759  41.276   1.373  11.958
65089W        W36760  25.991  30.527  11.983
65090W        W36761   5.859  24.730  11.423
65091W        W36762  35.829  12.244   1.381
65092W        W36763  22.057  21.254  13.487
65093W        W36764  26.765  23.130  14.362
65094W        W36765  32.306  31.607  13.119
65095W        W36766  15.170  13.674   1.664
65096W        W36767  35.090   1.636   4.946
65097W        W36768  26.968   2.142  12.967
65098W        W36769  38.567  27.971  12.374
65099W        W36770  41.067   7.660  10.660
65100W        W36771  21.572  34.853  13.984
65101W        W36772  13.516   7.770   4.297
65102W        W36773  29.313  42.030   1.309
65103W        W36774  33.601   6.098   2.237
65104W        W36775   5.152  15.178   3.680
65105W        W36776  30.935  22.253  14.331
65106W        W36777  43.438  15.779  14.765
65107W        W36778  12.382  18.640  11.654
65108W        W36779  24.224  13.433   1.652
65109W        W36780  32.803   5.960   9.912
65110W        W36781  15.673  14.651   3.719
65111W        W36782  42.646  24.039   3.640
65112W        W36783  17.576  27.445   0.188
65113W        W36784   4.163  32.894   1.855
65114W        W36785  14.131  21.857   4.168
65115W        W36786  23.265  36.380   4.157
65116W        W36787  17.296   0.882   1.008
65117W        W36788  15.107  27.165  12.941
65118W        W36789  29.662  39.162   4.559
65119W        W36790  21.209  38.225  10.118
65120W        W36791  13.130  18.742  12.946
65121W        W36792   1.510  39.633   3.241
65122W        W36793  23.946  11.016   2.369
65123W        W36794  28.387   9.835   9.865
65124W        W36795  16.212   9.859   3.429
65125W        W36796  32.919   0.542  13.817
65126W        W36797  16.731  30.038  13.574
65127W        W36798  36.034  12.064  10.734
65128W        W36799   2.828   0.943   2.702
65129W        W36800  26.909   2.312   0.886
65130W        W36801  10.061   9.894  12.938
65131W        W36802  31.988  16.901  10.150
65132W        W36803  36.563  30.841  11.632
65133W        W36804  40.077  17.124  14.853
65134W        W36805   2.227   5.425  14.837
65135W        W36806  18.401  23.755  13.210
65136W        W36807  30.148  19.259  12.331
65137W        W36808   2.994  37.984  13.907
65138W        W36809  21.493  12.970  10.321
65139W        W36810  32.069   6.612   0.271
65140W        W36811  44.129  20.601  13.964
65141W        W36812  13.787  18.353   1.224
65142W        W36813   3.298  31.080   2.476
65143W        W36814  14.668  36.619  14.601
65144W        W36815  15.265  26.540  10.984
65145W        W36816  40.223  42.489  14.497
65146W        W36817  12.629  25.794   3.823
65147W        W36818  29.785   3.428  11.608
65148W        W36819  23.760  24.034   2.179
65149W        W36820   9.689   4.154   0.856
65150W        W36821  12.576  39.404  12.561
65151W        W36822   4.377   0.948  12.131
65152W        W36823  39.058  34.046   4.721
65153W        W36824  12.718  30.222   0.443
65154W        W36825  28.504  24.696  13.381
65155W        W36826  23.540  29.395   0.319
65156W        W36827  22.828   2.760   3.848
65157W        W36828  39.059   6.993  11.204
65158W        W36829  18.124   7.665  10.409
65159W        W36830   0.944  42.880  12.023
65160W        W36831  22.557  22.664  13.471
65161W        W36832  31.932  39.477  14.365
65162W        W36833  30.957   2.632   2.643
65163W        W36834  33.143  37.466   0.441
65164W        W36835   8.404  36.235  13.652
65165W        W36836  15.027  18.776   4.007
65166W        W36837  35.312  37.210  10.239
65167W        W36838  35.382   3.003  12.589
65168W        W36839  43.021  25.111  14.868
65169W        W36840  28.428   6.962   0.098
65170W        W36841  39.528  12.194   1.324
65171W        W36842   6.329   0.750   3.321
65172W        W36843  37.773  16.479   2.242
65173W        W36844  16.759   2.567  13.984
65174W        W36845  33.457  38.395   2.639
65175W        W36846  37.900  43.406  14.082
65176W        W36847  34.154  29.168   0.394
65177W        W36848  27.163  37.583   1.837
65178W        W36849   8.365  25.057  10.676
65179W        W36850  43.755  26.164  11.671
65180W        W36851  43.899  11.287   2.140
65181W        W36852  25.960  18.152  12.010
65182W        W36853  14.414  18.167   3.246
65183W        W36854   8.410   3.839   0.948
65184W        W36855  37.669   4.822   4.692
65185W        W36856   9.351  32.852  13.564
65186W        W36857  17.620  22.150  14.560
65187W        W36858  36.080  26.138  12.672
65188W        W36859  19.295  30.243  12.483
65189W        W36860  20.678  26.943   3.300
65190W        W36861  44.215  14.873  11.513
65191W        W36862   8.289  40.475  14.598
65192W        W36863   1.150   8.497  13.590
65193W        W36864   0.877  22.830   4.318
65194W        W36865  41.013  18.602   3.038
65195W        W36866  39.568  40.962  13.949
65196W        W36867  29.669  10.618   3.111
65197W        W36868  23.419  34.070  12.333
65198W        W36869   4.732  11.354  14.298
65199W        W36870  25.057  28.392  12.889
65200W        W36871  17.984   0.033   2.567
65201W        W36872  33.400  21.185   5.404
65202W        W36873  38.423  14.900   2.775
65203W        W36874   3.907  38.950   3.829
65204W        W36875   4.975  25.841  11.712
65205W        W36876   3.435  38.475   4.543
65206W        W36877  34.070  11.101   2.305
65207W        W36878   5.208   5.622   1.476
65208W        W36879  24.754  39.889  13.804
65209W        W36880  28.019   5.188  14.468
65210W        W36881   1.760  29.577   0.042
65211W        W36882   8.444  22.960  10.657
65212W        W36883  38.011  33.460  14.973
65213W        W36884  32.993  24.730  10.491
65214W        W36885  25.560  21.494   4.302
65215W        W36886  30.361   7.296  11.721
65216W        W36887  25.995   6.023  13.772
65217W        W36888  40.524  31.046  11.196
65218W        W36889  16.485   0.878  10.918
65219W        W36890  35.128  11.786  11.541
65220W        W36891  21.202  36.779   2.810
65221W        W36892  22.482  37.829   5.072
65222W        W36893  26.347   4.034   1.320
65223W        W36894  33.040  18.783   1.532
65224W        W36895  10.732  29.587   4.889
65225W        W36896  38.899   6.744   1.287
65226W        W36897  39.754   7.232   2.206
65227W        W36898  41.852   2.746   0.734
65228W        W36899  38.794  21.021   3.701
65229W        W36900   0.895  15.988  11.588
65230W        W36901  44.003  32.953   4.686
65231W        W36902  37.825  29.080  14.888
65232W        W36903  24.436   1.926  12.388
65233W        W36904  28.654  20.064   0.521
65234W        W36905  18.040  21.699  10.818
65235W        W36906  24.203  10.509  12.115
65236W        W36907  23.529  16.443  14.784
65237W        W36908  11.082  20.504   3.913
65238W        W36909  24.655  18.786  14.378
65239W        W36910  34.825  38.060   3.161
65240W        W36911  15.660   8.475   0.673
65241W        W36912   6.683  43.836  13.347
65242W        W36913  13.894  10.882   2.209
65243W        W36914  10.817  36.287  11.540
65244W        W36915  18.721  18.262  14.399
65245W        W36916  15.286  18.274   3.351
65246W        W36917   9.794  32.252  11.638
65247W        W36918  28.786  11.192  13.828
65248W        W36919  32.829  14.619  14.903
65249W        W36920  31.766  33.479  14.084
65250W        W36921   7.363  34.866   3.911
65251W        W36922  24.657  37.862   2.656
65252W        W36923   6.661  16.597   4.072
65253W        W36924  18.745  10.245  11.531
65254W        W36925  36.012  13.140   1.133
65255W        W36926  42.313  33.890  13.369
65256W        W36927  37.488  36.821  11.553
65257W        W36928  37.407  30.396  10.827
65258W        W36929  14.308  15.692  11.440
65259W        W36930  10.096  14.787  13.884
65260W        W36931  44.758   9.899  11.932
65261W        W36932  42.075  14.273   0.354
65262W        W36933  34.459  19.577  11.866
65263W        W36934  24.217  30.676   4.089
65264W        W36935  13.368   7.140   0.366
65265W        W36936  31.075  10.442  11.183
65266W        W36937  37.785   7.387   4.534
65267W        W36938   4.781  44.992   1.264
65268W        W36939   9.458   2.453  13.624
65269W        W36940   3.854  27.741  10.595
65270W        W36941  29.081   0.246   1.091
65271W        W36942  13.362  37.413   2.201
65272W        W36943  40.842  15.039   4.857
65273W        W36944  10.759  36.531   1.773
65274W        W36945   1.420  44.212  13.529
65275W        W36946  17.486  37.082   2.059
65276W        W36947  16.008  23.735   2.932
65277W        W36948   5.506  24.517  11.720
65278W        W36949  37.707  32.385  11.613
65279W        W36950  29.539  10.092  11.150
65280W        W36951  16.140  32.437   0.293
65281W        W36952   0.823  22.583  11.016
65282W        W36953  27.365  11.266  11.603
65283W        W36954  22.797  31.928   0.466
65284W        W36955  13.740  28.604   4.068
65285W        W36956  43.378   7.233   2.232
65286W        W36957   4.982   0.623  14.334
65287W        W36958  29.005   6.915  11.274
65288W        W36959   7.259  15.645  10.224
65289W        W36960  14.286  28.065   1.667
65290W        W36961  22.685  35.186   4.751
65291W        W36962   3.975  16.232  13.754
65292W        W36963   1.175   8.433   3.647
65293W        W36964   0.813   3.858   1.838
65294W        W36965  33.227  20.096   1.290
65295W        W36966  33.648  20.389  12.451
65296W        W36967  24.110  16.810   2.633
65297W        W36968  13.601  23.593   0.371
65298W        W36969  30.903   4.934   3.642
65299W        W36970   6.689  20.217  11.124
65300W        W36971  21.001  22.625  14.776
65301W        W36972  31.120  18.342   2.979
65302W        W36973   7.317  15.916   0.804
65303W        W36974  44.262  21.648   2.273
65304W        W36975   5.261  21.486  10.690
65305W        W36976  35.711  15.768   3.664
65306W        W36977  19.737  34.848  10.627
65307W        W36978   3.843   4.625   1.451
65308W        W36979   2.972   4.121   1.799
65309W        W36980  21.209  24.085   0.286
65310W        W36981  35.732   4.891  13.294
65311W        W36982  25.213  30.033  14.956
65312W        W36983  18.923   7.904  11.212
65313W        W36984   3.663  38.075  14.543
65314W        W36985  22.237  36.364  12.204
65315W        W36986  41.274  34.765  12.875
65316W        W36987  39.880  18.086  12.564
65317W        W36988   2.831  15.262   4.212
65318W        W36989  41.460   4.340  12.817
65319W        W36990  38.097  29.139  10.948
65320W        W36991  28.191  41.930   4.106
65321W        W36992  28.016   8.394  13.972
65322W        W36993  27.641   1.203   1.780
65323W        W36994   8.413  18.356  13.212
65324W        W36995  35.072  10.387  11.493
65325W        W36996  15.655   9.242   0.006
65326W        W36997  32.017  16.909   0.347
65327W        W36998  24.197   7.337   2.111
65328W        W36999   3.447  17.599   0.717
65329W        W37000  40.691  34.977   3.290
65330W        W37001   9.059   2.782   1.246
65331W        W37002  23.274  30.198  14.878
65332W        W37003  34.692  37.842   0.477
65333W        W37004   2.014  35.132   0.967
65334W        W37005  10.854  32.587   0.679
65335W        W37006  42.836  10.665   3.105
65336W        W37007  32.485  41.436  10.665
65337W        W37008  28.159  30.512   4.161
65338W        W37009  31.927  16.391   0.490
65339W        W37010  38.451  38.153   0.487
65340W        W37011  27.592   2.515  14.106
65341W        W37012  43.928  17.642  13.385
65342W        W37013  34.818  25.146   4.134
65343W        W37014  39.828  32.196   0.903
65344W        W37015  29.477   2.882  14.770
65345W        W37016  22.224   8.904  11.495
65346W        W37017  14.636  20.107   4.253
65347W        W37018  32.939  14.000  12.115
65348W        W37019  32.121  30.420  14.831
65349W        W37020  11.903  11.423  13.863
65350W        W37021  13.641  18.633  10.912
65351W        W37022   6.636  34.234   3.632
65352W        W37023   1.245  18.706   3.298
65353W        W37024   4.659  11.579  11.168
65354W        W37025  30.600  29.016   0.432
65355W        W37026  42.851  30.825   2.238
65356W        W37027  21.441  22.968   3.728
65357W        W37028  34.003  10.428   1.881
65358W        W37029  28.717  17.981  12.654
65359W        W37030  36.707  32.069  11.443
65360W        W37031  17.794  12.940  11.393
65361W        W37032   3.374  13.852  14.931
65362W        W37033  16.415   5.849  12.075
65363W        W37034  23.911  37.107  12.871
65364W        W37035  42.183   5.337   3.395
65365W        W37036  30.666  39.762   3.289
65366W        W37037  11.293   3.688   4.578
65367W        W37038   0.790  30.673   0.145
65368W        W37039  32.965  21.187  11.285
65369W        W37040  26.543  38.117  11.708
65370W        W37041  43.928  23.238   1.844
65371W        W37042  10.723  23.128  12.873
65372W        W37043  29.136  17.738   1.786
65373W        W37044  38.363  40.082  11.987
65374W        W37045   7.304   1.013  13.916
65375W        W37046   2.853  22.737   3.448
65376W        W37047  16.802  21.237   3.776
65377W        W37048  10.172  35.058  10.457
65378W        W37049  29.811   6.672  13.476
65379W        W37050  34.057   8.659   1.606
65380W        W37051  43.170  22.054   0.961
65381W        W37052  31.093  15.854  12.172
65382W        W37053  28.699  23.654  11.154
65383W        W37054   7.330   9.038  14.860
65384W        W37055   8.405  42.518  14.922
65385W        W37056   1.866   5.814   0.294
65386W        W37057  12.693   4.551   3.753
65387W        W37058   0.113  31.462   1.735
65388W        W37059  28.356  27.678   2.188
65389W        W37060  23.808  40.583   1.756
65390W        W37061  41.261   3.899   0.480
65391W        W37062  43.731  33.083  11.189
65392W        W37063  10.791  33.463   0.474
65393W        W37064   1.434  38.788   4.526
65394W        W37065   4.231   9.140  12.157
65395W        W37066  20.448  24.617   0.376
65396W        W37067  11.229  23.657  14.782
65397W        W37068  18.606  30.079  14.709
65398W        W37069  19.229  17.762  10.666
65399W        W37070  16.884  43.318  11.272
65400W        W37071  28.655  12.102   1.877
65401W        W37072  22.789   7.205   3.293
65402W        W37073   6.164  32.837  12.970
65403W        W37074  38.728   0.938   4.073
65404W        W37075  10.715  25.553   2.757
65405W        W37076  38.002  30.800   3.981
65406W        W37077  10.371  28.616  13.012
65407W        W37078  10.830  18.015  12.107
65408W        W37079  36.445  36.813   3.346
65409W        W37080   4.786  29.695   0.776
65410W        W37081  21.722  27.936   3.359
65411W        W37082   9.452   5.428   1.434
65412W        W37083   1.932  38.285   0.258
65413W        W37084  38.028   8.418   1.027
65414W        W37085  37.801  26.137   3.520
65415W        W37086  18.813  34.782   3.388
65416W        W37087  20.006  27.125  11.421
65417W        W37088  39.400  38.793  10.724
65418W        W37089  31.719   2.927  11.633
65419W        W37090   1.866  43.222   0.439
65420W        W37091  35.441  41.814   3.130
65421W        W37092  26.803  35.333  13.336
65422W        W37093  13.241  20.751  11.949
65423W        W37094  31.579  32.927  11.997
65424W        W37095   9.384  18.653  11.186
65425W        W37096  22.681  15.131   3.687
65426W        W37097  28.952  33.133   2.595
65427W        W37098   0.069  22.692  11.526
65428W        W37099   2.016  44.739   3.924
65429W        W37100  35.144  17.317  12.563
65430W        W37101  37.693  18.995   0.150
65431W        W37102  12.609   4.889  11.964
65432W        W37103  21.209  29.580  14.441
65433W        W37104  40.950   1.909   2.099
65434W        W37105  29.376  30.718   2.353
65435W        W37106  39.988  15.045  11.603
65436W        W37107  27.998  33.063   1.952
65437W        W37108  12.214  37.278  14.206
65438W        W37109  17.898  23.316   3.043
65439W        W37110  42.874  34.494  14.666
65440W        W37111  12.838  34.019   4.055
65441W        W37112  14.048  12.309  11.574
65442W        W37113   3.680  38.936  11.624
65443W        W37114   5.782   5.658   0.831
65444W        W37115  43.515  20.802  11.429
65445W        W37116   1.795  12.485   2.744
65446W        W37117  34.606  39.393  13.771
65447W        W37118  14.740   4.169   3.117
65448W        W37119  15.301  43.767   4.123
65449W        W37120   8.431  16.706   2.647
65450W        W37121   1.267  23.697   1.759
65451W        W37122  44.796  28.730   3.224
65452W        W37123  16.598  37.400   3.627
65453W        W37124   7.746  42.390   4.839
65454W        W37125  12.953  20.881   4.512
65455W        W37126  35.747  33.626   1.135
65456W        W37127   4.808   3.268   0.231
65457W        W37128   9.344  39.693  14.926
65458W        W37129  21.013  43.534  13.267
65459W        W37130   7.912  18.105  14.901
65460W        W37131   3.813  17.270  14.383
65461W        W37132  41.590  26.334   5.383
65462W        W37133  38.539  29.068  13.797
65463W        W37134  12.747  18.573  11.295
65464W        W37135  17.547  41.087  12.543
65465W        W37136  39.110  19.206  12.008
65466W        W37137  44.313  14.802  14.788
65467W        W37138   3.716   3.740   0.259
65468W        W37139  29.709  40.258  13.464
65469W        W37140  14.944  13.793   4.367
65470W        W37141   6.655  43.437   3.634
65471W        W37142   8.306  14.739   2.178
65472W        W37143  21.420  12.718   1.844
65473W        W37144  29.966  20.892   0.845
65474W        W37145  11.798   5.497  10.629
65475W        W37146   7.987  40.410  10.237
65476W        W37147  36.483  23.029   0.822
65477W        W37148  18.601  30.097  11.359
65478W        W37149  44.295  36.566   4.202
65479W        W37150   9.232  23.135  14.101
65480W        W37151  26.435  21.711   1.705
65481W        W37152  40.497  14.139  11.687
65482W        W37153  33.160  17.697  14.315
65483W        W37154  41.565  38.104   3.257
65484W        W37155   7.391   7.162  10.696
65485W        W37156  11.817  30.382  14.275
65486W        W37157  16.861  42.837  13.554
65487W        W37158  14.088   8.103  11.411
65488W        W37159  30.925  30.408  14.181
65489W        W37160  16.538   2.946   4.055
65490W        W37161  41.785  14.114  11.004
65491W        W37162  36.988   7.419  12.588
65492W        W37163  28.903  20.043   2.188
65493W        W37164   5.332  44.372   1.573
65494W        W37165  12.803  21.714   4.304
65495W        W37166  20.505  32.158   2.394
65496W        W37167  25.652   4.441  13.514
65497W        W37168   0.809   1.180   0.102
65498W        W37169   3.850  15.056   4.211
65499W        W37170  21.125  13.353  14.824
65500W        W37171   2.875  42.502   4.304
65501W        W37172   2.866  18.758   4.275
65502W        W37173  25.458   2.309   0.817
65503W        W37174  43.240   3.333   3.663
65504W        W37175  26.671  43.752   1.894
65505W        W37176  44.713  11.324   1.752
65506W        W37177   7.977  41.395  14.984
65507W        W37178  35.814  31.397  11.877
65508W        W37179   9.931   4.824   2.112
65509W        W37180  24.521   2.193   4.066
65510W        W37181  15.151  31.654  13.425
65511W        W37182  24.730  18.226  12.472
65512W        W37183   5.744  37.030   0.854
65513W        W37184  27.205  28.771   1.794
65514W        W37185  37.269   4.033   0.840
65515W        W37186  13.731  35.175  13.117
65516W        W37187  40.601  26.897   0.009
65517W        W37188  13.668  25.284   0.900
65518W        W37189  18.184   4.978   4.678
65519W        W37190  20.731  31.548  14.750
65520W        W37191  40.245  43.044  11.019
65521W        W37192   4.151   6.938  11.375
65522W        W37193   6.358  32.358  13.184
65523W        W37194   6.338  23.613  14.240
65524W        W37195  43.827   0.812   1.640
65525W        W37196  41.915  36.695   0.914
65526W        W37197  43.314  23.105  10.883
65527W        W37198   6.929  21.707  11.011
65528W        W37199  24.050  15.548   3.304
65529W        W37200  37.788  29.990  14.225
65530W        W37201  35.043  33.445  10.331
65531W        W37202  44.213  36.034  12.476
65532W        W37203  18.530  22.026  14.885
65533W        W37204  34.613  17.321  14.047
65534W        W37205  16.326  23.123  14.335
65535W        W37206   3.247  22.427  14.147
65536W        W37207  39.855  22.159   3.666
65537W        W37208   7.499  42.390   0.871
65538W        W37209  42.596  13.756   9.687
65539W        W37210   9.722  43.177   4.164
65540W        W37211  33.681  20.636  11.147
65541W        W37212  26.512  18.262  11.574
65542W        W37213  24.714   5.540   0.935
65543W        W37214   2.097  23.972   0.573
65544W        W37215  38.588   4.129   3.783
65545W        W37216  10.282  37.048  10.698
65546W        W37217  39.982   4.975  10.353
65547W        W37218  36.949  18.801   0.778
65548W        W37219  37.797  38.164   0.806
65549W        W37220  17.763  13.559   4.133
65550W        W37221  28.258  29.141   5.079
65551W        W37222  30.458   9.566  11.235
65552W        W37223  39.922  28.777   0.422
65553W        W37224  36.114  39.968   2.736
65554W        W37225  13.649  28.857   4.508
65555W        W37226  38.107   5.815  13.802
65556W        W37227  39.994  35.875  13.457
65557W        W37228  19.154  23.678   2.576
65558W        W37229  43.468  37.556   3.903
65559W        W37230   8.569  41.949   1.264
65560W        W37231  21.380  29.277   4.403
65561W        W37232  27.605   5.836  12.770
65562W        W37233   3.885  41.541   0.233
65563W        W37234  18.672   2.005   0.443
65564W        W37235  40.997   7.274  13.986
65565W        W37236  40.478  42.434   2.248
65566W        W37237  35.385  20.069   3.069
65567W        W37238  23.249  36.038  11.627
65568W        W37239  34.485  17.556  14.520
65569W        W37240   0.370  44.115  13.803
65570W        W37241  19.268  44.100   1.261
65571W        W37242   7.864  41.907   0.027
65572W        W37243  34.573   5.295  14.427
65573W        W37244  33.846  11.661   5.193
65574W        W37245   5.728  17.728   1.598
65575W        W37246  36.327   8.779   4.606
65576W        W37247  25.468  19.182  14.782
65577W        W37248  18.712  10.942   3.194
65578W        W37249  38.922  11.649  12.082
65579W        W37250  14.708  32.159   1.307
65580W        W37251  42.710  11.428   0.766
65581W        W37252  18.405  23.241  13.032
65582W        W37253  29.365  13.609  11.176
65583W        W37254  35.157   1.550  10.374
65584W        W37255  17.294  39.795  12.395
65585W        W37256  36.816   3.260  13.926
65586W        W37257  27.038  25.459  14.478
65587W        W37258  19.544  24.229   5.015
65588W        W37259  23.092  24.976  14.604
65589W        W37260  43.254  29.961   0.500
65590W        W37261  44.847  20.494   2.773
65591W        W37262  28.571  43.858  13.401
65592W        W37263  25.115  20.773   2.380
65593W        W37264  30.075  19.796   2.274
65594W        W37265  13.285  17.658  14.327
65595W        W37266  18.805   5.675   1.268
65596W        W37267  28.353  31.671  14.459
65597W        W37268  36.329  10.149   2.277
65598W        W37269  35.322  25.455   3.289
65599W        W37270  41.608   1.844  12.029
65600W        W37271   4.228   6.810   1.658
65601W        W37272   5.253  38.141   0.191
65602W        W37273  27.275  32.999  13.599
65603W        W37274  43.907  24.488   3.646
65604W        W37275   8.990  28.401  11.673
65605W        W37276  34.634  35.576   4.791
65606W        W37277  22.690   2.303  13.899
65607W        W37278   9.640  33.330   4.555
65608W        W37279  12.956   1.160   5.102
65609W        W37280  12.033  30.635  10.676
65610W        W37281  30.879  35.110  12.569
65611W        W37282  36.021  23.160   1.050
65612W        W37283  26.390  33.697  12.734
65613W        W37284  18.118  34.985  12.985
65614W        W37285   5.249  26.653  12.485
65615W        W37286  42.795  39.036   3.667
65616W        W37287  21.035  10.833  11.596
65617W        W37288  34.891   3.556  12.019
65618W        W37289  44.766   1.987   0.969
65619W        W37290  28.707   4.326  11.604
65620W        W37291  39.862   3.270  11.989
65621W        W37292  25.988   5.269   4.413
65622W        W37293   6.934   6.860   1.598
65623W        W37294   3.406  37.510  14.204
65624W        W37295  31.894   2.240  10.683
65625W        W37296  25.616  24.202  13.832
65626W        W37297   0.799  19.270  10.889
65627W        W37298   6.292  16.334   2.169
65628W        W37299  23.142   1.664  11.954
65629W        W37300  21.940  37.608  11.141
65630W        W37301  10.857  25.136  12.078
65631W        W37302  43.004  42.737   3.876
65632W        W37303  33.818  15.206  12.630
65633W        W37304  32.945  44.525  12.965
65634W        W37305  43.510   0.293   3.166
65635W        W37306  20.558  14.048   3.719
65636W        W37307  37.604  32.376  14.319
65637W        W37308  42.846   3.949  13.788
65638W        W37309   0.234   8.512  12.110
65639W        W37310  29.616  43.168  10.932
65640W        W37311   9.719  41.368   4.676
65641W        W37312  20.583   1.385   2.420
65642W        W37313  39.018   1.418  14.095
65643W        W37314   2.166   1.433  13.270
65644W        W37315  35.029  38.633  13.994
65645W        W37316   6.746  34.350  13.391
65646W        W37317  25.613  33.447   4.626
65647W        W37318  15.846  26.721   0.363
65648W        W37319  37.046  31.426   4.622
65649W        W37320  22.116  19.547   4.229
65650W        W37321  28.673  26.921  12.041
65651W        W37322  38.544   2.366  11.651
65652W        W37323  14.261  41.276  14.339
65653W        W37324   1.273  23.559   4.726
65654W        W37325  17.631  39.655   4.074
65655W        W37326  35.405   8.160  10.723
65656W        W37327  34.609  28.898  12.070
65657W        W37328   7.746  12.389   4.020
65658W        W37329  30.570  20.465   0.624
65659W        W37330  16.102   9.010   3.247
65660W        W37331  30.548  38.561  11.132
65661W        W37332  25.970  22.791   0.345
65662W        W37333   9.617  34.482   0.285
65663W        W37334  24.556  11.310   2.937
65664W        W37335  27.307  28.354  14.396
65665W        W37336  32.863  42.247   2.253
65666W        W37337  36.886  32.460  12.693
65667W        W37338  34.917  17.673   0.778
65668W        W37339  38.838  37.974   4.352
65669W        W37340  19.333  12.663   4.120
65670W        W37341  37.461   2.317   0.743
65671W        W37342  34.998  38.806   5.408
65672W        W37343  24.842  42.033   4.345
65673W        W37344  13.301  44.113   2.833
65674W        W37345  10.130   7.610  10.674
65675W        W37346  36.876  20.869  10.444
65676W        W37347  24.966  18.813  12.532
65677W        W37348  19.388  28.039   2.913
65678W        W37349  44.885  15.227   3.290
65679W        W37350  20.989  37.468   1.870
65680W        W37351  18.100  22.054   2.111
65681W        W37352  38.731   2.715  12.315
65682W        W37353  27.039  34.912  11.501
65683W        W37354  36.750  39.541  13.509
65684W        W37355  12.903   1.878  11.675
65685W        W37356  31.989   4.728   2.289
65686W        W37357  26.194  33.420   0.503
65687W        W37358   0.655   6.493  12.521
65688W        W37359   4.387  13.043  12.229
65689W        W37360  39.118   5.283  13.584
65690W        W37361  12.743   5.378  13.752
65691W        W37362  29.577  30.449   4.122
65692W        W37363   3.239  23.975  12.143
65693W        W37364  24.678  11.561   1.340
65694W        W37365  28.223  13.509   0.292
65695W        W37366  10.604  10.723  14.298
65696W        W37367  30.284   1.943  11.171
65697W        W37368  38.609  18.524   0.199
65698W        W37369  40.283   4.739   3.695
65699W        W37370  40.257   4.313   2.944
65700W        W37371  38.272   9.090   4.262
65701W        W37372   1.000  29.329   2.212
65702W        W37373  31.937  11.024  13.034
65703W        W37374  44.003  15.688  11.737
65704W        W37375  44.785  41.412  11.388
65705W        W37376  16.563  34.924   0.569
65706W        W37377  26.201  44.862  12.248
65707W        W37378   5.681   8.613   0.839
65708W        W37379  44.416   9.207  12.796
65709W        W37380  35.529  44.086  12.026
65710W        W37381  18.717   6.834  14.118
65711W        W37382  20.044   5.990   3.660
65712W        W37383  14.669  16.343  13.424
65713W        W37384   8.756  10.553  12.691
65714W        W37385  40.504  18.766   4.919
65715W        W37386   2.784  31.014   0.265
65716W        W37387  38.426  30.724   1.869
65717W        W37388  30.261  12.517   3.407
65718W        W37389   7.193  34.025  11.526
65719W        W37390  30.048  37.655  10.340
65720W        W37391  25.464  33.814   9.979
65721W        W37392  23.098  26.761  14.396
65722W        W37393  25.226  29.509  10.784
65723W        W37394  40.791  28.834   0.511
65724W        W37395  37.433   8.418  11.576
65725W        W37396  15.409   5.263  14.370
65726W        W37397  31.755  26.793  11.836
65727W        W37398  14.767  41.483  14.843
65728W        W37399  38.847  23.991   3.739
65729W        W37400  43.934  12.720  11.120
65730W        W37401   6.187   6.697   0.503
65731W        W37402  21.476  30.629  10.870
65732W        W37403   4.598   1.170  13.894
65733W        W37404  31.701  11.705  14.865
65734W        W37405  26.444  13.173  10.756
65735W        W37406   8.852  31.590   0.568
65736W        W37407  27.193  35.372   1.193
65737W        W37408  12.091   2.306  14.020
65738W        W37409  41.844  39.926   3.362
65739W        W37410   8.018   8.292   2.833
65740W        W37411  35.124   5.867  13.037
65741W        W37412   5.529  40.919  14.298
65742W        W37413   3.735  25.148  11.627
65743W        W37414  35.550  30.253  13.975
65744W        W37415  36.801  38.940  12.112
65745W        W37416  31.388  36.675   2.365
65746W        W37417  40.929  30.421  14.258
65747W        W37418   4.854  34.359  10.733
65748W        W37419  21.288  21.026   1.695
65749W        W37420  26.073  22.214  14.228
65750W        W37421  25.795  29.067   2.641
65751W        W37422  25.105  23.538   4.066
65752W        W37423  27.227  42.045  12.714
65753W        W37424  13.849  38.543   0.845
65754W        W37425  44.360  26.544  10.108
65755W        W37426  13.118   9.490   2.969
65756W        W37427  11.680  17.286  12.274
65757W        W37428   0.792  22.137   4.623
65758W        W37429  32.716  20.451  13.325
65759W        W37430  27.045   3.405  12.549
65760W        W37431  40.404   4.234   3.881
65761W        W37432   6.061   5.229   2.766
65762W        W37433  39.571  11.118  11.088
65763W        W37434   6.946   0.987  13.411
65764W        W37435  35.538  36.953   1.860
65765W        W37436  33.880  13.371  14.367
65766W        W37437   6.093   5.055   4.116
65767W        W37438  15.752  26.747  10.943
65768W        W37439  24.030  37.972   0.546
65769W        W37440  43.316  43.406   3.006
65770W        W37441   7.189  42.954  11.098
65771W        W37442  23.706  42.039  11.648
65772W        W37443  35.454  44.072   3.953
65773W        W37444   7.839  19.272  12.025
65774W        W37445   7.064  44.389   3.821
65775W        W37446  33.419  44.844   1.416
65776W        W37447  11.331   8.327   0.166
65777W        W37448  34.364  22.096   3.915
65778W        W37449  23.555  33.568  11.032
65779W        W37450  24.567   1.875   1.827
65780W        W37451  38.581  32.425   4.509
65781W        W37452  27.556  19.528   1.941
65782W        W37453  17.204  12.240  10.561
65783W        W37454  11.332   9.151   4.706
65784W        W37455  35.316   0.982  14.710
65785W        W37456   8.729  33.645   4.998
65786W        W37457  38.738  30.940   2.617
65787W        W37458  44.128   6.682   4.497
65788W        W37459  27.279  37.268  14.924
65789W        W37460  24.197  39.229   3.714
65790W        W37461  12.569  29.401  11.112
65791W        W37462  15.180  15.214   4.021
65792W        W37463  19.103  41.085   1.706
65793W        W37464  35.133  27.171   3.617
65794W        W37465  17.877   7.362   3.694
65795W        W37466  38.764  15.029  14.497
65796W        W37467  25.555  16.705  13.184
65797W        W37468  16.117  26.412   1.601
65798W        W37469  23.579  17.645   1.709
65799W        W37470  35.822  17.817  14.412
65800W        W37471  37.891   8.914   4.618
65801W        W37472  16.716  37.102  10.657
65802W        W37473   9.306   2.806   0.212
65803W        W37474  21.759  37.821  13.079
65804W        W37475  43.518  41.494  12.170
65805W        W37476   0.277  10.414   2.751
65806W        W37477  13.071   7.633   2.635
65807W        W37478  31.745  34.009  10.436
65808W        W37479  35.425  38.924   0.961
65809W        W37480  19.414  14.055   2.432
65810W        W37481  10.556   9.377   1.544
65811W        W37482  42.236   5.280   4.371
65812W        W37483  25.844  25.195   4.895
65813W        W37484  27.638  30.246  12.152
65814W        W37485  18.631  10.289   2.863
65815W        W37486  17.178  34.856  14.909
65816W        W37487  41.380  32.914   1.462
65817W        W37488   6.726  32.407   0.508
65818W        W37489   3.640  33.811  14.381
65819W        W37490   5.298   1.445   1.392
65820W        W37491   9.793  18.182  14.078
65821W        W37492   5.495  41.739   4.129
65822W        W37493  30.037  19.202  14.908
65823W        W37494  40.038  38.809  12.879
65824W        W37495   6.832  13.875  13.859
65825W        W37496  16.689   3.376   2.766
65826W        W37497  27.661  20.642   2.856
65827W        W37498  29.718   4.826  14.939
65828W        W37499  37.367  27.079   2.486
65829W        W37500  34.712  28.269   4.486
65830W        W37501  37.771  22.064  14.306
65831W        W37502   8.629  22.258   3.305
65832W        W37503  43.257   0.779  11.664
65833W        W37504  44.638   3.780   2.876
65834W        W37505  20.900  39.117   4.144
65835W        W37506  44.756  37.551   0.340
65836W        W37507   4.881  18.042  10.736
65837W        W37508  21.235   3.675   3.901
65838W        W37509  30.554  23.441  14.972
65839W        W37510  39.863  39.469  13.178
65840W        W37511   0.915  39.780  14.369
65841W        W37512  19.428   7.839   0.841
65842W        W37513  33.572  16.700   2.897
65843W        W37514  27.935  33.735  11.119
65844W        W37515   7.215  10.365   4.638
65845W        W37516  28.615  44.254  14.313
65846W        W37517  13.065  34.496   2.578
65847W        W37518  27.916  23.354  12.355
65848W        W37519  32.028   1.956   2.736
65849W        W37520  35.964  39.184   4.099
65850W        W37521  29.547   7.418  10.281
65851W        W37522  17.736   2.059   1.135
65852W        W37523   8.034  40.902   2.673
65853W        W37524   1.798  36.307   0.416
65854W        W37525  22.555   8.301   2.797
65855W        W37526  22.104  24.905  13.298
65856W        W37527   4.741  34.606   2.261
65857W        W37528   5.269  38.064   0.927
65858W        W37529  10.932  19.059  13.358
65859W        W37530  30.577   6.579   3.161
65860W        W37531   6.179  33.551   2.674
65861W        W37532  23.328  19.647  11.078
65862W        W37533  26.194  41.845   2.665
65863W        W37534  25.434  25.762  12.894
65864W        W37535  28.332  44.455   2.558
65865W        W37536  10.332  12.027   1.378
65866W        W37537   2.681   8.898   4.221
65867W        W37538   3.220  19.640  12.213
65868W        W37539  14.781  43.169   3.501
65869W        W37540  19.093   7.315   4.547
65870W        W37541   5.569   3.010  14.962
65871W        W37542  41.848  43.923  11.419
65872W        W37543  39.927  17.519   3.633
65873W        W37544  33.064   0.444   1.479
65874W        W37545  14.336   8.669  10.644
65875W        W37546  17.116  32.508  10.366
65876W        W37547  30.599  25.618   4.188
65877W        W37548  16.554  17.066   4.543
65878W        W37549  13.729   4.199   3.141
65879W        W37550  13.339  27.378  14.507
65880W        W37551  16.580  19.284  10.701
65881W        W37552  36.769   8.446  11.325
65882W        W37553  42.331  14.271   0.963
65883W        W37554  32.000  22.287   4.720
65884W        W37555  19.983  17.598   0.438
65885W        W37556   9.136  25.038  14.046
65886W        W37557   3.895  10.408   1.689
65887W        W37558   7.422  23.239   4.487
65888W        W37559  29.337  20.309  14.392
65889W        W37560  36.396   6.772   1.739
65890W        W37561   6.765   0.329   4.126
65891W        W37562  35.091  22.248   0.480
65892W        W37563  31.885   1.456  14.475
65893W        W37564  30.202  40.406  13.556
65894W        W37565  43.220  17.248  14.636
65895W        W37566   6.742  27.942  13.776
65896W        W37567  16.119   0.428   1.296
65897W        W37568   4.335   2.784  10.664
65898W        W37569  16.365   7.593  11.939
65899W        W37570  28.759  31.416  11.132
65900W        W37571  35.690   2.224   3.801
65901W        W37572  24.280   0.961   4.072
65902W        W37573  16.544  28.684   1.358
65903W        W37574  16.712  13.667  10.302
65904W        W37575  21.765   8.300   4.147
65905W        W37576   9.132  35.390   0.154
65906W        W37577  36.373  25.506   4.101
65907W        W37578  29.031  42.925   2.229
65908W        W37579  42.889  14.405  14.983
65909W        W37580  22.663  11.288  11.984
65910W        W37581  19.808  15.825   1.921
65911W        W37582  14.548  27.030  12.008
65912W        W37583  35.728   6.900  12.916
65913W        W37584  33.924  43.429  12.382
65914W        W37585  38.499  30.465   1.366
65915W        W37586  42.929  13.644  13.840
65916W        W37587  26.165  37.411   3.409
65917W        W37588   4.150   8.434   2.354
65918W        W37589  15.827  13.898  13.934
65919W        W37590   1.600  34.145   0.709
65920W        W37591  30.347  38.621   4.578
65921W        W37592  24.030  15.278   4.716
65922W        W37593  19.787  13.298   0.410
65923W        W37594  25.046  19.586  11.630
65924W        W37595  40.525   6.350  13.068
65925W        W37596   5.921  33.700  12.060
65926W        W37597  21.098  28.983  13.407
65927W        W37598  14.822   0.535   0.883
65928W        W37599  42.902   7.496  13.247
65929W        W37600   5.230   5.637  14.531
65930W        W37601  34.055  27.696  10.996
65931W        W37602  16.048  30.668  12.496
65932W        W37603   1.211  19.297  13.892
65933W        W37604  13.071  34.826  13.365
65934W        W37605  12.091  33.079   3.684
65935W        W37606  28.031  11.133   4.668
65936W        W37607  21.542   6.792   3.114
65937W        W37608  36.056  29.534   2.041
65938W        W37609  41.617  30.607  13.786
65939W        W37610   2.365  30.713   0.366
65940W        W37611  16.075  20.430   1.339
65941W        W37612  26.275  28.597  14.692
65942W        W37613   0.204  44.489  12.964
65943W        W37614  34.558  17.064  11.916
65944W        W37615  11.374  29.963   0.411
65945W        W37616   3.331  38.555   2.630
65946W        W37617  38.927  40.809   1.011
65947W        W37618   2.088  20.848  13.421
65948W        W37619  24.506   9.204   2.232
65949W        W37620  21.669  20.204  11.251
65950W        W37621  19.468  40.616  12.600
65951W        W37622  44.307  41.045  10.396
65952W        W37623  18.045  22.168  12.153
65953W        W37624  43.050   5.058  11.350
65954W        W37625  21.745  40.615  11.516
65955W        W37626  23.659  14.181   4.192
65956W        W37627  11.700   8.693  12.121
65957W        W37628   4.760  39.345  14.619
65958W        W37629  24.024  24.066  11.237
65959W        W37630  33.651  18.360  10.305
65960W        W37631  15.661   6.886   3.736
65961W        W37632  35.484  32.564   1.796
65962W        W37633  34.457   4.211   2.070
65963W        W37634  35.002   8.979   2.700
65964W        W37635  24.694  42.350  13.535
65965W        W37636  42.941  12.935   3.547
65966W        W37637  44.783  37.105   1.862
65967W        W37638  14.074  27.664   2.335
65968W        W37639  35.122  42.386  13.103
65969W        W37640  40.429  19.149   1.407
65970W        W37641  11.239  16.622   1.912
65971W        W37642  30.801  35.784   4.225
65972W        W37643   2.927  41.921  12.851
65973W        W37644   4.623  35.631  12.973
65974W        W37645  44.820  25.110  13.436
65975W        W37646  22.052  43.968   1.408
65976W        W37647  39.470  39.565   0.749
65977W        W37648   4.258   4.334  13.983
65978W        W37649  35.013   7.901   2.315
65979W        W37650  43.103   3.817   0.824
65980W        W37651  35.466   3.491  12.485
65981W        W37652  20.108  12.043  10.144
65982W        W37653  29.142  25.443  13.411
65983W        W37654  37.002   9.640   2.299
65984W        W37655  41.572  29.970  12.542
65985W        W37656  12.257  30.999  10.955
65986W        W37657  43.055  10.150  13.919
65987W        W37658  31.609   0.923   1.153
65988W        W37659   7.726   6.223   3.616
65989W        W37660   3.450  10.544  13.762
65990W        W37661  28.506  32.484  11.545
65991W        W37662  23.252   4.779  11.142
65992W        W37663  22.563  37.812   2.349
65993W        W37664  34.998  14.178  11.030
65994W        W37665  38.117  33.260   2.476
65995W        W37666  39.997  15.255  14.888
65996W        W37667  16.045  31.885   4.111
65997W        W37668  34.543  42.520   0.966
65998W        W37669  11.555  20.650   3.721
65999W        W37670   2.247  15.657  12.338
66000W        W37671  28.947  44.759   0.969
66001W        W37672  29.084  22.949  11.251
66002W        W37673  11.615  37.837   1.801
66003W        W37674   1.452  24.151  11.184
66004W        W37675   9.619   9.869   2.385
66005W        W37676  35.973  25.092  13.820
66006W        W37677   4.071  37.839   2.271
66007W        W37678  38.121  35.691  14.458
66008W        W37679  40.372  23.510  12.943
66009W        W37680  32.170  43.369  11.092
66010W        W37681  34.909   1.768   4.451
66011W        W37682  17.145  17.579  14.466
66012W        W37683   0.839  29.405   3.100
66013W        W37684  13.292  29.548   2.481
66014W        W37685  16.631  22.599   2.394
66015W        W37686  10.907   3.596   0.032
66016W        W37687   8.828  33.160   2.431
66017W        W37688   4.279  11.448  11.510
66018W        W37689   0.376   0.955  14.962
66019W        W37690   7.007  28.202  14.720
66020W        W37691  10.215  41.502   3.682
66021W        W37692  10.678  20.193   2.226
66022W        W37693   0.178  13.640  11.878
66023W        W37694  14.524  26.402  11.472
66024W        W37695  20.786  39.533   0.267
66025W        W37696   2.712  43.833   1.679
66026W        W37697  33.088   1.639  10.336
66027W        W37698   8.636  17.340  12.886
66028W        W37699   3.979  10.189  14.812
66029W        W37700  41.502  39.011  10.371
66030W        W37701  25.980  39.439   3.146
66031W        W37702  36.052  28.737   0.297
66032W        W37703  36.250   8.225   2.244
66033W        W37704  36.629  23.432  10.798
66034W        W37705  21.305  20.505  12.102
66035W        W37706   9.464  25.253   2.795
66036W        W37707  18.065  31.406  10.674
66037W        W37708  30.360   3.723  12.890
66038W        W37709  28.104  37.518   4.480
66039W        W37710   6.779  16.180  12.076
66040W        W37711   0.252  20.677  12.508
66041W        W37712  26.036  17.536   0.479
66042W        W37713   0.907  18.857   1.616
66043W        W37714  24.232  25.518   0.339
66044W        W37715  40.509  30.114  13.368
66045W        W37716  42.594  34.457   1.331
66046W        W37717  35.035   2.631   4.608
66047W        W37718  26.629  16.399  14.972
66048W        W37719  13.632  15.157  10.950
66049W        W37720   5.772   8.813  13.665
66050W        W37721  34.839  10.870   0.500
66051W        W37722  10.225  36.327   1.687
66052W        W37723  25.511  10.053  10.485
66053W        W37724  25.079  20.281  12.596
66054W        W37725  21.588   5.291   1.410
66055W        W37726  42.810  38.600   0.481
66056W        W37727   3.206  24.977   2.725
66057W        W37728  39.368  42.861   2.094
66058W        W37729  36.301   1.774  11.437
66059W        W37730  28.842  34.280  12.529
66060W        W37731  10.041  43.331   3.265
66061W        W37732  21.914  13.306  10.605
66062W        W37733  14.119  31.128   1.865
66063W        W37734   4.274  36.900   2.839
66064W        W37735  19.599  14.852  11.250
66065W        W37736  13.605   3.692  14.503
66066W        W37737   5.030  14.384  12.919
66067W        W37738  11.215  32.454  14.277
66068W        W37739  16.787   6.689  13.666
66069W        W37740  29.071  17.405   2.700
66070W        W37741  37.426  41.967   4.177
66071W        W37742  23.694  23.059  13.426
66072W        W37743  37.611   0.201   0.327
66073W        W37744  44.333  40.859  13.872
66074W        W37745  39.548  34.937   1.247
66075W        W37746   7.358   2.923   4.208
66076W        W37747  21.174  19.691   2.722
66077W        W37748  44.003   8.219  10.386
66078W        W37749  41.622  10.723   4.703
66079W        W37750  27.918  35.436  11.537
66080W        W37751   4.380  26.070   0.756
66081W        W37752  23.665   2.813   0.426
66082W        W37753   8.873  30.114   0.469
66083W        W37754  14.830  23.107   0.134
66084W        W37755  34.058  13.320   4.105
66085W        W37756   6.699  28.056   1.820
66086W        W37757  37.040  44.921  10.782
66087W        W37758  37.829  10.839  12.089
66088W        W37759  13.840  34.605   1.685
66089W        W37760  30.522   9.570   3.211
66090W        W37761   2.224   0.087  11.986
66091W        W37762  19.551   2.830  10.742
66092W        W37763  43.514  12.129  14.836
66093W        W37764   6.677  16.847  12.534
66094W        W37765  39.035  29.239  13.797
66095W        W37766  21.303  15.759   1.984
66096W        W37767   6.452  13.648  14.134
66097W        W37768  13.489  22.108  14.369
66098W        W37769  44.343  44.766   4.214
66099W        W37770  10.974   7.633  13.606
66100W        W37771  41.815  14.865   4.089
66101W        W37772  35.250  32.701  10.738
66102W        W37773   5.685   0.869   0.309
66103W        W37774  13.609  22.161  14.891
66104W        W37775   6.012   9.631  13.209
66105W        W37776  29.886  27.085   3.980
66106W        W37777  43.792  38.558   3.045
66107W        W37778  42.531  14.665  14.721
66108W        W37779  30.276  30.688   2.651
66109W        W37780  44.523  31.747  12.347
66110W        W37781  37.502  13.369   3.683
66111W        W37782  21.762  38.078  13.558
66112W        W37783  10.784  37.450   0.550
66113W        W37784  25.130   8.467  12.846
66114W        W37785  14.249   2.042   4.211
66115W        W37786  24.162   9.091  11.216
66116W        W37787  16.027  24.936   0.891
66117W        W37788  10.993   1.180   2.155
66118W        W37789  34.629  19.735   1.277
66119W        W37790   4.273   2.783   2.821
66120W        W37791   0.916  21.252   4.639
66121W        W37792  32.707  15.793   2.664
66122W        W37793  12.820  12.075  11.600
66123W        W37794  18.823  27.906  12.393
66124W        W37795  31.378  22.924  14.917
66125W        W37796  27.643  42.413   3.193
66126W        W37797  40.832   1.298  13.805
66127W        W37798  20.000   7.694   2.134
66128W        W37799  37.779  16.761  11.925
66129W        W37800  27.552  22.248   1.290
66130W        W37801  13.387  40.135   1.462
66131W        W37802  40.993  21.941   1.853
66132W        W37803   7.612  26.700  12.561
66133W        W37804  34.282  10.417  11.153
66134W        W37805   0.640  34.956  11.205
66135W        W37806  31.505  37.335  13.916
66136W        W37807  30.872  17.590  14.682
66137W        W37808   6.271  33.130   4.175
66138W        W37809  40.790  44.856   2.843
66139W        W37810   4.944   5.176   4.904
66140W        W37811  41.086  13.144   3.256
66141W        W37812   8.108  32.400   1.325
66142W        W37813  33.863  29.587   0.455
66143W        W37814  43.238  38.856   5.586
66144W        W37815  20.947  20.333  13.856
66145W        W37816  11.186   7.837   2.345
66146W        W37817  22.631  22.408  14.431
66147W        W37818  29.602  38.432   5.003
66148W        W37819  16.342   6.419  13.572
66149W        W37820  17.278  17.029   3.981
66150W        W37821  23.439   5.370   1.377
66151W        W37822  13.910   5.266   1.132
66152W        W37823  44.758  24.504   3.259
66153W        W37824  17.478  40.930  12.044
66154W        W37825  29.088  26.143  12.043
66155W        W37826   6.753  40.020   3.379
66156W        W37827  44.959  40.948  12.811
66157W        W37828  24.552  42.056   1.140
66158W        W37829  40.861  25.477  13.900
66159W        W37830  21.533  22.749   2.896
66160W        W37831  16.718   9.665   3.550
66161W        W37832  10.248  29.560  11.580
66162W        W37833  21.333  16.989   3.307
66163W        W37834  20.517  37.786  13.875
66164W        W37835  44.842   5.292   0.783
66165W        W37836  15.561   9.760  13.722
66166W        W37837  36.560  40.851   4.897
66167W        W37838  12.885  24.671   1.795
66168W        W37839  26.232   9.152   0.490
66169W        W37840   1.856  31.456   1.685
66170W        W37841  43.825   8.151   3.152
66171W        W37842  22.211   6.600   3.905
66172W        W37843  34.895  33.599  13.324
66173W        W37844  44.710  14.736  11.572
66174W        W37845   3.646  21.220   9.777
66175W        W37846   0.243  11.957   2.604
66176W        W37847  14.621   3.261  14.330
66177W        W37848   3.766  15.818   1.398
66178W        W37849   5.809  14.556  14.615
66179W        W37850  19.196  43.106  12.544
66180W        W37851  27.756  43.398   1.170
66181W        W37852  32.090  28.979   1.999
66182W        W37853  26.288  17.821   3.756
66183W        W37854  28.776  14.622   4.326
66184W        W37855  19.690   0.361  14.705
66185W        W37856   9.150  14.570  11.469
66186W        W37857  21.844  36.218  13.333
66187W        W37858  25.255  33.996  12.946
66188W        W37859  20.745  32.158  14.505
66189W        W37860  19.971  41.448  14.866
66190W        W37861  26.978  23.579  13.051
66191W        W37862  35.975   1.822   2.860
66192W        W37863  44.415  31.680   3.586
66193W        W37864  18.434  10.711   0.100
66194W        W37865  29.460  31.143   4.300
66195W        W37866  29.156  21.548  13.033
66196W        W37867   1.044  19.707   2.796
66197W        W37868  42.044  37.255   4.161
66198W        W37869  11.378   6.741   4.531
66199W        W37870  42.005  26.828  13.664
66200W        W37871  39.069  17.094   0.862
66201W        W37872  34.991  17.301  11.646
66202W        W37873  39.822  35.996   3.392
66203W        W37874  44.946  30.087   2.885
66204W        W37875  35.552  18.267   4.665
66205W        W37876  40.133  28.205  10.656
66206W        W37877   8.307  11.572  12.039
66207W        W37878  36.100  44.346   4.961
66208W        W37879  38.661  32.277   2.803
66209W        W37880  36.444  41.500   1.839
66210W        W37881  16.570  13.283  12.946
66211W        W37882   3.595  28.446   1.417
66212W        W37883   4.715  40.358  11.128
66213W        W37884  15.652  29.046   2.248
66214W        W37885  41.381  21.765   0.844
66215W        W37886  36.564  27.091  13.872
66216W        W37887  21.035   0.697   1.841
66217W        W37888   3.842  32.936   0.466
66218W        W37889  11.307  21.203   1.829
66219W        W37890  42.495  38.800  14.747
66220W        W37891   3.332  17.606  13.370
66221W        W37892   4.395   3.922   1.733
66222W        W37893  11.723   7.315  11.213
66223W        W37894  11.254   3.170   3.158
66224W        W37895  41.256  43.296  13.151
66225W        W37896  18.326  10.585   1.715
66226W        W37897  16.872  21.561  12.122
66227W        W37898  16.064  36.908   2.905
66228W        W37899  12.145  42.796  10.522
66229W        W37900  16.564  17.328  12.930
66230W        W37901  26.545  15.106  13.899
66231W        W37902  14.725  20.621   0.311
66232W        W37903  23.283  13.664  13.475
66233W        W37904  30.688  20.137  12.372
66234W        W37905  11.684  18.797   2.424
66235W        W37906  19.582  24.655  14.254
66236W        W37907  24.551   2.919  12.064
66237W        W37908  33.948   8.362   3.953
66238W        W37909  19.612   9.118   1.194
66239W        W37910   2.131   8.634   2.368
66240W        W37911  20.626  21.593   1.378
66241W        W37912  38.979  12.166  12.394
66242W        W37913  13.560   4.810   4.059
66243W        W37914  17.794  23.809   3.210
66244W        W37915   4.624  12.813   3.348
66245W        W37916  11.692  21.239   4.087
66246W        W37917  19.668  41.450   0.484
66247W        W37918  33.663  24.171   0.188
66248W        W37919   1.492   8.838   3.672
66249W        W37920  38.579  44.192   0.767
66250W        W37921  24.464   4.886  11.508
66251W        W37922  42.287   4.078   4.138
66252W        W37923  12.684  21.562   0.243
66253W        W37924   9.361  15.256   3.717
66254W        W37925  30.213  43.201   2.385
66255W        W37926  28.673  11.143  14.344
66256W        W37927  22.594  28.145   4.565
66257W        W37928  26.280  24.075  13.002
66258W        W37929  17.045  39.367  10.611
66259W        W37930   9.372  27.112   1.254
66260W        W37931  14.606  24.650  14.670
66261W        W37932  38.285  20.710  11.000
66262W        W37933  38.397  40.837   1.131
66263W        W37934   4.221  21.612   1.946
66264W        W37935   8.119  43.065  11.586
66265W        W37936  42.232  14.703  11.465
66266W        W37937   3.434  25.123   0.928
66267W        W37938   9.394  15.037  12.170
66268W        W37939  43.537  33.146   1.240
66269W        W37940  13.610  15.125  11.460
66270W        W37941  36.621  25.196   3.292
66271W        W37942  28.755  18.099   0.241
66272W        W37943  37.517   9.369  12.591
66273W        W37944  33.060  43.924  13.813
66274W        W37945  36.799  22.165  13.533
66275W        W37946  32.115  32.365   2.478
66276W        W37947   1.030   4.360   4.659
66277W        W37948   3.174  24.663   4.525
66278W        W37949  39.511  33.895   1.166
66279W        W37950  15.934  25.505  10.670
66280W        W37951  25.803  41.910  12.983
66281W        W37952  44.433  18.976   3.669
66282W        W37953  19.342  12.495   4.617
66283W        W37954  15.748  44.183   5.172
66284W        W37955  33.468  40.958   0.314
66285W        W37956  31.598  11.265  12.174
66286W        W37957  23.219   9.682  12.500
66287W        W37958  33.380   8.564  13.019
66288W        W37959  18.564  37.609  11.196
66289W        W37960  15.557  22.595   2.419
66290W        W37961  10.676  37.145   3.753
66291W        W37962  29.844   9.745   0.793
66292W        W37963  20.652  41.525  12.657
66293W        W37964  12.690  32.041  10.639
66294W        W37965  12.125  37.831  11.546
66295W        W37966  20.356  12.534   5.156
66296W        W37967  44.202  11.345   0.750
66297W        W37968  25.084  41.543  14.944
66298W        W37969  37.374  24.249   2.703
66299W        W37970  17.481  19.293   0.893
66300W        W37971  39.040  10.287  14.055
66301W        W37972  12.563  26.309   4.580
66302W        W37973  31.453  23.508   4.672
66303W        W37974  39.086  25.188   3.191
66304W        W37975  34.804  39.428   3.774
66305W        W37976   3.491   7.820  12.373
66306W        W37977   3.320  21.573   4.802
66307W        W37978  23.611  34.074  14.403
66308W        W37979   7.309  25.236  13.313
66309W        W37980  27.271   0.396  11.645
66310W        W37981  20.074  42.918  10.260
66311W        W37982  10.645  28.144  14.324
66312W        W37983  26.990  41.360   2.578
66313W        W37984  37.552  17.057  14.825
66314W        W37985  20.435   6.208   3.229
66315W        W37986  39.110  11.928  12.860
66316W        W37987  28.586  30.627  10.733
66317W        W37988  35.803  22.294  14.384
66318W        W37989  25.287   1.358  10.705
66319W        W37990  16.249  38.449  12.572
66320W        W37991   7.475  16.625  14.683
66321W        W37992  32.664  11.980  11.274
66322W        W37993  33.785  30.718   3.044
66323W        W37994  43.534  23.143   1.500
66324W        W37995  10.101  34.167  10.893
66325W        W37996  20.814  16.673   3.706
66326W        W37997  12.415  42.801   2.524
66327W        W37998  14.678  17.341   1.304
66328W        W37999   1.150  33.395  10.286
66329W        W38000  35.337  38.244   3.162
66330W        W38001   0.802   5.711  11.610
66331W        W38002  16.198  32.646   2.289
66332W        W38003  39.144  11.846   1.237
66333W        W38004   4.951  26.690  12.076
66334W        W38005  27.862  17.076  13.922
66335W        W38006  23.922  19.628   3.990
66336W        W38007  18.095  42.119   3.434
66337W        W38008   6.304   0.653  11.631
66338W        W38009   4.731  36.477   1.018
66339W        W38010  43.057  12.627  11.941
66340W        W38011  25.921  41.547  13.810
66341W        W38012  26.034  39.617   1.840
66342W        W38013  27.197   3.709   1.004
66343W        W38014  37.857   8.564  13.322
66344W        W38015  24.205   0.817  14.095
66345W        W38016  19.187  21.950  10.739
66346W        W38017   9.651  38.865   5.250
66347W        W38018  34.423  18.249  14.752
66348W        W38019  19.774   1.823   1.998
66349W        W38020  29.549  30.387  13.434
66350W        W38021   3.420  25.926  14.965
66351W        W38022  17.246  37.403   1.730
66352W        W38023  13.249  31.510   4.997
66353W        W38024  18.952  29.304  10.310
66354W        W38025  21.574  25.002  10.604
66355W        W38026  44.602  18.052   0.384
66356W        W38027   4.049  15.227   1.913
66357W        W38028   3.335   0.276  11.211
66358W        W38029  30.511  27.054   3.319
66359W        W38030  19.251   4.772   1.903
66360W        W38031  34.485  33.635  13.946
66361W        W38032  33.325  43.528   2.415
66362W        W38033  42.537   8.163  13.178
66363W        W38034  40.240   8.456  13.031
66364W        W38035  17.630   0.855   4.193
66365W        W38036  37.788   6.649   3.126
66366W        W38037  29.127   6.450   3.247
66367W        W38038   2.276  10.828   3.575
66368W        W38039  13.866   6.674   4.700
66369W        W38040  42.566   0.017  11.135
66370W        W38041   2.016   8.785   2.856
66371W        W38042   9.706  37.581   2.821
66372W        W38043  38.845  40.302   1.057
66373W        W38044  13.640  42.066  11.411
66374W        W38045  35.784   3.508  13.916
66375W        W38046  13.242  30.450  14.461
66376W        W38047   3.344  19.195   4.414
66377W        W38048  25.162  10.414  12.101
66378W        W38049  34.186  25.063  14.578
66379W        W38050   5.214  18.658   0.187
66380W        W38051  22.634  38.003  10.356
66381W        W38052  43.432  33.623   4.202
66382W        W38053   9.373  21.098   0.015
66383W        W38054   0.104   2.407   3.338
66384W        W38055  27.445   2.061  14.376
66385W        W38056  38.322   4.165  10.838
66386W        W38057   3.857  38.432  13.754
66387W        W38058  24.021  29.657   3.819
66388W        W38059  16.958  11.070  11.012
66389W        W38060   1.229  18.097  11.475
66390W        W38061  33.405   4.181  11.211
66391W        W38062  31.350  10.466  13.688
66392W        W38063  11.690   6.358  13.376
66393W        W38064  15.663  41.763   3.543
66394W        W38065  26.135   5.127   0.425
66395W        W38066  22.265  31.995   0.532
66396W        W38067  38.243  37.875  10.308
66397W        W38068  15.799  42.781  13.738
66398W        W38069  14.601  14.623  12.205
66399W        W38070   4.914   4.602  13.819
66400W        W38071  40.801  13.856  11.148
66401W        W38072  29.113  40.960  11.162
66402W        W38073  27.389   5.486  13.080
66403W        W38074  27.501   5.350  14.482
66404W        W38075  15.572  41.496  13.774
66405W        W38076  34.480  13.861  14.820
66406W        W38077   8.887  15.087  10.682
66407W        W38078  12.398  41.683   3.844
66408W        W38079  10.512  29.117  14.831
66409W        W38080  23.538   5.879   1.415
66410W        W38081  11.114   4.814   0.811
66411W        W38082  33.299  39.964  12.337
66412W        W38083  25.098  40.709   0.465
66413W        W38084  29.553   4.777   4.032
66414W        W38085   5.941  13.286   2.226
66415W        W38086  36.201  35.234   2.145
66416W        W38087   2.066  19.787   5.422
66417W        W38088  43.318  41.029  12.409
66418W        W38089  26.075  40.251   3.705
66419W        W38090   9.687   7.766  12.799
66420W        W38091  18.569  29.401  10.648
66421W        W38092  44.798  12.456   5.027
66422W        W38093   2.257  22.914  13.843
66423W        W38094  37.334  26.041   3.745
66424W        W38095  40.392  26.082   3.221
66425W        W38096  11.609  11.732   0.378
66426W        W38097   7.098  12.710  13.944
66427W        W38098   4.688  37.579  12.200
66428W        W38099  27.488  23.649  12.446
66429W        W38100  35.343  24.720   2.201
66430W        W38101   1.751  36.394  13.035
66431W        W38102  21.804  21.607  14.953
66432W        W38103  42.598  20.069   3.046
66433W        W38104   0.710  10.587   1.385
66434W        W38105  11.202  35.913   4.589
66435W        W38106   1.525  28.071   3.380
66436W        W38107  40.348  31.580   0.433
66437W        W38108  23.505  33.128   4.714
66438W        W38109  23.150  36.100   2.360
66439W        W38110  17.262  13.854   5.515
66440W        W38111   8.072   2.002   4.062
66441W        W38112   7.316  23.652   1.263
66442W        W38113  13.028  43.928  12.585
66443W        W38114  42.832   7.338   4.987
66444W        W38115   5.373  21.995   4.531
66445W        W38116  31.085  15.539  14.933
66446W        W38117  33.168  19.173   1.220
66447W        W38118  14.614  29.539  13.548
66448W        W38119  11.206  36.259  14.422
66449W        W38120  33.471   6.904  14.331
66450W        W38121   9.383  33.031   2.514
66451W        W38122  31.617  25.990  12.808
66452W        W38123  24.620  44.884   4.109
66453W        W38124  36.044  20.083  13.902
66454W        W38125  38.885  23.708   2.626
66455W        W38126  18.644  37.824  14.407
66456W        W38127  35.705  11.935   0.608
66457W        W38128   1.836   8.427   1.630
66458W        W38129  37.135   3.279   4.233
66459W        W38130  40.806  35.451  14.397
66460W        W38131  29.061  33.785  14.044
66461W        W38132   1.338   5.917   3.773
66462W        W38133  43.826  32.855  14.857
66463W        W38134  35.123   7.512  11.090
66464W        W38135  34.121   2.751   3.327
66465W        W38136  22.873  41.229   2.875
66466W        W38137  31.140   0.922  10.994
66467W        W38138  31.887  23.475  11.999
66468W        W38139  35.087   5.446   1.370
66469W        W38140  25.822  10.821   2.643
66470W        W38141  13.785  38.651  10.668
66471W        W38142  14.247  34.540   3.402
66472W        W38143  39.429  31.504   1.294
66473W        W38144  36.074  15.761   1.287
66474W        W38145  44.764  18.356   0.776
66475W        W38146  37.948  29.090   0.893
66476W        W38147  33.998  42.545  10.754
66477W        W38148  28.249   9.059   4.993
66478W        W38149  11.278  12.873   2.090
66479W        W38150  36.625  20.347  13.783
66480W        W38151  14.522  44.467  11.363
66481W        W38152  43.420   8.253   2.840
66482W        W38153  10.295  11.023   1.357
66483W        W38154  11.147  12.561  14.840
66484W        W38155  27.104  40.455   2.869
66485W        W38156  30.843  43.977  13.362
66486W        W38157  12.708   2.416   1.216
66487W        W38158  35.673  34.427   1.413
66488W        W38159  11.911  28.693   5.313
66489W        W38160  17.817  37.044   4.550
66490W        W38161  34.075  35.783  11.512
66491W        W38162  16.543  19.982   0.056
66492W        W38163  22.743   0.435   1.659
66493W        W38164  20.958  21.291  10.641
66494W        W38165  38.309  29.206   3.631
66495W        W38166   8.484  21.683   4.463
66496W        W38167  15.148  20.235   1.997
66497W        W38168   7.205   0.153  14.831
66498W        W38169  34.858  39.136   2.315
66499W        W38170  42.776  22.408   0.855
66500W        W38171   9.168  19.897  10.987
66501W        W38172  25.273  30.321   5.033
66502W        W38173  27.926  26.988  11.087
66503W        W38174  24.701  23.784   3.220
66504W        W38175  42.304  29.951   1.912
66505W        W38176   6.397  19.885   5.165
66506W        W38177  24.430  40.152   1.051
66507W        W38178   7.839  37.072  14.593
66508W        W38179  43.521  24.825   3.568
66509W        W38180  38.337  36.143   3.171
66510W        W38181  27.016  18.175   2.956
66511W        W38182  21.080  31.505   2.689
66512W        W38183   9.621  37.094  14.085
66513W        W38184  39.980  39.350   0.186
66514W        W38185   6.774  31.148   3.363
66515W        W38186   9.800  20.632  12.358
66516W        W38187   2.349  24.654  13.033
66517W        W38188  25.446  31.434   1.953
66518W        W38189   1.782   9.761   1.187
66519W        W38190  12.829  14.355   0.327
66520W        W38191   1.434  26.025   3.618
66521W        W38192  27.913   0.235   0.213
66522W        W38193  11.199   2.266  14.894
66523W        W38194  40.051  16.635   0.547
66524W        W38195  43.777  20.955  13.872
66525W        W38196  20.556  30.145   2.764
66526W        W38197  43.045   7.220  14.854
66527W        W38198  29.783  42.208   1.284
66528W        W38199  38.528  31.853   0.988
66529W        W38200  42.032  13.267  12.448
66530W        W38201   1.800  24.413   1.687
66531W        W38202   9.534  10.999  13.716
66532W        W38203  31.119  43.832  12.445
66533W        W38204  19.180   6.826  14.382
66534W        W38205   2.408  42.552   1.416
66535W        W38206  40.974  36.912  12.158
66536W        W38207  16.520  37.125   4.888
66537W        W38208  40.436  28.594  11.360
66538W        W38209  21.682  35.074   0.785
66539W        W38210  13.007   6.560   0.217
66540W        W38211   1.533  42.952  12.983
66541W        W38212  21.022   7.799   4.227
66542W        W38213  37.066   7.547  11.281
66543W        W38214  35.035  26.813  10.226
66544W        W38215  34.353  12.111  12.905
66545W        W38216   0.224  25.526  14.280
66546W        W38217  17.951   5.142  14.066
66547W        W38218  33.461  39.520   4.586
66548W        W38219  18.564  18.295  13.892
66549W        W38220   7.658  41.934  14.350
66550W        W38221  13.675  15.173   1.811
66551W        W38222  23.992  31.462   4.569
66552W        W38223  27.705   8.376   1.401
66553W        W38224   1.968  27.509   3.250
66554W        W38225   0.322  39.929   2.381
66555W        W38226  34.579  37.159  10.664
66556W        W38227   7.276  19.707  10.752
66557W        W38228   6.767   8.882   4.622
66558W        W38229  40.711  17.968  11.155
66559W        W38230  33.682   9.611  10.938
66560W        W38231  29.135  41.929   3.071
66561W        W38232  17.737  40.056  14.013
66562W        W38233  31.600   4.323   2.994
66563W        W38234  25.755  42.721   3.730
66564W        W38235   4.233  15.566   1.351
66565W        W38236  10.295   8.630  10.656
66566W        W38237  38.119  24.797  12.949
66567W        W38238  41.301  41.839  11.179
66568W        W38239   0.034  25.970  12.586
66569W        W38240  22.987  42.277   1.265
66570W        W38241  23.126  23.825  13.486
66571W        W38242  44.253  11.331  11.453
66572W        W38243  37.379  10.767  11.548
66573W        W38244  39.939   0.411   3.797
66574W        W38245   5.207  38.904   2.871
66575W        W38246  17.825   2.399  13.765
66576W        W38247  19.483  40.717   0.762
66577W        W38248  14.260   6.652  11.954
66578W        W38249  44.342   9.206   1.396
66579W        W38250  11.401   0.199  11.528
66580W        W38251  12.987   0.420  13.560
66581W        W38252  37.577  32.404   0.294
66582W        W38253  39.116   8.584  14.840
66583W        W38254  30.500  34.860   3.787
66584W        W38255  27.598  15.247  10.738
66585W        W38256  24.726  24.378   4.764
66586W        W38257  31.566  35.426  12.768
66587W        W38258  44.717   5.646  13.869
66588W        W38259  37.805   2.961  13.320
66589W        W38260  33.362  11.187  10.682
66590W        W38261  41.012  16.394   3.818
66591W        W38262   8.373  36.281  10.505
66592W        W38263  32.306  10.193  14.799
66593W        W38264  20.034  18.773  12.301
66594W        W38265   4.868  13.127  13.491
66595W        W38266   3.591  44.933   0.474
66596W        W38267   4.335  32.765  12.714
66597W        W38268   6.570  34.490   4.160
66598W        W38269  16.772  21.259   0.563
66599W        W38270  29.691  22.350  14.916
66600W        W38271  21.363  17.953   2.112
66601W        W38272   7.411  13.000   0.527
66602W        W38273   1.860  35.327  11.560
66603W        W38274  17.129  26.952  13.381
66604W        W38275  26.663  15.967   4.447
66605W        W38276   2.228  11.503  11.241
66606W        W38277  34.842  35.539   1.024
66607W        W38278  13.729  33.365   3.689
66608W        W38279  14.831   0.307  12.374
66609W        W38280  24.030  23.309  10.028
66610W        W38281  24.997   6.387   0.716
66611W        W38282  22.252   7.532   1.315
66612W        W38283   2.270  30.193   4.939
66613W        W38284  17.698  26.703   3.267
66614W        W38285   0.282  25.216   2.417
66615W        W38286  29.379   0.412   0.424
66616W        W38287  11.822   2.131  12.449
66617W        W38288  41.149  17.138  13.806
66618W        W38289  44.533  44.889   9.834
66619W        W38290   8.923  43.987   0.890
66620W        W38291   1.789  30.353   2.889
66621W        W38292  41.517  14.419  14.818
66622W        W38293  42.412  21.180   3.622
66623W        W38294  35.445  23.061   2.312
66624W        W38295  36.470  44.569   3.695
66625W        W38296  10.873  21.015  13.381
66626W        W38297  33.676  11.429   0.892
66627W        W38298  19.475  28.661   3.177
66628W        W38299   2.551  37.300   0.963
66629W        W38300  22.135  30.374   3.320
66630W        W38301  22.683  14.057   4.598
66631W        W38302  27.860  33.984   1.989
66632W        W38303  20.101   1.882  14.315
66633W        W38304   1.918  44.101  14.410
66634W        W38305  18.001  14.176   0.902
66635W        W38306  33.077  30.081   1.403
66636W        W38307  33.170  24.399   0.277
66637W        W38308   5.433  23.866   2.231
66638W        W38309  41.079   3.854   2.829
66639W        W38310  28.428   6.173  13.287
66640W        W38311  28.052  26.189   0.703
66641W        W38312  24.661   7.358   1.188
66642W        W38313  21.609  38.731   3.640
66643W        W38314   1.852   7.275   3.685
66644W        W38315   1.393  14.397   4.398
66645W        W38316   0.914   5.707  14.828
66646W        W38317   6.886  43.911   3.685
66647W        W38318  11.654  40.015  11.547
66648W        W38319  23.173  42.308  11.467
66649W        W38320   3.695  30.452   0.065
66650W        W38321   7.434  37.269   4.592
66651W        W38322  23.203  35.635   3.651
66652W        W38323   2.059  37.865   4.142
66653W        W38324  17.186  14.000   4.657
66654W        W38325  12.729   6.562  11.862
66655W        W38326  26.052  40.044  14.962
66656W        W38327  31.599  35.488   2.691
66657W        W38328  20.816  12.661   4.964
66658W        W38329  31.364  33.519  14.472
66659W        W38330  36.944  39.433  12.855
66660W        W38331  13.739   3.279  11.952
66661W        W38332   5.928  14.849  10.601
66662W        W38333  13.371   6.675   1.070
66663W        W38334   1.427   1.772   2.804
66664W        W38335  33.220  41.263   2.129
66665W        W38336  32.636   8.889   0.928
66666W        W38337  20.957  31.912   2.376
66667W        W38338  22.633   5.603  10.694
66668W        W38339   5.464  32.424   0.187
66669W        W38340  15.327  30.891   1.189
66670W        W38341   8.898  29.730  12.051
66671W        W38342  14.229   7.377   0.253
66672W        W38343  28.300  16.727  10.616
66673W        W38344   5.994  27.968   2.162
66674W        W38345  14.370  14.330  12.615
66675W        W38346  28.526  25.776   4.535
66676W        W38347  32.486   9.428   2.813
66677W        W38348  19.616  32.109  11.507
66678W        W38349   2.303  34.512   3.581
66679W        W38350  36.983   6.328   0.492
66680W        W38351  25.583  19.579   2.725
66681W        W38352  36.801  27.962  11.566
66682W        W38353  32.592  14.695   1.319
66683W        W38354  32.409   9.276   4.171
66684W        W38355  17.717  27.961  11.653
66685W        W38356   9.313  23.718   3.878
66686W        W38357  42.359   1.035   0.364
66687W        W38358  38.807  39.739   2.814
66688W        W38359  35.829  29.292   1.647
66689W        W38360   6.831  11.893  14.835
66690W        W38361  27.506  29.594  12.924
66691W        W38362  14.952   4.693   9.923
66692W        W38363  21.157  41.194  14.716
66693W        W38364   5.781   6.286  10.702
66694W        W38365  20.982  19.811  13.877
66695W        W38366  18.572  28.097  11.964
66696W        W38367  25.047  31.216   2.374
66697W        W38368  17.680  37.561   4.640
66698W        W38369  26.551   0.957   3.207
66699W        W38370   9.262  14.265  10.639
66700W        W38371   1.620  32.512  13.202
66701W        W38372   5.925   1.304   3.853
66702W        W38373  13.314   8.682   1.797
66703W        W38374  29.859   9.458  14.482
66704W        W38375  17.813   1.999   4.133
66705W        W38376  42.553  41.480  11.923
66706W        W38377   9.771  44.253   4.054
66707W        W38378  11.924   8.995  11.155
66708W        W38379  39.766  36.606  12.524
66709W        W38380  25.987  18.044   3.389
66710W        W38381  20.944  21.146   2.743
66711W        W38382   8.115  24.392  14.485
66712W        W38383  16.932  39.062  11.105
66713W        W38384  39.308  22.278   1.159
66714W        W38385  36.147   2.414   0.847
66715W        W38386  43.008  38.484   2.858
66716W        W38387   0.761  25.139  10.545
66717W        W38388  14.707  12.920   3.454
66718W        W38389   3.947  43.376   4.141
66719W        W38390  44.218  12.730   2.155
66720W        W38391  44.394  18.705   3.194
66721W        W38392   3.221  17.104  12.092
66722W        W38393  40.540  20.727  11.984
66723W        W38394  17.880  31.337   3.666
66724W        W38395  42.315  42.008   2.270
66725W        W38396  42.795  10.339  14.326
66726W        W38397   9.126  11.323  12.817
66727W        W38398  23.172  41.154  13.313
66728W        W38399  26.729  23.152  12.770
66729W        W38400   0.339  18.276   3.726
66730W        W38401  44.889  21.497   2.696
66731W        W38402  41.884  40.873   0.238
66732W        W38403  39.257  17.160  10.547
66733W        W38404  29.781  34.361  13.832
66734W        W38405  43.533  21.892  14.334
66735W        W38406  31.992   6.759   0.761
66736W        W38407  41.222  17.422  10.691
66737W        W38408  10.556  43.670  14.352
66738W        W38409  34.263   0.951   1.798
66739W        W38410  14.930  27.228   3.603
66740W        W38411  17.873   5.977  10.552
66741W        W38412  33.656  20.742  14.926
66742W        W38413  39.621  43.467   0.329
66743W        W38414   0.624  21.975  13.359
66744W        W38415  26.974  34.922   4.377
66745W        W38416  38.074  27.078   4.051
66746W        W38417   8.044  29.031   2.170
66747W        W38418  44.426   4.283  12.511
66748W        W38419  17.590  26.692  14.339
66749W        W38420  14.639  40.271  10.670
66750W        W38421  13.790   4.886  11.950
66751W        W38422  36.031  32.826  13.555
66752W        W38423  37.607  24.738   0.751
66753W        W38424  35.554  22.993  11.573
66754W        W38425  20.576  42.749  11.183
66755W        W38426  39.143  30.427  11.507
66756W        W38427  35.147  33.862  12.963
66757W        W38428  11.103   6.649   3.208
66758W        W38429  10.864  13.064   4.035
66759W        W38430  10.868  32.997  12.785
66760W        W38431  30.892  44.073  11.034
66761W        W38432  27.026  25.998   0.626
66762W        W38433  14.915  27.429  10.774
66763W        W38434  23.666  41.368  12.594
66764W        W38435  13.069  33.018  11.487
66765W        W38436   0.703  43.835   2.843
66766W        W38437  11.793  39.586   3.375
66767W        W38438  10.883  29.505   1.422
66768W        W38439   4.281  22.393  14.181
66769W        W38440  18.891  40.903  11.687
66770W        W38441  10.779  29.156  13.819
66771W        W38442   7.537   6.736  11.608
66772W        W38443  22.031   0.325  14.233
66773W        W38444  28.658   0.952   1.818
66774W        W38445  12.764  11.586  11.711
66775W        W38446   1.904  18.789  10.679
66776W        W38447  29.373   3.381  10.485
66777W        W38448  26.962  41.316  12.622
66778W        W38449  29.110   8.667   2.609
66779W        W38450  41.811  29.703   1.196
66780W        W38451   8.137  29.032  14.106
66781W        W38452  17.224  18.049  12.180
66782W        W38453  12.419  20.171   4.232
66783W        W38454  21.947  41.728   2.308
66784W        W38455  33.889  11.215  12.652
66785W        W38456  44.434  23.981  12.934
66786W        W38457  42.914  21.486  14.630
66787W        W38458  30.517   3.337   0.528
66788W        W38459  11.837   3.670  13.826
66789W        W38460  28.540  28.876  12.465
66790W        W38461   3.400   6.503  11.635
66791W        W38462  13.435  25.997  11.864
66792W        W38463  28.563  28.465  13.024
66793W        W38464  28.676   1.471  13.324
66794W        W38465  24.287  38.520  11.578
66795W        W38466  13.597  36.875  12.419
66796W        W38467   7.912  38.391  11.969
66797W        W38468   4.526  34.385   4.269
66798W        W38469  26.784  28.086  11.754
66799W        W38470  39.541  39.809  13.415
66800W        W38471  31.595  33.848  14.872
66801W        W38472  35.871  38.903   1.319
66802W        W38473  17.572  11.566   3.185
66803W        W38474  40.070  11.698  13.905
66804W        W38475  39.979  32.707   3.736
66805W        W38476  10.838  36.612  13.445
66806W        W38477  25.505   8.357   4.125
66807W        W38478   4.871  40.722   4.294
66808W        W38479  32.529  44.490   0.917
66809W        W38480  39.355   9.901   2.137
66810W        W38481  12.744   2.558   0.726
66811W        W38482  29.977   2.407  12.834
66812W        W38483  18.766  23.874   0.467
66813W        W38484  36.786  26.570   0.416
66814W        W38485  40.730  20.148   0.261
66815W        W38486  29.224  18.626  11.919
66816W        W38487  29.076  13.484  14.966
66817W        W38488  14.052  43.008   1.449
66818W        W38489  29.005  41.398  11.630
66819W        W38490  40.477  28.021   4.473
66820W        W38491  11.913  44.369  14.372
66821W        W38492  15.737  19.580  13.909
66822W        W38493  32.955  44.317  13.458
66823W        W38494  40.427  22.081   4.291
66824W        W38495  22.673  32.354  13.820
66825W        W38496  38.307   9.189  11.946
66826W        W38497  41.833  18.691   1.784
66827W        W38498  11.652  18.622   1.452
66828W        W38499  31.157  23.093   4.667
66829W        W38500  36.120  42.846  12.947
66830W        W38501  39.089  39.595  13.472
66831W        W38502   1.019  14.750  13.116
66832W        W38503  44.672  41.818   4.874
66833W        W38504  22.088  18.310   1.282
66834W        W38505  19.813  37.342  11.982
66835W        W38506  42.787  23.864  12.454
66836W        W38507  10.178   0.478  11.905
66837W        W38508  17.160  31.213   4.406
66838W        W38509   8.081  40.659  13.590
66839W        W38510   7.219  40.622   1.675
66840W        W38511  27.441   1.816  13.280
66841W        W38512  11.622   3.698   0.247
66842W        W38513  38.523   0.723  12.186
66843W        W38514  14.983  37.560  13.388
66844W        W38515  22.087   3.667   1.442
66845W        W38516  15.269  26.054  11.705
66846W        W38517  43.486  16.704   3.188
66847W        W38518  20.265  27.473  10.612
66848W        W38519  11.620   4.807   3.795
66849W        W38520   7.405  31.407   1.272
66850W        W38521  13.317   6.772  11.587
66851W        W38522   5.475  21.094   2.012
66852W        W38523  17.249  21.525  13.926
66853W        W38524   7.714  15.122   0.792
66854W        W38525  31.549  28.957   0.009
66855W        W38526  25.665  13.350  11.436
66856W        W38527  12.609  41.648  12.394
66857W        W38528  20.520  20.065  13.989
66858W        W38529  22.930  39.634   2.149
66859W        W38530  14.257   6.144  12.078
66860W        W38531  20.565  35.406  10.797
66861W        W38532  36.878  35.825  12.096
66862W        W38533  40.761  35.467   0.423
66863W        W38534   6.840  35.110  13.852
66864W        W38535  20.633  29.607  13.575
66865W        W38536  38.939  38.273   3.545
66866W        W38537  16.123  17.592  12.887
66867W        W38538  26.215   0.815  10.714
66868W        W38539   3.667  10.624  14.967
66869W        W38540  22.119  23.421   0.001
66870W        W38541   9.334  19.426  14.939
66871W        W38542  21.217  32.700  12.905
66872W        W38543  14.118  16.430   3.028
66873W        W38544  10.744  37.849  11.564
66874W        W38545   6.626  14.582  14.877
66875W        W38546  15.882  15.769  14.429
66876W        W38547  16.214  21.276   4.577
66877W        W38548  21.811  29.854  11.879
66878W        W38549  11.064  28.019   4.076
66879W        W38550  22.281   7.266   2.281
66880W        W38551  22.274  35.968   1.283
66881W        W38552  33.948  15.041   1.289
66882W        W38553  37.306  24.708  13.861
66883W        W38554   5.873   5.114  12.074
66884W        W38555  21.938  15.595   2.692
66885W        W38556   8.891  36.513   0.211
66886W        W38557  14.271  29.480   2.947
66887W        W38558  17.205  11.985  14.455
66888W        W38559  44.356  29.012   4.571
66889W        W38560  34.528  41.916   3.646
66890W        W38561  12.886  43.964  13.576
66891W        W38562  43.456  40.778   1.359
66892W        W38563  31.859  28.344  11.558
66893W        W38564  40.752  26.691  11.158
66894W        W38565  18.274  11.269  12.856
66895W        W38566   8.817  32.736  11.132
66896W        W38567   0.976  17.041  13.859
66897W        W38568  20.321   6.723   4.074
66898W        W38569   3.741  26.452   2.790
66899W        W38570  37.188  40.003  14.797
66900W        W38571   4.820  36.961   4.958
66901W        W38572  34.520  13.314   4.875
66902W        W38573  12.640  11.078   4.427
66903W        W38574  44.697  44.476  12.868
66904W        W38575  28.145  14.251  12.503
66905W        W38576   1.482  37.140  14.437
66906W        W38577  11.699  30.559   4.121
66907W        W38578  27.249   9.813   2.268
66908W        W38579  43.092   3.772  14.330
66909W        W38580   6.773   3.401   4.240
66910W        W38581   4.740  24.262   5.001
66911W        W38582  44.819  37.597  11.487
66912W        W38583   1.774  21.982   1.755
66913W        W38584  30.317  32.913   2.686
66914W        W38585  35.514  41.549  12.395
66915W        W38586  43.458   2.249  13.139
66916W        W38587   1.165  23.686   2.715
66917W        W38588  37.938  14.371   4.045
66918W        W38589  34.100  21.090  14.018
66919W        W38590  43.451  37.912   0.275
66920W        W38591  32.795   3.737   3.430
66921W        W38592  21.919   7.734  11.979
66922W        W38593  17.068   4.967  12.545
66923W        W38594  44.026  13.283  13.375
66924W        W38595  16.170  12.682   1.481
66925W        W38596  43.045  26.747   2.760
66926W        W38597  18.981  36.907   2.488
66927W        W38598  37.978  44.031   2.926
66928W        W38599   0.922  25.503   1.848
66929W        W38600   3.394  18.665   0.006
66930W        W38601  30.906  19.826   4.237
66931W        W38602  14.327  44.976   2.769
66932W        W38603   6.009  18.635   3.682
66933W        W38604  14.519   5.684  11.014
66934W        W38605  34.055  27.181  12.023
66935W        W38606  44.527  25.980   0.739
66936W        W38607  35.536  12.048  13.368
66937W        W38608  31.576  20.180  13.481
66938W        W38609   9.906  11.663  11.933
66939W        W38610   1.586  26.730  11.644
66940W        W38611  13.540  42.300   1.212
66941W        W38612  42.583  41.566   4.899
66942W        W38613  23.629  15.916   4.137
66943W        W38614  41.043  29.818   0.499
66944W        W38615  28.718  16.699   3.347
66945W        W38616   0.730  34.762  12.336
66946W        W38617   4.156  43.999   3.296
66947W        W38618  39.939   0.532  11.481
66948W        W38619  40.272   6.975   0.437
66949W        W38620  26.507  28.194   4.285
66950W        W38621  16.671   3.630  11.547
66951W        W38622  32.156  17.110  14.623
66952W        W38623  24.274  24.110   0.885
66953W        W38624   9.374   5.826  14.348
66954W        W38625  43.589   3.143  12.388
66955W        W38626   7.169  29.512   1.944
66956W        W38627  13.955   9.539  10.827
66957W        W38628  10.406  41.998   5.125
66958W        W38629  19.101  15.271   2.431
66959W        W38630  11.615  12.604   1.749
66960W        W38631  16.741  42.049   4.372
66961W        W38632  16.666  35.055   2.905
66962W        W38633  29.236  41.927  13.456
66963W        W38634   0.547  44.661  12.400
66964W        W38635  21.318  22.775   0.177
66965W        W38636  43.950  25.236  12.561
66966W        W38637  22.233  15.227   3.412
66967W        W38638  26.035  25.828   3.136
66968W        W38639  32.328   3.700   4.200
66969W        W38640  27.501  33.390   2.214
66970W        W38641   3.952  36.065   1.907
66971W        W38642  12.373   0.924   1.618
66972W        W38643  19.784   3.849  14.852
66973W        W38644  33.081  20.973   3.785
66974W        W38645  27.893  26.861   1.693
66975W        W38646  40.296  12.836   4.317
66976W        W38647   3.675   1.713   0.778
66977W        W38648   1.050  26.626   9.785
66978W        W38649  43.420  10.788   1.895
66979W        W38650   0.453  21.667  12.440
66980W        W38651  31.116  18.138  13.177
66981W        W38652  15.613  12.549   4.553
66982W        W38653   1.880   9.644  14.265
66983W        W38654  43.652  16.166   1.608
66984W        W38655  43.051  31.094   0.509
66985W        W38656   8.734  26.235  11.150
66986W        W38657  24.789  15.786   1.776
66987W        W38658  36.877  10.717  13.033
66988W        W38659  35.490   9.149   1.964
66989W        W38660  36.476  12.575  12.542
66990W        W38661  32.992  20.257   1.715
66991W        W38662  41.975  30.619   2.324
66992W        W38663  16.757  32.808  14.102
66993W        W38664  38.351  18.538  12.831
66994W        W38665  33.865  39.333   2.836
66995W        W38666  13.231  33.152  13.236
66996W        W38667  15.009  34.421  14.458
66997W        W38668  22.228  17.807   1.927
66998W        W38669  43.102  29.496   3.945
66999W        W38670  29.208  19.328   3.741
67000W        W38671   6.958  20.173  11.597
67001W        W38672  20.134   5.486   3.635
67002W        W38673  32.162  37.877   2.801
67003W        W38674  25.238  35.389   2.361
67004W        W38675   0.679  24.728   0.352
67005W        W38676  44.877  24.512   1.910
67006W        W38677  20.987  26.175  10.475
67007W        W38678  17.581  26.332   4.187
67008W        W38679  35.594  31.038   0.513
67009W        W38680  40.079  43.444  10.555
67010W        W38681  13.723   2.351  11.566
67011W        W38682  41.908  15.599   4.693
67012W        W38683   1.914  24.059   3.129
67013W        W38684  24.879  33.495   4.667
67014W        W38685   2.949  21.039   3.592
67015W        W38686  15.139  33.882   4.841
67016W        W38687  28.118   6.573   4.241
67017W        W38688  36.128  30.192   1.868
67018W        W38689  32.693   9.631  12.532
67019W        W38690  31.864   5.029  11.232
67020W        W38691  22.668  15.886   3.161
67021W        W38692  21.065  19.169   2.662
67022W        W38693   9.033  26.268   0.260
67023W        W38694  41.252  30.129  11.360
67024W        W38695   0.759   6.290   3.763
67025W        W38696   7.486  32.434   4.147
67026W        W38697  33.624  36.900  13.451
67027W        W38698   2.758  18.831   2.251
67028W        W38699  38.463  42.331   2.231
67029W        W38700   5.238  29.587  10.235
67030W        W38701  35.825  13.645  10.700
67031W        W38702  29.705  44.345   5.098
67032W        W38703  40.871  19.201   4.134
67033W        W38704  34.959  26.187   4.628
67034W        W38705  24.936  39.586  13.393
67035W        W38706  39.884  30.849   4.558
67036W        W38707  31.700  42.692  14.719
67037W        W38708  12.400  44.322  11.443
67038W        W38709  16.186   1.811   2.942
67039W        W38710  15.081  26.789  13.738
67040W        W38711   8.949  25.978  10.721
67041W        W38712  25.828   3.139  13.847
67042W        W38713  35.372  20.204   4.502
67043W        W38714  18.400  26.561   4.520
67044W        W38715  24.093  40.261  13.361
67045W        W38716  37.448  35.618   2.677
67046W        W38717   7.429  13.919  12.349
67047W        W38718  21.083  21.885   0.277
67048W        W38719  41.475  21.009   3.732
67049W        W38720   0.378   3.325  12.023
67050W        W38721  42.062   9.641  11.119
67051W        W38722  24.947  38.504  12.512
67052W        W38723   9.244  43.275   3.987
67053W        W38724  35.955  19.817  12.969
67054W        W38725  28.577   6.172   3.137
67055W        W38726  22.058   7.450  10.355
67056W        W38727  41.950  18.839  14.555
67057W        W38728  39.390  31.024  14.864
67058W        W38729  26.733  35.378   3.675
67059W        W38730  36.383  19.102  10.638
67060W        W38731  44.560  41.805  11.626
67061W        W38732  26.993  18.855   1.813
67062W        W38733   2.882  32.652   3.420
67063W        W38734  40.822  18.051  14.009
67064W        W38735   6.839  15.055  11.560
67065W        W38736   9.799  37.886  14.634
67066W        W38737  37.071  13.858  11.623
67067W        W38738   3.973  25.705   1.752
67068W        W38739   0.304  42.922   3.940
67069W        W38740   5.957   0.510  12.415
67070W        W38741  31.670  41.186  14.755
67071W        W38742  44.905  11.790  10.735
67072W        W38743  43.452   5.410  10.698
67073W        W38744  37.334   6.779   0.207
67074W        W38745  10.572   5.876   3.765
67075W        W38746  25.559   6.652  10.763
67076W        W38747  17.763  19.287   4.949
67077W        W38748  11.174   2.942   0.763
67078W        W38749  22.589  29.580   0.756
67079W        W38750   5.796  35.843   1.312
67080W        W38751  36.276  14.018   0.744
67081W        W38752  22.120  10.416  14.462
67082W        W38753  28.915   6.344  13.290
67083W        W38754  19.065  32.002   4.714
67084W        W38755  25.708   3.213  10.753
67085W        W38756  38.163   1.954   1.729
67086W        W38757  23.042  30.614  12.383
67087W        W38758  30.666  11.754  14.794
67088W        W38759  14.601  37.488  13.038
67089W        W38760  36.099  18.988  12.381
67090W        W38761  26.994  21.066   2.817
67091W        W38762   3.646   6.415  13.276
67092W        W38763  44.772  33.562  14.520
67093W        W38764  39.318   1.689   2.874
67094W        W38765   3.667  38.002   3.201
67095W        W38766  42.815   9.679  13.984
67096W        W38767  28.339  31.867   0.818
67097W        W38768  13.631  30.247   0.731
67098W        W38769   9.889   5.839  14.291
67099W        W38770  11.070  24.620   2.881
67100W        W38771  44.395  16.287   1.238
67101W        W38772  18.105  11.201   1.372
67102W        W38773  10.285  36.631   4.619
67103W        W38774  12.589  23.073   2.441
67104W        W38775  33.043  37.903   4.858
67105W        W38776  10.396  28.967  12.390
67106W        W38777  11.441  17.776  13.416
67107W        W38778  14.304  33.595   2.044
67108W        W38779  37.654  32.800   4.193
67109W        W38780   5.730  31.910  12.939
67110W        W38781  18.750  23.795   4.414
67111W        W38782   3.286   1.288   1.799
67112W        W38783  32.122  30.928   1.015
67113W        W38784  33.327   7.826   3.162
67114W        W38785  14.996   9.678   3.054
67115W        W38786  42.660  18.098   0.953
67116W        W38787   9.394   4.438   4.551
67117W        W38788  26.992  33.164  10.932
67118W        W38789  22.912   2.630   1.071
67119W        W38790   4.467  36.967  13.733
67120W        W38791  27.250  15.772   2.339
67121W        W38792  13.629  31.458   3.338
67122W        W38793  22.080  43.087  11.992
67123W        W38794  37.504  25.642   2.974
67124W        W38795  10.102  36.567  11.796
67125W        W38796  31.614  36.400   1.671
67126W        W38797  14.234  15.062   0.490
67127W        W38798  19.348  24.353  10.706
67128W        W38799  37.024  27.301  11.079
67129W        W38800  36.856  28.462  12.668
67130W        W38801  31.917  18.294   0.308
67131W        W38802  29.587  19.005  14.788
67132W        W38803  25.977  22.563   3.568
67133W        W38804   1.679  29.110  12.027
67134W        W38805  34.965   8.094  14.425
67135W        W38806   5.900  26.812  13.165
67136W        W38807  16.851  15.973  14.828
67137W        W38808  33.911  43.447   1.085
67138W        W38809  38.885  31.695  11.217
67139W        W38810  41.888  38.445  12.613
67140W        W38811   4.270  23.918   0.972
67141W        W38812  17.548   9.183  12.828
67142W        W38813  28.258  43.269   1.168
67143W        W38814  29.354  30.135  13.859
67144W        W38815  34.486  33.627   1.882
67145W        W38816  42.797  41.822   2.261
67146W        W38817  11.786  29.247   2.753
67147W        W38818  38.846  23.167  12.161
67148W        W38819   8.459  32.226  12.596
67149W        W38820  43.880  41.547   1.630
67150W        W38821  23.089  40.987   0.264
67151W        W38822  16.429  36.124  10.839
67152W        W38823  28.110   5.941  14.881
67153W        W38824  26.597  15.241  11.561
67154W        W38825  25.778  37.554  14.838
67155W        W38826  16.804  43.393   0.919
67156W        W38827  28.065  15.788   2.704
67157W        W38828  33.845  30.883  14.430
67158W        W38829  29.630  41.370   4.087
67159W        W38830   8.191  13.812  14.840
67160W        W38831   0.680   6.116  11.319
67161W        W38832   8.666  15.694  10.737
67162W        W38833   4.907  17.069   4.519
67163W        W38834  11.672  13.850  13.680
67164W        W38835  43.575  40.607  10.969
67165W        W38836   7.916  32.591  10.599
67166W        W38837   6.659  33.031  14.201
67167W        W38838  22.109   6.924   2.798
67168W        W38839  39.485  39.852  14.749
67169W        W38840  12.812   5.896   4.548
67170W        W38841  15.661  33.954  13.444
67171W        W38842  16.112  30.674   0.244
67172W        W38843  10.211  26.517   5.032
67173W        W38844  37.082  21.662   2.828
67174W        W38845  37.463  32.685   2.402
67175W        W38846  41.847  10.712  10.397
67176W        W38847  37.433   1.457   2.103
67177W        W38848   6.975  29.944  13.454
67178W        W38849  26.058   2.689  13.918
67179W        W38850  16.029  19.537  12.033
67180W        W38851   0.298  23.445   4.615
67181W        W38852   9.860  18.436   4.411
67182W        W38853  38.361  29.457   2.884
67183W        W38854  32.762  27.263  14.974
67184W        W38855  10.218   0.001   0.466
67185W        W38856  29.193   9.328   2.836
67186W        W38857  13.715  43.537  12.072
67187W        W38858  26.786  22.491  12.429
67188W        W38859  27.212  27.079   0.059
67189W        W38860  33.466  16.842   0.294
67190W        W38861  19.457  44.835   2.893
67191W        W38862  18.570  40.413   0.950
67192W        W38863   3.511  34.901   0.687
67193W        W38864  17.751  29.069   4.766
67194W        W38865   8.549  11.389   4.117
67195W        W38866  43.458  25.752   4.599
67196W        W38867   9.101  30.068  11.655
67197W        W38868  36.292  22.025  11.173
67198W        W38869  43.858   7.838  13.176
67199W        W38870  28.197  33.981   1.544
67200W        W38871   5.809  19.440   3.970
67201W        W38872  37.892  26.807  12.913
67202W        W38873  11.888  18.318   2.458
67203W        W38874  31.445  20.660  14.778
67204W        W38875  25.212   6.953   3.115
67205W        W38876  17.237  32.603  14.887
67206W        W38877  18.829  29.678  12.982
67207W        W38878   6.225  39.924   2.318
67208W        W38879  14.221  25.926  14.027
67209W        W38880  44.096  18.313   1.450
67210W        W38881  30.518  12.072  14.375
67211W        W38882   6.812  18.360  12.425
67212W        W38883  10.068  40.625  12.935
67213W        W38884  33.898  16.779   0.939
67214W        W38885  18.051   4.788   3.292
67215W        W38886  11.349  14.797   2.670
67216W        W38887   4.744   9.530   0.278
67217W        W38888  11.580  40.533  14.856
67218W        W38889   5.693  38.186   2.744
67219W        W38890  21.555  20.573   1.589
67220W        W38891  31.853  34.584   1.266
67221W        W38892  36.957  37.445   4.807
67222W        W38893   9.368  25.847   1.748
67223W        W38894   9.939  44.825  14.466
67224W        W38895  41.751  17.139   1.006
67225W        W38896  27.432   9.929  14.296
67226W        W38897  22.210  31.487   3.226
67227W        W38898  17.732  16.750   3.936
67228W        W38899  22.904   1.471  10.790
67229W        W38900  44.993   7.210  12.042
67230W        W38901  14.106  40.199  14.884
67231W        W38902  10.851   0.027  13.995
67232W        W38903  33.793   8.300  14.893
67233W        W38904   0.756  16.529   2.760
67234W        W38905   8.756   1.559   4.593
67235W        W38906  28.380  40.144  13.956
67236W        W38907  19.629  20.172   5.068
67237W        W38908  14.662  29.119   4.976
67238W        W38909  26.093  33.908  14.285
67239W        W38910  28.543   4.394  14.471
67240W        W38911  22.229   7.170  14.793
67241W        W38912  13.569  35.283   4.403
67242W        W38913  35.497  37.739   3.137
67243W        W38914  14.607   9.968  11.590
67244W        W38915   8.765   6.171  11.957
67245W        W38916   5.798   7.688  13.929
67246W        W38917  36.287  31.287  11.653
67247W        W38918  24.233   6.781   3.350
67248W        W38919  35.391  17.223   4.539
67249W        W38920  31.464  20.344  10.927
67250W        W38921  31.634  29.199   0.504
67251W        W38922  17.291  18.153   1.679
67252W        W38923   1.739  25.999  10.950
67253W        W38924   8.605   1.431  14.021
67254W        W38925  42.216  25.943  13.109
67255W        W38926   2.410  38.979   2.231
67256W        W38927   8.427  22.532   2.886
67257W        W38928  18.894  21.129  14.593
67258W        W38929   6.425  31.513  10.582
67259W        W38930  14.342  36.941  13.550
67260W        W38931  27.337   4.423   4.659
67261W        W38932  20.562  15.097  14.005
67262W        W38933  20.244  12.750   2.364
67263W        W38934  44.846  26.873   0.008
67264W        W38935   4.166  23.334  11.546
67265W        W38936  20.496  37.028   0.600
67266W        W38937  24.931   7.711   2.694
67267W        W38938  43.016   0.486  14.866
67268W        W38939  32.341  10.042   2.174
67269W        W38940  19.326   5.505  12.817
67270W        W38941  33.584  34.503   1.651
67271W        W38942  18.587  28.482  10.554
67272W        W38943   8.800  36.962  10.894
67273W        W38944  20.428  38.955   4.201
67274W        W38945  30.440  16.309  11.941
67275W        W38946  18.375  36.352  13.389
67276W        W38947   9.239  38.789   1.229
67277W        W38948  30.948  13.798   0.399
67278W        W38949  29.608  44.833  13.805
67279W        W38950  43.684   2.782   3.237
67280W        W38951  16.230  22.285  14.019
67281W        W38952  25.725   0.771  12.416
67282W        W38953   1.284  19.342  11.088
67283W        W38954  34.482  10.652  14.770
67284W        W38955  26.047  32.938  12.782
67285W        W38956   7.542  38.691   1.372
67286W        W38957  28.904  42.872   4.277
67287W        W38958  25.699  27.204  11.001
67288W        W38959  44.443  39.962   2.754
67289W        W38960  13.478  17.156   3.176
67290W        W38961  40.955  10.805  14.398
67291W        W38962   3.935   5.736   3.267
67292W        W38963   9.353  29.153  14.362
67293W        W38964   6.023   0.321   3.213
67294W        W38965  37.549  31.451  11.968
67295W        W38966  40.601  42.156  13.002
67296W        W38967  37.151  32.573   3.720
67297W        W38968  30.885  24.399   4.351
67298W        W38969  42.323  41.156   5.085
67299W        W38970   1.484  34.287  13.348
67300W        W38971  12.825   2.046   2.214
67301W        W38972  38.826  33.229   2.906
67302W        W38973  31.884  30.689   3.398
67303W        W38974  21.140  17.749  13.998
67304W        W38975  35.080  31.786   4.588
67305W        W38976  39.261  36.402   2.787
67306W        W38977  10.404  42.031  11.596
67307W        W38978  44.012  16.751   3.278
67308W        W38979   3.504   1.074  12.184
67309W        W38980  19.781  36.979   1.811
67310W        W38981  38.831  37.903   0.771
67311W        W38982  15.067  19.669  12.241
67312W        W38983   8.883  27.408   2.611
67313W        W38984   8.934  17.209  14.024
67314W        W38985  24.928  36.405   1.442
67315W        W38986  33.367  16.378  11.124
67316W        W38987   0.954  13.389   0.424
67317W        W38988  28.107  32.929  13.117
67318W        W38989  39.394  18.095   2.378
67319W        W38990  37.352  12.915   0.940
67320W        W38991  40.616  24.723   4.487
67321W        W38992   2.690  38.220   4.043
67322W        W38993  29.882  21.223  10.547
67323W        W38994  25.929  43.869   3.672
67324W        W38995   0.938  18.224   1.151
67325W        W38996  12.806   1.033   0.525
67326W        W38997  22.309  42.956  14.554
67327W        W38998  25.081  38.881   4.345
67328W        W38999  17.750   1.248   3.466
67329W        W39000  12.246   1.713   0.831
67330W        W39001  34.900   9.283   3.094
67331W        W39002  29.707   8.314  10.536
67332W        W39003  15.204   4.431  14.003
67333W        W39004  15.688  15.654   0.501
67334W        W39005   8.680  41.011  11.158
67335W        W39006  19.270  21.858  12.610
67336W        W39007  22.145   6.697   4.412
67337W        W39008  35.430  18.662  11.252
67338W        W39009  17.241   5.470  10.033
67339W        W39010   5.182  33.993  11.253
67340W        W39011  19.853  12.753   2.750
67341W        W39012   3.919  29.087  14.271
67342W        W39013   2.225  30.991  13.390
67343W        W39014  21.287   6.309   0.410
67344W        W39015  20.055  18.115  13.294
67345W        W39016   6.893   0.164   3.136
67346W        W39017   0.502  42.217   4.191
67347W        W39018  32.587  40.493   1.637
67348W        W39019  30.358   8.022  12.428
67349W        W39020  25.714  12.065   3.796
67350W        W39021   6.905  26.540   4.162
67351W        W39022  30.138  19.557   0.292
67352W        W39023  33.394  44.620   3.736
67353W        W39024  40.760  38.832   2.632
67354W        W39025   0.172  34.108   3.143
67355W        W39026   3.683  26.624   3.786
67356W        W39027  36.130  10.582   1.992
67357W        W39028  14.082   6.279  11.060
67358W        W39029  36.925  35.569  14.056
67359W        W39030  17.084  33.422   1.503
67360W        W39031  27.871  19.211  14.864
67361W        W39032   6.066  33.137  13.479
67362W        W39033  38.541   8.244   2.791
67363W        W39034  38.814  30.443   3.322
67364W        W39035  25.751  32.711  11.911
67365W        W39036   7.726  28.410   1.664
67366W        W39037  22.957  32.595   3.126
67367W        W39038  11.165  19.800  10.677
67368W        W39039  13.833  29.834   3.674
67369W        W39040  38.977  43.728  13.359
67370W        W39041  13.083   4.755  12.126
67371W        W39042  35.174  19.455   9.959
67372W        W39043  43.420   2.381  12.086
67373W        W39044  40.238  26.710  10.209
67374W        W39045   2.232  20.193  11.520
67375W        W39046  23.006  41.530   3.817
67376W        W39047  32.423   9.762  14.015
67377W        W39048  23.573  30.682  14.019
67378W        W39049  43.545  38.335  11.501
67379W        W39050  30.961  24.937  11.107
67380W        W39051  23.148  19.627   1.763
67381W        W39052  40.403  33.652  13.935
67382W        W39053  15.100  26.345  13.453
67383W        W39054   2.009  17.833   4.516
67384W        W39055  23.435  42.890   4.148
67385W        W39056  36.161  35.379   0.441
67386W        W39057  32.960   9.279   3.264
67387W        W39058  24.051  32.217  12.035
67388W        W39059   4.490  19.084   5.040
67389W        W39060  43.136  24.744   3.233
67390W        W39061  42.808  38.025  11.923
67391W        W39062  19.294  17.811   4.130
67392W        W39063   4.815  21.255   4.116
67393W        W39064  24.669  24.992  11.866
67394W        W39065   7.364   5.501  12.877
67395W        W39066  29.873  28.940  10.432
67396W        W39067  28.525  38.393   3.135
67397W        W39068   1.733  33.372   4.688
67398W        W39069  19.596  23.298  10.673
67399W        W39070   8.121  34.086  11.231
67400W        W39071  41.023   8.397   4.748
67401W        W39072  14.908  17.047  14.313
67402W        W39073  42.960  34.093  11.113
67403W        W39074   1.225  14.787  13.578
67404W        W39075  41.463  15.505  14.293
67405W        W39076  23.683  27.070  14.883
67406W        W39077   9.292  24.098  11.215
67407W        W39078  33.794   2.659   4.201
67408W        W39079  16.089  37.843  10.370
67409W        W39080  41.414  39.515   2.697
67410W        W39081   0.436  30.483   0.874
67411W        W39082  16.097   5.764  14.557
67412W        W39083  43.705  44.176   2.610
67413W        W39084  19.851  29.262   1.799
67414W        W39085  12.215   3.330   1.309
67415W        W39086   7.072  44.260  10.811
67416W        W39087   8.736  29.231  13.146
67417W        W39088   9.078   5.915  11.644
67418W        W39089   6.598  17.191  13.507
67419W        W39090  16.125   3.318  13.961
67420W        W39091  44.814   0.915  11.599
67421W        W39092  33.430  34.838  12.099
67422W        W39093  19.120  10.492  12.001
67423W        W39094  33.963  35.515  13.523
67424W        W39095  36.013  32.585  11.126
67425W        W39096  16.235  14.730   0.543
67426W        W39097  18.327   3.327   1.451
67427W        W39098  20.889  22.176   1.371
67428W        W39099  31.260   1.133   4.800
67429W        W39100  38.084  10.780  12.538
67430W        W39101   6.849  14.048   0.957
67431W        W39102  10.281   7.505  12.622
67432W        W39103  30.632  33.107   2.292
67433W        W39104   6.311   7.344  14.998
67434W        W39105  39.330  38.649   4.171
67435W        W39106  16.261  14.634  11.860
67436W        W39107  28.732  20.129  12.060
67437W        W39108   1.553  39.415  14.007
67438W        W39109  20.075   8.809   1.170
67439W        W39110   6.477   3.915   3.658
67440W        W39111  42.121   7.555  11.472
67441W        W39112   6.959  29.441  13.016
67442W        W39113   1.177  20.021   3.224
67443W        W39114  13.160   7.668  14.372
67444W        W39115  14.280  37.435  12.639
67445W        W39116  40.115  18.317   0.792
67446W        W39117  33.172  24.944   0.337
67447W        W39118  42.517  22.018  14.577
67448W        W39119  22.038  40.518  11.931
67449W        W39120   8.001   2.461  11.664
67450W        W39121  40.064  44.699  14.544
67451W        W39122  43.597  30.558  10.977
67452W        W39123   3.726  44.269  12.992
67453W        W39124  29.649   3.459   2.896
67454W        W39125  11.148  19.260  12.925
67455W        W39126   7.949   1.496   4.854
67456W        W39127  22.626   9.642  13.398
67457W        W39128  13.644  13.099   1.894
67458W        W39129  17.763   2.782   0.330
67459W        W39130  28.620  28.474   0.440
67460W        W39131  40.954   6.258   0.864
67461W        W39132  28.141  37.012  12.929
67462W        W39133  40.892   6.644  10.713
67463W        W39134   1.796  29.816   2.834
67464W        W39135  20.141   0.538  14.887
67465W        W39136   4.299  41.565   3.262
67466W        W39137  12.396  38.823  14.856
67467W        W39138  10.241  29.350   5.004
67468W        W39139   9.295  44.302   1.481
67469W        W39140  37.797  35.144   4.248
67470W        W39141   2.762   7.289   2.740
67471W        W39142  15.551  11.814  11.874
67472W        W39143   8.600  41.557   3.780
67473W        W39144  13.906  21.325   2.763
67474W        W39145  36.168   9.199   0.772
67475W        W39146  24.936   4.938  14.881
67476W        W39147  21.537  40.604  13.701
67477W        W39148  24.222   4.865   1.241
67478W        W39149  24.051  23.100  11.072
67479W        W39150  13.202  30.033   1.638
67480W        W39151  13.409   2.008   3.007
67481W        W39152  18.554  37.051  11.222
67482W        W39153  44.940  13.283  10.000
67483W        W39154   2.535  34.066   2.905
67484W        W39155   1.974  28.382  14.470
67485W        W39156  35.122  10.679   1.852
67486W        W39157  16.023   8.376  11.681
67487W        W39158   2.200  35.874   2.338
67488W        W39159  10.166   7.826   4.193
67489W        W39160  17.151  11.911  11.146
67490W        W39161   8.273   1.061  14.442
67491W        W39162   8.228  22.443   1.648
67492W        W39163  25.163  11.824  14.245
67493W        W39164  27.554  28.764  14.645
67494W        W39165  24.643  41.659   0.772
67495W        W39166  37.010  39.872  13.084
67496W        W39167  22.009  39.429  11.953
67497W        W39168  19.335  35.359   2.727
67498W        W39169  13.738   2.967  14.020
67499W        W39170  27.204  13.711   0.262
67500W        W39171  33.374  15.224  14.983
67501W        W39172  39.477  25.714   1.036
67502W        W39173   8.201  30.052   4.624
67503W        W39174  40.071  16.135   1.738
67504W        W39175  39.086  12.784  11.148
67505W        W39176   1.038  33.952  13.317
67506W        W39177  17.041  17.241   1.757
67507W        W39178  12.882  30.689  12.005
67508W        W39179  26.185   2.220  12.521
67509W        W39180  14.528  21.256   1.310
67510W        W39181  40.620   2.645   4.290
67511W        W39182  10.587  35.730  13.820
67512W        W39183  19.601   4.204  12.010
67513W        W39184  39.443  41.117   3.693
67514W        W39185  41.399   0.349  14.057
67515W        W39186  28.472  43.286  12.822
67516W        W39187  38.976  33.746   3.599
67517W        W39188  19.089  23.839  14.838
67518W        W39189  17.278   0.381   3.712
67519W        W39190  25.858  16.353   1.971
67520W        W39191  23.625  24.789   0.485
67521W        W39192  27.962  34.133  12.562
67522W        W39193   9.832  28.669  12.943
67523W        W39194  16.620   8.905  13.849
67524W        W39195   6.951  39.060   3.719
67525W        W39196   7.646  15.142  14.949
67526W        W39197  32.949  20.960  14.880
67527W        W39198  42.258   7.729  14.866
67528W        W39199   0.952  22.267   1.458
67529W        W39200  43.268  22.663  11.179
67530W        W39201   4.701  27.930  13.458
67531W        W39202  19.207  11.649   1.901
67532W        W39203   5.433  12.099   2.825
67533W        W39204  38.131  23.557  14.261
67534W        W39205  30.410  29.433   1.337
67535W        W39206  42.777  14.590   1.660
67536W        W39207  35.166  24.643   0.299
67537W        W39208  44.934  13.693   4.274
67538W        W39209   3.340  12.037   0.360
67539W        W39210  33.855  16.475  12.908
67540W        W39211   6.116  20.409   0.710
67541W        W39212  36.842  37.676  12.287
67542W        W39213  25.508  19.024  13.807
67543W        W39214  24.444  23.321   3.214
67544W        W39215  25.171  16.486  14.529
67545W        W39216   6.283   4.893  12.580
67546W        W39217   9.875   1.690  13.431
67547W        W39218  28.758  35.189   1.914
67548W        W39219  29.405   6.806  12.584
67549W        W39220  27.268  19.947   0.435
67550W        W39221  42.442   5.956   0.430
67551W        W39222  37.023  10.790   4.418
67552W        W39223  40.410  18.748   0.651
67553W        W39224  20.097  25.599   3.739
67554W        W39225  20.318  37.006   2.634
67555W        W39226   8.419  33.661  12.692
67556W        W39227  35.098  42.125   0.679
67557W        W39228  14.045  23.717  10.952
67558W        W39229  28.606  43.911   0.045
67559W        W39230  29.022  30.552   0.776
67560W        W39231  11.988   9.200  14.492
67561W        W39232   2.656  29.041   3.133
67562W        W39233  31.355  34.638   0.368
67563W        W39234  15.186  37.424   1.319
67564W        W39235   3.128   1.167   3.745
67565W        W39236  28.423  19.234   4.799
67566W        W39237   5.479  19.588   4.368
67567W        W39238  40.222  26.014  13.509
67568W        W39239  30.485   7.510   0.746
67569W        W39240  19.059  29.530  10.763
67570W        W39241  20.483  39.980  10.636
67571W        W39242  38.834  12.132  11.888
67572W        W39243  20.686  19.680  12.090
67573W        W39244  13.250  14.743  10.442
67574W        W39245  40.000   5.340   3.777
67575W        W39246  40.258   2.468   2.236
67576W        W39247  18.735  19.968  12.564
67577W        W39248  44.798   0.402  10.715
67578W        W39249   9.170  17.706   0.742
67579W        W39250  31.382   8.568  11.030
67580W        W39251   3.181  31.134   0.581
67581W        W39252  15.234   1.421  12.989
67582W        W39253  16.267   6.820  12.796
67583W        W39254  34.394  34.511  11.933
67584W        W39255  13.289  41.341   4.191
67585W        W39256   8.214  31.112  10.568
67586W        W39257  34.739  34.597   3.448
67587W        W39258  12.091  29.999   3.401
67588W        W39259   9.609   2.954  11.079
67589W        W39260  39.312   4.342  14.753
67590W        W39261  25.582  24.683  13.100
67591W        W39262   9.894  36.810   0.483
67592W        W39263  43.520  24.234   1.880
67593W        W39264  28.842  12.246  13.870
67594W        W39265   3.477  23.386  13.899
67595W        W39266  36.610  39.975   2.914
67596W        W39267  43.446   9.073  14.330
67597W        W39268  15.355  41.784   0.411
67598W        W39269  17.181  16.136  12.684
67599W        W39270  19.989  28.751   5.148
67600W        W39271  22.794  25.625  12.022
67601W        W39272   9.186  13.878   1.718
67602W        W39273  37.591  15.641   3.400
67603W        W39274   0.471  21.304   3.515
67604W        W39275  19.306   0.753  13.049
67605W        W39276  43.099  20.759  10.228
67606W        W39277  38.082  43.735  11.600
67607W        W39278   3.792  18.983   0.907
67608W        W39279  18.717  14.773  11.158
67609W        W39280  19.259   9.570   0.837
67610W        W39281  24.773  28.427   1.317
67611W        W39282  18.171   3.225   0.021
67612W        W39283   9.632  28.536   3.084
67613W        W39284  23.072   0.440  14.865
67614W        W39285  14.658  29.063  13.980
67615W        W39286  37.752  14.275  12.298
67616W        W39287  29.641  35.612   2.497
67617W        W39288  36.788  14.130   1.374
67618W        W39289  29.872  40.999   0.656
67619W        W39290   4.464  27.356   1.619
67620W        W39291  21.854  35.151   3.917
67621W        W39292   9.920  31.436  12.041
67622W        W39293  19.161  23.709   5.556
67623W        W39294   2.266  16.586   1.906
67624W        W39295   3.498  24.199  12.544
67625W        W39296  12.886  23.472  13.530
67626W        W39297  29.943  44.386  14.395
67627W        W39298   1.923   3.416  13.084
67628W        W39299  10.879   8.938   4.470
67629W        W39300  10.903  17.533  11.948
67630W        W39301   4.766  30.661  10.945
67631W        W39302  39.830   4.290  14.792
67632W        W39303  34.838  26.550  14.430
67633W        W39304  43.502  15.491   4.176
67634W        W39305   9.303  40.065  12.140
67635W        W39306  31.624  33.330  14.926
67636W        W39307   4.862  10.662  13.349
67637W        W39308  34.101  40.540  12.340
67638W        W39309  27.331  27.240   0.531
67639W        W39310  21.614   3.416   2.834
67640W        W39311   4.168  42.938   3.996
67641W        W39312  26.917   4.222  13.772
67642W        W39313   1.445  13.172   3.158
67643W        W39314  18.964  12.614  11.998
67644W        W39315  30.024  37.962  14.970
67645W        W39316   1.011  30.537  11.676
67646W        W39317  14.710   9.884  13.848
67647W        W39318  30.659  21.152  14.950
67648W        W39319  42.218  31.228  14.102
67649W        W39320  41.043  25.972   0.902
67650W        W39321  44.544  38.975  13.953
67651W        W39322  41.890  28.927   0.447
67652W        W39323  21.132   2.767   4.935
67653W        W39324  15.668   7.391   9.731
67654W        W39325  39.753   0.965  12.866
67655W        W39326   2.414  29.605   4.296
67656W        W39327  31.533  16.213   4.230
67657W        W39328  39.385  20.282   2.782
67658W        W39329  23.028   7.184  12.375
67659W        W39330   4.368   6.773  13.773
67660W        W39331  27.650  33.183   4.293
67661W        W39332  43.783  40.878   5.028
67662W        W39333  41.805  24.170   0.693
67663W        W39334   5.301   2.795  11.030
67664W        W39335  37.831  32.839   0.296
67665W        W39336  43.345  17.535   0.033
67666W        W39337  11.656  17.596  14.790
67667W        W39338   4.173  36.605  12.971
67668W        W39339   3.341  18.133  12.388
67669W        W39340  28.057   8.224   0.426
67670W        W39341  30.490  41.535   4.239
67671W        W39342  33.867  37.122   0.779
67672W        W39343  16.271  11.058  13.894
67673W        W39344  25.114   3.950  12.102
67674W        W39345  15.268  33.114   4.340
67675W        W39346  42.697  11.215   5.316
67676W        W39347   4.376   9.264   1.840
67677W        W39348  34.621  25.569   1.479
67678W        W39349  42.423  15.836   1.886
67679W        W39350  16.672  25.664  12.033
67680W        W39351   3.128  40.317   4.486
67681W        W39352  32.466  32.312   0.309
67682W        W39353  16.792   1.247  10.699
67683W        W39354  12.169   8.250  12.535
67684W        W39355  28.149  20.996   1.750
67685W        W39356  44.766  10.860   5.153
67686W        W39357  28.880  15.750   3.246
67687W        W39358   5.459  16.790   2.350
67688W        W39359   9.161   5.566  13.460
67689W        W39360  10.817  35.481  14.246
67690W        W39361  25.938  32.153   2.413
67691W        W39362  33.839   0.448   0.377
67692W        W39363  24.583  24.913  11.379
67693W        W39364  17.182  36.888  10.562
67694W        W39365   5.641   5.798   4.146
67695W        W39366  33.171  26.732  14.985
67696W        W39367  37.553  32.035  12.813
67697W        W39368   3.783  43.624   2.196
67698W        W39369  19.816  43.269   0.397
67699W        W39370  19.686   9.682  10.684
67700W        W39371  28.453  24.215   3.256
67701W        W39372  14.616  27.479  14.035
67702W        W39373  23.725  24.995  14.144
67703W        W39374   0.316  33.901   2.685
67704W        W39375  27.994   5.803   1.945
67705W        W39376  44.263  33.806   5.127
67706W        W39377  40.355   7.771  14.972
67707W        W39378  22.084   1.791  14.459
67708W        W39379  23.443  41.594   5.139
67709W        W39380  14.311   7.929   4.537
67710W        W39381  38.885   9.627   2.712
67711W        W39382  13.439  34.112  11.909
67712W        W39383  29.994  34.545  10.772
67713W        W39384  30.968  41.240  11.246
67714W        W39385  36.115  39.119  10.041
67715W        W39386  15.052  37.581   3.717
67716W        W39387  18.809  25.121   2.719
67717W        W39388  24.372   3.940   1.224
67718W        W39389  30.968   4.325  12.684
67719W        W39390  25.524  31.443  13.432
67720W        W39391  13.527   3.708  11.787
67721W        W39392   1.756   8.303   2.809
67722W        W39393  12.491   0.850   0.895
67723W        W39394  40.259  35.429  11.386
67724W        W39395  10.306  18.234   4.239
67725W        W39396  21.529  20.756   2.080
67726W        W39397  18.220  33.963  12.091
67727W        W39398  22.952  41.218  10.299
67728W        W39399  32.409  24.674  13.781
67729W        W39400  40.808  25.584   3.689
67730W        W39401  12.338   5.690  13.571
67731W        W39402  10.313  41.832   3.153
67732W        W39403  26.513  20.459   2.396
67733W        W39404  24.067   5.187  12.965
67734W        W39405  30.044  28.154   4.310
67735W        W39406  23.188   4.851  14.398
67736W        W39407  27.552  18.554   4.667
67737W        W39408  40.920  30.129  14.696
67738W        W39409  28.619  37.561   4.062
67739W        W39410  23.292  26.590  11.225
67740W        W39411  39.795   7.019   4.433
67741W        W39412  22.105   6.675   0.896
67742W        W39413  33.718  38.092   5.057
67743W        W39414  20.834  13.624   0.957
67744W        W39415  32.856  20.125  13.805
67745W        W39416  19.592  25.674   9.926
67746W        W39417  18.168  26.176   1.232
67747W        W39418  42.316  10.598   0.649
67748W        W39419  26.558  23.865   0.900
67749W        W39420   5.478  44.506  12.427
67750W        W39421  34.375  44.086   0.414
67751W        W39422  26.316   5.306   1.423
67752W        W39423  19.883  18.292  12.283
67753W        W39424   4.940  11.338   0.696
67754W        W39425  10.713  22.198  14.334
67755W        W39426   3.743   3.704   4.756
67756W        W39427  35.835  10.653  12.993
67757W        W39428  29.858   6.679   2.148
67758W        W39429  36.548  13.578  13.591
67759W        W39430  11.818  27.031  10.527
67760W        W39431  15.986  22.094  13.599
67761W        W39432   2.232   3.239  10.790
67762W        W39433  10.259  21.690  13.857
67763W        W39434  11.174   3.510   0.497
67764W        W39435   4.867  38.910   1.708
67765W        W39436  17.130  42.818   1.820
67766W        W39437  18.724  38.338  14.391
67767W        W39438   0.369  32.668  12.624
67768W        W39439  15.682   2.985  13.842
67769W        W39440  29.493   5.675   0.461
67770W        W39441  12.085  24.181  12.427
67771W        W39442  11.149  23.733  10.605
67772W        W39443  13.518  37.499   3.697
67773W        W39444  30.874  18.555  13.916
67774W        W39445  13.060  44.071   0.533
67775W        W39446  12.249  27.140  13.273
67776W        W39447  24.959  19.718   4.358
67777W        W39448  16.771   0.285   4.916
67778W        W39449  11.991  32.150  10.108
67779W        W39450  12.327  10.815  12.729
67780W        W39451  34.640  29.492  12.916
67781W        W39452  26.108  17.696   4.625
67782W        W39453  17.777   5.865  12.394
67783W        W39454  22.236   0.446  10.613
67784W        W39455  13.821  29.572   0.422
67785W        W39456  18.756   9.181  10.777
67786W        W39457  18.294   9.842  14.345
67787W        W39458   0.929  14.220   2.692
67788W        W39459  34.855  42.954   0.343
67789W        W39460  25.617  15.989   4.432
67790W        W39461  44.836  42.355  14.934
67791W        W39462  36.001  15.852   4.138
67792W        W39463  18.414   9.535  12.189
67793W        W39464  10.366  19.124  14.246
67794W        W39465  41.268  18.062  11.975
67795W        W39466  12.288  39.688  12.235
67796W        W39467  40.494  29.112   1.456
67797W        W39468  17.755  38.304  12.501
67798W        W39469  26.104  13.388   2.708
67799W        W39470  31.048  33.851   4.594
67800W        W39471   0.889  20.019   3.640
67801W        W39472  10.344  34.003   3.839
67802W        W39473  44.016  16.994  12.010
67803W        W39474  28.946  22.235   4.276
67804W        W39475  12.694  44.860  12.544
67805W        W39476  30.602  40.039   1.152
67806W        W39477  44.340  39.058  11.029
67807W        W39478  17.621  40.981   4.324
67808W        W39479  23.443  22.152  13.947
67809W        W39480   3.788   9.913   1.722
67810W        W39481  41.882  32.204  14.709
67811W        W39482   0.983   8.479   1.752
67812W        W39483  19.279  32.216   1.818
67813W        W39484  14.857  33.423  11.297
67814W        W39485  25.708   2.706  13.489
67815W        W39486  42.881  12.871  11.526
67816W        W39487  23.630  32.865   2.386
67817W        W39488  28.420  13.597   2.409
67818W        W39489  11.810  37.115   1.354
67819W        W39490  39.585  35.257  14.486
67820W        W39491  40.874  22.433  14.853
67821W        W39492  30.636  28.630   2.206
67822W        W39493  16.988  32.490   2.676
67823W        W39494  40.517   4.964  14.304
67824W        W39495   1.034   7.655   0.778
67825W        W39496  16.727  12.345  10.742
67826W        W39497  18.904   1.918   3.643
67827W        W39498   4.651   2.834  11.641
67828W        W39499  33.028  28.236   4.482
67829W        W39500  15.135  40.310  12.868
67830W        W39501  14.177  20.995  14.952
67831W        W39502   1.648  39.825  10.827
67832W        W39503  17.692  32.157   2.386
67833W        W39504  34.467  17.782   0.004
67834W        W39505  36.403  17.127  14.489
67835W        W39506  42.828  42.053   3.134
67836W        W39507  36.871  33.018   3.710
67837W        W39508   9.893  20.559   4.205
67838W        W39509  43.274  42.960  12.033
67839W        W39510   7.883  17.506  10.683
67840W        W39511  21.721  14.098  12.147
67841W        W39512  16.769  14.783  12.026
67842W        W39513  29.214  36.202  11.177
67843W        W39514  30.025  25.614   3.804
67844W        W39515  33.093  22.101   2.411
67845W        W39516  32.665   1.976   4.586
67846W        W39517   1.743  17.554   0.501
67847W        W39518  17.335  30.403  12.089
67848W        W39519  38.810  44.327  12.703
67849W        W39520  30.060  35.882  11.643
67850W        W39521   5.461  11.841   4.529
67851W        W39522  10.245  34.840   0.755
67852W        W39523   0.278  24.427  11.891
67853W        W39524   7.844  16.596   0.960
67854W        W39525  41.142  33.097   1.026
67855W        W39526   5.719  38.438  14.060
67856W        W39527  25.471  33.451  13.169
67857W        W39528  19.124   3.674   3.992
67858W        W39529  25.015  30.564  14.945
67859W        W39530  28.617  24.421  12.034
67860W        W39531  11.721  43.925  11.036
67861W        W39532  18.771  36.480   4.597
67862W        W39533   9.371  11.341  14.446
67863W        W39534  35.926  13.631   1.812
67864W        W39535  35.615  33.624   3.564
67865W        W39536  36.461  13.768  12.863
67866W        W39537  30.841  33.822  12.463
67867W        W39538  38.053   7.417   3.146
67868W        W39539  34.376  36.650   3.235
67869W        W39540   7.658  37.418  12.677
67870W        W39541  28.459  32.030  14.806
67871W        W39542  10.348  18.010   1.223
67872W        W39543  24.930   6.317   2.252
67873W        W39544  44.663  24.896   4.084
67874W        W39545   9.750   0.284   0.506
67875W        W39546  12.477  41.354  10.641
67876W        W39547  10.918  44.408  11.097
67877W        W39548  13.526  15.757   0.196
67878W        W39549   9.554  35.926   3.818
67879W        W39550   6.354  39.225   9.846
67880W        W39551  42.488  18.740   2.838
67881W        W39552  19.515  43.404  10.609
67882W        W39553  30.807  15.479  13.576
67883W        W39554  23.198  34.334   1.784
67884W        W39555   0.711  41.592   4.960
67885W        W39556  25.973  17.970  10.614
67886W        W39557  22.563   8.271  10.708
67887W        W39558  19.790  30.150   3.221
67888W        W39559   0.636  25.237  12.192
67889W        W39560   4.326  30.481  11.190
67890W        W39561  42.510  29.818   4.550
67891W        W39562  30.941  28.759   2.626
67892W        W39563   5.016  25.975  13.565
67893W        W39564  24.231  24.981  14.256
67894W        W39565  15.118  18.301   0.408
67895W        W39566  10.660  44.716   0.376
67896W        W39567  22.974   5.982  13.452
67897W        W39568  27.514   1.325  13.544
67898W        W39569   8.358  43.471   2.427
67899W        W39570  19.283  31.342  14.103
67900W        W39571  36.720  38.405   4.939
67901W        W39572  36.493  15.203   3.889
67902W        W39573  13.683  40.491   2.931
67903W        W39574  11.812  27.293   2.022
67904W        W39575  24.900  18.252   0.573
67905W        W39576  15.611  12.128  13.421
67906W        W39577   1.942  31.007  12.961
67907W        W39578  39.381  28.121   0.805
67908W        W39579   0.330  26.527   2.684
67909W        W39580  24.317   1.046   4.994
67910W        W39581  20.018  22.655   3.173
67911W        W39582  29.455  27.568   1.242
67912W        W39583  23.425   8.199   1.340
67913W        W39584  11.355  11.399   2.991
67914W        W39585   8.781  25.902   0.004
67915W        W39586  43.449  13.479  14.260
67916W        W39587  33.482  10.079  10.991
67917W        W39588   5.895  34.067  11.147
67918W        W39589  17.609  10.146  14.546
67919W        W39590  17.533   4.375   4.660
67920W        W39591  34.922  20.383   4.248
67921W        W39592  43.832  12.558   0.962
67922W        W39593   9.451  14.312   1.929
67923W        W39594  22.711  24.523  11.489
67924W        W39595   3.218  42.698   2.862
67925W        W39596  28.130   6.777   1.924
67926W        W39597  42.144  20.686   0.907
67927W        W39598  33.531  12.625  12.569
67928W        W39599  35.079  25.600  11.524
67929W        W39600  15.605  34.338   0.906
67930W        W39601  35.823  43.911   4.264
67931W        W39602  10.956  34.833  11.553
67932W        W39603  32.571  18.253  10.728
67933W        W39604   5.372  25.514   4.803
67934W        W39605  24.509  19.570  11.670
67935W        W39606  31.934  16.563  10.566
67936W        W39607  26.618  41.590  14.557
67937W        W39608  31.958  10.865   3.810
67938W        W39609  41.403  11.654   1.049
67939W        W39610  27.501  16.697   0.988
67940W        W39611   5.030  44.837   4.580
67941W        W39612   5.425  43.386  11.112
67942W        W39613   1.804  15.447  12.150
67943W        W39614  42.956   6.392   4.717
67944W        W39615  31.830  41.010   2.212
67945W        W39616  35.556   3.253   4.138
67946W        W39617  10.062  33.884   1.829
67947W        W39618  10.241  23.044   4.397
67948W        W39619  21.630  23.894  12.956
67949W        W39620  21.126   7.360  11.355
67950W        W39621  34.843  24.255  12.514
67951W        W39622  20.826  23.634  12.070
67952W        W39623  38.979  15.860  14.794
67953W        W39624   5.352  35.124   0.468
67954W        W39625  16.651  37.482   4.167
67955W        W39626  43.724  22.575  13.997
67956W        W39627  16.273   6.051   2.284
67957W        W39628  31.602  40.805  11.294
67958W        W39629  32.542  17.148   0.513
67959W        W39630  36.349   3.455   2.370
67960W        W39631   7.826  15.613  14.810
67961W        W39632   3.880  19.141  13.942
67962W        W39633  11.245  20.351   3.436
67963W        W39634  26.694  34.609   9.578
67964W        W39635   0.532  11.004  10.709
67965W        W39636   3.806  12.172  14.021
67966W        W39637  26.119   3.458   1.759
67967W        W39638  17.194  35.045  12.691
67968W        W39639  11.698  12.648   2.281
67969W        W39640  37.500  13.320  10.608
67970W        W39641  27.562  43.949   3.253
67971W        W39642  25.966   0.309  12.380
67972W        W39643  21.250  31.980   1.950
67973W        W39644   9.608  16.233  13.335
67974W        W39645   6.296  39.416   2.242
67975W        W39646  33.007  42.746  14.476
67976W        W39647  19.322  18.123   4.870
67977W        W39648  26.527  14.012   4.083
67978W        W39649  24.659  22.046   3.700
67979W        W39650  33.234  35.553  13.827
67980W        W39651  29.237  17.624  10.748
67981W        W39652  37.923  24.115   5.008
67982W        W39653  16.837  18.049  11.156
67983W        W39654  13.136   8.207   3.554
67984W        W39655  22.514  10.372  12.987
67985W        W39656  28.736  25.301   4.396
67986W        W39657  30.675  19.762  13.428
67987W        W39658   7.226  24.963  12.889
67988W        W39659  37.259  14.207  14.919
67989W        W39660  22.468  39.876  13.473
67990W        W39661  37.950  25.490  13.545
67991W        W39662  38.922  41.763  12.133
67992W        W39663  22.280   7.233   3.189
67993W        W39664  34.341   4.017  11.299
67994W        W39665  43.986  31.697   4.737
67995W        W39666  14.849  38.599   1.746
67996W        W39667  16.884   3.791   3.715
67997W        W39668   7.558  16.660  11.604
67998W        W39669  35.454  23.189   4.521
67999W        W39670  37.944  19.140  11.833
68000W        W39671  36.361   5.675  12.507
68001W        W39672  11.880   5.745   4.913
68002W        W39673  38.856  32.569  12.559
68003W        W39674  39.834  28.733  11.534
68004W        W39675  27.663  39.931  12.266
68005W        W39676   6.117  25.531   4.105
68006W        W39677  13.369   6.366  14.890
68007W        W39678  13.273  12.667  14.357
68008W        W39679   9.892   0.768   0.723
68009W        W39680  11.712  35.551   3.110
68010W        W39681   4.159  38.946  12.533
68011W        W39682  38.284   2.697   3.416
68012W        W39683  27.972  19.460  10.325
68013W        W39684  24.555  30.952  11.129
68014W        W39685   4.627   9.902  10.740
68015W        W39686  19.572  41.870   4.081
68016W        W39687  32.079  36.278  14.824
68017W        W39688  31.115   9.730  14.389
68018W        W39689   4.522  17.596   2.523
68019W        W39690  41.097  11.427   2.356
68020W        W39691  27.248  20.756   3.592
68021W        W39692  10.865   4.191   0.215
68022W        W39693  30.549   2.893   4.927
68023W        W39694   9.457  34.008  11.538
68024W        W39695   6.348  38.321   3.711
68025W        W39696   3.216  17.269   2.791
68026W        W39697   0.941  12.611  13.473
68027W        W39698   1.820  21.948   3.170
68028W        W39699  35.431  29.976  13.008
68029W        W39700   6.655  27.907  14.402
68030W        W39701   4.715  10.622  12.106
68031W        W39702  40.185  27.914  14.243
68032W        W39703  42.587  29.510   1.822
68033W        W39704  22.499  13.341   3.388
68034W        W39705  41.655  22.886  10.753
68035W        W39706  44.772  36.172  14.181
68036W        W39707  27.113  35.350  13.779
68037W        W39708  43.418   4.253   4.602
68038W        W39709  23.960  43.574  14.488
68039W        W39710   6.312  43.478  14.450
68040W        W39711  21.641  34.105  10.725
68041W        W39712  34.160  15.567  12.994
68042W        W39713  15.519  36.552   2.233
68043W        W39714  29.968  35.058  10.838
68044W        W39715   0.750   3.483  10.709
68045W        W39716  41.323  40.249  12.883
68046W        W39717  38.541   5.892  14.131
68047W        W39718   0.538  29.591  10.597
68048W        W39719   3.037   1.899  11.017
68049W        W39720  15.388  36.232   0.339
68050W        W39721  35.293  36.675  13.897
68051W        W39722  33.326  43.993  14.280
68052W        W39723  38.879  21.132   2.338
68053W        W39724  29.280  16.160  12.557
68054W        W39725   5.231  44.054  14.479
68055W        W39726   4.293  23.127   2.361
68056W        W39727   9.715  35.580  14.972
68057W        W39728  34.599  27.970   1.768
68058W        W39729  24.829  39.677  10.481
68059W        W39730  42.403  16.042   4.579
68060W        W39731   2.352  12.849   0.352
68061W        W39732  27.924   5.069   4.249
68062W        W39733  25.438  15.680  12.427
68063W        W39734   2.474  44.781  11.588
68064W        W39735  35.107  15.711  12.836
68065W        W39736  36.383   9.322   4.236
68066W        W39737  31.817   8.200   1.660
68067W        W39738  44.472  26.021  14.551
68068W        W39739   9.342   3.640   1.406
68069W        W39740  19.265   5.515  10.730
68070W        W39741   7.428  30.898   4.312
68071W        W39742  28.389  43.290  11.324
68072W        W39743  29.466   2.324  10.229
68073W        W39744  30.454  15.653   3.270
68074W        W39745  27.005   9.021  11.958
68075W        W39746  10.156  42.282  13.756
68076W        W39747  41.057  24.808   0.329
68077W        W39748   3.227  37.894   1.405
68078W        W39749  29.224  11.436  13.682
68079W        W39750  38.590  41.575  14.288
68080W        W39751  19.020  44.353  13.292
68081W        W39752  44.342  32.474   4.079
68082W        W39753  32.551  35.842   4.503
68083W        W39754  29.877  24.572   2.106
68084W        W39755  44.997  24.862   1.005
68085W        W39756   0.917  32.458  12.430
68086W        W39757  35.495  37.802   4.075
68087W        W39758  17.740   3.544  11.835
68088W        W39759  32.952   5.448   1.045
68089W        W39760  18.738   4.672   1.980
68090W        W39761  17.834   3.843  14.838
68091W        W39762  37.148   7.179  14.363
68092W        W39763  24.024  43.289  12.070
68093W        W39764  11.312  31.609  11.956
68094W        W39765  13.934  29.467  14.500
68095W        W39766  39.599  10.254   0.487
68096W        W39767  11.978  17.600   2.564
68097W        W39768  31.935  19.708   4.167
68098W        W39769   3.480  25.969  10.620
68099W        W39770  36.871  43.382  10.759
68100W        W39771   4.447  38.898  11.165
68101W        W39772  30.512  22.555   3.636
68102W        W39773  19.788  32.487   3.656
68103W        W39774   0.014   1.703   1.357
68104W        W39775  15.265  40.041  13.315
68105W        W39776   3.315  12.354  12.201
68106W        W39777  37.846  42.985   4.534
68107W        W39778  19.125   4.338   2.160
68108W        W39779   6.917   9.980  11.941
68109W        W39780   0.513   1.878   1.376
68110W        W39781  22.097  37.467  12.894
68111W        W39782  31.471  23.827  11.844
68112W        W39783  25.730  44.748   0.083
68113W        W39784   9.694  35.284   0.951
68114W        W39785  15.464   1.212  12.558
68115W        W39786  21.587   4.433   3.466
68116W        W39787  37.966  32.102  11.074
68117W        W39788  28.762   6.200  10.624
68118W        W39789  44.297  41.336  13.000
68119W        W39790  19.128  19.511  14.672
68120W        W39791  34.353  43.031   0.246
68121W        W39792  17.765  19.741   3.590
68122W        W39793  40.984  12.606   3.127
68123W        W39794  10.681  42.516  11.591
68124W        W39795  24.466  42.403  12.411
68125W        W39796  10.164   5.832  10.871
68126W        W39797  27.516  12.935  13.327
68127W        W39798  31.589  43.322   2.499
68128W        W39799  39.509  41.763   4.212
68129W        W39800  32.059  34.064  14.767
68130W        W39801   7.825  41.024  11.022
68131W        W39802  34.403  35.137  14.867
68132W        W39803  44.595  18.847  13.038
68133W        W39804  28.982  36.363  14.839
68134W        W39805   9.683   6.891   4.602
68135W        W39806  12.501  23.143  13.360
68136W        W39807  22.402  10.096  12.559
68137W        W39808  20.745   7.368   0.364
68138W        W39809   8.289   0.754  14.013
68139W        W39810   4.423  32.085   3.764
68140W        W39811  21.072  20.131   5.095
68141W        W39812   8.706  43.417  13.382
68142W        W39813  10.305  31.405   4.698
68143W        W39814   9.920  30.215   2.339
68144W        W39815  17.048   1.821   3.649
68145W        W39816  21.691  11.665  10.488
68146W        W39817  23.119  36.802  11.933
68147W        W39818   8.586   8.219   2.864
68148W        W39819  20.812   5.284  11.421
68149W        W39820   4.034   7.289   0.887
68150W        W39821  14.800  26.110   0.494
68151W        W39822   0.781  20.556   2.915
68152W        W39823   4.235   3.242   3.288
68153W        W39824  41.105  18.702  14.857
68154W        W39825  19.444  21.186  13.301
68155W        W39826  12.656   8.065  11.802
68156W        W39827  35.885  15.594   3.187
68157W        W39828  24.901   4.032   2.194
68158W        W39829  18.845  24.980  14.605
68159W        W39830   2.064  13.675   4.169
68160W        W39831  28.672  38.377   4.606
68161W        W39832  30.860  35.403   1.985
68162W        W39833   5.359   5.672   0.517
68163W        W39834   3.391  15.778  10.974
68164W        W39835  34.151  38.263  12.900
68165W        W39836   9.166  42.867   9.845
68166W        W39837  19.432   0.206   1.219
68167W        W39838  38.737  34.055   1.858
68168W        W39839  17.575   9.703   0.362
68169W        W39840  44.056  11.738   3.265
68170W        W39841  13.435  16.056  10.747
68171W        W39842  37.543   9.888  13.469
68172W        W39843   5.804   3.056  12.643
68173W        W39844  18.532  43.278   3.442
68174W        W39845  16.645  10.086   4.037
68175W        W39846   3.385   0.569  12.161
68176W        W39847  14.335  25.845  13.496
68177W        W39848   1.300  10.538  13.317
68178W        W39849   6.184  14.616   1.722
68179W        W39850  22.784  30.094  11.540
68180W        W39851  34.921  38.337   3.603
68181W        W39852  29.505  40.979  13.912
68182W        W39853  28.538  42.740   2.285
68183W        W39854  16.044   1.973  12.669
68184W        W39855  14.532  12.407   3.908
68185W        W39856  10.791  34.002  11.772
68186W        W39857  36.271   1.744   4.261
68187W        W39858  44.823  37.618   0.834
68188W        W39859  11.548  44.000   1.468
68189W        W39860   0.021  38.931   2.422
68190W        W39861  12.306   3.735  13.108
68191W        W39862  39.988  15.145  10.734
68192W        W39863  27.851  34.601  13.930
68193W        W39864  39.647  23.653  13.421
68194W        W39865  10.235  15.528  12.027
68195W        W39866  33.600  39.081   4.825
68196W        W39867  11.881  15.051   3.849
68197W        W39868  16.495  26.591   1.919
68198W        W39869   9.098  29.037  12.837
68199W        W39870  42.388  41.864   4.541
68200W        W39871  39.969  35.300   4.541
68201W        W39872   9.527   2.456   2.205
68202W        W39873  37.341  26.900   1.053
68203W        W39874  41.055  33.508   4.203
68204W        W39875  32.217   0.976  10.886
68205W        W39876  41.877  19.710  14.038
68206W        W39877  34.999  34.614   4.324
68207W        W39878  38.659  30.980  11.540
68208W        W39879   2.647  21.442   5.550
68209W        W39880   1.319   9.781  11.760
68210W        W39881   8.713  21.346   0.745
68211W        W39882   8.411  32.134   1.684
68212W        W39883  15.035  18.215  10.699
68213W        W39884  28.009   0.671  14.304
68214W        W39885  27.079  10.750   0.745
68215W        W39886  28.902  15.648   1.864
68216W        W39887  34.868  37.004  14.952
68217W        W39888  13.634   6.884  13.145
68218W        W39889   3.482  28.894  13.383
68219W        W39890   4.308   4.858   0.895
68220W        W39891  39.311  37.084  11.525
68221W        W39892   4.556  22.196  13.776
68222W        W39893  40.739  26.395   0.082
68223W        W39894  28.943  13.359  14.423
68224W        W39895  31.188  21.212   4.610
68225W        W39896  27.994  39.442  14.683
68226W        W39897  16.104  15.132  10.594
68227W        W39898  24.831  39.894  11.039
68228W        W39899  10.934   6.635  11.106
68229W        W39900   7.913  36.532   4.081
68230W        W39901  17.370  30.000   1.797
68231W        W39902   3.327   9.749  13.126
68232W        W39903   4.788  16.392   5.054
68233W        W39904  31.810  10.744  13.750
68234W        W39905  40.532  34.686   2.901
68235W        W39906   0.797  37.703   4.664
68236W        W39907  12.336  41.924  14.890
68237W        W39908  42.122  43.212  14.221
68238W        W39909  24.703  20.139  11.918
68239W        W39910  33.320  31.049   4.937
68240W        W39911  39.793  40.672  13.568
68241W        W39912  19.711  29.735  13.600
68242W        W39913  21.916   5.483  13.907
68243W        W39914  35.048  19.643  13.388
68244W        W39915  36.795  30.640   3.605
68245W        W39916   8.101   6.388  11.230
68246W        W39917  22.580  13.072   4.841
68247W        W39918  17.559   4.843   0.918
68248W        W39919  25.690  44.761   1.373
68249W        W39920  12.300  16.742   3.156
68250W        W39921  34.645  35.079  13.055
68251W        W39922  11.793  17.883   4.218
68252W        W39923  16.204  31.958  12.201
68253W        W39924  16.612   1.330   1.245
68254W        W39925  22.480   0.236   1.237
68255W        W39926   6.134  13.756   2.410
68256W        W39927  14.676  43.414   2.637
68257W        W39928  14.223  26.721   3.757
68258W        W39929   5.252  18.884  13.332
68259W        W39930  18.288  14.511  11.057
68260W        W39931   5.203   4.766  14.236
68261W        W39932  16.062  15.496   2.321
68262W        W39933  31.924   1.536   2.438
68263W        W39934  26.330  13.090   1.998
68264W        W39935   2.113   0.279  10.784
68265W        W39936  12.163   1.760  12.262
68266W        W39937  34.092  27.735  11.950
68267W        W39938  42.730  41.859   0.300
68268W        W39939  43.378  31.935   3.634
68269W        W39940   9.763   9.175   3.130
68270W        W39941  14.306  19.023  14.914
68271W        W39942  38.962  10.156   2.592
68272W        W39943  30.149  30.047  11.300
68273W        W39944  24.559  39.349   1.005
68274W        W39945  19.380  39.866   1.800
68275W        W39946  12.662  29.105  12.198
68276W        W39947   3.008  28.897  14.550
68277W        W39948  43.936   8.929   4.094
68278W        W39949  23.433  44.299   3.234
68279W        W39950  38.662  44.812  12.495
68280W        W39951  18.229   1.676  10.959
68281W        W39952   8.931  31.111   0.734
68282W        W39953  28.533  32.920   4.653
68283W        W39954  34.199  29.358   2.630
68284W        W39955  36.359   8.253  14.060
68285W        W39956  10.408   8.734   4.586
68286W        W39957  27.939  12.584  11.635
68287W        W39958  14.338  21.298   0.334
68288W        W39959  44.172  12.303  11.680
68289W        W39960  15.291  37.872  14.801
68290W        W39961  12.247  33.998   3.223
68291W        W39962  17.382  31.648  13.914
68292W        W39963   7.826   4.473  10.617
68293W        W39964  37.158  19.685  12.536
68294W        W39965  17.338  25.088   1.203
68295W        W39966  21.757   4.817  10.153
68296W        W39967  12.305  16.093   4.341
68297W        W39968  20.738  21.014  14.331
68298W        W39969   4.199   6.859  14.761
68299W        W39970  31.991   3.693  10.732
68300W        W39971  14.323  37.594   3.264
68301W        W39972   5.604  22.775  10.758
68302W        W39973  42.958  11.657   0.379
68303W        W39974  29.670  34.580  11.176
68304W        W39975  30.325  19.729  11.665
68305W        W39976  38.780  35.544  14.878
68306W        W39977   1.958   1.990  11.555
68307W        W39978  27.009   4.806  11.513
68308W        W39979  29.476  16.634  12.527
68309W        W39980   8.745  28.038  12.606
68310W        W39981  43.563   1.950   3.632
68311W        W39982   8.401  23.730   3.671
68312W        W39983  12.318  42.311   1.246
68313W        W39984  36.538  42.361   0.323
68314W        W39985  16.712   6.774   0.040
68315W        W39986  17.003  16.235   4.257
68316W        W39987   4.891   1.136  14.330
68317W        W39988  42.315  20.885  11.625
68318W        W39989  32.497  22.884  13.845
68319W        W39990  31.085  16.513   3.153
68320W        W39991  20.685  11.616  14.299
68321W        W39992  19.270  38.935  10.828
68322W        W39993  29.629  32.885  13.394
68323W        W39994  39.489   6.782   2.211
68324W        W39995   4.505  22.149   3.727
68325W        W39996   6.972  43.676  12.949
68326W        W39997  16.660  39.449  13.154
68327W        W39998  27.485  42.076   3.895
68328W        W39999  39.731  39.435  14.221
68329W        W40000  42.827  23.063  11.568
68330W        W40001  21.699   9.207   0.713
68331W        W40002  25.934  40.378  10.605
68332W        W40003   4.902  41.064  13.743
68333W        W40004  44.058   5.264   3.777
68334W        W40005  17.227  41.258  13.282
68335W        W40006   0.477  30.480   3.112
68336W        W40007   8.685   8.704   1.994
68337W        W40008  20.103  20.363   1.469
68338W        W40009  32.230   7.074   3.769
68339W        W40010  20.779  40.029  11.584
68340W        W40011   3.489  34.075   3.810
68341W        W40012  13.184  22.404   5.098
68342W        W40013  41.116  24.534   4.551
68343W        W40014   4.637  23.517  12.991
68344W        W40015  37.976  38.996  10.315
68345W        W40016   4.873   1.987  10.469
68346W        W40017  28.037  10.921   4.177
68347W        W40018  33.584   0.692  14.522
68348W        W40019  14.258   9.398   4.185
68349W        W40020  31.970  26.421   4.127
68350W        W40021  42.423   9.048  14.317
68351W        W40022   8.093  28.517   3.371
68352W        W40023  41.991  23.738  10.372
68353W        W40024  43.783  11.755   5.630
68354W        W40025  31.570  35.368   3.617
68355W        W40026   2.405  13.673   3.133
68356W        W40027   4.201  27.105  12.065
68357W        W40028   2.004  27.831  13.342
68358W        W40029   8.380  24.770   3.672
68359W        W40030  28.358  19.276  11.220
68360W        W40031  10.360  30.145  12.036
68361W        W40032  10.852  16.113   3.175
68362W        W40033  27.670   0.575   4.179
68363W        W40034   9.966  38.916   0.725
68364W        W40035   5.400  20.103   0.393
68365W        W40036  14.208  28.207   0.163
68366W        W40037  20.669  10.484   3.358
68367W        W40038   5.249   2.004  14.028
68368W        W40039   1.740  20.988   2.282
68369W        W40040   8.798  18.566   0.749
68370W        W40041   8.264  38.743  12.730
68371W        W40042  19.172   1.438  11.889
68372W        W40043  37.059  23.139  10.819
68373W        W40044   5.333   3.741   0.856
68374W        W40045  44.011  37.986  12.967
68375W        W40046   1.692  26.292  13.547
68376W        W40047  43.933  20.957  13.358
68377W        W40048   0.807  10.088   3.700
68378W        W40049  33.910  11.269   0.047
68379W        W40050  24.554   6.219  13.889
68380W        W40051  13.697  16.671   2.837
68381W        W40052  20.252  11.241   4.582
68382W        W40053  21.560   9.740   2.915
68383W        W40054  40.881  43.498   2.432
68384W        W40055   7.862  40.508   4.728
68385W        W40056   8.346  34.880   0.213
68386W        W40057  38.113  10.263  11.554
68387W        W40058  34.678  18.098  11.503
68388W        W40059  24.711   9.802  10.914
68389W        W40060  21.142  20.176  12.532
68390W        W40061  44.539  17.047  12.242
68391W        W40062  38.901  44.023   0.316
68392W        W40063  39.410   9.097  12.630
68393W        W40064  39.513   7.695   2.230
68394W        W40065  11.801   2.941  11.118
68395W        W40066  35.478  38.372   4.123
68396W        W40067  38.445  37.333   4.692
68397W        W40068  11.794  30.037   4.856
68398W        W40069  36.599  18.194   3.416
68399W        W40070  20.556   9.195  14.037
68400W        W40071  15.113   3.238  12.535
68401W        W40072  19.497  23.965   1.542
68402W        W40073   4.931  14.871  10.853
68403W        W40074  39.702  36.107   2.390
68404W        W40075  23.990  43.836  10.711
68405W        W40076  11.467  44.834  11.084
68406W        W40077  20.298  33.345   3.298
68407W        W40078  42.108  13.243  11.100
68408W        W40079  15.609   1.364   4.278
68409W        W40080  20.395  37.999   3.233
68410W        W40081  44.319  37.534  13.548
68411W        W40082  33.394  39.987  12.843
68412W        W40083  30.861   0.288   3.722
68413W        W40084   9.747  27.378   0.292
68414W        W40085  17.688  20.667  10.682
68415W        W40086   5.707  21.444  10.959
68416W        W40087   4.432   2.779   3.386
68417W        W40088  39.510  32.826   0.868
68418W        W40089  29.091   1.047  12.089
68419W        W40090   3.629  11.706  11.050
68420W        W40091  18.697   2.345  14.232
68421W        W40092  26.844  31.891   4.637
68422W        W40093  19.173  13.209  12.640
68423W        W40094  30.889  26.708   3.357
68424W        W40095  28.584  41.326  12.942
68425W        W40096  14.213  17.119   1.193
68426W        W40097  32.670  10.461   4.175
68427W        W40098   3.246   1.812   2.691
68428W        W40099   1.400  21.230   2.877
68429W        W40100   4.426  39.791  12.306
68430W        W40101  43.027  15.339   3.194
68431W        W40102  31.404   8.573  13.867
68432W        W40103  41.745  28.154   0.876
68433W        W40104  44.285  44.110  12.022
68434W        W40105  32.456  11.875  11.985
68435W        W40106  41.728  34.397  10.757
68436W        W40107  30.931  33.566   2.326
68437W        W40108  23.880   4.691  11.591
68438W        W40109  18.068  44.692   2.204
68439W        W40110   3.903  38.466  14.280
68440W        W40111  27.430  18.750  13.307
68441W        W40112  20.208  30.420  13.188
68442W        W40113   0.328   2.392   0.075
68443W        W40114  38.051  29.432  13.431
68444W        W40115  32.866   9.294  10.795
68445W        W40116   3.768  17.407  10.943
68446W        W40117  17.898   5.213   3.533
68447W        W40118  35.751  30.595   3.672
68448W        W40119  39.419  42.199  13.340
68449W        W40120  26.430  19.642   1.699
68450W        W40121  39.834  22.520  14.840
68451W        W40122  44.006  23.575  10.519
68452W        W40123  17.645  29.131  11.156
68453W        W40124  44.356  23.913   0.797
68454W        W40125  17.846  13.964  12.905
68455W        W40126  16.252   8.768   2.336
68456W        W40127  29.416  41.958  12.155
68457W        W40128  16.809  11.502  13.872
68458W        W40129  22.165  38.482  12.859
68459W        W40130  21.942  42.720  14.904
68460W        W40131   9.164  17.319  11.210
68461W        W40132   9.186  19.650  14.476
68462W        W40133  34.241  20.074   1.478
68463W        W40134   8.138  27.572   4.873
68464W        W40135   1.222  13.146  14.615
68465W        W40136   6.059  30.207  14.597
68466W        W40137  19.220   6.444  12.323
68467W        W40138   7.097  17.167  13.408
68468W        W40139  37.391  42.211  11.098
68469W        W40140  29.914   5.193   4.286
68470W        W40141  28.909   7.408   1.825
68471W        W40142   1.930  29.665  10.918
68472W        W40143  42.000  38.379   0.113
68473W        W40144  40.715  10.781   4.109
68474W        W40145   6.926  27.558  11.843
68475W        W40146  14.212  29.415  11.029
68476W        W40147  13.913   8.606   3.151
68477W        W40148  34.140  22.216  12.965
68478W        W40149  36.795  16.136   4.141
68479W        W40150  35.991  13.113  12.940
68480W        W40151  11.605  25.527   4.239
68481W        W40152  30.480  30.188   1.760
68482W        W40153  35.931  31.592  14.421
68483W        W40154   4.474  31.483  11.059
68484W        W40155  20.546  20.637  11.583
68485W        W40156   6.956  30.662   3.308
68486W        W40157   7.210   3.795  10.783
68487W        W40158  10.624   5.228   2.459
68488W        W40159   2.895  43.834  12.086
68489W        W40160  23.897   2.554   3.644
68490W        W40161  19.035   1.880   0.850
68491W        W40162  42.939  39.765   0.939
68492W        W40163   4.357  22.329  11.507
68493W        W40164  26.220  14.884   4.755
68494W        W40165   8.420  41.028   0.319
68495W        W40166  18.682  13.351  13.074
68496W        W40167  31.568   1.433   3.762
68497W        W40168   3.346  36.880   4.736
68498W        W40169   1.872  26.101   1.309
68499W        W40170   9.005  27.077  10.971
68500W        W40171  12.729   0.151   4.506
68501W        W40172  34.035  38.296   3.739
68502W        W40173   2.306   0.948  13.415
68503W        W40174  17.065  44.888   0.328
68504W        W40175  43.864  39.608  11.097
68505W        W40176  31.963   6.782   1.678
68506W        W40177  15.136  40.036  11.950
68507W        W40178  33.639  11.937  13.324
68508W        W40179  40.988  38.353  13.780
68509W        W40180   9.359  22.103  13.694
68510W        W40181   8.322  18.339   0.802
68511W        W40182  19.769  32.421   1.871
68512W        W40183   8.381  37.071  14.546
68513W        W40184   9.801  13.695   1.211
68514W        W40185  23.512  26.938   2.819
68515W        W40186   8.757  18.435   5.132
68516W        W40187   6.215   6.273  12.476
68517W        W40188  12.579  40.957  11.741
68518W        W40189  35.657  44.745  14.275
68519W        W40190  15.759  11.874   0.761
68520W        W40191  38.537   2.507  14.349
68521W        W40192   9.879  36.963  11.142
68522W        W40193  12.078  44.102  13.960
68523W        W40194  15.900  22.852   4.665
68524W        W40195  42.322  39.252  14.972
68525W        W40196  38.891  28.953   0.393
68526W        W40197  10.116  37.354   2.593
68527W        W40198  17.243   4.293  11.812
68528W        W40199  32.967  15.343   0.711
68529W        W40200  40.866  27.405   1.767
68530W        W40201  19.091  26.671  11.653
68531W        W40202   7.626  24.531  12.745
68532W        W40203  33.648  18.835  14.714
68533W        W40204  26.150  13.884   1.387
68534W        W40205  18.208   3.319   4.649
68535W        W40206   6.359  37.927   0.326
68536W        W40207  34.147   7.966  11.152
68537W        W40208  12.828  37.987   2.435
68538W        W40209  37.067  11.191  10.635
68539W        W40210  10.846  43.849  10.900
68540W        W40211  35.841  10.664  12.061
68541W        W40212  35.646  12.810   0.311
68542W        W40213  40.539  38.810   3.292
68543W        W40214  18.770  33.863   4.952
68544W        W40215  31.621  17.988  13.049
68545W        W40216  42.794   6.945  13.758
68546W        W40217  15.806  32.470  11.577
68547W        W40218  10.338  37.811  14.352
68548W        W40219   5.249  14.675   0.943
68549W        W40220  40.880  17.085   1.929
68550W        W40221  17.607  27.755  11.187
68551W        W40222   0.196  32.930  13.919
68552W        W40223  44.567  38.685   4.153
68553W        W40224  21.383  36.385  14.791
68554W        W40225   0.726   4.920  11.562
68555W        W40226  12.273  32.117  10.933
68556W        W40227   2.477   3.361   1.299
68557W        W40228  32.417  26.661   4.269
68558W        W40229  34.049  32.132   3.040
68559W        W40230  42.992   1.939   4.504
68560W        W40231  29.321  12.462  11.847
68561W        W40232  17.184  41.191   2.349
68562W        W40233  41.868   9.383   4.363
68563W        W40234   3.893  43.415   0.215
68564W        W40235   8.717  32.195  11.078
68565W        W40236   9.070  17.222   0.364
68566W        W40237  25.539  31.871  10.776
68567W        W40238  28.403   8.743  14.554
68568W        W40239   2.326   4.395   3.637
68569W        W40240  25.536  29.569   1.773
68570W        W40241  23.617  13.405   0.059
68571W        W40242  21.722  19.363  13.548
68572W        W40243   6.429  11.941   2.728
68573W        W40244  14.452  38.833  12.059
68574W        W40245  13.302  37.914   3.537
68575W        W40246  19.644  10.816  13.355
68576W        W40247  15.645  43.720  13.970
68577W        W40248  40.569  15.252   1.245
68578W        W40249  21.220  28.338  14.512
68579W        W40250  38.268  27.404  11.719
68580W        W40251   4.034  12.637  13.277
68581W        W40252  37.068  23.664  10.601
68582W        W40253   9.848   7.429   2.269
68583W        W40254  31.427  36.648   0.278
68584W        W40255  17.641   1.794   2.065
68585W        W40256  12.469  44.476   3.080
68586W        W40257  20.612   4.414   4.683
68587W        W40258  10.688  42.107   2.300
68588W        W40259   8.295  41.845  11.909
68589W        W40260  30.567  13.650   2.886
68590W        W40261   3.951  25.889   3.519
68591W        W40262  43.447  36.504   4.487
68592W        W40263  14.477  31.717  11.233
68593W        W40264  24.166   2.064   1.401
68594W        W40265  42.197  36.394  14.362
68595W        W40266  13.545   8.334   1.452
68596W        W40267  10.426  40.977  12.234
68597W        W40268  12.412  11.631   0.861
68598W        W40269  22.102  42.355  12.415
68599W        W40270  14.616  21.998  11.517
68600W        W40271  44.387   7.117   2.051
68601W        W40272  27.211   7.389  10.145
68602W        W40273  17.219  43.966  12.639
68603W        W40274  44.821   3.379  13.517
68604W        W40275  43.334  37.152   1.351
68605W        W40276  41.539  26.098   2.211
68606W        W40277  18.164  14.546  13.480
68607W        W40278  17.084  42.450  10.947
68608W        W40279  20.268  39.498   3.354
68609W        W40280   2.775  40.956  14.380
68610W        W40281  28.586  24.126   2.390
68611W        W40282   0.061  30.836  11.050
68612W        W40283  23.686   5.911   4.459
68613W        W40284  25.777  38.058  12.908
68614W        W40285   9.369  25.733   3.714
68615W        W40286  14.737  29.469   2.645
68616W        W40287  18.754  12.836  11.455
68617W        W40288  13.366  36.563   3.668
68618W        W40289  28.080  37.059   0.089
68619W        W40290  16.096   5.146  12.384
68620W        W40291   3.298   6.798   1.173
68621W        W40292  36.387  31.656   0.405
68622W        W40293  14.553  32.649   1.330
68623W        W40294  11.625   9.350  14.842
68624W        W40295  41.843  20.765   2.198
68625W        W40296   4.381  17.998  10.597
68626W        W40297   0.290  28.036  11.886
68627W        W40298  12.861  18.465  11.775
68628W        W40299  23.015  13.273   2.262
68629W        W40300  24.793  31.867   4.625
68630W        W40301  27.651   9.138  13.329
68631W        W40302  42.304  25.469   4.749
68632W        W40303  16.306  13.238  13.392
68633W        W40304  38.952  19.974   2.227
68634W        W40305  15.051  12.267  12.603
68635W        W40306  34.176  16.748  12.040
68636W        W40307  14.323   7.463  13.328
68637W        W40308  40.284  40.357   2.007
68638W        W40309   8.590  17.051   0.490
68639W        W40310   5.746  18.249   2.369
68640W        W40311   7.156  20.758  13.483
68641W        W40312  32.115   8.881  13.597
68642W        W40313   3.767  26.531  11.491
68643W        W40314  23.170   4.831  14.910
68644W        W40315  10.457  44.686  14.042
68645W        W40316  31.881   8.441  10.933
68646W        W40317   8.428  39.212   3.594
68647W        W40318   5.896  24.656   1.408
68648W        W40319  15.653  23.525   1.095
68649W        W40320  22.709  30.357  11.019
68650W        W40321  38.515  39.271  14.858
68651W        W40322  33.190  17.048   1.411
68652W        W40323  44.931  44.046   0.038
68653W        W40324  15.706  14.673   1.308
68654W        W40325  30.078  14.671  14.232
68655W        W40326  35.086  11.608   3.613
68656W        W40327  41.698  22.015   4.182
68657W        W40328  39.282  27.062   0.830
68658W        W40329   8.713  16.017   3.774
68659W        W40330  19.316  38.742   1.801
68660W        W40331   5.457  31.511   0.364
68661W        W40332  35.423  39.489  13.608
68662W        W40333  17.729  26.073  14.246
68663W        W40334   0.684  21.106  10.227
68664W        W40335  13.131  17.224   0.782
68665W        W40336  42.832   3.473  13.996
68666W        W40337  20.010  20.077   3.718
68667W        W40338  33.527   7.175  13.009
68668W        W40339  41.454  27.224   0.478
68669W        W40340   2.415   2.938   2.408
68670W        W40341  23.158  11.817   4.058
68671W        W40342  43.006   6.379  11.105
68672W        W40343  40.616  10.985  14.037
68673W        W40344   7.109  42.779  13.544
68674W        W40345  41.358  32.526  12.774
68675W        W40346   6.444  40.002   1.323
68676W        W40347  27.422   9.412   5.377
68677W        W40348  34.403   5.446  12.595
68678W        W40349  43.790   4.371   2.339
68679W        W40350  42.659  32.059  13.007
68680W        W40351  44.420  20.995   4.587
68681W        W40352  10.818  42.266   3.727
68682W        W40353  26.600  16.230  11.400
68683W        W40354  38.486   9.962   1.583
68684W        W40355  25.642  31.626  11.261
68685W        W40356  22.590   1.505   3.932
68686W        W40357   7.431  37.174  10.766
68687W        W40358  30.029  40.115   4.567
68688W        W40359  40.832  40.948  11.338
68689W        W40360  13.809  37.203  12.816
68690W        W40361  10.705  24.706   4.846
68691W        W40362  22.614  20.018   0.827
68692W        W40363  10.295  41.282   3.214
68693W        W40364  13.657  11.025   3.243
68694W        W40365  14.334  41.953   2.852
68695W        W40366  23.935  42.038   3.175
68696W        W40367  34.930  30.513   4.390
68697W        W40368  12.173  37.905  14.566
68698W        W40369  41.326   6.835  14.004
68699W        W40370  14.680  14.429  13.479
68700W        W40371  36.505  27.231  14.598
68701W        W40372  38.238  33.442  12.345
68702W        W40373  26.549  41.815   0.996
68703W        W40374  16.823   2.046   4.279
68704W        W40375  37.114  11.600   3.569
68705W        W40376  42.868  18.230  13.942
68706W        W40377  42.912   5.397  12.519
68707W        W40378   3.765  13.754  11.922
68708W        W40379   9.583   9.030   2.196
68709W        W40380   7.658  37.811  13.505
68710W        W40381  27.643   4.269  12.438
68711W        W40382  43.434  21.379  14.415
68712W        W40383  36.320  22.458   0.343
68713W        W40384  34.881  11.847   2.772
68714W        W40385   6.792  27.177   2.864
68715W        W40386  16.286  24.017   0.261
68716W        W40387  18.778  15.828   3.192
68717W        W40388  22.286  21.266  11.207
68718W        W40389  13.302  33.843  14.989
68719W        W40390  32.938   6.625   0.372
68720W        W40391   8.918  14.776  12.723
68721W        W40392  16.309  40.273  12.539
68722W        W40393   5.940  13.295   0.820
68723W        W40394   3.452  20.271   2.245
68724W        W40395  10.632  24.145  12.420
68725W        W40396  30.920   7.353   0.384
68726W        W40397  23.726   0.406  14.859
68727W        W40398   2.243  28.438   1.298
68728W        W40399   3.750  40.885   2.823
68729W        W40400   7.025   4.192   0.928
68730W        W40401  27.955  42.966   1.430
68731W        W40402  35.030   9.636   3.890
68732W        W40403  37.373  40.445  10.674
68733W        W40404  19.187  14.850   2.744
68734W        W40405   0.132  37.277  11.134
68735W        W40406  10.256  22.548   2.306
68736W        W40407   9.725   7.680  13.341
68737W        W40408  44.461  17.987   4.698
68738W        W40409  23.069  24.478  14.774
68739W        W40410  37.118  43.339  11.425
68740W        W40411  18.131   6.511   3.643
68741W        W40412   1.373  10.632  13.806
68742W        W40413  32.510  20.630  12.859
68743W        W40414  35.834  40.969  11.884
68744W        W40415  32.950   0.739  12.006
68745W        W40416  22.758  18.025  14.343
68746W        W40417   6.759  15.244   2.796
68747W        W40418  35.134  31.727  14.883
68748W        W40419  24.877   0.715  12.004
68749W        W40420  17.797  11.303  11.117
68750W        W40421  30.602  41.789   1.389
68751W        W40422   7.352   6.703   4.686
68752W        W40423  12.353  12.255   1.824
68753W        W40424   0.279   4.340  11.113
68754W        W40425  23.668  43.713   3.840
68755W        W40426  37.428  43.478  13.865
68756W        W40427  34.777  22.669  10.725
68757W        W40428  39.337  35.649   3.824
68758W        W40429  42.936  18.768   0.460
68759W        W40430   9.241  36.831   4.255
68760W        W40431   3.418  31.533  14.327
68761W        W40432  10.339  37.375  14.660
68762W        W40433  32.695  23.233  14.207
68763W        W40434  31.119  21.962  12.553
68764W        W40435  40.943  20.249  13.585
68765W        W40436  30.693  12.544   1.283
68766W        W40437  28.645  25.213  12.534
68767W        W40438  35.622  32.428  11.937
68768W        W40439  21.070  28.963   4.141
68769W        W40440  13.276  39.213  13.674
68770W        W40441   4.842  33.633   1.138
68771W        W40442  29.223  34.860  13.180
68772W        W40443  32.307   4.940  12.864
68773W        W40444  37.970   5.888   2.499
68774W        W40445  42.387  38.334   0.554
68775W        W40446  21.767  30.120   0.000
68776W        W40447  13.307  17.056   2.692
68777W        W40448   8.152   6.884  13.840
68778W        W40449   8.088   4.270   3.966
68779W        W40450  27.290   6.797   4.636
68780W        W40451   6.110  13.946  12.687
68781W        W40452  42.418  15.175  13.391
68782W        W40453   5.523  43.876  14.872
68783W        W40454  32.235  23.812   1.804
68784W        W40455   4.069  21.272   2.462
68785W        W40456  22.179  12.795   2.226
68786W        W40457   0.717  40.942   3.733
68787W        W40458   2.960  18.864   4.789
68788W        W40459  44.412   3.782  14.889
68789W        W40460  21.335  43.424   3.200
68790W        W40461  25.089  14.185  12.348
68791W        W40462  15.774  39.329   4.082
68792W        W40463  26.654   3.415   4.306
68793W        W40464  21.574  33.412  10.230
68794W        W40465  16.526   5.686  11.152
68795W        W40466  25.619  35.068   4.958
68796W        W40467  25.274  24.899  13.454
68797W        W40468  30.124  38.939  10.706
68798W        W40469  10.896  43.125   2.264
68799W        W40470  32.479  15.256   0.918
68800W        W40471  42.786  40.832  11.243
68801W        W40472  12.841  21.118  12.716
68802W        W40473   7.998  36.862  12.102
68803W        W40474  22.853  25.593   1.644
68804W        W40475  15.563  22.209  10.716
68805W        W40476  26.316  17.120  14.059
68806W        W40477  24.501   5.779  12.918
68807W        W40478  21.689  14.471   1.760
68808W        W40479  23.481  43.858  13.439
68809W        W40480  35.832  14.172   3.349
68810W        W40481  32.381  11.331   1.420
68811W        W40482  16.646  35.871   3.675
68812W        W40483   9.785  44.476   2.700
68813W        W40484  19.053   9.321   4.655
68814W        W40485  19.255  36.126  12.435
68815W        W40486  41.750  43.726  13.853
68816W        W40487   4.391  20.375  13.560
68817W        W40488  20.228  22.737  11.250
68818W        W40489   4.936  25.468  12.633
68819W        W40490   9.816   3.158   1.865
68820W        W40491   2.666  34.091   3.428
68821W        W40492   2.743   9.878  14.499
68822W        W40493  16.260  21.176   0.504
68823W        W40494  35.293   5.631   0.316
68824W        W40495   6.621  19.310   0.783
68825W        W40496   2.734  20.179   0.393
68826W        W40497  19.849   8.430   0.229
68827W        W40498  36.742  40.986  14.419
68828W        W40499  42.660  30.839   1.755
68829W        W40500  22.705  28.214   0.531
68830W        W40501  15.758  24.938   2.327
68831W        W40502  44.917  35.845  12.914
68832W        W40503   4.378   2.454   0.213
68833W        W40504  16.166   6.302  11.990
68834W        W40505  22.454  11.625   0.965
68835W        W40506  26.470   3.620  13.896
68836W        W40507  22.669  13.236   0.641
68837W        W40508   9.815   8.133  11.088
68838W        W40509  34.957  34.868   4.990
68839W        W40510  23.753  33.481  14.501
68840W        W40511  21.527  25.280  11.041
68841W        W40512  19.585  31.124  13.049
68842W        W40513  28.622  41.796   3.196
68843W        W40514  17.800  13.488  13.092
68844W        W40515   7.424  11.621   1.884
68845W        W40516  24.993  44.471   1.686
68846W        W40517  26.436  28.178  14.404
68847W        W40518   9.008  14.137   4.967
68848W        W40519  29.088  33.869  11.561
68849W        W40520  12.583   3.946   0.942
68850W        W40521   2.304   0.968   0.597
68851W        W40522  21.506  22.099  10.791
68852W        W40523   2.381  26.221   2.090
68853W        W40524  26.991  29.506  14.295
68854W        W40525  41.259  24.672  11.148
68855W        W40526  21.603  41.480  14.580
68856W        W40527  43.508  38.411  13.547
68857W        W40528  13.714   4.271   4.577
68858W        W40529  13.677  35.612   0.483
68859W        W40530   6.368  26.933   2.637
68860W        W40531  27.083  43.034   1.541
68861W        W40532   9.851  26.718  12.114
68862W        W40533   0.230  12.679   2.129
68863W        W40534  39.939   0.187  14.422
68864W        W40535  17.162  34.536   0.504
68865W        W40536  28.007  36.728   4.100
68866W        W40537  20.725   7.666  10.641
68867W        W40538  26.274  11.834   2.970
68868W        W40539  39.492   4.825   0.413
68869W        W40540  31.511  17.817   2.625
68870W        W40541   4.883  30.726   4.204
68871W        W40542  11.825   2.933   4.554
68872W        W40543  21.685  43.443   0.831
68873W        W40544  17.759  15.384   1.758
68874W        W40545  39.862  25.454   0.797
68875W        W40546  34.817  15.232  14.643
68876W        W40547  34.369  11.407   4.691
68877W        W40548  35.189  35.477   1.799
68878W        W40549  17.292   7.473   1.428
68879W        W40550  28.018  29.174  13.556
68880W        W40551  14.789  31.650  13.003
68881W        W40552   6.648   1.967  10.699
68882W        W40553  22.682   8.108   4.602
68883W        W40554  31.783  35.857   3.769
68884W        W40555  20.001  35.960   4.165
68885W        W40556  12.790  31.069  13.448
68886W        W40557  25.247  12.202   1.801
68887W        W40558  21.099  18.794  12.965
68888W        W40559  22.593  35.537   0.489
68889W        W40560  14.252  35.560  10.629
68890W        W40561  18.704   9.705   4.655
68891W        W40562  41.315  23.985   0.457
68892W        W40563  10.363  26.589  12.098
68893W        W40564  10.220  36.260   4.976
68894W        W40565  35.411  25.497  10.687
68895W        W40566  22.253  44.859   1.718
68896W        W40567   8.301  28.112   0.217
68897W        W40568   6.299  14.315  13.002
68898W        W40569  13.214  32.596   2.286
68899W        W40570  19.032  19.388   2.444
68900W        W40571  17.010  22.061  13.379
68901W        W40572  30.944  31.357   1.198
68902W        W40573  40.883   0.470  12.238
68903W        W40574   9.948  10.208  13.984
68904W        W40575  28.203  31.201  12.452
68905W        W40576  31.912  26.507  11.416
68906W        W40577  19.921  14.989   0.264
68907W        W40578   3.598  44.753  13.589
68908W        W40579  11.385   2.784  11.903
68909W        W40580  10.830  25.462  11.588
68910W        W40581  40.331  25.088   1.852
68911W        W40582  26.487  38.129   0.386
68912W        W40583   5.209  33.622   2.861
68913W        W40584  12.567  12.733  13.825
68914W        W40585  34.551  15.845   0.201
68915W        W40586  40.323  25.645  14.518
68916W        W40587  29.240  29.680   1.897
68917W        W40588  26.443  35.523  14.851
68918W        W40589   7.285  17.859  12.881
68919W        W40590  44.336  36.642  10.892
68920W        W40591   9.119  25.573  14.203
68921W        W40592   6.455  42.824  10.588
68922W        W40593  26.291  43.510   3.613
68923W        W40594  29.509  39.841   2.982
68924W        W40595  38.308  22.041  10.417
68925W        W40596  44.157  10.427   0.834
68926W        W40597  31.020  40.560  10.581
68927W        W40598   1.980  34.428  14.360
68928W        W40599  40.986  41.927  14.461
68929W        W40600   2.221  32.900  14.830
68930W        W40601  36.943  32.195   2.716
68931W        W40602   1.684  36.175   1.376
68932W        W40603  17.271   6.338   2.105
68933W        W40604  10.158   7.214   3.798
68934W        W40605  39.852  25.145  12.101
68935W        W40606  23.033   7.627   2.043
68936W        W40607   9.716  16.009  12.463
68937W        W40608  14.872  34.895   4.437
68938W        W40609  44.208  26.931   4.046
68939W        W40610  27.913  24.245   4.076
68940W        W40611  17.744  31.303  14.212
68941W        W40612  36.450  37.392  12.511
68942W        W40613   5.801  14.103  11.809
68943W        W40614  24.731  17.802  11.671
68944W        W40615  31.622   2.225   2.858
68945W        W40616   8.723  19.530   3.152
68946W        W40617  31.632  14.643   4.994
68947W        W40618  33.440  17.161   2.672
68948W        W40619  37.092  23.610  14.502
68949W        W40620  32.990  28.218  10.814
68950W        W40621  21.589   8.276  13.043
68951W        W40622  31.839  15.351   0.343
68952W        W40623   4.307   1.864  12.569
68953W        W40624  15.589   4.092   3.329
68954W        W40625  24.867  23.493   3.610
68955W        W40626  20.562  43.923  14.584
68956W        W40627  25.091  14.322   3.184
68957W        W40628  28.542  27.120   3.988
68958W        W40629  44.298  21.440   3.691
68959W        W40630  12.705  44.839  10.469
68960W        W40631  15.267  20.355   3.465
68961W        W40632  13.248  30.607  10.119
68962W        W40633   2.205  13.845  12.971
68963W        W40634  28.755  39.548  11.533
68964W        W40635  13.666   4.893   0.667
68965W        W40636   6.857  16.038  10.687
68966W        W40637  17.109   5.222  13.887
68967W        W40638  34.000  25.464   2.239
68968W        W40639   6.995  10.964  11.848
68969W        W40640  43.451   9.188  13.284
68970W        W40641  12.104  27.004  11.477
68971W        W40642  13.637  11.257   0.415
68972W        W40643  35.332   3.772   4.067
68973W        W40644  17.084  16.451  13.551
68974W        W40645  38.505   4.114   1.878
68975W        W40646  30.702  42.960  12.440
68976W        W40647  25.661  37.496   2.662
68977W        W40648  37.531  18.357  12.041
68978W        W40649  30.104  33.775   4.516
68979W        W40650  19.288  14.323  10.242
68980W        W40651  17.613  39.989   4.619
68981W        W40652  15.187   2.657   2.298
68982W        W40653  25.065  42.086  11.465
68983W        W40654  22.709  12.762   1.250
68984W        W40655  28.461  37.451  13.545
68985W        W40656  26.485  30.272   2.185
68986W        W40657  37.482  36.285   1.743
68987W        W40658  28.545  20.183   0.029
68988W        W40659  26.669   7.147   4.608
68989W        W40660   4.446   6.769  14.287
68990W        W40661  23.322   8.809   3.773
68991W        W40662  31.898  13.777  12.529
68992W        W40663  38.813  44.532   0.384
68993W        W40664  43.506  17.312  13.379
68994W        W40665  29.928  13.151   1.458
68995W        W40666  19.029  18.138   3.838
68996W        W40667  36.769  15.539   0.430
68997W        W40668  28.059  44.485  11.967
68998W        W40669  37.029  18.163  12.030
68999W        W40670   4.345  37.418  11.774
69000W        W40671   6.856  23.814   1.489
69001W        W40672   8.831  10.669   0.919
69002W        W40673   1.804  29.806   4.610
69003W        W40674   6.769  36.852  11.525
69004W        W40675  42.561  34.295  13.198
69005W        W40676  10.347  21.808  10.636
69006W        W40677  38.892  32.226   1.096
69007W        W40678  37.314   8.305   4.431
69008W        W40679  20.323   0.436   4.356
69009W        W40680  12.261  42.081  11.035
69010W        W40681  44.189  43.519   2.374
69011W        W40682  35.660  11.087  12.622
69012W        W40683   2.417   1.379   2.686
69013W        W40684   2.166  44.696   1.841
69014W        W40685  18.801  11.749  14.081
69015W        W40686  17.356  42.851   0.402
69016W        W40687  34.997  31.514   1.112
69017W        W40688  41.962  31.658  10.952
69018W        W40689   6.056  41.308   3.547
69019W        W40690   8.882  29.226  12.016
69020W        W40691  21.029  26.617   2.053
69021W        W40692  28.442  37.810  11.399
69022W        W40693  20.770   1.460   1.864
69023W        W40694  30.570  38.055   4.608
69024W        W40695  25.752   0.745   2.733
69025W        W40696  38.194   6.812   0.362
69026W        W40697  32.429   8.562  12.142
69027W        W40698  28.954   6.736  11.747
69028W        W40699  42.242  34.633   3.321
69029W        W40700  10.633  18.034  11.601
69030W        W40701  42.128   3.230   1.435
69031W        W40702   2.784  16.221   2.182
69032W        W40703   2.880  25.062  14.015
69033W        W40704  43.712   9.695   0.073
69034W        W40705   1.699  16.621  11.123
69035W        W40706  41.378   9.267   2.180
69036W        W40707  41.195  38.110  10.489
69037W        W40708   2.427  30.350   4.065
69038W        W40709  28.558   6.897  12.027
69039W        W40710  38.192  15.356   2.681
69040W        W40711  39.311  30.400  12.498
69041W        W40712  32.007  35.183  12.023
69042W        W40713   1.328  20.135   0.370
69043W        W40714   9.619  41.461  11.147
69044W        W40715  22.607  34.819  14.021
69045W        W40716   3.723  14.788   2.729
69046W        W40717  16.578   1.237  13.534
69047W        W40718  25.309  29.049   2.861
69048W        W40719   0.642  43.789  12.439
69049W        W40720  22.032  33.465   1.431
69050W        W40721  18.413  43.470  13.319
69051W        W40722  24.787  18.484   4.758
69052W        W40723   9.180   5.358   0.012
69053W        W40724   6.614  33.508   4.270
69054W        W40725  32.020  15.980   4.219
69055W        W40726  18.068   6.637  14.879
69056W        W40727  41.521   7.216   0.881
69057W        W40728   8.960  35.089   4.560
69058W        W40729  31.378   7.146   0.294
69059W        W40730  41.373  15.894  10.680
69060W        W40731  30.932  41.898  12.075
69061W        W40732  20.978  28.706  11.110
69062W        W40733  41.985   0.355  14.833
69063W        W40734   4.571  15.242  10.969
69064W        W40735   3.184  38.366   2.183
69065W        W40736  26.213   7.838   0.788
69066W        W40737  39.272  40.809  14.931
69067W        W40738  21.055  20.719   0.321
69068W        W40739  39.819   0.185  12.150
69069W        W40740  33.184   6.783   3.510
69070W        W40741  40.590  35.560  12.876
69071W        W40742  31.071  21.671   3.631
69072W        W40743  38.637  38.776  12.088
69073W        W40744  13.333   1.399   3.896
69074W        W40745   8.426  39.465   0.360
69075W        W40746  26.487  12.605  14.708
69076W        W40747   7.325  21.782   4.502
69077W        W40748  22.900  19.105  13.039
69078W        W40749  39.154   3.336  13.344
69079W        W40750  18.211  16.200  11.199
69080W        W40751   4.728  32.856   3.769
69081W        W40752  21.764   0.403  13.385
69082W        W40753   7.284   9.187  11.503
69083W        W40754  31.105  26.933   4.216
69084W        W40755   1.995  35.351   0.234
69085W        W40756  44.401   8.398   2.490
69086W        W40757  13.329   0.462   0.653
69087W        W40758  40.700  19.134   3.618
69088W        W40759   5.647  37.325  12.474
69089W        W40760  30.189  11.349  12.443
69090W        W40761  17.678  35.049  14.963
69091W        W40762  42.445  24.631   1.477
69092W        W40763  23.254  36.895   1.927
69093W        W40764  14.674  23.549   3.751
69094W        W40765  13.281   1.797  10.398
69095W        W40766  32.643   7.244  10.559
69096W        W40767  31.909  19.766   1.022
69097W        W40768  23.779  15.562  11.503
69098W        W40769  44.819  28.450  12.790
69099W        W40770  37.703  44.451  11.381
69100W        W40771   1.149  19.481  10.581
69101W        W40772  31.786  10.559  12.839
69102W        W40773   0.269  29.588  11.045
69103W        W40774   8.174  30.013  14.091
69104W        W40775  38.105  40.940   0.722
69105W        W40776  30.684  21.484   1.245
69106W        W40777  33.967  36.987  11.426
69107W        W40778   5.288  42.982   3.143
69108W        W40779  28.267  34.529   0.855
69109W        W40780  20.035  23.113  10.481
69110W        W40781   8.521  15.557   3.640
69111W        W40782  21.013  34.914  12.478
69112W        W40783  44.991   2.855  14.473
69113W        W40784  14.277   5.965   3.025
69114W        W40785  17.737  41.832  11.335
69115W        W40786  29.662  14.608   0.966
69116W        W40787  10.584  36.137   0.859
69117W        W40788  35.124  24.165  11.653
69118W        W40789  38.808  28.128  11.900
69119W        W40790  38.910  38.454  14.524
69120W        W40791  26.692  21.649  12.414
69121W        W40792  32.659  14.336   1.716
69122W        W40793  39.827  15.772   1.504
69123W        W40794  31.536  20.239   0.358
69124W        W40795  27.629  21.190   5.075
69125W        W40796  24.729  13.244   4.568
69126W        W40797  40.870  10.585  14.874
69127W        W40798  11.217   6.178  11.566
69128W        W40799  31.451  26.441  14.564
69129W        W40800  16.256   4.278  13.001
69130W        W40801  25.898   8.870  12.403
69131W        W40802  44.500  17.334   1.338
69132W        W40803  37.043  13.690   3.664
69133W        W40804  16.077   4.772  13.713
69134W        W40805   2.454  37.315   1.852
69135W        W40806  29.158  14.392  12.509
69136W        W40807   3.279   4.632   0.287
69137W        W40808  17.295   2.439  13.924
69138W        W40809  28.331  32.681   0.816
69139W        W40810  27.713  32.093  11.679
69140W        W40811  21.943  40.496  14.947
69141W        W40812  29.170  42.859  10.972
69142W        W40813  21.998   8.375   1.305
69143W        W40814  31.205   9.620   4.454
69144W        W40815  23.028   0.740  11.577
69145W        W40816  34.705  34.889   0.441
69146W        W40817  38.973   5.768   2.233
69147W        W40818   9.161   6.718   1.431
69148W        W40819  29.478  11.295  14.583
69149W        W40820  21.080   8.402  13.159
69150W        W40821  20.928  26.839   2.834
69151W        W40822  20.833  34.994   3.684
69152W        W40823  21.139  43.212   1.721
69153W        W40824  41.284  12.201   3.809
69154W        W40825   5.705  22.645  13.386
69155W        W40826   3.454  22.310   4.283
69156W        W40827   3.791  41.857   2.722
69157W        W40828  34.243   1.323  11.517
69158W        W40829  18.780  35.491   0.079
69159W        W40830  29.926  27.244   1.185
69160W        W40831  23.194  38.010  11.123
69161W        W40832  30.608  23.136  11.406
69162W        W40833  28.985  32.001  14.770
69163W        W40834  31.782   7.654  10.558
69164W        W40835  33.121  13.150  10.651
69165W        W40836   0.724  26.832   4.481
69166W        W40837  26.507  11.582  10.379
69167W        W40838  22.258  12.135  14.840
69168W        W40839  16.799  28.291   2.275
69169W        W40840  40.850   8.762  11.984
69170W        W40841  36.385   0.829   1.160
69171W        W40842  33.116  30.033   0.348
69172W        W40843  35.549  33.611  12.750
69173W        W40844  39.333  40.685  10.754
69174W        W40845  12.275   6.249  11.624
69175W        W40846  21.999   1.484  14.891
69176W        W40847  15.148  42.609  11.614
69177W        W40848  38.785  22.818   3.269
69178W        W40849  13.229  23.520  11.977
69179W        W40850  39.525  44.748   2.325
69180W        W40851  30.685  21.469   0.391
69181W        W40852  43.635  30.576  12.992
69182W        W40853   8.807  30.734  11.963
69183W        W40854   1.811   5.767   3.583
69184W        W40855  38.397  26.318  12.009
69185W        W40856  41.112  32.134  12.971
69186W        W40857  42.977  40.443   4.164
69187W        W40858  30.191  29.149  12.979
69188W        W40859  37.599  37.995  13.358
69189W        W40860  38.252  27.695  13.658
69190W        W40861  24.301  25.463  12.506
69191W        W40862  42.039  30.057   1.471
69192W        W40863  41.467  23.666  12.050
69193W        W40864  30.620  36.582   0.570
69194W        W40865  32.849  35.399  14.229
69195W        W40866  40.124  34.355   2.845
69196W        W40867  20.562  15.552   3.747
69197W        W40868  34.263  19.716  11.141
69198W        W40869  38.065  29.674  12.147
69199W        W40870  27.515   7.703   4.706
69200W        W40871  20.194  39.841  14.069
69201W        W40872   2.214  18.086  14.777
69202W        W40873  22.991   9.854   4.787
69203W        W40874  34.423  25.925  13.037
69204W        W40875  18.357  43.580  14.412
69205W        W40876  14.198  37.573   2.255
69206W        W40877  39.333  19.712   1.962
69207W        W40878  35.141   0.061   0.755
69208W        W40879  14.869  15.531   3.620
69209W        W40880  30.092  36.468   3.275
69210W        W40881  28.299  34.796  12.938
69211W        W40882   5.857  15.391   4.062
69212W        W40883  12.891   4.918   2.195
69213W        W40884  42.624  24.509  10.284
69214W        W40885  29.983   2.366   4.202
69215W        W40886  32.148  20.511  11.095
69216W        W40887  34.986  12.885  10.583
69217W        W40888   6.336  26.084  14.377
69218W        W40889  10.258  14.736   1.752
69219W        W40890  40.762  37.366  11.943
69220W        W40891  27.172  34.489   4.610
69221W        W40892  39.357  18.621   2.363
69222W        W40893   8.513  25.042   0.261
69223W        W40894   8.963  43.935   3.842
69224W        W40895  17.349  10.321  14.943
69225W        W40896   9.649  23.789   2.200
69226W        W40897  40.935  14.418  12.046
69227W        W40898  41.602  34.583   0.404
69228W        W40899  16.686  34.408   4.113
69229W        W40900  21.274   2.389   4.614
69230W        W40901  23.558  39.714  11.319
69231W        W40902  23.884  16.120  14.306
69232W        W40903  43.342  38.506  12.583
69233W        W40904  15.966  19.651  11.067
69234W        W40905   2.657  19.527   1.053
69235W        W40906   0.321  14.202   0.050
69236W        W40907  31.889   3.193   4.738
69237W        W40908   3.482  29.692   2.462
69238W        W40909   1.721  37.404  14.812
69239W        W40910  29.543   6.764   4.102
69240W        W40911   1.293  18.605  11.432
69241W        W40912  44.004  13.733   4.730
69242W        W40913   8.715  39.074   1.198
69243W        W40914  34.331  20.143  14.864
69244W        W40915  21.190  35.988  11.685
69245W        W40916  43.763  27.714  13.785
69246W        W40917  29.047  25.682  12.949
69247W        W40918  34.200  15.490   1.350
69248W        W40919  21.349  36.488  11.233
69249W        W40920   0.466  40.793  12.885
69250W        W40921  15.453  26.756   2.285
69251W        W40922  29.342  10.312   2.805
69252W        W40923  20.226   8.764  14.030
69253W        W40924  17.793   1.229  14.017
69254W        W40925  10.904   0.341  11.597
69255W        W40926   1.465   0.583  14.981
69256W        W40927  22.060  42.999  11.062
69257W        W40928  30.614  11.049  12.421
69258W        W40929  20.794  24.180   3.357
69259W        W40930  16.133   4.714  12.728
69260W        W40931  10.378  33.303  10.308
69261W        W40932  24.038   4.766   3.637
69262W        W40933  40.850  24.216   0.822
69263W        W40934  42.068  44.453  14.848
69264W        W40935  20.505  10.655   2.912
69265W        W40936  12.752  31.263   3.631
69266W        W40937   5.170  17.290  14.379
69267W        W40938  26.089  40.504   1.408
69268W        W40939  43.844  39.084  11.054
69269W        W40940  44.238  10.119  14.531
69270W        W40941  21.737   1.456  11.986
69271W        W40942  25.464  28.038  11.471
69272W        W40943  10.109  44.248  14.826
69273W        W40944  34.906  10.449  11.965
69274W        W40945   6.669  43.184   1.201
69275W        W40946  23.655  32.920  13.414
69276W        W40947   4.766  20.121   1.028
69277W        W40948  31.781   6.557   3.157
69278W        W40949  26.992  44.911   4.641
69279W        W40950  32.965   0.884   2.727
69280W        W40951   3.563  29.432  14.429
69281W        W40952   6.202   6.441   0.939
69282W        W40953  18.359  18.449   1.454
69283W        W40954  21.234  35.047   1.055
69284W        W40955  25.484  36.188  11.567
69285W        W40956  28.470  36.994   2.874
69286W        W40957  27.128  30.337   0.794
69287W        W40958  10.761  20.674   1.284
69288W        W40959  31.710   8.022   2.449
69289W        W40960   3.973  33.438  10.212
69290W        W40961  39.836  32.094   4.237
69291W        W40962   6.270  42.609   2.182
69292W        W40963  33.822  26.720   4.253
69293W        W40964  17.481  29.997  12.988
69294W        W40965  27.925  24.897  13.145
69295W        W40966   6.092   6.863  11.894
69296W        W40967  36.464  23.048   1.351
69297W        W40968   1.918  25.244   4.177
69298W        W40969  27.921   6.749   3.788
69299W        W40970  35.634   3.871   3.664
69300W        W40971   4.703   7.962   2.276
69301W        W40972  30.664  41.997  11.631
69302W        W40973  37.882  41.393  11.438
69303W        W40974  20.779  34.520   4.301
69304W        W40975  16.873  28.701   0.446
69305W        W40976  43.473  36.090   2.268
69306W        W40977  37.987  32.942  14.810
69307W        W40978  15.979   9.145  14.319
69308W        W40979  38.963  36.939   4.782
69309W        W40980   1.401  29.391  12.487
69310W        W40981  20.292   8.764   4.650
69311W        W40982   4.377  20.066   2.187
69312W        W40983  13.659  39.211   4.809
69313W        W40984  23.423  36.496  13.927
69314W        W40985  25.680   2.904   0.674
69315W        W40986  18.552  10.294  14.341
69316W        W40987  18.954  24.647   2.981
69317W        W40988  27.568  17.306  13.471
69318W        W40989  31.926  23.220   4.079
69319W        W40990  37.385  16.118   3.244
69320W        W40991   7.858   8.463   2.380
69321W        W40992  17.243  10.274  13.607
69322W        W40993   1.350  20.788   0.994
69323W        W40994  42.382   6.660  13.963
69324W        W40995  44.382  30.552   0.908
69325W        W40996  24.603  17.639  14.510
69326W        W40997  23.716  11.370  11.158
69327W        W40998   7.190  42.111   2.134
69328W        W40999  35.396  21.316   4.098
69329W        W41000  35.876   1.735   3.906
69330W        W41001  44.493  39.028  12.665
69331W        W41002  21.768  44.078   3.771
69332W        W41003   2.002  30.337   0.344
69333W        W41004  20.303  22.744  10.724
69334W        W41005   4.340  20.008   1.278
69335W        W41006  44.015  27.863  10.593
69336W        W41007  10.319   8.842  12.044
69337W        W41008   6.822   9.761   3.634
69338W        W41009  18.126  31.512  11.181
69339W        W41010  20.824  18.983  11.189
69340W        W41011  40.501  14.479   3.149
69341W        W41012   4.199  25.096   1.417
69342W        W41013  15.862  31.477  12.011
69343W        W41014  43.703  44.393   4.781
69344W        W41015   4.719  19.338   3.227
69345W        W41016  42.717  23.503   3.776
69346W        W41017   0.969  18.849  13.758
69347W        W41018  39.363  12.700   1.126
69348W        W41019  19.270  34.573  13.491
69349W        W41020  38.497  21.084  14.998
69350W        W41021  27.153  17.583  10.635
69351W        W41022  23.647  16.732  14.394
69352W        W41023  11.129   4.449  14.754
69353W        W41024   2.792  11.671  10.665
69354W        W41025  11.190  34.368   2.694
69355W        W41026  23.156   6.793   1.626
69356W        W41027  24.563  35.549   1.784
69357W        W41028   3.458  40.438   2.675
69358W        W41029  35.052  30.395  13.945
69359W        W41030   8.171  16.013   1.483
69360W        W41031   3.016  17.978   0.463
69361W        W41032  12.638  40.562   1.972
69362W        W41033  26.166   3.972   1.815
69363W        W41034  27.485   1.307  13.040
69364W        W41035  39.348   2.880   1.850
69365W        W41036   3.766  42.804   4.525
69366W        W41037   6.369   7.440   2.902
69367W        W41038  37.051  33.319   1.906
69368W        W41039   5.397  17.914   3.714
69369W        W41040  24.003  35.122  14.998
69370W        W41041  12.565  37.254  12.577
69371W        W41042  38.833  16.224  12.545
69372W        W41043   1.531  43.993   0.221
69373W        W41044  28.247  18.166  12.570
69374W        W41045  22.195  35.515   4.075
69375W        W41046   7.772  30.970  12.745
69376W        W41047  30.480   6.397  14.572
69377W        W41048  12.724  42.475   0.706
69378W        W41049  18.785  12.245  13.406
69379W        W41050  25.226  33.391   4.280
69380W        W41051  43.339  31.011  10.601
69381W        W41052  42.785  23.849  13.449
69382W        W41053  34.326  32.729  10.663
69383W        W41054  15.824  22.555  13.436
69384W        W41055  18.433  12.613   4.617
69385W        W41056  34.025  16.852  10.736
69386W        W41057   6.843  44.934   0.238
69387W        W41058   0.881  24.973   1.901
69388W        W41059  10.168  28.278   0.014
69389W        W41060  41.246  10.396  14.546
69390W        W41061  42.937   5.808   4.084
69391W        W41062  22.632   9.265  12.103
69392W        W41063  41.026  41.341   4.345
69393W        W41064   7.661   1.993   3.221
69394W        W41065  29.004  36.464   4.407
69395W        W41066  22.285   3.941   0.286
69396W        W41067  20.743  16.646  13.313
69397W        W41068  11.072  43.512  13.531
69398W        W41069   1.275  35.880   4.577
69399W        W41070  20.028  39.198   2.163
69400W        W41071  39.023   3.338   2.284
69401W        W41072  28.012  10.677   3.666
69402W        W41073  34.103   4.835  11.699
69403W        W41074  27.528   8.815  14.862
69404W        W41075  29.177  27.998  14.816
69405W        W41076  20.936   6.215  11.415
69406W        W41077  24.692   6.470   3.636
69407W        W41078  16.301  29.709   2.376
69408W        W41079   9.641   3.417  12.938
69409W        W41080  44.404  28.712   1.483
69410W        W41081  39.322  11.854   4.655
69411W        W41082  24.436  11.644   4.658
69412W        W41083  15.715  12.064  11.455
69413W        W41084   4.045  35.884  10.343
69414W        W41085  14.342   5.415  12.568
69415W        W41086  17.509  11.261   0.544
69416W        W41087  21.287  24.607  10.204
69417W        W41088  33.505   4.856   0.205
69418W        W41089   2.844  29.734  14.017
69419W        W41090  39.533  27.651  13.011
69420W        W41091  29.724  23.512   4.234
69421W        W41092  38.371  32.140   1.432
69422W        W41093   3.581   0.408   9.841
69423W        W41094  28.265   7.441  12.881
69424W        W41095  11.105  22.576   2.243
69425W        W41096  37.906  30.881   0.245
69426W        W41097  25.443  13.175   0.233
69427W        W41098  12.755   5.392  11.851
69428W        W41099  22.186  19.616  10.726
69429W        W41100  22.278  15.288  11.895
69430W        W41101  29.678   1.834  14.832
69431W        W41102  29.094  37.391   4.701
69432W        W41103   9.650  17.809  14.906
69433W        W41104   7.238   2.509  12.409
69434W        W41105  14.795  22.246   0.262
69435W        W41106  16.778  33.632  14.282
69436W        W41107  18.660  23.517  11.518
69437W        W41108  21.986   4.243   3.180
69438W        W41109  41.972  25.912   3.192
69439W        W41110  21.531  16.183   0.262
69440W        W41111  13.687  16.789   4.372
69441W        W41112  33.117  22.543  11.569
69442W        W41113  18.085  11.137  11.530
69443W        W41114  26.568   9.166   4.543
69444W        W41115   3.870  16.282  14.662
69445W        W41116  31.043  41.086   2.422
69446W        W41117  42.946  11.840  11.484
69447W        W41118  31.193  21.219  12.032
69448W        W41119  15.621  24.684  14.450
69449W        W41120  10.384  35.785   5.039
69450W        W41121  18.553  15.589  10.708
69451W        W41122  33.971  24.173  13.979
69452W        W41123  35.591  27.517   2.926
69453W        W41124  42.410  40.931  14.039
69454W        W41125   9.111  40.277  14.063
69455W        W41126  33.149  44.052   4.550
69456W        W41127  39.082  27.693   1.784
69457W        W41128   1.020   7.014   2.198
69458W        W41129  10.292  37.448   0.834
69459W        W41130  13.240  33.479  10.594
69460W        W41131  15.261  14.671  11.467
69461W        W41132  42.479  39.890   4.535
69462W        W41133   5.750  39.820   1.465
69463W        W41134   1.021   2.784   3.686
69464W        W41135  15.592   0.442   3.433
69465W        W41136   4.813  37.654  11.583
69466W        W41137  39.489   2.709   2.864
69467W        W41138  37.300  11.011  14.305
69468W        W41139   9.755  42.450   3.057
69469W        W41140  36.574  12.118  11.256
69470W        W41141  21.614  14.697   3.355
69471W        W41142  22.321  28.670   2.630
69472W        W41143   4.231   3.055  13.441
69473W        W41144  14.323  26.154   3.165
69474W        W41145   4.302  31.723  14.599
69475W        W41146   1.715  29.668  13.096
69476W        W41147   5.485  12.585  12.996
69477W        W41148  36.523  37.563   4.565
69478W        W41149   1.964   8.388  10.771
69479W        W41150  10.413  37.120   4.825
69480W        W41151   0.294  23.811   5.074
69481W        W41152  19.982  40.370  12.569
69482W        W41153   2.861  12.546   3.388
69483W        W41154   4.603  42.851   9.867
69484W        W41155  15.567  41.925  14.266
69485W        W41156   4.347  12.222   3.204
69486W        W41157  23.914   6.199   2.224
69487W        W41158  16.518  22.729   4.066
69488W        W41159  27.054  33.180   0.044
69489W        W41160  41.075  44.368   2.929
69490W        W41161  20.606  25.957   1.545
69491W        W41162   9.824  13.939  13.970
69492W        W41163   1.383  25.075  11.697
69493W        W41164   3.933  31.901   3.827
69494W        W41165  40.260  32.996  13.501
69495W        W41166  25.865  29.441   3.862
69496W        W41167  32.202  13.562  14.896
69497W        W41168  38.865  25.688   2.428
69498W        W41169  26.496   1.193  14.031
69499W        W41170  29.542  19.240  10.733
69500W        W41171  23.995  23.086  11.592
69501W        W41172  13.637  31.577  12.634
69502W        W41173   4.373  31.370   4.469
69503W        W41174  41.502  13.281  12.408
69504W        W41175   2.028  41.403  12.505
69505W        W41176  44.404  18.246   2.383
69506W        W41177  16.752   9.951  11.162
69507W        W41178  40.072  17.737  12.213
69508W        W41179  17.722   8.659   3.924
69509W        W41180  24.166  27.784  13.942
69510W        W41181  11.367  21.079   2.746
69511W        W41182  20.530  43.939   0.529
69512W        W41183  17.668  12.796   0.443
69513W        W41184  38.591  14.774   3.270
69514W        W41185   8.783  39.358  14.273
69515W        W41186  11.298  21.997  13.913
69516W        W41187  23.011  34.811   1.677
69517W        W41188  22.450   1.797   3.197
69518W        W41189  19.351  17.586  11.678
69519W        W41190   0.851  36.666   4.558
69520W        W41191  27.963  12.216  13.116
69521W        W41192  44.327  40.661   3.314
69522W        W41193   2.420  18.600   0.020
69523W        W41194  41.543  17.485  14.278
69524W        W41195  36.097  39.696   4.808
69525W        W41196  27.138   7.288   4.074
69526W        W41197  17.839  42.456   0.711
69527W        W41198  18.152   3.213  14.516
69528W        W41199  21.656   7.165   3.812
69529W        W41200   5.199  39.567  11.990
69530W        W41201  37.769  30.587   3.187
69531W        W41202  21.097  35.986   1.499
69532W        W41203  10.376  19.818   0.898
69533W        W41204  27.233  11.434  14.410
69534W        W41205   9.254  24.750  10.707
69535W        W41206  17.787  14.867  13.434
69536W        W41207  30.989   1.459  10.110
69537W        W41208   5.288  36.317   4.820
69538W        W41209  13.875  40.308  14.438
69539W        W41210  38.415   0.719  14.982
69540W        W41211  26.615  30.187   0.843
69541W        W41212   2.077  28.154  11.223
69542W        W41213  12.893  12.839   0.730
69543W        W41214  13.087  38.457  14.550
69544W        W41215  24.603  20.968  11.499
69545W        W41216  28.200  42.227   4.563
69546W        W41217  34.673   9.291  12.101
69547W        W41218  30.287  35.669   4.142
69548W        W41219   1.770  12.797   1.445
69549W        W41220  23.537   3.300   0.284
69550W        W41221  42.999   9.362  13.591
69551W        W41222  12.687  25.656   2.633
69552W        W41223  33.580  33.602  12.446
69553W        W41224   4.495  28.448  12.894
69554W        W41225  30.027   8.708  12.573
69555W        W41226  15.636  16.850  11.778
69556W        W41227  24.058   0.914   3.192
69557W        W41228  30.200  27.415   0.766
69558W        W41229  42.273   2.941  13.503
69559W        W41230   7.051  11.839  11.115
69560W        W41231  33.400  28.941  12.107
69561W        W41232  40.011  39.553   1.652
69562W        W41233  10.412  41.953   4.603
69563W        W41234  21.535  41.855  13.337
69564W        W41235  15.372  17.226  14.416
69565W        W41236   6.951  17.718   2.148
69566W        W41237  40.949  22.701   4.057
69567W        W41238  20.562   7.342   1.435
69568W        W41239   4.158  16.556   2.018
69569W        W41240  32.839  13.106   1.318
69570W        W41241  12.339  14.105   4.952
69571W        W41242  28.054  22.707  12.943
69572W        W41243  39.999  20.952  14.328
69573W        W41244  21.700  23.831   0.262
69574W        W41245  34.974  34.388   4.800
69575W        W41246  41.818  33.935  11.641
69576W        W41247  44.400   0.209   3.359
69577W        W41248  21.123  41.748  14.373
69578W        W41249  12.835   4.983  11.528
69579W        W41250  15.592  17.793  13.614
69580W        W41251   3.413  11.872   0.855
69581W        W41252  30.431  43.205  13.909
69582W        W41253  32.532   6.640  12.047
69583W        W41254   0.375  19.035   1.412
69584W        W41255  44.889  32.767  11.548
69585W        W41256  23.410  42.435  13.183
69586W        W41257  14.185  14.396  10.571
69587W        W41258  26.953  20.722  13.815
69588W        W41259  24.061  24.471  12.569
69589W        W41260  12.628  37.870  13.865
69590W        W41261  36.391  29.015   3.276
69591W        W41262  33.625   6.193  13.432
69592W        W41263  10.662  19.890   4.631
69593W        W41264  16.168  17.120  11.957
69594W        W41265   9.389  21.082  12.876
69595W        W41266  40.191  24.268  12.061
69596W        W41267  40.814  13.153   2.823
69597W        W41268  15.998  21.774   3.185
69598W        W41269   8.282   5.875  13.000
69599W        W41270  21.604   6.740   4.589
69600W        W41271  20.478  21.409   2.762
69601W        W41272  34.109  43.496   3.479
69602W        W41273  22.980  26.051   4.456
69603W        W41274   7.833   0.367  13.915
69604W        W41275  43.447  16.774   0.822
69605W        W41276  13.359   0.354   4.221
69606W        W41277  19.105  15.540  11.431
69607W        W41278  42.204  43.250  14.774
69608W        W41279  22.634  19.503  14.923
69609W        W41280  34.114  40.063   0.914
69610W        W41281   5.682   9.956   0.666
69611W        W41282  16.327  35.164  12.162
69612W        W41283  29.712  30.235   0.750
69613W        W41284  22.706  41.499  12.465
69614W        W41285  19.792  23.528  11.932
69615W        W41286  37.340   1.462  14.780
69616W        W41287   7.887   0.187  13.410
69617W        W41288  19.917   1.312   1.830
69618W        W41289   4.488  16.784   4.680
69619W        W41290  41.323  21.209  12.442
69620W        W41291  10.206   0.360  12.398
69621W        W41292  41.985  21.964   1.713
69622W        W41293  40.361   6.191  12.564
69623W        W41294  42.335  40.406   0.991
69624W        W41295  41.371  41.249  14.350
69625W        W41296  26.800  28.955  12.850
69626W        W41297   2.957  10.293   3.205
69627W        W41298  36.099  15.914  11.192
69628W        W41299   4.280  20.258   0.829
69629W        W41300  30.699  16.248  10.808
69630W        W41301  37.542  26.237  12.413
69631W        W41302  20.206  13.269  13.515
69632W        W41303   4.692  12.438  10.608
69633W        W41304  37.435  23.198  12.201
69634W        W41305  27.056  44.689  10.684
69635W        W41306  31.286  23.448   2.637
69636W        W41307  21.315  11.696   3.613
69637W        W41308  13.184  39.311   1.708
69638W        W41309  31.240  20.853  10.773
69639W        W41310  40.326  32.005  14.485
69640W        W41311  17.182   2.719  10.715
69641W        W41312  12.671   1.011   2.378
69642W        W41313  38.150  12.993   1.260
69643W        W41314   9.920   5.836   2.300
69644W        W41315   0.304   5.904  11.942
69645W        W41316   1.127  24.845   5.357
69646W        W41317  15.773  29.394   1.819
69647W        W41318  28.087  19.935  10.636
69648W        W41319  12.029  32.713  14.600
69649W        W41320  31.935  19.083  14.836
69650W        W41321  42.933  20.494  13.500
69651W        W41322  13.123  40.323   4.579
69652W        W41323   9.744  34.089  12.926
69653W        W41324   5.568  39.405  12.819
69654W        W41325  39.410  37.656   0.243
69655W        W41326  14.184  33.483  12.400
69656W        W41327  39.739  31.971  14.485
69657W        W41328  18.576   6.570   0.003
69658W        W41329  30.211   2.231  11.830
69659W        W41330  21.198  38.298  14.362
69660W        W41331   2.359  35.470   3.464
69661W        W41332  25.970  26.467  10.840
69662W        W41333  31.117   8.876   2.438
69663W        W41334   7.395  10.433  12.550
69664W        W41335  10.163  16.688  14.313
69665W        W41336  35.955  36.499   2.340
69666W        W41337   9.590  13.617  11.560
69667W        W41338  39.894  20.470  13.488
69668W        W41339  25.037  18.537  10.700
69669W        W41340  24.796   8.358  11.171
69670W        W41341  16.576  41.870  10.992
69671W        W41342   1.442  38.917  13.369
69672W        W41343  19.113   8.398  14.318
69673W        W41344  24.157  24.382  11.695
69674W        W41345   0.838  29.206   1.006
69675W        W41346  12.314  27.520  14.796
69676W        W41347  44.065  26.008   1.655
69677W        W41348  41.063   2.966  14.734
69678W        W41349  30.933  15.814  13.962
69679W        W41350   5.223  12.640  14.768
69680W        W41351  15.403  27.603  13.822
69681W        W41352  34.958   2.409  14.006
69682W        W41353   4.924  20.501  11.934
69683W        W41354  30.275  41.979   2.916
69684W        W41355   1.131  24.430   1.234
69685W        W41356   6.674  16.720  14.318
69686W        W41357  40.969  21.646  12.438
69687W        W41358  13.088   8.184  14.294
69688W        W41359  44.268   9.603  13.127
69689W        W41360   6.972  18.819   3.365
69690W        W41361  18.758  44.206  12.857
69691W        W41362  17.225   4.975  10.204
69692W        W41363   7.272  29.090  13.776
69693W        W41364   0.502   4.283  14.248
69694W        W41365  39.445  24.617   4.537
69695W        W41366  29.245  40.290   1.875
69696W        W41367  43.569  43.955  14.594
69697W        W41368   2.182  30.552  14.909
69698W        W41369  17.343  10.136   2.397
69699W        W41370  26.640  37.648   3.115
69700W        W41371  38.249   6.091   2.092
69701W        W41372  30.939  24.795   1.713
69702W        W41373  13.024  24.695  12.403
69703W        W41374  33.641   1.618   3.427
69704W        W41375  21.544  17.507  13.809
69705W        W41376  14.574  42.942  11.647
69706W        W41377  16.363  32.152   2.268
69707W        W41378  29.158  16.381   2.637
69708W        W41379  27.377  13.749   0.797
69709W        W41380  35.966   6.187  14.807
69710W        W41381   3.891  24.599  14.663
69711W        W41382  23.984  15.340  11.106
69712W        W41383   4.445  42.458   0.738
69713W        W41384  38.936  18.042   4.580
69714W        W41385  43.396  44.384  13.986
69715W        W41386  16.309  44.968  14.381
69716W        W41387  30.416  13.147   2.871
69717W        W41388  32.435  34.583  14.537
69718W        W41389  13.264  10.205   0.012
69719W        W41390   8.331  33.129  14.738
69720W        W41391  30.533  42.249   1.638
69721W        W41392   9.417  42.840   2.388
69722W        W41393  18.973  37.512  11.521
69723W        W41394   4.499   0.965   1.393
69724W        W41395  18.107  14.478   4.962
69725W        W41396  21.160  44.769  12.444
69726W        W41397  15.571   4.015  11.615
69727W        W41398  13.387  44.616   2.725
69728W        W41399   8.620  29.168  13.980
69729W        W41400  36.482   8.693   2.215
69730W        W41401  14.071  13.164  13.048
69731W        W41402  18.163  20.033  10.999
69732W        W41403  22.663  15.029   4.222
69733W        W41404   7.248   3.385  14.441
69734W        W41405  41.471  11.095   2.007
69735W        W41406  44.301   3.397   2.826
69736W        W41407  12.658  14.252  12.941
69737W        W41408  44.769  14.109   4.033
69738W        W41409  42.742  17.082   4.405
69739W        W41410  22.633  33.585   3.645
69740W        W41411  25.981  35.910   3.872
69741W        W41412   6.381   2.231   1.778
69742W        W41413   7.237  27.077   1.260
69743W        W41414   4.412  29.082   0.032
69744W        W41415  38.226  43.031  13.472
69745W        W41416  42.817  12.139   2.144
69746W        W41417  34.849   4.724   0.884
69747W        W41418  12.055  34.422   4.218
69748W        W41419  24.025  34.021   2.054
69749W        W41420   9.896   8.633  12.259
69750W        W41421  10.821  36.957   3.158
69751W        W41422  19.780  17.098   0.663
69752W        W41423   7.451   3.248   0.459
69753W        W41424  20.822  30.356   3.193
69754W        W41425   8.002  30.934   5.048
69755W        W41426   0.333  18.578   3.311
69756W        W41427  35.403  27.689  13.863
69757W        W41428  37.398  21.205  14.992
69758W        W41429   9.917  37.001  12.654
69759W        W41430  14.144  22.476  12.928
69760W        W41431  14.133  37.500   2.802
69761W        W41432  35.942   8.066  13.417
69762W        W41433   4.007   8.848  13.919
69763W        W41434  19.694  13.403   1.648
69764W        W41435   4.828  21.773   1.041
69765W        W41436  35.952   0.003  11.203
69766W        W41437  29.248  25.084  14.428
69767W        W41438  18.582  21.764  14.315
69768W        W41439   3.237  24.674   0.803
69769W        W41440  34.373   4.419  11.610
69770W        W41441   3.015   0.496   2.947
69771W        W41442  33.381  22.137   2.843
69772W        W41443  41.315  23.138   3.771
69773W        W41444   0.542  43.924   0.873
69774W        W41445   4.494   7.246  14.971
69775W        W41446  21.754  23.153  14.443
69776W        W41447  10.628  26.493  11.426
69777W        W41448  28.460  10.795   3.924
69778W        W41449   1.343  11.420  12.893
69779W        W41450  20.332  42.956  12.653
69780W        W41451  40.479  13.910   1.279
69781W        W41452  10.262  16.258   2.492
69782W        W41453  37.921  33.715  13.044
69783W        W41454  19.015  39.543   2.859
69784W        W41455  29.955  31.122   4.250
69785W        W41456   5.267   4.406  11.822
69786W        W41457  35.146  38.171   0.454
69787W        W41458  30.005  14.037   0.206
69788W        W41459   3.580  32.182  13.046
69789W        W41460  15.090   8.887  12.963
69790W        W41461   0.764  22.131  14.325
69791W        W41462   6.729   6.947  13.824
69792W        W41463  37.882  27.694  12.006
69793W        W41464  25.551  39.575   2.351
69794W        W41465  11.562  41.212   0.499
69795W        W41466   4.404  33.609   0.867
69796W        W41467  43.564   6.757   2.144
69797W        W41468  14.304  42.725  13.410
69798W        W41469  40.277  40.654   5.024
69799W        W41470  30.213  30.545  13.077
69800W        W41471  29.115  28.999  13.866
69801W        W41472  17.152   0.069   2.375
69802W        W41473   9.460   6.861  13.966
69803W        W41474   6.708  17.943  11.612
69804W        W41475  33.432  28.748   1.932
69805W        W41476  14.727  39.040   3.330
69806W        W41477   9.835  26.923  13.417
69807W        W41478  36.091  20.571   1.390
69808W        W41479   0.369  24.258   1.730
69809W        W41480  23.628   6.378   2.680
69810W        W41481  28.121  20.821   0.562
69811W        W41482  11.206   7.819  13.192
69812W        W41483  26.496  32.094   2.928
69813W        W41484   5.601  24.297  11.201
69814W        W41485  34.890  17.794  12.482
69815W        W41486  18.662  21.012  10.224
69816W        W41487  38.000  39.598   4.462
69817W        W41488  11.876  21.808   1.673
69818W        W41489  31.634  18.039   0.663
69819W        W41490   4.993  19.510   2.820
69820W        W41491  36.925  37.015   5.076
69821W        W41492  36.228  13.233  11.846
69822W        W41493  43.723  30.065  10.499
69823W        W41494  22.690  24.524   1.011
69824W        W41495  17.374  21.953   1.352
69825W        W41496  16.144  33.951   3.061
69826W        W41497  42.723   6.227   4.289
69827W        W41498  20.251  27.605   2.887
69828W        W41499  24.576  14.847  14.976
69829W        W41500  21.563   0.022   3.081
69830W        W41501  21.772  25.187  14.410
69831W        W41502  42.449  38.838   0.761
69832W        W41503  35.078  36.089  12.340
69833W        W41504  34.092  37.104  13.560
69834W        W41505  16.224  43.685  14.826
69835W        W41506  38.397  14.320   1.833
69836W        W41507  25.949   2.908   4.096
69837W        W41508  25.647  24.171   3.928
69838W        W41509  43.029  25.594  13.198
69839W        W41510  38.472  27.625  13.173
69840W        W41511  43.568  34.474   2.654
69841W        W41512  13.299   0.235   2.204
69842W        W41513  14.744  13.729   0.297
69843W        W41514  29.885  25.709  11.439
69844W        W41515  22.509  13.486  13.870
69845W        W41516  19.042   9.597  14.800
69846W        W41517  42.075  22.511   3.693
69847W        W41518  25.302  33.222   0.976
69848W        W41519  14.245  24.440   2.646
69849W        W41520  17.149   6.814  12.276
69850W        W41521  10.807  40.006  14.968
69851W        W41522  41.840   0.256  13.209
69852W        W41523  14.167  35.081  14.770
69853W        W41524  17.237  41.369  11.945
69854W        W41525  27.936  25.869  12.823
69855W        W41526  25.672  14.796   1.606
69856W        W41527  13.592  22.771   0.726
69857W        W41528  35.163  36.883  12.059
69858W        W41529  33.650   9.228  11.264
69859W        W41530  44.016  40.727   2.793
69860W        W41531  38.807   4.665  12.388
69861W        W41532  40.374  29.626  13.485
69862W        W41533  38.407  10.701  11.585
69863W        W41534  10.837  36.842   1.311
69864W        W41535  13.730  16.877  14.053
69865W        W41536  31.154   5.951  13.928
69866W        W41537  13.581  34.349   0.359
69867W        W41538  35.272  13.995  12.001
69868W        W41539  32.375   9.105  12.447
69869W        W41540  30.098   3.062   3.690
69870W        W41541  29.435   9.226  14.831
69871W        W41542  26.006  31.693   3.735
69872W        W41543  10.193   0.514  10.990
69873W        W41544   9.692  41.468  13.793
69874W        W41545  29.472  28.106  11.731
69875W        W41546   2.779   3.864   4.387
69876W        W41547   6.629  36.402  11.264
69877W        W41548  12.096  44.883  10.462
69878W        W41549  30.955   4.194   0.881
69879W        W41550   8.256  37.613   3.121
69880W        W41551  44.292  21.450   0.251
69881W        W41552   7.701  14.581  10.458
69882W        W41553  26.148  36.570   1.776
69883W        W41554   5.816  14.788   0.501
69884W        W41555  41.545  29.535   1.657
69885W        W41556  37.954  33.206  12.983
69886W        W41557  44.560   0.065  12.544
69887W        W41558   6.540  17.465  13.943
69888W        W41559  44.477  35.897   2.252
69889W        W41560  31.244  23.524   1.880
69890W        W41561  43.760  33.459  13.520
69891W        W41562  42.540  17.151   1.367
69892W        W41563  28.681   2.892   2.184
69893W        W41564   4.441  22.959   1.874
69894W        W41565  44.807  21.294   3.436
69895W        W41566  12.737  14.777  11.619
69896W        W41567  22.071  20.542  11.660
69897W        W41568  35.346  26.128   0.366
69898W        W41569  17.968  24.512  10.388
69899W        W41570  39.404  10.703  11.382
69900W        W41571  13.817  22.933   2.304
69901W        W41572   0.761  41.255  11.102
69902W        W41573  25.689  21.728  12.472
69903W        W41574  31.221  35.935  14.812
69904W        W41575   0.938   8.522  12.507
69905W        W41576   7.771  22.519   0.448
69906W        W41577  30.951  26.554   0.391
69907W        W41578  34.396   9.211   2.899
69908W        W41579  31.891  38.945  12.481
69909W        W41580  22.164  29.052   2.929
69910W        W41581  10.295  12.199  11.495
69911W        W41582  36.059  37.019  10.696
69912W        W41583  17.354  24.037  12.456
69913W        W41584  12.584  13.398  11.827
69914W        W41585  13.820   9.686  12.909
69915W        W41586  27.036  25.046  14.852
69916W        W41587  25.987   6.324  11.794
69917W        W41588  14.588  27.935  13.787
69918W        W41589  40.966  24.123  13.627
69919W        W41590  27.123  15.095  11.600
69920W        W41591   5.231  25.245   3.195
69921W        W41592  18.243  24.528   4.680
69922W        W41593  28.246  21.456   3.566
69923W        W41594  42.726  39.722  11.103
69924W        W41595  34.552  40.084  14.998
69925W        W41596  10.601  34.523   1.535
69926W        W41597   9.137  39.586  13.454
69927W        W41598  14.635  33.142  10.528
69928W        W41599   8.871  27.882   1.262
69929W        W41600  27.888  33.219   1.459
69930W        W41601  30.793  20.436   1.297
69931W        W41602  10.778  37.517   1.057
69932W        W41603  40.776   8.851   4.858
69933W        W41604  31.854  33.904   0.695
69934W        W41605  18.702  10.671   4.368
69935W        W41606  21.203   0.853  11.001
69936W        W41607   6.353  13.793  13.118
69937W        W41608  39.405  27.079   1.346
69938W        W41609  14.058   7.428   1.454
69939W        W41610   2.183  16.654   4.420
69940W        W41611  42.997  35.981  10.744
69941W        W41612  27.008  33.504   4.855
69942W        W41613   9.422  18.406   3.049
69943W        W41614  20.533  34.936  11.020
69944W        W41615  11.892   2.777   2.314
69945W        W41616  10.837   4.878  12.053
69946W        W41617  37.492  24.620   1.969
69947W        W41618  38.911   9.744  13.925
69948W        W41619  40.893   6.069   4.431
69949W        W41620   2.181  32.789  11.097
69950W        W41621  44.499   6.210   2.603
69951W        W41622  39.849  32.468   1.912
69952W        W41623  14.721  29.948   4.252
69953W        W41624  22.211  26.553  11.474
69954W        W41625  25.595  21.641   2.277
69955W        W41626   3.355  16.042  14.546
69956W        W41627  16.678  33.153   2.212
69957W        W41628  34.925  10.851  10.631
69958W        W41629  20.950  11.349  12.420
69959W        W41630  33.124  43.476   1.814
69960W        W41631  34.986  14.833   0.382
69961W        W41632   9.778  27.931  13.375
69962W        W41633  44.386  18.225  10.694
69963W        W41634  32.083  35.349  12.527
69964W        W41635  13.783  30.895  11.260
69965W        W41636   9.987   7.241  14.490
69966W        W41637  18.376   6.848   0.846
69967W        W41638   3.211  23.453   2.600
69968W        W41639  25.715  11.775  10.726
69969W        W41640  31.264  32.777  12.663
69970W        W41641   7.955  18.194  11.445
69971W        W41642  36.849  30.588  11.243
69972W        W41643  44.068  13.594  10.735
69973W        W41644  17.936  15.874  12.090
69974W        W41645   3.245   5.088   1.630
69975W        W41646  17.534  14.986  14.410
69976W        W41647  28.879  11.821   4.880
69977W        W41648  31.904  24.615   3.497
69978W        W41649  33.080   8.821  13.531
69979W        W41650   6.236  31.605  11.665
69980W        W41651  25.529  19.978  13.721
69981W        W41652  40.625  29.218   4.833
69982W        W41653  34.050  34.945   0.771
69983W        W41654  33.357  35.341  10.985
69984W        W41655  41.725   0.860   4.318
69985W        W41656  18.022   9.788   1.142
69986W        W41657  18.295  34.442  13.038
69987W        W41658  40.708  42.373  14.352
69988W        W41659  37.777  22.705  12.891
69989W        W41660   9.335  39.577   0.780
69990W        W41661  29.423   3.930  14.906
69991W        W41662  10.748   0.021  14.960
69992W        W41663  21.616  27.052   1.173
69993W        W41664  13.975  31.912  10.549
69994W        W41665  28.973  15.361  13.397
69995W        W41666  32.339  30.074  10.916
69996W        W41667   9.666   8.427   1.373
69997W        W41668   3.080  10.681   1.400
69998W        W41669  27.101   5.509   2.430
69999W        W41670  24.434  44.429   3.371
70000W        W41671   5.195  18.136  12.124
70001W        W41672   0.050  38.915  13.330
70002W        W41673   3.357   4.489   0.782
70003W        W41674  30.655  15.281  14.843
70004W        W41675   0.639  36.368  11.084
70005W        W41676  26.229   1.975  11.959
70006W        W41677   0.788  44.946  13.547
70007W        W41678  44.684  22.471   2.787
70008W        W41679   2.088  10.392   4.296
70009W        W41680  19.410  33.435  13.090
70010W        W41681  37.102  11.406  12.794
70011W        W41682   3.466  40.863   2.392
70012W        W41683   8.474  23.255  12.859
70013W        W41684  36.507  37.321  10.639
70014W        W41685  43.502  12.166  13.309
70015W        W41686   4.177  15.250   4.589
70016W        W41687  18.963  37.303  11.071
70017W        W41688  16.677  32.987  13.623
70018W        W41689  43.323  11.566   1.387
70019W        W41690   2.393  39.411   3.230
70020W        W41691  43.337  38.468   9.798
70021W        W41692   2.318  20.506  14.719
70022W        W41693  30.457   0.004  13.488
70023W        W41694  25.471  17.021   0.305
70024W        W41695  41.737  28.441  10.582
70025W        W41696  37.971  14.116   3.604
70026W        W41697  26.050   5.344   3.844
70027W        W41698  37.227  29.641   3.030
70028W        W41699  13.683  13.292  10.991
70029W        W41700   2.909  12.273  11.930
70030W        W41701  33.152  10.695   4.251
70031W        W41702  24.244  40.209  11.852
70032W        W41703  23.794  17.037  14.957
70033W        W41704  27.055  22.259   0.416
70034W        W41705  32.959  39.858  11.628
70035W        W41706  36.863  24.680   2.579
70036W        W41707   4.247  34.542   4.691
70037W        W41708  16.067   4.213  12.535
70038W        W41709  33.121  34.631   4.415
70039W        W41710  43.837   9.952   0.497
70040W        W41711  13.835   4.724   4.800
70041W        W41712  27.238   0.311   3.463
70042W        W41713  16.731  25.388   4.672
70043W        W41714  43.289   4.352  10.698
70044W        W41715  31.660  42.688   1.697
70045W        W41716  12.669   3.734   3.278
70046W        W41717  16.079   4.426   1.250
70047W        W41718  14.604  19.298  12.907
70048W        W41719  35.380   0.223   3.219
70049W        W41720  12.831   8.828  10.654
70050W        W41721  12.122  42.131   3.871
70051W        W41722  32.630  40.973  12.419
70052W        W41723  30.252   3.235   3.226
70053W        W41724  41.369  35.163   0.413
70054W        W41725   2.155   4.803   3.873
70055W        W41726  12.444  10.033   2.712
70056W        W41727  19.771  12.571  14.358
70057W        W41728  24.530  40.218   0.555
70058W        W41729   7.208  35.364   0.368
70059W        W41730  18.208  19.988  12.489
70060W        W41731  10.134  26.456  14.533
70061W        W41732  30.774   3.499   4.985
70062W        W41733  10.659   6.864  13.032
70063W        W41734  24.579   2.762  14.905
70064W        W41735  25.158   9.515  11.529
70065W        W41736  24.630   0.386  13.488
70066W        W41737  26.936   6.659  10.591
70067W        W41738  31.006   3.770   3.338
70068W        W41739  16.762  26.508  12.822
70069W        W41740   9.290  40.946   1.431
70070W        W41741  20.583  23.356   2.689
70071W        W41742  41.583   4.327  10.874
70072W        W41743   7.513  43.122  12.048
70073W        W41744  25.388   3.859   3.137
70074W        W41745  40.062  22.100  11.595
70075W        W41746  30.180  39.537  13.060
70076W        W41747  20.368  13.512  11.492
70077W        W41748   5.053  16.321  10.668
70078W        W41749  36.940  19.223  12.446
70079W        W41750  39.463  39.960   1.726
70080W        W41751  18.335  19.444  11.697
70081W        W41752  39.375  43.382  12.808
70082W        W41753  38.045   8.811  10.150
70083W        W41754  34.153  39.196   5.502
70084W        W41755  41.202  38.846   9.754
70085W        W41756  18.596  39.335  10.678
70086W        W41757  20.719  16.141   1.391
70087W        W41758  42.366  35.008  14.267
70088W        W41759  30.726  31.167   3.279
70089W        W41760   4.342   4.323  11.072
70090W        W41761  31.625  29.968  11.586
70091W        W41762  42.292  27.967  12.602
70092W        W41763  10.812   2.205   0.562
70093W        W41764  31.844  26.417   2.507
70094W        W41765   3.890  16.114  11.559
70095W        W41766  44.460  35.500  14.113
70096W        W41767  40.212  22.165  14.969
70097W        W41768  15.666   8.189   1.175
70098W        W41769  20.577   2.119   4.145
70099W        W41770   5.561  34.548   4.076
70100W        W41771   8.826  31.430  10.672
70101W        W41772   2.333  17.024  14.774
70102W        W41773  24.560  19.059   1.894
70103W        W41774   9.456  10.781  11.082
70104W        W41775  15.622  24.505  13.934
70105W        W41776   7.271   6.472   2.344
70106W        W41777  20.799  37.031   1.011
70107W        W41778  34.790  36.647  13.978
70108W        W41779  36.519  28.323   4.111
70109W        W41780  27.169   8.215  13.507
70110W        W41781  21.625  38.901   2.209
70111W        W41782  31.810  39.838   3.882
70112W        W41783  41.314  21.259  14.054
70113W        W41784  41.859  43.547   4.007
70114W        W41785   4.959  25.696   5.092
70115W        W41786   2.001   2.503   1.619
70116W        W41787  40.613  26.812   4.008
70117W        W41788  18.648   3.517   3.918
70118W        W41789  34.930  35.752  13.628
70119W        W41790  20.988  32.835  14.900
70120W        W41791  17.724  18.249  12.377
70121W        W41792  11.354  41.220   1.712
70122W        W41793  30.123  38.570   2.305
70123W        W41794  20.358   9.752  11.106
70124W        W41795  33.629  20.750   0.770
70125W        W41796  37.483  36.309  14.310
70126W        W41797  20.848  17.074  14.401
70127W        W41798  44.344  42.206  12.137
70128W        W41799  38.831  31.761  10.714
70129W        W41800  39.921  10.301  12.627
70130W        W41801   8.642  22.059  13.065
70131W        W41802  20.731  23.592   3.823
70132W        W41803  29.842  37.374  13.564
70133W        W41804  21.464  36.435  14.280
70134W        W41805   9.671  21.796  13.363
70135W        W41806  14.115  15.434   2.688
70136W        W41807   4.431   1.293   4.221
70137W        W41808  31.619  36.516  11.876
70138W        W41809  44.263  33.518  13.537
70139W        W41810  40.024  12.589  13.530
70140W        W41811   8.668  30.891  11.493
70141W        W41812  41.359  12.680  13.841
70142W        W41813  42.246  39.368   3.230
70143W        W41814  31.688  34.020   3.831
70144W        W41815  12.148  43.075  10.953
70145W        W41816  39.253  41.247   2.746
70146W        W41817  31.107  23.085  11.459
70147W        W41818  39.450   5.103  10.375
70148W        W41819  44.481  41.292  14.386
70149W        W41820   1.759  41.495   0.691
70150W        W41821  18.125  43.437  12.872
70151W        W41822  15.371   1.329  14.372
70152W        W41823  16.550  19.670  14.601
70153W        W41824  31.997  37.906   0.022
70154W        W41825  33.090  18.046   2.262
70155W        W41826  15.674  35.172  11.414
70156W        W41827   9.669  16.831  12.211
70157W        W41828  38.785  12.473   4.118
70158W        W41829   8.302  30.593   1.179
70159W        W41830   6.441  43.804   0.468
70160W        W41831  44.858   2.912  13.020
70161W        W41832  15.301  19.993   1.571
70162W        W41833  43.609  36.429  14.961
70163W        W41834  11.994  35.871   4.124
70164W        W41835  31.771  17.743   2.184
70165W        W41836  43.839  33.574  11.197
70166W        W41837  21.230  44.725   2.786
70167W        W41838   0.757   9.363  12.898
70168W        W41839  41.703  10.192   3.579
70169W        W41840  12.043  33.613  11.948
70170W        W41841  40.558  22.408   0.928
70171W        W41842   0.367  25.401  11.757
70172W        W41843  20.084  15.805  14.313
70173W        W41844  34.953  36.585  12.434
70174W        W41845  37.937  18.973  12.323
70175W        W41846   9.321  19.324   0.994
70176W        W41847   3.478  36.507   5.072
70177W        W41848  11.090   2.851   4.155
70178W        W41849  28.177  10.314  12.573
70179W        W41850  22.641  17.083  14.102
70180W        W41851  14.772  42.428   1.725
70181W        W41852  36.275   1.897  14.060
70182W        W41853  12.346   1.389   1.313
70183W        W41854  32.149  14.763  12.392
70184W        W41855  16.556  17.655   3.722
70185W        W41856  28.117  16.164   0.464
70186W        W41857   9.743   3.964   3.661
70187W        W41858   1.257  23.052   4.575
70188W        W41859  28.232  12.889   1.715
70189W        W41860  38.380  18.116   4.570
70190W        W41861   9.888  19.724   3.776
70191W        W41862  27.571  31.873  13.384
70192W        W41863  31.141   4.109   3.764
70193W        W41864  32.902  38.995   2.243
70194W        W41865  35.393   6.656   1.433
70195W        W41866  13.141  33.189  11.015
70196W        W41867  27.716   5.639   0.980
70197W        W41868   0.407  21.176  14.450
70198W        W41869   4.816   8.968  13.443
70199W        W41870  10.136  27.525  14.482
70200W        W41871  25.222  35.369  13.875
70201W        W41872  13.271  24.683  13.322
70202W        W41873  20.010  33.809   4.584
70203W        W41874   2.266  22.955   4.814
70204W        W41875  10.076   7.346  13.485
70205W        W41876   6.908   3.000   2.861
70206W        W41877  13.547  21.614   1.347
70207W        W41878  32.540  25.957  14.447
70208W        W41879  13.984   0.927   4.836
70209W        W41880  41.900  31.678  14.745
70210W        W41881  32.638  41.857   4.163
70211W        W41882  34.866  15.485  13.892
70212W        W41883   7.724  10.106  12.875
70213W        W41884  32.705  18.730  12.837
70214W        W41885   4.864  32.070  13.303
70215W        W41886   5.671  31.430   0.821
70216W        W41887  24.107  28.208   3.687
70217W        W41888  42.718  42.730  11.477
70218W        W41889   6.145   4.737   4.508
70219W        W41890   4.804  17.044   3.705
70220W        W41891  19.575  21.978  12.184
70221W        W41892  42.946  26.735   3.623
70222W        W41893  32.925  37.320   0.895
70223W        W41894  40.311  23.628   2.855
70224W        W41895  26.508  18.663   1.934
70225W        W41896  12.401  42.297   2.403
70226W        W41897  26.819  34.358   2.639
70227W        W41898  31.706  28.928  13.443
70228W        W41899  41.775  36.525   3.212
70229W        W41900  29.872  24.053   2.015
70230W        W41901  10.074  42.401  11.050
70231W        W41902  12.798  30.006  13.210
70232W        W41903  16.233   2.722  13.137
70233W        W41904  23.024  21.158  10.700
70234W        W41905   1.903   9.811  12.416
70235W        W41906   6.400  35.673  13.588
70236W        W41907  12.295  10.845  13.231
70237W        W41908   3.219  20.756  13.684
70238W        W41909  42.726   4.676   0.730
70239W        W41910  36.642   7.751  14.774
70240W        W41911  22.604  20.758   0.348
70241W        W41912  37.626   3.409   4.113
70242W        W41913   8.727  42.043  11.054
70243W        W41914  37.621   7.356  14.496
70244W        W41915   2.365  33.243   3.267
70245W        W41916  36.047  44.086  12.095
70246W        W41917  15.157  27.534   4.001
70247W        W41918  23.744  11.392  12.969
70248W        W41919  43.185  33.036  10.160
70249W        W41920  24.882  23.372   1.192
70250W        W41921   2.438  35.866   0.847
70251W        W41922   4.341  24.632  14.408
70252W        W41923  23.567  29.877   3.715
70253W        W41924  15.781  36.596   0.420
70254W        W41925  36.823  22.062   4.804
70255W        W41926   3.340  19.692  13.199
70256W        W41927   8.345  36.170   0.849
70257W        W41928  31.639   9.553   1.445
70258W        W41929  14.761  44.799  13.942
70259W        W41930  16.477  43.334   4.496
70260W        W41931  33.006  13.737  13.805
70261W        W41932  27.595  38.097  12.354
70262W        W41933  12.100  36.862  13.489
70263W        W41934  40.794  30.122   4.670
70264W        W41935  38.114  43.543  11.114
70265W        W41936  42.328  13.570  11.955
70266W        W41937   5.857  31.959  12.441
70267W        W41938  19.364  43.233   0.759
70268W        W41939  42.763  22.114   4.044
70269W        W41940  21.298  37.580   3.187
70270W        W41941  38.258  40.706   4.438
70271W        W41942  35.066  32.411   3.706
70272W        W41943  10.961   4.851  11.205
70273W        W41944  21.482  12.689  11.117
70274W        W41945  37.023   4.897   0.765
70275W        W41946   5.950   4.490   4.110
70276W        W41947  15.822   1.765   1.324
70277W        W41948   4.404  13.759  13.952
70278W        W41949   9.286   1.808   2.223
70279W        W41950   7.338   7.939  13.466
70280W        W41951  26.489  40.300  14.850
70281W        W41952  30.511  14.627   0.428
70282W        W41953  23.417  22.974   1.911
70283W        W41954   8.677  40.921  12.888
70284W        W41955   1.874  31.532   2.196
70285W        W41956  26.522  31.635   3.677
70286W        W41957  27.100   9.905  12.798
70287W        W41958  39.096  23.134   0.540
70288W        W41959  33.407  11.705   0.029
70289W        W41960  39.837  33.384   2.657
70290W        W41961  18.832   8.716  14.885
70291W        W41962  34.183  33.538  14.368
70292W        W41963  11.638  43.934  14.338
70293W        W41964  41.541  14.903   2.126
70294W        W41965  29.601  35.989   0.314
70295W        W41966  24.014  23.204  13.795
70296W        W41967  39.534  14.344  13.024
70297W        W41968  28.827  31.657  14.258
70298W        W41969  25.386  26.463  12.106
70299W        W41970   5.078  27.469   1.001
70300W        W41971  32.936  27.106   4.586
70301W        W41972   6.733  42.029   1.290
70302W        W41973  20.787  34.451  14.053
70303W        W41974  26.216  26.520  11.361
70304W        W41975  29.162  17.899   2.777
70305W        W41976   1.978  18.030   0.457
70306W        W41977  20.062   8.480  11.557
70307W        W41978  37.403  44.343  10.471
70308W        W41979  36.272  40.770   2.299
70309W        W41980  21.570  35.518  12.836
70310W        W41981  41.152  17.618   2.163
70311W        W41982  10.067   2.179  12.533
70312W        W41983   1.517   1.935   4.300
70313W        W41984  23.343  26.408   4.213
70314W        W41985  20.306   8.428   1.676
70315W        W41986  21.482  15.436   0.750
70316W        W41987  29.758   8.252   4.978
70317W        W41988  28.548  11.533  13.354
70318W        W41989  40.335  44.474   4.549
70319W        W41990  29.853  17.760   3.276
70320W        W41991  13.525  40.022  13.097
70321W        W41992   8.375  41.383   4.199
70322W        W41993  40.486  44.562  14.815
70323W        W41994  14.726  30.035  10.469
70324W        W41995  19.190  29.943  12.032
70325W        W41996   4.909   7.070   4.263
70326W        W41997   4.079  18.149   1.419
70327W        W41998  38.998  17.580  12.793
70328W        W41999  30.584  28.476  12.444
70329W        W42000  20.268  32.822   0.402
70330W        W42001  20.406  27.719  12.467
70331W        W42002   1.351   2.917  12.359
70332W        W42003   4.536   6.289  10.473
70333W        W42004  43.211  14.008   2.335
70334W        W42005   7.216   7.766   0.502
70335W        W42006  29.392  14.611  14.124
70336W        W42007  17.974  28.640   1.825
70337W        W42008  21.971  43.882   1.897
70338W        W42009   9.705   0.476   2.723
70339W        W42010  10.680  30.372   4.078
70340W        W42011  44.335  12.480   1.682
70341W        W42012  12.217  26.449   9.968
70342W        W42013  15.264  23.497  11.483
70343W        W42014  34.436  43.369   1.072
70344W        W42015  43.432  29.651   4.308
70345W        W42016  38.603  22.571   3.676
70346W        W42017   3.925  18.541  11.814
70347W        W42018  38.957  17.200  11.572
70348W        W42019   4.444  21.824  12.388
70349W        W42020  44.518  33.570   1.308
70350W        W42021   9.104  30.567  11.574
70351W        W42022   8.373  23.014   1.531
70352W        W42023  28.780  13.752  14.114
70353W        W42024  26.717  43.080   3.801
70354W        W42025  19.269  28.629  10.520
70355W        W42026   1.331  16.212   0.937
70356W        W42027   8.460  33.786   2.747
70357W        W42028  44.110   2.195   3.150
70358W        W42029  15.525  10.080  11.518
70359W        W42030  11.197  34.900   1.417
70360W        W42031  41.791  43.731   3.171
70361W        W42032  18.960  15.696   4.424
70362W        W42033  41.041   4.291  11.031
70363W        W42034  25.796   7.945  11.187
70364W        W42035  39.715  21.042  12.586
70365W        W42036   2.721  30.873   1.866
70366W        W42037   0.217  42.604  14.667
70367W        W42038  29.374  11.233  12.920
70368W        W42039  25.814  32.373   3.412
70369W        W42040  21.754   8.600   4.849
70370W        W42041   8.837  23.608  10.572
70371W        W42042  41.254  16.802   4.013
70372W        W42043  23.446   4.744   0.771
70373W        W42044  17.516  25.392   0.378
70374W        W42045  31.961  21.797   4.583
70375W        W42046  12.446   6.194  12.138
70376W        W42047  36.984   1.787  13.594
70377W        W42048   0.398   1.335  13.628
70378W        W42049   0.372  22.777  14.367
70379W        W42050  12.263  42.907  13.791
70380W        W42051  16.044  39.501   1.806
70381W        W42052   8.748  14.738   1.871
70382W        W42053  21.073  21.478   1.613
70383W        W42054  14.455  43.221   1.228
70384W        W42055  18.635  15.276   4.588
70385W        W42056  18.934  44.981   2.183
70386W        W42057  39.065  25.974  12.261
70387W        W42058   3.329  40.339   1.095
70388W        W42059  38.390  26.929   1.253
70389W        W42060  15.031  13.543  12.706
70390W        W42061  19.706  32.089  10.604
70391W        W42062   6.683  36.859   3.198
70392W        W42063   5.485  25.702   1.240
70393W        W42064   8.321  44.341   0.297
70394W        W42065  15.584  18.163  10.681
70395W        W42066  21.705  18.569   2.447
70396W        W42067   7.096  19.569   0.500
70397W        W42068  23.030  19.573  11.496
70398W        W42069  30.550  40.573   4.645
70399W        W42070  32.410  23.118  11.304
70400W        W42071  31.708  37.950   3.732
70401W        W42072   6.880  41.787  14.983
70402W        W42073  16.526  25.484   2.868
70403W        W42074  14.130  17.189   0.673
70404W        W42075  14.159  29.608  12.581
70405W        W42076   9.323   8.442  13.293
70406W        W42077  42.430  17.591   3.345
70407W        W42078  11.125   7.812   4.544
70408W        W42079  30.864  19.165   4.728
70409W        W42080  40.608   4.780  14.795
70410W        W42081   1.080  22.543  10.572
70411W        W42082  18.756  11.414   1.149
70412W        W42083  22.684  37.397   1.031
70413W        W42084   8.690  29.871  10.733
70414W        W42085   6.948   8.674  14.805
70415W        W42086  17.241  23.247  10.912
70416W        W42087   3.939  28.086   3.592
70417W        W42088  15.011   4.670  10.430
70418W        W42089  32.126  20.993  12.833
70419W        W42090  32.209  31.299  11.895
70420W        W42091  32.670  37.375  12.061
70421W        W42092   6.267  10.662  12.466
70422W        W42093  23.985  40.734   4.970
70423W        W42094  24.929  27.762   3.707
70424W        W42095   6.188  14.286  14.814
70425W        W42096  17.215  25.108  11.241
70426W        W42097  19.288  10.333   3.252
70427W        W42098  23.258  43.417   3.978
70428W        W42099  42.622  33.138   3.703
70429W        W42100  21.281   3.695  12.504
70430W        W42101  41.694   4.774  11.486
70431W        W42102  11.268   0.813   2.865
70432W        W42103   4.940  32.529   5.180
70433W        W42104  22.723  13.221   1.829
70434W        W42105   9.453  30.244  10.402
70435W        W42106  31.479   0.966  13.092
70436W        W42107  24.090  16.945  14.536
70437W        W42108  35.328  35.524   3.594
70438W        W42109  24.051   3.144   0.296
70439W        W42110  16.717   9.343  12.113
70440W        W42111  36.858  19.616  12.115
70441W        W42112  33.153  14.193   1.751
70442W        W42113  22.001   3.114   0.811
70443W        W42114   1.775   0.313  12.159
70444W        W42115  37.090  39.560  11.450
70445W        W42116  12.846  14.924  12.102
70446W        W42117  32.582  17.110   2.226
70447W        W42118   6.763  18.826   0.987
70448W        W42119  38.814  19.822  11.124
70449W        W42120  22.344  44.284  12.968
70450W        W42121  11.106  22.756  13.722
70451W        W42122  37.915  24.663  11.646
70452W        W42123  11.787  22.218   0.000
70453W        W42124  29.656  44.106   0.440
70454W        W42125  17.621  40.470   2.893
70455W        W42126  34.555  23.126  10.719
70456W        W42127  22.122   2.794   2.689
70457W        W42128   3.291   6.692  12.355
70458W        W42129  15.050   7.362   1.218
70459W        W42130  41.449  10.659   3.669
70460W        W42131   6.921   0.628  10.149
70461W        W42132  37.393   6.394  13.018
70462W        W42133  28.482  22.212  13.996
70463W        W42134   6.736  39.341   3.107
70464W        W42135   2.746  40.777  12.470
70465W        W42136   6.749  44.674   4.753
70466W        W42137  12.832  14.157   4.774
70467W        W42138  28.461   8.309  14.248
70468W        W42139  13.634  33.482   4.686
70469W        W42140  38.327  38.276  13.862
70470W        W42141  29.907   0.236   4.045
70471W        W42142  23.567   4.262   1.792
70472W        W42143  15.803  26.152   3.124
70473W        W42144  37.175  31.844   0.746
70474W        W42145  25.961  19.692  13.020
70475W        W42146   2.268  19.928   0.299
70476W        W42147  44.482  18.633   5.155
70477W        W42148  23.269  23.600   4.608
70478W        W42149  11.548   3.514   4.974
70479W        W42150  29.363  44.498  13.526
70480W        W42151  28.485  31.955  12.034
70481W        W42152   0.998  30.262  12.519
70482W        W42153  15.202  24.820  12.563
70483W        W42154   9.880   4.432  12.969
70484W        W42155  16.075  36.449  11.600
70485W        W42156  41.071  31.374   4.026
70486W        W42157  28.856  18.309   2.223
70487W        W42158  10.331  30.576   3.727
70488W        W42159  25.544  14.050   4.655
70489W        W42160  32.441  43.946  14.971
70490W        W42161  41.410  30.500   0.068
70491W        W42162   9.889  10.928  12.991
70492W        W42163  26.675   4.499  12.300
70493W        W42164   2.375  33.750  13.149
70494W        W42165   4.920  20.916   3.271
70495W        W42166  40.023  16.017  13.877
70496W        W42167   0.511  13.325  12.199
70497W        W42168   0.359  36.826   2.143
70498W        W42169  34.810  42.347  14.858
70499W        W42170   7.089  33.983  13.478
70500W        W42171  26.749  20.915   3.717
70501W        W42172  22.821  19.532  11.978
70502W        W42173   6.204  44.291  14.713
70503W        W42174   9.715   5.157   0.798
70504W        W42175   6.344   7.163   3.350
70505W        W42176  39.310   2.475   1.059
70506W        W42177  26.726   1.196   2.773
70507W        W42178  24.194  20.531  13.474
70508W        W42179  38.921  44.532  10.659
70509W        W42180  29.734  14.922  13.886
70510W        W42181  21.265  28.256   1.707
70511W        W42182   8.501   0.264   4.425
70512W        W42183  15.897   5.917  12.186
70513W        W42184  10.313  32.998  10.772
70514W        W42185  28.177  23.150  10.134
70515W        W42186  24.925  42.991   1.383
70516W        W42187  20.366   8.553   0.369
70517W        W42188  43.287  29.188  11.305
70518W        W42189  42.017  14.599  10.610
70519W        W42190  15.526  19.098  13.927
70520W        W42191  16.032  22.511   4.241
70521W        W42192  14.709  40.318  11.916
70522W        W42193  32.725  19.854   4.519
70523W        W42194   7.173   2.731  14.364
70524W        W42195  24.930  25.210   2.448
70525W        W42196  27.189  19.273  12.601
70526W        W42197  29.030   0.182   3.655
70527W        W42198  10.454   5.392  11.512
70528W        W42199  12.227   7.837   3.170
70529W        W42200  16.470   1.258   0.743
70530W        W42201  26.284  32.944   1.870
70531W        W42202  12.055  35.606  10.909
70532W        W42203  31.291  41.933   4.678
70533W        W42204  22.490  28.551   0.856
70534W        W42205  10.325   4.721   3.562
70535W        W42206  31.459  33.144  13.821
70536W        W42207  27.100  17.682   0.808
70537W        W42208  22.698  43.063  14.894
70538W        W42209  18.410  36.281   0.121
70539W        W42210  41.516   4.347   1.736
70540W        W42211  38.863   2.918   1.638
70541W        W42212  41.814  14.144   3.631
70542W        W42213  16.716   9.920  12.990
70543W        W42214   5.174  12.147   3.650
70544W        W42215  33.808   4.898   4.049
70545W        W42216  20.863  35.136   0.707
70546W        W42217  10.192   9.170   2.841
70547W        W42218   5.273  40.467   3.862
70548W        W42219   7.238   1.251  12.932
70549W        W42220   4.077  23.522  12.853
70550W        W42221  37.394  39.696   5.513
70551W        W42222  17.985  16.281   2.231
70552W        W42223  41.995  14.682  13.961
70553W        W42224  14.760   4.765  12.963
70554W        W42225  32.046   7.180  14.411
70555W        W42226  19.852  42.371  14.709
70556W        W42227  27.007  12.337  12.923
70557W        W42228   0.242  27.069  10.789
70558W        W42229   8.842  11.910   3.231
70559W        W42230  29.494  20.589   0.753
70560W        W42231  24.558  30.451  14.463
70561W        W42232  12.679  32.601   2.294
70562W        W42233  12.908  17.528   1.823
70563W        W42234  19.357  34.874   4.584
70564W        W42235  19.663  33.067  12.846
70565W        W42236  11.651  28.062  14.432
70566W        W42237  41.395  19.613  12.918
70567W        W42238  19.315  23.513  10.301
70568W        W42239  23.281  32.091  11.460
70569W        W42240  29.400  12.901   0.695
70570W        W42241  37.919  12.888   5.098
70571W        W42242   8.606  12.278   0.266
70572W        W42243  40.426  38.728  12.047
70573W        W42244  22.298  11.684   3.989
70574W        W42245  44.915  38.480   3.368
70575W        W42246  26.456  25.465  13.807
70576W        W42247  35.408  21.745  13.803
70577W        W42248  33.976  21.400  10.755
70578W        W42249  29.339  31.672  14.421
70579W        W42250  21.616  43.234   2.823
70580W        W42251  37.871  41.437   1.526
70581W        W42252   4.688  26.857  11.427
70582W        W42253  10.912   2.982  11.180
70583W        W42254  34.669  41.037  14.394
70584W        W42255  10.466   0.253   2.287
70585W        W42256  18.744  44.765   4.053
70586W        W42257  29.233  25.592   2.279
70587W        W42258  13.149  33.014   1.360
70588W        W42259  32.379  41.077   3.692
70589W        W42260   6.904  43.912   0.685
70590W        W42261  11.663  30.308  12.438
70591W        W42262  38.800  26.611   3.778
70592W        W42263   4.941  36.776  14.870
70593W        W42264  38.373  20.956   1.664
70594W        W42265   5.739  19.570   0.788
70595W        W42266  42.186  15.515  12.431
70596W        W42267  33.378  18.164   0.273
70597W        W42268  19.056  32.300  14.037
70598W        W42269   8.130  11.579   4.367
70599W        W42270  43.873  27.929  14.550
70600W        W42271  16.769  31.783  12.061
70601W        W42272  35.593  37.283   9.811
70602W        W42273  28.000  42.856   3.418
70603W        W42274  17.084  31.543  12.541
70604W        W42275   2.252  13.221   4.753
70605W        W42276   7.255  18.782  11.615
70606W        W42277  17.112  43.672   3.284
70607W        W42278  29.229   9.338   4.961
70608W        W42279  31.337  36.550   1.256
70609W        W42280  11.181  32.393  11.416
70610W        W42281  22.663  38.896  11.384
70611W        W42282  35.020  33.707  10.802
70612W        W42283  42.359  21.463  14.494
70613W        W42284  12.816  19.863   1.762
70614W        W42285  42.935  23.001  14.541
70615W        W42286  38.814  43.050  11.638
70616W        W42287  30.114  29.533   4.181
70617W        W42288   9.694  31.579   4.091
70618W        W42289  35.112  26.996  13.489
70619W        W42290  43.943  27.629  11.477
70620W        W42291  20.530  37.527   0.976
70621W        W42292  29.016   2.843   3.153
70622W        W42293  26.557  30.550  11.904
70623W        W42294  16.581  43.304   0.451
70624W        W42295  42.896  34.954  10.735
70625W        W42296  18.792  36.498   0.403
70626W        W42297  34.540  41.930  14.990
70627W        W42298  18.714   8.597  11.917
70628W        W42299  14.847  17.607  14.054
70629W        W42300   7.299  42.520  12.458
70630W        W42301   4.874  29.441   1.247
70631W        W42302  23.685  28.105  14.780
70632W        W42303  38.441  12.464   2.627
70633W        W42304  25.574  11.237   1.762
70634W        W42305  29.506  24.005   0.682
70635W        W42306  37.467  31.135  11.565
70636W        W42307  31.398   2.266  12.452
70637W        W42308  44.819  17.853  13.495
70638W        W42309  31.656  39.842   2.250
70639W        W42310   6.833  17.626  13.023
70640W        W42311  15.295  26.070  10.691
70641W        W42312  15.762  19.187  12.587
70642W        W42313  43.929  23.129  10.221
70643W        W42314  11.944  38.067   2.575
70644W        W42315  22.976  40.969   9.849
70645W        W42316   6.369  14.649   2.888
70646W        W42317  41.830  28.212  11.614
70647W        W42318   2.367  41.306   3.411
70648W        W42319  17.965  44.300  13.329
70649W        W42320  28.968  12.701  10.898
70650W        W42321  14.583  10.859   1.857
70651W        W42322  21.869  28.860   3.303
70652W        W42323  19.401  32.553   2.768
70653W        W42324  37.100  42.327  14.771
70654W        W42325  44.059   5.992   1.224
70655W        W42326  24.573   0.600   0.862
70656W        W42327  21.004  14.930   0.385
70657W        W42328  33.512   2.410   2.801
70658W        W42329  27.562  40.840  14.912
70659W        W42330  43.963  11.778  11.587
70660W        W42331   7.602  11.893  13.589
70661W        W42332  38.916  20.798  14.924
70662W        W42333   0.340  21.240   2.564
70663W        W42334  34.817  26.680  12.568
70664W        W42335  24.775  42.085   4.879
70665W        W42336  27.271  44.007  11.648
70666W        W42337   4.434  38.644  10.487
70667W        W42338  29.152  21.990   3.199
70668W        W42339  35.768  34.911   4.489
70669W        W42340  39.330  26.058   0.222
70670W        W42341  29.274  13.142   2.371
70671W        W42342  16.493   8.240   1.632
70672W        W42343  23.680   1.971   4.719
70673W        W42344  30.866  31.272   2.644
70674W        W42345  15.867  24.446   0.976
70675W        W42346   2.542   3.434  11.705
70676W        W42347  23.067   7.557   0.213
70677W        W42348  41.924  11.836  12.185
70678W        W42349   9.264   9.233  12.920
70679W        W42350  20.771  35.887  12.549
70680W        W42351   4.880  21.784  10.925
70681W        W42352  28.253  44.792   0.357
70682W        W42353   3.412  32.359  12.566
70683W        W42354  33.256   7.803  12.115
70684W        W42355  23.275  41.472  11.224
70685W        W42356  11.718  40.815  12.517
70686W        W42357  14.772   0.008   0.804
70687W        W42358   3.674  27.216   3.723
70688W        W42359  41.833  35.299   2.174
70689W        W42360  12.850   2.699  12.422
70690W        W42361   0.229  23.962   2.696
70691W        W42362  33.020   0.307  14.307
70692W        W42363  28.879  13.663  13.257
70693W        W42364  13.392  15.309  12.651
70694W        W42365   0.344  30.024  11.305
70695W        W42366  28.054  28.189   2.750
70696W        W42367  43.967  16.353  11.205
70697W        W42368  31.556  20.155   1.279
70698W        W42369  15.162   3.218   4.505
70699W        W42370   2.734  12.775  12.969
70700W        W42371  20.571  25.353   4.450
70701W        W42372  18.577  15.358   3.143
70702W        W42373  30.427  41.904   2.427
70703W        W42374  41.993  30.293  10.767
70704W        W42375  33.150   5.351  13.006
70705W        W42376   9.990  34.499  14.466
70706W        W42377   4.117   3.660   2.489
70707W        W42378  10.281  32.347   4.457
70708W        W42379  30.452  36.425   2.395
70709W        W42380  39.885  44.716  14.040
70710W        W42381   1.783  12.217   1.854
70711W        W42382  10.619  12.594   0.760
70712W        W42383  15.322  18.559  11.614
70713W        W42384  22.985   8.443   3.759
70714W        W42385  37.904  44.832   0.834
70715W        W42386  41.876  26.581  14.997
70716W        W42387  30.138  40.446   4.976
70717W        W42388  29.178  42.860  10.376
70718W        W42389  39.838  10.219   1.492
70719W        W42390  14.622  24.751   4.211
70720W        W42391  13.151  26.591  13.760
70721W        W42392   7.520  20.536   3.921
70722W        W42393  10.591   8.641   2.291
70723W        W42394  26.075  28.538   0.766
70724W        W42395   0.407  13.571   5.549
70725W        W42396   5.411  44.179   0.334
70726W        W42397  28.383   1.726  13.643
70727W        W42398  43.720  35.963  14.290
70728W        W42399  37.018  13.900   4.124
70729W        W42400  13.872  14.264  10.951
70730W        W42401  11.439  39.867   3.129
70731W        W42402  43.024  32.196  12.657
70732W        W42403  40.418   0.347   3.040
70733W        W42404  22.672  10.678   1.386
70734W        W42405  42.827  41.133   4.794
70735W        W42406   2.402  22.661  10.400
70736W        W42407  29.830  38.794   0.330
70737W        W42408  19.953   9.765   3.376
70738W        W42409  32.125  24.616  14.794
70739W        W42410  14.292  16.235   0.257
70740W        W42411  41.771   1.340   3.642
70741W        W42412  22.666  16.329   0.873
70742W        W42413  19.209  21.446   1.711
70743W        W42414  44.347  31.982  10.731
70744W        W42415  40.478   4.211   4.412
70745W        W42416  15.785   9.736  11.052
70746W        W42417  13.143   5.196   3.360
70747W        W42418  16.088  21.989   4.106
70748W        W42419  28.213  26.607  13.319
70749W        W42420  24.991   9.946   0.916
70750W        W42421  36.850   9.842  12.339
70751W        W42422  35.367  12.285  11.554
70752W        W42423  39.964  35.284  12.478
70753W        W42424  21.679   4.755  13.310
70754W        W42425  42.826  16.996  13.350
70755W        W42426   9.055   2.422  12.598
70756W        W42427  35.121   8.402  10.313
70757W        W42428  36.579   1.201   5.035
70758W        W42429   2.227  14.134   4.703
70759W        W42430   5.123  22.611  11.660
70760W        W42431  37.549  25.961  11.104
70761W        W42432  31.394  31.579   1.305
70762W        W42433  30.339  34.393   3.934
70763W        W42434  14.609  36.722   0.627
70764W        W42435  35.011  34.644   3.001
70765W        W42436   6.145  14.219   5.027
70766W        W42437  39.390  18.679  12.111
70767W        W42438  34.638  14.807   0.856
70768W        W42439  43.059   6.753   2.156
70769W        W42440  39.810   1.968  14.512
70770W        W42441  25.461  26.427  14.957
70771W        W42442   4.304  41.336  11.045
70772W        W42443  25.155  43.754   1.833
70773W        W42444  19.860   9.753  11.158
70774W        W42445  28.393  30.385  12.223
70775W        W42446  19.190  31.707  12.006
70776W        W42447  26.341  30.977  14.591
70777W        W42448  13.128  39.338  12.031
70778W        W42449  33.204  18.644  12.554
70779W        W42450  30.882  11.775   3.061
70780W        W42451  19.029  44.351   4.565
70781W        W42452  32.655  42.970   3.874
70782W        W42453  42.563   8.460   0.311
70783W        W42454   3.134   8.177   0.683
70784W        W42455   8.405  18.072  14.081
70785W        W42456  30.177  26.748   0.044
70786W        W42457  44.454   3.132   4.144
70787W        W42458  34.049  37.764   2.791
70788W        W42459  25.158   9.858   3.109
70789W        W42460  16.162  34.152  12.824
70790W        W42461  31.571  25.139   4.191
70791W        W42462  30.865  42.842   2.778
70792W        W42463  14.714  44.431   1.670
70793W        W42464  25.401  35.253   1.744
70794W        W42465  21.979  38.053  11.590
70795W        W42466   1.397  25.922   1.427
70796W        W42467  28.319  37.521   2.552
70797W        W42468  20.951  37.250  12.923
70798W        W42469   0.160  35.471  13.486
70799W        W42470  43.266  21.712  13.061
70800W        W42471   2.788  26.965   0.856
70801W        W42472   2.498   8.808  13.847
70802W        W42473   5.091  40.532   1.292
70803W        W42474  34.507  17.836   0.520
70804W        W42475  21.709  38.314   0.018
70805W        W42476   0.392  26.594   2.168
70806W        W42477   6.178   0.378  13.926
70807W        W42478  42.285  27.230  14.441
70808W        W42479  27.468   9.115   0.290
70809W        W42480   1.177  13.906  12.018
70810W        W42481  21.500  32.360   4.139
70811W        W42482  37.538   3.924   4.331
70812W        W42483  13.046  31.874  13.354
70813W        W42484  21.750  18.119  12.903
70814W        W42485  37.875  24.220  11.915
70815W        W42486   5.416  13.661  14.977
70816W        W42487  29.200  30.123  10.936
70817W        W42488  21.444  13.464   1.997
70818W        W42489  35.062  19.097  13.865
70819W        W42490  40.923  24.304   0.313
70820W        W42491  16.300  26.289  10.205
70821W        W42492   3.947  37.089  11.566
70822W        W42493  18.049  32.619   0.306
70823W        W42494  22.538   1.082   4.272
70824W        W42495  26.937  17.999   1.551
70825W        W42496  27.028  18.148   1.051
70826W        W42497   5.179  41.527   2.395
70827W        W42498   3.849  42.264   4.563
70828W        W42499   3.265  36.996   2.794
70829W        W42500  30.504  29.956   0.741
70830W        W42501   9.163  39.315  11.489
70831W        W42502  16.127  43.582  14.154
70832W        W42503  41.228  25.988   2.704
70833W        W42504  16.231   3.621   5.020
70834W        W42505  12.723  44.219   4.005
70835W        W42506  31.513  37.839  10.556
70836W        W42507   9.275  41.392   2.337
70837W        W42508  12.350  11.772   1.367
70838W        W42509   4.944  14.515   2.835
70839W        W42510  31.157  25.105   1.228
70840W        W42511  28.907  37.561  11.048
70841W        W42512  35.936   8.216  14.449
70842W        W42513   6.690  31.201  11.964
70843W        W42514  30.690  11.114  14.314
70844W        W42515   8.160  24.130  12.027
70845W        W42516   5.831   8.602   2.232
70846W        W42517   6.662  20.859  14.511
70847W        W42518  36.332  37.104   0.743
70848W        W42519   8.925   2.220  13.463
70849W        W42520   4.842  34.529   2.775
70850W        W42521  44.864  37.374  10.703
70851W        W42522  41.330   2.718  12.995
70852W        W42523   2.917   8.344  10.720
70853W        W42524  40.922  36.793   3.292
70854W        W42525   2.426   3.920   3.491
70855W        W42526  35.622   2.110   1.609
70856W        W42527  12.803  39.748  12.111
70857W        W42528  24.368   2.815  11.598
70858W        W42529  34.091  30.656  11.968
70859W        W42530  27.142   2.926   4.725
70860W        W42531  12.284  10.789   1.377
70861W        W42532  40.899  30.950  10.789
70862W        W42533  36.432   8.415  12.951
70863W        W42534  39.223  29.007  14.390
70864W        W42535   0.192  39.632   4.635
70865W        W42536  18.170  26.389   2.230
70866W        W42537  38.209   7.526   3.641
70867W        W42538  20.625  27.786   4.660
70868W        W42539  22.168   0.360   4.341
70869W        W42540  27.148  17.491  12.879
70870W        W42541  13.657  28.591  14.679
70871W        W42542  44.062  25.709   2.091
70872W        W42543  32.969   0.458  10.822
70873W        W42544   9.681  42.455  11.383
70874W        W42545  16.238   5.963  11.599
70875W        W42546  18.011  16.292  13.897
70876W        W42547  28.042   2.699  14.470
70877W        W42548  34.717  31.705   2.367
70878W        W42549  16.424  34.637  13.782
70879W        W42550   5.916  42.936  10.538
70880W        W42551  38.828  10.172   1.272
70881W        W42552  30.707  16.620  11.157
70882W        W42553  33.052  22.230  13.639
70883W        W42554  19.192  11.727  12.141
70884W        W42555  32.589  15.720   4.867
70885W        W42556  44.823  39.550  11.561
70886W        W42557  25.980  34.841  13.388
70887W        W42558   6.805  40.274   2.911
70888W        W42559  38.162  37.350   3.749
70889W        W42560   2.481  21.466   0.364
70890W        W42561  41.804   9.568   2.369
70891W        W42562  38.119  22.266   4.127
70892W        W42563  12.790  21.352   4.800
70893W        W42564  27.918  41.294   4.395
70894W        W42565  13.744   2.198   4.178
70895W        W42566  12.093  19.787   2.366
70896W        W42567  11.426  42.506  10.876
70897W        W42568   0.726  12.255   1.804
70898W        W42569  32.403  34.063  14.378
70899W        W42570   8.851   8.631  12.514
70900W        W42571  44.507  13.678   4.979
70901W        W42572  23.814  28.507  13.249
70902W        W42573  38.091  24.976   4.570
70903W        W42574   8.369   9.345  14.415
70904W        W42575  14.539  19.520   1.811
70905W        W42576   1.279  34.022  12.347
70906W        W42577  43.543  40.499   2.775
70907W        W42578  11.651   1.141  12.529
70908W        W42579  44.042   0.478   4.744
70909W        W42580  39.929  30.037  11.869
70910W        W42581  14.681  44.667   5.150
70911W        W42582  22.815  35.642  13.713
70912W        W42583   7.838  18.191   0.955
70913W        W42584  40.782  33.565   3.713
70914W        W42585  37.901   5.284  12.070
70915W        W42586  21.752  25.298   1.853
70916W        W42587  15.876  35.003   5.054
70917W        W42588  31.337  34.115  11.593
70918W        W42589  43.949  19.208   1.260
70919W        W42590  39.300  44.424   1.990
70920W        W42591  31.066  25.097   4.683
70921W        W42592  25.609  40.344  14.973
70922W        W42593   8.796  40.779  10.685
70923W        W42594  18.837  29.451  14.385
70924W        W42595   9.700  17.138  12.637
70925W        W42596  33.836  18.109   4.821
70926W        W42597  15.917  39.478  12.010
70927W        W42598  20.183  38.283   2.103
70928W        W42599  33.842  17.252  10.383
70929W        W42600  17.077  24.136   3.648
70930W        W42601   7.305  26.250   2.307
70931W        W42602  39.495  36.490  13.139
70932W        W42603  17.621  16.415   1.798
70933W        W42604  41.205   0.959   0.959
70934W        W42605  42.374  23.045  12.900
70935W        W42606  24.078  44.376  12.583
70936W        W42607  34.536  31.112  13.914
70937W        W42608  35.584  36.508   3.691
70938W        W42609  27.832   2.469   4.141
70939W        W42610  19.329  25.752   3.397
70940W        W42611  41.467   3.867   4.677
70941W        W42612  30.939   6.297   2.835
70942W        W42613  11.004   5.966   0.049
70943W        W42614  32.078  27.561   0.363
70944W        W42615   3.773  21.511   4.151
70945W        W42616  10.335  17.760   1.668
70946W        W42617  37.647  27.701  12.489
70947W        W42618  16.497   3.632  13.138
70948W        W42619  39.872  44.766   0.971
70949W        W42620  19.610  26.176   3.305
70950W        W42621  42.473  40.602  11.951
70951W        W42622  11.224  24.738   4.740
70952W        W42623  11.196   6.812   1.627
70953W        W42624   5.942  32.742   4.147
70954W        W42625  24.733  11.217   3.443
70955W        W42626  30.544   1.361  13.118
70956W        W42627   0.606   8.135  12.121
70957W        W42628   4.450  30.038  14.999
70958W        W42629  16.328  23.120   4.347
70959W        W42630  10.889  11.311   4.763
70960W        W42631  34.342  39.387   3.028
70961W        W42632  31.794  37.038   2.278
70962W        W42633  28.091   4.157   2.728
70963W        W42634  26.670  41.789   4.278
70964W        W42635  31.776  19.774  12.408
70965W        W42636   7.356  42.475  11.046
70966W        W42637   9.726  29.372   3.097
70967W        W42638   2.013  24.694  12.157
70968W        W42639  37.013   3.732   2.940
70969W        W42640   2.845  10.485  10.182
70970W        W42641  22.194   4.826  13.316
70971W        W42642  16.219  28.023   2.876
70972W        W42643  29.648  42.510   1.724
70973W        W42644  36.640   7.977   4.194
70974W        W42645  23.077  23.153   3.574
70975W        W42646  42.455   7.349   3.727
70976W        W42647   5.471  18.671   4.469
70977W        W42648  22.593  44.086   2.569
70978W        W42649   8.209   9.256   4.509
70979W        W42650  43.058  11.199  14.805
70980W        W42651  13.842  15.968  12.909
70981W        W42652   6.841   5.238   3.092
70982W        W42653  27.011  28.152   3.443
70983W        W42654  19.178   3.212  10.791
70984W        W42655  36.399  44.319   1.716
70985W        W42656  33.894   7.697  13.520
70986W        W42657   9.111  40.127  13.552
70987W        W42658   0.424  40.062   1.356
70988W        W42659  34.630  41.296  13.794
70989W        W42660  32.847  26.925   4.116
70990W        W42661  27.950  21.156  13.876
70991W        W42662  41.705  40.987  11.955
70992W        W42663  25.474  44.034  11.568
70993W        W42664  20.300  38.774   2.014
70994W        W42665  31.432  31.597   2.787
70995W        W42666  11.369  19.540   1.759
70996W        W42667  38.134  11.466   2.788
70997W        W42668  20.092  25.837   1.372
70998W        W42669  39.875  11.275  13.027
70999W        W42670   0.772  15.397  12.118
71000W        W42671   0.929   1.209   2.417
71001W        W42672  21.085  24.079   9.961
71002W        W42673  36.882  21.057   3.918
71003W        W42674  13.866  30.946  12.879
71004W        W42675  11.711  31.113  11.651
71005W        W42676   9.750   1.297   0.804
71006W        W42677  38.755  30.968   0.812
71007W        W42678  11.438  35.751  12.777
71008W        W42679   0.438  40.585   1.280
71009W        W42680  15.219  32.986   4.989
71010W        W42681  29.474  10.472   0.231
71011W        W42682   9.237  14.751  10.478
71012W        W42683  20.523  24.304  12.648
71013W        W42684  30.633  14.123  13.394
71014W        W42685  35.994  33.100  13.072
71015W        W42686  36.460   8.719  13.351
71016W        W42687  40.613  44.677  12.297
71017W        W42688  27.534  14.165   4.096
71018W        W42689   9.430  12.721  14.241
71019W        W42690  27.304   6.376   0.487
71020W        W42691   4.458  22.501  14.671
71021W        W42692  35.116   3.911   3.595
71022W        W42693   9.371  20.205   1.864
71023W        W42694  18.675  35.392  13.329
71024W        W42695   3.620   1.885  13.045
71025W        W42696  34.371   4.534   0.695
71026W        W42697  21.037  38.285   0.745
71027W        W42698  20.498  13.221   1.020
71028W        W42699   7.357  41.710   3.119
71029W        W42700  14.544  39.358   3.723
71030W        W42701   2.207  32.112   2.830
71031W        W42702  20.829  24.516  13.986
71032W        W42703  26.948  22.682   3.346
71033W        W42704  35.935  18.800   2.166
71034W        W42705   8.351   2.380  11.281
71035W        W42706  11.642  30.211   3.206
71036W        W42707  23.955  33.290  11.230
71037W        W42708  10.921  18.379  10.839
71038W        W42709  16.403  31.952  10.656
71039W        W42710  30.133   5.499   3.864
71040W        W42711  42.493   8.329  11.403
71041W        W42712  11.334  14.422   2.105
71042W        W42713   9.309  39.053  11.928
71043W        W42714   2.644  20.672   5.212
71044W        W42715  28.298  22.580   0.001
71045W        W42716  14.509   3.486   2.297
71046W        W42717   0.889  38.535   3.422
71047W        W42718  31.236  11.596  12.070
71048W        W42719  18.148  24.120   5.054
71049W        W42720  26.879  31.951  13.883
71050W        W42721   7.239  24.587   1.659
71051W        W42722  35.639  37.996   0.422
71052W        W42723  22.358  28.495  10.053
71053W        W42724  26.809  12.984   2.158
71054W        W42725  37.437  17.045   3.604
71055W        W42726  19.933   7.886   3.735
71056W        W42727   5.447   1.976   2.744
71057W        W42728  40.676  11.678   3.266
71058W        W42729  42.219  37.452   0.521
71059W        W42730  30.799  38.959  10.672
71060W        W42731  41.929   0.005   3.972
71061W        W42732  33.850  13.753  10.437
71062W        W42733   5.934  32.387   2.448
71063W        W42734  10.445   3.898   0.093
71064W        W42735  29.513   7.856   1.311
71065W        W42736  21.779  25.266   4.162
71066W        W42737  11.359  38.113  13.027
71067W        W42738  20.152  29.326   2.233
71068W        W42739   2.370  41.953   1.733
71069W        W42740  28.366  43.739   1.370
71070W        W42741   8.098  39.058  13.093
71071W        W42742  41.761  27.605  10.743
71072W        W42743  28.655  26.761   3.140
71073W        W42744  40.068  18.084   4.872
71074W        W42745  40.225  27.633   0.260
71075W        W42746  12.201  14.584   2.574
71076W        W42747  21.264  28.072   0.313
71077W        W42748  19.169  37.751   1.894
71078W        W42749  10.176   0.242   1.816
71079W        W42750  37.879   1.290  14.344
71080W        W42751  38.458   2.251  11.165
71081W        W42752  39.607  16.247   0.080
71082W        W42753  42.942  27.806   0.435
71083W        W42754  28.086   4.161  14.547
71084W        W42755  30.636  30.377  12.412
71085W        W42756   5.645  20.714  13.735
71086W        W42757  27.361   8.604   0.338
71087W        W42758   0.883  40.321  14.332
71088W        W42759  18.327  10.728  14.598
71089W        W42760  42.512  42.625  12.722
71090W        W42761  21.261  31.106  14.039
71091W        W42762  44.590   8.888  12.395
71092W        W42763  40.936  20.154   2.323
71093W        W42764  12.182  37.312  13.706
71094W        W42765  15.623  38.841   2.320
71095W        W42766  44.427  18.044   3.816
71096W        W42767  26.646   3.228  10.759
71097W        W42768   9.665  33.854   2.133
71098W        W42769  43.039   0.096  13.331
71099W        W42770   9.200  25.684   2.654
71100W        W42771   9.097  32.962   1.983
71101W        W42772  37.386  36.156   5.026
71102W        W42773  36.877  16.467  13.824
71103W        W42774  39.645  39.216   1.348
71104W        W42775  30.104   2.271   0.738
71105W        W42776  44.814  44.380  10.693
71106W        W42777   7.918   0.694   2.317
71107W        W42778  32.153  43.079   1.941
71108W        W42779  38.238  12.818   3.136
71109W        W42780   1.254  35.176  14.906
71110W        W42781  40.717  12.113  14.973
71111W        W42782   8.739  12.582  10.545
71112W        W42783   0.215  30.147  12.152
71113W        W42784  15.743  42.325   3.638
71114W        W42785   7.885  15.231   1.688
71115W        W42786  29.488  30.650  10.887
71116W        W42787  35.020  34.464  14.728
71117W        W42788  25.043   4.260   3.847
71118W        W42789  20.464  26.537  11.649
71119W        W42790   2.072  25.886   2.313
71120W        W42791  43.590   9.877  14.554
71121W        W42792   8.242   4.737  13.671
71122W        W42793  11.400  11.243   1.634
71123W        W42794  28.580   9.635  10.292
71124W        W42795  10.174  30.867   4.560
71125W        W42796  43.373  13.113   3.279
71126W        W42797  12.088  20.618  11.579
71127W        W42798  13.386  19.765  10.866
71128W        W42799  37.293   8.692  12.038
71129W        W42800  21.524  25.920  13.066
71130W        W42801  41.409  14.154   1.394
71131W        W42802  22.228   1.437   4.460
71132W        W42803  24.486  10.629   1.144
71133W        W42804  35.902  16.278   2.418
71134W        W42805   0.731   9.019  14.339
71135W        W42806   7.633  18.966  14.898
71136W        W42807  40.626  39.772  13.733
71137W        W42808   9.771  15.497   1.880
71138W        W42809  22.573  34.887  14.887
71139W        W42810  44.487  29.247   1.375
71140W        W42811  10.431   8.316   4.096
71141W        W42812  43.224   6.859  12.260
71142W        W42813  36.604   7.635  12.336
71143W        W42814   4.666  43.238  11.532
71144W        W42815   3.441  43.577  11.892
71145W        W42816  22.465  12.296   1.220
71146W        W42817   5.176  26.559  10.005
71147W        W42818  12.117   9.884   0.366
71148W        W42819  30.009  27.693   4.061
71149W        W42820  41.967  35.649  14.978
71150W        W42821  19.201  16.680   4.032
71151W        W42822  16.234   8.929   4.642
71152W        W42823  30.024  14.547   0.244
71153W        W42824  22.020  16.706  14.066
71154W        W42825  35.725   7.770   2.809
71155W        W42826  13.968  39.056  12.034
71156W        W42827  32.928  13.115  12.130
71157W        W42828  14.141  26.722  12.149
71158W        W42829  22.219  14.244  14.956
71159W        W42830   7.265  20.198  14.910
71160W        W42831   0.622  21.422  12.874
71161W        W42832  33.994  28.608   1.922
71162W        W42833  20.715  24.665   3.544
71163W        W42834   9.227  20.846   3.345
71164W        W42835   6.840  40.761   4.735
71165W        W42836  29.205  20.138  11.836
71166W        W42837  34.899  27.607  10.728
71167W        W42838  26.661  10.800  14.444
71168W        W42839  36.016  26.118   4.745
71169W        W42840  40.008  20.223   2.344
71170W        W42841  44.446   4.267  10.766
71171W        W42842  26.025  17.056  10.653
71172W        W42843  16.022  31.101  12.788
71173W        W42844  12.216  26.612  12.361
71174W        W42845  43.739  38.891   5.069
71175W        W42846  31.422  20.695  12.233
71176W        W42847   0.588  29.980   0.293
71177W        W42848  28.370  40.929   2.348
71178W        W42849  10.319  23.593   1.860
71179W        W42850  23.678  23.067   3.317
71180W        W42851  18.663  15.999   0.048
71181W        W42852  14.229  23.304   0.999
71182W        W42853   7.218   5.861   1.470
71183W        W42854  44.920   2.848   2.390
71184W        W42855   4.840  44.294   0.802
71185W        W42856  22.752   3.387   0.815
71186W        W42857  30.510  32.430   0.496
71187W        W42858   3.287  11.478   4.951
71188W        W42859  22.917   0.284   3.594
71189W        W42860  41.881  24.991  12.111
71190W        W42861  20.777   1.746   1.453
71191W        W42862  20.789   5.283  10.495
71192W        W42863   0.484  20.186  12.461
71193W        W42864   7.710  32.125  10.113
71194W        W42865  34.844  22.942   3.162
71195W        W42866   4.932  35.436  13.384
71196W        W42867  39.891  41.970  11.486
71197W        W42868   3.702   7.814  12.852
71198W        W42869  44.727  40.104   4.529
71199W        W42870  16.656  26.587   3.307
71200W        W42871  41.990   4.877   3.227
71201W        W42872  31.258   7.903  12.193
71202W        W42873  12.886  20.373  12.053
71203W        W42874   4.967  20.216   0.026
71204W        W42875  37.951  39.423  14.896
71205W        W42876  13.195  38.943   0.098
71206W        W42877  17.101   9.829  13.336
71207W        W42878  21.061   6.734  14.357
71208W        W42879  27.251   2.518  11.501
71209W        W42880  17.790  42.875  14.189
71210W        W42881  35.381  11.803   1.508
71211W        W42882  44.607   3.816  10.076
71212W        W42883  41.043  26.729  11.581
71213W        W42884  12.576  16.817  12.434
71214W        W42885  40.893  40.031  12.602
71215W        W42886  33.490  21.290   2.350
71216W        W42887   1.446   6.365   2.917
71217W        W42888   9.646  44.634   1.285
71218W        W42889  17.021  25.456   4.164
71219W        W42890  15.613  39.253  10.551
71220W        W42891  24.502  13.223   1.277
71221W        W42892   1.751  35.019  14.849
71222W        W42893   3.949   0.957  10.544
71223W        W42894   6.361  34.958  11.193
71224W        W42895  35.009  18.579  13.987
71225W        W42896  43.283  26.676  11.976
71226W        W42897  23.949  29.054   1.213
71227W        W42898   9.341  29.005   3.088
71228W        W42899  34.772  44.459   2.838
71229W        W42900  38.840  31.572   3.697
71230W        W42901  20.989  16.772   5.081
71231W        W42902  43.092  38.776  10.136
71232W        W42903  44.187   0.996   1.992
71233W        W42904  33.080  43.259   3.887
71234W        W42905  44.391   5.952  14.280
71235W        W42906  10.241  22.139  14.553
71236W        W42907  35.927  19.072   0.436
71237W        W42908  11.962  44.893  10.964
71238W        W42909  38.107  28.283  14.359
71239W        W42910   1.240  42.681   1.683
71240W        W42911  16.167  41.251   4.211
71241W        W42912  25.309  14.694  12.142
71242W        W42913  15.068  20.333  13.442
71243W        W42914  13.617  20.662   0.713
71244W        W42915  37.424  24.736  14.959
71245W        W42916  22.392  11.860  13.016
71246W        W42917  31.567  21.111  11.097
71247W        W42918   3.268  31.038   0.074
71248W        W42919   2.004   6.877  13.547
71249W        W42920   6.611  32.183  12.092
71250W        W42921  21.265  22.326   0.480
71251W        W42922  36.385  20.006  14.726
71252W        W42923  14.240  26.689   1.909
71253W        W42924  35.572   6.847  11.654
71254W        W42925  21.554  21.959   2.153
71255W        W42926  32.650  20.957   1.361
71256W        W42927  25.935  44.383   2.873
71257W        W42928  30.115  44.436   0.360
71258W        W42929  17.637  28.205   0.664
71259W        W42930  19.789  36.615  12.437
71260W        W42931   5.758  23.223   0.263
71261W        W42932   1.971  19.137   2.269
71262W        W42933  16.163  37.391   3.959
71263W        W42934  16.469  39.391   0.003
71264W        W42935  13.467  27.253   4.399
71265W        W42936  23.075  38.630   2.293
71266W        W42937  12.382  41.824   3.344
71267W        W42938  21.395  44.574  13.334
71268W        W42939  31.594  23.756  12.358
71269W        W42940  11.035  24.278  13.978
71270W        W42941  33.928  26.532   3.143
71271W        W42942  37.388   6.240   4.630
71272W        W42943  17.147  16.544   3.851
71273W        W42944  11.333  36.083  13.164
71274W        W42945  36.440  32.695  12.894
71275W        W42946  10.704  15.214   0.393
71276W        W42947  41.040  24.895  10.562
71277W        W42948   9.522   2.195  12.609
71278W        W42949  12.691  15.606  10.628
71279W        W42950  26.896  25.206   1.157
71280W        W42951  33.982   9.063   1.279
71281W        W42952   6.952  39.899   1.140
71282W        W42953   8.140  19.027  14.856
71283W        W42954  23.126  14.180   1.787
71284W        W42955  36.092   5.696   4.071
71285W        W42956  28.125   9.588  14.699
71286W        W42957  27.602  22.509  14.497
71287W        W42958  30.382  35.301  10.687
71288W        W42959   7.916  21.523  11.162
71289W        W42960   9.215  29.084  13.340
71290W        W42961  43.908   3.068   4.992
71291W        W42962  23.773  14.917  14.075
71292W        W42963  32.993  19.091   4.158
71293W        W42964  13.368  31.959   3.276
71294W        W42965  17.506   6.009  14.495
71295W        W42966  28.620  34.400  13.004
71296W        W42967   0.003   9.094   4.954
71297W        W42968  37.964  40.447   0.687
71298W        W42969  18.590  27.453  12.600
71299W        W42970  29.553  41.939  14.827
71300W        W42971   5.703  35.680  14.877
71301W        W42972  24.058  28.474  14.539
71302W        W42973  19.831   3.010  13.083
71303W        W42974   2.915  41.494   4.182
71304W        W42975  32.979  33.620  14.852
71305W        W42976  34.857  42.916   3.437
71306W        W42977  40.867   3.223  11.105
71307W        W42978  38.655  41.691   1.436
71308W        W42979  39.040   8.949   9.933
71309W        W42980   4.297  13.098  14.776
71310W        W42981  26.050  11.989  13.641
71311W        W42982  39.915  28.691  10.653
71312W        W42983  18.260   2.238  14.967
71313W        W42984  29.992  24.831  12.624
71314W        W42985  29.847  10.787   3.783
71315W        W42986  13.747  42.484  14.913
71316W        W42987   2.730  42.750   3.723
71317W        W42988   2.514   1.977   1.386
71318W        W42989  29.945   5.893  11.173
71319W        W42990  25.702  32.353  12.874
71320W        W42991  10.827  40.735  12.445
71321W        W42992  22.111   0.420  14.728
71322W        W42993   9.308  17.378   1.249
71323W        W42994  31.747  36.388   2.624
71324W        W42995   4.408  34.517   0.489
71325W        W42996   8.090  24.701  12.447
71326W        W42997  10.938   9.447   4.560
71327W        W42998   2.977  33.066  12.451
71328W        W42999  21.618   3.477  13.278
71329W        W43000  27.647  37.522  10.613
71330W        W43001  42.419  31.939  11.026
71331W        W43002   7.425  12.696  10.356
71332W        W43003   8.789  25.212   2.263
71333W        W43004  12.698  36.383  10.769
71334W        W43005  33.113  20.041  13.367
71335W        W43006   2.511  44.470   2.749
71336W        W43007  13.358  13.878   0.248
71337W        W43008  23.813  37.359   2.769
71338W        W43009  14.589  24.199  12.913
71339W        W43010  26.601   7.688   2.434
71340W        W43011   4.373  29.716   3.695
71341W        W43012   0.455  44.926  12.838
71342W        W43013  34.020  28.455  12.598
71343W        W43014   2.393  11.614   4.061
71344W        W43015  29.733   8.711   0.675
71345W        W43016  22.611  12.284  11.992
71346W        W43017   2.660  43.913  11.613
71347W        W43018  24.657  39.763   1.333
71348W        W43019  16.220   3.973  13.413
71349W        W43020  21.189  22.325  12.841
71350W        W43021   5.592  12.189  12.634
71351W        W43022  15.838  16.509  10.891
71352W        W43023  24.721  21.096  13.895
71353W        W43024   4.126  11.229  12.553
71354W        W43025  30.012  36.772   3.650
71355W        W43026  22.729  41.746  12.903
71356W        W43027  37.593   4.447  11.219
71357W        W43028  20.995  29.212  11.376
71358W        W43029  27.582  10.860   3.365
71359W        W43030  42.560  13.630   5.258
71360W        W43031  31.390  27.134  10.395
71361W        W43032  34.373  42.795   1.385
71362W        W43033  17.142   5.908   9.783
71363W        W43034  17.818   4.331   3.169
71364W        W43035  43.303   1.904   0.521
71365W        W43036  30.501   1.494   3.247
71366W        W43037   5.302  34.652  10.639
71367W        W43038  16.503  19.776  11.111
71368W        W43039  14.542  33.001   0.928
71369W        W43040   1.314  30.875  10.754
71370W        W43041  32.421  32.998   3.231
71371W        W43042   1.375  44.485   0.321
71372W        W43043  28.111  32.695   3.129
71373W        W43044   3.972   7.955  12.442
71374W        W43045  17.839  15.586   2.241
71375W        W43046  40.282  36.724  12.474
71376W        W43047  14.700  24.145   2.727
71377W        W43048   7.277  15.402   0.813
71378W        W43049  20.911  13.322  11.457
71379W        W43050  25.928  40.437   2.802
71380W        W43051  31.643  10.834   4.223
71381W        W43052   6.482   2.054   3.697
71382W        W43053   0.328  22.958   9.778
71383W        W43054   4.889  18.056   3.764
71384W        W43055  28.080   5.566   4.356
71385W        W43056  10.195   5.719  11.803
71386W        W43057   2.507   4.837  12.062
71387W        W43058  10.782  36.773   4.689
71388W        W43059  17.692  23.922   1.234
71389W        W43060  36.138   3.903   3.704
71390W        W43061  10.710  33.896  12.733
71391W        W43062  10.864   4.321  14.320
71392W        W43063  14.690  38.568  13.363
71393W        W43064  24.064  40.980   0.578
71394W        W43065  30.010  39.284   0.408
71395W        W43066   3.842  11.302  11.267
71396W        W43067   3.236   1.307  10.437
71397W        W43068  10.887  39.635   0.910
71398W        W43069   5.346  25.749  12.108
71399W        W43070  34.111  43.908   2.716
71400W        W43071   9.225   8.722  12.862
71401W        W43072  44.930  24.594  13.462
71402W        W43073  37.865   4.791  14.409
71403W        W43074  20.269  17.160  14.905
71404W        W43075  29.009  14.543  13.030
71405W        W43076  20.024  24.443   5.020
71406W        W43077  36.886  44.957  12.374
71407W        W43078   2.446  32.523  13.401
71408W        W43079  10.062  36.174   3.164
71409W        W43080  20.521  37.408   3.429
71410W        W43081  28.469  21.682  11.870
71411W        W43082  34.878  23.275   3.554
71412W        W43083  43.801  12.575  14.987
71413W        W43084   8.745  22.873   0.792
71414W        W43085  21.247   8.702  14.118
71415W        W43086   0.482  23.000   0.860
71416W        W43087   3.015  27.023   2.657
71417W        W43088  13.709  36.809   1.174
71418W        W43089  27.698   6.213   2.306
71419W        W43090  44.412  11.178  12.914
71420W        W43091  12.268  25.965  13.029
71421W        W43092   0.459  26.132   1.913
71422W        W43093  11.424  23.082   3.819
71423W        W43094  25.611   0.400   4.558
71424W        W43095   3.404  15.511   2.250
71425W        W43096  11.945  37.583   2.735
71426W        W43097  39.004  39.385   2.429
71427W        W43098  12.512  14.753   4.396
71428W        W43099   8.482  13.665  10.588
71429W        W43100  31.958  17.327  11.212
71430W        W43101  35.845  43.454  13.448
71431W        W43102  39.571  22.197   1.603
71432W        W43103   7.936  31.681  12.164
71433W        W43104  29.553  32.014   4.564
71434W        W43105  20.594   8.263   1.248
71435W        W43106   3.861  44.989   1.770
71436W        W43107  21.131  27.335  14.746
71437W        W43108  18.480  34.510  10.710
71438W        W43109  13.225  43.266  11.941
71439W        W43110  35.163  29.896  13.925
71440W        W43111   1.253   8.372  14.588
71441W        W43112   4.065  21.181  13.085
71442W        W43113  38.238  15.426   0.349
71443W        W43114  15.757  35.164   2.345
71444W        W43115  12.238  28.527   3.525
71445W        W43116  17.124  15.123   4.280
71446W        W43117  16.802  23.745  13.298
71447W        W43118  36.973  20.620   3.647
71448W        W43119  12.761  15.275   2.313
71449W        W43120  22.652  24.010  12.376
71450W        W43121  23.544  34.337  14.874
71451W        W43122  28.919   7.526   3.338
71452W        W43123  26.716  43.960  11.370
71453W        W43124  42.277   9.697  12.858
71454W        W43125  20.033  30.919   4.971
71455W        W43126  35.417  15.616   1.893
71456W        W43127  10.125  34.611   0.294
71457W        W43128  11.329  30.649  14.952
71458W        W43129   7.857   8.355   0.995
71459W        W43130   1.632   8.696   2.509
71460W        W43131   2.120  15.719   3.869
71461W        W43132  42.839  36.920  14.065
71462W        W43133  14.174   3.478  12.142
71463W        W43134  35.990  33.944   4.835
71464W        W43135  38.934  41.398   3.533
71465W        W43136  43.074  41.546  10.190
71466W        W43137   0.014  34.016  14.433
71467W        W43138  27.783  43.018   4.723
71468W        W43139   2.942   5.988   1.911
71469W        W43140   4.348  34.644  12.785
71470W        W43141  30.560  43.258   1.441
71471W        W43142  40.857  36.156  13.218
71472W        W43143  37.041  33.369  11.560
71473W        W43144   8.083   3.770   4.892
71474W        W43145  37.458  14.884   2.967
71475W        W43146  41.792  16.682   4.885
71476W        W43147  38.207  26.793  12.020
71477W        W43148  17.101  35.116   2.193
71478W        W43149  33.098  31.632  13.794
71479W        W43150  12.371  37.387   2.941
71480W        W43151  28.983  14.811   3.593
71481W        W43152  23.497  21.125  12.211
71482W        W43153   3.442   2.309   2.923
71483W        W43154  32.573   1.555  12.091
71484W        W43155  23.712  19.777   0.900
71485W        W43156  25.730  12.153   0.249
71486W        W43157  42.493  36.121  11.923
71487W        W43158  19.902   0.454   3.406
71488W        W43159  38.964  29.714  10.783
71489W        W43160  29.947  35.759  14.219
71490W        W43161  35.518  21.532   0.716
71491W        W43162   7.765  31.491  12.598
71492W        W43163  29.654  26.466  10.163
71493W        W43164   1.679  43.848  11.524
71494W        W43165  21.569  29.208  14.778
71495W        W43166  21.270  24.982  12.029
71496W        W43167  33.109  21.726   1.294
71497W        W43168  30.616  29.382   0.038
71498W        W43169   9.714   3.659   4.297
71499W        W43170  37.462  25.195   2.700
71500W        W43171  39.970  38.155   2.236
71501W        W43172  30.909  38.864   0.389
71502W        W43173  29.009  28.187  11.133
71503W        W43174  10.718  42.937   4.536
71504W        W43175  40.739  10.404   3.609
71505W        W43176   1.429   1.695  13.993
71506W        W43177  11.334  19.574  11.109
71507W        W43178   3.755  41.660   1.284
71508W        W43179  11.774  35.001  12.865
71509W        W43180  43.450  43.974  10.789
71510W        W43181  31.571  12.655   2.801
71511W        W43182  28.113  40.407  11.805
71512W        W43183   4.720  24.487  12.910
71513W        W43184   3.767  24.544  12.812
71514W        W43185  13.741  21.026   1.908
71515W        W43186  10.743  36.587  11.985
71516W        W43187  44.037  31.499   0.769
71517W        W43188   6.454   8.071  14.527
71518W        W43189  28.845  44.532  13.510
71519W        W43190   8.786  38.264  10.862
71520W        W43191   4.492   0.804  14.472
71521W        W43192  27.550  34.989  14.463
71522W        W43193  44.527  11.307  13.905
71523W        W43194   7.409  28.303   2.324
71524W        W43195  30.636  42.745   0.286
71525W        W43196   4.645  18.674  14.050
71526W        W43197   4.846  35.578  11.654
71527W        W43198   6.863  43.188   4.047
71528W        W43199  33.888  33.458  12.823
71529W        W43200  28.805  13.069   3.515
71530W        W43201  19.580  43.247   1.282
71531W        W43202  19.194  43.740  14.470
71532W        W43203  32.508  42.396  12.538
71533W        W43204  36.106  26.151  12.120
71534W        W43205   6.150  11.865   2.284
71535W        W43206  43.747   4.245   3.214
71536W        W43207  35.716   5.159  12.029
71537W        W43208  32.868  40.482   2.940
71538W        W43209  44.989  39.411  12.040
71539W        W43210  44.362  27.005   0.800
71540W        W43211  26.668   0.644   2.801
71541W        W43212  14.767  17.528   4.365
71542W        W43213  14.661  19.811   4.972
71543W        W43214  22.651   0.587   4.294
71544W        W43215  19.982   4.274   3.322
71545W        W43216  32.978  25.032   2.894
71546W        W43217   1.748   3.308   4.946
71547W        W43218  34.310   4.096   2.538
71548W        W43219  32.971   5.017   4.346
71549W        W43220  43.468  21.518  11.273
71550W        W43221  19.748   8.257   0.847
71551W        W43222  33.135  34.209   1.344
71552W        W43223  36.403   6.816  11.284
71553W        W43224  18.204   6.706  13.953
71554W        W43225  32.524  33.144   2.315
71555W        W43226  33.863  15.926  10.283
71556W        W43227  14.729   9.369  14.540
71557W        W43228  28.685   8.393   2.753
71558W        W43229  27.469  29.167   1.063
71559W        W43230   0.736   4.332   1.156
71560W        W43231   9.243  26.658   0.546
71561W        W43232  25.766  18.281   4.627
71562W        W43233  33.004  38.048   0.394
71563W        W43234  11.682  18.903   4.117
71564W        W43235   2.285   9.902   4.237
71565W        W43236   1.277  10.821  14.908
71566W        W43237  33.785  24.194   4.084
71567W        W43238  31.466  38.810   2.208
71568W        W43239   1.837  20.461   3.714
71569W        W43240  42.604  26.862   2.538
71570W        W43241   8.453  10.335   2.269
71571W        W43242  33.134  33.130   1.104
71572W        W43243  15.117   3.877   3.301
71573W        W43244   7.250  35.717   4.295
71574W        W43245   9.743  36.907  11.650
71575W        W43246   1.398   0.983   2.303
71576W        W43247  36.022  27.350   4.146
71577W        W43248  43.459  15.930   2.679
71578W        W43249   3.305  23.717  14.516
71579W        W43250  13.571  11.071   4.576
71580W        W43251  44.071  11.328  14.753
71581W        W43252  15.073   8.852  11.090
71582W        W43253  24.012  23.198  12.577
71583W        W43254   5.294  19.326   0.939
71584W        W43255  35.415  20.842   0.453
71585W        W43256  24.032  16.277   1.860
71586W        W43257  37.571  33.784  11.489
71587W        W43258  12.156  25.914  13.920
71588W        W43259  41.024  10.203   3.135
71589W        W43260  24.651   2.131   2.333
71590W        W43261  35.674  24.385   3.687
71591W        W43262  30.568  37.595  10.977
71592W        W43263  26.582  19.753  14.348
71593W        W43264  18.731  33.947  11.867
71594W        W43265   8.642  21.587  14.903
71595W        W43266  28.448  13.873  12.721
71596W        W43267   5.380  39.010  13.122
71597W        W43268   4.304  32.676  13.230
71598W        W43269  20.926  22.724  13.030
71599W        W43270  12.588  14.691   3.568
71600W        W43271  15.070  26.493  11.467
71601W        W43272   2.988  16.152  12.463
71602W        W43273   9.837  12.553   1.946
71603W        W43274  15.773  12.750   1.142
71604W        W43275  20.190  16.945  13.034
71605W        W43276  16.004  36.568   2.058
71606W        W43277  21.526   9.153   4.037
71607W        W43278  40.873  23.620  11.203
71608W        W43279  36.834  25.611   0.274
71609W        W43280  43.331  43.899  13.061
71610W        W43281  35.951  32.794  11.707
71611W        W43282  44.108  36.380   3.731
71612W        W43283  15.231  42.533  14.919
71613W        W43284  12.436   3.441  10.648
71614W        W43285  40.517   7.788   3.861
71615W        W43286  22.792  10.976   1.809
71616W        W43287   5.405  19.101   2.691
71617W        W43288  19.647  18.589  12.629
71618W        W43289  21.486  22.674   4.882
71619W        W43290   9.151  15.723  10.461
71620W        W43291  44.801  15.704   0.711
71621W        W43292  14.602  24.140   2.217
71622W        W43293  43.271  11.262  13.421
71623W        W43294   0.255  28.452  13.391
71624W        W43295  29.058  39.973   3.727
71625W        W43296  25.982  27.049   3.627
71626W        W43297  20.136   3.685   2.099
71627W        W43298   7.043  37.055   2.415
71628W        W43299   6.539  14.967   1.803
71629W        W43300  21.314  42.168  12.967
71630W        W43301  37.872  33.562   4.944
71631W        W43302  34.197  35.058   2.235
71632W        W43303  42.274  36.131   0.863
71633W        W43304  34.086  29.562  14.502
71634W        W43305  30.371   8.977  11.906
71635W        W43306   5.909  16.118  13.849
71636W        W43307   9.998  23.774  11.901
71637W        W43308  43.919  41.678  12.941
71638W        W43309  27.239   0.339   4.488
71639W        W43310  44.006  43.972  10.721
71640W        W43311  44.503   3.164   0.160
71641W        W43312  29.525   1.314  11.219
71642W        W43313  41.992  10.806   4.340
71643W        W43314  39.904   9.749  11.951
71644W        W43315   9.801  15.154   1.464
71645W        W43316  35.850  22.343  12.054
71646W        W43317  19.110  32.977  12.085
71647W        W43318  26.958  42.333  10.575
71648W        W43319   8.860  41.929   4.700
71649W        W43320  27.821  37.234   4.131
71650W        W43321  42.318  23.328  12.072
71651W        W43322  29.288  32.058   3.190
71652W        W43323  35.803   4.138   0.062
71653W        W43324  21.133  29.615   2.259
71654W        W43325  40.678  33.970   0.287
71655W        W43326  10.703  32.510   0.183
71656W        W43327  30.630  24.813  10.725
71657W        W43328  41.811   1.162  14.279
71658W        W43329  33.338  27.166   0.775
71659W        W43330   9.896  44.909  11.531
71660W        W43331  16.650  39.714   3.213
71661W        W43332   2.052  43.318   3.231
71662W        W43333  21.550   6.899  10.379
71663W        W43334  44.298  17.558   3.724
71664W        W43335  26.493  39.461  10.969
71665W        W43336  12.047  17.294   4.837
71666W        W43337  24.749  14.540   4.580
71667W        W43338  44.349  40.347   3.719
71668W        W43339  19.125  40.493   3.552
71669W        W43340  26.625  15.237   4.797
71670W        W43341  37.074  31.866   1.751
71671W        W43342  23.512  44.786   0.485
71672W        W43343  28.575  12.087   1.352
71673W        W43344  28.991   7.409  12.483
71674W        W43345  28.681  25.909   1.023
71675W        W43346  19.135  37.091  12.124
71676W        W43347  24.755  24.040   3.867
71677W        W43348  23.685  12.127   3.170
71678W        W43349  32.533  10.867  14.398
71679W        W43350  37.162  16.684   9.980
71680W        W43351  16.783  37.083   4.451
71681W        W43352  16.705  40.099   4.681
71682W        W43353   7.734   0.684  11.232
71683W        W43354   1.352  13.248  12.588
71684W        W43355  21.962  24.455   1.835
71685W        W43356  42.914  31.580   0.376
71686W        W43357  37.084  30.586   5.170
71687W        W43358  30.525   8.914  13.832
71688W        W43359  26.539  24.349   2.343
71689W        W43360  12.302  43.372   1.712
71690W        W43361  14.704  15.530  12.045
71691W        W43362  19.550  10.259  11.107
71692W        W43363  41.663  39.991  14.963
71693W        W43364  31.393  29.012   0.938
71694W        W43365  24.067  42.752  12.021
71695W        W43366  19.987  17.379  13.522
71696W        W43367   7.445  30.542  14.103
71697W        W43368  19.758  29.646  14.123
71698W        W43369  12.101  11.784   1.844
71699W        W43370  29.838   4.278  14.916
71700W        W43371   6.394  26.063  14.907
71701W        W43372  24.145   6.516   2.552
71702W        W43373  33.926  20.649   3.649
71703W        W43374  36.084  18.022   1.465
71704W        W43375  15.765   6.289  10.998
71705W        W43376  26.331  33.916   1.787
71706W        W43377  36.561  44.376   4.178
71707W        W43378  28.365  19.230   0.880
71708W        W43379   7.431  15.678  11.198
71709W        W43380  33.232  17.578   2.925
71710W        W43381  18.389  14.921  10.155
71711W        W43382  13.441   3.491   0.272
71712W        W43383  16.553  40.017   1.670
71713W        W43384  34.391  30.081   3.745
71714W        W43385   9.668  31.540   2.614
71715W        W43386   0.727  38.445   2.381
71716W        W43387   3.378   5.196   4.174
71717W        W43388   4.897  26.764   2.817
71718W        W43389  32.092  17.339   1.309
71719W        W43390  18.296  27.591   1.385
71720W        W43391  41.995   1.450  14.667
71721W        W43392  44.748  24.773   2.806
71722W        W43393  24.928  17.579   4.010
71723W        W43394   4.802  19.541   1.902
71724W        W43395  25.593  25.059   3.345
71725W        W43396   7.649  33.374   3.219
71726W        W43397   5.881   0.727  11.959
71727W        W43398  22.902  22.456  11.909
71728W        W43399  39.553  40.342   4.110
71729W        W43400  42.912  26.664   1.425
71730W        W43401  12.578  37.602   1.186
71731W        W43402  39.292  18.952   0.789
71732W        W43403  17.033   2.983   2.731
71733W        W43404   1.480  37.887   2.442
71734W        W43405  41.863  23.510   1.728
71735W        W43406  24.028  39.743  13.450
71736W        W43407  30.595  29.549   2.238
71737W        W43408  20.195  31.018   2.904
71738W        W43409  26.599  31.884  10.940
71739W        W43410   4.188   8.580  14.340
71740W        W43411  35.336  40.329  13.632
71741W        W43412   3.194   2.772   2.753
71742W        W43413  15.642  40.569  12.891
71743W        W43414  31.469   0.201   0.658
71744W        W43415   0.788  16.033   0.057
71745W        W43416  33.136   2.263  12.087
71746W        W43417  27.152   3.269  13.485
71747W        W43418  30.055   5.496  12.111
71748W        W43419  33.540  31.630   3.551
71749W        W43420  43.769  34.480  10.688
71750W        W43421  40.798  13.237  10.509
71751W        W43422  19.597  37.470  12.841
71752W        W43423  12.686   7.938   4.747
71753W        W43424  41.863  20.662  12.839
71754W        W43425  28.636  33.817   0.328
71755W        W43426  21.076   4.008  13.065
71756W        W43427   3.960  29.487   3.936
71757W        W43428  40.877  26.728  13.663
71758W        W43429  35.436  27.161   0.505
71759W        W43430  41.746   6.821  14.765
71760W        W43431  38.426  25.483   4.154
71761W        W43432  24.639  23.200  11.872
71762W        W43433  38.101  35.373   0.243
71763W        W43434  25.592  36.604   2.893
71764W        W43435   4.293  44.993   4.372
71765W        W43436  37.949   0.945   1.760
71766W        W43437   7.272  26.786   2.413
71767W        W43438  43.981  16.532   1.461
71768W        W43439   9.743  27.624   1.200
71769W        W43440  31.546  17.708  12.480
71770W        W43441  23.570  37.774   0.746
71771W        W43442  28.866  40.956  14.457
71772W        W43443   6.074  32.250   4.193
71773W        W43444  38.309  42.730  12.657
71774W        W43445  16.737  37.972   0.747
71775W        W43446  18.843  18.197  14.908
71776W        W43447  36.663   1.775  12.444
71777W        W43448  41.504  42.909  11.217
71778W        W43449  37.437   8.718  12.916
71779W        W43450  18.052  19.640  12.084
71780W        W43451  37.947  25.783   2.262
71781W        W43452  35.424  41.170  13.355
71782W        W43453  26.704  20.123   4.031
71783W        W43454  28.046  27.728   0.322
71784W        W43455   0.436  25.586   0.625
71785W        W43456  38.775   8.367   0.181
71786W        W43457  16.358  14.884  10.978
71787W        W43458  35.974  15.103   3.720
71788W        W43459  14.290  25.414  11.567
71789W        W43460  16.583  32.496   3.768
71790W        W43461  42.093  34.538   4.049
71791W        W43462   8.969   4.858   2.503
71792W        W43463  21.923  32.865  10.520
71793W        W43464  28.487  16.117   0.079
71794W        W43465  37.898  41.041   1.194
71795W        W43466  42.472  31.116   3.567
71796W        W43467  23.579  25.218  14.573
71797W        W43468  11.324  31.618   3.145
71798W        W43469  38.592  12.521   3.646
71799W        W43470  20.410  37.944  10.598
71800W        W43471  14.439   5.480  10.304
71801W        W43472  31.749   0.966  14.371
71802W        W43473  28.564  18.330  11.525
71803W        W43474  33.584  27.042  10.517
71804W        W43475  30.066  33.921   0.876
71805W        W43476   4.763  28.921   3.659
71806W        W43477  25.271  24.182   0.792
71807W        W43478   0.969  16.269  13.405
71808W        W43479  18.000  28.459  11.058
71809W        W43480  14.601   4.517  11.635
71810W        W43481  41.809   1.385  12.004
71811W        W43482  10.682  35.546   2.072
71812W        W43483  32.512  40.564   3.750
71813W        W43484   8.457   7.372   1.630
71814W        W43485  42.398  20.731  12.145
71815W        W43486  32.531  44.365  10.451
71816W        W43487  35.106  19.530   1.241
71817W        W43488  37.921  14.792   3.747
71818W        W43489  44.410  14.795  12.006
71819W        W43490  11.090  18.768  11.947
71820W        W43491  35.092  34.149   0.251
71821W        W43492  17.750  44.889   0.890
71822W        W43493  42.933  39.088   4.563
71823W        W43494  40.612   3.682  12.300
71824W        W43495  10.921  40.304   0.427
71825W        W43496  18.280  28.419   2.186
71826W        W43497  16.551  43.865  10.637
71827W        W43498  17.529   2.469   4.122
71828W        W43499  40.939  23.733  14.472
71829W        W43500  17.284   5.386   0.831
71830W        W43501  27.661  21.130   1.519
71831W        W43502   1.703  28.487  11.406
71832W        W43503  23.007  27.619   3.178
71833W        W43504  44.299  28.977   3.713
71834W        W43505  14.155  44.600  14.916
71835W        W43506   2.659  27.151  12.274
71836W        W43507  20.805  43.104   1.328
71837W        W43508  26.768  28.608   4.084
71838W        W43509  44.166  24.202   2.358
71839W        W43510  16.052  12.232  12.523
71840W        W43511  24.182  41.404  14.997
71841W        W43512  37.426  42.544  13.850
71842W        W43513  33.520  23.096  10.545
71843W        W43514  32.462   2.995  13.443
71844W        W43515  26.273   5.997  12.572
71845W        W43516  32.914  23.688  10.549
71846W        W43517  31.668  33.446   4.128
71847W        W43518   1.959  12.507   0.498
71848W        W43519  20.168  18.895   1.377
71849W        W43520  18.276   8.842  11.643
71850W        W43521  36.413  34.441  13.332
71851W        W43522  38.736  36.806  14.211
71852W        W43523  27.023  19.520  14.522
71853W        W43524   7.310   1.188  14.821
71854W        W43525   1.287   6.569  13.887
71855W        W43526  44.917  22.945  14.128
71856W        W43527   7.442  13.718  10.618
71857W        W43528  41.538  10.215  13.909
71858W        W43529  15.304  34.947   4.739
71859W        W43530  18.163  10.329  12.044
71860W        W43531  25.377   6.815   0.227
71861W        W43532  16.055  13.349  11.174
71862W        W43533  39.400  42.436  13.801
71863W        W43534   9.449  36.395   4.051
71864W        W43535  33.244  15.516   2.905
71865W        W43536  22.167  17.765   3.718
71866W        W43537  25.395  43.871  12.078
71867W        W43538  40.231  11.974   5.099
71868W        W43539  13.768  17.480  12.991
71869W        W43540  28.083  18.214  14.441
71870W        W43541  36.697  16.544  11.339
71871W        W43542  33.373  26.081   1.724
71872W        W43543  40.912   4.829   0.446
71873W        W43544   9.774  43.427  11.728
71874W        W43545  11.793  43.438   2.654
71875W        W43546  30.221   5.987  13.913
71876W        W43547  36.581  27.570  12.342
71877W        W43548   2.325   3.343   0.618
71878W        W43549  35.958   5.834   3.230
71879W        W43550  21.243  23.483   3.787
71880W        W43551   4.800  38.504  10.116
71881W        W43552  16.811  22.460   3.738
71882W        W43553  16.266   4.862  14.717
71883W        W43554   3.522  29.427   3.619
71884W        W43555  25.038  31.192  13.319
71885W        W43556  36.067  18.468  12.122
71886W        W43557   0.289   4.160  12.798
71887W        W43558  27.326  17.974   1.878
71888W        W43559  33.101   2.761  10.430
71889W        W43560  18.045  42.337  13.935
71890W        W43561  12.244  30.250   4.657
71891W        W43562  29.655  25.235   3.326
71892W        W43563  32.151  18.075   0.789
71893W        W43564  16.813  41.012  13.881
71894W        W43565   7.201  13.458  11.496
71895W        W43566   0.890  31.913  14.854
71896W        W43567   0.256   4.208  11.993
71897W        W43568  20.111  11.742   4.640
71898W        W43569  39.295   2.951  12.919
71899W        W43570  42.520  34.546   2.840
71900W        W43571  37.408  19.277  13.877
71901W        W43572   2.278   8.175   0.382
71902W        W43573   3.942  40.958   1.019
71903W        W43574  11.331  23.816   4.182
71904W        W43575  18.723  32.203  14.426
71905W        W43576  14.928  26.586   2.368
71906W        W43577  24.156  40.498  10.620
71907W        W43578  13.592  15.211   3.864
71908W        W43579   2.877  12.034   4.108
71909W        W43580   9.040  22.279  10.735
71910W        W43581  18.152  39.393   2.939
71911W        W43582  38.317  44.032  11.963
71912W        W43583   8.727  13.243   0.786
71913W        W43584  13.307  30.376  12.051
71914W        W43585  20.167  35.036   4.607
71915W        W43586  29.850  20.744  10.758
71916W        W43587   1.601  18.900   0.872
71917W        W43588  35.118   8.388   3.253
71918W        W43589  30.600  15.248  14.008
71919W        W43590   4.442  32.792   1.401
71920W        W43591  38.688  26.411  13.084
71921W        W43592  37.848  26.770   1.269
71922W        W43593  11.683   9.188  11.955
71923W        W43594  43.714  44.928  14.047
71924W        W43595   7.237   5.730  11.641
71925W        W43596  21.310   9.624  11.947
71926W        W43597   2.014  28.603   0.300
71927W        W43598  27.676  31.848  14.490
71928W        W43599   3.446  15.803   2.652
71929W        W43600  14.140  21.580  11.404
71930W        W43601  40.543  36.353  12.819
71931W        W43602  15.838  39.444  14.292
71932W        W43603  12.130  39.396   4.261
71933W        W43604  31.654  22.301   3.252
71934W        W43605  38.508  24.452  11.747
71935W        W43606  20.189  32.950   1.312
71936W        W43607  10.367   1.919  13.490
71937W        W43608  30.431  24.982  12.390
71938W        W43609  13.918  11.805  11.623
71939W        W43610  39.817  44.963   1.449
71940W        W43611  23.773  11.839   2.726
71941W        W43612  32.626  29.719   1.706
71942W        W43613  43.421  24.087  12.808
71943W        W43614  11.658   7.807  14.835
71944W        W43615  27.940  37.126   1.507
71945W        W43616   5.327   7.011   0.879
71946W        W43617  12.805  38.894  14.534
71947W        W43618  41.822   3.338   1.851
71948W        W43619  27.000  39.965  11.636
71949W        W43620  35.581   7.588  13.945
71950W        W43621  28.233  39.417  10.779
71951W        W43622   8.453  12.236   3.322
71952W        W43623  36.929  28.146   0.229
71953W        W43624  22.646  36.840  12.561
71954W        W43625  26.492  36.103  11.509
71955W        W43626  28.476  20.095  11.593
71956W        W43627  13.481  30.818   2.289
71957W        W43628   6.686  28.839   1.072
71958W        W43629  15.283  19.204  11.191
71959W        W43630  24.579  20.189   3.461
71960W        W43631  26.529   7.477   4.953
71961W        W43632   3.619   1.381   3.728
71962W        W43633  20.638  27.173  13.052
71963W        W43634  38.882  26.475  13.585
71964W        W43635  20.619  26.331   1.915
71965W        W43636   8.214  21.503  12.076
71966W        W43637  22.707  44.816  12.032
71967W        W43638  41.310  44.708  10.587
71968W        W43639  43.952  35.922   2.267
71969W        W43640   5.195  12.007  13.928
71970W        W43641  37.475   9.380  13.561
71971W        W43642  41.854  19.594  12.050
71972W        W43643   4.845  43.320   9.932
71973W        W43644  39.416  15.740   5.054
71974W        W43645  13.858  18.358  13.321
71975W        W43646   8.228  20.222   1.264
71976W        W43647   5.968  38.470   2.373
71977W        W43648  24.440   7.343   1.649
71978W        W43649   9.565  25.202  14.280
71979W        W43650  33.346  29.411  14.503
71980W        W43651  40.112   8.852   1.317
71981W        W43652   6.125   1.771  14.560
71982W        W43653  17.037  13.615  14.269
71983W        W43654   8.982  31.048  14.721
71984W        W43655   1.425  13.338   2.159
71985W        W43656  18.718  11.216   2.185
71986W        W43657   2.443  13.145   3.133
71987W        W43658  37.494  44.363  13.801
71988W        W43659  22.029  17.558   1.086
71989W        W43660   7.991  19.154   3.689
71990W        W43661  36.737   8.782   1.773
71991W        W43662   6.564  20.394  13.924
71992W        W43663  38.586  24.718  10.862
71993W        W43664  35.519   9.677  11.634
71994W        W43665  19.231  35.612   0.621
71995W        W43666  20.268  33.139  11.486
71996W        W43667  25.277  24.208   2.470
71997W        W43668   1.793  40.982   1.909
71998W        W43669  11.146  20.150   0.887
71999W        W43670  35.383  20.124   0.020
72000W        W43671  16.128  33.986   2.543
72001W        W43672  20.879  21.622  12.004
72002W        W43673  33.357  12.718   4.404
72003W        W43674  42.499  28.662   1.770
72004W        W43675  24.277  31.372  14.928
72005W        W43676   9.922  39.309  11.139
72006W        W43677  38.113  14.594  12.442
72007W        W43678  16.046  12.759  13.782
72008W        W43679  30.379  17.587   0.378
72009W        W43680  11.364  21.260  11.618
72010W        W43681  32.132   0.097   3.860
72011W        W43682  26.062  40.442  14.209
72012W        W43683  39.277  10.299  13.580
72013W        W43684  31.082   8.136   2.758
72014W        W43685  35.403  19.059   2.637
72015W        W43686  26.932  36.376  11.653
72016W        W43687  32.568  33.870  11.888
72017W        W43688   9.173   6.198   4.849
72018W        W43689  38.533  40.978   4.816
72019W        W43690  30.542  38.860   2.468
72020W        W43691   5.993  43.447   2.859
72021W        W43692   0.632  37.959   4.220
72022W        W43693  25.730  17.105  11.081
72023W        W43694   7.916  34.862  12.672
72024W        W43695   4.172   9.021   5.014
72025W        W43696  23.492  32.184  10.754
72026W        W43697  39.460  18.760   0.312
72027W        W43698  16.438  14.591  12.364
72028W        W43699  28.225  43.432   2.068
72029W        W43700  35.411  20.515   3.441
72030W        W43701  26.988  18.220  12.031
72031W        W43702  21.389  12.204  10.788
72032W        W43703  36.569  41.588  11.833
72033W        W43704  42.739   9.422  14.471
72034W        W43705  37.851   7.915   1.191
72035W        W43706   3.235   2.753  12.895
72036W        W43707  14.540  15.519   4.581
72037W        W43708  23.946  24.929   1.400
72038W        W43709  26.593  18.829   1.444
72039W        W43710  15.074  37.328  12.906
72040W        W43711  27.689  33.290  12.401
72041W        W43712  18.097  15.823   4.369
72042W        W43713  27.904  30.979   3.552
72043W        W43714   1.992  36.466  11.045
72044W        W43715  35.813   0.536   3.081
72045W        W43716  31.365  36.367   2.977
72046W        W43717  42.006  21.085   1.799
72047W        W43718  20.513  41.856   1.833
72048W        W43719  44.405  18.513   0.408
72049W        W43720  14.107  27.145   2.484
72050W        W43721  18.108  42.882   0.846
72051W        W43722   3.755  34.060  14.920
72052W        W43723  30.884  36.757   2.420
72053W        W43724   5.729  12.310   1.904
72054W        W43725  39.607   0.073  12.608
72055W        W43726  13.768  31.509   1.862
72056W        W43727  25.983  38.946  11.621
72057W        W43728  12.738  28.512   0.276
72058W        W43729   3.464  18.538   2.602
72059W        W43730  29.426  37.807  12.391
72060W        W43731  31.307  11.842  11.576
72061W        W43732  29.648  34.568  12.952
72062W        W43733  44.378   0.505  11.182
72063W        W43734  23.192   2.173   0.169
72064W        W43735  42.393  23.471   2.333
72065W        W43736  11.630  16.524  11.528
72066W        W43737   2.773   7.373   3.759
72067W        W43738  15.639   7.670   2.477
72068W        W43739  11.350   2.272   3.328
72069W        W43740  16.016   2.261  11.483
72070W        W43741  37.925  37.675   4.083
72071W        W43742  34.146  12.600   1.359
72072W        W43743  31.047  17.729   4.604
72073W        W43744   4.080  42.812   0.861
72074W        W43745   0.109  22.112  10.222
72075W        W43746  44.665  30.078   1.367
72076W        W43747  34.953  33.385   1.795
72077W        W43748  13.137   9.970  11.121
72078W        W43749  21.310  38.098   3.200
72079W        W43750  29.811  38.670   4.592
72080W        W43751   5.453  18.299   1.039
72081W        W43752  35.949  12.278   2.653
72082W        W43753  32.747  10.860   3.387
72083W        W43754  24.676  33.025   3.145
72084W        W43755  21.807  16.234  13.963
72085W        W43756  37.833   7.888   3.730
72086W        W43757  24.746  22.360   1.011
72087W        W43758  18.876  36.009  14.455
72088W        W43759  19.430   4.709  10.695
72089W        W43760   4.536   0.908   3.886
72090W        W43761   2.287   4.501  14.868
72091W        W43762  33.086  38.602  13.786
72092W        W43763  18.462  27.255   3.756
72093W        W43764  37.577  29.934  11.980
72094W        W43765   8.917  44.707   2.801
72095W        W43766   1.737  16.694   0.199
72096W        W43767  18.269   1.741   1.775
72097W        W43768  33.504   0.130   3.663
72098W        W43769  10.739   9.631  12.145
72099W        W43770  16.580   1.888   1.826
72100W        W43771  11.051  21.982  11.805
72101W        W43772  31.213   2.751  12.988
72102W        W43773  35.429  15.298   3.719
72103W        W43774  12.205  38.900   4.031
72104W        W43775   0.437  44.415  14.266
72105W        W43776   5.786  36.482  14.704
72106W        W43777  19.637  29.006   4.860
72107W        W43778  21.192  27.034  13.324
72108W        W43779  32.142  11.893  12.394
72109W        W43780  16.309  23.259  11.498
72110W        W43781  42.759  12.729   2.199
72111W        W43782  29.723  43.801  12.177
72112W        W43783  35.619  32.934  11.014
72113W        W43784   5.396  37.317  12.983
72114W        W43785  35.655   1.371  14.791
72115W        W43786  19.532   2.447   1.014
72116W        W43787  44.490  21.544   0.753
72117W        W43788  35.038  30.382   4.895
72118W        W43789   2.443  29.135  13.471
72119W        W43790  25.694  33.302   0.239
72120W        W43791  43.793  13.186  13.838
72121W        W43792   2.508   7.875  14.817
72122W        W43793  40.853   5.031   4.743
72123W        W43794  27.216  43.750  12.121
72124W        W43795   6.810  29.321  14.032
72125W        W43796   0.238  25.455   3.191
72126W        W43797  27.491  19.738  12.970
72127W        W43798   5.336  36.942  12.640
72128W        W43799  13.868  31.959  11.842
72129W        W43800  28.918  26.616   4.672
72130W        W43801  32.081  25.472   0.178
72131W        W43802  34.838  42.899   1.188
72132W        W43803  37.454  17.758  11.360
72133W        W43804  14.768  44.399   2.201
72134W        W43805  38.563  25.113   3.195
72135W        W43806  18.532  41.023  13.522
72136W        W43807   0.313  18.741   0.503
72137W        W43808   8.233   4.819   1.292
72138W        W43809  13.740  24.216  12.546
72139W        W43810  40.945   1.819   2.632
72140W        W43811  13.947   5.726   2.096
72141W        W43812  18.797  21.222   2.823
72142W        W43813  11.587  10.099   0.807
72143W        W43814  30.066  36.337   2.020
72144W        W43815  16.859  22.243   0.297
72145W        W43816  36.827   0.769   4.879
72146W        W43817  31.815  10.194   4.958
72147W        W43818  33.701  30.530   2.518
72148W        W43819  31.176  31.220   3.050
72149W        W43820  42.235  11.229   0.884
72150W        W43821   3.817  30.430  11.219
72151W        W43822  40.324  33.536   4.483
72152W        W43823   3.875  14.436  13.077
72153W        W43824  27.133  36.902   0.470
72154W        W43825  17.201   0.372  12.937
72155W        W43826  30.150   7.839   0.332
72156W        W43827   8.424   0.369  14.990
72157W        W43828  39.927  39.976   1.952
72158W        W43829  15.374   5.892  12.189
72159W        W43830  28.122  28.442  11.465
72160W        W43831  24.201  38.017  10.718
72161W        W43832  15.598   1.734  10.995
72162W        W43833  26.047  24.457  11.524
72163W        W43834  39.824  26.531   3.719
72164W        W43835  41.313   1.672   1.300
72165W        W43836  41.989  27.941   0.400
72166W        W43837   7.409   5.212  13.344
72167W        W43838   9.672   7.877  10.673
72168W        W43839  18.578  14.897   0.345
72169W        W43840  18.110  39.122  13.474
72170W        W43841  25.041   3.165   3.171
72171W        W43842   8.309  25.816   0.775
72172W        W43843   1.896  42.493   4.164
72173W        W43844  39.016  38.853   9.963
72174W        W43845   5.318  19.100  13.784
72175W        W43846  22.728  26.900   0.705
72176W        W43847   8.843  41.684  14.020
72177W        W43848  32.573  21.559  11.099
72178W        W43849  19.508  27.253   4.186
72179W        W43850   4.397   6.923  12.896
72180W        W43851  11.124  33.153   0.740
72181W        W43852  19.338  39.576   3.287
72182W        W43853  14.189  41.508  11.715
72183W        W43854   3.039  41.567  11.513
72184W        W43855  24.746  44.837   2.594
72185W        W43856  26.422  39.453   2.168
72186W        W43857  34.656  28.024  14.358
72187W        W43858  43.838   3.729   4.268
72188W        W43859   5.212  37.872  11.838
72189W        W43860  23.178  23.541  11.058
72190W        W43861  40.269  21.100   1.561
72191W        W43862  29.483  41.397  11.449
72192W        W43863   4.685  41.922   2.673
72193W        W43864  15.736  29.902   1.856
72194W        W43865  26.014  42.289  10.749
72195W        W43866   1.834   3.801   5.109
72196W        W43867  40.486  20.018   4.078
72197W        W43868   5.712  44.209  12.051
72198W        W43869  34.975   3.685  12.537
72199W        W43870  39.010   6.611  11.540
72200W        W43871  12.791  33.650  10.384
72201W        W43872   3.659  41.670   4.785
72202W        W43873   2.468  12.674  14.855
72203W        W43874  22.435  13.830   0.654
72204W        W43875  37.113  15.709  13.159
72205W        W43876  17.356  36.770   0.737
72206W        W43877   2.729  39.829   0.853
72207W        W43878  33.362  15.798  13.289
72208W        W43879   4.899  16.183  12.911
72209W        W43880  30.513   5.114   0.185
72210W        W43881  20.775   8.231  11.212
72211W        W43882  30.976  40.383  12.483
72212W        W43883  22.047  20.168  12.481
72213W        W43884   0.785  13.816   1.672
72214W        W43885  20.265  24.156   3.295
72215W        W43886   0.217  29.181  11.822
72216W        W43887  33.136   0.827  10.443
72217W        W43888   4.878  37.836  13.433
72218W        W43889   3.208  28.448  13.322
72219W        W43890   4.878  23.414   0.459
72220W        W43891  32.558  16.163   0.431
72221W        W43892  33.498  42.237   0.979
72222W        W43893  35.428  24.767  12.358
72223W        W43894  44.464   0.264   4.113
72224W        W43895  25.614  28.640  13.084
72225W        W43896  24.285   2.196   0.235
72226W        W43897  33.350  28.583   0.110
72227W        W43898  35.904  10.461   4.231
72228W        W43899   3.432   9.120   0.804
72229W        W43900   2.383  31.389   4.141
72230W        W43901   8.373  34.302   2.699
72231W        W43902  11.767   6.826   3.750
72232W        W43903   7.489  31.901  12.403
72233W        W43904  35.204  21.225  14.484
72234W        W43905  20.899  21.837   2.869
72235W        W43906  24.539  22.734  12.076
72236W        W43907  38.408  14.752  13.805
72237W        W43908  13.736   8.315   0.996
72238W        W43909   7.804  38.555  13.752
72239W        W43910  11.251   9.908   2.370
72240W        W43911  32.713  41.355   4.048
72241W        W43912  29.014  28.383   3.163
72242W        W43913  23.687  20.666   0.573
72243W        W43914   3.839  31.536  13.982
72244W        W43915  10.287  14.381   0.404
72245W        W43916   1.234  38.683   3.060
72246W        W43917  22.384  21.487   2.298
72247W        W43918  16.059  28.940  11.150
72248W        W43919  18.068  13.339   0.521
72249W        W43920  32.849  24.973   3.868
72250W        W43921  33.375  20.223  13.795
72251W        W43922  35.928  41.074  12.943
72252W        W43923  26.808  32.393   0.178
72253W        W43924  40.662   8.335  13.284
72254W        W43925  15.054  19.897  10.476
72255W        W43926   1.413  44.170   1.690
72256W        W43927  31.075  26.098  12.071
72257W        W43928  34.074  13.713   4.485
72258W        W43929  16.121  41.589   2.335
72259W        W43930  40.847  42.697   3.631
72260W        W43931  20.536  11.472   0.271
72261W        W43932  30.946  15.750  10.201
72262W        W43933  24.052  26.110   1.784
72263W        W43934  20.241   5.703   4.078
72264W        W43935  40.804   8.428   0.498
72265W        W43936  41.120  21.460  14.980
72266W        W43937  25.484  33.143  11.848
72267W        W43938  13.581  14.114  12.455
72268W        W43939   6.201  40.095   3.129
72269W        W43940  20.566  43.765   3.215
72270W        W43941  31.184   1.787   1.769
72271W        W43942   3.772  23.255   0.812
72272W        W43943  24.589  38.931  12.325
72273W        W43944   3.784   0.526   4.527
72274W        W43945  26.081  28.343  13.862
72275W        W43946  31.360  40.967  10.560
72276W        W43947  10.130  24.176  10.643
72277W        W43948  35.000   6.865   1.143
72278W        W43949  35.308  43.444  14.817
72279W        W43950  14.736  36.864  10.520
72280W        W43951  23.305  16.850   2.085
72281W        W43952  20.788  29.069  12.247
72282W        W43953  34.902   4.648  13.822
72283W        W43954   3.299  28.918   4.477
72284W        W43955  42.443   9.888   2.865
72285W        W43956  37.569  10.800   1.284
72286W        W43957  16.521  22.895   2.788
72287W        W43958  31.587  26.052  12.289
72288W        W43959   7.673   9.690  14.222
72289W        W43960   5.705   6.961   1.223
72290W        W43961  13.008  25.129  10.723
72291W        W43962  34.771   4.461   2.737
72292W        W43963   5.840  26.183   3.678
72293W        W43964  30.476  42.804  13.407
72294W        W43965  16.180  37.871  11.395
72295W        W43966  39.567  33.725   0.654
72296W        W43967  43.427  16.123   4.705
72297W        W43968  32.036  39.961   4.322
72298W        W43969  32.493  32.723  10.671
72299W        W43970  38.461  41.497  12.859
72300W        W43971  33.061  39.872   0.765
72301W        W43972  12.524  19.835   0.331
72302W        W43973  23.546  28.884  11.029
72303W        W43974   6.508  23.223   9.994
72304W        W43975   1.474  40.753  12.104
72305W        W43976  11.202  36.503   1.478
72306W        W43977  15.820  31.478  13.058
72307W        W43978  34.956  15.658  14.374
72308W        W43979  15.320  13.351  10.692
72309W        W43980  21.614  43.018  12.891
72310W        W43981  36.731  38.465   2.256
72311W        W43982  11.048  37.842  12.056
72312W        W43983   6.355   0.616  11.110
72313W        W43984  16.196  10.578  14.302
72314W        W43985  20.728  32.607   2.274
72315W        W43986   3.803   0.284  14.719
72316W        W43987   2.935  32.555  12.609
72317W        W43988  22.198   6.179  14.816
72318W        W43989  43.792  40.973  14.537
72319W        W43990  16.522  43.823   0.949
72320W        W43991  27.192  24.967  14.370
72321W        W43992  13.740   4.268   2.277
72322W        W43993  41.540  32.433  12.299
72323W        W43994  24.534  29.068   4.253
72324W        W43995  18.790  29.069   0.512
72325W        W43996   8.183  35.320  13.307
72326W        W43997  33.558  27.533   3.240
72327W        W43998  32.303  38.717   1.651
72328W        W43999   6.205  22.549  13.457
72329W        W44000  10.946   9.792   5.089
72330W        W44001  26.529  33.618   0.901
72331W        W44002  20.458  23.474   4.249
72332W        W44003  43.571   6.812  11.892
72333W        W44004  31.568  20.236   1.802
72334W        W44005  13.107  29.108   3.588
72335W        W44006   4.267  24.193  11.652
72336W        W44007   8.890  13.770  13.952
72337W        W44008   1.911  28.073   0.910
72338W        W44009  10.885  13.894  10.945
72339W        W44010  13.408  31.076   0.329
72340W        W44011   8.885  41.736  14.975
72341W        W44012  19.046  25.370   3.583
72342W        W44013  39.947  43.067   3.308
72343W        W44014  35.787  26.436  12.381
72344W        W44015  26.217   2.474   3.862
72345W        W44016  33.053   1.755  11.375
72346W        W44017  41.588   3.949  12.019
72347W        W44018   0.063  42.518  10.859
72348W        W44019  10.412  31.707  12.150
72349W        W44020  23.542  12.724   1.782
72350W        W44021  11.426  21.061  10.062
72351W        W44022  18.652  10.774   2.704
72352W        W44023   1.875  12.553  14.055
72353W        W44024  19.716  17.141   2.182
72354W        W44025  28.442  41.918  10.694
72355W        W44026   6.595  23.397  13.424
72356W        W44027  19.261  11.232   1.427
72357W        W44028  26.143  16.631   2.348
72358W        W44029   0.793  19.081   4.408
72359W        W44030  13.544   7.751   2.849
72360W        W44031  21.730  41.135   4.610
72361W        W44032  42.527  36.911  12.912
72362W        W44033  38.661   1.981   3.756
72363W        W44034  44.888  25.847  14.845
72364W        W44035  36.850   7.725  10.797
72365W        W44036   6.289  21.280  14.854
72366W        W44037   8.400   9.174   0.877
72367W        W44038  43.543   4.322   3.690
72368W        W44039  32.962  33.425   2.156
72369W        W44040   7.121  29.828  12.619
72370W        W44041   8.132  22.934  11.485
72371W        W44042  17.470  43.480  12.504
72372W        W44043  21.630   8.585   2.377
72373W        W44044  39.323  35.886   2.689
72374W        W44045  42.432  32.343   4.598
72375W        W44046   4.193  10.634  11.999
72376W        W44047  19.085  28.392  14.810
72377W        W44048   8.965   5.730   4.593
72378W        W44049  11.268  44.891   2.161
72379W        W44050  43.719  39.419   5.030
72380W        W44051   2.725  19.224   1.839
72381W        W44052  19.753  24.915  12.166
72382W        W44053  11.225   4.942   1.698
72383W        W44054  13.712  27.364  13.015
72384W        W44055  27.715  38.144   0.871
72385W        W44056  19.171  11.143   1.930
72386W        W44057  29.695   4.729   1.755
72387W        W44058   2.722  19.684   4.682
72388W        W44059  15.263  32.635  13.510
72389W        W44060  21.609  16.676  11.291
72390W        W44061  13.838  37.037   0.207
72391W        W44062  22.178  29.470   4.696
72392W        W44063   1.950   6.999  12.220
72393W        W44064  23.622  43.087  14.800
72394W        W44065  20.214   8.666   9.850
72395W        W44066   5.539  34.881  14.466
72396W        W44067  32.296  22.779  12.112
72397W        W44068  23.788  27.023   3.249
72398W        W44069  21.766  37.268   0.606
72399W        W44070  28.934   8.518   0.436
72400W        W44071  11.238   0.504   1.828
72401W        W44072   8.928  41.371   4.235
72402W        W44073  17.794  30.505  14.555
72403W        W44074  21.032   9.327   1.278
72404W        W44075   8.077  38.345  12.467
72405W        W44076  35.117  11.822  12.432
72406W        W44077  36.331   9.667   4.883
72407W        W44078  26.441  21.192   0.380
72408W        W44079   0.868   6.643  12.087
72409W        W44080  19.031  28.700   1.718
72410W        W44081  27.396  38.038   4.523
72411W        W44082   6.388  16.503   1.696
72412W        W44083  31.903  44.647  11.605
72413W        W44084  22.228  30.662   0.776
72414W        W44085  11.906  29.883  14.140
72415W        W44086  44.519  36.594  13.140
72416W        W44087  12.875  29.043  13.657
72417W        W44088   1.422  21.294   3.511
72418W        W44089   9.700   5.103   4.186
72419W        W44090  18.289  26.932  11.948
72420W        W44091  17.831  11.345   0.945
72421W        W44092  31.521   5.215   1.428
72422W        W44093  16.722  31.344   4.135
72423W        W44094  38.233  24.054   3.149
72424W        W44095  40.027  18.641  13.797
72425W        W44096  13.506  39.587  12.822
72426W        W44097  20.208   0.912  14.305
72427W        W44098  17.966  11.449   0.458
72428W        W44099  26.538  17.686   0.739
72429W        W44100  25.607  10.367   4.203
72430W        W44101  10.663  28.545   1.338
72431W        W44102  43.394  24.475   3.919
72432W        W44103   3.890  41.905  12.708
72433W        W44104  22.568  18.458   2.716
72434W        W44105   3.495  34.828   2.555
72435W        W44106  35.518  43.889   0.880
72436W        W44107   1.737  13.352   1.368
72437W        W44108   0.018  32.374   1.283
72438W        W44109  16.677  44.356  13.785
72439W        W44110   5.145   0.820  13.380
72440W        W44111  15.069  39.535   2.885
72441W        W44112   0.076  32.404   3.192
72442W        W44113  36.887  36.684   1.408
72443W        W44114   0.030  34.078   4.755
72444W        W44115  19.030  15.546  10.929
72445W        W44116  36.584  19.084   2.333
72446W        W44117  31.301  29.149   2.718
72447W        W44118  34.183  30.529   2.670
72448W        W44119  37.515   7.638  12.035
72449W        W44120  10.871  34.610   0.808
72450W        W44121  14.377  44.951  11.442
72451W        W44122  13.202  41.446  10.280
72452W        W44123   8.911  31.815   2.353
72453W        W44124  39.390   4.733   0.972
72454W        W44125  28.242  19.281  13.381
72455W        W44126   1.953   9.245  13.590
72456W        W44127  12.563   2.494  12.816
72457W        W44128  29.369  13.557  10.661
72458W        W44129  29.811  16.242  14.934
72459W        W44130  34.872   6.899   3.200
72460W        W44131  15.311  28.187  11.476
72461W        W44132  40.388  41.036  10.714
72462W        W44133   5.439  26.727  11.966
72463W        W44134  15.138  16.174   2.045
72464W        W44135  24.452   7.172  13.916
72465W        W44136  38.346  17.576   4.655
72466W        W44137  15.329  29.591   1.983
72467W        W44138   0.325   4.217   0.151
72468W        W44139  14.387  38.979   2.588
72469W        W44140   8.607   4.281  12.194
72470W        W44141   2.465  22.628  14.811
72471W        W44142  24.600  41.565   1.314
72472W        W44143  35.498  22.029  10.771
72473W        W44144  21.226  14.385   3.132
72474W        W44145   0.715  14.590   2.993
72475W        W44146  22.615  19.253  10.141
72476W        W44147  31.945  20.283  11.562
72477W        W44148  18.510  15.769   4.700
72478W        W44149   5.154  37.981   2.375
72479W        W44150  34.855  24.626   2.405
72480W        W44151  17.248  11.392   3.624
72481W        W44152  28.187  36.019  14.722
72482W        W44153  35.896  21.863   4.653
72483W        W44154  32.725   6.073  14.846
72484W        W44155  36.248  19.470   3.382
72485W        W44156  19.814  13.555  14.552
72486W        W44157  40.525  35.795   5.003
72487W        W44158   7.314   3.872   4.093
72488W        W44159  13.185  37.479   3.250
72489W        W44160  26.646  37.148  10.657
72490W        W44161   0.508  28.030   0.707
72491W        W44162   8.124   0.086  12.385
72492W        W44163  13.104  21.459  14.307
72493W        W44164  10.723  42.279  14.520
72494W        W44165  44.827  20.332   3.270
72495W        W44166  24.850  21.130   3.798
72496W        W44167  16.191  14.672   2.840
72497W        W44168  40.400  22.765  10.239
72498W        W44169  43.761  38.807   4.201
72499W        W44170  18.948   1.029  13.298
72500W        W44171  10.103   1.791   3.314
72501W        W44172  10.882  12.277  13.649
72502W        W44173   2.755  40.956  13.835
72503W        W44174   3.860  32.164  11.209
72504W        W44175  42.608   4.962  11.641
72505W        W44176  30.616   4.928   2.386
72506W        W44177  14.826  21.543   1.640
72507W        W44178   4.532  34.545   1.540
72508W        W44179   6.400   3.830  12.111
72509W        W44180  19.982  37.464   1.742
72510W        W44181   3.489  13.780  13.312
72511W        W44182  35.074  35.959   4.147
72512W        W44183  21.687  41.438  13.613
72513W        W44184   3.417  28.574   0.549
72514W        W44185  36.066  41.840   0.527
72515W        W44186  15.510  10.075  14.716
72516W        W44187   3.312   0.751   4.436
72517W        W44188  22.176  37.731  13.374
72518W        W44189   7.611  34.480  12.453
72519W        W44190  37.843  29.956  13.352
72520W        W44191   2.564  17.542  11.568
72521W        W44192  11.751  13.280   1.471
72522W        W44193   0.277  13.900  13.799
72523W        W44194  27.141  37.447   0.399
72524W        W44195  44.309   4.904   2.921
72525W        W44196   2.230  20.146   9.869
72526W        W44197   6.542  11.904   0.289
72527W        W44198  34.454   6.928   3.708
72528W        W44199   6.645  31.834  10.925
72529W        W44200  33.075  13.825  14.814
72530W        W44201  19.134  15.905  14.864
72531W        W44202   7.608  37.139  11.255
72532W        W44203  16.622  15.531   1.393
72533W        W44204  27.589  12.322   4.537
72534W        W44205  36.960  31.150  11.607
72535W        W44206  17.648  28.162  10.737
72536W        W44207  14.293  25.926   0.408
72537W        W44208  22.128  33.615   3.457
72538W        W44209  11.772  13.149  10.607
72539W        W44210  36.778  37.016  12.937
72540W        W44211  18.253  34.990   2.280
72541W        W44212   5.684  31.060   0.455
72542W        W44213  37.062  34.830  12.346
72543W        W44214   1.596   9.240   1.913
72544W        W44215  18.003  17.746   2.543
72545W        W44216  27.849  16.728   0.377
72546W        W44217  30.976  16.692  10.681
72547W        W44218   5.896  25.955  12.165
72548W        W44219  32.322  31.088  11.414
72549W        W44220  34.557  21.545  13.483
72550W        W44221   9.100   6.362   0.683
72551W        W44222   9.813   5.434   4.674
72552W        W44223  33.558  19.120  12.009
72553W        W44224  41.082  23.543  13.075
72554W        W44225   1.399  34.561   1.674
72555W        W44226  19.124  24.956  13.362
72556W        W44227  42.853   0.017  10.670
72557W        W44228  23.225  41.801  11.611
72558W        W44229  36.049  37.928   1.901
72559W        W44230  10.686   2.305  10.834
72560W        W44231  14.231  32.104  13.503
72561W        W44232  40.834  35.550   2.826
72562W        W44233   2.450  25.015   4.647
72563W        W44234   6.182  39.054   1.893
72564W        W44235  14.668  34.328  12.555
72565W        W44236   1.036  16.838  11.863
72566W        W44237  34.503  31.550   1.290
72567W        W44238  26.970  32.838   0.399
72568W        W44239  31.412  10.010   1.378
72569W        W44240  22.470  32.103  13.415
72570W        W44241  40.517  26.477   2.081
72571W        W44242  12.309  18.254  12.003
72572W        W44243  20.760  23.470  11.121
72573W        W44244  22.716  26.985   0.195
72574W        W44245  14.759  16.365  12.096
72575W        W44246   4.702  22.569   3.144
72576W        W44247  39.760  38.740   1.226
72577W        W44248  17.307  44.828  12.501
72578W        W44249  13.280  36.946  13.392
72579W        W44250  19.824  33.043   0.509
72580W        W44251   3.775   9.963  13.022
72581W        W44252  29.069   3.259   1.770
72582W        W44253  10.985  26.142   2.140
72583W        W44254  31.717  40.395   1.934
72584W        W44255  13.307  23.774  13.830
72585W        W44256  16.574  26.220   4.420
72586W        W44257  25.980   2.287   0.879
72587W        W44258  27.647  25.208  13.459
72588W        W44259   1.226  20.701  12.123
72589W        W44260  26.296  30.124   1.700
72590W        W44261   5.737  39.707  10.290
72591W        W44262  24.095  38.242   4.737
72592W        W44263  32.489  26.606  11.521
72593W        W44264  21.586  28.423  11.022
72594W        W44265  40.635   8.620   2.236
72595W        W44266  42.825  11.884   9.849
72596W        W44267  30.219  23.873  11.157
72597W        W44268  44.877  10.338  12.170
72598W        W44269  23.250  44.472   3.714
72599W        W44270  33.137   9.684   4.399
72600W        W44271  36.174  35.229   5.205
72601W        W44272  12.810   7.468   3.827
72602W        W44273   8.738  44.450   4.546
72603W        W44274  27.033  33.295  12.993
72604W        W44275   0.455  30.387  10.446
72605W        W44276  21.238  31.597  11.972
72606W        W44277  43.302  30.901  13.950
72607W        W44278  29.664   0.508  12.539
72608W        W44279  11.664  15.093   3.349
72609W        W44280  25.633   1.860  11.103
72610W        W44281  34.512  24.259   0.774
72611W        W44282   8.740  13.872   1.456
72612W        W44283  14.230  32.040  14.484
72613W        W44284   5.167  32.103  10.743
72614W        W44285   0.763   7.231   4.630
72615W        W44286  37.035  24.641   1.666
72616W        W44287  12.897  35.586   2.271
72617W        W44288   4.905  36.514   1.889
72618W        W44289  17.762  16.532  14.981
72619W        W44290  26.904  24.465   4.883
72620W        W44291   4.925  39.212   2.395
72621W        W44292  38.485  36.121   0.458
72622W        W44293  10.624   2.354   3.848
72623W        W44294  30.473  17.960   1.495
72624W        W44295  32.698  35.361   4.928
72625W        W44296  16.077  13.870  11.095
72626W        W44297  20.716  30.865   0.131
72627W        W44298  18.658   7.766   0.288
72628W        W44299  11.378  27.675  14.850
72629W        W44300  29.371  23.221   1.586
72630W        W44301  27.624  28.359  13.478
72631W        W44302  39.511  29.666  11.216
72632W        W44303  42.404  24.563   0.342
72633W        W44304  19.720   1.172   1.362
72634W        W44305   4.372  41.718   0.249
72635W        W44306  34.864  21.952  11.167
72636W        W44307  14.898  26.148  12.403
72637W        W44308  24.459  24.831  14.718
72638W        W44309  10.221   8.381   0.752
72639W        W44310   9.608   1.799   3.211
72640W        W44311  31.101  41.559  13.502
72641W        W44312  33.067   6.459   3.106
72642W        W44313  24.147  44.146   3.916
72643W        W44314  11.909  10.280  10.375
72644W        W44315   9.826  12.604  14.535
72645W        W44316  40.602  16.167  12.884
72646W        W44317  35.372  26.656   0.336
72647W        W44318  36.844   0.196   2.270
72648W        W44319  30.624  43.674  12.271
72649W        W44320   7.997  37.416  13.402
72650W        W44321  38.923   7.439   1.060
72651W        W44322  44.570  12.926   1.812
72652W        W44323  32.037  36.025   2.404
72653W        W44324  28.689  16.594   1.871
72654W        W44325  27.283  38.332  10.615
72655W        W44326  41.001  34.119  11.191
72656W        W44327  13.317  41.877   3.800
72657W        W44328  35.142   5.890  13.893
72658W        W44329  31.850  35.338  14.364
72659W        W44330  21.759  23.009   3.267
72660W        W44331   1.185  39.236  12.698
72661W        W44332  30.142  11.189   4.796
72662W        W44333  24.311  42.623  13.748
72663W        W44334   7.521  11.449  11.104
72664W        W44335  18.971   0.978  14.565
72665W        W44336   6.167   2.704  14.572
72666W        W44337   8.783  35.234   2.321
72667W        W44338  44.648  35.861   4.003
72668W        W44339  37.861  23.118  14.412
72669W        W44340  32.157  12.315   1.888
72670W        W44341  41.850  40.410  14.037
72671W        W44342  15.927  37.903  13.426
72672W        W44343  21.774  22.669  10.144
72673W        W44344  16.202  32.041  13.556
72674W        W44345  27.105  20.083  14.576
72675W        W44346  18.287  24.827  10.131
72676W        W44347  24.122  34.918   4.106
72677W        W44348  32.309  27.007  14.985
72678W        W44349   5.383  10.153   3.778
72679W        W44350  21.534  31.595   2.923
72680W        W44351  39.708  24.763   4.137
72681W        W44352   6.935  27.521   0.388
72682W        W44353  34.859  18.222   2.820
72683W        W44354  16.515  29.620   2.832
72684W        W44355  10.556  33.625  14.121
72685W        W44356  35.771  10.310  11.080
72686W        W44357  37.993  19.758  14.992
72687W        W44358  21.044   8.653  11.273
72688W        W44359  28.796  29.570   3.729
72689W        W44360   5.405   7.482   4.808
72690W        W44361  10.107  31.576  11.206
72691W        W44362  30.565  25.272   2.283
72692W        W44363  33.819  35.015  10.830
72693W        W44364  34.600  25.543   4.372
72694W        W44365  19.787  38.703   5.321
72695W        W44366   7.559   2.209   2.777
72696W        W44367  12.900  29.508  13.377
72697W        W44368  40.991  38.472  13.273
72698W        W44369  13.575  39.017  14.099
72699W        W44370  22.343   6.541  12.915
72700W        W44371  37.478   0.737   1.733
72701W        W44372  25.433   9.730   1.124
72702W        W44373  39.844  18.883  13.040
72703W        W44374  40.229  37.127  11.903
72704W        W44375   1.903  13.298   2.411
72705W        W44376  22.050   7.821   0.396
72706W        W44377  42.970  19.489   3.815
72707W        W44378  35.944  27.983  12.889
72708W        W44379   0.482  11.688   3.898
72709W        W44380  37.376  10.229   3.870
72710W        W44381  18.603  43.305   0.299
72711W        W44382  38.523  24.752   0.890
72712W        W44383   4.148   2.906  11.590
72713W        W44384   7.382   7.497  11.135
72714W        W44385  19.558  41.407  13.979
72715W        W44386  20.688  43.994  10.508
72716W        W44387  19.566   6.330  13.990
72717W        W44388  14.754  17.999   4.560
72718W        W44389  29.636  28.273  12.186
72719W        W44390  12.152  14.189  13.070
72720W        W44391  37.020   9.913  13.339
72721W        W44392  35.960  38.330  13.350
72722W        W44393  43.289  17.140   3.396
72723W        W44394   6.764  28.470   3.066
72724W        W44395  38.659  34.484   3.580
72725W        W44396  29.720  16.689   1.605
72726W        W44397  39.418  37.449   4.890
72727W        W44398  17.378   9.006   5.136
72728W        W44399  41.217   8.898  10.944
72729W        W44400  22.152  18.607  12.468
72730W        W44401   4.910  17.677  11.611
72731W        W44402  11.578   2.171   1.877
72732W        W44403   7.367  35.029  14.432
72733W        W44404  26.213  25.121   3.645
72734W        W44405  16.284   0.359   5.039
72735W        W44406  30.650  44.819  11.384
72736W        W44407  30.437  22.056  14.509
72737W        W44408  23.068  33.630   3.928
72738W        W44409  25.563   3.122  10.209
72739W        W44410  35.690  36.388   9.770
72740W        W44411  23.081  24.495   2.342
72741W        W44412  41.426  16.409  10.719
72742W        W44413  14.618  12.415  11.800
72743W        W44414  33.524  16.735   2.372
72744W        W44415  17.488   3.383  10.931
72745W        W44416  33.836  44.399  13.960
72746W        W44417  18.366  34.930  13.444
72747W        W44418  10.908  15.299   3.810
72748W        W44419  38.321  19.909  13.878
72749W        W44420  17.066   4.437  12.765
72750W        W44421  17.391  15.525  14.416
72751W        W44422  13.206   2.544   1.303
72752W        W44423  24.503  35.408   3.656
72753W        W44424  32.720  15.592   2.179
72754W        W44425  30.701  30.948   4.627
72755W        W44426  11.278  43.798  11.213
72756W        W44427   7.807  10.020   4.062
72757W        W44428  17.477  19.487  12.888
72758W        W44429  35.870  30.470  13.603
72759W        W44430  37.999   1.793  14.426
72760W        W44431  31.349  44.750   4.115
72761W        W44432  34.485  15.810  13.794
72762W        W44433  30.135  10.718   0.859
72763W        W44434  11.776  17.616   3.312
72764W        W44435   4.922  29.944   1.361
72765W        W44436  43.906  39.607  11.954
72766W        W44437  18.634  39.058  11.684
72767W        W44438  10.586  42.307  11.130
72768W        W44439   5.894   7.973   0.318
72769W        W44440  26.000  11.846   1.498
72770W        W44441   7.858   0.837   1.175
72771W        W44442  12.356  39.325   3.699
72772W        W44443   5.100  36.073  10.619
72773W        W44444   8.169   9.743  11.225
72774W        W44445  20.586  23.259  13.484
72775W        W44446  29.627   1.036   5.153
72776W        W44447  22.537   3.705   4.123
72777W        W44448  33.147  30.874  11.943
72778W        W44449  33.651  23.541   1.839
72779W        W44450  32.528   7.538   4.778
72780W        W44451  31.514  16.092  13.591
72781W        W44452  20.486  26.580   2.917
72782W        W44453  35.784  18.842   4.033
72783W        W44454  17.313   3.432   4.224
72784W        W44455  32.070  25.086   3.364
72785W        W44456  40.449   6.331  13.589
72786W        W44457  28.315  19.970   1.805
72787W        W44458  22.440   4.996  11.938
72788W        W44459  27.230   5.001   2.416
72789W        W44460  13.111  27.676  11.108
72790W        W44461  26.701  34.199   0.395
72791W        W44462  15.798  32.512  12.896
72792W        W44463   9.231  26.251  11.565
72793W        W44464  12.235   2.847   0.008
72794W        W44465  43.705   6.878  13.028
72795W        W44466   8.603   5.173  12.587
72796W        W44467   6.397  29.626   4.310
72797W        W44468  28.886  14.083  11.985
72798W        W44469   3.278  16.025   2.196
72799W        W44470  28.980  17.650  11.197
72800W        W44471   9.242   5.915   1.528
72801W        W44472  35.806   4.635  12.004
72802W        W44473  34.487   0.714  10.973
72803W        W44474  16.769  22.660   3.207
72804W        W44475   4.573  30.305  11.619
72805W        W44476   3.696  25.966   2.545
72806W        W44477  19.624  40.458   4.312
72807W        W44478   5.961  43.037  14.868
72808W        W44479  40.835   5.015   2.842
72809W        W44480  20.439  28.767   4.904
72810W        W44481  25.689   7.261   2.393
72811W        W44482  25.117  23.971  13.834
72812W        W44483   2.834  32.120   4.652
72813W        W44484  32.404   2.198  10.729
72814W        W44485  27.170  10.802  14.389
72815W        W44486  19.280  28.903   2.685
72816W        W44487  23.810  23.745   4.540
72817W        W44488  27.645  42.546   3.703
72818W        W44489  38.774  41.926  13.888
72819W        W44490  43.893  22.726   0.351
72820W        W44491  36.092  19.674  11.616
72821W        W44492   8.638  36.133  12.010
72822W        W44493   4.063  40.368   1.244
72823W        W44494  43.596  39.873   1.735
72824W        W44495  24.057  40.864   1.091
72825W        W44496  38.544  34.186   4.591
72826W        W44497  39.264   4.964   3.756
72827W        W44498  24.287  11.729   2.763
72828W        W44499  31.383  17.971   4.213
72829W        W44500  35.391   2.120  11.065
72830W        W44501  39.083  41.717   4.922
72831W        W44502  40.345  28.804  13.027
72832W        W44503  35.123  44.912   1.841
72833W        W44504   4.231  18.331  14.054
72834W        W44505  20.780  12.603   5.472
72835W        W44506  24.630  22.343  14.488
72836W        W44507  13.614  30.818  14.530
72837W        W44508  11.830  30.421   2.707
72838W        W44509  10.757  14.064  12.882
72839W        W44510   2.249  32.485   4.178
72840W        W44511  23.936  15.274  11.884
72841W        W44512  20.973  17.683   2.363
72842W        W44513  36.380  16.287  14.937
72843W        W44514  20.778  32.571  13.162
72844W        W44515   1.499  15.130  12.428
72845W        W44516  33.566  10.123   2.695
72846W        W44517   5.279  21.721   2.763
72847W        W44518  26.545  41.225   4.327
72848W        W44519   4.537  35.230  14.497
72849W        W44520  16.512  14.695   4.103
72850W        W44521   1.037  16.162   3.048
72851W        W44522   3.272  34.154  12.869
72852W        W44523   0.027  33.366   1.395
72853W        W44524   5.078  42.488  13.148
72854W        W44525   4.522   7.264  14.230
72855W        W44526  15.150  35.539  11.689
72856W        W44527  32.889  41.282  11.100
72857W        W44528  41.902  16.416   0.340
72858W        W44529  27.440   9.375  12.040
72859W        W44530  40.449  22.119  13.134
72860W        W44531  12.373  42.132  12.423
72861W        W44532  18.190  29.624  13.856
72862W        W44533  42.932  11.165  13.049
72863W        W44534  42.251  17.184  11.952
72864W        W44535  24.712  10.415   3.085
72865W        W44536  18.273  34.043  10.635
72866W        W44537  28.009  42.487  12.627
72867W        W44538  20.724  27.540  10.867
72868W        W44539  30.578  25.470  12.472
72869W        W44540  40.739  36.055   3.756
72870W        W44541  27.636  41.827  14.751
72871W        W44542  27.047  31.984  13.348
72872W        W44543  30.667  36.502  11.986
72873W        W44544  19.891   6.247   3.232
72874W        W44545  43.812  24.557   2.203
72875W        W44546  35.522  10.428   0.742
72876W        W44547  27.390   5.868  14.524
72877W        W44548  20.641  43.419  14.781
72878W        W44549   1.232  19.136  13.389
72879W        W44550  44.128  16.267  10.378
72880W        W44551   9.459  25.781  10.709
72881W        W44552  10.541  27.906   0.188
72882W        W44553  42.803   1.982  14.594
72883W        W44554  17.134  27.213   3.630
72884W        W44555   3.040  15.744   4.124
72885W        W44556   3.378  22.156   5.664
72886W        W44557  19.506  11.781   2.650
72887W        W44558   3.715  25.418  13.018
72888W        W44559   4.655  29.272   5.086
72889W        W44560  31.610  20.467   2.288
72890W        W44561  25.074   4.512   2.239
72891W        W44562   5.016  37.913  12.475
72892W        W44563  39.601  40.814   2.719
72893W        W44564  42.222   8.781  13.901
72894W        W44565  29.685  26.809   4.569
72895W        W44566  31.735  33.898   2.492
72896W        W44567  40.378   1.954  13.846
72897W        W44568  34.408   6.124  13.799
72898W        W44569   0.713  12.432   4.233
72899W        W44570  44.847  16.465   4.304
72900W        W44571   1.533  26.556   4.595
72901W        W44572  23.244  21.798   3.777
72902W        W44573  18.176  28.886  13.358
72903W        W44574  10.264  36.058  14.058
72904W        W44575  11.855  24.333   0.526
72905W        W44576  20.500  16.749  10.649
72906W        W44577   4.482  28.128  10.674
72907W        W44578  30.004  28.185  14.585
72908W        W44579  12.685  34.980  13.920
72909W        W44580  39.567  31.166   0.339
72910W        W44581   5.144   9.269   4.605
72911W        W44582  19.916   9.709   1.762
72912W        W44583   5.849  38.299   1.897
72913W        W44584  16.501  17.551   2.207
72914W        W44585  31.511  16.792  10.769
72915W        W44586  34.687  22.072   0.192
72916W        W44587  16.114  32.488   3.523
72917W        W44588  24.372  14.278  12.020
72918W        W44589   1.464   0.133  11.564
72919W        W44590  10.226   8.321  13.888
72920W        W44591  21.189   3.697   4.979
72921W        W44592  30.226  32.390  12.440
72922W        W44593  37.364  14.220  14.025
72923W        W44594  37.553  41.044   2.733
72924W        W44595  21.158  24.303  10.984
72925W        W44596   9.344  35.466  11.855
72926W        W44597  11.424  17.720  14.320
72927W        W44598  18.084  27.366  13.420
72928W        W44599  44.907  19.473  14.372
72929W        W44600  37.358   0.850  11.259
72930W        W44601   2.241  41.284  11.176
72931W        W44602  15.260   0.566  13.744
72932W        W44603  20.501  20.083   1.267
72933W        W44604   8.373  12.274  11.616
72934W        W44605  34.208   9.798   2.121
72935W        W44606   0.322  21.408  13.979
72936W        W44607  10.555   4.100  13.969
72937W        W44608  18.218  17.187   3.577
72938W        W44609  33.116   0.780  13.364
72939W        W44610  38.502  27.137   4.370
72940W        W44611   2.365   5.700  10.426
72941W        W44612  23.539  27.640  10.673
72942W        W44613  26.519   1.899   0.268
72943W        W44614  44.650   9.657   0.526
72944W        W44615   5.250  25.766   3.264
72945W        W44616   8.152  22.966   2.715
72946W        W44617  38.454  44.790   2.842
72947W        W44618  21.709  42.891   0.900
72948W        W44619   4.506  27.606  11.856
72949W        W44620  32.511  30.951   2.639
72950W        W44621  12.890  25.187   0.497
72951W        W44622  21.675  14.307   0.801
72952W        W44623  11.249  15.362   3.150
72953W        W44624  22.999   3.262  14.415
72954W        W44625  33.197   4.037  13.475
72955W        W44626   3.990  17.587  12.536
72956W        W44627  37.732  16.310   1.411
72957W        W44628  36.992  11.364   0.734
72958W        W44629  27.565  16.100   2.007
72959W        W44630  40.154  35.944  11.237
72960W        W44631  23.068  30.443   3.267
72961W        W44632   2.873   6.159   2.899
72962W        W44633   5.257  39.166   0.483
72963W        W44634   5.727   1.325  14.417
72964W        W44635  21.442  13.295  12.455
72965W        W44636  12.619  35.855  12.982
72966W        W44637  19.821   2.554  13.846
72967W        W44638  41.081  13.635  12.537
72968W        W44639  36.900   0.855   0.983
72969W        W44640   6.742  25.751   0.741
72970W        W44641   5.492  28.846  13.425
72971W        W44642   0.783  36.934   1.843
72972W        W44643   7.931  25.597   0.488
72973W        W44644   2.037  28.567  11.770
72974W        W44645  13.078   2.940   0.686
72975W        W44646  24.674   2.233  14.884
72976W        W44647  37.073  18.286  14.386
72977W        W44648  13.410  33.425   1.972
72978W        W44649  30.977  32.535   3.320
72979W        W44650  24.914  27.723   1.647
72980W        W44651   3.279  41.771  11.073
72981W        W44652  15.709  33.548   4.119
72982W        W44653  15.702   6.777   1.473
72983W        W44654  41.336   2.498  11.144
72984W        W44655  42.292  32.037  11.539
72985W        W44656   8.656  11.669  11.650
72986W        W44657   3.952  31.321  14.472
72987W        W44658  35.794  26.548   2.884
72988W        W44659  15.219   8.050  11.517
72989W        W44660  15.017  42.887  14.588
72990W        W44661  28.444  23.678  11.618
72991W        W44662   7.193  32.260   1.278
72992W        W44663  40.400  11.852  14.279
72993W        W44664  32.999  16.983   4.175
72994W        W44665   2.163  28.500  13.944
72995W        W44666  17.258  13.360  14.831
72996W        W44667  32.379  26.565  14.089
72997W        W44668  34.448  29.191   1.350
72998W        W44669   4.164  40.164   0.770
72999W        W44670  19.094  43.381   2.527
73000W        W44671  18.798  36.517   2.160
73001W        W44672  42.943   1.644   4.081
73002W        W44673  38.431  19.831  12.130
73003W        W44674   5.744  40.540   4.795
73004W        W44675  16.597  12.735  14.515
73005W        W44676  31.363  12.123   1.782
73006W        W44677  30.762  41.914   4.555
73007W        W44678  11.610   6.173   5.052
73008W        W44679  34.343  12.765  12.016
73009W        W44680  32.638  28.758  13.405
73010W        W44681  14.603  33.540   0.661
73011W        W44682  21.281  29.637   3.628
73012W        W44683  16.596  29.512  11.668
73013W        W44684  11.881  39.405  11.133
73014W        W44685   3.865   9.523  10.885
73015W        W44686  28.818   5.145  14.035
73016W        W44687  35.020  31.061  12.037
73017W        W44688  17.645  16.863  14.421
73018W        W44689   2.637  35.471  13.088
73019W        W44690   6.240   3.910  14.048
73020W        W44691   0.314  28.036  10.602
73021W        W44692  19.760  18.443  11.811
73022W        W44693  38.341  36.356   0.922
73023W        W44694  15.903   5.148   1.805
73024W        W44695  36.409  44.813   0.425
73025W        W44696   8.131  38.615   3.209
73026W        W44697  15.561  42.246   0.415
73027W        W44698  26.566  28.234   2.226
73028W        W44699  35.102  40.240   0.088
73029W        W44700  31.586   8.882  10.659
73030W        W44701  42.368   3.344   1.906
73031W        W44702  11.857  27.876  14.868
73032W        W44703  32.927  32.643  12.810
73033W        W44704  27.426  21.362   4.233
73034W        W44705  28.189  44.301  11.504
73035W        W44706  17.223  34.240   3.823
73036W        W44707  10.760  43.283  14.995
73037W        W44708  14.319   8.608  11.491
73038W        W44709  18.039   6.113   2.652
73039W        W44710  25.242   5.127  10.735
73040W        W44711  29.641   7.720   0.394
73041W        W44712  12.521  21.575   2.859
73042W        W44713  25.448  11.279   0.007
73043W        W44714  38.264  20.527   0.833
73044W        W44715   4.274  26.571  11.562
73045W        W44716  20.478   8.168  11.616
73046W        W44717  13.281  33.678  11.074
73047W        W44718  23.757  22.122   0.854
73048W        W44719   2.649   3.518  10.629
73049W        W44720   6.263  10.644  10.004
73050W        W44721  16.901  18.644  13.950
73051W        W44722  31.166  21.115   3.728
73052W        W44723  16.269   8.543  13.961
73053W        W44724  24.978  17.993   3.659
73054W        W44725   5.062  32.822   2.426
73055W        W44726  26.779  25.772   4.218
73056W        W44727   9.179  37.230   3.221
73057W        W44728   2.464   0.991  10.827
73058W        W44729  27.338  15.867  13.385
73059W        W44730  41.931  38.817   0.796
73060W        W44731  32.658  32.871   3.667
73061W        W44732   7.831  33.699  10.952
73062W        W44733  37.582  40.465  14.926
73063W        W44734  37.336   8.979   1.225
73064W        W44735   8.224   9.819   3.356
73065W        W44736   9.681  25.649  14.907
73066W        W44737  15.102  34.450   1.444
73067W        W44738  11.743  38.042   3.528
73068W        W44739  42.547   8.559  12.403
73069W        W44740  41.754  13.809   1.574
73070W        W44741  17.215  10.100  11.858
73071W        W44742   3.531  16.692   3.271
73072W        W44743  39.225  30.409  13.430
73073W        W44744  34.439  13.680  12.026
73074W        W44745  23.704  22.079   3.855
73075W        W44746  24.569  34.119  14.321
73076W        W44747  28.650  17.854  14.029
73077W        W44748  42.771  18.609  11.090
73078W        W44749  16.819  33.457  13.804
73079W        W44750  27.781   9.728   1.258
73080W        W44751   8.265   9.102  14.858
73081W        W44752  35.674   9.218   0.961
73082W        W44753  10.257  39.063   1.482
73083W        W44754  29.117  13.937   0.295
73084W        W44755  28.163  27.998  14.878
73085W        W44756  34.099  23.146  12.022
73086W        W44757   2.755  26.560   2.711
73087W        W44758  12.779  33.659  13.867
73088W        W44759   5.458  21.907   2.329
73089W        W44760  25.548   4.269  14.575
73090W        W44761  22.443   5.907  12.122
73091W        W44762  35.875   2.852   0.279
73092W        W44763  25.328  33.152  14.886
73093W        W44764  27.597  33.176  13.973
73094W        W44765  20.507  35.799  14.109
73095W        W44766  11.331  33.688  11.197
73096W        W44767  10.688  32.075   4.019
73097W        W44768  39.427  33.662   4.713
73098W        W44769  34.800  44.661   2.347
73099W        W44770  36.625  14.642  11.623
73100W        W44771  35.137  23.956  14.693
73101W        W44772   7.906  24.612  13.557
73102W        W44773  42.293  16.313   4.133
73103W        W44774  20.206  23.269  11.311
73104W        W44775  39.452  39.504   4.330
73105W        W44776  43.655  33.971   2.090
73106W        W44777  29.078   3.864  13.304
73107W        W44778  34.549  20.752   2.982
73108W        W44779  21.090  44.462   2.349
73109W        W44780  35.911  15.458  11.962
73110W        W44781  36.144  25.342   3.676
73111W        W44782  37.986  27.939   1.874
73112W        W44783  37.208  39.188   0.399
73113W        W44784  34.974  12.653  13.953
73114W        W44785  19.289  41.375   2.195
73115W        W44786  26.941  27.686  13.867
73116W        W44787  43.085  42.023   2.678
73117W        W44788  41.557  26.775  12.947
73118W        W44789  44.588  24.163   0.404
73119W        W44790  42.121  34.526   0.470
73120W        W44791   8.444  17.386   1.021
73121W        W44792   8.068   2.343   2.732
73122W        W44793  15.000  37.401  12.086
73123W        W44794  31.381   1.266   0.771
73124W        W44795  26.642  10.306  12.086
73125W        W44796  25.765  19.502   3.269
73126W        W44797  16.140  31.501  14.403
73127W        W44798  38.466  31.510  10.444
73128W        W44799  21.786  32.134  11.539
73129W        W44800  43.977   0.959  14.857
73130W        W44801  21.154  19.199  14.724
73131W        W44802   9.036  32.929   2.866
73132W        W44803   1.834  33.250   0.777
73133W        W44804  27.916  36.360  13.385
73134W        W44805  17.080  30.624  12.477
73135W        W44806  38.778  40.824  11.128
73136W        W44807   9.700  12.749   0.025
73137W        W44808   2.704  20.293  13.088
73138W        W44809   7.976  24.038  12.857
73139W        W44810  13.168  24.259  13.066
73140W        W44811  23.198  17.019  10.870
73141W        W44812  42.405  16.543  11.553
73142W        W44813  37.342  28.134   1.112
73143W        W44814  29.009  31.592   3.238
73144W        W44815  42.881  31.845  10.759
73145W        W44816  32.651   0.854  11.118
73146W        W44817  33.642  29.110   0.352
73147W        W44818  35.197  25.985  10.836
73148W        W44819   6.489  33.370   3.798
73149W        W44820   3.187  42.236   0.823
73150W        W44821  41.597  28.301   2.995
73151W        W44822  14.454  27.958  13.283
73152W        W44823  37.611   0.445  13.559
73153W        W44824  30.899  33.899   1.891
73154W        W44825  32.483  15.305   4.548
73155W        W44826   9.883   9.147  12.159
73156W        W44827  39.065   1.024  13.690
73157W        W44828  42.299  37.502  12.356
73158W        W44829   0.452  19.533  11.188
73159W        W44830  43.674  31.790  14.853
73160W        W44831   8.785   3.291  10.468
73161W        W44832  11.593  27.191   0.434
73162W        W44833  30.555  21.093  11.117
73163W        W44834   3.418  12.506   2.660
73164W        W44835  20.784  41.082  13.656
73165W        W44836  13.179  20.440   0.914
73166W        W44837  29.530   6.182  11.113
73167W        W44838   5.867  17.680   3.116
73168W        W44839  16.778  14.881  10.675
73169W        W44840  16.381  25.746   1.181
73170W        W44841   4.723   5.725  12.089
73171W        W44842   3.596   7.497  10.700
73172W        W44843  25.506  24.656   2.633
73173W        W44844   5.378  35.648  10.797
73174W        W44845  21.000  38.518   1.210
73175W        W44846   2.078  23.593  12.793
73176W        W44847  21.984  13.263  12.384
73177W        W44848  33.452  37.539  12.552
73178W        W44849  16.020  43.225  13.557
73179W        W44850  23.733  36.308  13.377
73180W        W44851   9.257  35.571   0.942
73181W        W44852  23.065  28.603  13.985
73182W        W44853  13.105  22.205   2.164
73183W        W44854  10.728  14.352  13.376
73184W        W44855  30.597   7.290  13.051
73185W        W44856   6.446  36.186  10.563
73186W        W44857   0.400   7.406   1.234
73187W        W44858   3.082  36.030  11.298
73188W        W44859   2.945  34.885  10.566
73189W        W44860  18.705   5.235  11.552
73190W        W44861   3.462  13.380  14.706
73191W        W44862  32.945  40.409  13.813
73192W        W44863  42.743  11.407   1.619
73193W        W44864  29.983  10.818  13.582
73194W        W44865  28.158  13.546   3.883
73195W        W44866   1.971  12.708   0.013
73196W        W44867  35.901  43.680   1.139
73197W        W44868   9.271  21.052   1.508
73198W        W44869  35.397  14.053  14.342
73199W        W44870   7.883  40.818  14.504
73200W        W44871  16.620  33.343  11.847
73201W        W44872  34.955   6.788  12.531
73202W        W44873  26.946  10.076   9.877
73203W        W44874  23.273  40.206   4.910
73204W        W44875  31.279   8.873  11.971
73205W        W44876  18.624   7.225  13.812
73206W        W44877  34.324   3.900  14.265
73207W        W44878  18.205  25.447   1.960
73208W        W44879  19.547  20.089  10.521
73209W        W44880  31.182  31.506  14.934
73210W        W44881  24.701   9.264   0.475
73211W        W44882   2.334  32.205   1.881
73212W        W44883  37.572  40.201  14.477
73213W        W44884   2.074  22.503   4.737
73214W        W44885   9.227  36.814   1.826
73215W        W44886  37.206  16.540  11.288
73216W        W44887  29.861  13.139  11.635
73217W        W44888  17.686  34.211  14.417
73218W        W44889   1.394  26.245  12.918
73219W        W44890  43.550  37.850   4.562
73220W        W44891  24.378  34.989   2.795
73221W        W44892  10.725  13.105   0.779
73222W        W44893   1.234   6.394   0.641
73223W        W44894  20.641  30.200  14.438
73224W        W44895   0.375  40.445   2.286
73225W        W44896   0.456  42.564   2.654
73226W        W44897  10.528  39.646  13.505
73227W        W44898  37.743  20.546   3.185
73228W        W44899  32.726  24.028   4.324
73229W        W44900  25.495  26.172   4.310
73230W        W44901   9.648  28.191  10.528
73231W        W44902   3.459   5.112   0.377
73232W        W44903  37.883  14.527   1.312
73233W        W44904   8.509  21.290  11.689
73234W        W44905  17.627   5.191  13.636
73235W        W44906  18.766   9.244  13.399
73236W        W44907  40.519  12.053  12.937
73237W        W44908  15.626   1.721   4.729
73238W        W44909   8.967  26.487   3.992
73239W        W44910  26.429  16.089  12.363
73240W        W44911  31.125  18.644  11.989
73241W        W44912   6.373  14.719   4.394
73242W        W44913  14.648  22.114   4.294
73243W        W44914  24.371  22.252  11.291
73244W        W44915  28.567  41.477   0.198
73245W        W44916  42.453  31.515  10.740
73246W        W44917  34.974  44.080  10.490
73247W        W44918  35.576  14.141   1.772
73248W        W44919  27.204   5.244  11.682
73249W        W44920  12.261  38.564  12.787
73250W        W44921  19.517  44.287  13.120
73251W        W44922  44.155  41.903  12.521
73252W        W44923  34.381   2.642  13.503
73253W        W44924  30.607  36.867  14.047
73254W        W44925   8.575  36.495  11.054
73255W        W44926  42.404  19.212   1.414
73256W        W44927  29.780  29.036  14.921
73257W        W44928  24.712   8.780  12.977
73258W        W44929  16.651   6.870   3.075
73259W        W44930  11.894  33.328   1.109
73260W        W44931  39.910  39.910  10.901
73261W        W44932  15.967  21.206   2.090
73262W        W44933  25.032  18.523   3.728
73263W        W44934  18.713  33.928   1.242
73264W        W44935  18.687  13.091   3.715
73265W        W44936   5.122  39.956   3.170
73266W        W44937  35.023  15.783  14.908
73267W        W44938  27.175  26.936  14.571
73268W        W44939   8.831   3.703  13.873
73269W        W44940  17.417  31.238   3.954
73270W        W44941  25.079  28.235   1.711
73271W        W44942  24.590   8.705  13.861
73272W        W44943  39.790   7.174  14.908
73273W        W44944  12.173  32.883   1.874
73274W        W44945  19.190   5.077  12.097
73275W        W44946   2.884  22.551  14.508
73276W        W44947  43.086  14.405   3.402
73277W        W44948  25.654  40.928   2.130
73278W        W44949  11.131  30.158  14.029
73279W        W44950  43.003  37.050   0.367
73280W        W44951  44.421  41.791  11.129
73281W        W44952   6.326   1.249   4.846
73282W        W44953  43.934  27.927  13.327
73283W        W44954   7.941  13.360   2.441
73284W        W44955  42.095   6.261  12.614
73285W        W44956  15.199  24.132   1.510
73286W        W44957   0.670  36.053  12.464
73287W        W44958  27.519  35.441   0.245
73288W        W44959  42.070  23.305  10.107
73289W        W44960  10.099   1.685   0.923
73290W        W44961  18.215  17.140   2.285
73291W        W44962  33.810  21.190   3.257
73292W        W44963  24.066  11.973  11.890
73293W        W44964  12.601  34.588  13.328
73294W        W44965  13.575   5.278  12.426
73295W        W44966  25.449  29.084   4.577
73296W        W44967  37.808  34.605   3.089
73297W        W44968   6.157  20.312  10.145
73298W        W44969   6.843   6.415   1.859
73299W        W44970   3.848  25.016   2.333
73300W        W44971  23.243  19.194   0.364
73301W        W44972   5.661  38.793   0.357
73302W        W44973   0.378   6.203   2.405
73303W        W44974  42.824  34.091   4.605
73304W        W44975  35.514   8.216   0.217
73305W        W44976  34.896  19.150   2.810
73306W        W44977  26.996  42.893   2.039
73307W        W44978   8.164   3.982   4.405
73308W        W44979  32.474  17.764   3.843
73309W        W44980  20.560  21.096  11.356
73310W        W44981  19.541  15.337   0.226
73311W        W44982  13.079  44.339  12.077
73312W        W44983  39.328  37.157   0.378
73313W        W44984   0.233  24.482   1.250
73314W        W44985  38.412  11.834  11.689
73315W        W44986   5.642   3.989   2.055
73316W        W44987  41.796  38.585  10.217
73317W        W44988  18.507   3.920  13.131
73318W        W44989   0.345  29.136  10.809
73319W        W44990  43.977   0.442  14.857
73320W        W44991  34.852  39.451  13.282
73321W        W44992  30.567  22.077   4.440
73322W        W44993  30.374  13.780  10.671
73323W        W44994  17.371  15.526   3.698
73324W        W44995   5.322  10.445  10.567
73325W        W44996   0.383  17.382  13.900
73326W        W44997  30.275  32.020   2.936
73327W        W44998  41.420  40.147   3.181
73328W        W44999  30.859   4.991   1.209
73329W        W45000  35.188  13.438   1.411
73330W        W45001  16.198  35.435   2.412
73331W        W45002  16.277  26.085  14.078
73332W        W45003  14.629   5.124  13.832
73333W        W45004  36.399  37.964  12.256
73334W        W45005  23.980  32.891   1.218
73335W        W45006   1.450  33.397  12.813
73336W        W45007  33.550  32.055  14.890
73337W        W45008  27.581  38.770   2.046
73338W        W45009  42.259  32.850  14.011
73339W        W45010  30.459  36.159   4.131
73340W        W45011  33.341  27.752  12.985
73341W        W45012  28.555  31.057  14.737
73342W        W45013  35.486  42.538   2.276
73343W        W45014  33.870   1.435   2.187
73344W        W45015  18.276   3.633   4.238
73345W        W45016  27.916   7.874  13.837
73346W        W45017  15.400  26.273   2.079
73347W        W45018  25.585   1.982  14.521
73348W        W45019  32.626  34.048   1.271
73349W        W45020  40.833   7.736  14.794
73350W        W45021  23.044   1.291   2.732
73351W        W45022  18.494  30.542   3.908
73352W        W45023  29.049   1.972   1.475
73353W        W45024  36.085   5.921   1.395
73354W        W45025  25.135  44.928  12.450
73355W        W45026  16.553  23.593   0.207
73356W        W45027  17.813  23.614   1.709
73357W        W45028   7.220  31.182  11.495
73358W        W45029  40.650  19.588  14.142
73359W        W45030  16.572  27.742   1.384
73360W        W45031   9.334  43.140  14.847
73361W        W45032  23.957   0.801   1.904
73362W        W45033   2.553  10.772  12.567
73363W        W45034  29.528  19.706  12.388
73364W        W45035   9.950  15.816  13.855
73365W        W45036   1.398  44.000   4.649
73366W        W45037  22.620  23.737  13.284
73367W        W45038  33.129  13.869   0.318
73368W        W45039   4.983   9.876   1.479
73369W        W45040  35.828  12.613  12.945
73370W        W45041  18.669  33.298   3.272
73371W        W45042  10.655   5.002  14.971
73372W        W45043  31.500  19.456   0.748
73373W        W45044  31.168  42.403   3.959
73374W        W45045  16.828  30.890  14.870
73375W        W45046  23.127   9.786  14.063
73376W        W45047  31.635  44.857   2.486
73377W        W45048  34.080  32.780   1.854
73378W        W45049  34.139  13.120   3.637
73379W        W45050  43.073  24.014  13.862
73380W        W45051  22.709   6.303  11.922
73381W        W45052  17.958  43.538  13.595
73382W        W45053   1.768  44.983  10.518
73383W        W45054  10.846  43.229  13.950
73384W        W45055  32.601  21.022   0.500
73385W        W45056   6.469  19.983  11.508
73386W        W45057  43.926  21.911   5.335
73387W        W45058   4.684   5.407   2.837
73388W        W45059   2.840   5.676  11.117
73389W        W45060  38.505  19.684   1.391
73390W        W45061  16.773   1.176   0.313
73391W        W45062   4.395  10.663   0.969
73392W        W45063  37.221  34.028  10.303
73393W        W45064  31.974  26.930   4.163
73394W        W45065  27.218  13.402  13.860
73395W        W45066  29.819  16.664   4.065
73396W        W45067  41.484  18.294  12.385
73397W        W45068   6.251   6.215   2.475
73398W        W45069  22.201   8.664  13.547
73399W        W45070  11.085  40.439  10.237
73400W        W45071  18.899  17.200   0.812
73401W        W45072   0.609  10.282  12.901
73402W        W45073  25.465  28.036   0.291
73403W        W45074  18.975  30.028  14.338
73404W        W45075  22.028  14.040  12.892
73405W        W45076  41.043  12.656   1.188
73406W        W45077  37.463  19.507   4.722
73407W        W45078  12.770   6.459   3.768
73408W        W45079  33.935   5.704  12.633
73409W        W45080   0.489  37.987   2.337
73410W        W45081  10.801   0.969  12.309
73411W        W45082   2.752  35.244  14.820
73412W        W45083  28.098  42.074  14.835
73413W        W45084  19.122   6.898   4.880
73414W        W45085  31.990  40.654  14.039
73415W        W45086  30.119  37.175   2.696
73416W        W45087  34.523  22.621   3.532
73417W        W45088  36.978  17.633  10.606
73418W        W45089   6.953  35.342  14.322
73419W        W45090   9.042  15.654   3.585
73420W        W45091  20.717   8.896  13.424
73421W        W45092  34.087  32.453  12.357
73422W        W45093  14.373  19.226   2.335
73423W        W45094  34.875   1.887   1.707
73424W        W45095  35.088  32.773   1.089
73425W        W45096   6.331  29.100   0.823
73426W        W45097  21.175  43.510  11.047
73427W        W45098  42.361   1.549   0.366
73428W        W45099   1.280  29.425  14.970
73429W        W45100  27.751  25.691   0.040
73430W        W45101  31.672  39.848  13.464
73431W        W45102  33.588  36.957   1.203
73432W        W45103   2.307  21.013   4.129
73433W        W45104  40.970  22.949  13.933
73434W        W45105  10.643   9.037  10.693
73435W        W45106  10.254  17.576  14.858
73436W        W45107  24.311  43.939   5.032
73437W        W45108  35.109  35.351   4.887
73438W        W45109  18.988  32.086  11.216
73439W        W45110  40.355  35.919   1.983
73440W        W45111   5.091   8.099  14.414
73441W        W45112  24.123  35.895  14.530
73442W        W45113   0.072  21.604   1.636
73443W        W45114  42.302  27.008   3.993
73444W        W45115  11.831  32.828   0.316
73445W        W45116  43.895   9.201  12.950
73446W        W45117  30.146  39.872  13.458
73447W        W45118   1.772  15.097   2.038
73448W        W45119  26.775   1.486   0.408
73449W        W45120  10.326  36.072   0.432
73450W        W45121  22.749  19.085   0.419
73451W        W45122  16.728  40.325   0.789
73452W        W45123  24.579  28.497  14.584
73453W        W45124  10.932  17.699   3.940
73454W        W45125  34.116  28.227   0.392
73455W        W45126  19.269  16.996  11.609
73456W        W45127  33.002   4.765  14.984
73457W        W45128  29.727   3.250  14.479
73458W        W45129  19.242  17.627   4.651
73459W        W45130  20.899  15.044   2.195
73460W        W45131  33.541   9.857   1.283
73461W        W45132  17.190  13.617   1.791
73462W        W45133  21.733  41.641   3.429
73463W        W45134   9.912   8.721  13.977
73464W        W45135  35.965  21.753   0.917
73465W        W45136  44.708  32.904  13.005
73466W        W45137  35.668  25.166   4.447
73467W        W45138  25.602   6.641   3.261
73468W        W45139  33.035  40.936   4.691
73469W        W45140   3.163  16.078   3.700
73470W        W45141   3.273   8.912  13.489
73471W        W45142  31.531   6.398  12.592
73472W        W45143  34.464  44.499  14.779
73473W        W45144  11.845  28.396  10.869
73474W        W45145  36.994   9.160  10.700
73475W        W45146  12.715  22.030   2.747
73476W        W45147  38.510  27.013   0.324
73477W        W45148  34.607  44.558   5.033
73478W        W45149   3.761  16.236   2.202
73479W        W45150   3.546   6.393  13.822
73480W        W45151   8.315  35.946  11.669
73481W        W45152  38.875  19.319   1.301
73482W        W45153  39.775  43.037   5.075
73483W        W45154  20.771  39.318   4.618
73484W        W45155  36.416  20.791   0.055
73485W        W45156  28.580   0.672  11.894
73486W        W45157  31.135  40.603  12.061
73487W        W45158   5.260  27.118   2.646
73488W        W45159  15.616  15.313  14.504
73489W        W45160   5.220   1.120  10.659
73490W        W45161  36.914  19.071   1.222
73491W        W45162  14.198  23.627   4.749
73492W        W45163   5.183   2.356  12.245
73493W        W45164  26.348  15.742   3.274
73494W        W45165  25.141  17.054  13.135
73495W        W45166   2.683  11.147   3.120
73496W        W45167  11.403   6.866  13.524
73497W        W45168  23.855  18.319   2.831
73498W        W45169  11.131  40.402  12.114
73499W        W45170  25.128   8.616   3.729
73500W        W45171   2.717   0.707   0.726
73501W        W45172  33.073  30.984   2.331
73502W        W45173   2.488  11.710   0.044
73503W        W45174  12.787  18.025  11.990
73504W        W45175  27.256  19.271  11.141
73505W        W45176  12.764   2.960   5.083
73506W        W45177   0.419   6.922  12.129
73507W        W45178   0.057   2.386  12.520
73508W        W45179  35.426  14.500  10.951
73509W        W45180  15.019   1.555  14.038
73510W        W45181  24.672  19.454   0.750
73511W        W45182  42.369  32.639  13.513
73512W        W45183  32.586   0.123   3.615
73513W        W45184  28.857   7.808   0.100
73514W        W45185  23.649  20.771  10.810
73515W        W45186  20.152  43.087  14.063
73516W        W45187   6.124  28.451  14.493
73517W        W45188  43.906  42.622   3.767
73518W        W45189  38.967  31.284  14.452
73519W        W45190  12.144  23.020  10.486
73520W        W45191  25.869  42.561   0.013
73521W        W45192  37.810  27.481  10.695
73522W        W45193  29.214   3.202  14.413
73523W        W45194  33.750  33.999   4.621
73524W        W45195   3.935  16.064   4.182
73525W        W45196   5.405  30.947   0.034
73526W        W45197  17.776  38.987   1.918
73527W        W45198  24.133  18.464  12.939
73528W        W45199   4.264  21.713   4.919
73529W        W45200  16.622  12.363  11.672
73530W        W45201  18.725  14.136  14.619
73531W        W45202  24.855  34.338  11.581
73532W        W45203   7.653  41.870  12.509
73533W        W45204  10.297  44.996  11.119
73534W        W45205  11.304  23.695  11.498
73535W        W45206  36.859  21.646  12.039
73536W        W45207  18.249  38.608  10.958
73537W        W45208   7.490  20.210  12.499
73538W        W45209  28.146  20.248  11.045
73539W        W45210   5.594  24.901  12.088
73540W        W45211  32.999   2.673   2.174
73541W        W45212  30.210   2.856  11.595
73542W        W45213  39.268  38.840   1.263
73543W        W45214  44.947  22.471   4.684
73544W        W45215  13.316   1.451   4.395
73545W        W45216  27.880  39.446  12.206
73546W        W45217  42.338  44.998  14.589
73547W        W45218  31.554  41.320  13.399
73548W        W45219  31.610  12.314  11.691
73549W        W45220  16.688   7.760   2.874
73550W        W45221  12.869  34.835   4.247
73551W        W45222  44.433  29.429  13.962
73552W        W45223  11.379   3.534   2.801
73553W        W45224  39.504   3.916  14.030
73554W        W45225  19.081  14.728  13.571
73555W        W45226  27.618  34.571   4.332
73556W        W45227  28.557  35.119   1.441
73557W        W45228   8.124  28.440   2.860
73558W        W45229  40.633  22.707   0.283
73559W        W45230  28.604   1.141   0.428
73560W        W45231  31.909  21.493  11.079
73561W        W45232  29.106  29.975   3.518
73562W        W45233  25.730  27.608   0.388
73563W        W45234  33.072  13.564   4.244
73564W        W45235   1.563  19.103   3.202
73565W        W45236   6.821  24.593   2.630
73566W        W45237  22.113   9.999  13.003
73567W        W45238  31.380  22.195   1.971
73568W        W45239   7.331  38.920  10.703
73569W        W45240   1.521  18.912   3.683
73570W        W45241  14.836  40.118  10.209
73571W        W45242  13.665   2.426   2.836
73572W        W45243  16.594  17.660   1.109
73573W        W45244   8.480  29.737  14.408
73574W        W45245  37.768  39.005   1.129
73575W        W45246  44.775  34.966   4.520
73576W        W45247  13.658   7.288  13.553
73577W        W45248  35.894  35.876   0.533
73578W        W45249  44.486  10.816  11.444
73579W        W45250  32.314  38.711   2.852
73580W        W45251   7.008   3.951   2.753
73581W        W45252   2.211  35.392   2.508
73582W        W45253  29.630   1.697   0.669
73583W        W45254  32.943  43.242  13.280
73584W        W45255  26.569  24.800   5.092
73585W        W45256  21.428  28.235  10.570
73586W        W45257  26.637  40.342  10.880
73587W        W45258  44.962  15.584  13.804
73588W        W45259  12.344  29.138  14.041
73589W        W45260  21.970  38.763  14.241
73590W        W45261  28.775  43.914   3.224
73591W        W45262   8.747  37.653   1.899
73592W        W45263  12.304  27.107  13.796
73593W        W45264  43.529  10.128  13.716
73594W        W45265  34.458   3.206  13.486
73595W        W45266  31.039  39.975   1.445
73596W        W45267  15.417  42.367  13.019
73597W        W45268  23.536   0.223  13.554
73598W        W45269  36.434  29.170   3.808
73599W        W45270   1.448  34.122   3.700
73600W        W45271  14.034   0.804   3.873
73601W        W45272  44.413  42.262   1.355
73602W        W45273  34.663   1.098  10.655
73603W        W45274  38.666  42.366   4.235
73604W        W45275  22.160   7.239   4.517
73605W        W45276  18.929  30.471   3.153
73606W        W45277  17.891  21.684   1.791
73607W        W45278  18.228  24.015   1.000
73608W        W45279  12.363  39.486  13.619
73609W        W45280  24.965  16.825  12.128
73610W        W45281  28.224  13.442  12.538
73611W        W45282  35.117  12.688  14.928
73612W        W45283  10.744   4.413   2.815
73613W        W45284   4.113  25.996   1.236
73614W        W45285  18.688   2.781  13.982
73615W        W45286   4.936  42.579   3.824
73616W        W45287   1.311  44.155   3.788
73617W        W45288  23.174  33.818   0.298
73618W        W45289   7.137  40.308   4.593
73619W        W45290  20.430  22.576  12.940
73620W        W45291  35.224  14.926   2.943
73621W        W45292  15.177   9.530   4.080
73622W        W45293   0.339  43.337  12.528
73623W        W45294  32.321  33.964   1.680
73624W        W45295   2.333  36.850  13.170
73625W        W45296  14.577  22.902  13.923
73626W        W45297  43.750  13.964   3.452
73627W        W45298  31.688   6.870  11.651
73628W        W45299  36.220  24.150  12.393
73629W        W45300  41.762  25.724   3.626
73630W        W45301  16.813   0.763  13.733
73631W        W45302  20.157   0.392   1.660
73632W        W45303  37.435  19.978   2.972
73633W        W45304   8.598  40.536   0.031
73634W        W45305  36.795  43.998   1.896
73635W        W45306  34.397  19.732   2.223
73636W        W45307  26.928  24.997  10.752
73637W        W45308  21.998  41.024   0.764
73638W        W45309  32.310  23.228   0.662
73639W        W45310  10.988  32.453   3.249
73640W        W45311  11.845   1.660   0.337
73641W        W45312  36.008  34.064   4.325
73642W        W45313  43.057  17.481   5.146
73643W        W45314  23.029   4.294  14.456
73644W        W45315  23.691  29.951  13.289
73645W        W45316  20.838   3.309   0.695
73646W        W45317  24.680  38.802   2.830
73647W        W45318  25.052   0.855  11.544
73648W        W45319  20.499  39.361   2.348
73649W        W45320  35.139  39.082   3.195
73650W        W45321  28.642   9.288   1.974
73651W        W45322  30.526  39.924  11.570
73652W        W45323  30.652  33.429   1.870
73653W        W45324   3.903   5.596   1.462
73654W        W45325   7.474  38.327  13.385
73655W        W45326  29.461   4.934   4.499
73656W        W45327   9.169  30.435   0.147
73657W        W45328  29.916  38.204   1.968
73658W        W45329  18.527   6.731  12.997
73659W        W45330  26.151  17.326  13.588
73660W        W45331  33.112  10.732  10.673
73661W        W45332  19.446   5.400  13.749
73662W        W45333   8.487   0.989  11.653
73663W        W45334  43.796  19.143   0.392
73664W        W45335  42.008  44.418  10.720
73665W        W45336  35.129  14.414   2.895
73666W        W45337  24.700  32.691  11.498
73667W        W45338  20.044   4.253   3.829
73668W        W45339  11.680  16.388   0.767
73669W        W45340  36.548  37.038  11.069
73670W        W45341  18.526   9.785  11.324
73671W        W45342   9.686  40.659   0.062
73672W        W45343  12.124  10.217   0.849
73673W        W45344  30.071  39.864  12.683
73674W        W45345  19.056  15.128  12.962
73675W        W45346  19.981  29.034  11.706
73676W        W45347  16.269  42.300  10.647
73677W        W45348  42.297  37.460  14.862
73678W        W45349  44.838  21.486   5.000
73679W        W45350  22.464   3.610  12.068
73680W        W45351  22.611   2.571   0.414
73681W        W45352  24.609  20.178  12.417
73682W        W45353  35.826  43.930   4.789
73683W        W45354  25.369  10.205  13.019
73684W        W45355  13.463  40.549   1.147
73685W        W45356   9.788  37.452  10.320
73686W        W45357  41.769  23.486  14.906
73687W        W45358  11.225  17.106   2.820
73688W        W45359   7.884   5.253  11.500
73689W        W45360  25.224  20.051   4.082
73690W        W45361   2.346  43.230   4.044
73691W        W45362  19.309   2.845  11.186
73692W        W45363   4.591   6.212  12.987
73693W        W45364   2.895  14.797  12.555
73694W        W45365   6.757  14.115   1.982
73695W        W45366  16.959  20.207   0.882
73696W        W45367  35.415  32.432   1.271
73697W        W45368   1.616  40.153   3.288
73698W        W45369  15.859  24.507   3.255
73699W        W45370  35.499  17.034  12.855
73700W        W45371  43.383  22.711   2.590
73701W        W45372   8.503  38.264   1.291
73702W        W45373   6.274  17.451  12.220
73703W        W45374  21.366  28.996   3.347
73704W        W45375  14.295  39.943   3.225
73705W        W45376  43.363  36.001   4.615
73706W        W45377  17.684  40.599  10.539
73707W        W45378  25.256  10.534  14.410
73708W        W45379  18.850   1.741  13.653
73709W        W45380   8.582  25.758   3.433
73710W        W45381  28.267  42.663  14.002
73711W        W45382  15.691  13.545  13.053
73712W        W45383  24.739   5.346  14.090
73713W        W45384  14.165  21.584  14.295
73714W        W45385  23.270   8.282   2.441
73715W        W45386  27.617  25.939  11.767
73716W        W45387  38.930   2.843   2.174
73717W        W45388  33.824  33.643  11.970
73718W        W45389  24.647   9.023   2.711
73719W        W45390  24.641  29.201   1.793
73720W        W45391  19.488  37.879   4.230
73721W        W45392   9.404  43.721  11.263
73722W        W45393   5.398  40.806  12.896
73723W        W45394  29.547   0.950  14.636
73724W        W45395   2.335  30.992  14.304
73725W        W45396   1.209  18.437   9.926
73726W        W45397  13.087  40.062   0.934
73727W        W45398  25.653  27.747  13.145
73728W        W45399  41.422  15.329   0.861
73729W        W45400  20.291   2.379   2.741
73730W        W45401  14.083  18.827   2.177
73731W        W45402  20.084  44.690  14.450
73732W        W45403  18.499  26.743   3.755
73733W        W45404   5.460  11.530  12.739
73734W        W45405  44.034  35.794  12.910
73735W        W45406  44.758  35.110   1.894
73736W        W45407  35.249  17.170   1.319
73737W        W45408   2.863   9.318   3.287
73738W        W45409  32.440   3.866   2.715
73739W        W45410  22.566   6.672   0.427
73740W        W45411  16.593  11.827  11.681
73741W        W45412  32.919  14.767  10.519
73742W        W45413  24.424   5.072  14.958
73743W        W45414   5.346   7.745   0.358
73744W        W45415  35.063   8.724   4.200
73745W        W45416  10.633  44.018  12.421
73746W        W45417  20.516  22.716  14.935
73747W        W45418  11.087  37.392   3.162
73748W        W45419  18.850  37.586  14.822
73749W        W45420  20.220  17.611   3.662
73750W        W45421  27.953   9.417   4.170
73751W        W45422   8.793  30.230  12.044
73752W        W45423  24.050  26.251  12.929
73753W        W45424  12.027  25.182   0.920
73754W        W45425  27.498  31.657  11.477
73755W        W45426  12.035  31.055  12.652
73756W        W45427   4.290  19.866  13.401
73757W        W45428  25.192  17.729  11.905
73758W        W45429  17.332  13.713  13.826
73759W        W45430  40.423  13.616  13.916
73760W        W45431  17.622  19.736   1.461
73761W        W45432  10.269  39.986   1.691
73762W        W45433  23.551  26.421  13.525
73763W        W45434  38.350   5.361   4.144
73764W        W45435  43.676  12.421   2.910
73765W        W45436  30.768  42.243  13.046
73766W        W45437   9.294  38.505  11.966
73767W        W45438  18.208  36.318   3.461
73768W        W45439   9.160  44.798   1.415
73769W        W45440  15.507  42.520   4.462
73770W        W45441   4.251   9.069   3.135
73771W        W45442  19.806  41.767  13.000
73772W        W45443   6.819   4.453   1.895
73773W        W45444  18.680  22.127   1.934
73774W        W45445  13.685  27.128  10.795
73775W        W45446   2.712  16.272   3.556
73776W        W45447  43.659   3.443  12.793
73777W        W45448  18.174  22.481  14.776
73778W        W45449  25.334  37.518  12.990
73779W        W45450   2.817   6.364   0.174
73780W        W45451  24.493   4.385   2.284
73781W        W45452   3.523  25.737  12.640
73782W        W45453   4.782  20.020  13.570
73783W        W45454   7.710  19.674  14.285
73784W        W45455   3.968  17.031   1.841
73785W        W45456  42.018   4.923  14.695
73786W        W45457   8.294  27.049   4.008
73787W        W45458  26.427  25.596   2.863
73788W        W45459   8.352  41.584  10.860
73789W        W45460  41.884  45.000   3.468
73790W        W45461  10.475  29.573  13.818
73791W        W45462  18.688  12.099  10.146
73792W        W45463  21.284   7.396   3.522
73793W        W45464  26.728  27.958  14.771
73794W        W45465  34.017  25.108   0.955
73795W        W45466  19.965   8.195  11.955
73796W        W45467  38.500   5.630   1.233
73797W        W45468  12.217   9.251   1.009
73798W        W45469   4.993  20.873  12.983
73799W        W45470  13.701  31.271   2.313
73800W        W45471   1.004  43.903   2.430
73801W        W45472  32.239  11.310  14.422
73802W        W45473  42.499  17.324  11.086
73803W        W45474  22.495  42.968   3.153
73804W        W45475   1.239  10.267  14.147
73805W        W45476  27.959   2.370  14.934
73806W        W45477  13.880  11.532   1.436
73807W        W45478  22.256  32.635  13.879
73808W        W45479  42.829  17.140  14.205
73809W        W45480  44.000  10.562  14.097
73810W        W45481  17.006  26.977   3.184
73811W        W45482   9.459   3.021  14.315
73812W        W45483   9.603  42.933   2.864
73813W        W45484  25.737  43.419   0.020
73814W        W45485   1.015  25.648  14.455
73815W        W45486  17.625  12.264   0.363
73816W        W45487   4.799  22.985   4.468
73817W        W45488  21.249   6.367  14.003
73818W        W45489  26.910  29.001   0.836
73819W        W45490   2.275  43.997  13.990
73820W        W45491  22.687  40.081   2.259
73821W        W45492  12.971  11.315  12.092
73822W        W45493  10.619  42.275  13.992
73823W        W45494  36.122   2.721   2.472
73824W        W45495  12.398   6.895  12.408
73825W        W45496  25.755   6.928  13.808
73826W        W45497  20.797  20.246  12.954
73827W        W45498  20.557  33.096  11.915
73828W        W45499  17.952  23.861   3.723
73829W        W45500   5.748  18.253   4.613
73830W        W45501  30.468   0.483   2.373
73831W        W45502  10.240  26.762   1.956
73832W        W45503  12.876  21.188  10.663
73833W        W45504  10.831  26.084   4.650
73834W        W45505   4.380  44.132   1.013
73835W        W45506  22.714  34.654  12.735
73836W        W45507   3.798   1.964   3.140
73837W        W45508  13.004   1.675  13.046
73838W        W45509   3.913  36.774   1.114
73839W        W45510  28.445  22.674   1.356
73840W        W45511  21.550  35.511   3.130
73841W        W45512  15.777   2.818  12.910
73842W        W45513  19.783  18.785   2.291
73843W        W45514  17.114  22.181  14.758
73844W        W45515   5.671  19.350  13.437
73845W        W45516  32.623  17.576  10.745
73846W        W45517  31.568  21.726   0.521
73847W        W45518  13.610  20.799  11.598
73848W        W45519  23.616   5.322   4.249
73849W        W45520   4.391  41.568  13.544
73850W        W45521   9.810   3.704   3.220
73851W        W45522  29.682  12.238  13.538
73852W        W45523   7.104  34.114   3.169
73853W        W45524   6.259  25.919   4.401
73854W        W45525  19.112   4.974  14.367
73855W        W45526  25.379  12.604  11.340
73856W        W45527  25.164  30.442  12.980
73857W        W45528  41.890  31.492   1.389
73858W        W45529  30.720  35.587  11.975
73859W        W45530  33.386  11.720  12.903
73860W        W45531  22.433   1.961   2.253
73861W        W45532  11.830  41.284  13.102
73862W        W45533  35.464  31.031   3.681
73863W        W45534  14.438  41.483  13.027
73864W        W45535  35.890  37.321  11.093
73865W        W45536   1.898  40.478  13.539
73866W        W45537   7.151  13.981  11.531
73867W        W45538  19.546  35.566   2.319
73868W        W45539  16.730  25.033   3.742
73869W        W45540  13.191  28.010  13.479
73870W        W45541  34.698   6.216   3.347
73871W        W45542  31.911  30.614  14.380
73872W        W45543  23.701  36.214  12.766
73873W        W45544  32.983  43.794   0.134
73874W        W45545  27.085  15.129  12.959
73875W        W45546  23.510   1.782   3.167
73876W        W45547   0.491  44.959   3.427
73877W        W45548  33.731  29.992   4.412
73878W        W45549  39.487   2.222   3.745
73879W        W45550   0.709   9.273  11.205
73880W        W45551  31.077  20.066  12.876
73881W        W45552   2.274  40.038  14.057
73882W        W45553  40.878  15.330   0.847
73883W        W45554  17.316   2.547   2.124
73884W        W45555  17.671  24.616  14.221
73885W        W45556  38.695   3.734   2.201
73886W        W45557   0.176   9.700   0.332
73887W        W45558  17.286   3.670   3.375
73888W        W45559  40.232   9.691  11.049
73889W        W45560  10.904   6.335   0.871
73890W        W45561   3.310  25.920   4.116
73891W        W45562  32.664  28.397   1.318
73892W        W45563  11.855  27.213   1.493
73893W        W45564  37.841   8.114   0.559
73894W        W45565  33.375  28.852  11.229
73895W        W45566  22.580  12.286   2.245
73896W        W45567   9.767  28.028   3.856
73897W        W45568  42.253  21.213   3.142
73898W        W45569  31.957  18.584   0.931
73899W        W45570  12.211  29.020   3.718
73900W        W45571  23.715  30.986   4.541
73901W        W45572  25.071  44.895  11.576
73902W        W45573  35.090  19.702  10.660
73903W        W45574  30.653  10.099   0.650
73904W        W45575  25.031  27.084   2.634
73905W        W45576  29.817  39.483  13.992
73906W        W45577  26.039  15.204  13.813
73907W        W45578  32.145  38.513   2.109
73908W        W45579  23.133  23.694   0.252
73909W        W45580  14.995   0.025   1.285
73910W        W45581  41.336  29.510   4.546
73911W        W45582   2.904  35.446  10.683
73912W        W45583   4.060  17.673  11.343
73913W        W45584  22.003   2.745  11.739
73914W        W45585  44.104   8.833  12.583
73915W        W45586  23.472  24.677  14.455
73916W        W45587  27.498  25.518  12.836
73917W        W45588  12.024  24.154   5.150
73918W        W45589   3.665   5.047  14.886
73919W        W45590  33.962   0.696   0.833
73920W        W45591  29.006  25.706  13.839
73921W        W45592  22.013  32.457   0.794
73922W        W45593   8.500  44.966  12.704
73923W        W45594  10.253  14.150  13.542
73924W        W45595   5.754   3.278   1.280
73925W        W45596  35.981  12.586  10.700
73926W        W45597  29.473  27.731  10.751
73927W        W45598  17.354  18.058  11.082
73928W        W45599  35.794  29.629   4.343
73929W        W45600  16.775   0.997   3.230
73930W        W45601  13.715  30.062  11.045
73931W        W45602  26.004  32.420  11.543
73932W        W45603  27.294  18.801  11.339
73933W        W45604  16.223  40.320   1.309
73934W        W45605  31.150  31.669   0.818
73935W        W45606  24.958   0.646  11.097
73936W        W45607   6.862  14.007  10.841
73937W        W45608  24.522   1.863   3.357
73938W        W45609  16.543  12.095   0.772
73939W        W45610  18.668  40.155   0.498
73940W        W45611   6.861  31.087  12.910
73941W        W45612  16.192  16.174  14.328
73942W        W45613   0.212  27.266   0.626
73943W        W45614   6.567  29.948  11.979
73944W        W45615  43.386   2.916   4.791
73945W        W45616  18.567  38.087  13.939
73946W        W45617  18.493  19.848   4.672
73947W        W45618   8.305  24.180  14.947
73948W        W45619  27.868  21.102   2.591
73949W        W45620  19.626   0.406  13.784
73950W        W45621  41.613   7.805  12.477
73951W        W45622  26.921  34.506   1.278
73952W        W45623  18.052   4.454   4.652
73953W        W45624  25.287  27.050  14.378
73954W        W45625  28.629  26.619  13.597
73955W        W45626  18.102  29.583  12.476
73956W        W45627  26.696   7.727  12.433
73957W        W45628  26.093  40.268   2.341
73958W        W45629  27.640  37.787  14.036
73959W        W45630  16.537   9.091  14.789
73960W        W45631  25.089  35.941  10.797
73961W        W45632  40.384  12.583  11.493
73962W        W45633  36.254  40.790  14.299
73963W        W45634   7.939  37.830   2.746
73964W        W45635  15.686  26.113   1.691
73965W        W45636  26.203   2.725   1.481
73966W        W45637  29.112  17.136  14.377
73967W        W45638  43.502  16.348   4.022
73968W        W45639  31.961  26.933   3.216
73969W        W45640  21.835  31.127   4.252
73970W        W45641  12.013   0.355   2.265
73971W        W45642  32.013  44.490   3.848
73972W        W45643  42.578  41.854   1.790
73973W        W45644  19.310  37.572   5.204
73974W        W45645  23.467  11.231  10.707
73975W        W45646   1.498  16.350  11.902
73976W        W45647  43.829  38.971   3.710
73977W        W45648  33.857  21.598   0.250
73978W        W45649  26.404  13.354   0.033
73979W        W45650  11.312  27.168  13.422
73980W        W45651  29.054  22.113  11.651
73981W        W45652   2.226   0.861   4.013
73982W        W45653  29.890  26.588   0.462
73983W        W45654  23.185  14.280   2.859
73984W        W45655  16.111  28.294   0.358
73985W        W45656   2.409   3.954  14.891
73986W        W45657  39.397  10.382  12.586
73987W        W45658  38.868   4.440   2.938
73988W        W45659  39.268   0.973  11.593
73989W        W45660  30.925  36.845   4.267
73990W        W45661  37.131  43.147   1.972
73991W        W45662  21.861  22.675   1.622
73992W        W45663  43.488   4.388  13.142
73993W        W45664  36.057  12.395  14.998
73994W        W45665  12.617  30.583  13.354
73995W        W45666  39.567  13.973   0.417
73996W        W45667  39.362  17.222  11.905
73997W        W45668  12.994  21.140   0.192
73998W        W45669  29.936  34.090   4.911
73999W        W45670  23.431  35.831   4.661
74000W        W45671  17.163  10.479   9.869
74001W        W45672  15.904   2.150   4.689
74002W        W45673   2.647  19.684  13.949
74003W        W45674   8.248   4.511   3.128
74004W        W45675  42.193  29.092   1.941
74005W        W45676   1.433  16.361   3.312
74006W        W45677  36.771  37.351  10.168
74007W        W45678  27.809  31.998  10.248
74008W        W45679  37.676  18.077   0.014
74009W        W45680  38.822  12.225  14.854
74010W        W45681  33.897   7.690  12.591
74011W        W45682  43.739   7.037   4.434
74012W        W45683   8.468  12.488  14.462
74013W        W45684  30.417  28.033  11.566
74014W        W45685  25.603   1.969   3.383
74015W        W45686  17.185   2.267  12.450
74016W        W45687  13.183  28.441   2.370
74017W        W45688  26.484   2.771  13.605
74018W        W45689  11.096  13.267  12.641
74019W        W45690   3.429  39.786   4.337
74020W        W45691   9.478   5.866   4.615
74021W        W45692  31.124  16.041   1.776
74022W        W45693  20.176  41.113   0.865
74023W        W45694  11.403   6.777  14.972
74024W        W45695  24.166  17.634  12.279
74025W        W45696   0.125  17.089   3.765
74026W        W45697   8.789   5.272   4.363
74027W        W45698  13.104  36.372  11.735
74028W        W45699  16.533  34.921   4.989
74029W        W45700   7.330  12.847  12.532
74030W        W45701  16.851  26.179  14.695
74031W        W45702  23.316  18.134   4.810
74032W        W45703  41.857  15.117   1.722
74033W        W45704   9.393  11.827   2.005
74034W        W45705  35.848   0.487  13.926
74035W        W45706  38.014  16.656   4.221
74036W        W45707  24.260  17.228   1.800
74037W        W45708  26.463  22.505  12.026
74038W        W45709   9.082  27.073   0.819
74039W        W45710   9.363  10.703   0.972
74040W        W45711   2.916  16.292  14.423
74041W        W45712  31.959  27.342  11.137
74042W        W45713  25.863   7.354  10.351
74043W        W45714  32.615  37.407  10.612
74044W        W45715   3.733  26.451  14.307
74045W        W45716  43.454  24.617  10.627
74046W        W45717  12.394   0.826   4.222
74047W        W45718  29.729  25.108  11.936
74048W        W45719   6.894  40.022  12.931
74049W        W45720  20.541   5.064   4.278
74050W        W45721   4.946  35.566  14.315
74051W        W45722  37.020  14.121   4.596
74052W        W45723  26.941  35.350   1.680
74053W        W45724  21.549  42.411   0.659
74054W        W45725  28.413   8.816   2.835
74055W        W45726  24.812   1.949   0.318
74056W        W45727   9.265  42.800   1.891
74057W        W45728  41.232  18.102   3.066
74058W        W45729   3.303   3.809   2.730
74059W        W45730  14.862  35.119  11.923
74060W        W45731  29.422  35.497   0.385
74061W        W45732  22.643  36.914   1.171
74062W        W45733   9.054  36.752   3.761
74063W        W45734  31.976  13.817   1.220
74064W        W45735  42.268  28.580   3.149
74065W        W45736  23.871  40.413   3.381
74066W        W45737   4.936  25.271  13.994
74067W        W45738  23.292  13.379   2.705
74068W        W45739  13.855   0.672   0.612
74069W        W45740  40.632  22.089  12.636
74070W        W45741   8.422  14.208   2.044
74071W        W45742  18.254  18.526  13.464
74072W        W45743  39.047  40.375   4.060
74073W        W45744  37.384   1.717   4.275
74074W        W45745   9.626  42.150   4.619
74075W        W45746  35.598  37.748   1.294
74076W        W45747  26.153  12.862   2.731
74077W        W45748   5.822   5.571   4.931
74078W        W45749  44.767  10.822  11.888
74079W        W45750  17.785  31.905  12.824
74080W        W45751  33.929   4.151   0.361
74081W        W45752   2.949  23.234  10.994
74082W        W45753  36.699  17.045  11.522
74083W        W45754   6.741  40.094   2.418
74084W        W45755  37.830  42.192   4.402
74085W        W45756  43.937  43.189  13.014
74086W        W45757  14.029  17.323  13.918
74087W        W45758  42.058  26.181   2.320
74088W        W45759  38.929  43.879  10.011
74089W        W45760  16.584  34.183   2.278
74090W        W45761  35.481  22.020  11.627
74091W        W45762   2.435   5.762  13.440
74092W        W45763  13.236  31.282  12.792
74093W        W45764  38.392  42.771  11.459
74094W        W45765  31.617   9.472   2.717
74095W        W45766  28.107   5.878   4.789
74096W        W45767  39.994  26.131   1.441
74097W        W45768  20.324   7.818  11.999
74098W        W45769  35.409  19.686   2.199
74099W        W45770   3.539  19.821   1.757
74100W        W45771  37.388   2.022  13.370
74101W        W45772  31.751  32.316  14.926
74102W        W45773   7.795  10.257  14.431
74103W        W45774  10.625  11.225   0.955
74104W        W45775  29.741  41.773  13.539
74105W        W45776  37.325  24.319   0.917
74106W        W45777  27.953  38.638   1.716
74107W        W45778  44.141   5.620   4.928
74108W        W45779  16.372   9.923  14.901
74109W        W45780  34.082  43.356   4.864
74110W        W45781   1.526   2.804   3.562
74111W        W45782  36.667   8.867   0.755
74112W        W45783   1.975  32.192  13.002
74113W        W45784  29.231  43.286   0.309
74114W        W45785  40.981  22.024  13.599
74115W        W45786  41.781  25.028  13.026
74116W        W45787  28.038  19.724   2.151
74117W        W45788  15.092  26.139   1.717
74118W        W45789  13.766  35.146   0.732
74119W        W45790  21.757  15.220  11.058
74120W        W45791   2.465  12.656  14.272
74121W        W45792   3.433  22.045  11.060
74122W        W45793  31.953   4.939   5.127
74123W        W45794  10.219  18.997  12.907
74124W        W45795   5.290  28.035  11.404
74125W        W45796  36.479  31.144   0.474
74126W        W45797  14.045  42.315   1.238
74127W        W45798   2.347  20.555  12.675
74128W        W45799  16.142  32.360   1.280
74129W        W45800  42.283   2.298   4.382
74130W        W45801   2.835  27.592   3.390
74131W        W45802  41.871  13.090   2.160
74132W        W45803  22.271  19.852  14.798
74133W        W45804  43.610  36.686  12.933
74134W        W45805  44.498  19.486   4.648
74135W        W45806  44.295  18.146   0.832
74136W        W45807  19.199   9.179   0.489
74137W        W45808   5.739  25.943   3.232
74138W        W45809   9.201  42.416  10.529
74139W        W45810   6.766  17.665   4.044
74140W        W45811  43.279  10.827   3.281
74141W        W45812  29.041  14.125  10.627
74142W        W45813  39.418  39.607  13.861
74143W        W45814  34.399   9.852   1.210
74144W        W45815  16.168  14.257   2.048
74145W        W45816   4.192   3.454   0.443
74146W        W45817   7.220  35.053   3.441
74147W        W45818  24.207  39.857   4.555
74148W        W45819  39.062  35.414   1.997
74149W        W45820  32.512  37.880  12.031
74150W        W45821  10.353  20.217   2.684
74151W        W45822  19.668   9.260   0.707
74152W        W45823  32.600  13.843   4.173
74153W        W45824  43.100   2.947   0.832
74154W        W45825  23.752  16.585   2.302
74155W        W45826   0.172  30.144   1.442
74156W        W45827  44.896  31.365   3.319
74157W        W45828  25.750  14.642  12.474
74158W        W45829  36.461  39.028   5.020
74159W        W45830  17.329  32.006  12.578
74160W        W45831  39.878  28.629   2.710
74161W        W45832  32.377  34.185  11.060
74162W        W45833  19.669  19.002   2.745
74163W        W45834  21.753  27.163  13.364
74164W        W45835  42.448  15.596   0.355
74165W        W45836   0.380  19.504   0.615
74166W        W45837  22.466   5.251  10.256
74167W        W45838  38.318  21.043   0.820
74168W        W45839  43.337  13.029   0.847
74169W        W45840   2.377  36.169  10.845
74170W        W45841   6.215  31.331  12.109
74171W        W45842  22.810  17.301  10.649
74172W        W45843  37.458  11.088   4.435
74173W        W45844  22.693  28.661  12.122
74174W        W45845  35.741  37.002  13.156
74175W        W45846  25.169  36.930  12.802
74176W        W45847  22.111   8.296   4.545
74177W        W45848  35.775   6.550  12.057
74178W        W45849  12.333  22.632  13.353
74179W        W45850  22.486  12.834   2.656
74180W        W45851  25.136  41.299   4.444
74181W        W45852   3.715  17.036   0.800
74182W        W45853   3.415  37.333   0.616
74183W        W45854  43.474  11.290   4.673
74184W        W45855  35.116  18.247  12.582
74185W        W45856   8.409  14.636   4.614
74186W        W45857  40.811  11.145   0.347
74187W        W45858  40.288  35.140  12.872
74188W        W45859  29.531  37.614  14.772
74189W        W45860  32.678   1.313   4.321
74190W        W45861  10.926  15.239  12.915
74191W        W45862  21.015  37.435   3.582
74192W        W45863  41.583   0.642   0.022
74193W        W45864  22.582   7.258  11.022
74194W        W45865  15.738   6.174  10.449
74195W        W45866  23.670  17.743  14.419
74196W        W45867  42.828   1.691   0.598
74197W        W45868  31.652   5.901  13.797
74198W        W45869   0.812   5.787   3.079
74199W        W45870  24.055  22.649   5.015
74200W        W45871   9.585  14.088   1.472
74201W        W45872  41.285  11.235  10.572
74202W        W45873  20.081  41.792   4.166
74203W        W45874  10.136  27.321  10.488
74204W        W45875  23.959  42.784   4.008
74205W        W45876  41.886  13.381   2.894
74206W        W45877  32.024  10.777  14.296
74207W        W45878  17.087  36.923  13.542
74208W        W45879   6.371   8.585   2.183
74209W        W45880  25.481  24.130   1.689
74210W        W45881  13.867  37.802  10.755
74211W        W45882  27.454  37.674  14.514
74212W        W45883  16.269  28.129  11.564
74213W        W45884  26.722  37.655  10.616
74214W        W45885  16.097   8.074  10.669
74215W        W45886   8.677  23.550  11.622
74216W        W45887  41.031  41.921  10.755
74217W        W45888  15.321   0.877   4.153
74218W        W45889  39.007  38.435  10.603
74219W        W45890  16.857  42.915  14.528
74220W        W45891  18.304  42.205  11.223
74221W        W45892  44.429  29.510  14.518
74222W        W45893  27.749  14.340  11.309
74223W        W45894  40.023   6.453  13.877
74224W        W45895  24.572  12.500  12.956
74225W        W45896  34.650  35.495  10.930
74226W        W45897   4.703   1.200  10.658
74227W        W45898  42.911   2.776   2.982
74228W        W45899  23.122  35.150  14.870
74229W        W45900  42.020  36.824   2.278
74230W        W45901   1.814  13.121   1.876
74231W        W45902   2.926  43.484  11.720
74232W        W45903  16.810   6.311   9.763
74233W        W45904  39.424  16.367  13.381
74234W        W45905  40.724  36.818   1.943
74235W        W45906   4.763  31.719   0.784
74236W        W45907  11.826  21.969   0.897
74237W        W45908  14.591  12.084  13.412
74238W        W45909   5.913  14.041   4.570
74239W        W45910  21.819  20.338   1.989
74240W        W45911  27.674  17.550  12.174
74241W        W45912  37.409  38.597  12.173
74242W        W45913   9.804  20.689  10.539
74243W        W45914  40.355  18.259   3.118
74244W        W45915  32.923   1.966   3.754
74245W        W45916   5.960   4.060   1.607
74246W        W45917  10.865  22.462  12.448
74247W        W45918  18.105  15.101   3.267
74248W        W45919  37.791  30.687   4.457
74249W        W45920  27.667  31.208  10.715
74250W        W45921  34.678  31.766  13.210
74251W        W45922  40.024   2.883  13.373
74252W        W45923   9.668  15.535   4.204
74253W        W45924  12.306  12.811   1.422
74254W        W45925  42.065  23.234  11.611
74255W        W45926  13.312  12.144  13.930
74256W        W45927  18.779  25.151   1.503
74257W        W45928  39.527   8.745   3.978
74258W        W45929  29.296  13.739  14.271
74259W        W45930  12.781  26.677  11.221
74260W        W45931   7.597  37.026   2.457
74261W        W45932  14.824   0.686  10.550
74262W        W45933  25.542  39.466   1.827
74263W        W45934  20.407  41.600   3.296
74264W        W45935  23.529  25.979  13.863
74265W        W45936  12.134   2.170  11.951
74266W        W45937  29.515   1.276   0.946
74267W        W45938   7.428  33.166   4.654
74268W        W45939  27.450  19.251  12.147
74269W        W45940   8.684  30.071   2.700
74270W        W45941  16.750   8.959  10.614
74271W        W45942  42.225  10.138  11.190
74272W        W45943   1.930   4.825  13.792
74273W        W45944   6.413   1.284   2.779
74274W        W45945  32.812  22.022   0.023
74275W        W45946  30.424  43.465   3.243
74276W        W45947   3.773  40.502   0.842
74277W        W45948  33.483  14.298   4.070
74278W        W45949  35.221  42.972   1.966
74279W        W45950  10.595  25.021  11.638
74280W        W45951   8.601  11.789  11.167
74281W        W45952  44.409  36.520  12.646
74282W        W45953  14.728  12.333  14.953
74283W        W45954   0.304   9.904   4.750
74284W        W45955  14.355  30.168   0.306
74285W        W45956  16.779   3.017   0.437
74286W        W45957   1.335  36.784  13.772
74287W        W45958  23.285   8.060  11.138
74288W        W45959  24.683  29.613   4.520
74289W        W45960  36.866   0.401  13.961
74290W        W45961  40.378  25.670  13.964
74291W        W45962  33.450   7.616   3.653
74292W        W45963  26.623  37.579   0.312
74293W        W45964   4.688  24.938   0.583
74294W        W45965  21.566  29.964  11.449
74295W        W45966  14.350   5.401  11.521
74296W        W45967  22.669   4.727  12.322
74297W        W45968   6.746   1.736   2.253
74298W        W45969  22.509  15.697  11.132
74299W        W45970   5.872  39.049   3.638
74300W        W45971   0.974   9.047  13.442
74301W        W45972  19.905  38.802   2.857
74302W        W45973  28.520  35.244  12.908
74303W        W45974  31.464  14.716  11.663
74304W        W45975  33.376  27.382  13.825
74305W        W45976  36.302   6.605  10.481
74306W        W45977  37.537  13.212  12.495
74307W        W45978  40.220  29.186  12.089
74308W        W45979   5.894   6.947  12.525
74309W        W45980   2.224  12.667   3.153
74310W        W45981  35.016  35.512   4.404
74311W        W45982  30.683  18.954   0.285
74312W        W45983  17.209   1.961   2.793
74313W        W45984  19.784  39.542   1.379
74314W        W45985  13.181  30.061   2.669
74315W        W45986  36.849  14.356   3.224
74316W        W45987  34.463  23.902  13.981
74317W        W45988  24.175  29.823  11.588
74318W        W45989  15.095  35.067  12.931
74319W        W45990  13.862   9.121  12.022
74320W        W45991   5.645  17.710  11.117
74321W        W45992  44.383  26.099   2.824
74322W        W45993   1.823  44.784   0.387
74323W        W45994  31.014  19.449   2.954
74324W        W45995   5.044  11.190   1.392
74325W        W45996  35.891  27.897  13.948
74326W        W45997  32.287   0.997   4.484
74327W        W45998  11.397  13.977   5.043
74328W        W45999  15.809  20.106  13.005
74329W        W46000  29.629  38.098  13.841
74330W        W46001  26.620  43.089  13.402
74331W        W46002  25.903  38.366  10.657
74332W        W46003   1.860  25.495  14.933
74333W        W46004  43.561  35.551  10.692
74334W        W46005  33.177   5.938   3.140
74335W        W46006  14.117   5.545  10.699
74336W        W46007  30.534  36.192   0.224
74337W        W46008  35.138  44.805  11.931
74338W        W46009  35.951  12.218   4.514
74339W        W46010  30.947  26.534  11.784
74340W        W46011   5.118  24.743  13.123
74341W        W46012  10.232  40.935  11.164
74342W        W46013  39.791  23.672   1.562
74343W        W46014  16.311  23.134   2.382
74344W        W46015   8.253  27.195   0.362
74345W        W46016  39.385  37.325  14.852
74346W        W46017  32.479  23.142   3.700
74347W        W46018  16.192   0.802   0.829
74348W        W46019  35.399  26.880   1.856
74349W        W46020  10.870  41.569  11.617
74350W        W46021  20.376  10.125  11.960
74351W        W46022   9.812  27.352  11.724
74352W        W46023  27.737  22.079   2.542
74353W        W46024  10.413  31.597   1.318
74354W        W46025  18.201  24.123   3.189
74355W        W46026  26.280  20.998  11.392
74356W        W46027   9.897  17.036   4.425
74357W        W46028  33.465  39.613  13.966
74358W        W46029   5.291   9.346  12.043
74359W        W46030   0.494  10.489  10.596
74360W        W46031  12.686  23.592   0.073
74361W        W46032  17.361  40.015  11.147
74362W        W46033  19.672  24.624   3.739
74363W        W46034  18.181  32.532   4.136
74364W        W46035  20.625  38.341  12.092
74365W        W46036  39.816  15.574   2.345
74366W        W46037   9.636  41.649  12.911
74367W        W46038   9.227  18.851   0.793
74368W        W46039  28.201  31.418  14.912
74369W        W46040   4.146  36.569  13.873
74370W        W46041  35.052  40.814   0.410
74371W        W46042  41.717  40.526  10.598
74372W        W46043  22.118  44.310   2.313
74373W        W46044  38.382   6.686  11.920
74374W        W46045  32.948  15.148  14.695
74375W        W46046  27.495   3.172   4.291
74376W        W46047  43.194  42.212   1.235
74377W        W46048  27.121  10.174   4.290
74378W        W46049  43.392   3.818  14.789
74379W        W46050  25.869  42.888   1.244
74380W        W46051  19.737  30.736  11.642
74381W        W46052  26.573   8.779   0.283
74382W        W46053  20.341  10.809   0.079
74383W        W46054   5.881   7.822   1.409
74384W        W46055  16.653   0.492  11.203
74385W        W46056  18.010  36.014  12.863
74386W        W46057  20.439   0.871  12.225
74387W        W46058  31.336  27.574   0.041
74388W        W46059  29.447  14.300   2.184
74389W        W46060  18.427   0.369  14.949
74390W        W46061  32.644  44.324   3.276
74391W        W46062  28.681  32.425  11.072
74392W        W46063  31.930  24.173   5.030
74393W        W46064  30.151  26.392   0.867
74394W        W46065  20.062   8.424   3.642
74395W        W46066  10.825  39.288   3.800
74396W        W46067  24.424   5.779   2.892
74397W        W46068   7.339  43.512   4.764
74398W        W46069   3.185  39.431  11.092
74399W        W46070  33.456  27.943  13.956
74400W        W46071  44.925  33.862  10.670
74401W        W46072   6.065  35.682  11.468
74402W        W46073  41.761  23.902   3.648
74403W        W46074  44.217  11.763  13.979
74404W        W46075  28.508  14.605   0.100
74405W        W46076  20.929   1.452  12.483
74406W        W46077  41.272  11.173   2.774
74407W        W46078  36.612   0.305   4.187
74408W        W46079   0.438  19.763   2.852
74409W        W46080   4.101   2.048  14.032
74410W        W46081  35.589  11.571  12.462
74411W        W46082  35.864  23.450   3.672
74412W        W46083  30.965  37.126  10.684
74413W        W46084  31.590   0.056  11.590
74414W        W46085  36.846  30.962  12.547
74415W        W46086  27.613  12.172  11.108
74416W        W46087  23.937   9.805  11.719
74417W        W46088  17.026   9.793  10.523
74418W        W46089  44.111   0.687   4.256
74419W        W46090  25.126  40.288  14.328
74420W        W46091  13.147  42.273   4.150
74421W        W46092  21.300  13.726  12.909
74422W        W46093   6.451  17.825   4.483
74423W        W46094  12.200  11.868   2.764
74424W        W46095  22.372  43.640   4.055
74425W        W46096  33.637  38.010  10.795
74426W        W46097  10.248  19.718   1.820
74427W        W46098   2.365  36.343   3.173
74428W        W46099  31.680  42.380  12.116
74429W        W46100  42.842  44.935   1.288
74430W        W46101  36.151  39.924   3.241
74431W        W46102  28.022   2.289   2.330
74432W        W46103  28.206  22.088   2.748
74433W        W46104   0.378  39.509  10.712
74434W        W46105  40.797  19.669  11.071
74435W        W46106  14.652  17.658   2.874
74436W        W46107  24.626  44.300  12.985
74437W        W46108  41.018   4.259  13.987
74438W        W46109  29.951  28.487  13.656
74439W        W46110  23.563  30.912   0.397
74440W        W46111  13.873   4.368   4.058
74441W        W46112  17.228  18.582  12.448
74442W        W46113  29.032   5.687   4.719
74443W        W46114  15.298  33.652  11.032
74444W        W46115  29.914   7.811   0.905
74445W        W46116  12.776  10.139   4.635
74446W        W46117  15.859  27.104  13.446
74447W        W46118   2.156  40.648   2.862
74448W        W46119  28.946   3.428  12.187
74449W        W46120   9.148  44.580  14.972
74450W        W46121  37.846  20.255   2.715
74451W        W46122  15.708  20.345   4.711
74452W        W46123   6.690   5.029  12.273
74453W        W46124  22.682   2.811  12.490
74454W        W46125  43.039  13.188   1.301
74455W        W46126   0.834  36.946   0.015
74456W        W46127  11.414  23.061   4.731
74457W        W46128  17.062   3.579  11.190
74458W        W46129  16.221  29.429  12.995
74459W        W46130  22.747  24.568  12.843
74460W        W46131  10.486  41.350  11.889
74461W        W46132  37.308  30.489   9.821
74462W        W46133  29.567  42.688  10.690
74463W        W46134   4.233  23.887   1.855
74464W        W46135  13.298  13.698   2.207
74465W        W46136   9.083  16.507  11.604
74466W        W46137  15.714  40.887   2.120
74467W        W46138  13.632  23.420   2.292
74468W        W46139  32.530  12.721   2.742
74469W        W46140  38.698  30.666   4.224
74470W        W46141   8.853   4.942   0.167
74471W        W46142   5.166  11.853   2.412
74472W        W46143  24.563   9.654  12.316
74473W        W46144   9.500  12.123   4.650
74474W        W46145   5.950  41.845   4.812
74475W        W46146   5.917   1.840   3.655
74476W        W46147  14.782  42.913   4.710
74477W        W46148  18.603  36.158  12.912
74478W        W46149  25.606   8.877  13.818
74479W        W46150  12.593  41.487  14.923
74480W        W46151   0.701  38.599   0.478
74481W        W46152  28.564  17.017   3.739
74482W        W46153   0.937  41.071   3.251
74483W        W46154  18.780  31.962  13.130
74484W        W46155  30.227   1.914   3.250
74485W        W46156  21.421  31.421  12.838
74486W        W46157  23.876   1.830  13.067
74487W        W46158  39.468  39.826  10.635
74488W        W46159   7.258   6.965  11.987
74489W        W46160  26.167  41.523   1.169
74490W        W46161   0.771  37.153  11.605
74491W        W46162  22.166  11.676   0.499
74492W        W46163  15.080   1.980  13.753
74493W        W46164   7.039  25.621   0.306
74494W        W46165  31.840  41.832   4.460
74495W        W46166  42.539   4.513  11.908
74496W        W46167  38.933  21.050   0.378
74497W        W46168  36.079   4.795  14.536
74498W        W46169  27.465  15.830   4.648
74499W        W46170  38.331  12.664  10.750
74500W        W46171  28.256  27.539   4.175
74501W        W46172  21.357  39.570   4.746
74502W        W46173  26.229  33.408  14.046
74503W        W46174  29.618  35.531  12.927
74504W        W46175  35.380  33.477   1.485
74505W        W46176  35.381  15.723  12.397
74506W        W46177  36.985   2.888   2.632
74507W        W46178  42.017  41.019  12.834
74508W        W46179  18.766   2.427  11.908
74509W        W46180  18.091  25.253   4.542
74510W        W46181   9.857   2.934   2.805
74511W        W46182   1.337  33.447  12.288
74512W        W46183  11.944  19.647  11.531
74513W        W46184  12.899  16.086  12.886
74514W        W46185  32.955  39.019  12.408
74515W        W46186  31.513   2.715   3.705
74516W        W46187  26.100  27.928   2.205
74517W        W46188  24.737  29.137  11.712
74518W        W46189   4.919  42.072   0.318
74519W        W46190  10.718  20.509  12.473
74520W        W46191   0.695   8.921   1.787
74521W        W46192  18.572  20.195  10.717
74522W        W46193  31.679  29.668  12.955
74523W        W46194  43.787  29.239   0.421
74524W        W46195   9.127  14.081   0.600
74525W        W46196  40.192  15.178   3.634
74526W        W46197   8.231  29.457   3.382
74527W        W46198  44.639  32.612   0.378
74528W        W46199   3.328   3.878   5.022
74529W        W46200  13.065  25.539  13.351
74530W        W46201   9.123   7.763  14.006
74531W        W46202  12.570   4.948  10.095
74532W        W46203  24.894  11.981   4.018
74533W        W46204  20.791  15.315  13.590
74534W        W46205  20.227  28.879  10.761
74535W        W46206   3.739   4.212  12.261
74536W        W46207  17.920  17.350   0.688
74537W        W46208  37.468  26.021  13.032
74538W        W46209   9.422  17.235   0.747
74539W        W46210  28.463  43.218   1.643
74540W        W46211  21.460  10.822  13.712
74541W        W46212  23.982   6.844   4.348
74542W        W46213  40.030   2.821   1.341
74543W        W46214  17.483  41.062   0.627
74544W        W46215  18.177  39.290  11.801
74545W        W46216  39.282   8.886   2.999
74546W        W46217  42.509  13.267   1.424
74547W        W46218  42.999  26.534   0.951
74548W        W46219  36.670  40.073   4.143
74549W        W46220   2.206  41.283   0.563
74550W        W46221   8.256  28.112   4.127
74551W        W46222  37.911  17.823   4.495
74552W        W46223  41.871  24.704   3.774
74553W        W46224  19.687   7.796   1.715
74554W        W46225  42.066  30.342  11.928
74555W        W46226  29.991  41.568  12.939
74556W        W46227  40.795  27.790  10.440
74557W        W46228  27.231   6.373   1.386
74558W        W46229  15.574   6.330  11.504
74559W        W46230  32.029  23.888  11.095
74560W        W46231  19.702  25.076  14.528
74561W        W46232  19.592  27.064  12.541
74562W        W46233  10.417  32.896  11.271
74563W        W46234  30.072  14.292   3.838
74564W        W46235  16.693  12.017  13.930
74565W        W46236  26.884   0.640   4.247
74566W        W46237  18.890  28.000   5.292
74567W        W46238  15.646  40.840   0.642
74568W        W46239   6.158  18.288   0.504
74569W        W46240  18.745   3.051   0.538
74570W        W46241  12.216  20.736  13.242
74571W        W46242   6.803  25.468  13.952
74572W        W46243  41.460  29.592  14.753
74573W        W46244  34.671   8.400   4.673
74574W        W46245   5.190  15.225  12.930
74575W        W46246   6.675  40.442   4.359
74576W        W46247  31.041  13.326  12.870
74577W        W46248  25.032   5.911   0.160
74578W        W46249  37.995  21.221   2.746
74579W        W46250  23.246  20.941  11.102
74580W        W46251  38.054  13.230   1.724
74581W        W46252   8.426  35.602  12.054
74582W        W46253   8.034  24.099   4.633
74583W        W46254  38.038   1.448  11.574
74584W        W46255  21.151   7.007   2.284
74585W        W46256  15.100  27.010   1.265
74586W        W46257  16.767  21.603  14.090
74587W        W46258  21.064  44.962   4.169
74588W        W46259  42.000  28.173   3.303
74589W        W46260  37.317  33.310  14.202
74590W        W46261   8.870  10.183  11.629
74591W        W46262   0.393   8.665   2.215
74592W        W46263   5.288  33.080  11.650
74593W        W46264  42.884  44.918   3.467
74594W        W46265  19.607  23.306   0.432
74595W        W46266   9.137  15.299  13.606
74596W        W46267  25.136   5.890   0.680
74597W        W46268  31.024  24.176  12.923
74598W        W46269  42.732  14.766   3.614
74599W        W46270  30.232   3.331  11.858
74600W        W46271  25.256   9.903   2.203
74601W        W46272  43.892  10.889   3.909
74602W        W46273  10.280   3.379  13.378
74603W        W46274  42.042  31.644  10.429
74604W        W46275  39.050  18.069  14.447
74605W        W46276  31.901  14.070  12.097
74606W        W46277  34.063  13.753   2.315
74607W        W46278  20.174  28.396  13.325
74608W        W46279   1.315  40.840   4.166
74609W        W46280  42.004  18.307  12.404
74610W        W46281   6.328   0.848  14.105
74611W        W46282  18.344  43.335   0.973
74612W        W46283  28.227   8.986   4.217
74613W        W46284  12.510   0.403  13.331
74614W        W46285  31.518  30.199   1.470
74615W        W46286  21.614  40.099  13.571
74616W        W46287  26.664  11.793  14.379
74617W        W46288   0.343  18.280   1.878
74618W        W46289  10.835  20.009  12.483
74619W        W46290  21.928  14.764   2.557
74620W        W46291  14.125  12.098   2.638
74621W        W46292  28.986  24.440  13.432
74622W        W46293  43.586  19.731   4.648
74623W        W46294  15.734  43.358   0.829
74624W        W46295  13.154  27.648   1.994
74625W        W46296  31.584  24.766   1.323
74626W        W46297  22.173  27.981   1.464
74627W        W46298  24.983  13.276  12.802
74628W        W46299  39.560  38.940   3.676
74629W        W46300   6.837  33.492  13.985
74630W        W46301  22.062  18.153   2.686
74631W        W46302  10.977  22.582  11.179
74632W        W46303   3.663  40.156  11.640
74633W        W46304  13.843  38.605   2.837
74634W        W46305  34.596  25.438  12.946
74635W        W46306  26.303  18.890  11.162
74636W        W46307  26.979  33.356   3.379
74637W        W46308   9.716  34.262   3.080
74638W        W46309  36.590   1.261  11.521
74639W        W46310  20.837  10.650  14.893
74640W        W46311  11.946  19.009   0.771
74641W        W46312  35.611  28.846   3.352
74642W        W46313   1.890  37.093  11.644
74643W        W46314  22.493  21.128  10.746
74644W        W46315   2.668  36.935  11.173
74645W        W46316  29.543  29.240  10.712
74646W        W46317  44.863  26.406  10.244
74647W        W46318  33.019  40.050   4.214
74648W        W46319  12.696  18.103  12.846
74649W        W46320  22.207   9.840  11.675
74650W        W46321   5.139  18.253   4.189
74651W        W46322  27.998   6.748  11.178
74652W        W46323  15.375  23.005  14.234
74653W        W46324  38.105  43.823   3.897
74654W        W46325  11.143  43.193  12.514
74655W        W46326  16.304  34.920   1.572
74656W        W46327  36.921   8.852  13.561
74657W        W46328  20.576  31.585  12.783
74658W        W46329  30.256  14.860  13.782
74659W        W46330  30.948  14.702  14.537
74660W        W46331  39.473  28.400  10.653
74661W        W46332  13.003   0.658  11.064
74662W        W46333  12.116  15.238   3.133
74663W        W46334   5.716  27.907   3.269
74664W        W46335   5.325   6.639  13.598
74665W        W46336   7.836  34.146   2.376
74666W        W46337   7.379  11.795  10.734
74667W        W46338  19.327  31.405   1.211
74668W        W46339  28.431  33.462  11.988
74669W        W46340   7.463  39.924   1.127
74670W        W46341  22.049   9.320   4.622
74671W        W46342  43.994  21.972  13.441
74672W        W46343  37.793  14.173  14.957
74673W        W46344  18.600   3.387  10.778
74674W        W46345  32.124  17.170   3.614
74675W        W46346  42.409  26.342  11.639
74676W        W46347  13.142  15.626  14.353
74677W        W46348   8.895   1.610   0.357
74678W        W46349   2.476  13.634  10.801
74679W        W46350  33.723  35.773  13.923
74680W        W46351  41.433  17.279  14.757
74681W        W46352  28.175  24.559   2.863
74682W        W46353  28.689  30.556   0.381
74683W        W46354   6.737   3.429   0.514
74684W        W46355   2.306  38.488  10.465
74685W        W46356  24.578  18.694  13.889
74686W        W46357  40.662  28.728   4.674
74687W        W46358  44.071   6.307   2.871
74688W        W46359   5.463  25.674   0.364
74689W        W46360   8.438  23.339   0.948
74690W        W46361  43.465  42.865  13.870
74691W        W46362  42.401  41.406  14.302
74692W        W46363  33.655  38.874   2.731
74693W        W46364  24.778  13.397  12.203
74694W        W46365  19.091  38.894  11.528
74695W        W46366  14.840   8.851   0.492
74696W        W46367   8.401   2.003   4.513
74697W        W46368  17.705  41.744   1.744
74698W        W46369  39.021   5.594  11.706
74699W        W46370   6.833  26.674   2.776
74700W        W46371  23.111  38.286   5.391
74701W        W46372  19.629  33.563  12.636
74702W        W46373  20.770  33.317   0.918
74703W        W46374  32.136  26.503   9.888
74704W        W46375  44.296  43.560   0.071
74705W        W46376  36.574  21.811  14.884
74706W        W46377   3.246  35.403  14.778
74707W        W46378  33.759  15.544   0.369
74708W        W46379  41.816  13.289  10.692
74709W        W46380   8.621  21.264   4.161
74710W        W46381  41.259  20.104  11.637
74711W        W46382  36.351  10.661  12.112
74712W        W46383   3.155   2.359   0.745
74713W        W46384  43.249  19.846  13.078
74714W        W46385  42.969  33.583  11.016
74715W        W46386   2.299   4.630  11.207
74716W        W46387  44.680  13.351   2.866
74717W        W46388  32.163   7.183   1.349
74718W        W46389  25.456  21.060  12.908
74719W        W46390  25.738  41.470  11.533
74720W        W46391  16.927  17.269   2.708
74721W        W46392  33.378  27.656  11.574
74722W        W46393  10.291  24.526   2.220
74723W        W46394  34.535  43.773   3.353
74724W        W46395  39.449  32.636   0.335
74725W        W46396  44.290   3.342   3.699
74726W        W46397  25.615   7.369  12.551
74727W        W46398   8.229   7.784   1.397
74728W        W46399  16.903  30.520  11.595
74729W        W46400  24.981   0.910  10.624
74730W        W46401  31.549  22.237   0.482
74731W        W46402  11.739  25.249  13.421
74732W        W46403  27.454  33.645   3.542
74733W        W46404  43.077  32.431  14.378
74734W        W46405   2.780  13.341   4.396
74735W        W46406  37.611   3.851   1.200
74736W        W46407  38.063  38.391   2.271
74737W        W46408   2.863  44.472   4.056
74738W        W46409   7.354  40.603  11.182
74739W        W46410  30.538   6.290   1.767
74740W        W46411  13.203  44.111   4.993
74741W        W46412   1.750  17.629  12.889
74742W        W46413  32.955  26.489   3.239
74743W        W46414   8.280  37.918   1.831
74744W        W46415  17.831  43.115   4.438
74745W        W46416  25.552   0.496   3.159
74746W        W46417  43.850   2.289  11.215
74747W        W46418  12.115  41.337  11.046
74748W        W46419  12.911   5.267   1.500
74749W        W46420  11.956  37.735   2.192
74750W        W46421  40.951  31.576   2.655
74751W        W46422  14.920   7.152   1.911
74752W        W46423   4.746  11.711  13.920
74753W        W46424  29.004  27.939  11.593
74754W        W46425  19.530   8.088  14.970
74755W        W46426  26.453   4.681  11.875
74756W        W46427   1.707  43.936  12.861
74757W        W46428  43.546  43.480  12.806
74758W        W46429  23.145   6.767   0.733
74759W        W46430  25.159   3.895   4.524
74760W        W46431  41.357  14.991  13.424
74761W        W46432  42.282  37.497   3.283
74762W        W46433  22.776  21.260   3.173
74763W        W46434  15.623  20.663  14.249
74764W        W46435   5.795  34.153  13.513
74765W        W46436  21.539  21.151   2.398
74766W        W46437   9.287  16.315  12.512
74767W        W46438  15.234  44.013  13.870
74768W        W46439  14.085  30.674   3.824
74769W        W46440  27.472  12.354  14.906
74770W        W46441  18.286  40.557   3.310
74771W        W46442   4.013  33.163  11.917
74772W        W46443  15.637  10.692  11.260
74773W        W46444  18.549  18.010   1.262
74774W        W46445  16.107   7.848   4.628
74775W        W46446  22.488  18.926   4.573
74776W        W46447  11.092  15.243   2.688
74777W        W46448  32.040  33.517  14.526
74778W        W46449  22.196  20.257   2.689
74779W        W46450  44.580  14.699   4.131
74780W        W46451  43.467  11.717  11.413
74781W        W46452   4.892  31.121  11.206
74782W        W46453  32.901   5.947  11.613
74783W        W46454   6.814  31.354   4.711
74784W        W46455  21.524  23.884   9.746
74785W        W46456  16.486   4.928   0.173
74786W        W46457   5.985  30.012  14.111
74787W        W46458  22.473  36.262   3.622
74788W        W46459  18.541  17.253   3.976
74789W        W46460  12.264  27.651   4.419
74790W        W46461  43.127   3.417   1.490
74791W        W46462  28.027   9.916  10.225
74792W        W46463   4.244  16.086   1.267
74793W        W46464   3.798  39.695  11.487
74794W        W46465   8.797  41.049   3.865
74795W        W46466   8.760  14.285   4.088
74796W        W46467  20.800   3.332   2.907
74797W        W46468  29.384  41.569  13.872
74798W        W46469   4.090  39.385   0.258
74799W        W46470  18.915  36.954  13.439
74800W        W46471  43.499  31.107  13.526
74801W        W46472   8.905  10.322  11.136
74802W        W46473  41.112  12.366   4.777
74803W        W46474  14.036   3.861  11.813
74804W        W46475   2.885  11.565   4.333
74805W        W46476  15.212  35.587   1.208
74806W        W46477  40.317  15.843   4.072
74807W        W46478  34.037   8.173  14.444
74808W        W46479  18.825  15.277  12.506
74809W        W46480  13.055  27.811  10.345
74810W        W46481  31.574  41.261   3.452
74811W        W46482  35.817  20.835   3.317
74812W        W46483  13.065   7.883  12.081
74813W        W46484  25.106  36.847  14.333
74814W        W46485  20.544   0.756  11.225
74815W        W46486  37.470   5.401  11.716
74816W        W46487  16.559  25.654  12.836
74817W        W46488  19.518  18.454   0.385
74818W        W46489   1.862   2.205  12.013
74819W        W46490  37.296  44.637  12.369
74820W        W46491  28.327  43.269   0.376
74821W        W46492  37.548  23.914   0.324
74822W        W46493  19.958  15.808  11.187
74823W        W46494   8.323   9.602  12.201
74824W        W46495  20.024  19.354   1.196
74825W        W46496  39.944  33.199   3.834
74826W        W46497  26.131   7.697  11.548
74827W        W46498   7.836  39.376  11.105
74828W        W46499  31.492  25.462   2.278
74829W        W46500  10.215  31.065  10.607
74830W        W46501  10.725  16.253  11.094
74831W        W46502  29.024  24.195   0.665
74832W        W46503  41.383  40.007   4.245
74833W        W46504   8.777  39.591   3.608
74834W        W46505   9.663  24.273  12.810
74835W        W46506   8.881   1.991   1.831
74836W        W46507  26.853   0.111   4.174
74837W        W46508   7.534  30.311   0.379
74838W        W46509  12.235   3.270   4.396
74839W        W46510  41.815  27.433   2.719
74840W        W46511  22.258  37.966  12.910
74841W        W46512  39.330   1.599   1.560
74842W        W46513  13.725  33.835   3.388
74843W        W46514  29.162   8.792  10.997
74844W        W46515  30.482   5.203  11.992
74845W        W46516  28.016  30.325   2.264
74846W        W46517  36.257   3.147   2.779
74847W        W46518  32.193  14.178   3.206
74848W        W46519  22.263  21.651  12.355
74849W        W46520   2.723  28.352   3.853
74850W        W46521  42.313  43.475  11.166
74851W        W46522  20.270  11.565   4.141
74852W        W46523  22.535  21.249  12.508
74853W        W46524   5.478  33.574   3.648
74854W        W46525  22.424  25.111   2.309
74855W        W46526  37.395   2.229   4.213
74856W        W46527  18.070  24.016   1.989
74857W        W46528  37.968   5.701   4.273
74858W        W46529  11.408  13.609   0.357
74859W        W46530  12.828  25.400   2.205
74860W        W46531  19.411  11.785   3.157
74861W        W46532  26.707  10.921   1.983
74862W        W46533  31.297   0.528   2.856
74863W        W46534   4.654  14.721  13.514
74864W        W46535   8.350  24.997  12.966
74865W        W46536  26.509  16.882   0.683
74866W        W46537  38.873  28.928  12.477
74867W        W46538   7.039  25.222  14.956
74868W        W46539  25.459  27.487   2.807
74869W        W46540  30.592  18.982   2.321
74870W        W46541  15.098   3.635   1.323
74871W        W46542  15.694  32.523   4.461
74872W        W46543   4.839   2.494   4.145
74873W        W46544  25.685  11.650   0.391
74874W        W46545  43.843   2.358   0.865
74875W        W46546  29.679  21.590  11.072
74876W        W46547  34.880  11.351  12.402
74877W        W46548  31.576  21.170   0.501
74878W        W46549  44.531  24.979  14.720
74879W        W46550   0.263  32.407  11.596
74880W        W46551  11.616  22.913   2.899
74881W        W46552   4.232  31.072  10.551
74882W        W46553   0.180  42.521  13.699
74883W        W46554  35.854   3.203   2.418
74884W        W46555  17.309  28.509   3.474
74885W        W46556  30.991  43.323  12.171
74886W        W46557  18.483  17.546   2.457
74887W        W46558  33.831   9.352  14.886
74888W        W46559  31.230   4.213  14.943
74889W        W46560  26.124   6.525  13.808
74890W        W46561  39.057   2.340  11.635
74891W        W46562  10.635  43.235   1.023
74892W        W46563  22.713  42.767  12.097
74893W        W46564  19.616  13.686   3.828
74894W        W46565  40.425  24.108   2.159
74895W        W46566  31.752  27.271  14.095
74896W        W46567  35.853   6.668   3.812
74897W        W46568   9.195  12.021   0.988
74898W        W46569   1.336  36.365   3.781
74899W        W46570   6.764  16.549  12.936
74900W        W46571   0.533  13.674  13.417
74901W        W46572  31.012   6.417   3.842
74902W        W46573  34.871   4.540   0.189
74903W        W46574  18.767  14.308  10.930
74904W        W46575  28.716  34.067  11.257
74905W        W46576  27.692  20.575   3.377
74906W        W46577   8.799   0.193  14.260
74907W        W46578  27.504   2.683  10.668
74908W        W46579  24.021  38.818   1.152
74909W        W46580   1.370  36.658  14.277
74910W        W46581  37.874  27.730   9.855
74911W        W46582  21.925  38.819   0.392
74912W        W46583  28.086  34.364  13.533
74913W        W46584   0.470  36.354   3.718
74914W        W46585  28.228   1.683  11.117
74915W        W46586  34.640  23.156  13.016
74916W        W46587  28.037  24.013  14.880
74917W        W46588  38.748   8.072   2.335
74918W        W46589   4.636  10.351   4.086
74919W        W46590  41.562   1.439   1.711
74920W        W46591  14.342  40.944  13.803
74921W        W46592  37.465   9.687   2.565
74922W        W46593  24.049   9.552   1.448
74923W        W46594   3.948  40.262  13.788
74924W        W46595  21.061   9.625  13.367
74925W        W46596  29.208  42.884  12.570
74926W        W46597   6.375   8.821   3.465
74927W        W46598  44.439  20.024  12.523
74928W        W46599  17.932  28.777   2.329
74929W        W46600  10.750  28.966   1.821
74930W        W46601  30.099  38.773  14.501
74931W        W46602  17.985  44.196   4.583
74932W        W46603   1.710  14.205  10.694
74933W        W46604  33.496  26.575  11.647
74934W        W46605  33.266  43.886  10.522
74935W        W46606  10.837  30.858  14.895
74936W        W46607   9.661  30.480   0.993
74937W        W46608  42.853  23.947  14.338
74938W        W46609  24.913  20.792   3.406
74939W        W46610  44.751  16.584   2.924
74940W        W46611  36.852  35.684   4.271
74941W        W46612  34.397   5.233   1.912
74942W        W46613  25.952  34.455   3.046
74943W        W46614   1.024  13.553  13.564
74944W        W46615  40.020  30.507   3.659
74945W        W46616   2.948  32.471   0.247
74946W        W46617   6.256   8.718   4.009
74947W        W46618  24.461  30.223   0.937
74948W        W46619  13.587   5.244  13.295
74949W        W46620  43.413   6.146   3.298
74950W        W46621  12.858  41.033   0.719
74951W        W46622  19.125  18.657   0.059
74952W        W46623   0.404  17.570   0.623
74953W        W46624  10.804  43.818  11.962
74954W        W46625  13.567  41.770   3.360
74955W        W46626  43.598  13.765  13.015
74956W        W46627   8.269  29.471   0.834
74957W        W46628   4.324  39.041   4.150
74958W        W46629  42.578   9.680   0.972
74959W        W46630   8.880  40.629  13.737
74960W        W46631  22.987  22.266  12.383
74961W        W46632  44.272  37.664   3.260
74962W        W46633   5.378  27.348   4.180
74963W        W46634  40.494  24.567   2.932
74964W        W46635   6.602  14.086  11.843
74965W        W46636   3.359  39.444   2.814
74966W        W46637  11.247   3.233   1.431
74967W        W46638   5.923  41.266   2.197
74968W        W46639  29.024   3.840  10.592
74969W        W46640   5.400  27.899  10.352
74970W        W46641   1.457  42.773   4.177
74971W        W46642   4.388  35.390   1.034
74972W        W46643   7.889  23.731  12.435
74973W        W46644  40.351  38.376   1.952
74974W        W46645  19.205   5.962  12.584
74975W        W46646   1.441  37.855  14.733
74976W        W46647  22.298  25.698   1.459
74977W        W46648  43.810   8.286  11.367
74978W        W46649   4.868  11.312  11.992
74979W        W46650  11.175  38.463  10.722
74980W        W46651  29.987  25.909   0.916
74981W        W46652  40.433   0.094   2.007
74982W        W46653  23.446  11.681   3.183
74983W        W46654  44.464   7.649   1.280
74984W        W46655  22.245  34.383   4.041
74985W        W46656  38.838  35.835   3.890
74986W        W46657   8.994   2.712   2.282
74987W        W46658  27.005  26.980   4.662
74988W        W46659  35.943  22.426   4.505
74989W        W46660   2.779  24.131  12.342
74990W        W46661  24.339  41.915   4.391
74991W        W46662  43.359  24.676   4.881
74992W        W46663  14.709   6.689  12.186
74993W        W46664  29.723  35.864   4.502
74994W        W46665  39.601  37.476  12.359
74995W        W46666   9.450  38.545  13.557
74996W        W46667  28.185  40.922  12.937
74997W        W46668  35.169   0.450   2.771
74998W        W46669  12.026  32.104   4.650
74999W        W46670   2.018  30.508  12.607
75000W        W46671  15.601  38.523  12.885
75001W        W46672  13.435   6.443  12.228
75002W        W46673  39.444  11.052  14.972
75003W        W46674   9.823   8.641   3.156
75004W        W46675  15.248  18.086  13.062
75005W        W46676   0.030  32.437   3.695
75006W        W46677  38.470  39.092   1.664
75007W        W46678  39.775   0.984  11.647
75008W        W46679  17.033  23.636   2.866
75009W        W46680  22.173   3.950  13.778
75010W        W46681  16.670  35.097  10.570
75011W        W46682  24.470  20.700  11.063
75012W        W46683  32.589   4.770  13.320
75013W        W46684  35.519  42.548   4.610
75014W        W46685  30.171   7.414   0.041
75015W        W46686  13.424   9.254  14.130
75016W        W46687  14.898   0.387   2.340
75017W        W46688  40.473  15.589  11.575
75018W        W46689  12.652   0.444  14.956
75019W        W46690   8.823  30.100  11.197
75020W        W46691  24.847  18.039   1.948
75021W        W46692  41.336   6.914  14.500
75022W        W46693  41.889  12.922   4.589
75023W        W46694  42.998  13.279  13.330
75024W        W46695   0.960  27.418   1.192
75025W        W46696  37.078   1.298  11.649
75026W        W46697  15.728  39.822  13.425
75027W        W46698  30.467   8.931  12.393
75028W        W46699  30.086  42.276   0.295
75029W        W46700  25.987   2.856  14.848
75030W        W46701  11.920  17.100   3.960
75031W        W46702  38.066  36.841  11.111
75032W        W46703   6.224  11.794   3.178
75033W        W46704  27.485  31.655   0.016
75034W        W46705  20.617  39.164   1.873
75035W        W46706  20.692  33.573  12.489
75036W        W46707   7.355  37.904  13.082
75037W        W46708  20.654  40.748   2.304
75038W        W46709  33.535  14.233  12.667
75039W        W46710  24.175  23.766   5.069
75040W        W46711  36.675  40.485  14.327
75041W        W46712  19.417  17.276  11.209
75042W        W46713   5.612  41.396  14.429
75043W        W46714  34.103  31.915   0.398
75044W        W46715  18.159  43.939   3.280
75045W        W46716  37.952  21.083  11.120
75046W        W46717   2.819  12.779  11.204
75047W        W46718  32.640  11.349  11.265
75048W        W46719  17.614  13.182  13.888
75049W        W46720  39.399   7.329   4.603
75050W        W46721  32.100  39.911  11.048
75051W        W46722  38.449  39.275  13.970
75052W        W46723  35.013  38.985  10.093
75053W        W46724  10.544  37.618  11.993
75054W        W46725  39.453  34.980  11.940
75055W        W46726  26.655  16.718  11.310
75056W        W46727  31.597  29.508  10.712
75057W        W46728  18.594  33.249   3.786
75058W        W46729  39.607   6.809   0.842
75059W        W46730  12.170  44.573  13.765
75060W        W46731   7.449  29.678   2.369
75061W        W46732   4.049   7.258   4.116
75062W        W46733  20.017  23.272   3.817
75063W        W46734  30.933  39.959  12.769
75064W        W46735   6.888  36.661   2.751
75065W        W46736   5.195  26.494  10.548
75066W        W46737  43.781  23.021  11.964
75067W        W46738  15.153   1.643  12.384
75068W        W46739  17.573  25.612   3.716
75069W        W46740   5.955   8.131   3.646
75070W        W46741  33.599  11.216  13.927
75071W        W46742   8.789   3.529   0.736
75072W        W46743  18.267  40.652   2.267
75073W        W46744  23.627  20.304   0.934
75074W        W46745  42.918   3.670  11.222
75075W        W46746  38.280  43.041  11.046
75076W        W46747  19.413  25.264  10.224
75077W        W46748  38.032   9.915   4.416
75078W        W46749  16.059  23.677  11.295
75079W        W46750   4.052  41.905  11.812
75080W        W46751   8.008  28.728  12.442
75081W        W46752   6.326  43.512   0.909
75082W        W46753  20.773   2.652  11.131
75083W        W46754  40.434  41.221  12.920
75084W        W46755  11.111  37.034   2.684
75085W        W46756  42.949  42.504   2.923
75086W        W46757  11.141   1.366  12.258
75087W        W46758  15.570  40.245  10.731
75088W        W46759  16.495  39.910  14.897
75089W        W46760  35.396   4.001  12.491
75090W        W46761  24.077  44.588  13.687
75091W        W46762   7.232   2.594   2.652
75092W        W46763  39.309  35.476  14.896
75093W        W46764  12.841  21.168   0.889
75094W        W46765  14.398  15.602   3.216
75095W        W46766  20.732  32.124   2.877
75096W        W46767   3.670  30.659   0.786
75097W        W46768  16.198  44.438  14.494
75098W        W46769  21.936  18.859   0.743
75099W        W46770  28.626  17.222   0.199
75100W        W46771   6.866  18.671  12.950
75101W        W46772  37.328  16.647   2.472
75102W        W46773  22.063   8.235  14.548
75103W        W46774   1.288   5.721  13.435
75104W        W46775  20.536  17.699   1.268
75105W        W46776  14.713   3.001   4.312
75106W        W46777   4.667   4.869   2.761
75107W        W46778  15.346   5.448  14.864
75108W        W46779  20.717   9.287  13.062
75109W        W46780  22.725  19.158  14.541
75110W        W46781  43.868  18.092   2.369
75111W        W46782  27.698  24.263   0.750
75112W        W46783  14.163  40.986   3.920
75113W        W46784  31.435  41.943  11.999
75114W        W46785  19.095   4.189  14.757
75115W        W46786  41.747  38.000  13.898
75116W        W46787  31.212  32.095  10.801
75117W        W46788  20.122   3.335   1.132
75118W        W46789   0.318  27.534   4.605
75119W        W46790  41.529  28.723  14.340
75120W        W46791  29.498  40.804   2.598
75121W        W46792  31.112  18.489  14.716
75122W        W46793   2.219  14.146  10.738
75123W        W46794  19.118  38.855  12.504
75124W        W46795   0.885  25.232  11.748
75125W        W46796  44.523  27.399  11.173
75126W        W46797  16.011  18.313   5.002
75127W        W46798  24.215   4.178  11.936
75128W        W46799   0.279  23.476   1.379
75129W        W46800  24.098  12.640   3.173
75130W        W46801   1.054  34.455  12.052
75131W        W46802  19.213  22.218   4.345
75132W        W46803  33.936   6.577   2.871
75133W        W46804  35.391  23.771   0.799
75134W        W46805  35.381   3.749  12.038
75135W        W46806  29.417  30.636  13.998
75136W        W46807  15.643  30.996  10.936
75137W        W46808  10.731  27.454   2.688
75138W        W46809   3.718  31.579   1.842
75139W        W46810  24.540  20.592   3.122
75140W        W46811   3.624  38.103   2.323
75141W        W46812  10.397  11.065  13.479
75142W        W46813  43.821  13.137  11.928
75143W        W46814  39.965  13.383   0.903
75144W        W46815   7.821   6.698   0.635
75145W        W46816  16.912   7.756   0.065
75146W        W46817  14.576   6.791   2.743
75147W        W46818  38.339  36.364   4.559
75148W        W46819  23.957  31.915  10.625
75149W        W46820   2.863  24.822  11.847
75150W        W46821  23.751  32.668   0.137
75151W        W46822  28.665   8.183  14.726
75152W        W46823   6.762  42.594   1.295
75153W        W46824  39.632  31.020  13.878
75154W        W46825  18.745  13.168   0.463
75155W        W46826  44.769  21.269   4.185
75156W        W46827  37.151  43.809   0.861
75157W        W46828  16.329  15.037   3.190
75158W        W46829  31.334  10.245  10.618
75159W        W46830  11.383   4.333  14.214
75160W        W46831  23.211  35.439   4.123
75161W        W46832  27.821  17.069   0.826
75162W        W46833  13.812  37.815  11.265
75163W        W46834   6.429  13.679   1.494
75164W        W46835  22.027  34.929  11.591
75165W        W46836  44.542  44.891   0.867
75166W        W46837  22.579   1.244   2.946
75167W        W46838   8.121  29.861   1.755
75168W        W46839  42.409  27.956   1.344
75169W        W46840  31.081  21.484  11.577
75170W        W46841  26.787  10.769  12.276
75171W        W46842  18.816   0.827  10.643
75172W        W46843   1.506  43.688  11.977
75173W        W46844  35.576   8.653  10.710
75174W        W46845  15.845  41.950  13.805
75175W        W46846  17.394  29.217  12.629
75176W        W46847   4.209  12.914   0.253
75177W        W46848  13.499   0.650   1.164
75178W        W46849  11.060  41.783   2.312
75179W        W46850  31.924  12.315  14.394
75180W        W46851  22.927  31.186   1.406
75181W        W46852  30.149   7.918   4.094
75182W        W46853   9.727  25.022   0.709
75183W        W46854   6.686  22.206   1.491
75184W        W46855   9.827  34.161   1.232
75185W        W46856   5.801  13.149  11.203
75186W        W46857  16.260  19.590  11.529
75187W        W46858  26.579  18.388   4.220
75188W        W46859  14.153   9.470  13.289
75189W        W46860   2.732  42.406   2.752
75190W        W46861   6.954  13.812   0.222
75191W        W46862  28.412  24.026   1.923
75192W        W46863  44.103  19.125   3.239
75193W        W46864   1.580  31.031   1.625
75194W        W46865  38.402  33.865  13.246
75195W        W46866  21.789   7.371   1.462
75196W        W46867  38.927  13.263   5.019
75197W        W46868  40.858  22.623  10.966
75198W        W46869  14.073  29.210   3.325
75199W        W46870  10.422  11.806  13.196
75200W        W46871  42.881  18.024   2.135
75201W        W46872  22.267  43.280   2.402
75202W        W46873  31.052  44.327   0.888
75203W        W46874  43.051  34.194   0.704
75204W        W46875  38.407  24.285  10.599
75205W        W46876  30.036  24.122  10.726
75206W        W46877  34.827   2.361   0.850
75207W        W46878   1.447  33.431  11.285
75208W        W46879  24.635  38.446  12.064
75209W        W46880  34.409  10.756   1.827
75210W        W46881  24.089  38.414   9.775
75211W        W46882  15.776  14.201   4.590
75212W        W46883  27.670  21.747   1.361
75213W        W46884  23.021  13.500  13.898
75214W        W46885  32.124  34.854  13.329
75215W        W46886  21.860  24.046   3.283
75216W        W46887  34.638  14.334  10.698
75217W        W46888  39.252  15.252  11.179
75218W        W46889  31.190   0.312   4.214
75219W        W46890  35.247  13.573  14.241
75220W        W46891   0.381  42.762  13.297
75221W        W46892   8.208  22.881  14.305
75222W        W46893   7.764   8.566   0.249
75223W        W46894  34.997  21.135  13.472
75224W        W46895  17.950  23.655   0.768
75225W        W46896  28.017  29.677  13.470
75226W        W46897  30.356  39.875  10.491
75227W        W46898  43.408  22.992   0.557
75228W        W46899  40.097  37.563   2.799
75229W        W46900  15.478  34.017   1.353
75230W        W46901  13.226   4.560  11.320
75231W        W46902  18.234  44.210   2.202
75232W        W46903  20.076  11.361   3.699
75233W        W46904  13.346  21.023  12.884
75234W        W46905  26.531  38.154   3.121
75235W        W46906  24.471   1.989  11.405
75236W        W46907  28.351   9.857   1.009
75237W        W46908   4.217  43.008   0.351
75238W        W46909   5.235  27.927  14.464
75239W        W46910   1.280  29.422  13.007
75240W        W46911   1.268  41.072  11.284
75241W        W46912  13.287  20.938   0.993
75242W        W46913  39.151  24.709   4.955
75243W        W46914  39.551   1.115   4.667
75244W        W46915  32.086  41.546  12.146
75245W        W46916  44.535  11.680  12.792
75246W        W46917  14.202  28.660  10.547
75247W        W46918  28.201  42.042  12.430
75248W        W46919  19.807  42.282   1.161
75249W        W46920   4.935   2.864   0.529
75250W        W46921   5.198   8.422   0.959
75251W        W46922  43.362  25.104   3.993
75252W        W46923  35.444  10.092   1.650
75253W        W46924  42.920  30.250  11.496
75254W        W46925  10.917  23.789   2.801
75255W        W46926  23.680  28.471  13.728
75256W        W46927   9.294  37.015  10.802
75257W        W46928  32.855  28.917   3.861
75258W        W46929  38.341  21.932  14.701
75259W        W46930  21.006  25.786   5.158
75260W        W46931  24.966  33.452  11.057
75261W        W46932  23.715  44.009  12.436
75262W        W46933   5.248  43.782  14.034
75263W        W46934  26.200  39.630   4.516
75264W        W46935  42.032   7.076   3.433
75265W        W46936  19.388  17.586  12.761
75266W        W46937   1.748   5.392   0.020
75267W        W46938   1.979   8.792  14.807
75268W        W46939   6.193  12.253  13.527
75269W        W46940  33.323   4.713   2.284
75270W        W46941   5.819  10.387  11.193
75271W        W46942   3.078  42.518   0.403
75272W        W46943  32.198  37.473  11.888
75273W        W46944  37.526  44.456   0.919
75274W        W46945   9.371  41.886  11.662
75275W        W46946   6.299   7.782  14.061
75276W        W46947  29.015  40.526   3.330
75277W        W46948   7.208  17.977  13.915
75278W        W46949  10.349  27.507  13.995
75279W        W46950  16.095   2.901  14.812
75280W        W46951   5.863  16.497   2.385
75281W        W46952  27.014   0.492  14.896
75282W        W46953  37.034  35.561   3.323
75283W        W46954   5.233  43.526   2.272
75284W        W46955  33.815  13.681   2.813
75285W        W46956   8.252  38.813  13.552
75286W        W46957   0.437   1.968  11.383
75287W        W46958   7.703  38.961   3.258
75288W        W46959  27.552  41.661   1.213
75289W        W46960  32.473   1.012  13.936
75290W        W46961  26.058  35.263  14.373
75291W        W46962  13.764   2.850   2.484
75292W        W46963   7.586  37.941   2.373
75293W        W46964  28.115  38.380   2.764
75294W        W46965   8.422  25.394  11.699
75295W        W46966  30.772   1.773  12.895
75296W        W46967  18.229  44.589   2.742
75297W        W46968  14.758  24.162   4.219
75298W        W46969  18.484  10.521  10.302
75299W        W46970   1.183  30.109   3.567
75300W        W46971   4.891  17.074  14.750
75301W        W46972   7.169  19.223   1.916
75302W        W46973  40.532  34.664   3.662
75303W        W46974  25.956  30.393  11.492
75304W        W46975  44.881  35.361  12.095
75305W        W46976  28.605  37.388   4.566
75306W        W46977   4.176  26.664   2.355
75307W        W46978  27.445  23.218  13.346
75308W        W46979   5.270  28.065  11.910
75309W        W46980  22.278  22.328   2.023
75310W        W46981  28.362  30.314   3.195
75311W        W46982  13.117  24.676   2.427
75312W        W46983  37.888  10.732  11.594
75313W        W46984  29.435  37.872  11.440
75314W        W46985  22.132  32.922   3.321
75315W        W46986  33.513  21.696   4.108
75316W        W46987  21.032   7.746   0.183
75317W        W46988  10.312  17.085  14.596
75318W        W46989   9.007  42.388   2.289
75319W        W46990  36.546  26.712  11.649
75320W        W46991  25.759  21.404   3.627
75321W        W46992  21.981  25.033  10.974
75322W        W46993   4.933   6.972  14.346
75323W        W46994  36.411  20.762   2.675
75324W        W46995   2.428  24.203   0.254
75325W        W46996  43.503  38.044  13.059
75326W        W46997  39.093   2.472  14.791
75327W        W46998   0.356  37.332  10.587
75328W        W46999  12.011  26.047   2.223
75329W        W47000  39.196  34.515  11.158
75330W        W47001  37.302   7.298   4.705
75331W        W47002  22.906  27.229  14.328
75332W        W47003  43.342  44.440  14.505
75333W        W47004  19.636  12.024   3.740
75334W        W47005   5.894  23.300   1.423
75335W        W47006  24.033  28.885   0.739
75336W        W47007  16.185  33.078   1.991
75337W        W47008  44.490  36.447   0.055
75338W        W47009   0.320  38.874  14.318
75339W        W47010   2.364  17.249   4.135
75340W        W47011  14.667  33.051   2.868
75341W        W47012  23.659  41.639   2.983
75342W        W47013   0.907  15.878  12.167
75343W        W47014  38.761   8.296  12.075
75344W        W47015  43.479  30.923   3.661
75345W        W47016  40.448  23.176  14.809
75346W        W47017   0.406   2.310   0.570
75347W        W47018  22.980   5.309   3.245
75348W        W47019  27.212  24.691   2.947
75349W        W47020  22.537  17.031   1.843
75350W        W47021   6.323  27.471   0.371
75351W        W47022   7.560  27.118   1.726
75352W        W47023  18.370  37.963   2.031
75353W        W47024   3.873   3.570  14.812
75354W        W47025  42.008  37.354  13.570
75355W        W47026  21.020   2.002   0.331
75356W        W47027  40.429   0.470   3.560
75357W        W47028  22.357  34.898   3.845
75358W        W47029  17.800   6.168   3.836
75359W        W47030  11.657  23.946   2.141
75360W        W47031   7.690  13.572  12.047
75361W        W47032  26.552  22.756   4.097
75362W        W47033   3.410  14.770  14.957
75363W        W47034  26.584   3.313   1.946
75364W        W47035  44.937  40.877   4.135
75365W        W47036   0.282  31.925   0.437
75366W        W47037  13.273  41.369   3.597
75367W        W47038   0.032   6.558   3.164
75368W        W47039  32.018  33.526  13.142
75369W        W47040  33.329  38.906   1.384
75370W        W47041  25.654  28.215   2.287
75371W        W47042   6.671  32.671  11.153
75372W        W47043  31.461  30.598  10.781
75373W        W47044  19.946  43.481  12.561
75374W        W47045  22.185  15.671  13.868
75375W        W47046  35.159  40.647   3.695
75376W        W47047  31.427   1.835   4.049
75377W        W47048   4.811   7.735  14.768
75378W        W47049  20.995  11.605  13.208
75379W        W47050  13.438  24.045  12.107
75380W        W47051  42.537   8.409  11.898
75381W        W47052  20.561   6.775   3.122
75382W        W47053  33.464  30.825   0.903
75383W        W47054  11.101  30.819   2.073
75384W        W47055  24.119  26.693   2.909
75385W        W47056  31.616  12.316   4.340
75386W        W47057  23.694  11.848  14.578
75387W        W47058  23.941  29.302  13.925
75388W        W47059  19.774  27.020  13.897
75389W        W47060  39.746   7.757  11.716
75390W        W47061  16.100  30.609  13.417
75391W        W47062   1.284  41.619   4.863
75392W        W47063  42.416  16.982  14.501
75393W        W47064   1.627   7.657  14.344
75394W        W47065   8.729   4.826   4.639
75395W        W47066  12.386  43.432  13.879
75396W        W47067  34.862  15.265   0.677
75397W        W47068  14.202  31.425   2.288
75398W        W47069   3.308  36.853  14.203
75399W        W47070  16.504   4.215   2.242
75400W        W47071  37.369  10.169   3.354
75401W        W47072   8.219  40.183  11.175
75402W        W47073   2.544  42.453   1.892
75403W        W47074   9.166  28.152   3.131
75404W        W47075  43.693  13.456   3.515
75405W        W47076  18.740   0.736   3.171
75406W        W47077  29.007   7.842   4.947
75407W        W47078  27.572  17.527   4.466
75408W        W47079  29.503  19.517  14.995
75409W        W47080  24.908  41.460  10.791
75410W        W47081   7.228  19.297  13.535
75411W        W47082  30.836  28.293  14.905
75412W        W47083  13.097  19.736  13.893
75413W        W47084  20.083  22.869  13.273
75414W        W47085  32.085  35.042  10.668
75415W        W47086  22.841  35.522   1.887
75416W        W47087  29.188  38.569   1.418
75417W        W47088   3.245  37.554   5.033
75418W        W47089  29.841  20.204   4.731
75419W        W47090  16.814   8.425   3.138
75420W        W47091  15.387   6.244   2.324
75421W        W47092  22.991   6.512  10.644
75422W        W47093   0.104  24.354   2.377
75423W        W47094  19.383  14.749   4.642
75424W        W47095  30.670  27.629   0.684
75425W        W47096  15.537  40.108   1.754
75426W        W47097  24.001   5.711  12.931
75427W        W47098  20.616  42.276   0.929
75428W        W47099  26.120  12.103   1.034
75429W        W47100   5.874  23.207  10.713
75430W        W47101  22.584  44.663  12.714
75431W        W47102  21.303  31.919  14.389
75432W        W47103  22.264   3.599   0.764
75433W        W47104  13.249  22.753   1.335
75434W        W47105  17.865  37.379   2.763
75435W        W47106   2.074   0.731   3.161
75436W        W47107  26.433  10.209   4.651
75437W        W47108  42.322  20.034  14.001
75438W        W47109  27.933  11.156   1.362
75439W        W47110  14.315  14.629   0.821
75440W        W47111  18.302  38.831   4.170
75441W        W47112  27.006  18.174  10.714
75442W        W47113  30.827  34.022  11.518
75443W        W47114  22.151  32.337   4.719
75444W        W47115  10.971  29.655  13.969
75445W        W47116   4.974  17.695   2.294
75446W        W47117  37.916  36.825   2.453
75447W        W47118  16.596  12.845  10.728
75448W        W47119  31.405  39.841  12.553
75449W        W47120   4.085   6.295   0.464
75450W        W47121  27.181  27.486   4.614
75451W        W47122  10.880  10.725  14.752
75452W        W47123  33.159  30.041  14.404
75453W        W47124  17.744  28.691  13.546
75454W        W47125  40.228  26.896   3.655
75455W        W47126  16.826   6.333   4.576
75456W        W47127  34.826  42.679  13.420
75457W        W47128  12.544  22.688   4.084
75458W        W47129  43.166  16.238  14.769
75459W        W47130   9.940  32.679  11.074
75460W        W47131  12.905  43.212  12.986
75461W        W47132   1.763   3.916   4.142
75462W        W47133  11.161  37.009   3.571
75463W        W47134  44.929  27.379   0.187
75464W        W47135   6.312  26.152   3.433
75465W        W47136   3.977   0.037   3.202
75466W        W47137  42.982  38.378  14.131
75467W        W47138  16.714  34.359  12.032
75468W        W47139   2.175  21.620  12.868
75469W        W47140   6.715  25.034   3.658
75470W        W47141  16.134  10.654  12.513
75471W        W47142  15.227  21.795   1.181
75472W        W47143  29.849  32.908   1.795
75473W        W47144   9.524   3.383   5.117
75474W        W47145  44.873  38.303   4.345
75475W        W47146   6.441  43.498  11.158
75476W        W47147   8.157  36.864  11.595
75477W        W47148  26.976  33.811  14.258
75478W        W47149  27.169  16.371  13.366
75479W        W47150  16.834  43.766   0.506
75480W        W47151   8.807  33.107  10.748
75481W        W47152   2.806  25.653   4.153
75482W        W47153  27.343  44.136  12.474
75483W        W47154   1.823  19.799  12.422
75484W        W47155   9.917  30.483   0.043
75485W        W47156  22.595  42.457  12.585
75486W        W47157  22.922   2.303   1.956
75487W        W47158  33.093  22.097   3.268
75488W        W47159  28.908  15.313  11.489
75489W        W47160  32.064  38.057   1.387
75490W        W47161  33.937  34.256  10.369
75491W        W47162  22.409  20.617  11.259
75492W        W47163   7.255   2.309  14.041
75493W        W47164   7.812   4.213   0.451
75494W        W47165   2.001   8.829  13.946
75495W        W47166  43.731  16.185   1.077
75496W        W47167  38.982  29.234  12.926
75497W        W47168  42.859   0.942  13.139
75498W        W47169  17.468  12.581   4.502
75499W        W47170  40.430  43.521   4.630
75500W        W47171  14.330  34.592   2.853
75501W        W47172  12.148  38.051  12.588
75502W        W47173  41.055  44.238   1.455
75503W        W47174  31.116   2.359  11.446
75504W        W47175  22.943  30.623   1.779
75505W        W47176  21.180  14.464   0.224
75506W        W47177   0.025  37.003   3.308
75507W        W47178  16.778  15.513  13.790
75508W        W47179  13.413  29.267  11.454
75509W        W47180  14.323   9.682   3.616
75510W        W47181  25.727  12.700  13.762
75511W        W47182  26.094   3.281   3.178
75512W        W47183  24.952  10.328  12.574
75513W        W47184  15.240  17.910  10.340
75514W        W47185  16.283  11.767   3.732
75515W        W47186  33.589  15.017   4.685
75516W        W47187   8.668  14.541  11.646
75517W        W47188  18.433  22.087   3.824
75518W        W47189  17.191  12.368   3.176
75519W        W47190  24.004  23.057  14.283
75520W        W47191  14.576   7.467  14.024
75521W        W47192  38.986  44.526  14.009
75522W        W47193  39.540   9.460  12.968
75523W        W47194  17.737  28.549  12.376
75524W        W47195   5.712   6.584  11.654
75525W        W47196  43.016   9.138  11.587
75526W        W47197  44.843  32.566   4.577
75527W        W47198  22.512   5.340   0.200
75528W        W47199  10.934  11.661   3.159
75529W        W47200  16.390  41.313   3.191
75530W        W47201  15.287  18.777   3.191
75531W        W47202   7.505  36.029  10.056
75532W        W47203   3.211  32.169  13.776
75533W        W47204  14.323  15.622  13.081
75534W        W47205   3.853  37.629   4.492
75535W        W47206   0.975  25.952  13.990
75536W        W47207   6.172  24.293   2.324
75537W        W47208  30.644  21.326   3.785
75538W        W47209   0.488  35.339   1.732
75539W        W47210  35.705   2.161   0.874
75540W        W47211  25.321   1.057   0.439
75541W        W47212  26.096   5.141  11.131
75542W        W47213  32.163   7.442  13.939
75543W        W47214  32.989   0.040   0.724
75544W        W47215  38.837  29.745   1.323
75545W        W47216  12.764   5.327  10.442
75546W        W47217   4.965   9.378  11.089
75547W        W47218   4.153  25.600   0.844
75548W        W47219  32.268  12.056   3.836
75549W        W47220  40.213   5.945   3.637
75550W        W47221  31.403  38.746  12.420
75551W        W47222  42.039  29.144  11.581
75552W        W47223  28.584  36.869   0.179
75553W        W47224  14.228  36.926   2.001
75554W        W47225  16.283  34.169  11.828
75555W        W47226  35.034   7.682  12.951
75556W        W47227  19.679  23.211  13.363
75557W        W47228  18.162  13.860  12.059
75558W        W47229  30.901  30.387   4.262
75559W        W47230  41.921  36.312   2.272
75560W        W47231  13.471  43.302  11.156
75561W        W47232  43.356  40.836  14.311
75562W        W47233  19.574  29.202  13.914
75563W        W47234  41.466  38.036  11.957
75564W        W47235   6.958  21.255   3.198
75565W        W47236  27.895  14.147   4.495
75566W        W47237   6.173  44.414  10.354
75567W        W47238  17.297   8.239  12.846
75568W        W47239  36.268  37.795   0.879
75569W        W47240  44.852  22.965   2.007
75570W        W47241  13.221  10.204   3.730
75571W        W47242  16.237  10.320  13.435
75572W        W47243   7.002  40.925  14.431
75573W        W47244  19.248  26.022   2.958
75574W        W47245  28.521  20.857  14.424
75575W        W47246  10.304   7.327  11.073
75576W        W47247   2.324  14.493  14.579
75577W        W47248   4.334  29.858   1.002
75578W        W47249  32.359  29.961   1.316
75579W        W47250  26.266   8.157  14.540
75580W        W47251   3.482  30.126  14.731
75581W        W47252  23.526   2.292   3.855
75582W        W47253  38.087  26.616  14.884
75583W        W47254  15.034  11.395   3.657
75584W        W47255   0.408   2.851  11.795
75585W        W47256  44.039  14.108  13.510
75586W        W47257  18.486  19.183   4.126
75587W        W47258  41.681   3.707  13.676
75588W        W47259  43.857  26.802  11.202
75589W        W47260  25.167  14.227   4.321
75590W        W47261  19.580  17.765  14.514
75591W        W47262  10.584  44.677  12.135
75592W        W47263  39.960  43.771   0.015
75593W        W47264   4.219   4.385  13.058
75594W        W47265  41.979   0.714  11.533
75595W        W47266  12.096  36.001  11.201
75596W        W47267   5.231   3.969  14.833
75597W        W47268  34.442   2.755   1.254
75598W        W47269  26.731  31.635  13.118
75599W        W47270   6.366  15.622   2.754
75600W        W47271  14.033  16.149  11.684
75601W        W47272  14.113  39.907   0.709
75602W        W47273  26.067   6.216  11.295
75603W        W47274  26.194   3.291  11.680
75604W        W47275   6.220   1.899  14.080
75605W        W47276   2.168  10.621   4.753
75606W        W47277  29.090  16.590   2.180
75607W        W47278   3.660  19.802  10.615
75608W        W47279  36.418  32.189   2.587
75609W        W47280  38.366  22.661  13.840
75610W        W47281  15.699  37.263  12.519
75611W        W47282  39.586  20.541   2.347
75612W        W47283  14.262   1.840  11.966
75613W        W47284  11.634  32.408   4.119
75614W        W47285   7.387  17.978   2.923
75615W        W47286  12.097  20.670  12.428
75616W        W47287  20.860  14.045   0.279
75617W        W47288  39.394  41.926   1.925
75618W        W47289  41.330   5.871  14.382
75619W        W47290  34.020  21.861   4.886
75620W        W47291   8.899   0.597  10.737
75621W        W47292  43.449   0.725  13.453
75622W        W47293  40.291  24.074  10.783
75623W        W47294  23.057  43.689   4.695
75624W        W47295  20.257  11.484   5.068
75625W        W47296  29.825  26.571   3.634
75626W        W47297   9.983  32.049  10.932
75627W        W47298   9.632  41.527   0.429
75628W        W47299  29.130  20.480   0.159
75629W        W47300  33.437  42.748  12.373
75630W        W47301  14.813  15.318   1.400
75631W        W47302  17.401  15.089  11.019
75632W        W47303  16.721  32.624   3.122
75633W        W47304  43.314   7.722   2.880
75634W        W47305   0.080   3.014   3.241
75635W        W47306   3.944  18.649   2.765
75636W        W47307  15.602  26.984  12.999
75637W        W47308   2.405  41.755  12.575
75638W        W47309  38.257  19.472   0.984
75639W        W47310  22.986   0.281  11.889
75640W        W47311  11.306  24.007  12.992
75641W        W47312  13.141   3.179  12.939
75642W        W47313  15.113  43.453  12.114
75643W        W47314  43.293  23.709  13.439
75644W        W47315  25.104  37.181  12.022
75645W        W47316  35.948  33.681  10.297
75646W        W47317  13.557  25.392   3.735
75647W        W47318  36.015  16.079   4.788
75648W        W47319  39.936  27.385   4.756
75649W        W47320  10.321  27.705   4.227
75650W        W47321  29.529  18.126  14.781
75651W        W47322  15.618   4.416   3.730
75652W        W47323  19.607  43.054  13.431
75653W        W47324   0.238  34.651  12.371
75654W        W47325  19.593  39.872  13.850
75655W        W47326  31.349  43.316   4.121
75656W        W47327   7.154  44.620  13.770
75657W        W47328  20.268   4.364  11.691
75658W        W47329  24.490  36.933  11.235
75659W        W47330   0.729  11.764   0.259
75660W        W47331  18.084  12.433  12.082
75661W        W47332  29.576   7.098   5.063
75662W        W47333  14.297   4.293  14.021
75663W        W47334  34.410  43.880  10.995
75664W        W47335  30.398  29.214  13.916
75665W        W47336   6.025  40.537  13.383
75666W        W47337  12.867   4.891  13.871
75667W        W47338  13.271   5.586  11.102
75668W        W47339   1.864  26.994   3.258
75669W        W47340   2.894  17.657  14.809
75670W        W47341   7.586  23.571  14.899
75671W        W47342  15.640  17.866   2.221
75672W        W47343  10.881  34.031   2.367
75673W        W47344  36.282  40.896  10.603
75674W        W47345  24.601  25.561   3.611
75675W        W47346   8.782  24.596   1.075
75676W        W47347  32.015   0.473   2.404
75677W        W47348  31.988  11.534  13.102
75678W        W47349  37.800  11.283  13.444
75679W        W47350  32.547   5.616  11.408
75680W        W47351  24.905  27.040  12.756
75681W        W47352  18.139  12.306   3.385
75682W        W47353  31.928  17.510  10.319
75683W        W47354   6.245  12.834   0.917
75684W        W47355  33.583   2.525  13.823
75685W        W47356  11.229  30.127  13.520
75686W        W47357  44.932  11.895   9.802
75687W        W47358  38.805  16.803   2.236
75688W        W47359   5.624  19.755   2.107
75689W        W47360  14.885   3.136   2.328
75690W        W47361  43.228  43.420  14.549
75691W        W47362   0.375  13.829  12.338
75692W        W47363  38.046  29.686  10.737
75693W        W47364   2.803  23.782  11.950
75694W        W47365  12.236  30.060   2.921
75695W        W47366  38.314   5.267  14.843
75696W        W47367   5.728  13.827  12.998
75697W        W47368  25.373  15.677   9.741
75698W        W47369  39.282  40.242  10.371
75699W        W47370   3.247  39.913   0.722
75700W        W47371  28.535  17.705  14.994
75701W        W47372  38.502  17.554  12.953
75702W        W47373   6.452  35.506  11.149
75703W        W47374  16.048   0.824  13.023
75704W        W47375  20.560  36.750  10.713
75705W        W47376  13.656   2.130   3.672
75706W        W47377   2.983   8.788  14.957
75707W        W47378  21.246  11.808  13.901
75708W        W47379  10.895   9.424   3.577
75709W        W47380  36.334  34.403  11.218
75710W        W47381  41.325  42.279   2.449
75711W        W47382   0.937   4.972  10.034
75712W        W47383  32.887  43.392  12.384
75713W        W47384  35.564  24.870  13.530
75714W        W47385  25.509  39.970  14.141
75715W        W47386  39.321  13.162   4.690
75716W        W47387   3.251  30.591   2.815
75717W        W47388  13.351  44.461   0.791
75718W        W47389  21.413  19.789  11.474
75719W        W47390  26.011  26.165   3.544
75720W        W47391   4.472   7.920   0.512
75721W        W47392  11.290  21.612  12.110
75722W        W47393  30.499   8.474  12.615
75723W        W47394  19.001  36.082   3.183
75724W        W47395  41.896  11.164   4.686
75725W        W47396  14.576  34.497   0.626
75726W        W47397  28.559   8.386   1.788
75727W        W47398  38.894   9.785  11.620
75728W        W47399  28.354  20.071  14.072
75729W        W47400  44.357   3.337  10.719
75730W        W47401  35.056  14.147   4.087
75731W        W47402  13.661  26.158   0.801
75732W        W47403  33.628  10.884   4.226
75733W        W47404   5.745   6.690   0.776
75734W        W47405   9.646  39.497  13.526
75735W        W47406  40.348  21.705  12.822
75736W        W47407  40.349   0.289  12.070
75737W        W47408  35.573  16.537  13.424
75738W        W47409  27.543  18.571  14.748
75739W        W47410  28.453  15.011   4.200
75740W        W47411  21.233   2.697  14.710
75741W        W47412  22.782  22.121   1.765
75742W        W47413   3.107  38.051   4.550
75743W        W47414  34.615  39.758   2.777
75744W        W47415  33.995   0.361   3.149
75745W        W47416   9.305  10.262   0.732
75746W        W47417  32.614  25.613  13.852
75747W        W47418   2.549   9.989  11.104
75748W        W47419   0.642  44.781   2.877
75749W        W47420  27.056  14.877   3.063
75750W        W47421  11.357  30.655  12.898
75751W        W47422  37.839  20.163  11.602
75752W        W47423  38.468  11.740  11.163
75753W        W47424  40.336  23.477  12.432
75754W        W47425  19.689  21.026   4.281
75755W        W47426  38.583   3.926   3.263
75756W        W47427  23.131  34.453   2.688
75757W        W47428   8.237  18.445   2.799
75758W        W47429  30.186   5.831   1.166
75759W        W47430  34.450  32.914   3.234
75760W        W47431   7.170  37.334  11.447
75761W        W47432  18.070  40.295   3.715
75762W        W47433  13.182  28.723  14.443
75763W        W47434  39.254  42.819   0.258
75764W        W47435  32.441  24.287   2.273
75765W        W47436   1.034  31.695  12.270
75766W        W47437  23.036  27.342   3.802
75767W        W47438   0.893   9.310   0.925
75768W        W47439  19.764  24.783  12.762
75769W        W47440   7.255  31.117   2.455
75770W        W47441   9.877  43.892  13.567
75771W        W47442  33.519  16.615   1.271
75772W        W47443  28.317  11.355   4.225
75773W        W47444  13.337  21.761  13.968
75774W        W47445  13.683  17.504   0.546
75775W        W47446  38.002  18.745   4.538
75776W        W47447   3.308  23.032   0.653
75777W        W47448  36.041  14.392   2.899
75778W        W47449   4.232  30.274   2.855
75779W        W47450   1.237  37.504   4.444
75780W        W47451  32.313  30.794  13.527
75781W        W47452  33.952  26.000  12.809
75782W        W47453  14.716  33.602   0.155
75783W        W47454   8.656   1.955  12.894
75784W        W47455  14.982  37.827  12.910
75785W        W47456  26.343  17.270  12.167
75786W        W47457  26.153  42.919   0.753
75787W        W47458  43.139  11.085   5.030
75788W        W47459  16.403  15.108   2.241
75789W        W47460  33.059  16.279  14.766
75790W        W47461  26.101   1.205   3.269
75791W        W47462  24.570  42.001  12.000
75792W        W47463  20.145  10.598   3.336
75793W        W47464  41.529  31.457   1.786
75794W        W47465  41.326  33.002   0.555
75795W        W47466   9.342   4.887  12.154
75796W        W47467  15.678  42.385  14.046
75797W        W47468  25.496  25.251  13.043
75798W        W47469  27.713  35.882  14.922
75799W        W47470  25.999  33.015  14.314
75800W        W47471  38.043   6.576   2.674
75801W        W47472  32.020  25.856  11.001
75802W        W47473  14.083  19.742  12.120
75803W        W47474  14.802  22.752  12.081
75804W        W47475  21.518   8.869  12.127
75805W        W47476  14.751  24.220  11.179
75806W        W47477  44.943  16.235   3.570
75807W        W47478  26.450   1.411   0.824
75808W        W47479  42.331  13.788  14.678
75809W        W47480  16.296  37.550  13.500
75810W        W47481  14.915  16.285  10.683
75811W        W47482  27.080  43.830  13.831
75812W        W47483  32.221  35.136  11.556
75813W        W47484  10.661  15.323   1.444
75814W        W47485  18.811   6.188   1.306
75815W        W47486   4.369  24.937   3.676
75816W        W47487   8.515  37.420  13.339
75817W        W47488  32.049  31.135  14.538
75818W        W47489  32.643  24.093  12.032
75819W        W47490   2.477  37.660  10.559
75820W        W47491  27.197  43.391  13.052
75821W        W47492  33.812  29.063   1.728
75822W        W47493  34.076  10.886  10.992
75823W        W47494  34.002   7.105  14.381
75824W        W47495   3.238  17.410  12.909
75825W        W47496   8.761   9.540   0.263
75826W        W47497  15.170  38.430  13.531
75827W        W47498  27.058  33.491  10.124
75828W        W47499  43.293  12.276  12.219
75829W        W47500   3.258   3.428   3.580
75830W        W47501  29.617  12.279  14.637
75831W        W47502  13.813  38.775  11.207
75832W        W47503  31.992  21.270   0.796
75833W        W47504   7.842  10.128  11.623
75834W        W47505  35.522  25.186  14.418
75835W        W47506   4.447  44.871  12.134
75836W        W47507  36.986   6.992   2.163
75837W        W47508  25.398  32.627  11.105
75838W        W47509  14.941  17.516   0.870
75839W        W47510  12.150   9.721  14.407
75840W        W47511   5.347  42.407   1.542
75841W        W47512  19.046  43.705  10.665
75842W        W47513  39.643   0.892  11.164
75843W        W47514  23.513  17.252   0.368
75844W        W47515  21.116  42.966  13.765
75845W        W47516   1.531  44.901  14.283
75846W        W47517  37.799  17.185  13.508
75847W        W47518  43.891  28.601   2.272
75848W        W47519   7.572  20.631   0.767
75849W        W47520  22.759   8.889   2.872
75850W        W47521   2.352  20.071  12.448
75851W        W47522   6.871  11.735   4.611
75852W        W47523  10.598  32.645   2.283
75853W        W47524   2.448  24.498   3.889
75854W        W47525  22.769   9.430   4.190
75855W        W47526   2.862   7.849  10.953
75856W        W47527  14.791  19.840  13.947
75857W        W47528  10.708  19.932   1.743
75858W        W47529   4.429  14.797  10.733
75859W        W47530   7.412  21.316  14.760
75860W        W47531  28.140   0.211   3.866
75861W        W47532  38.118  14.162  11.959
75862W        W47533  26.738   2.431  11.529
75863W        W47534  17.108  24.158  13.311
75864W        W47535  31.606   4.339   4.523
75865W        W47536  32.907  37.182   2.748
75866W        W47537   3.181  32.431   0.736
75867W        W47538  34.278  25.441  11.682
75868W        W47539  35.582  19.301   3.949
75869W        W47540  17.442  10.809   4.072
75870W        W47541  12.830  43.926   2.787
75871W        W47542  39.422  34.658  13.915
75872W        W47543  40.557  12.122  11.310
75873W        W47544  25.501   8.759   1.574
75874W        W47545  26.348  13.686   4.667
75875W        W47546  26.514  38.352  12.522
75876W        W47547  37.904  11.178   0.471
75877W        W47548  37.422  37.152   0.014
75878W        W47549  23.580   2.865   2.220
75879W        W47550  17.993   8.276   4.684
75880W        W47551  21.198  10.302   1.495
75881W        W47552  22.145  20.089  11.457
75882W        W47553  15.724  25.238   3.835
75883W        W47554  44.516  32.535   3.598
75884W        W47555  43.451  14.615   4.833
75885W        W47556  41.859  18.273  14.027
75886W        W47557  28.604  16.343   0.566
75887W        W47558  21.469  16.260   2.070
75888W        W47559  31.108  35.448  12.262
75889W        W47560   2.873  31.671   4.332
75890W        W47561  35.447   3.982   2.343
75891W        W47562   4.701  23.557  10.629
75892W        W47563   0.313  18.794   3.777
75893W        W47564  35.059  16.699   1.239
75894W        W47565  28.047  43.975  11.901
75895W        W47566  17.061   5.113  14.385
75896W        W47567  43.125  19.183   3.072
75897W        W47568  42.779  14.202  13.097
75898W        W47569  17.182  33.539  10.636
75899W        W47570   8.881  43.969   1.902
75900W        W47571  19.296   8.363  13.480
75901W        W47572  36.631  42.546  11.478
75902W        W47573   1.284  22.082  12.984
75903W        W47574  44.723  30.828   4.107
75904W        W47575  32.381  16.877  13.140
75905W        W47576  35.938  20.319   0.949
75906W        W47577  35.951  44.240  10.769
75907W        W47578  20.079   2.317   0.483
75908W        W47579  27.875   9.196   9.770
75909W        W47580  11.190   3.168  12.647
75910W        W47581  20.293   1.931   1.439
75911W        W47582  19.238  13.688  11.949
75912W        W47583  31.801  43.278   3.054
75913W        W47584   5.397  44.575   3.093
75914W        W47585  26.014  43.831  10.624
75915W        W47586   2.824  34.833  13.965
75916W        W47587   7.787  39.158   1.348
75917W        W47588   1.974  16.634  12.931
75918W        W47589   2.413  27.250   3.182
75919W        W47590  31.468  25.506  11.994
75920W        W47591  38.766  18.379  13.597
75921W        W47592  18.123   3.461   3.184
75922W        W47593  14.461   0.040  12.031
75923W        W47594  17.768   9.188   0.426
75924W        W47595  31.933  18.594   3.985
75925W        W47596   0.322   8.365   1.540
75926W        W47597  33.001   6.407  12.118
75927W        W47598   9.150   2.181  13.945
75928W        W47599  14.430  42.821   5.110
75929W        W47600   9.262  29.982   2.637
75930W        W47601   2.966  43.318   1.437
75931W        W47602  12.432   7.477   4.863
75932W        W47603  13.139  28.129  14.043
75933W        W47604  22.737  41.279   4.190
75934W        W47605  11.342  32.804   4.246
75935W        W47606  26.890  24.592  12.079
75936W        W47607  44.733  26.397  11.125
75937W        W47608  31.736  35.530   0.309
75938W        W47609  21.970  16.327   2.236
75939W        W47610  43.470  42.011   0.795
75940W        W47611  11.159  12.773  12.968
75941W        W47612  17.097  32.187  13.009
75942W        W47613  27.049   5.380  12.153
75943W        W47614  41.583  19.372  13.335
75944W        W47615   2.266  29.636   4.801
75945W        W47616  37.799  30.424  11.193
75946W        W47617  10.217  12.626  13.588
75947W        W47618  16.637  40.888  14.347
75948W        W47619  23.295  19.236   4.775
75949W        W47620  31.212   0.036   2.740
75950W        W47621  20.026  20.190   0.974
75951W        W47622   3.309  12.036  13.998
75952W        W47623  41.884   0.979   1.600
75953W        W47624  18.343  33.542   4.146
75954W        W47625  35.993  21.742  10.777
75955W        W47626  10.091   8.228  11.539
75956W        W47627  21.226   6.523  14.931
75957W        W47628  10.634   6.439  14.952
75958W        W47629  21.368  21.515  11.827
75959W        W47630  13.511  27.794  14.264
75960W        W47631  11.816  35.592   4.581
75961W        W47632  21.247  39.160   2.946
75962W        W47633  24.191   4.943   0.401
75963W        W47634  40.464  39.523   2.918
75964W        W47635  26.488  31.262   4.174
75965W        W47636  38.338  30.093   2.384
75966W        W47637  36.031   2.657   3.748
75967W        W47638   9.638  37.121   1.713
75968W        W47639  14.101  40.668   5.328
75969W        W47640  44.038  35.929  10.680
75970W        W47641  20.201  35.700  11.634
75971W        W47642  24.036  41.022  11.145
75972W        W47643  17.561  10.058   3.742
75973W        W47644   3.772   9.223  14.819
75974W        W47645  24.074   0.962  10.697
75975W        W47646  33.294  14.602  10.829
75976W        W47647  22.024  33.455  11.142
75977W        W47648  24.542  31.016  13.308
75978W        W47649  43.491  35.860  12.049
75979W        W47650   6.932  40.775   1.256
75980W        W47651  18.799   3.031  11.129
75981W        W47652  32.348  19.810  14.867
75982W        W47653  16.873   1.778   1.389
75983W        W47654  35.514   9.818  14.465
75984W        W47655   0.244  42.880   3.429
75985W        W47656  15.925   7.468   4.938
75986W        W47657  26.988  31.093   1.186
75987W        W47658  15.222  41.272  14.715
75988W        W47659   5.396  42.535   5.337
75989W        W47660   3.654  28.153  10.329
75990W        W47661   3.515   5.393   3.703
75991W        W47662  28.475  31.193  14.233
75992W        W47663   0.805  41.813  11.107
75993W        W47664  16.131  12.215  14.752
75994W        W47665  39.053  26.570   0.844
75995W        W47666  25.692  18.692   0.884
75996W        W47667  26.786  38.162  10.712
75997W        W47668  38.686  25.318   2.125
75998W        W47669  33.966   7.043   0.295
75999W        W47670  15.151  10.630  12.023
76000W        W47671  35.961  14.690   3.319
76001W        W47672  35.436  32.440  12.866
76002W        W47673  26.085  18.657   4.752
76003W        W47674   3.315  18.059   2.397
76004W        W47675  21.701   2.201   3.827
76005W        W47676  23.529  27.779   0.505
76006W        W47677  44.124   5.921  12.977
76007W        W47678  37.908  37.032  14.834
76008W        W47679  15.259  12.811  11.827
76009W        W47680  30.925  38.267  14.471
76010W        W47681   5.753  20.306  11.883
76011W        W47682  27.921  32.442  13.450
76012W        W47683  27.429  18.635   3.745
76013W        W47684  23.920  34.965   4.588
76014W        W47685   1.865   4.460   1.090
76015W        W47686  25.369   7.722   0.247
76016W        W47687   1.440  20.064   1.375
76017W        W47688  37.669  13.606   0.445
76018W        W47689  41.464   4.838   3.140
76019W        W47690  41.005  26.249  13.519
76020W        W47691  28.683  43.189  13.291
76021W        W47692  31.107  11.603   2.104
76022W        W47693   6.052  15.434  11.986
76023W        W47694  26.500  37.143   3.122
76024W        W47695   1.249  22.680   2.637
76025W        W47696  10.658  36.343  11.017
76026W        W47697  20.550  31.325   0.287
76027W        W47698  26.991   4.222  11.992
76028W        W47699  10.747  37.977   3.837
76029W        W47700   7.125  22.339  14.503
76030W        W47701  41.312  42.000   4.081
76031W        W47702  10.927   2.805  11.656
76032W        W47703  27.891  35.401   3.022
76033W        W47704  40.210  13.896  13.545
76034W        W47705  11.390  17.644  12.060
76035W        W47706   6.302  13.364   4.157
76036W        W47707  13.771  33.966   3.885
76037W        W47708  22.213  24.078   5.348
76038W        W47709   0.832  32.959   2.065
76039W        W47710  21.494  34.315  12.138
76040W        W47711   1.795  22.203   0.269
76041W        W47712  35.056  29.475  11.611
76042W        W47713  19.221  43.335  11.980
76043W        W47714   4.853  19.597   1.005
76044W        W47715   4.524   5.992   0.308
76045W        W47716  25.792  11.176  11.444
76046W        W47717  21.264  39.871   3.938
76047W        W47718   9.758  23.078  10.666
76048W        W47719  27.964  20.135  11.554
76049W        W47720   1.817  44.883   4.742
76050W        W47721  14.113  10.349  14.481
76051W        W47722  36.100   2.892  11.095
76052W        W47723  41.331  22.716   2.692
76053W        W47724  33.151  14.770  13.818
76054W        W47725  44.006  26.155   3.181
76055W        W47726   6.455  33.208  12.513
76056W        W47727   8.630  15.390  13.906
76057W        W47728  19.366  12.630   2.621
76058W        W47729  25.033   4.798  12.418
76059W        W47730  44.826  17.968  11.579
76060W        W47731  41.517  36.890  13.791
76061W        W47732  38.823  24.702  14.015
76062W        W47733  36.534  30.191   3.575
76063W        W47734  35.331  38.590  10.603
76064W        W47735   7.960  35.813   0.900
76065W        W47736  40.536  44.239   1.406
76066W        W47737  25.599  16.369   2.405
76067W        W47738  28.452  24.215  11.587
76068W        W47739  14.005  14.587   0.399
76069W        W47740  11.351  16.814   0.685
76070W        W47741  19.327   5.675   4.325
76071W        W47742  39.222  19.644  12.507
76072W        W47743  28.358  16.382  10.988
76073W        W47744  17.153  39.878   3.966
76074W        W47745   1.121   2.604  11.497
76075W        W47746  23.145  37.747   5.366
76076W        W47747  40.344  34.814  14.344
76077W        W47748  43.307  18.591  11.761
76078W        W47749   2.880  44.238   4.531
76079W        W47750  23.062  38.657  13.315
76080W        W47751  44.041  24.022  11.956
76081W        W47752  29.644  14.330   3.219
76082W        W47753  37.514  13.884   3.686
76083W        W47754  13.017  11.314   2.552
76084W        W47755  33.130  22.219  13.134
76085W        W47756  12.148  28.400  12.555
76086W        W47757  35.052   0.944   4.125
76087W        W47758  12.757   6.814  13.332
76088W        W47759  34.789  39.215  11.955
76089W        W47760  21.594   3.921   2.649
76090W        W47761  30.536  41.841   1.932
76091W        W47762  28.151  37.874   1.927
76092W        W47763  33.117  38.776   3.595
76093W        W47764  41.807  25.772  12.830
76094W        W47765  41.852  36.149  13.048
76095W        W47766  18.113  31.878  11.650
76096W        W47767  13.847   3.770   2.856
76097W        W47768  18.492   0.326   1.450
76098W        W47769  34.622  30.051  11.204
76099W        W47770  44.795   9.484  13.708
76100W        W47771  34.938  35.521   3.905
76101W        W47772  24.674  18.716   3.401
76102W        W47773  19.204  28.088   3.393
76103W        W47774  39.569  38.345   1.936
76104W        W47775  42.500  23.042   0.406
76105W        W47776  41.930  40.928  14.273
76106W        W47777  11.658   5.849  12.999
76107W        W47778  20.888  15.255   3.249
76108W        W47779  31.482   1.735  12.400
76109W        W47780  19.564  11.589  13.761
76110W        W47781   3.603   8.649   1.385
76111W        W47782  16.126  44.906   3.277
76112W        W47783  13.769  10.423   0.692
76113W        W47784  14.253  43.961  10.390
76114W        W47785   8.185  35.028   3.935
76115W        W47786  39.578  31.930   3.745
76116W        W47787  41.615  18.777  14.956
76117W        W47788  21.390  32.925  10.253
76118W        W47789   8.163   3.375  13.529
76119W        W47790  18.256  25.661  12.492
76120W        W47791  35.177   5.262  14.538
76121W        W47792  26.180   2.985  10.797
76122W        W47793  39.100   0.775   2.206
76123W        W47794  25.515  35.445  12.909
76124W        W47795  18.249  33.636   0.964
76125W        W47796  40.387  10.760  12.579
76126W        W47797  17.334  11.161   1.856
76127W        W47798  43.833   2.665  11.627
76128W        W47799  39.991   9.728  10.596
76129W        W47800  36.065   4.636  13.597
76130W        W47801  24.427  15.624  14.587
76131W        W47802  13.802  37.805   3.302
76132W        W47803  14.264  24.957   2.729
76133W        W47804  30.994  39.957  11.296
76134W        W47805   1.840  20.237   0.315
76135W        W47806  19.230  20.098  11.002
76136W        W47807   5.468  36.831  14.955
76137W        W47808   4.544  32.410  11.968
76138W        W47809  22.216  40.285   0.356
76139W        W47810  14.732  15.098   0.031
76140W        W47811  36.361  37.857  12.757
76141W        W47812  19.078  33.823  11.216
76142W        W47813  20.829  42.913  12.453
76143W        W47814   6.293  35.042   1.330
76144W        W47815  26.954  20.997  14.273
76145W        W47816  43.051  33.377   3.990
76146W        W47817  33.638  40.073   3.725
76147W        W47818   3.885   3.976  12.887
76148W        W47819  36.966  41.232   1.265
76149W        W47820  22.769  12.234  13.340
76150W        W47821  19.028  27.588  13.910
76151W        W47822  10.657  30.107   3.641
76152W        W47823   0.819  32.329  11.604
76153W        W47824  11.529  30.125   0.888
76154W        W47825  15.244  27.674  13.029
76155W        W47826   7.975   5.735  10.885
76156W        W47827   5.813  40.352  10.306
76157W        W47828  34.219  17.222   1.329
76158W        W47829  38.473  42.412   3.153
76159W        W47830  19.088  13.878   2.791
76160W        W47831  40.996  12.776   4.125
76161W        W47832  27.237  43.418  14.794
76162W        W47833  19.990  40.702  14.434
76163W        W47834   2.963  11.503  12.374
76164W        W47835  26.135  40.242  11.540
76165W        W47836  10.348  37.069   0.438
76166W        W47837   6.482   9.814  12.163
76167W        W47838  36.332  37.051  10.242
76168W        W47839  18.117   8.762   2.091
76169W        W47840  14.131  37.637   1.271
76170W        W47841  34.019  26.117   0.294
76171W        W47842   8.170  25.198  12.523
76172W        W47843   3.411  38.546  12.174
76173W        W47844  11.929  18.441  14.942
76174W        W47845  16.550  25.326  13.920
76175W        W47846   8.253  18.804   1.427
76176W        W47847  36.558  10.601  13.761
76177W        W47848  14.356  28.161  10.608
76178W        W47849  40.112   2.981  14.472
76179W        W47850  28.033  40.958   0.873
76180W        W47851  28.892  39.267  13.816
76181W        W47852   5.874  22.944  11.167
76182W        W47853  22.537  30.109   0.990
76183W        W47854  28.944   0.727  13.009
76184W        W47855  10.866   1.975   2.923
76185W        W47856  25.178  30.712   2.279
76186W        W47857  12.150  44.675   1.376
76187W        W47858   3.199  20.116  14.335
76188W        W47859  31.459  33.290   3.212
76189W        W47860   6.196   8.349   0.068
76190W        W47861  21.145   0.540   1.350
76191W        W47862  10.080  16.771   0.490
76192W        W47863  11.492  26.428  14.252
76193W        W47864  34.986   9.121  13.428
76194W        W47865  14.678  41.127  10.329
76195W        W47866  23.954   3.209   2.986
76196W        W47867  27.449  13.327  12.920
76197W        W47868  29.919  10.828   1.353
76198W        W47869  10.401  19.521   4.874
76199W        W47870  22.451  15.392   0.819
76200W        W47871   5.119   4.859  11.038
76201W        W47872  12.580  43.919  14.029
76202W        W47873   2.206  11.385  14.360
76203W        W47874  12.885   1.935   2.768
76204W        W47875  24.702   5.686  11.110
76205W        W47876  17.916   5.617   2.689
76206W        W47877   5.174  20.857   0.784
76207W        W47878   0.123   5.313  13.766
76208W        W47879  36.973  10.312  13.923
76209W        W47880  19.807  21.426   2.173
76210W        W47881  40.297  20.121   4.537
76211W        W47882  20.801   4.879   3.288
76212W        W47883   4.251  33.390   3.218
76213W        W47884  34.439  19.765  12.327
76214W        W47885  38.051  42.986   5.102
76215W        W47886  13.658  44.961   1.952
76216W        W47887  12.309  31.208  13.527
76217W        W47888  23.641  34.068   3.200
76218W        W47889   2.063  36.007  11.234
76219W        W47890  18.359  44.223   3.679
76220W        W47891  41.513  44.879  14.273
76221W        W47892  23.155  41.451   9.888
76222W        W47893  37.321  35.048  11.951
76223W        W47894  39.047  31.829  13.793
76224W        W47895  29.550  10.609  11.747
76225W        W47896  26.552  15.263   1.317
76226W        W47897   4.652  17.129  14.282
76227W        W47898  23.464   9.925  11.234
76228W        W47899  19.091  27.674   1.819
76229W        W47900  32.484   3.346   1.333
76230W        W47901  41.354  44.289   2.234
76231W        W47902  11.319  15.876   3.199
76232W        W47903  38.878  30.190   4.236
76233W        W47904  30.947   5.855   0.444
76234W        W47905  14.053  35.951  10.959
76235W        W47906  44.533   6.716  11.254
76236W        W47907   7.948  22.077  11.854
76237W        W47908  29.633   3.627   0.283
76238W        W47909  31.260  24.851   5.098
76239W        W47910  30.951  33.934   1.058
76240W        W47911  30.816  22.715  11.217
76241W        W47912  35.534  40.360  11.206
76242W        W47913  25.854  27.183  11.467
76243W        W47914  11.755   6.804   2.815
76244W        W47915   8.411  42.757   0.896
76245W        W47916  25.427  29.218  13.832
76246W        W47917  41.534  30.922  13.384
76247W        W47918   3.413  12.702  12.554
76248W        W47919  23.427  18.659   4.149
76249W        W47920  37.040   0.441   1.597
76250W        W47921  21.732  19.028   2.202
76251W        W47922   6.612  39.516   4.096
76252W        W47923  28.640  23.742   2.748
76253W        W47924   1.841   5.429   4.181
76254W        W47925  31.503  43.085  12.834
76255W        W47926  22.305  27.913   0.416
76256W        W47927  40.590  12.369   4.967
76257W        W47928  23.038   6.996   2.774
76258W        W47929  22.102  40.974   5.708
76259W        W47930  19.378  25.878  11.182
76260W        W47931   0.448  26.558   1.630
76261W        W47932  25.382  31.927  11.640
76262W        W47933   5.721  28.593  14.830
76263W        W47934  33.447   9.085   2.748
76264W        W47935  39.036  27.014   0.359
76265W        W47936  24.431   9.308  14.906
76266W        W47937  33.121  33.119   0.155
76267W        W47938  38.042   1.184   1.309
76268W        W47939  36.992  28.662   2.193
76269W        W47940  20.211  37.002  13.627
76270W        W47941  36.876   7.126   4.966
76271W        W47942   9.254   9.320  11.047
76272W        W47943  42.346  36.004  12.887
76273W        W47944  33.198  38.990   4.480
76274W        W47945  34.599  15.177  10.765
76275W        W47946  10.914  42.060  11.500
76276W        W47947  27.207  34.451   1.717
76277W        W47948  17.695  26.431   1.349
76278W        W47949  11.134   7.242   2.471
76279W        W47950  22.899  32.961  12.473
76280W        W47951   4.714  27.383  14.252
76281W        W47952   1.977  35.134  11.088
76282W        W47953   2.776  44.897  10.743
76283W        W47954  42.484   4.357   2.810
76284W        W47955  18.168  21.503   1.346
76285W        W47956  26.123   8.636   0.485
76286W        W47957  24.511  11.087   0.029
76287W        W47958  33.598  11.270   3.077
76288W        W47959  19.125   2.990  14.177
76289W        W47960  21.930  19.071  12.883
76290W        W47961   9.178  11.861   3.841
76291W        W47962   8.733  12.772  12.063
76292W        W47963  26.978  36.809  14.961
76293W        W47964   8.265  13.562   0.291
76294W        W47965  30.707   6.879  13.835
76295W        W47966  40.251  10.541  11.951
76296W        W47967   1.287  29.972   4.047
76297W        W47968   9.496  28.144   2.748
76298W        W47969  26.224  22.620   4.625
76299W        W47970  29.347  18.493   4.078
76300W        W47971  35.104  43.719   2.701
76301W        W47972  37.536   4.331   2.773
76302W        W47973  30.025  40.285  12.394
76303W        W47974  18.688  11.761   1.945
76304W        W47975  35.384  14.527  14.606
76305W        W47976  43.397  17.283  11.228
76306W        W47977   6.296   1.479   1.395
76307W        W47978  23.717  33.548   0.468
76308W        W47979  12.257  27.892  13.112
76309W        W47980  10.321  19.228   2.994
76310W        W47981   4.136  39.004  10.218
76311W        W47982   4.725  25.372  10.920
76312W        W47983  44.827  42.874  14.920
76313W        W47984  15.313   1.859  11.947
76314W        W47985   4.116  10.790   3.657
76315W        W47986   8.766  16.291  12.909
76316W        W47987   7.483  26.041   4.816
76317W        W47988  23.749   7.690  14.339
76318W        W47989  16.296  40.461   1.830
76319W        W47990  36.813  14.760  11.160
76320W        W47991  32.016  38.023   1.911
76321W        W47992  17.171  24.893   0.738
76322W        W47993  19.554   3.317  13.500
76323W        W47994  40.724  14.836  11.143
76324W        W47995  40.049   1.412  11.665
76325W        W47996  21.762  42.861   1.424
76326W        W47997  14.571  29.899   2.901
76327W        W47998  13.569  10.148  13.527
76328W        W47999  32.355  15.536   3.578
76329W        W48000   4.222  43.020   4.484
76330W        W48001  41.416  30.562  14.267
76331W        W48002  10.684  29.891  10.800
76332W        W48003  42.353  14.609  10.204
76333W        W48004  24.267  12.657   0.605
76334W        W48005   2.073  18.525  13.315
76335W        W48006   2.001  25.598  12.123
76336W        W48007  27.641  17.204   0.349
76337W        W48008   6.953  38.033   2.879
76338W        W48009  24.265  29.599   4.881
76339W        W48010  41.413   9.350  10.760
76340W        W48011  40.106  26.199  11.790
76341W        W48012  26.205  17.687  11.877
76342W        W48013  36.722  34.189  10.316
76343W        W48014  28.542  36.034   0.525
76344W        W48015  32.437  26.253   1.882
76345W        W48016  16.301  33.519   2.281
76346W        W48017  35.130  42.947  14.731
76347W        W48018  26.479  18.937   3.429
76348W        W48019  30.243  17.147   4.617
76349W        W48020   2.970  40.870  12.936
76350W        W48021  24.790   1.198   2.312
76351W        W48022  28.628  14.044   0.141
76352W        W48023   8.269  25.243  14.832
76353W        W48024   7.279  10.608  11.526
76354W        W48025   0.798  25.542   4.038
76355W        W48026   5.738  34.407  10.780
76356W        W48027  19.572  27.130   0.998
76357W        W48028  35.469  17.626   4.011
76358W        W48029  32.206   2.694  10.762
76359W        W48030  43.842  14.570  14.949
76360W        W48031  42.564  13.751  10.592
76361W        W48032  13.039   5.796   4.103
76362W        W48033  27.221  43.403   1.183
76363W        W48034  13.268   3.298  14.359
76364W        W48035  44.561  11.266  10.183
76365W        W48036  20.795  10.358  11.691
76366W        W48037   9.450  23.997   0.378
76367W        W48038  13.242   5.702   3.609
76368W        W48039  24.672  44.783   2.075
76369W        W48040  38.496   5.577   3.698
76370W        W48041  40.351  32.061  10.140
76371W        W48042  41.273  43.967   0.515
76372W        W48043  19.010   8.801   3.166
76373W        W48044  20.787  11.211  10.854
76374W        W48045   9.300   8.952  13.345
76375W        W48046  28.007  35.009   0.727
76376W        W48047  28.677  17.091   2.802
76377W        W48048  33.393  15.242  13.792
76378W        W48049  30.252  19.097   0.525
76379W        W48050  28.240  39.910  12.954
76380W        W48051  10.723  31.126   0.372
76381W        W48052  21.953  38.548   0.843
76382W        W48053  42.298  10.288  12.253
76383W        W48054   4.172  11.821   0.287
76384W        W48055  31.593  16.205  10.684
76385W        W48056  15.485  40.126  13.780
76386W        W48057  36.001  38.928   2.174
76387W        W48058  41.007  42.311   3.338
76388W        W48059  13.546  41.892   4.269
76389W        W48060  36.435  19.417  12.538
76390W        W48061  12.344  42.382  11.922
76391W        W48062  22.256  25.264   5.814
76392W        W48063  41.778  34.952   4.160
76393W        W48064  17.096  29.953   3.606
76394W        W48065  26.993  11.115   1.153
76395W        W48066   6.595  38.157  14.910
76396W        W48067  22.670  22.708  12.638
76397W        W48068  42.335   2.188   3.831
76398W        W48069  43.851  38.068  11.082
76399W        W48070  42.971  42.747  12.402
76400W        W48071  11.196  14.161  12.622
76401W        W48072  39.555  41.899   4.727
76402W        W48073  18.056  29.507   0.385
76403W        W48074  19.082  24.267  12.088
76404W        W48075   2.017  11.760  12.106
76405W        W48076   7.272  31.816   1.519
76406W        W48077   8.837   7.131   1.376
76407W        W48078  27.442  13.781   2.353
76408W        W48079  42.864  18.951   4.065
76409W        W48080  11.103   5.278   4.166
76410W        W48081  11.829   8.216  10.731
76411W        W48082  35.982  36.002   4.187
76412W        W48083  31.720  27.670   2.753
76413W        W48084  19.008  39.297  14.153
76414W        W48085  43.117   5.816  14.584
76415W        W48086  42.995  25.014  10.825
76416W        W48087  11.478  22.493  11.062
76417W        W48088  17.102  17.156  10.240
76418W        W48089  38.290  26.525   0.392
76419W        W48090   5.460  23.204  14.723
76420W        W48091  37.550  16.002   2.320
76421W        W48092  39.356   2.245  11.231
76422W        W48093  21.695  41.704   2.897
76423W        W48094   4.222  44.878  10.646
76424W        W48095   4.952  31.898   1.245
76425W        W48096  29.450  42.398   0.919
76426W        W48097  31.957  18.936   1.933
76427W        W48098  36.983   6.140  11.101
76428W        W48099  38.427  38.890  10.622
76429W        W48100  34.538  12.642   2.351
76430W        W48101   9.736  17.516   4.215
76431W        W48102  18.988  24.349  14.777
76432W        W48103  18.054  16.450  11.627
76433W        W48104  38.124   0.573  11.091
76434W        W48105  13.598  36.357  10.482
76435W        W48106   1.428  41.367   4.208
76436W        W48107  22.346  10.244   1.381
76437W        W48108  23.024  26.833   2.961
76438W        W48109  23.549   9.672   3.569
76439W        W48110  36.454  44.795  14.525
76440W        W48111   7.422  10.122  14.092
76441W        W48112  17.970  41.513   1.089
76442W        W48113   6.652  37.534  12.903
76443W        W48114  41.767  31.407  14.282
76444W        W48115  17.991  26.447  13.089
76445W        W48116  20.538  44.661  11.568
76446W        W48117  27.760  35.524  13.222
76447W        W48118  20.062  37.964  14.069
76448W        W48119  44.018  11.966  12.070
76449W        W48120  15.206  25.418   2.749
76450W        W48121  27.690  17.635  10.692
76451W        W48122  35.407  30.619   1.407
76452W        W48123  30.771  30.394   1.368
76453W        W48124   3.740   9.270  13.940
76454W        W48125  34.377  41.481  12.015
76455W        W48126   8.442   3.735  14.778
76456W        W48127  16.365   2.295   3.022
76457W        W48128  38.914  11.551   3.788
76458W        W48129  42.015   0.254  12.272
76459W        W48130  20.587  18.511  11.157
76460W        W48131  12.944  29.189   2.307
76461W        W48132  15.740  30.756  14.273
76462W        W48133   8.672  41.290  13.713
76463W        W48134  29.461  14.027  13.843
76464W        W48135   9.550  12.223  14.289
76465W        W48136  11.192  19.200   3.608
76466W        W48137   9.300  41.827  13.793
76467W        W48138  42.383  23.662  10.726
76468W        W48139   5.386  24.640   1.283
76469W        W48140   4.376  36.705   1.384
76470W        W48141  10.301  10.111   1.671
76471W        W48142  23.596  36.441  11.763
76472W        W48143  25.002  27.479  11.896
76473W        W48144  27.741  30.943   0.781
76474W        W48145  37.306   4.416   2.217
76475W        W48146  17.362   3.438   2.917
76476W        W48147  16.300   0.351   3.577
76477W        W48148  34.662   4.382  10.437
76478W        W48149  44.764   8.440   4.269
76479W        W48150  40.212  15.268  14.414
76480W        W48151   5.796  29.610   0.955
76481W        W48152  22.891  28.232  12.371
76482W        W48153   1.910  17.545  13.964
76483W        W48154  16.310  33.837  14.227
76484W        W48155  14.876  38.105   0.009
76485W        W48156  42.022   0.953   2.931
76486W        W48157  39.376  36.464  13.667
76487W        W48158  35.550   8.198  11.505
76488W        W48159  16.872   5.913  12.438
76489W        W48160  10.317   8.921   1.422
76490W        W48161  24.299   7.171   4.096
76491W        W48162   3.841  39.006  12.958
76492W        W48163  20.033  29.278   3.405
76493W        W48164  16.703   7.589  11.132
76494W        W48165   5.723   6.368  14.378
76495W        W48166  21.250  19.125  14.221
76496W        W48167  12.235   9.646   1.356
76497W        W48168  42.014   7.508   4.701
76498W        W48169   4.886   8.013   0.224
76499W        W48170  14.368  38.089  12.335
76500W        W48171  16.122  40.972  11.179
76501W        W48172  11.323  35.260  14.527
76502W        W48173   5.895  14.643   2.662
76503W        W48174  30.548   5.464  14.801
76504W        W48175  29.935   2.689   0.469
76505W        W48176  41.753   6.654  11.005
76506W        W48177  35.269   6.805   4.377
76507W        W48178   9.528  38.259   3.215
76508W        W48179   4.808  44.268  11.625
76509W        W48180  21.960  16.355   1.671
76510W        W48181   9.137   9.454   0.949
76511W        W48182  14.323   7.278  12.844
76512W        W48183  16.555   4.417  12.596
76513W        W48184  23.188  34.819   3.098
76514W        W48185  33.500  29.911   3.638
76515W        W48186   7.657   1.714   1.266
76516W        W48187   0.073  23.482  14.995
76517W        W48188  42.544  40.588   1.456
76518W        W48189  34.645  16.540  12.032
76519W        W48190  11.145  16.669  14.238
76520W        W48191  42.108  11.313   4.233
76521W        W48192  21.730  36.794  14.037
76522W        W48193  29.906  43.683  13.498
76523W        W48194   1.761  29.629  13.608
76524W        W48195  22.654   9.065   2.138
76525W        W48196   1.133  25.967   4.058
76526W        W48197  28.977   0.661   2.737
76527W        W48198   4.239   3.729  11.924
76528W        W48199  42.806  40.911   4.342
76529W        W48200  38.562  42.986   0.893
76530W        W48201  31.601  23.151  14.049
76531W        W48202  20.233  14.195  11.075
76532W        W48203  41.055  10.320   0.747
76533W        W48204  19.178  29.541   3.261
76534W        W48205  12.744  17.131   2.147
76535W        W48206  27.702  44.531  11.607
76536W        W48207  29.358  42.345  11.481
76537W        W48208  14.633  21.251  14.916
76538W        W48209   0.835  19.597   3.265
76539W        W48210  26.252  21.150   3.637
76540W        W48211   6.856  21.836  11.874
76541W        W48212  28.259  37.944   4.250
76542W        W48213   6.706  14.182   3.010
76543W        W48214  42.292  36.957   2.720
76544W        W48215  28.445  43.109   2.656
76545W        W48216  37.092  29.678   0.258
76546W        W48217  44.051   4.965  12.890
76547W        W48218  35.687  42.377  12.408
76548W        W48219   1.200  13.572  14.272
76549W        W48220  44.391  31.104  14.041
76550W        W48221  14.796  18.279  14.788
76551W        W48222  15.231  13.863   2.138
76552W        W48223  37.990   5.074   2.961
76553W        W48224  17.284   2.712   4.512
76554W        W48225   9.289  24.987   2.344
76555W        W48226   6.787  38.898  12.582
76556W        W48227  33.347  21.743  13.083
76557W        W48228  21.798  36.021   1.487
76558W        W48229  25.203  21.249   3.404
76559W        W48230  25.593  33.322   5.128
76560W        W48231  44.497  23.903   2.073
76561W        W48232  25.206  19.017   0.214
76562W        W48233   9.263   0.789  12.974
76563W        W48234   5.194  16.039   1.178
76564W        W48235  14.424  21.256   2.750
76565W        W48236  34.472  23.581   3.607
76566W        W48237  43.278   4.843  13.973
76567W        W48238  34.900  36.963   0.478
76568W        W48239   6.232  19.770  10.070
76569W        W48240  22.734  36.374   4.227
76570W        W48241  26.161  24.676   1.372
76571W        W48242  10.815   2.874  12.455
76572W        W48243  24.213  10.776  10.782
76573W        W48244  11.768  42.764  11.208
76574W        W48245  39.426   6.000   1.165
76575W        W48246   5.336   9.129   4.113
76576W        W48247  27.087  17.200  14.574
76577W        W48248  26.139   8.887   0.020
76578W        W48249   4.274   3.020   1.383
76579W        W48250   4.733  24.074   1.180
76580W        W48251  19.336   3.018   3.287
76581W        W48252   5.363   8.762  10.847
76582W        W48253  18.078  24.489   2.756
76583W        W48254  20.535   5.849   3.615
76584W        W48255  20.328   3.940   3.478
76585W        W48256  21.440  32.729   2.853
76586W        W48257   2.645  12.338  11.511
76587W        W48258  18.991  40.947   3.754
76588W        W48259  34.637   0.960  12.898
76589W        W48260  18.813  42.433  11.970
76590W        W48261  28.209   1.608   5.101
76591W        W48262  33.024  44.333   0.196
76592W        W48263  44.402   4.417   4.629
76593W        W48264   0.429  16.118   2.661
76594W        W48265  16.045  19.240  10.689
76595W        W48266  27.191   5.875   3.384
76596W        W48267  12.955   4.280  12.189
76597W        W48268  38.319  32.486  10.508
76598W        W48269  24.049   1.792   3.118
76599W        W48270  15.735   8.600   1.966
76600W        W48271  44.289  26.100   4.190
76601W        W48272  33.135  28.242   2.713
76602W        W48273  13.125  17.130  14.753
76603W        W48274  41.020   4.312   0.252
76604W        W48275  31.555  37.648  14.306
76605W        W48276  36.258  26.253  14.398
76606W        W48277  14.754  23.440  14.008
76607W        W48278   8.249  23.680  11.158
76608W        W48279  32.506  41.855   2.289
76609W        W48280  21.621  33.321   0.300
76610W        W48281  35.102  32.140  13.425
76611W        W48282   6.307   7.163   2.224
76612W        W48283  14.170  40.081   4.567
76613W        W48284  25.193  32.713   1.045
76614W        W48285  19.531   9.998   3.605
76615W        W48286  27.644  19.536  10.736
76616W        W48287  27.193  38.792   3.921
76617W        W48288   3.096  32.038   3.346
76618W        W48289   3.228  16.599  12.004
76619W        W48290  12.114  23.671   1.402
76620W        W48291  30.820  25.651  11.258
76621W        W48292   7.697  33.492   0.005
76622W        W48293   8.391  31.756  12.393
76623W        W48294  33.379  17.980  11.229
76624W        W48295   0.802  34.824  12.830
76625W        W48296  26.073  37.762  14.445
76626W        W48297   8.893  37.320   1.305
76627W        W48298  22.572  44.101   4.212
76628W        W48299   8.970  38.122   3.896
76629W        W48300   7.894  39.675   1.326
76630W        W48301  19.230  39.396  12.072
76631W        W48302  32.475  33.395  11.682
76632W        W48303  12.171  38.579  13.361
76633W        W48304  14.786  25.998  13.756
76634W        W48305  34.389   6.701   0.292
76635W        W48306  26.167  26.569  12.438
76636W        W48307  40.080  30.655   0.752
76637W        W48308  43.537   6.471  13.812
76638W        W48309  26.159  44.179   3.304
76639W        W48310  39.952  38.600  14.364
76640W        W48311  12.202   3.802   0.034
76641W        W48312  41.824   4.052  11.570
76642W        W48313  25.202  11.685   4.673
76643W        W48314  27.927  11.283   3.276
76644W        W48315  23.891  33.966  12.479
76645W        W48316  13.547  42.913   1.577
76646W        W48317  20.929  10.713   0.786
76647W        W48318  41.333  42.859   9.989
76648W        W48319  28.490  30.123   2.319
76649W        W48320  37.801   9.832   3.362
76650W        W48321  32.163  23.929   4.658
76651W        W48322  28.924  22.769   4.319
76652W        W48323  12.440  17.706  14.984
76653W        W48324  36.981  27.729  12.009
76654W        W48325   3.479   8.170  13.723
76655W        W48326   2.496  44.563   9.874
76656W        W48327  24.504   0.214   2.348
76657W        W48328  43.121  26.943  11.380
76658W        W48329  28.563  33.096   1.089
76659W        W48330  26.506  41.791  12.035
76660W        W48331  42.942  39.259  10.049
76661W        W48332  27.196  30.911  12.441
76662W        W48333  40.725  43.904  13.945
76663W        W48334  32.347   8.192   1.703
76664W        W48335  39.873  33.788   4.470
76665W        W48336  16.865   2.362  11.985
76666W        W48337   6.275  15.254  14.804
76667W        W48338  39.832   7.220   3.952
76668W        W48339  18.469  16.840   3.288
76669W        W48340   4.689  39.392  11.144
76670W        W48341  23.980  21.589  14.513
76671W        W48342  34.722  20.291   3.796
76672W        W48343  33.803   7.584   3.172
76673W        W48344  11.937  30.984  14.852
76674W        W48345  16.846  41.930   1.435
76675W        W48346   2.262  42.032  14.506
76676W        W48347  20.546  33.630   4.702
76677W        W48348  23.933  29.268   5.111
76678W        W48349  25.590  14.812  12.930
76679W        W48350  26.815  43.942  11.869
76680W        W48351  27.895  35.643  14.481
76681W        W48352  15.324  13.254  14.324
76682W        W48353  32.229  14.256   0.960
76683W        W48354   5.656  15.038   3.698
76684W        W48355  11.934  30.062  12.048
76685W        W48356  13.623  26.611   1.405
76686W        W48357   0.241  28.467   4.537
76687W        W48358  39.327  29.066   2.199
76688W        W48359  43.720  29.665  12.850
76689W        W48360  15.073  39.457   0.030
76690W        W48361  44.994  10.354   4.031
76691W        W48362  14.683  28.594   2.858
76692W        W48363  25.629  27.713   2.356
76693W        W48364   9.754  31.566  10.739
76694W        W48365  14.595  18.052  11.563
76695W        W48366  22.525  30.560   0.324
76696W        W48367  20.385   6.952   1.852
76697W        W48368  21.293   6.696  11.134
76698W        W48369  16.306   3.347   3.291
76699W        W48370  26.760  19.995   3.313
76700W        W48371  15.819  30.056  10.489
76701W        W48372  26.857  43.587  13.384
76702W        W48373  15.588  36.886   3.901
76703W        W48374   7.943   8.765  12.392
76704W        W48375   4.805  16.077   2.650
76705W        W48376  40.996  15.743  12.860
76706W        W48377   5.639  12.347  14.625
76707W        W48378  16.154  16.694   4.534
76708W        W48379  43.529  16.804  11.161
76709W        W48380  25.376  11.185   4.645
76710W        W48381  25.355   3.104  11.115
76711W        W48382   1.939  18.227   1.330
76712W        W48383  12.292  27.476  11.568
76713W        W48384   4.806  21.063  11.914
76714W        W48385  38.484  27.697   3.646
76715W        W48386  26.633  15.468   3.596
76716W        W48387  44.914   4.963   4.102
76717W        W48388  25.480  29.335  11.199
76718W        W48389  29.686  35.895  12.456
76719W        W48390  41.419  44.549  12.348
76720W        W48391  22.487  41.456  13.796
76721W        W48392  26.729  21.207  11.541
76722W        W48393  15.834   4.395  11.396
76723W        W48394  36.601   1.326   3.331
76724W        W48395  30.063  12.747   3.838
76725W        W48396  14.120  18.730   0.374
76726W        W48397   5.044  44.626   4.068
76727W        W48398   5.547   8.711   1.783
76728W        W48399  42.391   6.677   3.579
76729W        W48400  35.756  33.234   2.320
76730W        W48401   1.183  15.705   0.066
76731W        W48402  43.294  26.296  12.944
76732W        W48403  14.769   4.695   3.101
76733W        W48404  23.657  14.184   1.804
76734W        W48405  33.558  25.153   2.201
76735W        W48406  27.920   2.447   0.908
76736W        W48407  36.606  37.448   1.047
76737W        W48408  33.851  31.064   4.992
76738W        W48409   4.938  35.036   3.670
76739W        W48410  33.421  11.851   4.498
76740W        W48411  13.344  22.564   4.599
76741W        W48412  41.110  11.109   4.094
76742W        W48413  44.296  38.855  11.953
76743W        W48414   5.617   9.447   4.437
76744W        W48415  24.553  42.042   1.717
76745W        W48416  13.152  31.006   1.163
76746W        W48417  25.995  18.590  14.410
76747W        W48418  15.034  10.878   3.601
76748W        W48419  28.012  36.591  10.764
76749W        W48420   3.886  14.118   0.930
76750W        W48421  14.473  36.902  10.972
76751W        W48422  17.266   9.873   0.739
76752W        W48423  27.591  15.474  11.647
76753W        W48424   2.325   7.116  10.477
76754W        W48425  18.089  44.782  11.862
76755W        W48426  19.590  29.890   3.706
76756W        W48427  25.908  39.449   0.355
76757W        W48428  18.330  42.502   1.625
76758W        W48429  10.601  33.869  12.233
76759W        W48430  14.543  36.299   3.153
76760W        W48431  21.798   2.425   0.326
76761W        W48432  15.240   0.034  13.897
76762W        W48433  33.362   1.419   2.442
76763W        W48434  14.720   4.540   2.170
76764W        W48435  35.932  42.394  13.448
76765W        W48436  11.317  36.047   1.286
76766W        W48437   8.858  37.342  14.918
76767W        W48438  28.436  31.403   4.469
76768W        W48439  13.670  19.755   0.750
76769W        W48440  26.684  34.986   1.405
76770W        W48441  43.845  41.859   4.159
76771W        W48442   9.833  18.681  10.372
76772W        W48443  39.513  38.302  12.050
76773W        W48444  22.504  12.605   0.773
76774W        W48445  33.910  10.072   0.373
76775W        W48446  43.390  12.608   4.368
76776W        W48447  39.533  38.651   3.256
76777W        W48448  23.046  15.159   1.768
76778W        W48449  40.434   6.281  14.147
76779W        W48450  38.913  44.904   2.552
76780W        W48451  27.691  26.003   2.838
76781W        W48452  37.923  42.214   0.186
76782W        W48453  26.971  29.206   2.687
76783W        W48454  36.530  24.561   0.758
76784W        W48455   3.684  14.822  10.981
76785W        W48456  40.460  37.943   4.387
76786W        W48457  15.793  44.344   1.351
76787W        W48458  13.242  10.281  10.708
76788W        W48459  32.381  17.228  10.406
76789W        W48460  31.071  44.644  10.248
76790W        W48461  37.297  15.573   0.331
76791W        W48462  25.982   0.240  11.123
76792W        W48463  25.910  32.181   3.861
76793W        W48464  15.587  24.298  11.429
76794W        W48465  17.270  27.696  11.646
76795W        W48466  25.095  20.262  13.585
76796W        W48467   1.336  40.861   0.463
76797W        W48468  33.387  18.812   2.158
76798W        W48469  40.858  35.270   1.285
76799W        W48470  21.366  32.846  11.207
76800W        W48471  38.447  34.290   0.843
76801W        W48472  42.425  31.680   0.447
76802W        W48473   5.700   1.800  14.221
76803W        W48474  23.335   4.896   4.915
76804W        W48475  36.987  34.639   2.032
76805W        W48476   2.396  16.597  11.770
76806W        W48477  25.016  33.604  13.398
76807W        W48478  39.615  15.207  13.177
76808W        W48479  35.232  35.836   5.020
76809W        W48480  38.953   6.738  10.783
76810W        W48481  42.819  43.886   2.963
76811W        W48482  20.079  16.889  10.326
76812W        W48483  43.787   6.686  14.360
76813W        W48484   7.726   7.130   0.399
76814W        W48485  38.610  17.624   2.447
76815W        W48486  32.486  11.320   3.292
76816W        W48487   6.654  13.262   4.685
76817W        W48488  33.699   7.897   4.030
76818W        W48489  14.332  43.694   2.291
76819W        W48490  22.246  17.672   2.436
76820W        W48491  33.532  42.400   4.345
76821W        W48492   5.276  12.721   0.479
76822W        W48493  15.093  39.849   1.822
76823W        W48494   9.423  37.884  10.310
76824W        W48495  21.246  25.521   2.885
76825W        W48496  33.201  41.429  14.012
76826W        W48497  13.156   3.346  13.420
76827W        W48498  21.996  30.862   4.714
76828W        W48499   7.115  31.997  10.777
76829W        W48500  17.595  14.565  14.780
76830W        W48501   4.901   2.412   0.257
76831W        W48502  43.508   8.873   0.361
76832W        W48503  32.970   6.888  11.904
76833W        W48504  34.836  44.793  12.386
76834W        W48505  39.977   9.226  11.983
76835W        W48506   7.305  23.969  10.766
76836W        W48507  39.291  32.517  10.785
76837W        W48508   8.241  16.320   4.686
76838W        W48509  29.045  11.299   4.808
76839W        W48510  31.382  11.319   1.219
76840W        W48511  20.241  44.882  14.911
76841W        W48512  44.497   8.297   1.006
76842W        W48513  16.871  17.317   0.820
76843W        W48514  14.349  12.695  11.435
76844W        W48515   0.423  21.189   4.713
76845W        W48516  11.314  21.142  10.694
76846W        W48517  14.743  18.848  13.655
76847W        W48518  13.216  17.831   3.214
76848W        W48519  39.385  32.722  12.614
76849W        W48520   1.070  23.368  11.103
76850W        W48521  17.712   7.144  13.379
76851W        W48522  27.561  22.309  13.517
76852W        W48523   1.332  21.194  13.968
76853W        W48524   7.725  21.270   1.353
76854W        W48525   6.827  29.937   4.545
76855W        W48526  21.101  42.424  12.476
76856W        W48527  44.350  29.425   2.769
76857W        W48528   1.545  27.127   4.201
76858W        W48529  35.629  37.250  12.389
76859W        W48530  27.374  17.140  12.223
76860W        W48531  31.661  20.693  13.219
76861W        W48532   3.176  38.557  11.187
76862W        W48533  38.752  40.360  10.895
76863W        W48534  12.684  39.594   2.614
76864W        W48535  16.184   0.415  12.743
76865W        W48536  29.475  26.986   3.680
76866W        W48537  33.366   7.119  11.171
76867W        W48538   3.361  12.757   3.504
76868W        W48539  29.282  24.175  10.666
76869W        W48540  39.912  34.678  14.764
76870W        W48541  41.312  17.635  13.786
76871W        W48542   4.811  28.740   4.990
76872W        W48543  43.428   7.284  12.076
76873W        W48544  17.287  32.455   3.105
76874W        W48545  24.765  26.428   3.695
76875W        W48546   2.802   9.773   1.338
76876W        W48547  22.566  42.473   2.347
76877W        W48548  11.076  29.483   3.891
76878W        W48549   4.806   4.250   2.267
76879W        W48550  31.634  40.355   2.995
76880W        W48551   5.150  23.097  11.475
76881W        W48552  14.419  15.839  14.956
76882W        W48553  13.380  32.101   2.305
76883W        W48554  36.498   7.620  13.877
76884W        W48555  41.392   3.452   2.758
76885W        W48556   9.337   5.843  11.207
76886W        W48557   2.343  24.170   3.428
76887W        W48558  28.836   7.798   0.695
76888W        W48559   8.881  33.461   3.674
76889W        W48560  28.643  39.990   0.291
76890W        W48561  39.282  42.809   5.063
76891W        W48562  28.881  24.280  14.412
76892W        W48563   1.427   9.701  14.858
76893W        W48564  35.132   8.673   3.685
76894W        W48565  14.961  32.899  11.457
76895W        W48566  13.799  38.510   3.729
76896W        W48567  10.838   5.210  12.434
76897W        W48568  15.179  28.810  10.750
76898W        W48569  19.771  18.969  11.133
76899W        W48570   9.364  42.694  14.342
76900W        W48571  41.190  16.357  11.167
76901W        W48572  13.161  40.969  12.402
76902W        W48573  11.285  33.878  11.673
76903W        W48574   9.819  34.012  14.397
76904W        W48575  41.547   6.166  12.381
76905W        W48576  27.145  30.723  11.509
76906W        W48577  40.645   9.301  13.371
76907W        W48578  23.472  31.459   2.592
76908W        W48579   9.806  31.746  11.664
76909W        W48580   7.444  21.076   3.241
76910W        W48581   6.454  12.866   0.377
76911W        W48582  41.870  40.102   2.880
76912W        W48583  18.595  36.535  11.169
76913W        W48584  23.011  15.130  14.287
76914W        W48585  42.385  20.659  12.677
76915W        W48586  22.050   3.463   4.816
76916W        W48587   7.479   3.740   3.636
76917W        W48588   1.565  24.973  12.569
76918W        W48589  22.676  21.374  12.991
76919W        W48590  32.432  25.694   3.956
76920W        W48591  14.122  23.758  14.310
76921W        W48592  36.626   7.361  13.342
76922W        W48593  41.753  27.616  14.051
76923W        W48594  39.354   6.425   3.772
76924W        W48595  21.700  33.854   4.126
76925W        W48596  12.012  39.647  10.717
76926W        W48597   9.249   5.329  14.479
76927W        W48598  43.362  42.435  12.144
76928W        W48599  36.752  18.886  11.669
76929W        W48600  40.213  19.673  12.426
76930W        W48601  41.316  22.981  11.614
76931W        W48602   5.651  39.807  12.003
76932W        W48603  44.721   4.739  14.382
76933W        W48604  19.184   4.569  13.244
76934W        W48605  38.551  33.206   1.738
76935W        W48606  38.602  23.927  11.457
76936W        W48607  17.388  42.897  14.517
76937W        W48608  17.181  32.934   1.193
76938W        W48609   7.015   8.233   0.392
76939W        W48610  11.692   7.360   3.676
76940W        W48611  14.573  17.810  14.744
76941W        W48612  13.512  20.257  14.664
76942W        W48613   7.418  36.384   4.724
76943W        W48614   6.282  41.728  12.795
76944W        W48615  14.127   7.302  13.790
76945W        W48616  20.627   8.347  12.062
76946W        W48617   1.974  36.582   1.256
76947W        W48618  20.786  40.981  11.880
76948W        W48619  33.527  29.215  13.488
76949W        W48620   5.244  15.763  11.440
76950W        W48621   5.323   5.416   3.183
76951W        W48622  15.542  26.140   4.680
76952W        W48623  13.766  44.714   1.003
76953W        W48624   3.965  22.039   2.402
76954W        W48625  44.044  10.354  10.628
76955W        W48626  28.638  22.725  11.435
76956W        W48627  27.569  32.551   1.837
76957W        W48628   8.340  23.995  10.698
76958W        W48629  21.357   2.865   2.232
76959W        W48630  33.403  25.670   0.791
76960W        W48631  42.773  37.896  10.900
76961W        W48632  24.459  28.934   0.457
76962W        W48633  12.545   3.087   1.909
76963W        W48634  13.420   4.759   3.178
76964W        W48635  35.898  35.730   2.773
76965W        W48636  10.305  20.444  11.321
76966W        W48637  43.686   5.864  11.901
76967W        W48638  35.095   7.164  14.315
76968W        W48639  13.208  24.286   2.057
76969W        W48640  20.069  31.384  12.136
76970W        W48641  26.344  24.086   2.746
76971W        W48642  41.423  27.161  14.253
76972W        W48643  19.720   9.212   4.061
76973W        W48644  11.278   9.816   3.461
76974W        W48645  17.164  34.943  10.690
76975W        W48646  29.973  19.750   4.125
76976W        W48647  34.284  14.102  11.775
76977W        W48648  13.710   9.311  11.574
76978W        W48649  39.055  21.711  10.942
76979W        W48650  23.130  39.653  13.350
76980W        W48651   8.593  20.925  13.946
76981W        W48652  26.122  30.122   1.206
76982W        W48653  33.064  37.628   4.044
76983W        W48654  33.075  16.654   2.663
76984W        W48655  15.589   9.692   0.461
76985W        W48656  40.311  28.605  13.918
76986W        W48657   7.425  15.954   4.046
76987W        W48658   1.309  18.345  13.856
76988W        W48659  34.387  39.501  12.096
76989W        W48660  12.241  24.423  12.886
76990W        W48661   3.367   9.073   2.618
76991W        W48662  42.569   3.019   2.297
76992W        W48663  31.066  25.871   4.211
76993W        W48664  33.589  11.393   4.331
76994W        W48665  44.208   4.812  13.853
76995W        W48666  30.487   1.770   0.761
76996W        W48667   1.713  14.083  11.532
76997W        W48668  14.666  20.323   1.357
76998W        W48669  11.496  44.159  13.067
76999W        W48670   3.607   8.515   1.909
77000W        W48671  37.640   8.660   4.230
77001W        W48672  38.032   6.883   1.317
77002W        W48673  15.368  44.983   4.605
77003W        W48674  16.626  33.898   3.646
77004W        W48675  37.925  44.549   2.407
77005W        W48676   1.287  20.279  11.030
77006W        W48677   1.409  36.962  14.949
77007W        W48678  35.581  42.017   4.627
77008W        W48679  10.362   3.195   1.414
77009W        W48680  15.139  19.851   3.108
77010W        W48681   6.773  22.145   2.816
77011W        W48682   9.508   9.833  13.491
77012W        W48683   4.417  39.054  13.498
77013W        W48684   4.021   7.423   1.803
77014W        W48685  10.301   3.377  14.420
77015W        W48686  43.409  34.354  11.053
77016W        W48687  34.499   5.959   1.367
77017W        W48688  37.704  39.008   0.293
77018W        W48689   1.012  23.939  12.948
77019W        W48690  32.433  28.070  11.535
77020W        W48691  31.408  28.966  10.787
77021W        W48692  32.596   7.429  14.487
77022W        W48693  24.779  10.412   2.560
77023W        W48694  15.242   6.148  10.644
77024W        W48695  21.232  40.429   3.200
77025W        W48696  19.569   1.959  12.587
77026W        W48697  27.583  36.327   3.137
77027W        W48698  29.077   1.696   3.626
77028W        W48699  44.939  25.329  14.793
77029W        W48700  27.545  27.017  13.783
77030W        W48701  38.893  17.199   2.599
77031W        W48702  28.899  42.130  12.165
77032W        W48703   9.401  28.175  14.574
77033W        W48704   7.150  39.725  13.811
77034W        W48705  37.647   3.556  10.441
77035W        W48706  33.198  24.640   0.756
77036W        W48707   5.152  39.423   2.806
77037W        W48708  40.107  30.866  14.022
77038W        W48709  30.639  29.044   2.945
77039W        W48710  43.321  32.014  13.698
77040W        W48711  29.120  31.037  10.897
77041W        W48712  36.993  16.294  12.278
77042W        W48713  12.829  30.973  14.747
77043W        W48714  31.421  41.488   0.925
77044W        W48715  16.042  20.771   4.604
77045W        W48716  33.426  44.080  13.457
77046W        W48717  20.255   2.271  12.951
77047W        W48718  38.046   5.776  14.338
77048W        W48719  34.061   9.811   0.791
77049W        W48720  28.722   5.318   2.125
77050W        W48721  23.791  12.579   0.367
77051W        W48722  25.694  12.140  12.875
77052W        W48723  33.322   4.400  10.257
77053W        W48724   2.359  19.327   2.984
77054W        W48725  33.607   9.245   2.257
77055W        W48726   0.586  23.508   3.637
77056W        W48727  17.827  27.648   3.225
77057W        W48728  19.210  18.567  13.347
77058W        W48729  19.803  21.858   0.515
77059W        W48730  44.294  38.459  12.962
77060W        W48731  11.878  12.582   4.183
77061W        W48732   8.486  26.489  12.757
77062W        W48733  34.454  41.241  11.178
77063W        W48734  24.973  21.795  14.491
77064W        W48735  10.323  40.481  13.402
77065W        W48736  31.217  34.855   2.766
77066W        W48737  40.498  15.629  13.002
77067W        W48738  13.226  13.407   4.576
77068W        W48739  14.296  30.638  12.011
77069W        W48740  38.824  29.043  11.557
77070W        W48741  26.623  27.307   3.835
77071W        W48742  20.668  29.386   2.261
77072W        W48743  31.934  10.233   0.829
77073W        W48744   1.670   1.216  12.408
77074W        W48745  13.654  22.066   4.079
77075W        W48746  37.539  14.398   3.736
77076W        W48747  18.110  27.942   1.975
77077W        W48748  21.122  21.952   1.832
77078W        W48749  38.513  21.343   0.442
77079W        W48750  44.346  40.292  12.352
77080W        W48751  26.191  36.372   3.626
77081W        W48752  22.577   1.009   3.770
77082W        W48753  41.960   2.182  14.080
77083W        W48754  43.467   5.854  11.447
77084W        W48755  41.031  13.231   1.807
77085W        W48756  21.729  25.674  13.476
77086W        W48757  40.928  44.485   1.934
77087W        W48758  34.548  24.320   1.703
77088W        W48759  10.339  33.133  12.628
77089W        W48760  14.669   7.365  11.564
77090W        W48761  36.016  30.124  11.103
77091W        W48762  24.927   5.832  13.927
77092W        W48763  32.892  35.454   4.402
77093W        W48764  40.422   8.427   1.806
77094W        W48765  39.880  15.121   3.181
77095W        W48766  29.509   9.309  12.146
77096W        W48767  32.406  40.974  13.866
77097W        W48768   3.390   9.587   1.790
77098W        W48769  35.354  26.495  11.558
77099W        W48770  40.551  34.340   4.081
77100W        W48771  23.932  43.968  14.823
77101W        W48772  18.270  44.767  13.299
77102W        W48773  26.892  36.018   4.077
77103W        W48774  35.591  32.418   3.691
77104W        W48775   6.929  30.734   2.291
77105W        W48776  39.178  29.445   3.228
77106W        W48777   7.247  36.363   3.873
77107W        W48778  37.357  11.255   0.319
77108W        W48779  27.707   9.265  11.623
77109W        W48780  13.361  27.025   3.837
77110W        W48781  19.137  36.822  11.139
77111W        W48782   5.627   0.478   2.904
77112W        W48783  33.808  41.904   1.817
77113W        W48784  31.007  27.263  14.714
77114W        W48785  23.967  11.688   3.173
77115W        W48786   5.205  29.559   0.401
77116W        W48787  19.509  20.643  13.882
77117W        W48788   5.397  26.889  13.057
77118W        W48789  29.537  10.959  10.734
77119W        W48790  12.623   8.261  13.983
77120W        W48791  37.806  17.022   2.246
77121W        W48792  43.136   4.949  12.403
77122W        W48793  22.922  23.567  12.540
77123W        W48794  42.114  24.570   0.791
77124W        W48795  29.196  12.255   4.963
77125W        W48796  21.992  25.084  14.881
77126W        W48797  21.658   4.724   0.227
77127W        W48798  15.352  11.906   0.450
77128W        W48799  14.231  15.338  14.098
77129W        W48800  44.536   8.648   4.686
77130W        W48801  41.803  10.310   4.981
77131W        W48802  12.888  32.731  14.417
77132W        W48803  39.926  16.608  11.772
77133W        W48804  44.465  36.102  12.928
77134W        W48805  24.477   3.186   4.253
77135W        W48806  18.117  18.606   3.717
77136W        W48807  22.750   7.392   0.925
77137W        W48808  40.115  11.170  13.938
77138W        W48809  28.891   6.993  10.755
77139W        W48810   1.310  44.334   4.270
77140W        W48811  29.022  13.054  12.112
77141W        W48812  37.124  16.188  13.411
77142W        W48813  21.636   0.423  13.915
77143W        W48814  33.405  28.080  14.822
77144W        W48815  34.395  14.350   0.884
77145W        W48816  25.315  42.077  12.493
77146W        W48817  24.090  12.680  13.133
77147W        W48818   2.923  11.200   2.653
77148W        W48819  31.923  13.777   2.217
77149W        W48820  22.900  19.502   1.316
77150W        W48821  41.834  13.726  13.642
77151W        W48822   3.261  23.677  11.741
77152W        W48823  29.248  41.463   3.258
77153W        W48824  13.172   4.031   1.274
77154W        W48825  27.437   9.651   2.905
77155W        W48826   8.385  20.984  10.673
77156W        W48827  42.768   6.233   1.515
77157W        W48828   3.508  30.022   1.173
77158W        W48829   6.727  15.525  10.744
77159W        W48830  41.457   8.167   4.554
77160W        W48831  34.953  43.493  11.529
77161W        W48832  10.872  19.398   4.684
77162W        W48833   9.211  40.922   4.157
77163W        W48834  25.538  26.967   2.645
77164W        W48835   7.512  30.597   3.313
77165W        W48836  41.794  41.774  13.395
77166W        W48837   5.174  41.506   0.304
77167W        W48838  15.639   9.172  13.550
77168W        W48839  32.907  40.986  14.065
77169W        W48840   9.915  26.194   4.120
77170W        W48841  25.504   7.927  13.646
77171W        W48842   2.001  36.081  13.846
77172W        W48843  19.278  27.622  14.360
77173W        W48844  33.682  33.076  13.103
77174W        W48845  33.262   9.358   0.228
77175W        W48846  41.490   8.465  14.417
77176W        W48847  43.770  40.875   4.132
77177W        W48848   1.163  21.626  13.733
77178W        W48849  41.066  22.416   1.654
77179W        W48850   4.971   9.849   2.296
77180W        W48851   2.552   4.336  12.626
77181W        W48852  20.495   1.321   0.690
77182W        W48853   0.543  12.278  10.159
77183W        W48854   0.464  24.693  10.588
77184W        W48855  42.873  34.977   0.521
77185W        W48856  33.124  35.446   0.183
77186W        W48857  11.638  12.183  12.482
77187W        W48858  18.301   2.538  12.873
77188W        W48859   6.036  18.246  13.161
77189W        W48860  36.307  22.958   0.328
77190W        W48861  19.960  32.402  13.570
77191W        W48862  20.475   5.632  10.269
77192W        W48863  13.821  36.657  14.861
77193W        W48864  12.121  25.053  10.483
77194W        W48865  30.638  37.311   3.301
77195W        W48866  28.726   7.775   4.503
77196W        W48867  35.171  33.391   3.694
77197W        W48868  14.908  22.105   2.592
77198W        W48869  30.305  16.562   3.709
77199W        W48870   5.936  20.990  11.045
77200W        W48871   3.099   9.887   2.926
77201W        W48872  32.551  23.088   4.770
77202W        W48873  19.346  19.013   0.395
77203W        W48874  13.342  34.179   2.261
77204W        W48875  13.677   7.985   3.831
77205W        W48876   7.215  17.176  10.787
77206W        W48877  38.589   6.467  14.219
77207W        W48878  36.684   1.835  11.105
77208W        W48879  21.266  23.385   1.935
77209W        W48880  42.841   3.672  10.716
77210W        W48881  20.307  36.828   1.039
77211W        W48882  44.532   6.643   1.879
77212W        W48883  17.278  39.323  13.961
77213W        W48884  40.351   8.028  14.522
77214W        W48885  18.707  16.328  13.305
77215W        W48886  31.776  31.939   2.582
77216W        W48887  17.636  19.459   2.276
77217W        W48888  12.781  16.026  13.792
77218W        W48889  20.791  21.768  13.068
77219W        W48890  30.354  44.758  10.966
77220W        W48891  28.850  37.412   0.320
77221W        W48892   2.301  27.594   2.736
77222W        W48893  37.383  24.545  10.747
77223W        W48894  13.352   4.894   4.524
77224W        W48895  29.548  18.699  12.331
77225W        W48896  27.961  11.779  12.189
77226W        W48897  19.470  35.402   4.020
77227W        W48898   9.752  16.371   0.799
77228W        W48899   1.467  21.557   1.501
77229W        W48900  40.296  34.474   0.906
77230W        W48901   9.855   5.224   1.768
77231W        W48902  39.001  29.432  11.209
77232W        W48903   7.157  37.476  12.803
77233W        W48904  21.416  38.445   9.672
77234W        W48905   1.503  37.093  10.612
77235W        W48906  35.546  37.360   4.983
77236W        W48907   6.571   6.683   3.307
77237W        W48908  35.903  30.861   5.099
77238W        W48909   0.977  32.660   3.857
77239W        W48910  23.766   9.495  11.127
77240W        W48911  38.696  12.126  11.396
77241W        W48912   8.892  14.797  11.101
77242W        W48913  37.774  12.660   1.111
77243W        W48914  44.158   0.262  13.021
77244W        W48915   5.203  34.869   3.227
77245W        W48916   2.471   7.582  12.879
77246W        W48917  29.905   4.841   4.753
77247W        W48918  44.793  22.116   9.798
77248W        W48919  42.996  40.629   3.687
77249W        W48920  27.205   8.196   3.545
77250W        W48921   1.239   8.925   4.132
77251W        W48922   4.726  43.807   4.169
77252W        W48923   0.906  42.930   3.192
77253W        W48924   4.773   5.632   1.202
77254W        W48925   3.717  16.554   4.214
77255W        W48926  25.475  24.764  10.689
77256W        W48927   6.365  43.796   2.831
77257W        W48928  33.530   0.493   4.637
77258W        W48929  34.154  18.980   4.343
77259W        W48930  36.514  31.178   2.343
77260W        W48931   3.293   2.048  12.330
77261W        W48932   2.392  27.804   3.211
77262W        W48933  21.166  27.208   0.756
77263W        W48934  13.215   8.441   1.006
77264W        W48935  30.671  13.043   1.182
77265W        W48936  35.658  36.899   2.362
77266W        W48937  24.361  37.326  11.674
77267W        W48938  36.878  27.974   0.854
77268W        W48939  13.768  29.441   2.701
77269W        W48940  24.306  42.429   0.529
77270W        W48941  38.593  30.419  14.258
77271W        W48942   4.389  10.335  10.631
77272W        W48943   1.878   3.775  11.237
77273W        W48944   8.354  26.672   1.695
77274W        W48945  40.339  42.030   0.782
77275W        W48946  31.143  41.593   2.357
77276W        W48947  23.853  43.403  12.661
77277W        W48948  29.148  25.435  12.513
77278W        W48949  42.454  11.653   3.855
77279W        W48950   2.633  10.349   4.241
77280W        W48951  37.323  43.002  13.588
77281W        W48952  31.977  10.787   4.611
77282W        W48953   4.741  15.875  13.416
77283W        W48954  24.120   9.805   0.520
77284W        W48955   0.417  10.332  11.517
77285W        W48956  25.062  22.670  10.787
77286W        W48957  16.449  38.932   1.276
77287W        W48958  34.515   2.253   1.279
77288W        W48959  10.245   5.986   1.292
77289W        W48960  39.376   0.313   1.481
77290W        W48961  44.452  37.858   3.687
77291W        W48962  41.952  23.650   5.015
77292W        W48963  35.060  33.070   0.237
77293W        W48964  36.703  25.662  11.633
77294W        W48965  44.994  31.885   0.004
77295W        W48966  16.846  19.443  14.250
77296W        W48967  37.480  31.393   3.761
77297W        W48968  37.383  23.655  14.917
77298W        W48969   2.773  35.156  11.523
77299W        W48970  15.877  35.040   4.118
77300W        W48971  41.771   5.840   2.633
77301W        W48972  37.807  17.269  10.772
77302W        W48973  38.565  15.197  14.034
77303W        W48974  23.131   5.801   3.214
77304W        W48975  35.614  22.202   0.295
77305W        W48976   8.184  19.720   1.426
77306W        W48977   8.104  19.724   0.393
77307W        W48978  26.254  18.454   5.197
77308W        W48979  27.465  39.024   1.037
77309W        W48980  41.583   2.062  12.520
77310W        W48981  14.226   5.469   3.233
77311W        W48982   6.248  23.150  12.371
77312W        W48983  42.932  35.537  13.733
77313W        W48984   5.835  14.015  10.797
77314W        W48985  41.851  20.255   2.470
77315W        W48986  27.392  17.666  14.431
77316W        W48987  43.483  25.591  10.697
77317W        W48988  36.420  19.225  13.020
77318W        W48989  39.548  19.074  14.326
77319W        W48990  40.775  27.145  13.381
77320W        W48991  19.642  39.393   1.846
77321W        W48992   3.469  16.946   4.465
77322W        W48993  39.459  16.636   4.583
77323W        W48994  22.962  30.545   4.753
77324W        W48995   9.675  43.709   3.253
77325W        W48996  16.078  39.351   0.329
77326W        W48997  42.054  41.850   1.815
77327W        W48998  29.773   6.369   4.667
77328W        W48999  13.934   6.312  13.814
77329W        W49000  30.601  43.985  14.414
77330W        W49001  38.851  39.966  10.570
77331W        W49002  16.761   3.298  12.827
77332W        W49003   4.919   1.678  11.341
77333W        W49004  21.590  30.949   3.120
77334W        W49005  26.132  35.415  12.540
77335W        W49006  38.912   3.480  13.789
77336W        W49007  36.515  15.089  12.815
77337W        W49008  20.621  27.602  11.378
77338W        W49009  26.642  35.057   0.549
77339W        W49010  18.613  37.154  12.072
77340W        W49011  44.445  33.057  13.441
77341W        W49012  22.278  13.059  14.890
77342W        W49013  22.246  34.836  10.426
77343W        W49014   7.804  31.991  11.454
77344W        W49015  18.693  14.162   1.880
77345W        W49016  29.968  17.779   2.311
77346W        W49017  24.977  27.313  11.345
77347W        W49018  20.443  40.914   3.994
77348W        W49019  38.349  40.103  10.671
77349W        W49020  43.857  42.348  12.359
77350W        W49021  13.213  20.143   3.324
77351W        W49022   2.650   9.015   0.335
77352W        W49023  43.236   4.273   3.234
77353W        W49024  44.831   0.509   0.373
77354W        W49025  10.166  38.950  12.924
77355W        W49026  26.844  38.605   2.289
77356W        W49027  41.028  19.012  12.530
77357W        W49028   5.266  27.008   1.695
77358W        W49029  13.659   0.266   0.299
77359W        W49030  42.818   5.870   0.033
77360W        W49031  26.183   3.530   3.600
77361W        W49032  28.919  29.513   1.520
77362W        W49033  44.073  43.428   3.295
77363W        W49034  17.556  36.500  14.772
77364W        W49035  19.466   3.782  13.293
77365W        W49036   7.271   1.387   3.782
77366W        W49037   5.166  36.991   2.689
77367W        W49038  40.410  44.920  11.006
77368W        W49039  20.154  38.803  12.405
77369W        W49040   0.929  39.545   3.167
77370W        W49041  15.031   2.222   4.195
77371W        W49042  40.400  35.158   3.710
77372W        W49043  25.739   2.767   4.556
77373W        W49044  30.544  24.946  13.835
77374W        W49045   6.377  30.181  13.817
77375W        W49046  34.754  30.904  14.787
77376W        W49047  36.575   5.450  11.892
77377W        W49048  19.657  38.818   0.868
77378W        W49049   3.869  10.420   0.800
77379W        W49050  35.623  10.905   4.150
77380W        W49051  24.326  44.237   1.473
77381W        W49052  31.638  23.138   1.747
77382W        W49053  22.263  29.979   1.429
77383W        W49054  29.383  31.924   0.746
77384W        W49055  15.576  29.610  10.895
77385W        W49056   4.269  24.716   2.307
77386W        W49057  35.117  16.755  14.838
77387W        W49058   4.958  44.378  13.298
77388W        W49059  15.609  15.383   2.073
77389W        W49060  32.072  40.094   0.554
77390W        W49061  28.807   1.820   3.182
77391W        W49062  30.154  16.771   2.400
77392W        W49063  30.132  23.635   1.100
77393W        W49064   8.781  23.994  11.380
77394W        W49065  37.416  18.732  13.872
77395W        W49066   1.783  15.969  12.143
77396W        W49067   6.760  19.594  14.264
77397W        W49068  34.026  12.408   0.904
77398W        W49069  20.385  25.647   1.905
77399W        W49070  42.279  19.130  10.648
77400W        W49071  16.294   4.277   1.705
77401W        W49072  42.939   9.172  12.599
77402W        W49073  37.066  14.802  10.722
77403W        W49074  22.678  11.801   0.472
77404W        W49075   0.826  33.420  12.483
77405W        W49076   2.352  12.345  13.854
77406W        W49077   1.039  36.859   3.297
77407W        W49078   5.857  31.482   3.155
77408W        W49079  23.065  44.397  13.750
77409W        W49080   9.198  41.276  12.957
77410W        W49081  42.239  10.956   5.502
77411W        W49082  34.640  37.312   1.260
77412W        W49083   8.087  38.071   2.305
77413W        W49084  30.325   7.778  13.895
77414W        W49085   5.179  32.073  13.785
77415W        W49086  40.374  38.838   4.256
77416W        W49087  11.682  15.749  10.322
77417W        W49088  18.204  25.519  10.677
77418W        W49089  11.283   9.199   1.268
77419W        W49090  17.285  44.835  13.018
77420W        W49091  38.151  42.000   0.928
77421W        W49092  32.667  38.352  14.365
77422W        W49093  37.321  30.850   2.900
77423W        W49094  41.334  26.929  12.475
77424W        W49095  39.054  22.627   2.869
77425W        W49096  30.488  39.548   4.701
77426W        W49097  19.630   1.609   1.019
77427W        W49098  18.060  10.337  12.543
77428W        W49099  23.409  27.635   3.534
77429W        W49100  13.690   5.951  14.904
77430W        W49101  29.067  37.926   4.648
77431W        W49102  35.334  19.052  10.605
77432W        W49103  44.781  34.858  12.052
77433W        W49104  25.579  23.805   2.762
77434W        W49105  41.375  31.655  12.956
77435W        W49106  33.092  43.320   3.379
77436W        W49107  13.631  28.448   2.097
77437W        W49108  11.504  25.507  14.389
77438W        W49109  15.090  22.071  14.852
77439W        W49110  31.498   0.195  12.088
77440W        W49111  44.972  18.761  11.145
77441W        W49112  10.582  40.559  12.979
77442W        W49113  15.370  42.778  14.227
77443W        W49114  25.147  24.358   1.292
77444W        W49115   1.343  13.177   0.125
77445W        W49116  11.209  10.152   1.746
77446W        W49117  24.715  39.842  12.481
77447W        W49118  40.879   0.052   2.358
77448W        W49119  25.515   0.473  11.142
77449W        W49120   7.635  35.863  12.382
77450W        W49121  26.792  23.804   3.247
77451W        W49122  38.070  10.924  10.775
77452W        W49123  22.113   7.081   4.036
77453W        W49124  17.607  29.193  13.588
77454W        W49125   1.030  15.989   0.537
77455W        W49126  12.022  14.708   0.277
77456W        W49127   2.939  37.219   3.116
77457W        W49128  33.041   6.908  14.915
77458W        W49129   8.668  13.252   3.300
77459W        W49130   3.870  20.208  14.046
77460W        W49131   7.132  33.237   3.836
77461W        W49132   6.171  39.984  10.415
77462W        W49133  15.561  13.978  13.486
77463W        W49134  15.816   0.386  14.614
77464W        W49135  40.718  26.058   2.796
77465W        W49136  25.065  21.649   0.539
77466W        W49137   5.637  31.036  10.599
77467W        W49138  36.488   5.914  12.084
77468W        W49139  38.869  21.174  10.674
77469W        W49140  23.634  11.324  14.002
77470W        W49141  12.472  29.917  11.954
77471W        W49142  19.185  15.656   4.883
77472W        W49143  44.820  31.631   0.402
77473W        W49144  32.093   4.559   0.867
77474W        W49145   4.373  10.433   1.436
77475W        W49146  26.659   2.200   3.663
77476W        W49147  36.537  28.440   0.442
77477W        W49148  22.863  30.591  10.091
77478W        W49149  29.019  41.303   4.343
77479W        W49150  14.158  27.626   0.282
77480W        W49151  35.815  30.288   1.443
77481W        W49152   3.956  22.810   4.640
77482W        W49153  18.505   7.239   0.220
77483W        W49154  12.794   6.898  14.323
77484W        W49155  35.930   1.831   2.344
77485W        W49156   7.696  20.670  10.733
77486W        W49157  27.612   4.980   0.326
77487W        W49158  43.699  34.013  12.101
77488W        W49159   3.694   4.401  13.109
77489W        W49160  39.456  17.312   2.746
77490W        W49161   1.697  18.693   1.332
77491W        W49162  42.392  22.415  11.620
77492W        W49163   2.799   7.506  14.486
77493W        W49164  14.186  37.898   4.119
77494W        W49165  25.089  17.477  14.398
77495W        W49166  14.055   0.834  14.339
77496W        W49167  26.917  31.997   3.832
77497W        W49168  12.152  19.735  13.936
77498W        W49169  41.794  35.325  13.648
77499W        W49170  43.115  32.656   2.810
77500W        W49171   3.238  24.689  10.963
77501W        W49172  32.047  42.023   1.491
77502W        W49173  23.972  41.916  13.381
77503W        W49174   5.422  36.508   1.751
77504W        W49175  18.470  39.789   1.959
77505W        W49176   6.371  11.854  10.505
77506W        W49177  11.101   3.430  10.778
77507W        W49178  31.640  34.540  11.657
77508W        W49179  33.942  42.075   2.893
77509W        W49180  10.835  21.921  10.532
77510W        W49181  37.043  34.948  14.747
77511W        W49182  37.378  34.527  10.223
77512W        W49183  30.934  41.508   1.885
77513W        W49184  28.527  28.910   4.646
77514W        W49185  30.058  26.620  10.659
77515W        W49186  38.622  23.648  14.416
77516W        W49187  37.596  27.943  10.603
77517W        W49188  23.636  25.485   2.887
77518W        W49189  37.088  12.292   1.735
77519W        W49190  12.618  41.246   2.543
77520W        W49191  12.064  33.549  14.846
77521W        W49192  35.237  34.377  12.976
77522W        W49193  36.040  10.390   1.485
77523W        W49194  16.706  14.653   4.576
77524W        W49195   2.563   7.377   4.224
77525W        W49196  19.268  21.334   0.962
77526W        W49197  14.069  15.230  11.205
77527W        W49198  39.817  23.919   3.955
77528W        W49199  34.015  22.993  13.856
77529W        W49200   6.857   3.610  11.131
77530W        W49201  16.712  14.156   4.722
77531W        W49202  14.712  39.971  14.342
77532W        W49203   8.314  26.788   4.433
77533W        W49204  30.395  43.037   0.636
77534W        W49205  28.554  12.654  12.642
77535W        W49206  12.138  30.250  13.858
77536W        W49207  12.673  42.553  12.500
77537W        W49208   9.455  42.375   1.268
77538W        W49209   7.888   8.386  14.201
77539W        W49210  25.644  16.718  11.515
77540W        W49211  38.888  24.518   2.660
77541W        W49212  43.867  20.491  13.536
77542W        W49213  17.693  18.926   0.556
77543W        W49214  21.265  12.388  13.311
77544W        W49215  37.400  20.492   1.725
77545W        W49216  22.143   7.339  13.753
77546W        W49217  28.523  26.919  14.418
77547W        W49218   1.784   9.117   0.524
77548W        W49219  41.224  19.087   3.773
77549W        W49220   1.271  39.777  12.592
77550W        W49221  41.086  35.538  11.633
77551W        W49222  16.985  13.377   3.093
77552W        W49223   7.120  11.375  12.985
77553W        W49224  28.061  38.179  14.000
77554W        W49225  29.467  39.155   0.211
77555W        W49226  25.190  39.099   1.714
77556W        W49227  10.724   4.437   3.726
77557W        W49228  26.872  28.086   9.815
77558W        W49229  40.470  43.010  13.305
77559W        W49230  36.336  43.774  13.469
77560W        W49231  41.931  26.595  11.689
77561W        W49232  21.691  14.587   1.250
77562W        W49233  19.046  24.202   4.709
77563W        W49234  37.401  36.997   2.245
77564W        W49235  34.324  40.511   0.765
77565W        W49236  20.107   3.241   2.370
77566W        W49237  33.945  42.961   2.820
77567W        W49238  38.434  31.369  14.491
77568W        W49239  24.168  11.319   1.304
77569W        W49240  21.800  35.649   1.857
77570W        W49241  14.819  25.682  13.334
77571W        W49242  16.628   6.642  13.153
77572W        W49243  23.768  10.587  11.826
77573W        W49244  18.546  19.528  11.233
77574W        W49245   4.338   6.546  13.298
77575W        W49246   5.192  39.263   4.056
77576W        W49247  40.303  36.436  11.163
77577W        W49248  13.253  22.494  12.442
77578W        W49249  19.146  11.871  13.669
77579W        W49250   9.200   4.891   4.879
77580W        W49251   9.786   1.430  11.452
77581W        W49252  35.798  30.599   2.683
77582W        W49253   9.127  38.050   0.702
77583W        W49254   7.195  25.533   3.261
77584W        W49255  38.776  37.828  11.438
77585W        W49256  21.174  16.132   4.480
77586W        W49257  23.644  34.482  12.112
77587W        W49258  36.585   3.071  11.035
77588W        W49259  40.510  36.447   4.074
77589W        W49260  42.150   0.273   1.859
77590W        W49261  23.217   1.894   1.887
77591W        W49262  19.436  21.557   2.576
77592W        W49263  36.085  27.537  13.111
77593W        W49264  11.860  31.455   0.388
77594W        W49265  35.077  10.084   0.889
77595W        W49266  43.943   0.118  13.614
77596W        W49267  35.018   3.987   1.365
77597W        W49268  15.530  42.941  11.614
77598W        W49269   0.344  21.748   2.664
77599W        W49270  30.576  11.195  13.741
77600W        W49271  11.916  18.827  11.578
77601W        W49272  25.567  39.278  12.509
77602W        W49273  15.211  29.572  12.000
77603W        W49274  18.533  23.948  11.873
77604W        W49275  42.991  44.453   3.273
77605W        W49276  19.269  15.184  10.649
77606W        W49277  39.258  35.060   1.662
77607W        W49278  34.855  43.027  10.688
77608W        W49279  25.123   7.181   2.387
77609W        W49280  37.561  30.143  13.781
77610W        W49281  40.043  27.110  11.530
77611W        W49282   9.358  22.185   1.603
77612W        W49283  44.960  17.961   1.332
77613W        W49284  17.113  36.884   1.751
77614W        W49285  43.020  38.391  11.580
77615W        W49286  38.861  38.377   4.050
77616W        W49287   6.458  15.142   3.236
77617W        W49288  15.800  32.423  13.435
77618W        W49289  15.614  22.553   0.921
77619W        W49290  28.062  40.810  10.564
77620W        W49291   7.874   9.228  14.292
77621W        W49292  28.022   2.972  11.537
77622W        W49293  40.594  11.198  11.179
77623W        W49294  24.019   7.285   0.445
77624W        W49295  40.509   3.689   1.742
77625W        W49296   2.310  12.217   1.798
77626W        W49297  29.034  22.136   3.772
77627W        W49298  31.689  41.305  11.936
77628W        W49299   4.300  14.077   4.939
77629W        W49300  10.760   6.135   1.682
77630W        W49301  43.479  29.282  12.294
77631W        W49302  29.149  35.814   0.882
77632W        W49303  43.720  43.722   2.881
77633W        W49304  16.273  21.972  12.642
77634W        W49305   4.443  13.244   1.476
77635W        W49306  27.470  43.184   0.764
77636W        W49307   3.812   2.818   1.552
77637W        W49308  42.019  11.801   1.631
77638W        W49309  39.680  37.279   3.664
77639W        W49310  32.924  29.420   2.059
77640W        W49311   9.239  24.475   0.291
77641W        W49312  43.673  14.123   5.449
77642W        W49313  34.505  10.817   0.905
77643W        W49314   2.279  34.124  12.763
77644W        W49315  13.123  21.602  12.350
77645W        W49316   7.089  44.422   2.884
77646W        W49317  39.080  14.851   0.439
77647W        W49318  39.570  25.253   4.334
77648W        W49319  37.504  16.574   2.960
77649W        W49320  22.771  25.570  14.805
77650W        W49321  42.824  27.766   3.560
77651W        W49322  16.792  26.823  13.867
77652W        W49323  22.582  41.840   0.541
77653W        W49324   0.426   9.349  11.637
77654W        W49325  41.720   7.840  12.967
77655W        W49326  36.986  11.418   1.277
77656W        W49327  17.591  17.802  10.672
77657W        W49328  12.394  36.342  14.256
77658W        W49329   5.468   3.926  12.544
77659W        W49330  14.032  27.486  13.401
77660W        W49331  38.505  22.811   2.747
77661W        W49332  34.237   5.665  10.899
77662W        W49333  32.308  24.334   4.394
77663W        W49334   9.722  18.509   3.913
77664W        W49335   8.758   1.309  12.498
77665W        W49336   0.622  37.386   5.032
77666W        W49337  36.584   8.407   0.924
77667W        W49338  40.937  36.006  10.790
77668W        W49339  15.729   6.735  12.885
77669W        W49340   5.837  35.332   1.279
77670W        W49341  22.083  28.952   1.228
77671W        W49342  38.368  10.263  12.741
77672W        W49343  12.609  13.655   4.845
77673W        W49344  36.585  37.846   3.116
77674W        W49345  31.505  17.559  14.310
77675W        W49346  26.733  44.326   1.000
77676W        W49347  41.835  24.253   4.042
77677W        W49348  24.434  34.931   4.545
77678W        W49349  43.819  15.284   3.791
77679W        W49350  30.780  41.495  12.381
77680W        W49351  16.085  26.074   4.587
77681W        W49352   9.141  40.556  14.953
77682W        W49353  10.627  41.817  11.996
77683W        W49354  35.330   3.224  12.059
77684W        W49355  26.515   7.309   0.051
77685W        W49356  37.645   8.771  14.354
77686W        W49357  40.129   9.935   0.965
77687W        W49358  39.964  17.832  13.037
77688W        W49359  15.243  14.608   4.935
77689W        W49360   3.630  16.608  13.829
77690W        W49361  22.916   4.506   2.383
77691W        W49362  25.976   8.871   2.883
77692W        W49363  21.999  36.051  11.904
77693W        W49364   9.966   5.278  11.622
77694W        W49365  42.754  24.093   1.683
77695W        W49366  39.812   6.230  14.862
77696W        W49367  40.010  38.173  11.167
77697W        W49368  36.812  37.110   3.659
77698W        W49369  33.817  11.461   1.713
77699W        W49370  26.520   3.566   1.442
77700W        W49371  29.238  19.257   2.620
77701W        W49372   8.782  21.178  11.223
77702W        W49373  16.788  13.691  12.004
77703W        W49374  39.293  40.820   4.129
77704W        W49375  17.067  18.508  11.946
77705W        W49376  36.150  34.841  11.014
77706W        W49377  42.711  26.365   2.689
77707W        W49378  42.740   0.378   2.691
77708W        W49379  40.472  31.076  11.715
77709W        W49380  36.786   2.231  10.815
77710W        W49381  12.658  39.023  10.805
77711W        W49382   2.477   2.793  11.001
77712W        W49383  42.904  43.912   2.413
77713W        W49384  41.472  29.211  14.403
77714W        W49385  32.455   4.770  11.423
77715W        W49386  16.088  12.930  10.369
77716W        W49387   6.661  43.683   4.124
77717W        W49388  20.344  26.233   4.617
77718W        W49389  22.978  44.946   1.435
77719W        W49390  44.177  12.169   2.952
77720W        W49391  17.306  32.944   4.612
77721W        W49392  22.634  38.444   2.928
77722W        W49393  40.790  11.591   0.042
77723W        W49394  35.136   9.711   1.900
77724W        W49395  14.511   2.352   1.322
77725W        W49396  19.641  28.951   2.282
77726W        W49397  18.487  28.746  11.024
77727W        W49398  39.961  11.820  10.542
77728W        W49399  10.631   3.884  12.833
77729W        W49400  38.448  21.580   4.907
77730W        W49401  32.974  33.591  13.124
77731W        W49402  36.178  13.545   3.866
77732W        W49403  17.073  38.413  11.947
77733W        W49404  41.387  44.414   0.867
77734W        W49405   5.036  28.847  11.533
77735W        W49406  16.600  33.660   3.164
77736W        W49407  28.023  34.936  11.531
77737W        W49408  22.001  15.934   0.317
77738W        W49409  43.983  31.140   2.703
77739W        W49410   1.480  11.654  13.898
77740W        W49411  44.347  39.033   0.807
77741W        W49412   7.898  39.976   1.776
77742W        W49413  10.623  16.682   1.108
77743W        W49414  33.991  37.267   3.692
77744W        W49415  34.905  25.389  10.524
77745W        W49416  15.364  27.662  11.514
77746W        W49417  40.744  27.762   2.350
77747W        W49418  25.560   2.828   1.175
77748W        W49419  29.723  34.968  11.800
77749W        W49420  32.942  38.407  12.895
77750W        W49421   8.311   6.863  11.272
77751W        W49422  38.012  15.269  13.036
77752W        W49423   2.462  25.815  13.795
77753W        W49424  11.096  43.414   0.882
77754W        W49425  28.842  24.780  14.334
77755W        W49426  44.987   4.300   1.824
77756W        W49427  28.832  32.633   0.921
77757W        W49428  39.209  42.562  12.520
77758W        W49429  26.712  24.020  12.670
77759W        W49430  24.653   7.713  11.218
77760W        W49431  19.758  39.614  14.263
77761W        W49432  41.576   5.412  14.604
77762W        W49433  33.829   1.286  13.239
77763W        W49434   7.619   1.705   4.039
77764W        W49435   2.087  35.896   3.240
77765W        W49436  42.704  10.690   1.299
77766W        W49437  43.799  16.307   2.544
77767W        W49438   5.942  36.854   3.870
77768W        W49439   3.158  39.403  14.791
77769W        W49440   8.339  37.515   1.036
77770W        W49441  12.304   2.287   4.389
77771W        W49442  22.493   0.253  11.024
77772W        W49443  23.566  21.596   4.595
77773W        W49444  23.421  34.549  11.636
77774W        W49445  44.416  11.192  11.926
77775W        W49446  15.774  14.889  14.268
77776W        W49447  31.496  22.518   4.064
77777W        W49448  22.092  24.383  10.167
77778W        W49449   8.136  26.317   0.755
77779W        W49450  20.944  33.671  11.198
77780W        W49451  36.317  40.461   4.196
77781W        W49452   2.068  25.079  12.485
77782W        W49453  13.570  44.808  12.614
77783W        W49454  33.438   3.688  11.399
77784W        W49455   3.949  18.349  14.482
77785W        W49456  20.221  20.091   2.405
77786W        W49457  41.903  38.474   3.238
77787W        W49458  25.534  30.016   4.536
77788W        W49459   2.917  35.419  12.080
77789W        W49460  35.587   3.827  11.538
77790W        W49461  12.367  34.217  12.581
77791W        W49462   5.692  13.645  14.319
77792W        W49463   1.881  16.689   3.606
77793W        W49464  35.526  43.805  10.780
77794W        W49465   6.909  26.165   2.640
77795W        W49466   3.924  28.146   1.766
77796W        W49467  14.291  18.412   2.390
77797W        W49468  32.200  42.515   2.821
77798W        W49469  26.523  27.531  12.961
77799W        W49470  20.714  10.990   0.400
77800W        W49471  22.099  41.377   4.885
77801W        W49472  22.162  41.764   3.644
77802W        W49473  44.366   2.277   4.141
77803W        W49474  29.152   0.317  10.753
77804W        W49475  11.649  22.740   1.433
77805W        W49476  33.660  23.028   1.854
77806W        W49477   6.338  13.317   3.193
77807W        W49478  43.342  44.662  13.164
77808W        W49479  35.681  22.270   4.090
77809W        W49480  29.882  11.730  10.977
77810W        W49481  20.045  34.105   0.749
77811W        W49482   6.503  11.099  11.063
77812W        W49483  42.091   7.917  10.775
77813W        W49484   0.235  38.268  13.942
77814W        W49485  32.360  14.735  11.254
77815W        W49486   5.368  27.137  12.618
77816W        W49487  31.599  34.346   2.197
77817W        W49488   3.532  32.261  12.043
77818W        W49489   8.299   2.953   4.345
77819W        W49490  19.811  25.643  12.515
77820W        W49491   2.491  15.528   3.363
77821W        W49492   3.143  21.509  12.086
77822W        W49493  14.306   5.902   1.672
77823W        W49494   4.249  12.353   0.365
77824W        W49495   4.509  27.024   3.870
77825W        W49496  29.598  41.766  14.328
77826W        W49497  41.844  32.233   3.392
77827W        W49498  10.120   8.892  12.862
77828W        W49499  34.292  12.560  14.580
77829W        W49500  33.462   6.773   3.024
77830W        W49501   9.681   5.602  13.322
77831W        W49502   8.044  34.991   2.911
77832W        W49503  37.529  40.818   4.635
77833W        W49504  31.125  32.979  12.225
77834W        W49505  32.577  21.335  13.529
77835W        W49506   2.405  26.542  14.766
77836W        W49507  32.354  42.842   0.498
77837W        W49508   1.635  24.554   4.475
77838W        W49509  38.845  21.181  13.647
77839W        W49510  34.173  39.053   4.203
77840W        W49511  24.568  10.657  11.372
77841W        W49512  22.246   3.440  14.829
77842W        W49513  37.511  41.948   3.220
77843W        W49514  31.021   0.392   1.483
77844W        W49515  29.311   8.682  10.106
77845W        W49516   0.546  36.509  14.870
77846W        W49517  14.155  11.250  14.249
77847W        W49518  24.102  36.371  12.513
77848W        W49519  22.970   6.338  12.365
77849W        W49520  19.202  44.200  10.660
77850W        W49521   3.897  18.259   0.314
77851W        W49522   5.194   4.538  14.748
77852W        W49523   2.702   6.772   4.660
77853W        W49524  16.639  21.971  13.030
77854W        W49525  19.222  35.864   2.728
77855W        W49526  42.456   5.845  12.699
77856W        W49527  20.779  11.708   3.325
77857W        W49528  41.559  16.332  14.943
77858W        W49529  39.921  15.173  13.593
77859W        W49530  42.025  36.893   1.393
77860W        W49531  35.405  44.765  13.374
77861W        W49532  42.367   6.239   2.415
77862W        W49533   3.380  24.271   2.128
77863W        W49534  10.756   6.082  13.399
77864W        W49535  26.061   8.033  13.022
77865W        W49536  28.036  25.223   5.010
77866W        W49537  36.070  35.634   1.275
77867W        W49538  44.000   1.396   0.896
77868W        W49539  37.503  36.072   0.325
77869W        W49540  24.164   5.959  14.778
77870W        W49541  42.978  37.412  14.007
77871W        W49542  37.070  21.536   3.792
77872W        W49543  44.285  36.036  13.954
77873W        W49544   8.267   1.602   2.242
77874W        W49545  15.743   0.990   1.029
77875W        W49546   7.306  25.759  12.421
77876W        W49547  31.805  24.248   1.703
77877W        W49548  38.284   2.720   3.934
77878W        W49549   5.593   5.419   2.738
77879W        W49550  30.681  14.593  11.113
77880W        W49551  34.462  30.985   4.497
77881W        W49552  10.784  32.048  12.807
77882W        W49553  17.175  22.252   2.305
77883W        W49554  19.536  38.028   0.441
77884W        W49555  16.457   7.255  14.380
77885W        W49556  39.604   7.963   1.319
77886W        W49557  35.379  27.497  14.825
77887W        W49558  41.854   0.548  10.405
77888W        W49559  34.910  21.957  12.085
77889W        W49560  29.569  36.040   2.218
77890W        W49561   9.186  39.767   1.491
77891W        W49562  15.039  14.195  11.462
77892W        W49563  25.160  38.392  11.212
77893W        W49564   5.792  39.897  13.554
77894W        W49565   4.527   5.167   1.280
77895W        W49566  44.487  33.397   3.610
77896W        W49567   4.946  38.984  11.995
77897W        W49568  29.485  40.382   1.306
77898W        W49569  29.306  15.228   0.316
77899W        W49570  36.540  14.258  14.292
77900W        W49571   4.160  38.138   1.369
77901W        W49572   5.232  37.642  10.639
77902W        W49573  16.281   6.151  11.123
77903W        W49574  13.763  15.704   4.171
77904W        W49575  11.107  39.882  10.932
77905W        W49576  13.649  17.688  12.546
77906W        W49577  39.460  14.563   1.198
77907W        W49578  39.514  35.973   4.223
77908W        W49579  30.353  44.336   1.369
77909W        W49580  25.195   0.686  14.122
77910W        W49581  32.027   0.294  12.046
77911W        W49582  43.416  30.022   1.991
77912W        W49583   7.224   9.940  11.032
77913W        W49584   9.855  13.059  13.216
77914W        W49585  34.032  22.604   2.351
77915W        W49586   1.365   2.774   0.669
77916W        W49587  17.550   3.537  12.323
77917W        W49588  19.114  29.717  12.507
77918W        W49589   4.792  33.150  11.510
77919W        W49590   5.749  25.712   2.212
77920W        W49591  36.091  12.257  13.435
77921W        W49592  40.885   8.110   1.911
77922W        W49593  17.367  14.591   1.935
77923W        W49594   2.177  22.094   5.055
77924W        W49595   5.703   9.222   3.769
77925W        W49596  23.178  31.567   3.371
77926W        W49597  43.475  34.920   2.893
77927W        W49598  21.240   2.353   3.647
77928W        W49599  31.826   8.575   2.428
77929W        W49600  20.706  29.117   0.303
77930W        W49601  25.189  27.156  10.890
77931W        W49602  31.500  44.030   2.828
77932W        W49603  43.345   4.565  10.207
77933W        W49604  35.024  34.349  11.680
77934W        W49605   6.332   5.240  14.503
77935W        W49606  20.203  10.867   3.759
77936W        W49607   2.023  34.139   2.158
77937W        W49608  28.276   3.951   0.861
77938W        W49609  44.909  28.598  10.422
77939W        W49610  20.260   0.859   0.291
77940W        W49611  42.735  17.348  14.833
77941W        W49612  35.538  39.374  12.455
77942W        W49613  30.227  43.382   3.784
77943W        W49614  28.436   9.101   2.401
77944W        W49615  43.373  19.311  13.454
77945W        W49616  21.697  25.517  14.824
77946W        W49617  14.754  36.040   0.993
77947W        W49618  37.414  37.364   5.041
77948W        W49619  36.013  14.740  14.432
77949W        W49620   4.686  28.103   2.686
77950W        W49621  32.565  39.993  10.826
77951W        W49622   2.757   1.241   4.918
77952W        W49623  39.800  28.030  13.560
77953W        W49624   0.991  37.996  11.563
77954W        W49625  44.330   7.173   2.556
77955W        W49626  13.193  18.754   3.224
77956W        W49627  35.434   5.885  13.460
77957W        W49628  14.732  30.065  13.510
77958W        W49629  25.003  24.656   0.881
77959W        W49630  39.294  22.932   3.250
77960W        W49631  36.115  42.489   4.112
77961W        W49632  33.454  34.791  14.957
77962W        W49633   8.627  42.709   1.362
77963W        W49634  43.987  38.396  14.476
77964W        W49635  13.366  41.050   0.783
77965W        W49636  32.983  26.445   0.401
77966W        W49637  41.266  13.680   4.998
77967W        W49638  27.726  12.487   0.352
77968W        W49639   0.867   2.271   1.354
77969W        W49640  36.774  13.834   3.223
77970W        W49641  12.816  35.093  14.424
77971W        W49642   9.254   2.183  12.176
77972W        W49643  12.257  38.148  13.637
77973W        W49644  41.012  42.379   4.732
77974W        W49645  28.922  27.348  10.785
77975W        W49646  37.564   6.273  11.727
77976W        W49647   2.466   8.649   3.828
77977W        W49648  33.348  17.552  12.676
77978W        W49649  23.195   3.243   4.558
77979W        W49650  39.516  29.609   4.683
77980W        W49651  43.673  27.727  12.920
77981W        W49652  38.332  42.833   1.940
77982W        W49653  13.598   6.454   2.360
77983W        W49654  36.545  25.051   2.784
77984W        W49655   0.115   7.592  13.847
77985W        W49656  24.727  17.794   2.448
77986W        W49657  40.334  33.909  14.366
77987W        W49658  17.436  13.329   4.788
77988W        W49659  28.511   8.819  11.688
77989W        W49660  15.183  12.759   4.749
77990W        W49661  34.753  34.571  13.023
77991W        W49662  11.250  42.064  11.097
77992W        W49663   3.449  21.761  14.873
77993W        W49664  33.092  26.479  12.062
77994W        W49665   0.476   2.898  12.300
77995W        W49666  23.627  17.840  10.562
77996W        W49667  11.824  35.942   1.330
77997W        W49668  30.981   1.911   4.328
77998W        W49669  37.073   7.795   3.328
77999W        W49670  11.996  37.906  11.055
78000W        W49671  22.666   7.488  14.029
78001W        W49672  13.618  33.362   3.194
78002W        W49673   2.162  37.482  11.498
78003W        W49674  21.126  35.261  12.035
78004W        W49675  30.747  28.944  12.548
78005W        W49676  17.197  29.838  13.473
78006W        W49677   8.102  29.231  12.577
78007W        W49678  28.124  31.765   2.747
78008W        W49679   5.749   6.465  12.501
78009W        W49680  25.378   9.200  10.712
78010W        W49681  10.310  13.779  11.754
78011W        W49682  18.801  13.985   0.109
78012W        W49683  11.269  17.130  11.980
78013W        W49684  39.503  43.576   3.698
78014W        W49685  23.004  35.934   4.031
78015W        W49686  41.382   1.419   2.206
78016W        W49687  18.605  25.812  10.258
78017W        W49688  17.239  40.686   5.031
78018W        W49689  20.396  30.877   2.423
78019W        W49690  10.869   6.370  12.979
78020W        W49691   2.761  19.043   0.898
78021W        W49692  34.659  19.745  13.739
78022W        W49693   9.313  13.131  11.454
78023W        W49694   0.913  35.299   0.412
78024W        W49695  42.494  13.290  13.278
78025W        W49696  43.285  28.107   4.500
78026W        W49697  36.495  33.858  11.025
78027W        W49698  17.520  37.484   2.402
78028W        W49699  29.521  41.643   3.666
78029W        W49700  37.216  43.972   4.284
78030W        W49701   8.427  13.197  12.004
78031W        W49702  41.535  36.923   1.236
78032W        W49703  36.642  36.486   4.584
78033W        W49704  42.844  35.564   1.248
78034W        W49705  26.248  18.581  12.042
78035W        W49706  16.607  37.038  12.466
78036W        W49707  29.446  40.626   3.715
78037W        W49708   1.032   4.821  11.150
78038W        W49709  27.624  32.482   3.890
78039W        W49710  24.979  25.930   4.566
78040W        W49711   8.526  11.638  13.404
78041W        W49712  44.521  30.011   4.906
78042W        W49713  27.154   6.688  11.536
78043W        W49714  38.771  31.718  14.713
78044W        W49715  18.402  11.178   0.332
78045W        W49716   1.741  13.819  14.340
78046W        W49717   7.335   7.298  12.389
78047W        W49718  27.954   7.286   1.883
78048W        W49719  11.264  21.200  12.520
78049W        W49720  32.506  12.153  10.806
78050W        W49721  13.723   6.987  14.616
78051W        W49722  24.126  43.810   2.967
78052W        W49723  15.207   0.822  14.246
78053W        W49724  14.308   1.911   1.543
78054W        W49725  25.822  33.606  13.534
78055W        W49726   3.041  42.810  14.983
78056W        W49727   7.370  37.617  11.057
78057W        W49728   2.016   8.310  13.399
78058W        W49729  21.004  41.919  12.591
78059W        W49730  24.593  38.490  13.076
78060W        W49731  31.232  41.835  13.940
78061W        W49732  24.994  33.092   1.374
78062W        W49733  15.393  44.732  11.203
78063W        W49734  43.530  20.500  10.098
78064W        W49735  20.204   7.418  11.210
78065W        W49736  17.492  21.929   0.011
78066W        W49737  43.359   3.336  14.153
78067W        W49738  12.604  27.308   3.630
78068W        W49739   9.645   0.356   3.650
78069W        W49740  17.843  13.065   2.315
78070W        W49741  33.852  42.878   4.911
78071W        W49742  43.273  34.049  14.024
78072W        W49743   9.399  20.749   1.005
78073W        W49744  27.542   9.406   4.882
78074W        W49745  27.294   6.545   2.249
78075W        W49746  24.900  25.504   1.698
78076W        W49747  11.303  11.709   1.274
78077W        W49748  39.355  23.609  13.859
78078W        W49749  15.646  13.383   3.369
78079W        W49750  32.620  22.323   2.391
78080W        W49751  40.851  15.834  14.976
78081W        W49752  20.961  29.574  12.179
78082W        W49753   7.416  42.664  13.937
78083W        W49754  18.294  18.650   4.227
78084W        W49755   0.454  32.594   2.181
78085W        W49756  24.101  18.991  12.193
78086W        W49757  25.653  40.740  11.652
78087W        W49758   2.660  20.426   0.871
78088W        W49759  24.943  17.021   0.357
78089W        W49760  15.199  29.722   2.473
78090W        W49761   6.725  26.536  12.105
78091W        W49762  41.794  29.879   0.361
78092W        W49763  33.645  11.321  13.091
78093W        W49764  24.241  24.781   3.108
78094W        W49765   5.038   3.681  14.458
78095W        W49766  13.353  25.601  13.784
78096W        W49767  30.633  35.925   2.654
78097W        W49768  11.126  32.440  10.414
78098W        W49769  33.957  31.460   3.858
78099W        W49770   7.837  35.846  12.860
78100W        W49771  26.944   8.821   4.578
78101W        W49772  43.415  40.688  10.080
78102W        W49773   3.993  15.935  12.957
78103W        W49774  41.299   0.513   4.650
78104W        W49775  37.233   8.806   1.721
78105W        W49776  26.034  36.317   1.331
78106W        W49777  20.720  29.503  12.641
78107W        W49778  27.291   5.482   1.274
78108W        W49779   7.104  14.324   3.350
78109W        W49780  30.902  38.820  12.538
78110W        W49781  15.524  21.990  12.127
78111W        W49782  27.880  43.931   1.400
78112W        W49783   0.132  20.610   5.314
78113W        W49784  12.844  21.683   0.713
78114W        W49785  22.974  11.177  11.580
78115W        W49786   9.389  39.827  13.864
78116W        W49787  36.431  33.202  12.828
78117W        W49788  22.397  26.576   0.472
78118W        W49789   9.280  21.193  11.339
78119W        W49790  37.492  42.865  11.503
78120W        W49791  17.933  11.242  10.633
78121W        W49792  43.301  21.113  13.995
78122W        W49793  43.074  28.966   2.314
78123W        W49794  27.234  40.004   3.834
78124W        W49795   5.333  43.770   3.909
78125W        W49796  30.644   1.097  10.305
78126W        W49797  20.031  23.652   0.451
78127W        W49798   0.006  37.910   0.032
78128W        W49799  36.057  22.139  11.629
78129W        W49800  31.608  22.636   0.826
78130W        W49801  17.350  19.021  13.482
78131W        W49802  32.632  24.083  14.398
78132W        W49803  16.319  33.980   4.895
78133W        W49804  39.868  11.775   3.747
78134W        W49805  33.640  24.658   2.973
78135W        W49806  39.025  26.232  14.014
78136W        W49807  12.576  11.215  12.449
78137W        W49808   7.119  22.639   4.306
78138W        W49809  21.675  41.545  10.296
78139W        W49810  16.532  15.300  14.571
78140W        W49811  17.328  31.135  12.325
78141W        W49812   5.729   4.393  13.100
78142W        W49813  21.219   4.511   4.298
78143W        W49814  42.832  24.225  12.038
78144W        W49815   1.827  33.625  11.021
78145W        W49816  33.812  15.810   3.555
78146W        W49817  21.519  44.478  14.463
78147W        W49818   5.366   0.485   5.239
78148W        W49819  29.689  12.660  11.487
78149W        W49820  29.274  43.689   3.975
78150W        W49821   1.484   7.172   2.385
78151W        W49822   2.043  36.464  10.530
78152W        W49823  23.757   6.134  12.752
78153W        W49824  30.570  27.477   4.651
78154W        W49825  44.668   6.313  12.485
78155W        W49826   2.083   5.559   2.648
78156W        W49827  41.159  22.124  12.509
78157W        W49828  39.763  33.191  13.350
78158W        W49829  21.643   5.709   2.706
78159W        W49830  21.860  32.930  11.069
78160W        W49831   7.363  34.029   1.791
78161W        W49832  11.482   7.224  12.895
78162W        W49833  21.249  33.218   2.915
78163W        W49834  11.307  24.483  11.074
78164W        W49835  38.508  42.823  14.794
78165W        W49836  29.171  29.571  13.975
78166W        W49837  31.575   2.388   0.410
78167W        W49838  33.075   8.719   1.843
78168W        W49839  36.421  26.378   4.041
78169W        W49840  41.764  11.283  14.312
78170W        W49841  42.453  17.983   2.408
78171W        W49842  28.706   6.494  12.842
78172W        W49843  34.646  32.882  11.264
78173W        W49844  35.347  27.881   3.241
78174W        W49845   8.318   3.337   2.593
78175W        W49846  18.525  32.428  13.364
78176W        W49847   8.311   0.242  14.060
78177W        W49848  38.430  20.688  11.483
78178W        W49849  26.656  26.453   1.671
78179W        W49850  20.825   3.305   3.711
78180W        W49851   6.228  42.526   3.659
78181W        W49852   8.228  35.169   4.444
78182W        W49853  28.188  22.531  13.428
78183W        W49854  20.081  33.845   3.295
78184W        W49855  12.243  11.200   0.636
78185W        W49856  34.563  16.708   4.490
78186W        W49857   9.165  18.165   0.316
78187W        W49858  27.891  10.340   3.292
78188W        W49859  28.632  20.315  11.170
78189W        W49860   8.222  13.783  13.230
78190W        W49861  16.199  43.285  11.996
78191W        W49862   8.161   7.437  13.831
78192W        W49863   0.391  15.524  11.428
78193W        W49864  39.312  23.230   1.964
78194W        W49865   3.284   2.882   1.425
78195W        W49866   0.205   5.628  14.205
78196W        W49867  21.607  14.566   4.935
78197W        W49868  29.400  12.611  13.778
78198W        W49869  21.083  31.343  11.543
78199W        W49870  34.494  12.940   1.445
78200W        W49871   3.003  44.303   2.726
78201W        W49872  41.411  10.291  11.468
78202W        W49873  41.427   4.767   0.376
78203W        W49874  13.746   4.891  14.179
78204W        W49875   3.197  30.092  13.848
78205W        W49876  43.157  14.315  10.249
78206W        W49877   4.485  43.391   1.666
78207W        W49878  31.414  37.507   3.623
78208W        W49879  13.461  19.507   4.140
78209W        W49880   1.528  24.711   2.656
78210W        W49881   8.280  22.778  12.881
78211W        W49882   3.349  15.208   4.115
78212W        W49883  20.498  11.083   4.133
78213W        W49884  38.759  44.739  14.867
78214W        W49885   1.373  11.208   0.463
78215W        W49886   8.214  19.699   3.975
78216W        W49887  35.459  13.632  14.712
78217W        W49888  23.131  32.809  13.328
78218W        W49889  39.828  26.444   0.332
78219W        W49890  40.840  32.654  14.904
78220W        W49891  20.756  21.726  14.903
78221W        W49892  39.574  28.615   2.300
78222W        W49893   2.790  25.947   0.812
78223W        W49894   0.464  38.506  10.493
78224W        W49895  12.767  10.729  11.212
78225W        W49896   8.791  28.229   2.159
78226W        W49897  34.836  27.831   3.211
78227W        W49898  44.984  34.924   0.983
78228W        W49899  18.610  43.225  12.905
78229W        W49900   3.414   5.708   2.363
78230W        W49901  42.753  35.689  12.725
78231W        W49902  34.128   9.287   2.175
78232W        W49903  20.722  27.782   1.956
78233W        W49904  18.957  17.015   3.182
78234W        W49905  39.545  12.825  10.940
78235W        W49906  41.863  16.812   2.833
78236W        W49907  35.545  26.673  12.006
78237W        W49908  44.823  20.243   5.063
78238W        W49909  19.047   1.954  11.922
78239W        W49910  31.318   3.447   4.123
78240W        W49911  28.838  17.115   4.212
78241W        W49912  42.489   8.364   2.157
78242W        W49913  37.807  41.084   2.288
78243W        W49914  37.081  15.089   0.344
78244W        W49915  15.756  23.635  12.659
78245W        W49916  25.996  35.597   0.653
78246W        W49917  43.541  28.016  10.574
78247W        W49918   9.209  14.099   1.106
78248W        W49919  23.660  34.817   3.847
78249W        W49920  36.149  43.856  11.632
78250W        W49921  27.969  27.077   4.725
78251W        W49922   5.743  25.405  12.193
78252W        W49923  16.064  17.775  11.574
78253W        W49924  35.656  19.114   0.004
78254W        W49925  37.239  18.472   4.126
78255W        W49926   9.831  29.224   2.197
78256W        W49927   6.162  18.967  12.619
78257W        W49928  27.229   8.235   4.049
78258W        W49929   3.450  24.632  14.377
78259W        W49930  24.534  23.695   0.991
78260W        W49931  26.363  40.061  14.379
78261W        W49932  28.351  12.082  13.958
78262W        W49933   8.446  25.552   5.000
78263W        W49934  23.905   9.138  10.776
78264W        W49935  30.592  33.013   4.554
78265W        W49936  16.036  40.027   1.696
78266W        W49937  27.662  43.430   3.213
78267W        W49938  26.517  12.554  12.445
78268W        W49939  12.824  35.067   2.374
78269W        W49940   0.210   6.589   0.476
78270W        W49941   9.918  11.879  12.530
78271W        W49942  19.822  24.639   3.253
78272W        W49943  33.692  37.006   2.186
78273W        W49944  10.468   7.674  13.483
78274W        W49945   9.752  13.556  12.526
78275W        W49946  23.265  18.196   1.915
78276W        W49947   9.312   6.844   4.207
78277W        W49948  42.795  34.048   1.569
78278W        W49949  16.665   8.182  14.291
78279W        W49950   2.697  16.527   4.562
78280W        W49951   4.387  42.457   4.323
78281W        W49952   8.155  21.673  11.602
78282W        W49953   6.972  34.860   2.490
78283W        W49954   6.426  22.454  11.041
78284W        W49955  24.934  17.089   4.254
78285W        W49956   2.722  39.324   2.827
78286W        W49957  34.522  16.051  12.004
78287W        W49958  13.295   4.360  14.986
78288W        W49959  40.522   6.289   2.776
78289W        W49960  26.980  22.495  11.858
78290W        W49961  16.819  29.662   3.260
78291W        W49962  40.048  30.095  14.356
78292W        W49963  35.885  34.524  14.122
78293W        W49964  34.831  40.400   2.739
78294W        W49965  19.744  12.121   4.619
78295W        W49966   8.795   8.475  14.424
78296W        W49967  38.940  13.653   3.840
78297W        W49968  40.031   9.736   1.589
78298W        W49969  12.264   9.391  11.131
78299W        W49970   2.264   3.362  10.298
78300W        W49971  15.849  43.186   2.145
78301W        W49972  42.797  16.501   2.263
78302W        W49973  30.921  26.539  12.336
78303W        W49974   5.635  36.602  13.831
78304W        W49975   5.281  30.735   3.332
78305W        W49976  14.816  30.966   4.166
78306W        W49977   8.725  19.597   1.746
78307W        W49978  43.901  28.296   0.773
78308W        W49979  32.904  25.124   1.910
78309W        W49980  30.062  14.347   1.189
78310W        W49981  13.687  13.107   0.012
78311W        W49982  28.929  41.758  13.039
78312W        W49983   5.979  23.940  11.160
78313W        W49984  40.962  20.501   4.503
78314W        W49985  44.433  18.494   4.628
78315W        W49986  11.860   3.248  14.532
78316W        W49987  31.519  27.948  11.532
78317W        W49988  25.753  42.017  13.907
78318W        W49989  10.112  30.014  12.937
78319W        W49990  10.394  35.894  11.075
78320W        W49991   9.589  29.407   3.608
78321W        W49992  33.412  33.164  10.758
78322W        W49993   2.541   6.159   3.711
78323W        W49994  35.382  17.203  14.839
78324W        W49995  31.671   1.720  11.216
78325W        W49996  19.311  31.557   4.150
78326W        W49997  30.203   4.824   0.819
78327W        W49998  36.838  32.957   4.562
78328W        W49999  37.319  27.482   4.077
78329W        W50000  11.773  23.270   1.455
78330W        W50001  25.880  13.936  14.860
78331W        W50002  38.379  41.059   2.963
78332W        W50003  11.275  16.316  13.818
78333W        W50004  38.513  40.817  13.807
78334W        W50005  19.118   3.506   2.166
78335W        W50006  26.996  11.737  11.609
78336W        W50007  33.492  25.173  11.884
78337W        W50008  44.320  11.600  12.342
78338W        W50009  11.221  21.376   0.361
78339W        W50010  13.692   1.463  10.732
78340W        W50011  23.933  21.970  13.132
78341W        W50012  22.194  42.358   4.376
78342W        W50013  17.260  37.861   0.799
78343W        W50014  23.809  12.343   0.842
78344W        W50015  37.005  20.327  13.384
78345W        W50016   8.947  17.656  14.316
78346W        W50017   9.285   3.750   3.739
78347W        W50018  16.282  19.702   4.648
78348W        W50019  29.561  12.892  13.047
78349W        W50020  43.561  39.436   0.350
78350W        W50021  11.365  30.613   1.672
78351W        W50022  42.073  13.741  12.757
78352W        W50023   1.282  25.462  13.533
78353W        W50024  30.008  43.512   4.620
78354W        W50025   4.515   7.679   2.704
78355W        W50026  12.632  28.145   1.014
78356W        W50027  25.998  44.327   1.394
78357W        W50028  11.330   7.830   4.078
78358W        W50029   5.547   5.205  13.337
78359W        W50030  11.873   3.808  11.079
78360W        W50031   3.826   5.132   4.759
78361W        W50032  17.376  11.820  13.376
78362W        W50033  19.040   8.211  14.801
78363W        W50034   1.918  17.195   0.141
78364W        W50035  31.358  17.650  10.367
78365W        W50036  36.038  17.853  13.061
78366W        W50037  18.666  33.947  13.379
78367W        W50038   9.758  43.329  11.226
78368W        W50039   4.467   8.452  10.624
78369W        W50040  13.266  15.568   2.850
78370W        W50041   7.135   7.615  10.698
78371W        W50042   3.749  30.007  11.976
78372W        W50043   7.180  43.502  12.434
78373W        W50044  15.076  22.928   4.247
78374W        W50045  23.514   9.896   3.096
78375W        W50046   4.787  18.087   0.781
78376W        W50047  17.173  19.710   2.848
78377W        W50048   3.962  23.914  12.469
78378W        W50049  20.623  40.398  12.078
78379W        W50050   2.055  20.746   5.040
78380W        W50051  31.595  44.783   0.930
78381W        W50052   0.836  29.413  14.707
78382W        W50053  14.899  40.454  14.463
78383W        W50054  40.743  18.901  11.206
78384W        W50055  19.598  18.721   3.184
78385W        W50056   0.253  22.769  13.784
78386W        W50057  10.009  26.090   0.776
78387W        W50058  37.787   5.685  10.641
78388W        W50059  35.331  11.194  12.218
78389W        W50060  42.411   7.196   0.720
78390W        W50061   6.984  41.190   0.932
78391W        W50062   9.659  39.326   3.292
78392W        W50063   4.639  17.975   1.449
78393W        W50064   8.484   3.535   2.123
78394W        W50065  42.885   6.269   2.038
78395W        W50066  18.279  25.570  13.359
78396W        W50067  43.014  25.537  12.676
78397W        W50068  36.067  28.608   3.235
78398W        W50069  16.084   4.434  14.953
78399W        W50070  17.641  18.731  12.172
78400W        W50071   0.611  24.898  12.576
78401W        W50072  44.679  30.998  11.369
78402W        W50073  26.474  37.918   2.660
78403W        W50074  38.166  34.159  12.887
78404W        W50075   5.143  19.246  12.457
78405W        W50076  30.728   9.360   3.630
78406W        W50077  26.504   1.529  14.905
78407W        W50078  19.770  19.211   3.393
78408W        W50079  17.064  18.827  14.836
78409W        W50080  16.037  33.528   2.767
78410W        W50081  16.079  35.796   2.072
78411W        W50082  41.026  42.590   2.172
78412W        W50083  30.431  28.009  14.267
78413W        W50084  11.397  34.069   0.047
78414W        W50085  35.089  20.021   1.418
78415W        W50086  15.856  33.087   1.140
78416W        W50087  24.625  32.890  13.833
78417W        W50088  18.203  15.802   3.866
78418W        W50089   6.183  15.128   2.787
78419W        W50090  15.986  28.761  13.773
78420W        W50091   1.845  23.236  13.888
78421W        W50092  35.067  16.264   0.920
78422W        W50093  41.051   8.207  14.579
78423W        W50094  33.486  18.372   0.741
78424W        W50095   6.157   8.134   1.918
78425W        W50096   2.606  25.948  11.143
78426W        W50097  21.154  41.421   4.265
78427W        W50098  33.664  27.962  10.735
78428W        W50099   5.203  35.005  11.090
78429W        W50100   8.969  34.958  14.778
78430W        W50101   3.418  24.488   0.343
78431W        W50102  40.164  11.806   3.286
78432W        W50103  36.852  29.159  13.366
78433W        W50104  43.426  26.729   1.344
78434W        W50105   9.749  23.297   2.298
78435W        W50106  13.145  17.827   1.404
78436W        W50107   3.765  27.515   2.896
78437W        W50108   0.090  11.804   5.394
78438W        W50109  17.015  35.546  12.938
78439W        W50110  41.149  22.560   1.164
78440W        W50111  43.061  43.094  11.510
78441W        W50112  39.050  39.108  13.593
78442W        W50113  13.647  41.824  11.894
78443W        W50114   5.940  37.422   5.013
78444W        W50115  20.287   3.288   2.896
78445W        W50116  27.889  18.708   4.281
78446W        W50117  24.684  35.140  10.503
78447W        W50118  15.332  21.050  11.993
78448W        W50119  21.719  13.888   2.359
78449W        W50120  31.640   2.108  14.989
78450W        W50121  21.841  43.022  12.449
78451W        W50122  16.035   2.797  11.661
78452W        W50123   8.565  25.947  11.952
78453W        W50124   9.232  28.700  14.585
78454W        W50125  41.240  37.968   4.578
78455W        W50126  40.776  20.059  14.349
78456W        W50127  12.740  26.247   1.681
78457W        W50128  40.021  25.060   4.538
78458W        W50129   1.985   6.084  11.164
78459W        W50130  15.782  31.871   2.689
78460W        W50131   2.020   2.877   3.370
78461W        W50132  14.907  18.063   3.090
78462W        W50133   9.421  20.037  13.424
78463W        W50134  35.378  26.978   3.163
78464W        W50135  13.671   6.825   3.663
78465W        W50136   9.321  11.726   1.509
78466W        W50137   2.738  42.833  11.965
78467W        W50138  26.122  37.221  14.391
78468W        W50139  28.745  44.036   2.683
78469W        W50140  37.848   0.999   4.059
78470W        W50141   6.317  16.968   4.086
78471W        W50142  20.982  35.490  10.502
78472W        W50143  17.790   2.340  14.740
78473W        W50144  26.041   8.633  10.637
78474W        W50145   1.462   9.288  14.507
78475W        W50146  19.592  30.282  13.650
78476W        W50147  19.769  24.201  11.567
78477W        W50148  33.880  43.352  11.860
78478W        W50149   0.966   4.944  12.940
78479W        W50150  29.554  31.044  11.205
78480W        W50151   2.412   9.490   0.414
78481W        W50152  23.532   6.664   1.977
78482W        W50153  26.166  29.005  13.911
78483W        W50154  40.526   7.250   0.952
78484W        W50155   6.973  10.189  12.406
78485W        W50156  22.089  37.876   3.586
78486W        W50157   4.379  44.387  14.025
78487W        W50158   2.739  19.640  11.968
78488W        W50159   1.406   0.379   1.439
78489W        W50160  38.256  39.530  11.198
78490W        W50161   5.203  21.520   4.715
78491W        W50162  11.625   1.419  14.884
78492W        W50163  30.359  37.131   3.694
78493W        W50164   9.290  27.511   0.024
78494W        W50165  40.417  27.871   2.859
78495W        W50166   2.262   2.085  10.359
78496W        W50167   4.842   7.842   4.039
78497W        W50168   3.400  18.577   3.621
78498W        W50169  30.216  37.250  11.253
78499W        W50170   2.841  40.214  13.320
78500W        W50171  21.972  31.312   4.997
78501W        W50172   6.744  22.782  11.284
78502W        W50173  40.405   9.059  13.764
78503W        W50174  34.527  34.736   0.918
78504W        W50175   6.279  40.713  12.579
78505W        W50176  14.545  24.657   1.047
78506W        W50177   3.683   3.396  10.742
78507W        W50178  43.838  33.858  12.964
78508W        W50179  21.630   4.380   3.990
78509W        W50180   1.981  12.847   3.709
78510W        W50181  26.864  16.034  13.111
78511W        W50182  39.884  30.547   1.787
78512W        W50183  20.695  41.421   4.038
78513W        W50184  43.442  10.651   3.790
78514W        W50185   9.654  35.025  11.716
78515W        W50186  24.958   1.359   0.690
78516W        W50187   5.866  13.156   3.620
78517W        W50188  11.025   3.948  10.743
78518W        W50189  29.011   2.489   0.010
78519W        W50190  32.427   3.856  10.477
78520W        W50191  10.580  35.127  14.919
78521W        W50192  29.059   4.952   4.115
78522W        W50193  24.087  27.015   0.277
78523W        W50194  36.383  17.663   0.715
78524W        W50195  18.201  34.187  12.554
78525W        W50196  26.992  31.583   1.056
78526W        W50197  42.976  42.986  13.784
78527W        W50198  11.882  40.779   0.261
78528W        W50199  40.312   7.463   1.831
78529W        W50200   9.855  29.432   4.625
78530W        W50201  43.340  29.455   1.143
78531W        W50202  22.479  27.246   3.760
78532W        W50203  33.650   2.415  12.092
78533W        W50204   1.693  37.504   2.181
78534W        W50205  11.796  27.625  13.127
78535W        W50206  23.224  12.956   4.102
78536W        W50207  40.368  24.524  12.893
78537W        W50208   1.550  35.378   3.716
78538W        W50209  24.883  33.137   2.269
78539W        W50210  39.967   5.307   1.320
78540W        W50211   6.915  24.012   0.467
78541W        W50212  44.296  31.547  12.746
78542W        W50213  42.895   6.463   3.830
78543W        W50214  18.729  15.617  14.710
78544W        W50215  18.586  30.146   0.887
78545W        W50216   8.148  40.311  12.468
78546W        W50217  23.558  10.596   4.569
78547W        W50218  16.613   8.088  11.098
78548W        W50219   9.242  22.813   3.883
78549W        W50220   3.693  16.229  11.075
78550W        W50221   3.739   3.511   3.695
78551W        W50222  11.317  41.511  12.360
78552W        W50223  14.715  16.336   1.276
78553W        W50224   5.816  42.221  14.372
78554W        W50225   0.439  22.039   9.830
78555W        W50226  41.631  11.046  12.109
78556W        W50227  26.555   6.488   1.739
78557W        W50228  13.379  20.105   4.863
78558W        W50229   9.868   6.289   3.688
78559W        W50230   2.378   4.978  11.580
78560W        W50231  17.220   7.724  12.366
78561W        W50232  26.432  33.093   2.319
78562W        W50233  23.486  41.407   0.685
78563W        W50234  11.246  15.433  14.872
78564W        W50235  22.734  29.589  11.560
78565W        W50236   2.062  39.222  11.633
78566W        W50237   7.236   7.338   4.074
78567W        W50238  30.435  38.848  11.581
78568W        W50239  22.832  35.980  11.308
78569W        W50240  21.348  14.669  12.410
78570W        W50241  20.521  35.374  14.383
78571W        W50242   4.993  31.059   3.733
78572W        W50243  39.312   9.322  13.938
78573W        W50244  27.290  21.692  14.892
78574W        W50245   6.225  30.362  11.131
78575W        W50246   0.299  31.626   3.097
78576W        W50247  40.840   4.302  14.769
78577W        W50248  19.273  42.300  10.788
78578W        W50249  34.714   5.930   0.892
78579W        W50250  18.639  15.342  11.192
78580W        W50251   2.904  14.130  11.870
78581W        W50252  31.513  35.931   2.390
78582W        W50253  11.882  12.175  13.552
78583W        W50254  20.775   0.484  12.185
78584W        W50255  11.689   7.935   4.490
78585W        W50256   2.385  15.181  11.547
78586W        W50257  23.114  22.207   0.287
78587W        W50258  30.240  32.096  14.270
78588W        W50259  22.614   8.939  14.859
78589W        W50260  31.081   2.993   4.064
78590W        W50261  43.369  11.756  13.617
78591W        W50262  34.969   6.117  13.452
78592W        W50263  38.790  16.456  12.048
78593W        W50264  42.120   2.510  10.541
78594W        W50265  10.724  19.229   3.879
78595W        W50266  12.759   2.975   2.755
78596W        W50267  15.658  39.043   1.832
78597W        W50268   6.876  21.725   0.887
78598W        W50269  20.700   8.691   4.996
78599W        W50270  10.357  35.107   3.231
78600W        W50271  29.026   7.325   0.903
78601W        W50272   9.713   6.848   1.378
78602W        W50273  14.325   4.265  14.559
78603W        W50274  40.619  15.156   3.962
78604W        W50275  43.504  23.054  13.898
78605W        W50276  22.524  24.172  13.582
78606W        W50277  29.546  42.068   3.394
78607W        W50278  36.427  27.782   4.139
78608W        W50279  21.635  13.349   3.886
78609W        W50280  28.854   9.081   4.573
78610W        W50281  14.150  40.912   3.412
78611W        W50282  36.987  27.773  13.397
78612W        W50283  43.868  29.895   4.163
78613W        W50284  34.360  19.244  14.353
78614W        W50285  20.209  24.671   3.652
78615W        W50286  10.948  14.096   1.943
78616W        W50287  30.365  42.278  13.992
78617W        W50288  18.464  42.707  12.870
78618W        W50289   5.316  28.977  11.049
78619W        W50290   0.032  31.779   4.287
78620W        W50291  39.838  12.862   1.808
78621W        W50292  24.481  15.093   0.424
78622W        W50293   8.821  18.653  14.692
78623W        W50294  33.155  35.029  13.902
78624W        W50295  18.815  23.956   2.266
78625W        W50296  37.415  42.363  12.520
78626W        W50297  32.600  33.547  14.493
78627W        W50298  10.641  20.729   4.839
78628W        W50299  32.991  15.119   3.716
78629W        W50300  18.928   0.068   1.270
78630W        W50301  16.209   8.288  14.509
78631W        W50302  11.627  20.093   3.151
78632W        W50303  38.071  37.318   2.816
78633W        W50304  14.181  32.523  13.795
78634W        W50305   3.335  40.710   0.071
78635W        W50306  32.657  32.417   4.396
78636W        W50307  14.869  14.115  10.983
78637W        W50308  11.925  35.885   2.313
78638W        W50309   3.637  43.773   4.255
78639W        W50310  36.549   1.357  10.948
78640W        W50311  14.107  40.427  10.687
78641W        W50312   4.146  27.525  10.948
78642W        W50313  23.685  10.601   1.525
78643W        W50314   4.182   1.680   0.699
78644W        W50315  11.322  27.516   3.371
78645W        W50316  15.245   4.315  10.132
78646W        W50317  29.412  17.039   1.391
78647W        W50318  39.358  29.543   4.136
78648W        W50319  39.533  12.274   3.385
78649W        W50320  22.620  12.715  13.479
78650W        W50321  22.705  44.444  11.481
78651W        W50322  15.262  38.879   4.690
78652W        W50323  30.476   8.156  11.214
78653W        W50324  20.805  13.141   4.272
78654W        W50325  37.332   8.309   2.354
78655W        W50326  33.015  22.348  14.671
78656W        W50327  11.873  33.958   4.302
78657W        W50328  34.455   4.202   3.043
78658W        W50329  27.400  30.664   3.073
78659W        W50330   9.281   3.417   2.440
78660W        W50331   4.383  20.653  10.682
78661W        W50332  17.543  37.964   4.949
78662W        W50333  11.448  19.193   0.784
78663W        W50334  40.041   9.212   1.895
78664W        W50335  29.947  31.381  13.599
78665W        W50336  16.299  32.975  12.521
78666W        W50337  18.174   3.934  13.531
78667W        W50338  40.373  31.143  12.242
78668W        W50339  26.002  31.575   1.270
78669W        W50340  23.608  40.548  14.916
78670W        W50341  40.507  36.151  12.032
78671W        W50342  26.576   4.321  14.453
78672W        W50343   1.881  16.081  11.650
78673W        W50344  12.305   5.788  14.497
78674W        W50345  41.260  30.004  11.876
78675W        W50346  37.875  44.273   3.378
78676W        W50347  18.109  22.755  12.268
78677W        W50348   0.200   8.709  13.523
78678W        W50349  32.971  34.089   3.025
78679W        W50350  24.181  41.956   0.278
78680W        W50351  22.676   6.411  14.983
78681W        W50352  28.482  16.177  12.960
78682W        W50353   3.914  11.795  11.477
78683W        W50354   0.562  40.423   4.446
78684W        W50355  32.998   1.255  14.781
78685W        W50356  38.865  30.857  14.117
78686W        W50357  20.062   6.964   1.449
78687W        W50358   7.744  15.679   2.144
78688W        W50359  29.063  29.542   4.183
78689W        W50360  18.009  39.398  11.313
78690W        W50361  42.706  36.354  14.312
78691W        W50362  38.190  16.091   1.548
78692W        W50363   6.937  43.402  11.147
78693W        W50364  20.247  39.961   4.181
78694W        W50365   4.915  15.609  11.088
78695W        W50366   7.760  15.652   0.736
78696W        W50367  17.587  10.899   0.896
78697W        W50368  11.607  40.978  14.324
78698W        W50369  22.024   7.694   3.191
78699W        W50370  26.497  32.576   4.619
78700W        W50371  33.029  38.481   1.390
78701W        W50372  20.302  25.526   3.259
78702W        W50373  40.858   3.362   3.713
78703W        W50374   9.220   1.436   1.012
78704W        W50375  25.984  36.110  13.449
78705W        W50376  19.122  16.164   4.177
78706W        W50377  26.421  37.858   3.554
78707W        W50378  27.547  35.577   2.250
78708W        W50379  10.554  33.333   0.024
78709W        W50380   3.345  40.501   0.577
78710W        W50381  17.076   7.106   3.283
78711W        W50382  37.482  38.920   3.353
78712W        W50383   8.378  40.054  12.061
78713W        W50384  24.826  38.942   0.793
78714W        W50385  29.680   4.317  12.651
78715W        W50386  28.383   4.821  12.103
78716W        W50387  15.489  43.313  11.285
78717W        W50388  24.681  36.327   0.801
78718W        W50389   3.875  25.556   0.367
78719W        W50390  37.544  34.232  10.653
78720W        W50391  32.099   4.937   3.335
78721W        W50392  21.664  11.294  11.938
78722W        W50393  31.532  26.681   4.161
78723W        W50394   8.629   9.763   2.602
78724W        W50395  28.746  23.504   0.657
78725W        W50396  27.140  40.902   3.883
78726W        W50397  13.263  37.836   4.036
78727W        W50398   2.550  44.431  13.927
78728W        W50399  17.237  13.410  12.098
78729W        W50400  10.413   2.692   1.327
78730W        W50401  13.707  22.489  13.999
78731W        W50402  23.600   5.253  14.694
78732W        W50403   4.406   1.338  14.425
78733W        W50404  40.303  14.370   4.239
78734W        W50405  44.962  28.734   0.780
78735W        W50406  38.941  27.171  11.725
78736W        W50407  17.694  17.874   0.848
78737W        W50408  30.185   1.151  12.810
78738W        W50409  25.589   7.793  14.133
78739W        W50410   3.214  17.410   0.179
78740W        W50411   9.311  42.857  11.819
78741W        W50412  37.413  39.826   4.442
78742W        W50413  22.730   3.658  11.098
78743W        W50414   5.677  27.441   4.579
78744W        W50415  10.405  31.460   2.679
78745W        W50416  37.344   6.856   2.936
78746W        W50417  29.465  27.053   1.324
78747W        W50418  29.601  40.818   1.065
78748W        W50419  28.703  31.549  14.860
78749W        W50420  15.212  15.286   1.746
78750W        W50421  38.397  20.724   4.642
78751W        W50422   1.383   0.898   4.120
78752W        W50423   3.934   4.301   1.864
78753W        W50424  32.406  18.730  13.816
78754W        W50425  13.882   0.453  10.749
78755W        W50426  26.340  15.578  12.493
78756W        W50427  13.568   0.810  11.156
78757W        W50428   1.753  16.163  12.951
78758W        W50429   8.832  11.145  14.319
78759W        W50430  11.686  12.147  14.506
78760W        W50431   7.892  11.883  11.961
78761W        W50432  12.846  13.757   3.893
78762W        W50433   1.944  21.994  13.818
78763W        W50434  12.203   0.697   2.625
78764W        W50435  14.066  25.905   2.794
78765W        W50436  33.669  22.310  11.657
78766W        W50437  14.133  40.024   2.726
78767W        W50438  20.428  13.984   2.797
78768W        W50439   9.963  38.580  11.508
78769W        W50440  29.512   5.448  14.237
78770W        W50441  18.844  18.132   0.822
78771W        W50442  26.134  26.969  14.705
78772W        W50443  11.768  22.104   4.538
78773W        W50444  35.407  29.683   0.231
78774W        W50445  20.003  16.642  11.819
78775W        W50446  22.528  43.832   4.640
78776W        W50447  42.068  17.979   4.889
78777W        W50448  37.182   1.693  10.350
78778W        W50449  16.732  28.947   4.686
78779W        W50450  25.854  42.549   4.933
78780W        W50451  24.111  43.941   1.856
78781W        W50452  17.224  15.395   4.710
78782W        W50453  11.677  10.786   0.273
78783W        W50454  18.208  12.527   2.131
78784W        W50455  24.708  26.675   4.162
78785W        W50456  26.480  38.985  10.734
78786W        W50457  40.478  31.399  12.699
78787W        W50458  43.102  28.520  11.085
78788W        W50459  39.969  12.149   0.450
78789W        W50460  10.585   9.226  14.779
78790W        W50461  37.033  35.994  11.565
78791W        W50462  23.919  27.679   3.714
78792W        W50463  39.083  10.161   0.427
78793W        W50464  16.371  37.487  10.698
78794W        W50465  33.005   6.847  13.018
78795W        W50466   6.758  16.137   2.300
78796W        W50467  40.041  22.015  13.479
78797W        W50468   1.222  20.499  10.583
78798W        W50469  25.283  38.488  14.804
78799W        W50470  21.418  26.979  10.531
78800W        W50471  28.563  14.812   2.162
78801W        W50472  30.861  13.664  12.517
78802W        W50473  21.902   1.351  10.469
78803W        W50474  11.323   1.013  14.425
78804W        W50475  24.057  22.487  12.091
78805W        W50476   1.005  30.551   3.783
78806W        W50477  39.192  20.089   0.278
78807W        W50478   1.686  20.011   3.291
78808W        W50479  37.839  32.705  12.052
78809W        W50480  30.434   2.005  12.596
78810W        W50481   5.378  28.366   1.911
78811W        W50482  17.917   8.116  11.892
78812W        W50483  14.786  18.554   1.663
78813W        W50484   5.293  17.152   4.153
78814W        W50485  37.083   8.360   3.234
78815W        W50486   2.236  39.152   2.733
78816W        W50487  38.274  28.580   4.174
78817W        W50488  33.000  38.098  13.993
78818W        W50489  27.595  16.628  13.955
78819W        W50490   2.990  16.088   1.740
78820W        W50491  32.433  11.321  12.846
78821W        W50492  15.355   8.958   1.832
78822W        W50493  37.145  10.786   3.390
78823W        W50494  14.806  24.606   2.093
78824W        W50495  27.292  35.925  12.003
78825W        W50496   6.893  39.451   4.528
78826W        W50497  37.047  36.773  14.955
78827W        W50498  17.102  12.728  10.698
78828W        W50499  38.396   9.230   2.723
78829W        W50500  44.686  42.998   2.020
78830W        W50501  18.274  15.860   2.266
78831W        W50502  22.767  13.507  12.570
78832W        W50503  34.671   2.451   1.745
78833W        W50504   9.890  15.758   0.959
78834W        W50505  14.255  38.858   0.763
78835W        W50506  44.945   5.232  11.600
78836W        W50507   8.852  23.254  13.314
78837W        W50508   5.815  38.116  12.925
78838W        W50509  34.825  12.759   3.184
78839W        W50510  41.420  27.689   4.897
78840W        W50511   6.207  43.486  12.519
78841W        W50512  33.528   0.549   3.295
78842W        W50513   8.865  37.231   3.727
78843W        W50514   6.817   9.802  10.725
78844W        W50515  12.604  37.916  14.840
78845W        W50516   5.657  18.940   3.882
78846W        W50517  31.472   5.955  14.947
78847W        W50518  36.313  15.646  14.395
78848W        W50519   3.473   9.622   2.678
78849W        W50520  28.061  40.949   3.279
78850W        W50521  26.412   8.883   4.950
78851W        W50522   1.296  10.905   2.229
78852W        W50523  39.465  28.429  12.147
78853W        W50524  12.893  17.874  13.273
78854W        W50525   4.207  30.803   2.889
78855W        W50526  31.398  20.003   2.244
78856W        W50527  40.500   1.017  10.434
78857W        W50528  15.194  26.478   1.333
78858W        W50529   2.803   5.995  11.667
78859W        W50530  39.778  32.829  14.911
78860W        W50531  39.735  30.043   3.699
78861W        W50532  21.993   2.066  14.958
78862W        W50533  32.781  16.048  13.476
78863W        W50534  14.233  24.151  11.193
78864W        W50535  12.916  26.425   2.425
78865W        W50536  29.101   5.530  12.803
78866W        W50537  11.111  12.683   1.651
78867W        W50538  21.770  12.339  13.339
78868W        W50539  13.163   1.934  14.369
78869W        W50540  22.024  28.734   0.754
78870W        W50541  36.005  30.997  12.154
78871W        W50542  35.330  24.473  10.740
78872W        W50543  41.968  34.419  11.619
78873W        W50544  35.619  20.057   3.575
78874W        W50545  12.705   1.360  13.832
78875W        W50546  13.842  28.212  12.710
78876W        W50547  29.448  15.617  12.593
78877W        W50548  11.390  38.312   0.830
78878W        W50549  34.375  30.995  14.423
78879W        W50550  20.693  37.333   3.964
78880W        W50551  12.389  42.597  11.014
78881W        W50552  33.395   8.661  14.935
78882W        W50553  40.503  39.342   2.440
78883W        W50554  35.538  13.803   1.277
78884W        W50555  36.430  40.308  10.213
78885W        W50556  35.531  24.516   1.756
78886W        W50557  11.710  14.414   0.856
78887W        W50558  26.180  32.463  12.028
78888W        W50559  15.112  40.510  10.637
78889W        W50560  29.937  31.364  11.514
78890W        W50561  33.148  35.468  10.525
78891W        W50562  34.880  21.157  11.550
78892W        W50563  19.564  34.606  13.944
78893W        W50564  19.286  25.379  11.085
78894W        W50565  26.407  32.411  10.904
78895W        W50566  36.826   6.825   3.667
78896W        W50567  14.764  40.865   0.665
78897W        W50568   5.208  44.124  10.418
78898W        W50569   4.662   0.268  14.108
78899W        W50570   5.098  33.945  14.584
78900W        W50571  11.768  34.623  13.495
78901W        W50572  38.420  20.273   0.276
78902W        W50573   2.234  33.901  11.149
78903W        W50574  12.758  30.087  10.693
78904W        W50575   3.506   8.804  14.953
78905W        W50576  16.267  24.766  11.954
78906W        W50577   1.731  22.636   2.465
78907W        W50578  30.430  35.802  10.759
78908W        W50579  36.934  13.806  12.624
78909W        W50580  41.437  18.072   2.201
78910W        W50581  23.983  15.752   4.960
78911W        W50582  24.202  14.910  13.799
78912W        W50583  34.153   9.384  12.152
78913W        W50584  25.953  24.499  10.677
78914W        W50585  37.865  43.930   4.758
78915W        W50586  21.178  32.846   4.647
78916W        W50587  19.728   4.227   2.702
78917W        W50588   2.822  34.053   0.385
78918W        W50589  14.577   2.829   3.081
78919W        W50590  33.522  36.031   0.294
78920W        W50591  21.748  13.685  12.626
78921W        W50592  40.936   1.195   4.320
78922W        W50593  34.562  24.544   4.630
78923W        W50594  33.112  24.094  11.810
78924W        W50595  19.143  23.523  14.418
78925W        W50596  10.059   8.671   4.206
78926W        W50597  26.025  41.597  12.083
78927W        W50598   4.370  30.989   3.613
78928W        W50599  38.279   0.738  14.006
78929W        W50600  15.743   7.147   4.532
78930W        W50601  21.315  12.427   3.300
78931W        W50602  31.695  13.276   2.009
78932W        W50603  31.045  37.398   0.645
78933W        W50604  33.478  10.441   0.466
78934W        W50605  35.773  26.542  13.899
78935W        W50606  39.886  37.866  13.235
78936W        W50607  40.760  44.856   0.956
78937W        W50608  27.635   0.173   1.840
78938W        W50609   8.499  36.816   3.713
78939W        W50610   2.286  39.639  14.401
78940W        W50611  37.467  36.689   2.701
78941W        W50612  38.740  13.477   2.852
78942W        W50613  24.670  20.053  13.869
78943W        W50614  16.991  19.851  14.821
78944W        W50615   6.252   0.778   1.008
78945W        W50616  17.755  36.320   3.794
78946W        W50617  16.110  31.553  10.777
78947W        W50618  22.738   6.194   3.327
78948W        W50619   2.631  38.821   2.709
78949W        W50620  22.591  27.432  10.672
78950W        W50621  39.740  28.845   1.416
78951W        W50622   5.661  27.617  12.600
78952W        W50623   4.535   0.066  12.615
78953W        W50624  26.688  28.401   0.061
78954W        W50625  28.350  15.243   4.636
78955W        W50626  40.035   4.492  13.076
78956W        W50627   6.148  36.733  13.129
78957W        W50628  15.810  18.262  13.369
78958W        W50629  11.433  16.290   4.004
78959W        W50630  41.578  40.912   1.727
78960W        W50631  27.171  15.325   2.841
78961W        W50632  19.002  39.291   1.001
78962W        W50633  11.146  31.675  14.912
78963W        W50634  23.676  15.092   3.766
78964W        W50635   2.797  42.945  14.502
78965W        W50636   0.878  32.414   0.031
78966W        W50637  39.418  24.828  11.067
78967W        W50638  18.036  21.659  11.437
78968W        W50639  36.530  10.071   5.132
78969W        W50640  19.126  24.491   5.148
78970W        W50641   8.659  35.878  13.342
78971W        W50642  43.361  25.477   0.774
78972W        W50643  42.872   8.374  14.403
78973W        W50644  35.555   7.686   2.318
78974W        W50645  13.732  12.596   0.201
78975W        W50646  43.077  22.535  10.699
78976W        W50647  18.721  43.992  12.383
78977W        W50648  36.983   5.470  12.437
78978W        W50649  26.546  16.309  14.465
78979W        W50650  30.296  10.079   0.259
78980W        W50651  21.097  19.490  11.833
78981W        W50652  25.419  35.641  14.862
78982W        W50653  28.612  30.581  12.942
78983W        W50654  11.412  32.510   1.889
78984W        W50655  20.510  15.528  14.520
78985W        W50656  10.341  43.672  12.153
78986W        W50657  32.644   3.445   4.536
78987W        W50658  38.873  15.452  13.682
78988W        W50659  43.929  28.481   1.260
78989W        W50660  16.824  35.029   1.360
78990W        W50661   6.728   5.153   0.857
78991W        W50662  16.602  24.014   0.740
78992W        W50663  16.707  12.892   2.733
78993W        W50664  37.827  39.626   3.671
78994W        W50665  20.828  25.588  12.637
78995W        W50666  40.117   2.264  11.658
78996W        W50667  30.111  25.547   2.817
78997W        W50668  32.390  32.610  13.600
78998W        W50669   3.328  32.955   3.204
78999W        W50670  26.819  11.247  11.681
79000W        W50671   8.419  16.799  14.819
79001W        W50672  39.162  13.897   4.237
79002W        W50673   4.936  43.562   0.360
79003W        W50674  38.013  15.667  14.743
79004W        W50675  17.679  13.888   2.646
79005W        W50676   7.591  18.570  13.380
79006W        W50677  13.274  36.433  13.157
79007W        W50678  14.342  11.186   4.181
79008W        W50679  28.145  31.435   3.497
79009W        W50680  16.308  13.772  13.865
79010W        W50681  21.161  12.327  13.832
79011W        W50682  14.769  16.464  12.612
79012W        W50683  21.434  23.164  14.033
79013W        W50684  15.611  40.160  14.931
79014W        W50685   1.030  44.761  12.586
79015W        W50686  18.863  16.774  12.512
79016W        W50687  18.329  20.315   2.942
79017W        W50688  34.648  19.520   0.552
79018W        W50689   8.453  28.479  12.384
79019W        W50690  25.581   7.288   3.265
79020W        W50691  22.063  10.403   4.615
79021W        W50692  42.729  35.848   0.804
79022W        W50693  10.247   9.348   2.358
79023W        W50694  31.033  30.437  12.048
79024W        W50695   2.468  26.691  12.931
79025W        W50696  30.941  44.243  10.558
79026W        W50697  14.505  42.887   1.912
79027W        W50698  38.971  15.350  10.748
79028W        W50699  21.237  15.032   4.954
79029W        W50700  11.559   0.868  14.873
79030W        W50701  11.856  21.447   0.795
79031W        W50702  15.868  30.468  14.814
79032W        W50703  24.472   7.157   0.264
79033W        W50704   4.684  39.806   1.360
79034W        W50705  37.736  43.159  14.501
79035W        W50706  33.331  13.365  13.654
79036W        W50707  34.525  19.067   0.786
79037W        W50708  19.099  42.053   4.189
79038W        W50709  26.064  17.050  11.580
79039W        W50710  24.574  25.519  10.687
79040W        W50711  42.757  20.595  14.420
79041W        W50712   6.347   4.349  14.356
79042W        W50713  20.689  30.451   0.938
79043W        W50714  33.248  34.138  12.510
79044W        W50715  40.862  17.788  14.991
79045W        W50716  23.107  34.317  12.025
79046W        W50717  10.770  22.697  13.341
79047W        W50718  17.257   1.184  10.458
79048W        W50719   8.722  37.387  10.607
79049W        W50720  29.472   0.251  12.059
79050W        W50721   8.957  12.384   3.434
79051W        W50722  22.627  25.042   1.836
79052W        W50723  21.154   4.313  12.093
79053W        W50724  10.742  39.159  13.637
79054W        W50725  36.954  40.372  12.345
79055W        W50726  30.080  21.729  13.112
79056W        W50727  32.784  28.532   2.256
79057W        W50728  19.162   1.283  13.736
79058W        W50729  21.271   4.209  12.595
79059W        W50730  37.076  27.617   4.972
79060W        W50731  35.922  26.406   3.893
79061W        W50732   3.224  33.688   4.127
79062W        W50733   3.016  10.601  12.776
79063W        W50734  10.912  23.109   4.625
79064W        W50735  32.975  28.067   3.603
79065W        W50736  27.021  15.238   0.471
79066W        W50737  43.521  31.461  13.928
79067W        W50738   0.698  29.073   0.537
79068W        W50739   2.449  19.199  13.947
79069W        W50740  39.910   2.505  14.535
79070W        W50741  31.671  28.167  11.103
79071W        W50742   6.791   2.556  14.048
79072W        W50743   9.107  32.411  14.526
79073W        W50744  39.530  36.783  11.177
79074W        W50745  30.183   5.470  13.887
79075W        W50746   7.100  23.963  12.970
79076W        W50747  20.517  44.776   0.383
79077W        W50748  10.049  34.288  14.008
79078W        W50749   6.273  32.385   3.713
79079W        W50750   0.070   3.141  13.966
79080W        W50751  41.979  38.832  14.845
79081W        W50752  38.954  24.098   1.827
79082W        W50753  37.537  34.139   0.003
79083W        W50754  13.880  31.252  10.314
79084W        W50755  11.790  44.826   4.103
79085W        W50756  24.568  19.975  10.564
79086W        W50757   3.400  19.329  13.711
79087W        W50758  32.791  33.891   4.823
79088W        W50759  18.551   5.128   1.792
79089W        W50760  27.515   0.406  13.466
79090W        W50761  10.845   5.923   1.221
79091W        W50762   3.451  19.489   1.371
79092W        W50763   4.097  12.610   3.433
79093W        W50764  15.039  32.300   2.657
79094W        W50765  23.243  25.190   4.615
79095W        W50766  15.181  33.735  13.401
79096W        W50767  42.933  17.340  11.473
79097W        W50768  22.094  21.667   4.202
79098W        W50769  24.686  23.084   1.548
79099W        W50770  22.891  28.285  10.790
79100W        W50771  28.058  13.914  10.565
79101W        W50772  40.407  36.672  10.721
79102W        W50773  22.899  14.576   0.455
79103W        W50774   0.531   6.829  11.613
79104W        W50775  25.269  27.903   2.044
79105W        W50776  18.047  14.704  11.480
79106W        W50777  42.352  25.888  13.873
79107W        W50778  30.966  38.452   0.803
79108W        W50779   1.383  22.538  14.286
79109W        W50780  23.334  21.985  11.077
79110W        W50781   7.049   8.020   2.388
79111W        W50782  20.877   2.766   2.387
79112W        W50783  28.719   8.265   4.798
79113W        W50784   4.314  29.602   2.349
79114W        W50785  38.805   7.237   1.968
79115W        W50786  26.106  25.580  12.410
79116W        W50787  21.976  36.121  11.183
79117W        W50788  23.162  35.561  10.789
79118W        W50789  44.238  42.962   3.176
79119W        W50790  20.729  37.254   4.888
79120W        W50791  29.793  27.064  13.517
79121W        W50792  43.050  25.520  11.636
79122W        W50793  32.468  37.369   3.416
79123W        W50794  19.342  11.337   2.858
79124W        W50795  24.697  13.519   0.886
79125W        W50796  11.928  13.563   0.451
79126W        W50797  23.485  26.108  11.165
79127W        W50798  39.910   8.890  13.583
79128W        W50799  17.862  30.406  12.070
79129W        W50800  36.482  38.808   3.711
79130W        W50801  44.653   4.280  10.305
79131W        W50802  13.693  34.339  11.530
79132W        W50803  12.292  21.539  11.635
79133W        W50804  13.143   0.489   4.678
79134W        W50805  41.331  24.056   2.273
79135W        W50806  36.894  28.893  12.379
79136W        W50807  12.102  10.878   1.866
79137W        W50808  44.519   2.709   4.422
79138W        W50809   3.975  29.046   1.886
79139W        W50810  24.484  42.836  11.500
79140W        W50811   6.509  38.989  11.949
79141W        W50812  15.343  12.302  11.714
79142W        W50813   5.783  37.337  13.330
79143W        W50814  36.020  32.852  12.610
79144W        W50815  43.465  32.225  12.381
79145W        W50816  29.010  28.463  11.579
79146W        W50817  41.332   2.935   2.687
79147W        W50818  18.146   4.831  12.620
79148W        W50819  16.686  24.242  12.559
79149W        W50820  20.140   3.857   1.224
79150W        W50821  21.755  26.627  12.063
79151W        W50822  28.403  20.441   4.425
79152W        W50823  39.413  24.067   3.629
79153W        W50824   4.236  43.277  12.732
79154W        W50825  29.080  24.247  12.955
79155W        W50826  14.590  21.595   4.571
79156W        W50827  26.172  23.056   4.355
79157W        W50828  26.090  42.033   0.200
79158W        W50829  17.783  28.268   2.252
79159W        W50830   4.726  29.913   4.487
79160W        W50831   0.815  22.446   1.935
79161W        W50832   8.338  11.279  10.655
79162W        W50833  16.320   9.495   0.612
79163W        W50834  19.121  14.692  11.570
79164W        W50835  30.523  10.902  13.314
79165W        W50836   5.709  34.907   3.259
79166W        W50837   6.207  37.220  14.443
79167W        W50838  44.719  30.005   0.246
79168W        W50839  26.661  25.260  13.393
79169W        W50840  23.508  25.008   3.143
79170W        W50841  42.428  28.953  13.806
79171W        W50842  44.862  13.092   0.931
79172W        W50843  18.014  12.714   3.099
79173W        W50844  24.205   8.619  12.983
79174W        W50845  18.856  21.054   4.316
79175W        W50846   4.224  10.468   4.351
79176W        W50847  42.824  25.375  14.463
79177W        W50848   4.947  24.434  11.042
79178W        W50849  36.454  31.472  12.908
79179W        W50850  37.810  22.093   3.679
79180W        W50851  21.588  34.704  11.650
79181W        W50852  13.766  23.956   4.728
79182W        W50853  10.335  15.690  13.504
79183W        W50854  14.113  39.098   3.599
79184W        W50855  10.907  37.928   3.343
79185W        W50856  21.838  15.125  12.124
79186W        W50857  10.227  20.976   1.482
79187W        W50858  40.632  29.668  10.986
79188W        W50859  44.801  21.941   4.794
79189W        W50860  15.395  33.480   5.102
79190W        W50861  11.687  21.473   3.358
79191W        W50862   4.416   6.915   4.273
79192W        W50863  34.939  18.681   1.359
79193W        W50864   2.344  43.237  10.664
79194W        W50865  17.583  24.222   3.608
79195W        W50866  16.066  14.366   1.565
79196W        W50867   3.359   3.158   0.516
79197W        W50868  13.609  24.896   3.770
79198W        W50869  33.090  20.063   0.418
79199W        W50870  20.012  39.848  12.522
79200W        W50871  39.836  42.994  10.714
79201W        W50872  33.628  10.780  10.792
79202W        W50873  37.822   6.698  12.828
79203W        W50874  36.496   9.138   0.370
79204W        W50875   5.427   6.006   1.743
79205W        W50876  21.885  27.285  14.664
79206W        W50877  31.363  30.945  14.785
79207W        W50878  41.590   1.025  11.708
79208W        W50879  30.545  23.379   3.610
79209W        W50880  16.554  25.709   3.317
79210W        W50881  38.386   5.226   2.633
79211W        W50882  41.122   0.882   0.039
79212W        W50883   8.893  21.984   3.706
79213W        W50884  40.037   8.191   4.524
79214W        W50885  25.187   4.877  11.190
79215W        W50886  27.435   4.492  12.013
79216W        W50887  35.316   5.389  12.965
79217W        W50888   5.397  11.288  13.611
79218W        W50889   1.918   8.290  11.650
79219W        W50890   1.974   3.270   1.202
79220W        W50891  20.603  34.114   1.592
79221W        W50892  20.523  13.775   3.274
79222W        W50893  10.157  19.975   2.268
79223W        W50894  43.240  25.570  14.730
79224W        W50895  14.971  20.794  13.700
79225W        W50896  35.551   9.261   1.459
79226W        W50897  25.182  41.842   5.104
79227W        W50898  22.951   4.020   4.152
79228W        W50899  29.046  22.586  12.168
79229W        W50900  42.674  25.070   1.713
79230W        W50901   7.502  20.067  14.058
79231W        W50902  29.472  11.763  12.879
79232W        W50903  13.625  38.839  11.710
79233W        W50904  20.282   2.866   3.237
79234W        W50905  18.928  18.484   2.307
79235W        W50906   9.752   1.903   4.611
79236W        W50907  41.975  39.782  11.471
79237W        W50908  11.351   6.996   3.500
79238W        W50909  23.991  41.587  12.957
79239W        W50910  20.657  24.654  13.511
79240W        W50911  27.608   8.675   0.890
79241W        W50912   8.801  14.540  10.681
79242W        W50913   4.513  13.337  11.786
79243W        W50914   8.852  16.233   0.416
79244W        W50915  36.601   4.800   3.731
79245W        W50916   3.203   1.049   0.419
79246W        W50917  21.721  13.015   0.482
79247W        W50918  44.785   1.504   0.361
79248W        W50919  10.864   5.716  11.537
79249W        W50920  42.527   0.683   2.248
79250W        W50921  35.438   3.405  10.244
79251W        W50922  43.837  19.500  13.269
79252W        W50923  32.479   2.729   4.261
79253W        W50924  38.329  41.319  13.848
79254W        W50925  42.535  10.140  13.921
79255W        W50926  32.029  39.449  13.365
79256W        W50927  17.473   4.768   5.236
79257W        W50928  11.930   9.334   2.775
79258W        W50929   5.595  27.452   0.925
79259W        W50930   5.180  43.814   3.413
79260W        W50931  13.823  25.647   1.365
79261W        W50932  11.209  14.847   3.170
79262W        W50933  32.494   0.954   1.504
79263W        W50934  32.426  16.916  13.637
79264W        W50935  42.234  30.450   0.843
79265W        W50936  30.111  22.033   3.232
79266W        W50937  10.254  13.552   3.757
79267W        W50938   5.258  14.659   4.914
79268W        W50939  32.380  33.942   0.802
79269W        W50940   2.314   7.338   4.670
79270W        W50941  13.414   2.800  14.401
79271W        W50942  39.481  35.470   2.399
79272W        W50943   5.115  43.497  11.501
79273W        W50944   9.409  22.906  12.626
79274W        W50945  32.413  23.609  14.485
79275W        W50946  28.637  11.262   3.795
79276W        W50947   7.994   7.175   3.177
79277W        W50948  40.474   6.447   1.912
79278W        W50949  41.531  44.906   3.069
79279W        W50950  30.368  43.770   0.693
79280W        W50951  33.548  10.388   0.982
79281W        W50952   9.897   5.355  12.911
79282W        W50953   8.244   4.188  10.486
79283W        W50954  11.162  26.215  14.840
79284W        W50955   2.020  32.897   3.121
79285W        W50956   3.834  18.803   2.256
79286W        W50957  26.049  22.969  10.742
79287W        W50958   5.487  15.261  12.057
79288W        W50959  28.142   3.634   2.750
79289W        W50960  14.073  19.214  10.337
79290W        W50961  35.475  42.881   0.952
79291W        W50962  14.887  14.782  14.276
79292W        W50963   0.882  11.738   2.739
79293W        W50964   2.409  37.384  14.333
79294W        W50965  23.761  22.860   0.280
79295W        W50966  16.089  24.587   1.434
79296W        W50967   3.460  25.119  11.187
79297W        W50968  18.014   0.077   1.617
79298W        W50969   0.712  44.936  10.691
79299W        W50970   8.384  18.742   0.429
79300W        W50971  13.060  30.925  12.462
79301W        W50972  36.186  15.011  14.829
79302W        W50973  42.606  35.925   2.694
79303W        W50974  21.119  15.632   4.724
79304W        W50975   2.441  37.316   3.233
79305W        W50976  19.131  20.005   0.357
79306W        W50977  31.620  20.912   4.659
79307W        W50978   6.841   7.567   1.258
79308W        W50979  43.665  41.886  12.475
79309W        W50980  14.852  29.083   2.965
79310W        W50981  17.540   1.567   3.968
79311W        W50982   8.384  17.609  14.313
79312W        W50983  34.018  15.847   4.874
79313W        W50984  18.371   7.254   3.677
79314W        W50985  21.560  10.668  12.281
79315W        W50986  20.080   0.250  10.688
79316W        W50987   6.131  27.778  12.440
79317W        W50988  10.371  26.515  11.000
79318W        W50989  20.655  18.471  13.923
79319W        W50990  33.552  22.475  11.188
79320W        W50991   9.161  31.607  14.070
79321W        W50992  33.690  26.242   5.071
79322W        W50993  31.475  27.445  12.406
79323W        W50994  10.291   7.272   2.029
79324W        W50995  11.769   9.112   0.797
79325W        W50996  26.574  38.691   0.964
79326W        W50997  18.620  30.091  11.851
79327W        W50998  35.628  26.722   4.645
79328W        W50999  41.378   1.883   0.822
79329W        W51000   5.450  11.624   1.496
79330W        W51001  29.897  41.528   1.804
79331W        W51002  31.467  15.694  13.960
79332W        W51003  28.638   4.929   3.789
79333W        W51004  16.029  17.055   1.690
79334W        W51005   6.766  34.863  13.398
79335W        W51006  39.787  13.825  13.032
79336W        W51007  24.707  25.803  12.579
79337W        W51008  20.425  44.110   1.306
79338W        W51009   4.809  18.572  13.047
79339W        W51010  22.169  29.184  13.977
79340W        W51011  15.237  16.704  11.517
79341W        W51012   7.492  42.925   3.534
79342W        W51013   1.023  12.224   2.398
79343W        W51014  44.743   7.949  13.765
79344W        W51015  22.741   4.687  14.196
79345W        W51016  39.472  31.533   4.646
79346W        W51017  22.153  28.927  11.628
79347W        W51018  17.469   0.865   3.698
79348W        W51019   0.361  31.394   3.558
79349W        W51020   3.408  33.849  10.570
79350W        W51021  37.001  39.578   1.743
79351W        W51022  40.709  27.544   0.432
79352W        W51023  31.358  30.668  11.536
79353W        W51024  37.445  35.899   3.107
79354W        W51025  36.899  42.791   1.329
79355W        W51026  20.291  28.389  10.646
79356W        W51027  20.550  11.767   2.287
79357W        W51028  19.788  24.439   4.567
79358W        W51029  15.287  21.636   4.516
79359W        W51030  16.670  21.497  14.584
79360W        W51031  41.489  13.725  14.024
79361W        W51032  35.482   2.342  12.130
79362W        W51033  31.042  21.607   0.753
79363W        W51034  19.196  12.159  11.864
79364W        W51035  11.109  28.131  10.226
79365W        W51036  43.798   4.685  14.171
79366W        W51037  28.460   5.940   3.573
79367W        W51038  28.253  25.162  13.457
79368W        W51039  29.974  14.257   0.682
79369W        W51040  35.031  24.154   0.155
79370W        W51041   8.737  29.714   0.844
79371W        W51042  29.153  33.553   3.056
79372W        W51043  35.539  35.917  14.540
79373W        W51044  39.520  44.772  13.031
79374W        W51045  24.724  12.625   0.343
79375W        W51046  35.852  41.883  12.620
79376W        W51047  27.115  38.771  14.840
79377W        W51048  40.997  25.054   4.589
79378W        W51049  14.363  19.764  14.203
79379W        W51050   8.934  19.553  14.022
79380W        W51051  21.722  32.193   2.798
79381W        W51052   9.980  44.947   3.586
79382W        W51053   5.602  33.924  14.458
79383W        W51054   0.300  25.909  11.602
79384W        W51055  42.203  18.416   4.244
79385W        W51056  33.412  38.792   3.167
79386W        W51057  21.154  43.033   0.897
79387W        W51058  41.341  33.864  13.594
79388W        W51059  31.108  41.360  10.340
79389W        W51060  25.020  24.987  11.099
79390W        W51061  12.569   2.243  11.660
79391W        W51062  23.947  43.417   3.430
79392W        W51063  17.741  17.329   2.290
79393W        W51064  25.240  32.550  14.345
79394W        W51065   3.185   7.009   4.369
79395W        W51066  44.802  26.824   1.011
79396W        W51067  18.230  21.034  10.560
79397W        W51068  18.531  41.512   2.886
79398W        W51069   1.928  42.801   3.232
79399W        W51070  36.581  13.834   4.625
79400W        W51071  37.711  20.483  14.516
79401W        W51072  36.546  22.284  12.607
79402W        W51073  22.779   4.718  11.034
79403W        W51074  16.918  15.257   2.238
79404W        W51075  32.535   5.149  10.661
79405W        W51076  15.186  12.711  13.278
79406W        W51077  36.013  37.623  12.375
79407W        W51078  40.294   7.334   3.772
79408W        W51079   7.421   4.474   0.716
79409W        W51080  24.228  40.363   4.598
79410W        W51081  21.993  39.843   3.365
79411W        W51082  17.759   8.089   0.416
79412W        W51083  25.035  25.477  10.902
79413W        W51084  42.417  11.179  13.026
79414W        W51085  24.095  21.577   0.405
79415W        W51086  42.657  41.113   2.710
79416W        W51087  11.246   3.346  11.267
79417W        W51088  27.897  35.911  13.886
79418W        W51089  37.192   6.765   0.697
79419W        W51090   8.179  31.652  13.823
79420W        W51091  28.846  17.107  13.936
79421W        W51092  21.854  21.539   2.350
79422W        W51093  37.008  19.189   1.716
79423W        W51094   5.450  30.199   1.371
79424W        W51095   7.666  20.117   4.701
79425W        W51096  17.777  42.421  12.922
79426W        W51097  30.475  29.927   0.231
79427W        W51098  42.516  33.799  12.898
79428W        W51099  31.120   4.826   1.674
79429W        W51100   8.499  42.269   0.821
79430W        W51101  26.765  31.127   4.614
79431W        W51102   5.656  37.370  10.753
79432W        W51103  38.526  37.513  14.418
79433W        W51104  17.737  40.362   0.009
79434W        W51105   1.894  15.065  11.759
79435W        W51106  18.374   1.876  13.531
79436W        W51107  14.673   9.141   1.864
79437W        W51108  32.519   0.332  11.839
79438W        W51109   4.583  17.720   1.991
79439W        W51110  35.358  13.873   0.768
79440W        W51111  15.126   6.876  11.924
79441W        W51112   4.342   9.055  14.452
79442W        W51113  32.153  39.828  10.526
79443W        W51114  30.159  15.098  12.541
79444W        W51115   6.973   7.418  12.026
79445W        W51116  41.376  44.096  12.658
79446W        W51117  27.183  23.426  14.468
79447W        W51118   7.119  25.698   4.147
79448W        W51119   0.324  41.958   1.359
79449W        W51120  15.810  16.128  13.970
79450W        W51121  35.562  44.501  13.815
79451W        W51122  13.858  38.939  14.513
79452W        W51123  14.614  19.060   0.359
79453W        W51124  40.407  39.041  11.015
79454W        W51125  39.790  36.341   1.191
79455W        W51126  18.305   1.385  12.067
79456W        W51127  22.519  42.151  11.144
79457W        W51128   1.745   3.947   1.179
79458W        W51129  27.415  29.680  13.786
79459W        W51130  32.852  30.339   3.185
79460W        W51131  27.496  36.325  14.825
79461W        W51132  10.387   5.201   2.923
79462W        W51133  39.820  36.381  11.318
79463W        W51134  10.558  16.725   0.266
79464W        W51135  38.973  38.901   1.719
79465W        W51136   7.464  29.578  14.443
79466W        W51137  34.907   5.465  14.998
79467W        W51138  18.866  16.178   2.811
79468W        W51139  16.599  36.067  14.825
79469W        W51140  28.381   0.290   1.380
79470W        W51141  27.050  28.977   2.236
79471W        W51142   6.930  21.561  12.887
79472W        W51143  20.621  41.722  13.571
79473W        W51144  12.262  38.320  11.443
79474W        W51145  40.884   6.733   1.749
79475W        W51146  29.900  35.169  14.918
79476W        W51147  27.525  22.816   4.182
79477W        W51148  43.941  15.092  10.553
79478W        W51149   1.202  29.210   1.362
79479W        W51150  33.349  24.771  12.170
79480W        W51151  27.886  35.790  12.513
79481W        W51152  36.395  15.175  13.797
79482W        W51153  23.795  26.503  11.185
79483W        W51154  24.997  38.306  14.362
79484W        W51155  37.952  11.490  13.906
79485W        W51156  33.658  33.128   1.442
79486W        W51157  14.740   8.954  11.533
79487W        W51158  43.282  14.279  13.051
79488W        W51159   1.870   3.844   1.891
79489W        W51160   0.841  12.654   2.162
79490W        W51161   1.175  24.782   0.327
79491W        W51162  19.596  11.917  13.366
79492W        W51163  10.783  33.004  10.429
79493W        W51164  44.479  11.744   3.623
79494W        W51165   3.944   0.785   2.296
79495W        W51166  18.410  21.670   1.999
79496W        W51167  21.257  15.189   3.646
79497W        W51168  37.569  32.540   1.272
79498W        W51169  12.486  39.965  13.055
79499W        W51170  29.700  43.123   0.476
79500W        W51171  36.304  37.489   2.852
79501W        W51172  24.215  44.488  11.631
79502W        W51173   7.951  11.647   0.335
79503W        W51174  44.528  20.267  14.052
79504W        W51175  35.398  10.249  13.767
79505W        W51176   7.126   6.779   3.313
79506W        W51177   7.545   6.233  13.931
79507W        W51178  13.334  37.035   1.854
79508W        W51179  17.172   0.781  12.317
79509W        W51180   2.437  36.463  11.307
79510W        W51181  11.097  41.130  14.275
79511W        W51182   4.684  20.116  11.564
79512W        W51183   1.213  42.598  14.812
79513W        W51184   0.986  24.746   3.589
79514W        W51185  22.639  41.047   0.575
79515W        W51186  27.490  12.267  10.607
79516W        W51187  27.596  29.808  14.789
79517W        W51188  15.826  32.484  10.678
79518W        W51189  43.369   4.462  12.218
79519W        W51190  28.073  21.673   1.059
79520W        W51191  23.225  15.168   4.936
79521W        W51192   1.477  43.064  12.164
79522W        W51193   0.878  42.872  11.504
79523W        W51194  38.986  11.803  11.088
79524W        W51195   5.027  11.197  11.137
79525W        W51196  10.297  44.344   2.836
79526W        W51197   7.926  10.522   4.073
79527W        W51198  15.575  29.678  11.635
79528W        W51199  39.625  17.154   4.544
79529W        W51200  30.573  37.379  13.969
79530W        W51201  11.570  25.750  13.459
79531W        W51202   6.180  30.330   1.412
79532W        W51203  41.301  25.823  12.948
79533W        W51204  36.495  39.738   1.901
79534W        W51205  20.581   3.735   2.384
79535W        W51206  18.007  34.982   1.808
79536W        W51207  32.155  29.187  10.785
79537W        W51208   9.388   8.448   4.042
79538W        W51209  22.264  42.803   2.628
79539W        W51210  18.057  27.934  10.363
79540W        W51211  15.426  16.912  11.086
79541W        W51212   5.743  35.992   3.217
79542W        W51213   9.473  15.996  13.765
79543W        W51214  44.922   9.075  12.895
79544W        W51215  14.838  15.694  11.431
79545W        W51216  29.459  29.766   2.380
79546W        W51217  41.443  32.537  13.295
79547W        W51218  36.610   4.945  11.648
79548W        W51219  28.103  14.930   3.803
79549W        W51220   0.764  22.950  14.802
79550W        W51221   6.607   9.431   3.945
79551W        W51222  20.066   6.863  13.801
79552W        W51223  18.066   5.141  10.349
79553W        W51224  36.123  31.047  13.737
79554W        W51225  32.038  36.279   3.622
79555W        W51226  32.705  34.179  12.525
79556W        W51227  20.744   8.892   0.412
79557W        W51228  39.035  24.125  13.022
79558W        W51229  42.143  21.152  13.395
79559W        W51230   5.478   1.945  12.174
79560W        W51231  13.802  29.116  10.482
79561W        W51232   6.213  14.224   3.193
79562W        W51233   5.765  32.392  11.553
79563W        W51234  23.799  28.017  12.449
79564W        W51235   2.755  36.830  12.861
79565W        W51236  39.138   5.916  10.254
79566W        W51237  30.076  21.626   4.530
79567W        W51238  31.932  35.908  11.211
79568W        W51239  27.130  21.960  13.583
79569W        W51240  20.750  11.628  10.513
79570W        W51241  25.252  42.583   1.217
79571W        W51242  16.729   1.750   2.331
79572W        W51243  18.900  36.307  14.032
79573W        W51244  38.015  39.507  11.674
79574W        W51245  36.633  21.272  12.612
79575W        W51246  18.416  20.334   4.838
79576W        W51247  14.045  18.643  14.423
79577W        W51248   1.875   1.471  11.579
79578W        W51249  31.646  25.115  10.699
79579W        W51250  12.612  40.533  14.868
79580W        W51251  15.547  11.688  10.531
79581W        W51252   1.432   7.860  11.878
79582W        W51253  28.331  11.906   4.956
79583W        W51254   0.852   5.284  12.549
79584W        W51255  29.993  28.893  13.966
79585W        W51256  24.755  13.767  10.786
79586W        W51257  30.991  24.122  11.883
79587W        W51258   4.487   3.951   3.736
79588W        W51259   6.356  43.873   3.722
79589W        W51260   8.090  22.059  13.230
79590W        W51261  10.455  36.382  10.547
79591W        W51262   0.985  41.432   0.488
79592W        W51263  41.426  29.491   0.657
79593W        W51264  12.378  40.809   2.359
79594W        W51265   2.773  20.371  14.489
79595W        W51266   8.910  18.661  13.944
79596W        W51267  15.787   6.771  11.812
79597W        W51268   4.948  10.334  11.348
79598W        W51269   8.916   1.508   1.990
79599W        W51270  14.872   2.285   4.849
79600W        W51271  11.426  19.200  14.809
79601W        W51272  23.726  31.518  14.080
79602W        W51273  16.661  17.559  11.125
79603W        W51274   9.218  11.656   2.452
79604W        W51275  22.983  19.852   2.202
79605W        W51276  35.053  43.161   0.807
79606W        W51277  20.667  35.859  11.020
79607W        W51278   5.218  42.866  11.091
79608W        W51279  28.028  15.280   4.213
79609W        W51280  30.817  42.970   1.801
79610W        W51281   8.969  15.550   4.612
79611W        W51282  44.757   9.382  11.938
79612W        W51283  39.126  36.114   1.280
79613W        W51284  36.127  37.575   2.275
79614W        W51285   2.415   7.876   1.738
79615W        W51286   2.453   9.672   2.859
79616W        W51287  12.791   2.446   3.661
79617W        W51288   5.983  27.468   2.918
79618W        W51289  36.057   3.610  12.978
79619W        W51290   5.416  31.837  11.135
79620W        W51291  13.707  37.350  10.979
79621W        W51292  34.364  37.825   4.584
79622W        W51293  15.896   4.381   4.156
79623W        W51294   6.751  10.107   0.356
79624W        W51295  18.356   6.599  14.445
79625W        W51296  44.170  21.462  12.943
79626W        W51297  35.945  22.503   3.676
79627W        W51298  41.442  37.939   0.249
79628W        W51299  14.374  40.495  12.251
79629W        W51300  26.781   2.735  12.203
79630W        W51301  44.938   2.928  14.991
79631W        W51302  20.034  36.147   3.221
79632W        W51303  11.787  16.590  14.829
79633W        W51304  11.292  13.736  14.003
79634W        W51305  26.101  14.368  13.481
79635W        W51306  39.513  19.263   0.432
79636W        W51307  11.425  43.209   2.352
79637W        W51308  41.284  22.609   4.471
79638W        W51309  13.407   8.364  14.650
79639W        W51310  19.815  41.021   2.626
79640W        W51311  31.547  14.774   3.969
79641W        W51312  38.542   8.461   1.795
79642W        W51313  26.574  24.996   0.792
79643W        W51314  33.132   4.001  14.256
79644W        W51315   2.260   3.818   2.442
79645W        W51316   5.836   3.788   0.678
79646W        W51317  14.587  39.675   0.864
79647W        W51318  42.937   1.741  12.479
79648W        W51319   2.291  20.386  13.396
79649W        W51320  36.471  20.262  12.787
79650W        W51321  42.296  38.854   3.748
79651W        W51322   5.630  32.854   2.393
79652W        W51323  31.199  40.436   1.742
79653W        W51324  18.027  39.891  14.912
79654W        W51325  33.000  43.145   4.375
79655W        W51326  36.522  42.339  12.830
79656W        W51327  32.107   0.975   0.314
79657W        W51328  11.223  23.315   4.245
79658W        W51329  21.981  31.563   0.456
79659W        W51330  29.716  16.183  13.399
79660W        W51331   5.305   4.637   0.433
79661W        W51332  31.939   8.694   1.887
79662W        W51333   1.683  17.158  11.721
79663W        W51334  43.344  18.252  10.673
79664W        W51335  38.875  37.096  11.968
79665W        W51336  16.846  15.633   5.035
79666W        W51337  37.365  42.782   3.792
79667W        W51338  23.107  22.532  12.852
79668W        W51339  28.603  27.432  12.059
79669W        W51340  23.380  35.520  11.671
79670W        W51341  11.340  32.849  11.555
79671W        W51342  25.782  10.581  14.542
79672W        W51343   9.946   6.699  12.399
79673W        W51344  20.725  43.688   2.240
79674W        W51345  14.368  44.310  14.526
79675W        W51346  18.846  19.868  14.935
79676W        W51347  14.074  27.957   4.149
79677W        W51348  37.288   6.288   0.966
79678W        W51349   6.677  32.449  12.522
79679W        W51350  34.507  32.685  12.958
79680W        W51351  17.399  16.861   3.487
79681W        W51352  44.576  23.223  10.214
79682W        W51353  20.051  14.720  12.730
79683W        W51354   0.232  24.058  12.633
79684W        W51355  32.916  25.265  14.923
79685W        W51356  40.403  37.862  13.982
79686W        W51357  28.572  16.225   4.382
79687W        W51358  35.396  12.560  11.113
79688W        W51359  14.274   5.768   5.071
79689W        W51360   5.334   5.163   0.489
79690W        W51361  12.222  23.636   3.175
79691W        W51362  22.486  12.898  11.138
79692W        W51363   9.785   7.943   4.544
79693W        W51364   9.773  24.914  13.323
79694W        W51365  35.736   7.683   3.802
79695W        W51366  34.375  33.237  10.540
79696W        W51367  34.712  43.721   1.348
79697W        W51368  21.505  15.752   9.871
79698W        W51369   2.977  44.827  12.509
79699W        W51370  34.415  44.466  12.337
79700W        W51371  27.254  29.142   3.554
79701W        W51372  30.512   0.764  11.761
79702W        W51373  33.153  15.820  10.673
79703W        W51374  36.485  28.968   0.443
79704W        W51375  18.834  41.936   2.757
79705W        W51376  34.597  21.543   1.885
79706W        W51377  36.952   2.998   0.920
79707W        W51378  11.436  29.954   4.007
79708W        W51379  17.144  32.865   2.294
79709W        W51380  29.944   7.723  12.548
79710W        W51381  32.257  34.863   4.501
79711W        W51382  40.647   5.880  12.869
79712W        W51383   2.276  13.027   2.185
79713W        W51384  29.929  17.249  12.134
79714W        W51385  37.836  43.358  10.702
79715W        W51386  36.150  21.713  13.358
79716W        W51387   7.629   3.411   4.281
79717W        W51388  37.010  24.480   0.146
79718W        W51389  17.726  38.090   3.355
79719W        W51390  44.892  12.092  11.207
79720W        W51391  30.906  14.275   4.469
79721W        W51392  23.952  18.665   4.098
79722W        W51393  18.105   7.739  12.858
79723W        W51394  24.190   2.958  10.708
79724W        W51395  26.613  35.804   2.795
79725W        W51396  43.283  13.044  14.531
79726W        W51397  40.504   1.136   1.274
79727W        W51398  37.497  33.794  14.332
79728W        W51399  22.387  40.567   5.477
79729W        W51400  40.384  37.193  10.816
79730W        W51401  15.150  39.572  10.925
79731W        W51402  38.210  23.641   4.036
79732W        W51403  35.421  18.821   0.420
79733W        W51404  14.161  41.467   0.694
79734W        W51405  15.948  16.637   3.178
79735W        W51406  26.647  42.283  12.015
79736W        W51407  42.573  40.342  12.370
79737W        W51408  25.160   6.734   4.973
79738W        W51409  40.878  15.592  13.652
79739W        W51410  42.554  22.542  13.440
79740W        W51411  33.005  23.165   3.844
79741W        W51412  35.561  28.142  10.893
79742W        W51413  24.438  31.216   3.223
79743W        W51414  10.367  43.881  10.650
79744W        W51415   8.848  34.068   2.970
79745W        W51416  38.092  16.533  13.688
79746W        W51417   1.380  33.869   2.927
79747W        W51418  37.231   7.206  12.158
79748W        W51419  15.129  10.869  12.574
79749W        W51420  22.174  39.336   3.229
79750W        W51421  26.406   5.856   1.214
79751W        W51422  40.024  27.894   4.841
79752W        W51423  35.347  41.914   2.616
79753W        W51424  39.819  32.945  14.391
79754W        W51425  43.058  13.444   3.511
79755W        W51426   9.731  30.377  10.811
79756W        W51427  32.501  39.322   4.218
79757W        W51428  23.423  30.629  11.455
79758W        W51429   3.838  37.259  14.847
79759W        W51430  35.072  19.745   0.753
79760W        W51431   5.384  25.412   3.672
79761W        W51432  30.667   6.920   2.775
79762W        W51433  23.910   9.199  14.951
79763W        W51434  18.681  17.655   0.923
79764W        W51435   5.748   8.907   9.977
79765W        W51436  12.953  22.928   2.758
79766W        W51437   0.961  20.625   3.855
79767W        W51438  17.331  36.101  14.534
79768W        W51439  12.066  34.123   3.771
79769W        W51440  18.721   3.594   0.701
79770W        W51441  19.245  37.398   0.118
79771W        W51442   7.887  15.309  11.969
79772W        W51443  33.985   1.240  14.940
79773W        W51444  32.002   3.764   1.423
79774W        W51445  30.694   0.990   0.167
79775W        W51446  41.428  13.307  14.922
79776W        W51447  15.357  39.242   2.589
79777W        W51448  17.030  15.576  10.215
79778W        W51449  40.461  40.214  13.496
79779W        W51450   4.985   4.198   4.099
79780W        W51451  29.694   0.766  14.189
79781W        W51452   8.762  33.702   2.317
79782W        W51453  37.910   9.922  10.638
79783W        W51454  28.614  19.570  12.869
79784W        W51455   8.859  15.873   2.175
79785W        W51456  12.859  31.672   4.505
79786W        W51457  13.893  14.724   3.156
79787W        W51458  36.939  26.932   2.724
79788W        W51459  27.127  38.314   1.352
79789W        W51460   0.676  43.776   3.748
79790W        W51461   2.869  14.150  11.349
79791W        W51462  32.176   4.117  12.955
79792W        W51463  24.240  29.654   0.423
79793W        W51464  11.682  29.270  11.206
79794W        W51465  12.803  24.556   3.414
79795W        W51466  34.923  17.665   0.248
79796W        W51467  30.299  34.302  12.406
79797W        W51468  24.926  41.082  13.508
79798W        W51469   2.492  16.670  12.955
79799W        W51470  15.035  13.475  13.916
79800W        W51471  41.931  14.357   4.091
79801W        W51472   2.971   6.130   3.422
79802W        W51473  11.492  36.360  10.484
79803W        W51474  14.377  35.035  11.041
79804W        W51475   3.946  13.148   2.372
79805W        W51476  27.696  17.505   2.733
79806W        W51477  35.348   4.349   3.724
79807W        W51478  12.226  34.836  13.583
79808W        W51479  31.191  15.905   0.790
79809W        W51480  30.889  28.110  10.739
79810W        W51481  19.200  12.241   3.887
79811W        W51482  19.527  26.867  11.505
79812W        W51483  37.059   6.913  13.495
79813W        W51484  14.634  34.152  11.537
79814W        W51485  16.822  32.940   0.812
79815W        W51486  25.524  23.125  13.883
79816W        W51487  37.642  29.530   0.791
79817W        W51488  19.309  43.682   2.929
79818W        W51489   7.878  10.252   0.873
79819W        W51490   6.301  43.120   2.123
79820W        W51491  26.053  36.558  14.735
79821W        W51492  23.546  23.301   3.750
79822W        W51493  20.423  22.851   9.755
79823W        W51494   2.796  37.857   1.148
79824W        W51495  39.458  11.247   2.575
79825W        W51496  31.853  27.269  14.993
79826W        W51497  14.217   7.712  10.029
79827W        W51498  17.666  22.328   4.968
79828W        W51499   0.797   5.694   2.566
79829W        W51500  36.728  43.992   4.495
79830W        W51501  18.330  24.039  12.733
79831W        W51502   0.293  13.241  13.192
79832W        W51503  35.150   4.980  12.436
79833W        W51504  30.097  34.445   2.702
79834W        W51505   4.023  29.113  10.723
79835W        W51506   1.048  18.152   0.673
79836W        W51507   9.745   1.264  12.472
79837W        W51508  20.564  36.513  14.266
79838W        W51509   1.680  18.261   4.596
79839W        W51510   0.783   9.681   3.153
79840W        W51511  15.660  35.470   1.459
79841W        W51512  15.980  17.488   2.380
79842W        W51513   3.522  13.879  10.619
79843W        W51514  42.051  35.442  11.515
79844W        W51515  17.243  44.183   3.306
79845W        W51516  26.641  16.083  10.444
79846W        W51517   4.769  24.718  14.043
79847W        W51518  18.095  40.586   1.125
79848W        W51519  44.106   6.035  10.814
79849W        W51520  41.056  31.479   4.548
79850W        W51521  32.088  42.915   0.050
79851W        W51522  19.428  34.837   2.778
79852W        W51523   8.357  28.536   3.805
79853W        W51524   3.390  29.417  11.569
79854W        W51525  15.607  16.246   1.762
79855W        W51526  38.663   7.734   3.835
79856W        W51527   1.167  16.278  14.818
79857W        W51528  27.762   6.411   0.238
79858W        W51529  23.715  21.546  11.266
79859W        W51530  17.489  29.089   2.308
79860W        W51531  41.802  44.567   2.236
79861W        W51532  15.362  14.995   3.141
79862W        W51533  14.303  11.659   2.914
79863W        W51534  10.915  31.622   0.371
79864W        W51535  17.499  13.762  12.548
79865W        W51536  36.256  36.923  13.051
79866W        W51537  22.261   4.167  10.564
79867W        W51538  27.160  14.487  12.390
79868W        W51539  29.521  28.681  14.019
79869W        W51540   3.788  11.001  10.325
79870W        W51541  31.369  12.621   0.848
79871W        W51542  10.727  10.369   1.797
79872W        W51543  16.197  32.422  12.578
79873W        W51544  44.748   9.316   4.172
79874W        W51545  30.406  23.909  14.793
79875W        W51546   2.274  37.934  12.066
79876W        W51547   0.098   3.485   1.254
79877W        W51548   6.411  29.455  13.051
79878W        W51549  32.937   8.771   0.470
79879W        W51550  28.023  31.864   3.248
79880W        W51551  41.072  28.145   0.002
79881W        W51552  38.343  15.604   2.255
79882W        W51553  43.997  25.243   0.825
79883W        W51554  16.272  19.707  10.648
79884W        W51555  34.196   8.606  12.452
79885W        W51556  25.201  38.876   0.435
79886W        W51557  20.088  16.286   0.831
79887W        W51558  23.683  38.509  14.460
79888W        W51559  22.092  43.853  14.110
79889W        W51560  22.538  37.091  10.711
79890W        W51561  30.990  36.125  11.728
79891W        W51562  35.116  36.400   4.409
79892W        W51563  25.039  34.837   1.505
79893W        W51564   0.816  29.019   4.468
79894W        W51565  15.227  10.210   0.711
79895W        W51566  29.672   7.982  11.442
79896W        W51567  16.085   9.880   0.368
79897W        W51568  15.324  16.612  12.871
79898W        W51569  34.690   5.420   1.013
79899W        W51570  38.059  20.470   1.345
79900W        W51571   6.312  25.016  12.987
79901W        W51572  40.760  12.714   4.589
79902W        W51573  35.434  36.774   4.118
79903W        W51574  44.031  31.069   4.583
79904W        W51575   8.397  15.262  10.641
79905W        W51576  10.244  24.624  11.653
79906W        W51577  39.953  17.597   0.053
79907W        W51578  30.252  41.328   3.239
79908W        W51579  36.495  19.554  14.308
79909W        W51580  40.364  39.597   3.778
79910W        W51581  12.562  16.202   1.936
79911W        W51582   7.917  10.813   3.671
79912W        W51583  28.045  22.054  13.237
79913W        W51584   4.513   7.901   3.608
79914W        W51585  37.626  35.554   0.315
79915W        W51586  27.027  43.504   0.719
79916W        W51587  32.312  25.572  11.581
79917W        W51588  15.308  24.924   0.406
79918W        W51589  22.122  26.206   4.559
79919W        W51590  25.167   2.354  12.449
79920W        W51591  19.253  21.354   4.453
79921W        W51592   7.483   2.403   0.097
79922W        W51593  30.570   6.461  11.474
79923W        W51594  37.389   8.281  13.175
79924W        W51595  37.406  40.087  12.125
79925W        W51596   7.629   6.706  14.615
79926W        W51597  42.968  37.673   2.804
79927W        W51598  30.472  39.849   2.159
79928W        W51599  38.571   6.341  11.582
79929W        W51600  16.594  23.307  14.742
79930W        W51601  44.457  28.133   2.326
79931W        W51602   4.906  19.166  14.116
79932W        W51603  27.426  41.562   3.779
79933W        W51604  23.487   7.902  11.578
79934W        W51605  41.932   6.477  13.107
79935W        W51606  27.817   1.631  12.377
79936W        W51607  18.189  42.892   3.513
79937W        W51608  16.186   7.648   0.717
79938W        W51609  29.805  25.584   0.117
79939W        W51610  20.869  44.885   4.723
79940W        W51611  38.288  30.467   3.189
79941W        W51612  36.611  11.106  12.838
79942W        W51613   7.456   2.999  11.200
79943W        W51614   7.910  34.406   4.811
79944W        W51615  35.282   3.407  13.816
79945W        W51616  27.207  21.157  12.931
79946W        W51617  12.970  34.453   3.080
79947W        W51618   3.696  35.099   1.326
79948W        W51619  37.439  34.770   0.868
79949W        W51620  23.288   7.379  11.544
79950W        W51621  43.424  42.366  13.660
79951W        W51622  31.688  38.100   2.867
79952W        W51623  21.705   4.904  12.396
79953W        W51624  25.257   6.813  13.843
79954W        W51625  35.002  44.190   0.619
79955W        W51626  40.863  23.470  14.941
79956W        W51627  31.984  14.297   1.397
79957W        W51628   1.263   9.301   2.346
79958W        W51629  13.559   2.357  13.378
79959W        W51630  18.773  41.337   2.157
79960W        W51631  24.958  31.117  14.882
79961W        W51632  25.438  14.669  11.656
79962W        W51633   5.079  38.012  14.722
79963W        W51634  10.093  22.739   1.627
79964W        W51635  25.592  40.398   3.746
79965W        W51636  23.914  33.157   2.093
79966W        W51637  28.128  37.567   3.913
79967W        W51638  41.453  31.922   4.658
79968W        W51639  32.353  29.664  14.386
79969W        W51640  20.568  24.222   2.880
79970W        W51641   7.470  34.494  11.497
79971W        W51642  30.373  27.959  10.745
79972W        W51643  24.414  27.981  10.655
79973W        W51644   6.693   5.221  11.028
79974W        W51645  42.966  18.667  12.571
79975W        W51646  12.679  29.969  14.185
79976W        W51647  20.954  15.336   4.092
79977W        W51648  22.067  44.427   0.815
79978W        W51649   1.186  17.149   1.574
79979W        W51650  23.496  12.902   2.778
79980W        W51651  22.122  26.454   4.093
79981W        W51652  35.627  22.706  11.123
79982W        W51653  24.703  12.033  11.311
79983W        W51654  26.677  44.333  12.996
79984W        W51655   1.497   6.665   2.313
79985W        W51656   5.197  34.416  11.992
79986W        W51657  30.098   0.213   0.981
79987W        W51658  37.601  13.042   1.889
79988W        W51659  44.951  19.846  12.478
79989W        W51660  33.157  13.324   0.979
79990W        W51661   4.524  36.230   3.759
79991W        W51662  27.505  41.855  11.147
79992W        W51663  11.697   7.401  11.705
79993W        W51664  44.866  18.769   3.467
79994W        W51665   3.796  20.110   5.094
79995W        W51666   6.797  14.558   4.627
79996W        W51667  29.758  17.730  10.807
79997W        W51668  19.551  28.676   1.822
79998W        W51669   1.955  27.362  10.760
79999W        W51670  13.266  36.362  14.267
80000W        W51671   4.166  16.976   2.342
80001W        W51672  16.104   4.159   0.405
80002W        W51673  13.747  34.080   0.824
80003W        W51674  12.866  34.517  11.968
80004W        W51675  17.972  33.078  12.041
80005W        W51676  31.268  17.239   1.420
80006W        W51677  19.540   6.787  10.797
80007W        W51678   8.879  29.194   0.292
80008W        W51679  43.694  35.143   1.247
80009W        W51680  21.956  35.562  12.035
80010W        W51681  22.660  29.086  11.785
80011W        W51682   9.835   2.634  12.443
80012W        W51683  41.808  33.925  12.535
80013W        W51684  43.019  19.804  11.843
80014W        W51685  10.365  37.809   5.126
80015W        W51686  30.678   5.733  13.972
80016W        W51687   4.893  13.273   3.257
80017W        W51688  36.971  44.034  11.967
80018W        W51689  29.052  32.997   4.890
80019W        W51690  21.754  33.319   2.229
80020W        W51691  19.532  40.091  12.555
80021W        W51692  17.787  14.724   3.606
80022W        W51693   9.784  18.451   1.933
80023W        W51694  27.146  30.465   2.313
80024W        W51695  11.872   4.976   1.291
80025W        W51696  29.166   8.905   4.123
80026W        W51697  20.435  15.382   4.214
80027W        W51698  32.537  37.821   1.199
80028W        W51699  14.904  36.313   0.516
80029W        W51700  16.057  43.312   0.413
80030W        W51701  18.036  13.114   4.149
80031W        W51702  38.487   8.362  12.544
80032W        W51703  38.088  11.028  13.107
80033W        W51704  24.669  27.758  12.479
80034W        W51705  12.375  23.555   2.680
80035W        W51706  42.647  21.429  11.102
80036W        W51707  30.974  22.938  12.363
80037W        W51708  15.297  37.027   2.303
80038W        W51709  31.537  26.628   1.732
80039W        W51710  27.014  40.874   2.399
80040W        W51711  32.497  31.617   2.015
80041W        W51712  38.413   5.724  10.802
80042W        W51713   8.379   8.315   4.195
80043W        W51714   9.793  26.203   4.950
80044W        W51715  34.888   1.062   0.084
80045W        W51716   2.869  30.609   4.131
80046W        W51717  25.103  35.921   3.266
80047W        W51718  21.199  21.503   3.124
80048W        W51719  35.276   8.820   4.661
80049W        W51720   7.676   3.280  12.465
80050W        W51721  26.933  40.122   1.896
80051W        W51722  25.134  20.268   2.240
80052W        W51723  44.036  16.884  12.948
80053W        W51724  24.022   5.824  14.284
80054W        W51725   2.468  21.993   0.268
80055W        W51726  16.785   3.779   2.168
80056W        W51727  31.177  41.386  14.772
80057W        W51728   0.845   3.185  10.299
80058W        W51729  28.927  42.329  13.211
80059W        W51730  26.202  31.101   4.609
80060W        W51731  10.126   8.475  14.387
80061W        W51732  33.381  17.102  13.444
80062W        W51733  18.993  28.544   3.285
80063W        W51734  43.552  16.663  12.972
80064W        W51735   4.156  20.195  10.729
80065W        W51736  43.763  33.944  13.949
80066W        W51737  10.168  17.758  13.980
80067W        W51738  39.109  17.116   4.549
80068W        W51739  34.108  25.557  11.189
80069W        W51740  28.034  38.085  11.141
80070W        W51741  22.740  40.363  12.929
80071W        W51742  42.994  19.983  13.547
80072W        W51743  34.830  14.574   3.265
80073W        W51744  15.207  40.490  14.025
80074W        W51745  35.568  40.859   2.809
80075W        W51746  28.955  16.647  14.366
80076W        W51747   4.156   3.430   4.556
80077W        W51748  30.572  19.623  14.473
80078W        W51749   9.788  19.478   4.241
80079W        W51750  18.521  13.742  12.453
80080W        W51751  40.205   8.850  12.719
80081W        W51752  25.988  36.203  12.943
80082W        W51753  12.138  10.693  10.599
80083W        W51754  17.715  31.764   2.723
80084W        W51755  17.713  17.850  12.029
80085W        W51756   7.461  41.412   0.041
80086W        W51757  39.272  27.179  12.787
80087W        W51758  27.040  32.068   1.289
80088W        W51759  22.684  10.613  14.935
80089W        W51760  31.352  29.985  10.745
80090W        W51761   9.736  14.000  13.446
80091W        W51762  36.925   6.652  13.058
80092W        W51763  34.842  16.775   3.142
80093W        W51764   1.889  14.228   0.785
80094W        W51765  36.927  36.260  14.973
80095W        W51766  43.348   2.452  11.105
80096W        W51767  27.953  21.953  11.436
80097W        W51768  22.180  11.799   1.440
80098W        W51769  27.466   2.952  13.793
80099W        W51770  26.133  20.991  13.565
80100W        W51771  25.217  44.994   0.846
80101W        W51772   4.876  37.092  12.874
80102W        W51773  23.977  29.745   1.767
80103W        W51774  29.496   3.340   2.053
80104W        W51775  38.725  21.588   2.172
80105W        W51776  21.170  12.402  12.530
80106W        W51777  36.389  17.768  13.850
80107W        W51778  39.121  20.310  13.336
80108W        W51779  27.669  19.692  11.556
80109W        W51780  37.726   7.142  12.041
80110W        W51781   7.511  33.274  11.010
80111W        W51782  14.160  36.826  14.469
80112W        W51783  41.401  13.688  10.317
80113W        W51784  36.655  14.411   0.839
80114W        W51785  22.070  41.931   5.587
80115W        W51786   6.000  15.045   1.418
80116W        W51787  26.758   5.800  11.480
80117W        W51788   0.474  21.998   0.129
80118W        W51789  12.666   8.555  10.181
80119W        W51790  23.807  32.463  13.118
80120W        W51791   7.539   9.114   4.114
80121W        W51792  22.220  25.601  14.762
80122W        W51793  40.048   0.677   2.777
80123W        W51794  26.665  23.101   4.558
80124W        W51795  12.626   3.928  14.564
80125W        W51796  22.548  15.631   3.604
80126W        W51797  38.528  17.386  11.148
80127W        W51798   9.028  19.332   1.433
80128W        W51799   2.425   7.174   0.393
80129W        W51800  22.192  12.676   4.353
80130W        W51801   2.924  24.316   0.405
80131W        W51802  34.663  15.703  10.771
80132W        W51803  30.182  15.358  13.002
80133W        W51804  33.895  44.163  13.043
80134W        W51805  28.050  17.864  14.857
80135W        W51806  25.751  10.770   0.893
80136W        W51807   9.960  33.043  12.283
80137W        W51808   8.912  34.712   2.394
80138W        W51809  44.610  12.324   3.789
80139W        W51810  44.127   6.855  12.750
80140W        W51811  32.231  32.637   0.696
80141W        W51812  13.584  36.626  11.968
80142W        W51813  24.703  15.153  14.543
80143W        W51814   5.179  26.622   3.754
80144W        W51815  24.160   2.426  10.684
80145W        W51816  15.636  12.049   2.183
80146W        W51817  39.987  34.542  10.712
80147W        W51818  35.636  42.377  11.515
80148W        W51819   2.995  20.096  12.091
80149W        W51820  20.957  23.907   0.713
80150W        W51821  19.491  25.178  12.542
80151W        W51822  36.536  39.740   5.429
80152W        W51823  20.155  40.135  12.118
80153W        W51824   1.084  22.583  11.451
80154W        W51825  30.831   5.668   1.857
80155W        W51826   6.810  16.681  12.054
80156W        W51827   3.712  17.265  12.208
80157W        W51828  21.560  30.063   3.725
80158W        W51829  44.004  36.889   1.486
80159W        W51830   9.226   3.511   4.191
80160W        W51831  21.576  35.214  11.526
80161W        W51832  21.132  12.099  10.352
80162W        W51833  26.685   9.440   0.473
80163W        W51834  33.526  32.410  14.456
80164W        W51835  15.180  17.259   3.409
80165W        W51836  10.262   0.317   2.775
80166W        W51837  21.274  17.943  11.473
80167W        W51838   5.455  35.598  12.618
80168W        W51839  40.238  35.670  12.078
80169W        W51840  33.767  38.624   5.032
80170W        W51841  26.435  28.729   3.673
80171W        W51842   7.255  42.337   3.772
80172W        W51843  29.226  43.754  11.505
80173W        W51844   5.205   0.352  11.085
80174W        W51845  12.681  38.714   1.923
80175W        W51846  38.920  14.846  10.671
80176W        W51847  44.524  32.838   4.875
80177W        W51848  31.598  37.153  14.436
80178W        W51849   5.458  34.092   2.808
80179W        W51850  37.807  36.999  12.905
80180W        W51851  44.418  12.540   2.610
80181W        W51852  23.134  31.367  13.307
80182W        W51853   9.681  40.934   3.898
80183W        W51854  16.965  29.920   4.956
80184W        W51855  14.825   6.508  14.302
80185W        W51856  36.923   4.381   3.601
80186W        W51857  29.564  34.177  11.477
80187W        W51858  42.145   8.305  12.194
80188W        W51859   3.793   0.963  12.906
80189W        W51860  28.276  12.245  14.615
80190W        W51861  23.604  35.846   1.411
80191W        W51862   9.833  18.931   4.281
80192W        W51863  19.703  39.351  13.386
80193W        W51864   6.501  25.515   0.311
80194W        W51865  10.611  12.765   1.652
80195W        W51866  23.237   2.443  14.753
80196W        W51867   0.236  18.475   0.941
80197W        W51868  15.230  24.557  11.664
80198W        W51869  38.085  14.664  14.922
80199W        W51870  26.254   7.344  10.712
80200W        W51871  22.690   2.019   0.258
80201W        W51872  10.601   0.876  11.009
80202W        W51873  23.801  41.973   2.295
80203W        W51874  11.540   5.784  14.022
80204W        W51875  34.824   8.796  11.972
80205W        W51876  31.392  23.283  12.264
80206W        W51877  23.975  40.105   4.147
80207W        W51878  21.282  30.719  13.103
80208W        W51879  32.173   9.784   0.932
80209W        W51880  27.944  36.573  14.910
80210W        W51881  15.320  36.045  14.306
80211W        W51882  40.001  29.250   1.194
80212W        W51883  21.171   3.710   4.443
80213W        W51884  37.105  32.398   0.050
80214W        W51885   6.297  35.666  14.436
80215W        W51886  29.916  30.149  14.004
80216W        W51887  40.143  43.335   0.298
80217W        W51888   6.389  41.046   4.831
80218W        W51889  43.783  34.094  11.286
80219W        W51890  17.339  42.009   3.664
80220W        W51891  41.952   6.172  10.219
80221W        W51892  13.750   9.654  12.019
80222W        W51893  12.885  40.080   2.809
80223W        W51894  13.427   2.713  10.897
80224W        W51895  27.576  40.311  14.710
80225W        W51896   0.577   9.859  14.248
80226W        W51897  17.032  43.305  14.272
80227W        W51898  24.090  10.161   1.898
80228W        W51899   9.993  41.234  12.059
80229W        W51900  38.461  27.627  11.216
80230W        W51901  35.837  42.144   0.886
80231W        W51902  19.578  39.069  12.444
80232W        W51903  37.502   8.850  14.874
80233W        W51904  24.959  33.126  14.505
80234W        W51905  40.463  21.221  11.957
80235W        W51906  36.308  31.425  11.107
80236W        W51907   5.886  42.419  11.242
80237W        W51908  18.767  26.522  14.916
80238W        W51909  36.409   6.634   3.138
80239W        W51910  34.648  26.078  14.541
80240W        W51911  24.253   3.332  13.858
80241W        W51912  38.778   1.664  13.086
80242W        W51913  32.087  35.917  12.613
80243W        W51914  11.653  41.759  12.067
80244W        W51915  14.246   7.803  13.831
80245W        W51916  26.235  11.844  14.098
80246W        W51917  13.261  14.100  14.362
80247W        W51918   2.972  14.808   1.381
80248W        W51919  19.222  40.067   4.146
80249W        W51920  26.463  10.699  13.309
80250W        W51921   2.480  17.573   3.161
80251W        W51922  20.673  27.626   2.518
80252W        W51923  37.878   6.375  14.511
80253W        W51924  30.120   0.231  12.524
80254W        W51925  27.674  38.593   2.554
80255W        W51926  41.369  10.802   1.437
80256W        W51927  29.137  10.174   1.945
80257W        W51928  16.017  12.822   2.436
80258W        W51929  35.133  34.935  12.978
80259W        W51930  36.847  17.305   3.309
80260W        W51931  29.204   0.850  10.765
80261W        W51932  15.592  13.199   3.849
80262W        W51933   2.846  23.904  14.741
80263W        W51934   6.812  42.013   3.216
80264W        W51935  34.406   3.187  14.666
80265W        W51936   0.816   4.309  11.131
80266W        W51937  27.200  37.974   0.901
80267W        W51938  26.918  25.124  12.979
80268W        W51939   9.197   4.630  13.623
80269W        W51940  23.174  28.461   0.568
80270W        W51941  43.281  35.968   0.891
80271W        W51942   2.792  39.246  13.497
80272W        W51943  10.169  36.500   0.173
80273W        W51944  12.788  10.083   9.902
80274W        W51945  11.150  20.749   0.058
80275W        W51946  31.950   1.003  12.881
80276W        W51947  11.341  11.633  11.609
80277W        W51948  44.206  29.274   0.861
80278W        W51949  12.096  20.641   3.858
80279W        W51950  26.503  42.535  13.371
80280W        W51951  41.255  37.289   1.468
80281W        W51952  30.107  17.614  11.848
80282W        W51953  23.473  34.816   2.626
80283W        W51954  44.467  40.476   2.852
80284W        W51955  43.219  29.618  12.963
80285W        W51956  41.807   4.843  12.083
80286W        W51957  29.063  16.139   1.629
80287W        W51958  24.692  15.078  10.724
80288W        W51959  36.112  35.066   3.558
80289W        W51960  42.431  15.110  14.983
80290W        W51961  37.514  39.145   2.390
80291W        W51962  19.633  34.516  11.100
80292W        W51963  14.295  15.767   4.210
80293W        W51964   4.398  24.218  12.591
80294W        W51965  29.535   8.616   3.251
80295W        W51966   0.412  19.255   4.731
80296W        W51967   3.846   1.914   3.716
80297W        W51968  26.621  18.713   2.429
80298W        W51969  38.988  34.703   1.381
80299W        W51970   2.813  27.440   2.888
80300W        W51971   9.441  32.635   0.444
80301W        W51972  23.862  41.258  10.155
80302W        W51973  43.056   9.208   2.356
80303W        W51974  35.872   6.468   4.395
80304W        W51975  13.186  20.927  10.338
80305W        W51976  27.780  19.062  13.534
80306W        W51977  27.224   5.736   0.809
80307W        W51978  17.157  34.860   1.738
80308W        W51979  26.060   0.731   2.300
80309W        W51980  27.039  21.343   5.028
80310W        W51981  17.237  38.359   2.445
80311W        W51982  16.229  22.738  11.495
80312W        W51983  12.639   0.901   2.883
80313W        W51984   4.899  15.254   4.121
80314W        W51985  16.527  39.042  11.444
80315W        W51986  40.063  16.170   3.722
80316W        W51987   0.165  14.991   1.116
80317W        W51988   4.223   1.935   2.796
80318W        W51989  39.941  19.488   0.200
80319W        W51990  14.337  31.656  13.760
80320W        W51991   1.485  24.462  12.537
80321W        W51992  24.063   1.441  13.880
80322W        W51993  40.880  12.125  11.699
80323W        W51994   1.656  13.296  13.383
80324W        W51995  15.110  15.585   2.767
80325W        W51996  25.383  23.539  12.679
80326W        W51997   7.727  29.952   0.882
80327W        W51998  15.658  38.346   1.183
80328W        W51999  10.320  39.221  14.369
80329W        W52000   1.250   5.892   2.853
80330W        W52001  18.420  40.234   4.554
80331W        W52002  15.870  31.690   0.912
80332W        W52003   5.362  17.309  14.916
80333W        W52004  41.960   8.293  14.508
80334W        W52005  11.266  40.560  14.427
80335W        W52006   8.148  28.579  11.962
80336W        W52007  35.736  40.878  14.294
80337W        W52008  32.336   2.353   3.319
80338W        W52009  26.172  34.371   1.966
80339W        W52010   5.381  32.411   2.340
80340W        W52011  13.694  13.649   4.599
80341W        W52012  44.490  43.009   4.577
80342W        W52013  10.659   4.947   4.748
80343W        W52014  17.650  20.128   0.329
80344W        W52015   3.450  16.164  12.974
80345W        W52016  19.603  23.681   4.201
80346W        W52017   8.704  12.686  11.547
80347W        W52018  19.726  28.652  12.018
80348W        W52019  28.401   4.430   0.786
80349W        W52020  32.362  14.008   3.729
80350W        W52021   2.805   5.574  13.096
80351W        W52022  34.671  35.433   2.756
80352W        W52023   1.695  15.783  11.180
80353W        W52024   4.265   8.911  10.758
80354W        W52025  23.003  30.984   0.915
80355W        W52026  39.634  27.579  11.071
80356W        W52027   9.811  14.996   1.951
80357W        W52028  44.920  39.730   2.835
80358W        W52029   0.050   6.032  13.716
80359W        W52030  23.032  27.101  10.649
80360W        W52031  40.754   6.732  13.792
80361W        W52032  33.127   5.648   1.473
80362W        W52033  44.963  26.065   2.104
80363W        W52034  18.665  12.182  12.075
80364W        W52035  24.185   7.679   3.367
80365W        W52036  12.868  17.790   0.744
80366W        W52037  36.544  36.387  14.231
80367W        W52038  15.808  36.035   1.685
80368W        W52039   4.339  29.200   3.681
80369W        W52040  32.217  24.973  13.398
80370W        W52041   1.386  15.685   2.885
80371W        W52042  18.624  29.396  12.549
80372W        W52043  12.940  35.330  10.795
80373W        W52044  23.939  37.350   5.088
80374W        W52045   6.463  12.249  14.918
80375W        W52046   3.756  24.728   0.674
80376W        W52047  20.484  37.279   4.439
80377W        W52048  30.029  13.716   0.623
80378W        W52049  44.351  10.184  14.035
80379W        W52050  41.662  33.546   2.240
80380W        W52051   1.450  25.234  13.068
80381W        W52052  16.493  42.387   2.201
80382W        W52053   1.255  23.223   5.548
80383W        W52054   8.826  10.284  14.290
80384W        W52055  26.149  34.863   2.254
80385W        W52056  37.141   1.840   1.936
80386W        W52057  22.013  40.228   1.236
80387W        W52058  39.502  19.730  12.934
80388W        W52059   2.276  28.994   4.540
80389W        W52060   5.671   2.705  10.658
80390W        W52061   6.969  12.088   0.620
80391W        W52062   6.625  44.894   2.470
80392W        W52063   9.224  24.944  12.551
80393W        W52064  41.507  18.803  12.438
80394W        W52065  20.728  33.735  14.204
80395W        W52066  21.373  44.750  11.934
80396W        W52067  21.277  27.189   0.246
80397W        W52068  31.834  19.302  11.612
80398W        W52069   8.839  28.733  14.935
80399W        W52070  39.480  29.991   1.411
80400W        W52071  42.911  31.583   3.570
80401W        W52072   6.699  11.121  12.766
80402W        W52073  37.551  18.201  10.719
80403W        W52074  26.938  42.958  12.933
80404W        W52075  18.108  29.162   3.453
80405W        W52076  29.060  26.550   2.890
80406W        W52077  27.262  38.856  11.154
80407W        W52078  25.085  28.319   4.516
80408W        W52079  43.978   5.070   1.074
80409W        W52080  39.461  12.103   4.224
80410W        W52081  37.565  32.291  13.812
80411W        W52082  33.521  32.781  13.501
80412W        W52083  19.807  36.838   0.907
80413W        W52084   8.620  32.896   3.196
80414W        W52085   6.344  11.724   5.078
80415W        W52086   8.000  26.655  12.911
80416W        W52087  39.227   6.917   0.340
80417W        W52088   0.993  15.035   3.357
80418W        W52089  21.088  39.979   3.453
80419W        W52090  35.666   3.413  10.726
80420W        W52091  44.294   0.503  12.078
80421W        W52092   5.632   3.320   0.771
80422W        W52093  32.842   4.646   1.352
80423W        W52094  19.193  44.461  11.886
80424W        W52095  18.181  20.257  13.055
80425W        W52096  27.850   7.837  14.884
80426W        W52097   1.285  15.385   4.045
80427W        W52098  22.761   8.230   2.318
80428W        W52099  18.138   2.237  11.115
80429W        W52100  22.148  19.326  14.821
80430W        W52101  19.161  22.643   4.050
80431W        W52102  44.778  27.877   3.574
80432W        W52103  23.621  30.128  12.781
80433W        W52104  21.162  36.777  12.343
80434W        W52105  44.232  27.019  12.937
80435W        W52106  30.635  20.080  11.834
80436W        W52107   9.580  43.504   1.861
80437W        W52108  35.435  14.674  11.439
80438W        W52109  16.141  34.576   4.214
80439W        W52110  13.869  25.581   2.416
80440W        W52111   1.899  26.218   2.675
80441W        W52112  43.283  24.466   2.303
80442W        W52113  12.274  27.401   0.889
80443W        W52114   0.290  44.848  13.331
80444W        W52115  28.442   9.461   4.066
80445W        W52116  23.575  39.535  14.566
80446W        W52117  14.393  24.015   0.289
80447W        W52118  27.048  22.984  13.559
80448W        W52119  19.065  17.548  14.457
80449W        W52120  11.611   5.237   4.118
80450W        W52121  24.210   4.769  14.088
80451W        W52122  11.680  34.919   5.034
80452W        W52123  38.377   1.742  14.816
80453W        W52124  39.027  12.359   1.307
80454W        W52125  32.287   7.679  11.985
80455W        W52126  42.736  29.815  11.871
80456W        W52127  30.692   1.785  14.262
80457W        W52128  37.746  19.561   1.363
80458W        W52129   5.802  22.206  11.582
80459W        W52130  38.288  27.548   4.096
80460W        W52131  22.218  40.560   1.734
80461W        W52132   8.694   4.639   5.125
80462W        W52133  31.616  29.182   4.001
80463W        W52134  39.879  32.410   2.904
80464W        W52135  32.960   5.826  13.101
80465W        W52136  35.191  13.025  13.610
80466W        W52137  40.760  15.601   4.178
80467W        W52138  25.082   8.469  14.814
80468W        W52139  11.588  21.757   0.450
80469W        W52140  11.578  24.018  12.378
80470W        W52141  20.751  26.419   0.769
80471W        W52142  43.357  15.109  10.839
80472W        W52143  19.842  27.408  13.511
80473W        W52144  13.700  22.469  11.156
80474W        W52145  34.152  21.487   4.513
80475W        W52146  17.037  30.950  14.331
80476W        W52147  34.107   8.147  12.652
80477W        W52148  25.263   0.467  10.705
80478W        W52149  14.091  17.498  11.854
80479W        W52150   4.047   1.141  11.015
80480W        W52151  29.021   4.728  12.509
80481W        W52152  20.709   2.221   1.273
80482W        W52153  19.785  28.859   3.603
80483W        W52154  41.918  16.143   1.665
80484W        W52155  23.279  23.216   1.443
80485W        W52156  28.115  22.093   1.353
80486W        W52157   6.053  11.388  11.114
80487W        W52158  32.654  36.991   1.160
80488W        W52159  42.207  12.182   0.870
80489W        W52160  30.921  27.781  14.773
80490W        W52161  42.875  21.245   3.826
80491W        W52162  41.097  37.351  11.030
80492W        W52163  21.199   3.334  10.999
80493W        W52164   4.941   6.739   2.738
80494W        W52165   7.335   1.820  10.657
80495W        W52166  33.841  19.724   2.288
80496W        W52167  36.751  39.020  13.076
80497W        W52168  32.672  39.982  13.622
80498W        W52169  43.961  21.651   2.700
80499W        W52170  20.666  42.327  10.853
80500W        W52171   6.443   9.102   4.283
80501W        W52172  34.902  17.703   2.688
80502W        W52173  43.821   0.712   0.297
80503W        W52174  29.092   5.171   1.233
80504W        W52175  16.207  37.039  12.796
80505W        W52176   9.797  44.331   0.748
80506W        W52177  22.528  39.325   2.358
80507W        W52178  37.325  15.283   0.778
80508W        W52179  39.766  25.970  10.453
80509W        W52180  34.195  33.115  13.035
80510W        W52181  30.628  43.195  13.098
80511W        W52182   5.969  43.978   0.163
80512W        W52183   2.188  43.739   4.030
80513W        W52184  35.816  15.190   1.037
80514W        W52185  37.272  30.645   3.362
80515W        W52186  16.488   8.094  13.803
80516W        W52187   4.081  37.477  12.941
80517W        W52188  29.403  34.979  12.729
80518W        W52189  13.594  23.947   2.256
80519W        W52190   7.421  18.492  12.061
80520W        W52191  44.290   1.162   1.329
80521W        W52192   2.264  21.301  14.473
80522W        W52193   3.408  23.462   0.367
80523W        W52194   2.232  30.452  10.692
80524W        W52195   6.444  25.789  13.427
80525W        W52196   1.826  38.330  11.224
80526W        W52197  20.160  17.593  11.064
80527W        W52198  24.223  32.573  14.330
80528W        W52199  23.121  35.082  10.520
80529W        W52200  32.535  31.170   0.818
80530W        W52201  20.310  12.935  14.412
80531W        W52202   3.468  44.130   2.605
80532W        W52203  33.115  21.201   1.338
80533W        W52204  18.797  19.041   0.404
80534W        W52205   8.993  18.654   3.172
80535W        W52206  28.492  25.328   2.896
80536W        W52207  38.040  32.214  13.000
80537W        W52208  21.164   8.767   2.350
80538W        W52209  12.069  27.216  11.956
80539W        W52210  42.228  15.321  11.056
80540W        W52211  24.258  40.023  12.339
80541W        W52212  34.856  14.708  14.533
80542W        W52213  38.095  39.351   1.397
80543W        W52214   6.276  25.551  13.885
80544W        W52215  20.610  21.641   3.237
80545W        W52216  18.143  27.424   1.879
80546W        W52217   1.052   0.365  13.279
80547W        W52218  22.085   9.347  12.852
80548W        W52219  38.064  30.426   0.536
80549W        W52220  11.206  35.971  12.386
80550W        W52221  11.945  28.043   1.743
80551W        W52222  42.777  42.293   1.565
80552W        W52223  12.366  40.885  13.930
80553W        W52224  36.057  15.738  10.676
80554W        W52225  34.782   2.352  14.914
80555W        W52226  31.850  40.346  11.166
80556W        W52227  27.873  17.047  13.120
80557W        W52228  36.530   6.996  12.976
80558W        W52229  11.834   5.941  11.561
80559W        W52230  41.088  40.277   3.904
80560W        W52231  23.084  25.961  14.524
80561W        W52232  34.205  33.969   0.454
80562W        W52233   5.911   9.422  14.473
80563W        W52234  36.123  17.413   0.345
80564W        W52235   0.322  32.859   1.759
80565W        W52236   8.604   2.428   2.663
80566W        W52237  36.010   6.878   2.771
80567W        W52238  22.619  30.674  14.734
80568W        W52239  19.000  16.029  11.432
80569W        W52240  35.504  38.430  14.090
80570W        W52241  35.528  23.747  11.142
80571W        W52242  19.021   3.181  12.876
80572W        W52243  22.204  41.878   4.594
80573W        W52244  36.489   4.938  13.616
80574W        W52245  43.902  30.631   0.448
80575W        W52246  36.372  43.824  14.272
80576W        W52247   0.364  17.790   1.659
80577W        W52248  34.353  43.746   2.304
80578W        W52249  29.223   8.284  13.391
80579W        W52250  22.104   0.852   3.634
80580W        W52251  22.772  20.022  14.918
80581W        W52252   4.849  13.921  14.900
80582W        W52253  42.110  24.984  10.621
80583W        W52254  10.732  15.577  14.983
80584W        W52255  18.785  42.307  11.479
80585W        W52256  18.287  23.555  14.816
80586W        W52257  15.066  43.257  13.396
80587W        W52258  35.543  44.544  14.750
80588W        W52259  43.673  19.261   2.963
80589W        W52260  39.051  13.028  10.699
80590W        W52261   8.831  18.109  11.590
80591W        W52262  33.951  14.733  12.508
80592W        W52263  24.519  44.440  14.459
80593W        W52264  35.105  10.858  12.555
80594W        W52265  38.501  24.030  12.316
80595W        W52266  44.715   0.093  12.038
80596W        W52267  34.915  36.421   1.213
80597W        W52268  11.130  44.220   3.546
80598W        W52269  11.384   5.003  13.447
80599W        W52270  34.613  39.516  14.308
80600W        W52271  11.723  14.321   4.298
80601W        W52272   9.403  13.634  13.938
80602W        W52273  33.892   4.097  11.069
80603W        W52274  33.046  42.017   3.274
80604W        W52275  15.153   6.740  10.282
80605W        W52276  43.962  11.179   1.203
80606W        W52277  35.419   7.643  10.710
80607W        W52278  11.339  30.017   1.363
80608W        W52279  12.892  35.871  11.554
80609W        W52280  38.068  23.436  14.777
80610W        W52281  26.921  11.719   1.917
80611W        W52282   9.766  21.232   1.469
80612W        W52283   4.418  41.780   4.900
80613W        W52284  25.775   3.345   4.310
80614W        W52285   6.590  10.590   2.210
80615W        W52286   0.269  17.727  12.847
80616W        W52287  15.672   1.778   3.697
80617W        W52288   6.403  15.835  11.962
80618W        W52289   0.094  20.239  14.782
80619W        W52290  16.525  20.398   2.154
80620W        W52291  29.695  19.265   1.266
80621W        W52292   1.779  30.617   0.714
80622W        W52293  25.905  30.782  14.776
80623W        W52294  34.636  27.648   1.131
80624W        W52295  44.269  12.791   0.726
80625W        W52296  37.306  28.371  13.039
80626W        W52297  20.347  24.225   2.417
80627W        W52298  41.426  26.867   4.345
80628W        W52299  19.800  20.603  12.084
80629W        W52300   8.246  29.722  12.458
80630W        W52301  33.452  10.360  10.566
80631W        W52302  21.989  39.919   4.859
80632W        W52303  29.548  29.279   1.670
80633W        W52304  33.518  10.166   3.604
80634W        W52305  31.399  22.726   0.387
80635W        W52306   7.881  30.591  11.115
80636W        W52307  36.580   0.267   1.787
80637W        W52308  28.516  17.355   2.377
80638W        W52309   7.790  19.789   2.651
80639W        W52310  22.209  30.730  13.025
80640W        W52311  14.852  40.991  13.866
80641W        W52312   4.789  19.226   2.316
80642W        W52313   0.811  36.362  12.848
80643W        W52314  12.815  32.745   3.521
80644W        W52315   2.311  16.491   4.891
80645W        W52316  31.208  19.009   3.299
80646W        W52317  13.647   7.861   0.775
80647W        W52318  27.109  41.841   2.730
80648W        W52319  30.252   7.614  12.121
80649W        W52320  39.987  27.634   2.719
80650W        W52321  17.311   2.012  12.914
80651W        W52322  28.344  18.161   4.878
80652W        W52323  20.281  14.560   4.164
80653W        W52324  37.497  29.685   4.628
80654W        W52325  20.994  31.500  10.652
80655W        W52326  34.961  11.625   0.899
80656W        W52327  33.921  35.586  12.654
80657W        W52328   4.739  38.818  14.709
80658W        W52329  26.707  41.712  14.059
80659W        W52330  12.255  42.744   3.260
80660W        W52331  26.524   9.748  12.078
80661W        W52332  21.777  12.920   4.150
80662W        W52333  10.497  44.146   0.182
80663W        W52334  24.606  29.550  13.781
80664W        W52335   0.565  15.135   2.400
80665W        W52336  18.703  24.272   3.965
80666W        W52337  22.266  27.089  14.984
80667W        W52338  21.485  29.462  11.139
80668W        W52339  34.445  12.960   0.918
80669W        W52340  38.820  44.985   0.683
80670W        W52341  14.700  22.459  10.322
80671W        W52342   8.663  23.035   2.777
80672W        W52343  23.497  27.115   3.696
80673W        W52344  22.618  10.248  14.475
80674W        W52345  35.594   9.209   4.536
80675W        W52346  22.179  18.836   1.223
80676W        W52347  34.368  44.732  11.367
80677W        W52348  29.067   2.354   4.692
80678W        W52349  39.311  19.539  14.486
80679W        W52350  39.546  29.525   1.014
80680W        W52351  29.996  43.934  13.065
80681W        W52352  38.579  22.227   3.228
80682W        W52353  41.711  26.603   4.942
80683W        W52354  33.969  37.534  12.100
80684W        W52355  32.024  28.940   3.788
80685W        W52356  32.911  37.137   1.823
80686W        W52357   5.214   7.661  11.679
80687W        W52358  36.838  29.847  10.607
80688W        W52359  22.581  16.583  12.013
80689W        W52360  10.104  25.193   1.006
80690W        W52361  12.085  31.501   1.281
80691W        W52362  32.021  29.538   4.054
80692W        W52363  11.902   4.434  14.220
80693W        W52364  21.957  20.334   4.755
80694W        W52365  37.604  22.568  13.418
80695W        W52366  43.949  36.939   4.383
80696W        W52367  30.757  13.169   2.386
80697W        W52368  13.203   2.305  11.598
80698W        W52369  37.781  27.234   2.228
80699W        W52370  16.030   2.312   0.359
80700W        W52371  24.119   8.120   4.415
80701W        W52372  23.670  34.409  12.634
80702W        W52373  35.365  40.682   0.037
80703W        W52374  35.904  36.876   3.534
80704W        W52375  16.347   5.446  11.582
80705W        W52376  22.451  11.119  11.539
80706W        W52377  34.945  43.508   1.786
80707W        W52378   8.581  18.993  13.573
80708W        W52379  43.571  17.043   1.263
80709W        W52380   7.540  32.231  10.617
80710W        W52381   0.976  39.063   4.526
80711W        W52382  32.457  10.891   2.920
80712W        W52383   6.901  28.354   0.599
80713W        W52384  21.996  21.208  12.502
80714W        W52385  27.140  15.640  12.913
80715W        W52386  25.586  19.541  14.001
80716W        W52387  13.122   7.426   1.186
80717W        W52388  40.804  29.881  11.441
80718W        W52389  35.076  13.395  12.364
80719W        W52390  23.500  32.973  14.421
80720W        W52391  11.213  40.906   1.237
80721W        W52392  15.459  41.317   9.982
80722W        W52393  38.272  31.073  14.906
80723W        W52394  11.593   0.125   0.302
80724W        W52395  35.953  18.975   1.279
80725W        W52396  11.635  35.799   1.862
80726W        W52397  30.631  10.436   2.861
80727W        W52398   7.226  14.887  13.797
80728W        W52399  26.275   2.715  12.388
80729W        W52400  18.343  27.533   2.342
80730W        W52401  40.070  43.003   3.821
80731W        W52402   2.358  18.309   2.799
80732W        W52403  18.306   3.505  11.205
80733W        W52404  29.192  19.129   1.238
80734W        W52405  23.688  24.717   3.791
80735W        W52406  36.130   0.317   4.027
80736W        W52407  18.287   1.312   2.747
80737W        W52408   1.976  25.034   3.218
80738W        W52409  43.520  44.828   0.802
80739W        W52410  14.060  10.753   1.679
80740W        W52411  43.255  44.407   2.429
80741W        W52412  36.318  27.728  10.448
80742W        W52413   3.375  26.483  10.664
80743W        W52414  17.586  42.361  11.970
80744W        W52415  18.347   7.347  11.453
80745W        W52416  20.655  25.092   0.543
80746W        W52417  17.634  18.680   4.123
80747W        W52418  36.918  40.477  10.401
80748W        W52419   8.689   4.764   3.105
80749W        W52420  14.160  39.553  10.513
80750W        W52421   2.531  12.709  10.642
80751W        W52422  31.221  21.504   2.218
80752W        W52423  18.698  34.574  11.175
80753W        W52424   0.262   9.820   3.310
80754W        W52425  37.283   6.868  11.764
80755W        W52426  24.630   1.745   3.851
80756W        W52427  26.697  26.060   2.843
80757W        W52428  42.427  21.884   2.716
80758W        W52429  41.058  15.549  14.600
80759W        W52430  32.072  25.038   2.352
80760W        W52431  14.679  11.223  14.329
80761W        W52432  21.767   1.306   4.175
80762W        W52433   3.244  42.750   0.858
80763W        W52434  44.393  23.701   5.039
80764W        W52435  34.896   6.335  12.941
80765W        W52436  33.741   5.215  13.891
80766W        W52437  23.489  12.735   4.935
80767W        W52438   7.488  34.201   4.509
80768W        W52439  14.060  40.755   2.200
80769W        W52440  12.607   1.997  12.106
80770W        W52441   8.924   7.367   0.346
80771W        W52442   2.043  27.882   1.787
80772W        W52443  42.409  12.836   0.211
80773W        W52444  30.122  36.596  13.595
80774W        W52445  23.497  28.213   0.236
80775W        W52446   2.652  20.073  10.662
80776W        W52447  29.184  28.025   1.269
80777W        W52448  11.244   1.997   0.376
80778W        W52449   5.732  17.516  10.638
80779W        W52450   9.969  25.714  12.867
80780W        W52451  29.488  31.983  11.090
80781W        W52452   3.995  19.709   0.216
80782W        W52453  36.036  38.950  11.027
80783W        W52454  37.632  41.818  10.756
80784W        W52455   4.852   1.248  12.083
80785W        W52456  10.313   5.621   2.586
80786W        W52457  42.009  12.299  12.474
80787W        W52458  26.939  14.009  12.437
80788W        W52459   9.254  30.737   1.250
80789W        W52460  24.540  14.038   0.915
80790W        W52461  19.713  25.982  14.069
80791W        W52462  35.446  24.176  14.333
80792W        W52463  10.829   6.911   2.811
80793W        W52464   8.251  10.746   3.273
80794W        W52465  43.945  25.725   4.419
80795W        W52466   8.780  18.476  10.117
80796W        W52467  36.326   9.724   0.957
80797W        W52468  16.313   7.348  13.359
80798W        W52469  14.379  14.810  14.041
80799W        W52470   8.415  11.310   1.471
80800W        W52471   5.860  35.354   2.243
80801W        W52472  20.085  23.974   2.809
80802W        W52473  22.265  16.970  14.448
80803W        W52474  26.777  40.997  10.793
80804W        W52475   2.788  36.463  13.941
80805W        W52476   5.855  29.469  11.518
80806W        W52477  16.605  34.431  12.866
80807W        W52478  10.228  31.514  14.937
80808W        W52479   9.830   9.822  14.772
80809W        W52480  18.581  32.964  14.915
80810W        W52481  35.894  15.616  12.464
80811W        W52482  24.772  26.188  14.083
80812W        W52483  13.970  42.907   1.942
80813W        W52484  42.734   1.158   2.254
80814W        W52485  36.101  43.741  12.504
80815W        W52486  41.021  33.446  11.686
80816W        W52487  22.239  44.787  11.052
80817W        W52488   5.394  11.021  14.051
80818W        W52489   0.831  36.128   2.439
80819W        W52490  38.015  37.092   0.853
80820W        W52491   5.437  36.103  13.839
80821W        W52492  15.747   7.876  10.283
80822W        W52493  44.458  23.727  12.058
80823W        W52494  14.253   1.478   3.337
80824W        W52495  17.258  11.035   2.693
80825W        W52496  35.761  26.702   0.657
80826W        W52497  13.376  15.610  13.446
80827W        W52498  19.310  15.067  12.518
80828W        W52499  25.619  40.554   0.455
80829W        W52500  39.454  35.168   3.659
80830W        W52501  19.057  30.866   2.301
80831W        W52502  23.171   1.894   0.980
80832W        W52503   5.727  30.199   1.821
80833W        W52504  26.054  19.770   3.848
80834W        W52505  21.126  12.361   1.203
80835W        W52506  44.524   8.880  11.405
80836W        W52507  20.281  25.632  13.476
80837W        W52508  39.721  11.164  11.581
80838W        W52509  27.902  18.838   0.210
80839W        W52510   3.030  37.473   2.685
80840W        W52511  36.495  11.099  12.324
80841W        W52512  42.307  31.610  14.444
80842W        W52513   5.831  32.930  10.692
80843W        W52514  37.064  36.857  13.365
80844W        W52515  12.641  21.461  11.048
80845W        W52516   8.160   4.821  12.184
80846W        W52517  31.801  30.520   0.238
80847W        W52518  24.045   5.659  11.609
80848W        W52519  17.543  16.503   1.263
80849W        W52520  41.515  16.729  13.885
80850W        W52521  35.958  20.317  12.840
80851W        W52522  30.326  14.033  12.982
80852W        W52523  28.872  29.320   1.037
80853W        W52524  41.809  22.390  10.665
80854W        W52525   2.822   4.335   3.449
80855W        W52526  41.636  39.330  12.133
80856W        W52527  38.358   4.244  14.985
80857W        W52528  43.871   5.123   1.880
80858W        W52529  35.858   2.710  14.402
80859W        W52530   6.316  36.103   4.182
80860W        W52531  15.052   2.439   3.700
80861W        W52532  40.415  15.085   3.161
80862W        W52533  23.601  12.485  13.035
80863W        W52534   4.395  35.335  13.363
80864W        W52535  37.621  38.119  12.000
80865W        W52536  44.521  13.746   5.489
80866W        W52537  15.750  14.119   0.336
80867W        W52538  21.461  31.168   2.622
80868W        W52539  16.146  36.597  10.696
80869W        W52540  15.708  31.902  13.355
80870W        W52541   0.369  10.671  11.081
80871W        W52542  38.294  12.771  12.622
80872W        W52543  35.046  34.743   1.308
80873W        W52544  26.527   1.425  11.162
80874W        W52545  22.566  37.832  12.458
80875W        W52546  43.275  43.932   2.754
80876W        W52547   3.343  13.538  12.871
80877W        W52548  17.563  11.754   0.245
80878W        W52549  27.029  12.946   4.502
80879W        W52550  19.257   0.431   3.697
80880W        W52551  31.502  23.054   3.323
80881W        W52552  31.978   3.706   1.952
80882W        W52553  31.983  17.346  14.194
80883W        W52554  28.668  10.068   0.675
80884W        W52555   5.306   4.417   2.240
80885W        W52556  37.304  16.429  11.818
80886W        W52557   3.519   8.845  12.976
80887W        W52558  25.697   8.583  10.265
80888W        W52559  22.546  25.422  12.476
80889W        W52560  21.190  43.553   0.808
80890W        W52561  41.489   8.148   3.701
80891W        W52562  26.471   2.857  11.652
80892W        W52563   2.361  14.941  11.038
80893W        W52564  21.547   5.912   4.122
80894W        W52565  18.728  10.123  13.244
80895W        W52566  15.250   0.038  12.992
80896W        W52567  36.831  30.687   2.806
80897W        W52568  34.488  13.098  10.549
80898W        W52569   8.127  26.225   3.621
80899W        W52570  36.540  14.371   4.611
80900W        W52571   3.499   3.361   1.435
80901W        W52572  41.567  31.426  12.515
80902W        W52573  27.803  26.504  11.255
80903W        W52574  11.664  25.648  10.659
80904W        W52575  27.410  41.001  13.480
80905W        W52576   2.947  16.704  11.095
80906W        W52577  26.996   5.948   0.382
80907W        W52578  41.327   4.859   4.604
80908W        W52579  15.600  43.017   2.608
80909W        W52580   2.913  37.314  12.052
80910W        W52581  44.959  16.018   4.047
80911W        W52582  18.645  37.082   3.323
80912W        W52583  28.867  33.820   2.087
80913W        W52584  44.442  11.556  13.280
80914W        W52585  28.165  35.609  12.928
80915W        W52586  12.889  36.616  13.446
80916W        W52587  29.957   9.724   3.777
80917W        W52588  26.073  33.093  11.754
80918W        W52589  10.168  20.495   2.291
80919W        W52590  10.620  38.779  12.718
80920W        W52591  12.420  41.372  11.440
80921W        W52592   2.699  29.594  12.162
80922W        W52593  29.581  34.990   0.467
80923W        W52594  43.722  26.253  12.574
80924W        W52595  40.810  39.984   1.382
80925W        W52596  40.507  37.519   4.916
80926W        W52597  16.680  11.589   0.803
80927W        W52598  38.104  25.117  11.516
80928W        W52599  17.672   5.244   1.982
80929W        W52600  23.111   4.927   3.587
80930W        W52601  19.260  42.461   1.633
80931W        W52602   2.193  43.795  11.480
80932W        W52603  21.298  19.630  10.938
80933W        W52604  18.195   3.194   0.538
80934W        W52605  31.677  44.288   0.129
80935W        W52606   8.874  13.147  11.734
80936W        W52607   9.233  16.770  13.996
80937W        W52608  12.758  19.308   2.666
80938W        W52609   2.331  27.607  12.488
80939W        W52610  24.719   3.323   0.051
80940W        W52611  11.991   9.845   2.841
80941W        W52612  40.322  17.345  12.376
80942W        W52613  21.222  42.138   3.750
80943W        W52614  36.788  27.041  10.694
80944W        W52615  21.056  27.989  13.481
80945W        W52616  18.017  10.334  10.985
80946W        W52617  16.371  19.138   3.915
80947W        W52618   1.374  32.822   2.409
80948W        W52619  40.053  10.574   0.277
80949W        W52620   0.368   0.690   0.419
80950W        W52621  19.048  16.865  11.162
80951W        W52622   5.264   6.190  10.564
80952W        W52623  21.270  40.887  11.598
80953W        W52624   4.401  21.575   1.256
80954W        W52625   3.812  41.414  14.746
80955W        W52626   5.105  41.228  11.423
80956W        W52627  15.930   1.733  11.390
80957W        W52628  20.094  29.687   4.777
80958W        W52629  32.456  20.315  11.625
80959W        W52630   3.502  12.373   1.447
80960W        W52631   9.617  35.831   1.859
80961W        W52632   7.669   4.788   1.302
80962W        W52633  42.624   0.915   2.720
80963W        W52634   5.310   8.181  12.214
80964W        W52635  42.561  10.818  14.334
80965W        W52636  33.141   7.423   0.794
80966W        W52637   3.657   2.738   1.063
80967W        W52638  36.422  36.868   9.779
80968W        W52639  12.917  12.772  12.338
80969W        W52640   3.292  32.563  14.545
80970W        W52641  23.666   4.225   2.783
80971W        W52642   5.606  30.845   4.276
80972W        W52643   5.409  26.633   2.813
80973W        W52644  31.624  17.629   1.355
80974W        W52645  24.308  41.370  11.463
80975W        W52646  24.118  41.297   2.715
80976W        W52647   8.689  28.187  14.886
80977W        W52648  13.533  21.050   1.429
80978W        W52649   1.827   1.061   4.297
80979W        W52650   4.034  24.671   1.671
80980W        W52651  15.675   4.902  12.538
80981W        W52652  22.082  42.039  14.118
80982W        W52653  20.781  31.741  14.204
80983W        W52654  10.770  33.877  13.738
80984W        W52655  38.425   7.480   0.859
80985W        W52656  24.031   5.711  10.710
80986W        W52657  39.709  42.254   4.255
80987W        W52658   4.681  14.045   4.619
80988W        W52659  27.045  39.521  12.802
80989W        W52660  20.729   8.004   3.796
80990W        W52661  16.987  28.584   3.857
80991W        W52662  22.234  25.903  14.305
80992W        W52663  27.003  34.436  11.236
80993W        W52664   6.580  25.152   1.960
80994W        W52665   3.702   4.969  12.546
80995W        W52666  42.997   1.498  13.360
80996W        W52667  28.106  14.105  11.594
80997W        W52668  40.019   7.212  10.481
80998W        W52669  37.850  10.281   3.593
80999W        W52670  21.980  28.153   0.751
81000W        W52671  42.286  10.945  10.171
81001W        W52672  32.593  34.068  13.886
81002W        W52673  38.591  39.495  10.795
81003W        W52674   1.544  26.269   4.122
81004W        W52675  44.261  34.857  12.010
81005W        W52676   5.762   3.285   3.446
81006W        W52677  16.637   3.305  14.693
81007W        W52678  22.231  36.420   3.179
81008W        W52679  16.366  18.696  11.730
81009W        W52680  30.218  26.129  10.647
81010W        W52681  40.500  42.352   3.339
81011W        W52682  17.956   5.573   5.361
81012W        W52683  24.868  31.793  11.685
81013W        W52684  31.668  16.678   2.265
81014W        W52685  44.471   0.598  10.317
81015W        W52686   8.287  38.940   0.375
81016W        W52687  22.126  38.157  12.445
81017W        W52688  31.564  34.876  12.072
81018W        W52689  19.198   7.585  11.539
81019W        W52690  23.498  10.823   4.118
81020W        W52691   0.870  21.949  14.809
81021W        W52692  44.888  36.889  12.879
81022W        W52693  36.371   0.604  14.813
81023W        W52694  44.345  36.468   2.907
81024W        W52695  31.057   6.735   3.059
81025W        W52696  44.920  35.889  12.027
81026W        W52697  23.012  20.141  10.833
81027W        W52698  34.262  31.667   5.056
81028W        W52699   8.741  31.914   4.561
81029W        W52700  19.332  44.953  13.693
81030W        W52701  35.118  18.605   0.805
81031W        W52702   9.991  34.542   2.295
81032W        W52703  42.031  15.140   2.215
81033W        W52704  32.963  23.563   2.191
81034W        W52705  11.308  15.403  12.591
81035W        W52706  36.363   9.825   3.323
81036W        W52707  41.336  23.118  12.937
81037W        W52708  13.000  13.034   2.781
81038W        W52709  35.342  25.106  11.072
81039W        W52710  41.372  21.668   1.571
81040W        W52711  33.017   5.888  12.134
81041W        W52712  13.844  42.955  11.170
81042W        W52713  36.081  33.661  12.131
81043W        W52714  32.653  40.057   2.451
81044W        W52715  34.629   5.887  10.699
81045W        W52716  14.199   4.365  10.670
81046W        W52717  39.859  37.389   0.019
81047W        W52718  40.077  15.572  12.666
81048W        W52719  22.100  13.120   4.636
81049W        W52720  21.313  43.803   4.037
81050W        W52721   0.833  34.488  14.609
81051W        W52722   3.780  15.080   0.165
81052W        W52723  40.396  13.672  11.419
81053W        W52724  26.748  39.199   0.941
81054W        W52725   9.245  17.118  12.056
81055W        W52726  39.115  39.439   5.057
81056W        W52727  10.340  33.440   1.836
81057W        W52728  19.193  27.533  14.857
81058W        W52729  39.313  33.841  14.312
81059W        W52730  27.617  18.124   0.931
81060W        W52731  26.566   2.252   4.513
81061W        W52732  39.211  33.319   9.888
81062W        W52733   7.706  39.542  13.448
81063W        W52734  26.443   0.413   4.109
81064W        W52735   2.703  41.905  10.656
81065W        W52736   7.921  29.129  12.085
81066W        W52737   4.875   8.532   3.040
81067W        W52738  36.458  42.924   3.076
81068W        W52739  41.104  15.326   3.905
81069W        W52740  29.479  43.311  14.841
81070W        W52741  18.565   4.941  14.476
81071W        W52742  28.463  29.586   1.234
81072W        W52743  32.050   0.974   2.838
81073W        W52744   3.276  42.470  13.754
81074W        W52745  19.211  40.513  14.888
81075W        W52746  38.095  29.557   1.035
81076W        W52747  19.178  23.131   2.795
81077W        W52748  41.471  16.714   4.493
81078W        W52749  31.079  33.408   0.951
81079W        W52750  17.225  40.611   1.312
81080W        W52751  37.066  19.805  13.389
81081W        W52752  19.014   0.936   0.466
81082W        W52753  15.641   4.318   5.035
81083W        W52754  42.556  22.564   1.307
81084W        W52755  39.049  24.291  13.536
81085W        W52756   8.211  13.018   3.172
81086W        W52757  40.797   6.358   3.198
81087W        W52758  17.229  36.320   2.644
81088W        W52759  43.702  11.785  14.018
81089W        W52760   5.226   1.534   2.226
81090W        W52761   5.154  23.535  13.132
81091W        W52762  41.813   6.652   1.536
81092W        W52763  24.542  34.835   0.695
81093W        W52764   3.250  31.869  13.336
81094W        W52765  34.972  28.599   1.492
81095W        W52766  42.886   1.488  14.775
81096W        W52767  15.752  15.693   3.456
81097W        W52768  31.161  32.530   2.278
81098W        W52769  21.326  24.195   3.266
81099W        W52770  40.366  20.172  10.427
81100W        W52771  36.602  16.306  12.668
81101W        W52772  20.658   4.153  14.191
81102W        W52773  27.799  35.150  14.894
81103W        W52774  18.780   4.204  12.806
81104W        W52775  14.551  31.185   1.014
81105W        W52776  35.542  44.288  11.212
81106W        W52777   9.521  32.498  13.257
81107W        W52778  44.906   2.921  10.504
81108W        W52779  34.686  25.170  14.687
81109W        W52780  18.347  11.666  13.170
81110W        W52781   9.970  41.286   4.149
81111W        W52782  22.630  34.084   1.312
81112W        W52783   2.655  30.722  10.812
81113W        W52784  11.227  22.384   0.358
81114W        W52785  19.656  13.159  10.538
81115W        W52786   6.787  39.536   3.601
81116W        W52787   8.148  13.071   1.721
81117W        W52788   5.609  23.655  10.860
81118W        W52789  37.790  31.068   2.973
81119W        W52790  16.692   4.823  12.875
81120W        W52791  13.888  34.889   4.211
81121W        W52792  35.180  41.427   3.311
81122W        W52793  31.539   5.902   0.946
81123W        W52794  41.506  42.383   3.284
81124W        W52795  11.259  32.119  12.034
81125W        W52796  21.205   4.212  14.920
81126W        W52797  10.609   0.105   4.234
81127W        W52798  44.235  17.767   1.180
81128W        W52799  10.689  37.896  14.757
81129W        W52800  39.107  12.635   2.921
81130W        W52801  42.767  21.268   5.492
81131W        W52802  33.128  32.621  11.480
81132W        W52803   3.388  44.353  12.565
81133W        W52804  34.141  16.509  13.339
81134W        W52805  30.654  11.343   2.704
81135W        W52806  43.881  30.565   4.636
81136W        W52807  20.780  40.549  11.624
81137W        W52808  30.732   8.465   2.587
81138W        W52809  36.927  16.993   3.717
81139W        W52810  10.571  31.647  13.523
81140W        W52811   9.823  36.542  12.436
81141W        W52812  27.520  10.138   0.484
81142W        W52813   9.203  11.642  13.590
81143W        W52814   8.384  27.597  11.390
81144W        W52815  12.882  28.127   1.488
81145W        W52816  14.384  44.179   2.476
81146W        W52817  35.018  25.480   1.030
81147W        W52818  44.307  38.835   0.327
81148W        W52819  28.387   8.656   0.494
81149W        W52820  28.884  43.566  13.017
81150W        W52821  26.255  20.100  13.008
81151W        W52822  16.688  33.130  14.476
81152W        W52823  13.745   7.353  10.918
81153W        W52824   0.940  13.150   3.852
81154W        W52825  27.201  25.547  11.581
81155W        W52826  14.648   4.833   0.826
81156W        W52827   3.318  38.088  14.945
81157W        W52828   7.417  22.010  11.774
81158W        W52829  16.867  21.203  13.753
81159W        W52830   8.679  39.993   2.353
81160W        W52831  21.059  10.806   2.193
81161W        W52832  23.171  36.416  14.383
81162W        W52833  30.707  32.599   0.954
81163W        W52834   5.371  24.751  11.176
81164W        W52835  19.654  40.337   1.754
81165W        W52836  40.357  40.728   2.383
81166W        W52837   0.839  38.938  14.088
81167W        W52838  30.026  39.048  13.073
81168W        W52839   6.408  32.622  11.910
81169W        W52840  20.029  40.391  13.923
81170W        W52841  19.079  26.984  12.508
81171W        W52842  41.664  12.148   1.901
81172W        W52843  38.597  20.154  12.549
81173W        W52844  20.639  12.041  10.218
81174W        W52845  17.263  36.357  12.182
81175W        W52846  31.936  26.304  11.944
81176W        W52847  44.906  17.259   2.296
81177W        W52848  41.744  37.842   3.699
81178W        W52849   8.399   2.354   0.241
81179W        W52850   8.694  15.831   2.673
81180W        W52851  15.651  44.193  12.454
81181W        W52852  32.986  24.764  11.442
81182W        W52853  16.821   8.701  12.433
81183W        W52854  23.398  22.515  12.004
81184W        W52855   9.644  11.356  12.877
81185W        W52856   0.524   0.453  10.693
81186W        W52857  41.591  17.653  12.002
81187W        W52858  14.711  42.710   0.326
81188W        W52859  25.322  19.252   2.421
81189W        W52860  24.737   0.892  14.372
81190W        W52861   8.357   5.097   0.267
81191W        W52862  21.351  10.521  14.906
81192W        W52863   4.764  29.245  13.828
81193W        W52864  28.678  14.362  13.426
81194W        W52865  25.113  19.551   1.873
81195W        W52866  24.562  35.147  14.350
81196W        W52867   1.204   9.385  12.072
81197W        W52868  18.109   2.403   1.011
81198W        W52869  28.329  36.997  10.754
81199W        W52870  43.497  28.690  13.096
81200W        W52871  44.716  25.881  13.914
81201W        W52872  13.318   0.654  13.918
81202W        W52873   7.773  10.651  11.593
81203W        W52874  37.832  32.882   1.927
81204W        W52875  25.146  28.461  13.872
81205W        W52876  29.397   4.945   2.694
81206W        W52877  23.336  28.399  11.067
81207W        W52878  11.381  26.586  11.834
81208W        W52879   0.090  11.700   0.062
81209W        W52880  39.835  33.316   4.718
81210W        W52881  35.252   4.332   0.989
81211W        W52882  27.759  36.099  11.208
81212W        W52883   5.486   3.138   4.146
81213W        W52884  15.742   1.902   3.202
81214W        W52885  13.611  44.777   3.526
81215W        W52886  41.536  20.173  11.189
81216W        W52887   0.385  17.092   4.910
81217W        W52888   0.577  14.567  14.764
81218W        W52889  23.708  37.562  12.071
81219W        W52890  26.153  39.874   3.370
81220W        W52891  35.408  37.617  12.705
81221W        W52892  43.274  37.469   0.514
81222W        W52893  17.543   5.881  11.325
81223W        W52894  28.990   2.073  11.283
81224W        W52895  26.911  20.761   2.211
81225W        W52896  19.607  14.570   4.055
81226W        W52897  25.066   1.921   4.122
81227W        W52898   0.798  18.311   1.638
81228W        W52899  18.271  10.857  12.092
81229W        W52900  11.736  36.449  10.014
81230W        W52901  17.737   6.653   4.209
81231W        W52902   0.044  38.451   0.717
81232W        W52903  14.965   6.603   2.451
81233W        W52904  13.073  29.077  11.893
81234W        W52905  36.621  36.222   3.669
81235W        W52906  29.839  28.882   3.122
81236W        W52907  15.838  10.136   3.193
81237W        W52908   9.249  32.063   3.200
81238W        W52909  10.246   9.470   3.277
81239W        W52910   6.791   5.724  13.872
81240W        W52911  21.608  14.048   0.367
81241W        W52912  39.094   1.723   4.650
81242W        W52913  31.611   0.909   3.114
81243W        W52914  32.935  36.975  14.969
81244W        W52915  24.954  23.184   0.724
81245W        W52916  38.526   4.865   4.189
81246W        W52917  27.578  27.939  11.970
81247W        W52918  11.919  32.272   3.198
81248W        W52919  44.564  24.219  13.383
81249W        W52920   4.626   2.475   0.683
81250W        W52921  13.815   0.533  13.883
81251W        W52922  18.986  21.972  14.534
81252W        W52923   8.263  31.138  13.983
81253W        W52924   9.769  30.021   1.259
81254W        W52925  10.268  16.114  10.660
81255W        W52926   0.877   4.790  10.640
81256W        W52927  29.482  23.541   4.712
81257W        W52928  44.254  31.720  13.352
81258W        W52929  44.736   3.487   0.813
81259W        W52930  33.596  33.391   2.725
81260W        W52931   3.101  19.552   1.776
81261W        W52932  42.927   9.860   1.738
81262W        W52933  15.537   2.256   0.494
81263W        W52934   4.735  24.963   2.369
81264W        W52935  13.562  12.101  11.458
81265W        W52936   5.714  31.845   4.190
81266W        W52937  20.568  34.691   0.601
81267W        W52938   2.335  38.858  12.790
81268W        W52939  31.516  12.522  11.211
81269W        W52940  18.722  33.496  12.595
81270W        W52941  39.955  34.938  13.234
81271W        W52942   5.730  21.706  11.473
81272W        W52943  44.981  34.461  11.113
81273W        W52944  19.849  26.064   4.637
81274W        W52945  12.655  12.586   1.108
81275W        W52946  12.338   4.714   1.309
81276W        W52947   8.837  34.574   3.890
81277W        W52948  34.004  26.480   1.638
81278W        W52949   6.263  21.473   3.694
81279W        W52950  11.713  10.143  11.735
81280W        W52951  33.527   7.621   5.011
81281W        W52952  41.247  42.129   0.854
81282W        W52953  23.837  15.583   1.746
81283W        W52954  13.859  41.966   3.783
81284W        W52955  37.823  31.393   3.365
81285W        W52956   0.411  29.639  14.919
81286W        W52957  17.980  11.287   3.294
81287W        W52958  39.595   1.704   3.743
81288W        W52959  10.921  38.450   4.105
81289W        W52960   0.743   7.778  13.007
81290W        W52961  19.398  22.036  13.312
81291W        W52962   6.871  33.695   3.810
81292W        W52963  22.769  18.667   0.749
81293W        W52964  32.950  23.151  13.765
81294W        W52965  18.144  40.383  13.981
81295W        W52966   7.142  15.510  11.591
81296W        W52967  25.483   8.383  14.013
81297W        W52968  30.636  27.564   3.314
81298W        W52969   0.542  19.260  12.856
81299W        W52970  39.071  18.870   1.456
81300W        W52971  18.104   5.664  11.948
81301W        W52972  15.122  21.276   3.401
81302W        W52973  27.051  13.698  10.453
81303W        W52974   3.318  43.964  11.157
81304W        W52975  15.377   2.246   3.330
81305W        W52976  18.307  41.234  12.965
81306W        W52977  19.369  12.375   2.160
81307W        W52978   1.029  24.585   2.680
81308W        W52979  17.664   6.444   3.414
81309W        W52980  44.444  36.593   1.460
81310W        W52981  19.666  15.213   4.547
81311W        W52982   5.902  41.764   2.245
81312W        W52983   9.863  17.751  11.221
81313W        W52984  11.829  37.547  14.454
81314W        W52985  29.839  33.837  13.535
81315W        W52986  36.952  27.998  12.932
81316W        W52987  22.899   3.794  14.347
81317W        W52988  44.511  39.302   1.208
81318W        W52989  42.884  27.774  14.777
81319W        W52990   4.420  42.917   2.522
81320W        W52991   6.871  35.753   1.676
81321W        W52992   8.505  24.252   4.420
81322W        W52993  44.817  22.051  13.091
81323W        W52994  29.987   9.366  13.114
81324W        W52995  12.153  21.252  13.425
81325W        W52996  33.569  16.150  10.659
81326W        W52997  34.478  43.842  10.476
81327W        W52998  25.552   7.109   1.053
81328W        W52999  19.150   0.983   2.264
81329W        W53000  32.119  40.253  12.125
81330W        W53001  12.130  41.830  14.427
81331W        W53002  38.946  25.000   0.690
81332W        W53003  41.020  27.216   0.169
81333W        W53004  12.132   2.120  11.431
81334W        W53005   7.295   8.814   3.770
81335W        W53006  12.568  30.619  10.724
81336W        W53007  44.474  27.149   1.301
81337W        W53008   3.021  13.268  11.934
81338W        W53009  36.334  17.271  11.126
81339W        W53010  28.982  37.821  12.114
81340W        W53011   2.224  36.391   2.154
81341W        W53012  38.949  31.387  13.553
81342W        W53013  17.307  32.645  10.887
81343W        W53014  14.626  15.584  10.983
81344W        W53015  33.126  11.130   2.649
81345W        W53016  15.612  16.892   2.897
81346W        W53017  43.841  21.977  10.240
81347W        W53018  10.079  43.518  10.431
81348W        W53019  30.750   8.239  11.643
81349W        W53020   3.348  12.723   4.590
81350W        W53021  38.627  32.084   3.677
81351W        W53022  41.374  17.104   0.254
81352W        W53023  31.483  26.012   0.879
81353W        W53024   7.694  28.321  13.963
81354W        W53025   9.291  33.149   3.858
81355W        W53026  40.567   8.960  14.247
81356W        W53027  33.348  19.193   4.533
81357W        W53028  21.066   8.356  12.646
81358W        W53029  41.143  28.972   2.717
81359W        W53030  11.689  16.768   2.138
81360W        W53031  36.898  32.658  13.708
81361W        W53032  25.491   1.776  13.168
81362W        W53033  38.246  21.339   4.050
81363W        W53034  34.164  34.550   2.386
81364W        W53035  28.355   7.793   0.529
81365W        W53036   0.816  36.144   4.623
81366W        W53037  30.391   5.212   1.116
81367W        W53038  33.360   7.425   0.226
81368W        W53039   5.780   8.671  10.546
81369W        W53040  42.041  26.979   1.834
81370W        W53041  23.750  19.405  12.893
81371W        W53042  15.845   2.658  11.167
81372W        W53043  28.465  41.878   2.288
81373W        W53044  29.904  38.519  14.903
81374W        W53045  31.630  24.542  14.886
81375W        W53046   0.072  33.500   3.573
81376W        W53047  10.702  18.575   4.219
81377W        W53048  39.430  33.948  14.821
81378W        W53049  20.808  26.276   3.761
81379W        W53050  32.912  33.505  11.390
81380W        W53051   8.006  29.844  13.312
81381W        W53052  19.189  14.090  14.409
81382W        W53053  31.051  35.923   0.759
81383W        W53054  12.365  21.127  10.733
81384W        W53055  28.251  24.781   0.243
81385W        W53056  28.267  10.404   0.762
81386W        W53057  16.726  34.606   0.202
81387W        W53058  30.494  39.072  11.058
81388W        W53059  13.217  23.356  14.981
81389W        W53060   8.753   5.391  14.355
81390W        W53061  34.804  40.668   0.853
81391W        W53062  40.508  35.886  13.494
81392W        W53063  32.052  41.884   0.428
81393W        W53064   8.825   8.386   2.410
81394W        W53065   8.907  39.865   1.910
81395W        W53066  25.061  29.354   4.805
81396W        W53067  31.156  25.990  12.567
81397W        W53068  31.459  12.786   0.359
81398W        W53069  35.914  23.635  12.965
81399W        W53070   0.809  21.246  13.773
81400W        W53071  35.510  20.126  12.340
81401W        W53072  43.993  29.540  10.609
81402W        W53073   4.759  41.557  12.877
81403W        W53074  20.576  43.900   1.786
81404W        W53075  13.162  36.120   3.276
81405W        W53076  33.005  37.714  11.874
81406W        W53077  37.615  24.163   2.236
81407W        W53078  30.055  44.022   4.534
81408W        W53079  25.904  31.931   0.861
81409W        W53080  18.570  34.916   0.743
81410W        W53081  35.402  18.806   4.834
81411W        W53082   8.263   5.448   3.286
81412W        W53083  17.164   3.829  12.052
81413W        W53084  14.852  17.078  11.600
81414W        W53085  28.034  22.648  10.270
81415W        W53086  27.596  23.536  11.078
81416W        W53087  38.005  17.226  11.835
81417W        W53088  28.068  33.859  11.874
81418W        W53089  22.432  39.700   1.965
81419W        W53090  29.597  26.624  12.752
81420W        W53091   5.820   5.242   3.281
81421W        W53092  10.209  41.475  14.766
81422W        W53093  34.855  21.437  11.124
81423W        W53094  32.078  34.354   0.844
81424W        W53095   4.356  37.087  14.818
81425W        W53096  36.346  16.335  11.040
81426W        W53097  11.660  27.493  14.464
81427W        W53098  33.608  24.848  14.437
81428W        W53099   0.144  20.649   4.632
81429W        W53100  13.790  40.079  11.003
81430W        W53101  43.545  18.182   5.062
81431W        W53102  24.875  12.238   2.189
81432W        W53103  22.379  39.780   2.975
81433W        W53104  43.765  11.848   4.260
81434W        W53105  28.987  22.259   4.795
81435W        W53106  26.250  41.268  14.741
81436W        W53107  42.681   9.202   4.946
81437W        W53108   9.350   4.305   3.672
81438W        W53109  34.038  16.674   4.434
81439W        W53110  14.594  39.318   2.924
81440W        W53111  25.717  13.612   0.251
81441W        W53112   6.638  43.700   1.356
81442W        W53113  22.866  36.454   0.219
81443W        W53114  33.007  36.133   1.388
81444W        W53115   5.297   7.199  11.992
81445W        W53116  18.196  33.942   1.388
81446W        W53117  28.070   7.237   3.680
81447W        W53118  38.449  11.159  12.620
81448W        W53119  12.465  34.461   3.154
81449W        W53120  39.282  33.493  10.700
81450W        W53121  18.130  14.844  11.966
81451W        W53122  11.874  34.916   4.206
81452W        W53123  44.432  23.468  11.583
81453W        W53124  16.597   0.464   3.140
81454W        W53125  29.008  41.616  12.109
81455W        W53126  16.031  33.796  13.801
81456W        W53127  10.287  35.600   4.554
81457W        W53128  25.000  14.874   2.788
81458W        W53129  38.319  16.722  11.990
81459W        W53130  34.290  15.070  12.824
81460W        W53131  21.224  43.816  13.641
81461W        W53132  15.157  14.393  12.800
81462W        W53133  38.156  13.207  14.972
81463W        W53134   2.743  16.076  13.082
81464W        W53135  35.326  15.763  10.009
81465W        W53136   7.476  44.363  12.581
81466W        W53137  12.157  25.148  14.948
81467W        W53138  26.239  30.822  13.895
81468W        W53139  18.540  17.702  11.166
81469W        W53140   1.764  19.122  11.073
81470W        W53141  41.597  10.881   2.470
81471W        W53142  39.111   7.120  11.686
81472W        W53143  38.265  14.878   1.249
81473W        W53144   2.675  31.215  12.409
81474W        W53145   8.650  19.836  11.123
81475W        W53146  12.288  15.109   2.659
81476W        W53147  38.975  29.956  10.319
81477W        W53148   2.630  19.687   0.575
81478W        W53149  11.800  11.661   4.134
81479W        W53150   7.255  38.937  11.637
81480W        W53151  40.980  11.213   3.209
81481W        W53152   3.990   9.413  14.378
81482W        W53153  24.135  41.457  13.517
81483W        W53154  33.285  17.452  11.248
81484W        W53155  42.249  11.872  14.841
81485W        W53156   3.256  27.192   2.237
81486W        W53157  10.312   8.458   3.250
81487W        W53158  27.693  12.928   5.098
81488W        W53159  21.146  34.866   2.009
81489W        W53160   1.552  19.836   5.424
81490W        W53161  10.209  24.758   4.580
81491W        W53162  26.022  38.084   4.139
81492W        W53163  14.223  17.975   3.687
81493W        W53164  42.471  34.525  11.691
81494W        W53165   9.300   8.177   2.299
81495W        W53166  23.273  37.924  12.912
81496W        W53167  22.981  40.491  13.848
81497W        W53168  25.947  16.001  12.538
81498W        W53169  20.242  26.442   3.337
81499W        W53170  43.016  18.460   4.619
81500W        W53171   5.847   7.697  14.835
81501W        W53172   2.503  34.556  12.522
81502W        W53173  13.273  13.425  13.687
81503W        W53174  38.372   9.887   0.940
81504W        W53175  25.724  11.138  13.108
81505W        W53176  18.661  26.560   3.290
81506W        W53177   4.704   0.450   3.689
81507W        W53178   2.118  13.442  14.535
81508W        W53179  15.708  15.380   4.056
81509W        W53180   8.192  16.554   1.775
81510W        W53181   8.412   7.761  11.187
81511W        W53182  30.103  43.884  14.370
81512W        W53183  26.424   7.544  12.842
81513W        W53184  36.624   8.779   2.706
81514W        W53185  33.873  38.078  12.093
81515W        W53186  41.278   9.978   4.087
81516W        W53187  18.750   2.866  14.509
81517W        W53188   8.453   6.718  12.568
81518W        W53189  27.886   4.726  11.970
81519W        W53190  40.064  34.794   4.673
81520W        W53191   3.856  39.365  14.368
81521W        W53192   9.747  18.744   1.502
81522W        W53193  31.395  16.957   2.588
81523W        W53194  11.793  38.920  11.079
81524W        W53195  23.192  20.582   2.787
81525W        W53196  32.943  26.737  11.095
81526W        W53197  37.421  18.186  14.024
81527W        W53198   5.368  33.457  14.405
81528W        W53199  23.002  10.772   2.293
81529W        W53200  44.193  41.135   3.685
81530W        W53201  22.492  30.623   4.993
81531W        W53202  15.645  41.469  11.365
81532W        W53203  33.019  40.629   1.391
81533W        W53204   5.370  19.854   2.742
81534W        W53205   1.847  31.021   2.066
81535W        W53206   6.349  12.941  11.193
81536W        W53207  22.106  10.535  12.573
81537W        W53208  41.529  44.912  13.767
81538W        W53209  32.961  10.002   1.399
81539W        W53210  13.380  35.559  10.688
81540W        W53211  36.943  10.254  10.765
81541W        W53212  32.572  39.519  10.528
81542W        W53213  22.681  19.011   1.325
81543W        W53214  16.107  36.178   2.397
81544W        W53215  10.757  13.838  13.352
81545W        W53216  39.269  30.608  11.060
81546W        W53217  39.093  40.042  12.793
81547W        W53218  21.684  18.383   2.982
81548W        W53219  21.049   7.461  13.292
81549W        W53220  30.697  16.765  12.015
81550W        W53221  39.328  30.075   4.019
81551W        W53222  24.554  26.105   3.322
81552W        W53223   3.096  21.722   5.634
81553W        W53224  44.822   8.465   1.707
81554W        W53225   7.810   4.281  14.493
81555W        W53226  19.262   1.401   0.750
81556W        W53227  35.873  14.377   1.424
81557W        W53228  23.238  12.668  10.759
81558W        W53229  21.534  25.769   0.273
81559W        W53230   7.250  38.508  14.452
81560W        W53231  22.763  44.932  13.164
81561W        W53232   0.057  41.713  11.696
81562W        W53233  31.966   4.673  11.586
81563W        W53234  25.683  13.657   1.119
81564W        W53235  31.970  29.087   1.506
81565W        W53236  36.524   5.624   0.844
81566W        W53237   4.237  29.707   2.850
81567W        W53238  19.787  40.872  13.909
81568W        W53239  34.742   7.134  13.461
81569W        W53240  39.785  17.307  12.180
81570W        W53241  35.041   9.199   3.604
81571W        W53242  16.682  29.406   1.663
81572W        W53243  10.872  14.079  14.741
81573W        W53244   6.790  44.926  14.674
81574W        W53245  28.494  10.800   3.412
81575W        W53246   2.237  24.464   0.733
81576W        W53247  23.007  37.680   0.197
81577W        W53248  11.815  36.804   0.373
81578W        W53249  21.099  31.320   4.959
81579W        W53250  42.465   0.243   0.011
81580W        W53251  37.882  36.591  10.713
81581W        W53252  22.595  30.536  14.242
81582W        W53253  34.866  26.658  11.573
81583W        W53254   7.465  35.989   0.938
81584W        W53255  14.652  27.519   0.037
81585W        W53256  33.490   7.415   4.195
81586W        W53257  20.673  38.578  13.451
81587W        W53258  12.688   3.101  14.900
81588W        W53259  25.287  26.042   2.362
81589W        W53260  20.465  10.999   3.310
81590W        W53261   0.770  24.246  11.878
81591W        W53262  31.153   5.866   1.369
81592W        W53263  11.770  22.519   3.720
81593W        W53264  36.001  29.839  12.347
81594W        W53265  25.695  22.081  11.657
81595W        W53266  15.873  36.087   0.312
81596W        W53267   3.966  42.235   3.648
81597W        W53268  31.891  33.541   3.297
81598W        W53269  17.209   0.026  14.837
81599W        W53270  37.604  35.019   0.417
81600W        W53271   1.647  33.374   0.313
81601W        W53272  22.575  22.303  14.919
81602W        W53273  28.318  42.108   1.750
81603W        W53274   7.656  26.232  10.520
81604W        W53275  40.466  43.959  11.131
81605W        W53276  24.513  13.835   1.814
81606W        W53277  36.349  35.511   3.655
81607W        W53278  36.914  14.715   2.838
81608W        W53279  42.042  15.204   4.406
81609W        W53280  38.236  39.079  12.032
81610W        W53281  12.959  24.090  14.411
81611W        W53282  12.061   4.459   4.472
81612W        W53283  29.658   8.981  14.406
81613W        W53284   7.296  44.517   0.773
81614W        W53285  19.092  43.960   4.234
81615W        W53286  10.615  44.119   4.200
81616W        W53287  11.785  44.528   4.665
81617W        W53288  34.309  24.411  13.082
81618W        W53289  31.968  12.800   2.060
81619W        W53290  40.726  25.419   2.005
81620W        W53291  25.012  15.515  10.698
81621W        W53292  39.969  40.294  12.642
81622W        W53293  12.179  42.879   1.574
81623W        W53294  24.990  29.648   1.714
81624W        W53295  14.585   8.727  11.079
81625W        W53296   2.774   2.735  14.268
81626W        W53297  16.233  38.621  12.077
81627W        W53298   1.453  40.300  10.670
81628W        W53299  12.118   1.840   1.455
81629W        W53300  26.195   5.802   3.317
81630W        W53301  26.143  34.371  13.983
81631W        W53302  35.055  39.528  13.964
81632W        W53303  33.782   8.660   3.559
81633W        W53304  36.731  24.328  13.623
81634W        W53305  42.006  42.423   3.230
81635W        W53306  26.265   4.049   2.771
81636W        W53307  13.637  11.252  14.310
81637W        W53308  36.943   0.432   3.603
81638W        W53309  42.062   7.184   2.897
81639W        W53310   6.635  27.065  12.103
81640W        W53311  13.228  22.113   2.644
81641W        W53312  15.065  44.529   3.747
81642W        W53313  32.990   7.815  11.175
81643W        W53314  34.162  22.034   0.329
81644W        W53315   4.343  34.615  11.949
81645W        W53316  17.912   3.157  11.295
81646W        W53317   9.773  38.645   2.733
81647W        W53318  13.567   3.447   4.571
81648W        W53319  22.671  33.588   1.734
81649W        W53320  23.847  26.414   4.144
81650W        W53321  14.696  41.336  13.447
81651W        W53322   5.562  20.072  10.892
81652W        W53323   3.842  10.239   0.314
81653W        W53324  42.619   6.135   2.875
81654W        W53325  27.913   1.416  11.874
81655W        W53326  33.315  25.744  11.607
81656W        W53327  23.517  31.977   2.693
81657W        W53328  10.708  24.615   1.942
81658W        W53329  36.503  41.441  12.321
81659W        W53330  33.996  30.877  12.876
81660W        W53331  23.720  35.487   4.380
81661W        W53332  19.661  24.198   4.117
81662W        W53333  43.846  43.941   3.327
81663W        W53334  40.402  14.631  13.048
81664W        W53335  28.069  29.794   2.185
81665W        W53336  15.773   2.430  13.979
81666W        W53337   9.870  26.726   3.553
81667W        W53338   0.020   1.746  11.151
81668W        W53339  31.567  33.877   4.751
81669W        W53340  10.043  12.319   3.213
81670W        W53341  20.716  31.029  13.450
81671W        W53342   2.951   7.169   1.278
81672W        W53343   2.789  35.371   3.184
81673W        W53344  35.577  16.308   0.874
81674W        W53345  15.583  16.085   4.238
81675W        W53346  31.082   2.682   4.476
81676W        W53347  29.398   4.445  13.674
81677W        W53348  11.142  16.065   3.642
81678W        W53349  34.523   4.201   1.100
81679W        W53350   5.047  27.535  11.812
81680W        W53351  28.857  15.320   4.516
81681W        W53352  36.878  37.514  12.781
81682W        W53353   0.512   2.799   0.814
81683W        W53354  10.145  12.704  11.668
81684W        W53355  13.874  35.127   1.721
81685W        W53356  33.368  31.512  12.822
81686W        W53357   4.905  37.044  13.976
81687W        W53358  28.544  35.624  14.698
81688W        W53359   0.489  33.559  12.100
81689W        W53360   5.374  28.157   3.637
81690W        W53361  21.268  26.823  12.056
81691W        W53362  14.078  18.163   2.797
81692W        W53363  21.538  19.314  11.598
81693W        W53364   2.924  11.703  12.852
81694W        W53365  13.580  22.000   2.243
81695W        W53366   1.366   6.219  14.764
81696W        W53367   3.907  43.707  13.883
81697W        W53368  22.130  10.728   4.150
81698W        W53369  44.997  29.651   1.283
81699W        W53370  35.922  35.820   4.660
81700W        W53371  10.788  32.083  13.309
81701W        W53372  21.473  35.717  11.307
81702W        W53373  28.000   8.054  10.615
81703W        W53374   9.520   9.818   4.649
81704W        W53375   6.545  12.701   4.700
81705W        W53376  26.425   3.214  11.222
81706W        W53377  34.456  24.794   0.808
81707W        W53378  15.583   3.499   0.957
81708W        W53379  14.360  26.200  11.046
81709W        W53380  24.011  39.837  14.398
81710W        W53381  17.929   9.968   0.643
81711W        W53382  15.326  44.536  10.733
81712W        W53383  38.054  17.141   0.920
81713W        W53384  20.150  25.024  14.775
81714W        W53385  35.261  33.856   2.711
81715W        W53386  23.469  30.498   4.601
81716W        W53387  17.617  16.034  14.117
81717W        W53388  38.445  12.428  11.725
81718W        W53389  32.870   1.382   2.862
81719W        W53390   1.455  10.182   3.651
81720W        W53391   6.719  24.594  10.758
81721W        W53392  19.562  25.748  12.954
81722W        W53393  24.406   9.633  11.810
81723W        W53394  23.509  39.810  10.688
81724W        W53395  10.558  32.973   3.860
81725W        W53396  19.580   4.011   3.164
81726W        W53397  39.297  44.508   2.794
81727W        W53398  35.653  34.033   0.308
81728W        W53399  26.810  38.029   2.275
81729W        W53400  25.932  21.117   0.385
81730W        W53401  28.482  19.427   4.288
81731W        W53402  15.847  44.010  12.020
81732W        W53403   4.716  42.847  12.894
81733W        W53404  10.744  26.565   3.272
81734W        W53405  26.209  17.600   3.264
81735W        W53406   9.814   1.555   0.320
81736W        W53407  28.069  33.052  11.563
81737W        W53408  18.157   7.565   1.008
81738W        W53409  31.960  32.833   0.310
81739W        W53410   6.673   6.675  10.485
81740W        W53411  20.617   6.954   5.003
81741W        W53412   1.749  31.329  10.732
81742W        W53413  17.380  38.415   4.702
81743W        W53414  25.413  25.493  11.582
81744W        W53415  44.250  18.359  13.751
81745W        W53416  44.684  20.798  11.042
81746W        W53417  15.756   6.863  14.742
81747W        W53418  18.220   3.658   0.763
81748W        W53419  21.986  26.027   5.052
81749W        W53420  40.427   3.366   5.101
81750W        W53421  11.435  24.622  11.551
81751W        W53422  43.280   3.861   5.185
81752W        W53423  40.184  33.937  11.576
81753W        W53424  38.301  18.800  11.512
81754W        W53425  43.086  29.388   5.059
81755W        W53426  29.543  36.578  14.597
81756W        W53427   0.937  15.911   2.617
81757W        W53428   6.817   0.250   3.624
81758W        W53429  32.024  27.648  14.453
81759W        W53430  21.210  38.403   3.813
81760W        W53431  35.253  27.076   4.901
81761W        W53432  14.132  29.097  12.850
81762W        W53433   7.632  19.561   0.469
81763W        W53434  17.107  43.830  11.673
81764W        W53435  29.272  11.046   4.394
81765W        W53436  12.945  15.607   3.269
81766W        W53437  16.340  20.165  12.808
81767W        W53438  18.942  25.163   4.845
81768W        W53439  13.172  43.079   2.845
81769W        W53440   5.728   5.345   3.924
81770W        W53441  35.571  14.262   3.786
81771W        W53442  11.692  24.500  14.718
81772W        W53443  17.082   3.302  12.387
81773W        W53444  25.606  35.913   2.263
81774W        W53445  26.746  19.159  11.125
81775W        W53446  17.371  28.669   9.911
81776W        W53447  34.481  41.529   0.821
81777W        W53448  31.542  13.468  12.810
81778W        W53449  36.540  17.723   2.601
81779W        W53450  28.656  25.381   0.925
81780W        W53451  13.887   2.074  14.686
81781W        W53452  33.019  19.809   3.204
81782W        W53453  41.300  33.834  14.103
81783W        W53454  27.008   0.745   3.758
81784W        W53455  29.522  24.647  10.711
81785W        W53456  15.576   2.112   1.881
81786W        W53457  40.018  21.206   1.977
81787W        W53458  38.592   1.446   4.462
81788W        W53459   4.774  39.779  13.768
81789W        W53460  33.451  26.866  13.879
81790W        W53461  35.373  44.021   4.500
81791W        W53462   1.635  14.255   2.193
81792W        W53463  19.048  30.979   1.170
81793W        W53464  40.754  20.357   1.779
81794W        W53465  28.629  29.223   3.399
81795W        W53466   0.916  24.430   0.010
81796W        W53467  39.482  13.274   1.176
81797W        W53468  43.695  32.928  12.967
81798W        W53469   0.967  42.392  12.494
81799W        W53470  11.799   7.455   0.599
81800W        W53471  41.543  34.953   1.873
81801W        W53472  27.558  27.693   0.514
81802W        W53473  42.016  30.734   2.832
81803W        W53474  15.392   2.196   4.796
81804W        W53475  16.029  11.171  12.513
81805W        W53476  21.558  28.931   0.625
81806W        W53477  18.503  35.845  14.807
81807W        W53478  36.274  25.013   1.204
81808W        W53479  41.010  35.665  13.116
81809W        W53480   8.847  28.289  10.788
81810W        W53481  13.265  34.591   3.500
81811W        W53482  22.066   1.859  13.905
81812W        W53483  15.159  16.786   0.340
81813W        W53484  26.553  10.314   2.201
81814W        W53485   9.156  43.791  13.082
81815W        W53486   3.280   1.875   3.738
81816W        W53487  22.415  38.447  10.520
81817W        W53488  12.204  21.511  12.149
81818W        W53489  25.711  41.575   4.667
81819W        W53490  22.451  11.407   1.703
81820W        W53491  12.224  18.070   2.782
81821W        W53492  16.964  39.289  14.917
81822W        W53493  20.106  20.510  11.191
81823W        W53494   0.661  42.793   0.393
81824W        W53495  36.439  18.671   3.617
81825W        W53496  26.176  31.766   2.692
81826W        W53497  34.019  38.351   5.395
81827W        W53498  22.664  24.731   4.066
81828W        W53499  31.620   5.858   4.169
81829W        W53500  10.385  30.670  12.043
81830W        W53501  20.937  44.063   1.426
81831W        W53502  21.018  37.297  14.556
81832W        W53503  12.861  13.771   4.404
81833W        W53504  26.578  35.171  12.557
81834W        W53505  19.202  13.857  13.939
81835W        W53506  40.310   0.579   2.124
81836W        W53507  10.277  13.774  10.176
81837W        W53508  37.431   0.039   0.915
81838W        W53509   5.968  31.467  13.933
81839W        W53510  43.293   5.451  12.191
81840W        W53511  19.324   5.979   1.288
81841W        W53512  13.314  12.628   2.976
81842W        W53513   7.320  30.420  10.310
81843W        W53514  17.487   9.873   1.872
81844W        W53515  38.860  36.872  10.651
81845W        W53516  17.271  15.424   3.168
81846W        W53517  11.150  17.928  11.702
81847W        W53518  11.328  17.678  10.727
81848W        W53519  15.528  12.343   3.562
81849W        W53520  38.554  42.093  10.565
81850W        W53521   2.154  24.612   2.045
81851W        W53522   3.995  39.454   2.108
81852W        W53523  27.882  23.037   2.758
81853W        W53524  44.850  21.452  10.148
81854W        W53525  28.923  18.910   2.849
81855W        W53526  17.059   5.848   2.864
81856W        W53527  43.769  16.550  13.450
81857W        W53528  37.956  38.472   1.218
81858W        W53529   3.303  26.163  14.517
81859W        W53530  32.124  37.053   3.168
81860W        W53531  14.487  33.606  13.011
81861W        W53532  16.967   4.025  11.450
81862W        W53533   7.298  17.653   4.168
81863W        W53534   7.224  28.652  14.034
81864W        W53535  21.831  16.593   3.859
81865W        W53536  18.500   1.508   1.378
81866W        W53537  36.314  17.190   3.308
81867W        W53538  41.355  22.104   4.561
81868W        W53539   5.740  26.688  13.988
81869W        W53540   2.871  35.495  12.597
81870W        W53541   0.220  18.136  12.501
81871W        W53542  18.022  12.913  11.859
81872W        W53543  14.323   2.944  10.911
81873W        W53544  43.041  36.770  12.891
81874W        W53545   3.498  27.652  12.072
81875W        W53546   7.335  38.770  13.669
81876W        W53547  27.049  43.086  14.434
81877W        W53548  44.050  38.040   2.210
81878W        W53549  23.732  20.575   2.371
81879W        W53550  13.650  32.081  12.742
81880W        W53551  20.102  36.281   1.940
81881W        W53552   0.473  42.381  12.291
81882W        W53553  30.650  21.173   2.891
81883W        W53554   1.026  26.533   4.798
81884W        W53555  34.043  17.798   0.717
81885W        W53556  21.711  29.411  11.601
81886W        W53557  20.152  36.583  14.582
81887W        W53558   3.038  30.553  12.520
81888W        W53559  42.743  12.034  12.854
81889W        W53560  27.790  22.084   1.770
81890W        W53561  18.059  27.140   4.080
81891W        W53562   5.874  39.878  11.562
81892W        W53563  39.351  20.169   1.711
81893W        W53564   7.684  42.874  12.488
81894W        W53565  30.954  28.663  10.672
81895W        W53566   6.448   9.623   1.090
81896W        W53567  24.536   0.849  12.884
81897W        W53568  39.372   4.793  11.697
81898W        W53569  26.502  30.014   3.331
81899W        W53570   5.095  13.588   3.635
81900W        W53571  44.229   1.251   2.487
81901W        W53572  20.146  29.204   0.049
81902W        W53573  33.332   3.797   4.230
81903W        W53574  37.097  27.522  11.551
81904W        W53575  40.591  28.835  14.296
81905W        W53576  34.693   0.164   0.514
81906W        W53577  12.705  43.933  14.871
81907W        W53578   8.811  19.968   4.551
81908W        W53579  33.060  11.244   3.161
81909W        W53580   4.885  15.647   2.263
81910W        W53581  11.276  25.576   1.964
81911W        W53582  29.047  34.110   0.403
81912W        W53583  10.760   2.648   1.705
81913W        W53584  20.258   5.447   2.765
81914W        W53585  32.009  21.334  14.326
81915W        W53586  22.075  35.496   1.438
81916W        W53587  21.555  18.758  12.719
81917W        W53588  34.735  22.882   1.109
81918W        W53589  14.171  12.391  13.404
81919W        W53590   3.775   7.607   2.281
81920W        W53591  20.856  42.557  14.691
81921W        W53592  18.630   6.413  13.848
81922W        W53593  26.564   4.638  14.007
81923W        W53594  24.368  34.235   1.691
81924W        W53595   5.779  23.035   1.841
81925W        W53596  11.045  12.042   4.068
81926W        W53597  31.309  35.769   4.359
81927W        W53598  23.183   2.783  14.388
81928W        W53599  35.335   1.425   2.657
81929W        W53600   1.261  30.963   2.649
81930W        W53601  43.776  44.445  10.632
81931W        W53602  16.616   6.194   1.302
81932W        W53603  44.197  42.864   4.141
81933W        W53604   3.987  36.785  12.512
81934W        W53605  11.084  17.349   1.564
81935W        W53606   9.302  24.639   4.653
81936W        W53607   8.809  34.197   2.435
81937W        W53608  38.506  34.084  11.666
81938W        W53609  24.009  22.963  13.028
81939W        W53610   4.728  10.597  13.850
81940W        W53611  12.203  12.678  11.639
81941W        W53612  18.513   7.912   0.788
81942W        W53613   1.520  36.015  11.126
81943W        W53614  40.628   6.318   0.480
81944W        W53615   6.401  38.792   0.823
81945W        W53616  26.485  44.848   4.423
81946W        W53617  39.431  10.117   4.400
81947W        W53618  25.539  12.676   3.668
81948W        W53619  31.912   7.833  12.386
81949W        W53620   3.357  31.607  13.772
81950W        W53621   5.404  30.970  11.493
81951W        W53622  16.133   5.739   0.468
81952W        W53623  16.705   3.554   0.690
81953W        W53624  17.040  27.486  12.676
81954W        W53625  13.333  23.628  11.474
81955W        W53626   2.809  30.454  12.974
81956W        W53627  21.422   4.866   0.652
81957W        W53628  32.576  28.147   2.731
81958W        W53629  14.229   3.288   1.104
81959W        W53630  12.171  37.318   3.428
81960W        W53631  16.142  42.070   0.976
81961W        W53632  18.919  10.462  12.910
81962W        W53633  44.682  40.344   0.583
81963W        W53634  10.161   2.479   5.025
81964W        W53635  26.981   9.494  13.723
81965W        W53636  14.128  26.097   1.854
81966W        W53637  31.263  38.935   4.712
81967W        W53638  20.199  29.500  14.365
81968W        W53639  33.491  43.261   4.218
81969W        W53640   1.432   4.627  13.797
81970W        W53641   2.853  13.677   0.828
81971W        W53642   3.204  44.776   1.814
81972W        W53643   2.948  40.987   2.395
81973W        W53644  41.520   6.704  12.847
81974W        W53645  44.909  19.695   4.884
81975W        W53646   7.356   2.987   3.115
81976W        W53647  15.280  25.849  13.567
81977W        W53648  34.171  20.602  10.994
81978W        W53649  24.196  20.569   2.737
81979W        W53650  42.915  37.257  13.084
81980W        W53651  10.201  43.241  11.943
81981W        W53652  39.292   6.504  13.475
81982W        W53653  22.230  36.091   2.761
81983W        W53654  34.099  29.277  14.038
81984W        W53655  32.460  37.442   2.911
81985W        W53656  32.083   7.658   0.364
81986W        W53657   2.380  23.561   0.317
81987W        W53658  35.136   1.452  14.790
81988W        W53659  15.725   6.161   0.286
81989W        W53660  32.989  27.966  14.508
81990W        W53661  37.916  20.242  13.935
81991W        W53662  37.317  17.562  13.793
81992W        W53663   6.172  28.651   2.284
81993W        W53664   1.504  23.239  11.441
81994W        W53665  34.524  27.276   0.206
81995W        W53666  17.787   8.707   2.487
81996W        W53667  36.570  39.290  10.225
81997W        W53668  29.015  23.007  13.947
81998W        W53669   2.862  35.597  13.525
81999W        W53670  44.861  13.220   1.472
82000W        W53671   3.311   3.350  12.705
82001W        W53672  43.545  29.606  11.502
82002W        W53673  30.971   9.496  14.933
82003W        W53674  22.538  42.650   4.081
82004W        W53675  18.607  22.594   2.159
82005W        W53676  44.673  40.956   3.696
82006W        W53677   4.730   1.434   2.363
82007W        W53678  30.918  35.646  11.509
82008W        W53679   9.961  34.594  11.695
82009W        W53680  29.534  28.979   0.364
82010W        W53681   7.781  31.078   1.430
82011W        W53682  32.858   9.917  11.206
82012W        W53683  31.140   7.806   4.136
82013W        W53684  38.766  16.224   3.883
82014W        W53685  14.219  34.435  11.596
82015W        W53686  10.351   1.700   2.870
82016W        W53687  22.026  36.495   1.782
82017W        W53688  35.880  11.518  13.876
82018W        W53689   0.051  15.159   2.406
82019W        W53690   1.697   8.701  14.353
82020W        W53691   1.388  39.940   2.854
82021W        W53692  43.517  11.838  12.079
82022W        W53693  18.799  12.430  12.917
82023W        W53694  35.524  19.246   1.295
82024W        W53695   2.692   8.754  11.564
82025W        W53696  38.804   4.246  11.556
82026W        W53697  42.934   6.967  13.252
82027W        W53698  25.046  33.921   3.201
82028W        W53699  17.651  12.492   1.452
82029W        W53700   6.705  11.656  13.124
82030W        W53701  34.258  26.046  11.039
82031W        W53702  13.696  31.489   4.734
82032W        W53703   1.833  34.785   1.829
82033W        W53704  14.036  37.557   3.720
82034W        W53705  25.017  31.676   2.080
82035W        W53706  18.304  42.258  14.813
82036W        W53707  10.190   3.682   4.543
82037W        W53708   4.485  40.853   4.613
82038W        W53709   2.962  25.134  10.479
82039W        W53710  16.149   3.498   0.978
82040W        W53711  16.817  26.960   1.725
82041W        W53712  12.070  22.486  11.861
82042W        W53713  34.940  24.548   0.782
82043W        W53714  23.714  18.678  11.993
82044W        W53715  24.015  15.899   0.457
82045W        W53716   7.885   5.806  14.612
82046W        W53717  17.595  44.847   2.853
82047W        W53718  44.746  24.169   4.566
82048W        W53719   1.408  17.842  13.803
82049W        W53720  10.120  40.067   1.215
82050W        W53721  13.727  13.363   3.216
82051W        W53722  13.302  42.997   3.796
82052W        W53723  23.234  38.593  10.124
82053W        W53724  37.596  23.581  10.935
82054W        W53725  31.024  19.510   0.989
82055W        W53726  30.182  22.038  11.547
82056W        W53727  32.835   1.715   2.452
82057W        W53728  40.662  13.418  14.862
82058W        W53729  20.116   7.402   1.719
82059W        W53730  14.356  33.201   2.458
82060W        W53731  30.939  14.659  13.252
82061W        W53732  28.574  38.934  12.432
82062W        W53733  22.302  29.646  10.696
82063W        W53734  40.334  11.512   3.682
82064W        W53735  13.619  35.204  13.999
82065W        W53736  36.314  35.672  14.775
82066W        W53737  37.388   9.909   2.082
82067W        W53738  32.047  19.078  11.183
82068W        W53739  20.620   3.177   1.146
82069W        W53740  38.765  10.791  13.862
82070W        W53741   5.852  20.726  13.227
82071W        W53742  29.157   0.807  11.634
82072W        W53743   7.611  32.739  10.992
82073W        W53744  41.979  33.253  14.977
82074W        W53745  25.955  41.958   1.756
82075W        W53746  37.346   4.396   4.519
82076W        W53747  37.604  29.509  13.206
82077W        W53748  23.748  28.985  13.003
82078W        W53749   0.399  11.484   2.838
82079W        W53750   2.994  15.310  12.541
82080W        W53751  23.075  39.453  14.705
82081W        W53752  20.519  16.767  14.684
82082W        W53753  35.442  19.604  14.945
82083W        W53754   7.877  27.466  11.221
82084W        W53755   9.077  43.051   2.865
82085W        W53756  26.058   7.120   0.278
82086W        W53757  21.105   5.831  13.178
82087W        W53758  30.921  13.006   4.949
82088W        W53759  16.696   3.230   3.628
82089W        W53760  24.023   2.411  14.243
82090W        W53761  23.317  39.355   4.543
82091W        W53762  26.304  37.673   4.056
82092W        W53763   5.480   6.309   1.341
82093W        W53764  36.652  24.600   1.252
82094W        W53765   9.107   8.784   0.382
82095W        W53766   0.185  20.951  12.046
82096W        W53767  34.444  15.017  12.028
82097W        W53768  20.277  43.882  11.685
82098W        W53769   5.749   2.361   3.645
82099W        W53770  26.084  23.142   4.876
82100W        W53771   9.415  12.646   2.253
82101W        W53772  39.843  23.567  12.938
82102W        W53773   2.910  38.988  11.178
82103W        W53774   3.897  34.922   3.894
82104W        W53775  33.598  29.392   0.865
82105W        W53776   1.413   5.352  14.208
82106W        W53777  30.965  17.783   1.770
82107W        W53778  35.842  24.131   4.098
82108W        W53779  33.901  26.692  10.252
82109W        W53780  34.852  32.746  12.098
82110W        W53781  32.075  30.501  10.800
82111W        W53782  33.354  25.922   4.820
82112W        W53783   7.288  10.372  13.078
82113W        W53784   6.008   5.811  10.726
82114W        W53785  39.554  15.079   1.274
82115W        W53786  10.677  25.557   2.241
82116W        W53787  34.285  18.506  13.322
82117W        W53788  10.520  37.301   2.924
82118W        W53789  11.647  33.838  10.282
82119W        W53790  21.125  10.379  11.029
82120W        W53791  32.510   6.100  11.156
82121W        W53792   8.698   8.959   2.433
82122W        W53793  10.565  13.359  11.458
82123W        W53794  35.218  38.764  11.915
82124W        W53795  25.259  22.996   0.292
82125W        W53796  44.004  38.395  10.225
82126W        W53797  44.346  41.388  13.868
82127W        W53798  26.109  15.812  12.083
82128W        W53799  43.742  40.521  11.450
82129W        W53800  35.489  20.334   0.503
82130W        W53801  39.002  13.353   0.441
82131W        W53802   3.170  29.736  14.856
82132W        W53803  26.550  13.572  14.368
82133W        W53804  40.406   8.184   4.166
82134W        W53805  13.798  41.314   4.755
82135W        W53806  26.334   9.097   3.228
82136W        W53807  37.124  36.968   1.775
82137W        W53808   1.309   6.137  10.714
82138W        W53809  35.944  10.560  10.687
82139W        W53810  35.295  37.354  14.987
82140W        W53811  41.105  34.238   0.323
82141W        W53812  18.109   9.648   2.133
82142W        W53813  35.308  42.743  14.234
82143W        W53814   5.743  22.015  14.226
82144W        W53815   3.775   3.276  12.027
82145W        W53816  12.608  17.330  12.413
82146W        W53817  25.735  33.332   0.747
82147W        W53818   6.419  24.231  13.535
82148W        W53819  18.238  17.031   1.395
82149W        W53820  12.553  14.610   1.772
82150W        W53821  30.580   2.395   0.543
82151W        W53822   4.310  25.407  14.897
82152W        W53823   9.784  40.076   1.935
82153W        W53824  27.554  16.733  11.062
82154W        W53825  24.973  43.856  13.136
82155W        W53826  15.339  13.905  12.925
82156W        W53827   3.502  30.934  13.347
82157W        W53828  15.803  40.545  11.545
82158W        W53829  44.684  32.167   4.296
82159W        W53830   1.854   6.892  14.725
82160W        W53831   5.451   3.503  11.419
82161W        W53832   1.011  16.676   3.303
82162W        W53833  44.036  32.637  11.236
82163W        W53834  26.974  44.526  14.520
82164W        W53835   9.728   6.474  11.984
82165W        W53836  35.578  33.649   0.657
82166W        W53837  28.732  21.076  12.081
82167W        W53838  40.758  42.329   0.741
82168W        W53839  22.376  38.024   2.756
82169W        W53840  21.682  37.417   2.333
82170W        W53841  39.232  43.525   1.432
82171W        W53842   8.747   0.778  12.415
82172W        W53843  24.501  26.007   3.843
82173W        W53844  26.750   4.843  13.046
82174W        W53845  29.493  17.547  11.208
82175W        W53846   4.728  16.195  12.408
82176W        W53847  15.862  29.542  14.855
82177W        W53848   0.777  15.726   4.488
82178W        W53849  21.157  36.172   5.031
82179W        W53850  14.400  12.734   0.986
82180W        W53851  40.463  33.162   4.832
82181W        W53852  39.514  27.351   1.917
82182W        W53853   2.767  10.145  13.779
82183W        W53854  34.093  30.499   2.116
82184W        W53855  13.802  24.721   2.748
82185W        W53856  14.138  17.191   1.756
82186W        W53857  18.597  31.085  11.710
82187W        W53858  20.016  30.986   3.924
82188W        W53859  11.288   7.984   3.147
82189W        W53860  15.529  37.543  12.944
82190W        W53861  37.909  18.140  13.314
82191W        W53862  28.577  32.578   3.342
82192W        W53863  31.421  24.611  11.779
82193W        W53864  20.471  36.316  11.923
82194W        W53865   7.055  32.951  13.871
82195W        W53866   5.641  28.193   0.380
82196W        W53867   0.484  35.873  11.016
82197W        W53868  36.405  35.948   2.853
82198W        W53869  14.160  20.500  13.381
82199W        W53870  25.508  40.464   4.252
82200W        W53871   9.670   2.083  13.925
82201W        W53872  12.817  44.824   0.934
82202W        W53873  12.719  23.539  12.105
82203W        W53874  28.573  44.404  14.853
82204W        W53875  19.027   1.553   3.230
82205W        W53876  40.301   4.450   0.778
82206W        W53877   4.356  38.085   4.294
82207W        W53878   6.876  24.985  13.461
82208W        W53879  17.596   2.872  14.736
82209W        W53880   1.036   2.163  13.074
82210W        W53881  26.904  39.637   2.101
82211W        W53882  11.323  43.289   1.827
82212W        W53883  31.023  19.733   1.987
82213W        W53884  39.500  43.407  11.119
82214W        W53885  37.121  43.845  12.842
82215W        W53886  25.982  29.459   3.360
82216W        W53887  24.003  39.460  11.462
82217W        W53888  34.996  37.509  11.480
82218W        W53889  38.739  41.533  10.808
82219W        W53890  34.019  14.687  13.521
82220W        W53891   1.984   4.972  12.077
82221W        W53892  38.774  34.624  13.695
82222W        W53893  21.644  20.723   4.051
82223W        W53894   8.247  12.638   3.565
82224W        W53895  10.221   2.683  11.646
82225W        W53896  18.473  37.345   2.300
82226W        W53897  33.958  36.324   4.858
82227W        W53898   0.109  16.237  14.490
82228W        W53899   8.385   0.644  10.804
82229W        W53900  24.624  25.555   4.602
82230W        W53901  13.132  40.521  14.894
82231W        W53902   3.878  42.488   3.177
82232W        W53903   3.263  17.010   2.358
82233W        W53904  35.367  12.126   3.602
82234W        W53905   1.256  28.542   2.153
82235W        W53906   1.375   7.193  11.414
82236W        W53907   9.542  35.973  11.649
82237W        W53908  20.753  42.795  12.939
82238W        W53909  28.179   3.779   4.513
82239W        W53910  39.447  20.267  11.382
82240W        W53911  24.008  28.910  14.870
82241W        W53912  10.651  14.792   4.735
82242W        W53913  30.176  21.028  12.122
82243W        W53914  25.243  23.503   0.439
82244W        W53915  13.622  14.103  12.982
82245W        W53916  30.267  39.091   2.849
82246W        W53917  32.849  28.951   0.770
82247W        W53918  42.562  18.577   0.160
82248W        W53919  30.702  25.287  11.992
82249W        W53920   5.250  33.588  12.360
82250W        W53921  44.462  20.085  13.445
82251W        W53922  16.711  21.705   2.243
82252W        W53923  28.701  42.306   2.030
82253W        W53924  33.992  36.074  13.536
82254W        W53925   6.436  39.801   2.773
82255W        W53926  30.773  17.843  12.877
82256W        W53927  12.270  22.010   4.336
82257W        W53928  34.773  38.475  10.185
82258W        W53929  29.431   6.398   2.769
82259W        W53930  35.583  16.734   1.249
82260W        W53931  31.765  29.106  10.439
82261W        W53932  36.752  26.603  13.819
82262W        W53933  37.806  17.684   1.797
82263W        W53934  31.179  41.325  12.650
82264W        W53935  29.563   7.352  13.349
82265W        W53936   4.480  22.699  13.801
82266W        W53937   2.964  38.570  12.589
82267W        W53938  28.588  21.773  14.264
82268W        W53939  27.456  38.943  14.050
82269W        W53940  11.561  17.515   2.855
82270W        W53941  31.641  20.407   4.790
82271W        W53942  14.805  28.023   1.281
82272W        W53943  15.329  12.040   4.157
82273W        W53944  13.676  11.726  14.073
82274W        W53945  10.765   9.826   1.738
82275W        W53946  17.715  12.114  11.956
82276W        W53947  33.880   4.710  13.863
82277W        W53948  44.941  36.778   2.829
82278W        W53949   1.114  10.107   3.116
82279W        W53950  15.592   5.737  14.403
82280W        W53951   3.949   8.872   0.825
82281W        W53952  25.714  30.987   1.911
82282W        W53953  40.823  12.292   2.247
82283W        W53954   4.969  20.343   1.512
82284W        W53955  37.472  42.718  11.000
82285W        W53956   0.794   6.748  12.962
82286W        W53957   5.431  42.526   2.073
82287W        W53958  29.681  18.581   0.081
82288W        W53959  18.332  15.117  12.538
82289W        W53960  26.075  37.878  13.916
82290W        W53961  18.162  36.582   4.832
82291W        W53962  29.570  36.304   1.787
82292W        W53963  43.500   9.273   1.980
82293W        W53964  26.774   8.629   4.114
82294W        W53965  44.243  19.739  11.432
82295W        W53966  14.334  32.457   5.176
82296W        W53967  24.053  33.557   1.828
82297W        W53968  13.511  10.732  10.809
82298W        W53969   9.878  31.926  12.925
82299W        W53970  37.261  35.054  11.050
82300W        W53971  37.342   3.383   1.159
82301W        W53972  14.297  28.078  12.504
82302W        W53973   1.021  19.188   0.373
82303W        W53974  30.863  44.921   4.068
82304W        W53975  40.297  44.949   0.703
82305W        W53976  27.979   3.291   4.627
82306W        W53977  34.466  42.188   4.102
82307W        W53978   1.802  44.410   0.022
82308W        W53979  29.667  36.392   3.751
82309W        W53980  23.730  13.569  11.068
82310W        W53981  23.612  10.439  11.368
82311W        W53982  10.544   2.462  13.823
82312W        W53983  34.651  28.451   0.779
82313W        W53984   9.118   2.433   1.884
82314W        W53985  39.002  39.261   2.932
82315W        W53986  13.380   0.338  10.936
82316W        W53987  30.474  25.926   4.659
82317W        W53988   6.441   8.800  14.910
82318W        W53989  39.966  33.923  13.955
82319W        W53990  31.987  40.956   3.222
82320W        W53991  43.348  32.150   4.874
82321W        W53992   5.722   1.856   3.166
82322W        W53993  19.021   9.918   3.429
82323W        W53994  19.145  41.919  11.157
82324W        W53995  15.907  16.353  14.874
82325W        W53996  20.449  30.026   4.543
82326W        W53997   7.575  44.256  10.673
82327W        W53998  35.973  34.025  13.968
82328W        W53999   9.729  20.767  13.880
82329W        W54000  22.140  23.113   3.577
82330W        W54001  26.052   5.464  12.949
82331W        W54002  11.824  35.965  11.647
82332W        W54003  20.173   9.233   0.843
82333W        W54004  36.415  40.862   3.221
82334W        W54005  24.153  19.525  14.501
82335W        W54006  29.933  35.584  10.724
82336W        W54007  33.123   8.324   3.170
82337W        W54008  14.706   4.242   3.662
82338W        W54009  39.446  14.486   0.470
82339W        W54010   5.238  41.490   1.388
82340W        W54011  29.933  24.987  13.123
82341W        W54012   6.308  20.278   1.948
82342W        W54013  25.501  37.410   4.586
82343W        W54014   7.924  25.333  12.965
82344W        W54015  22.096  16.264   3.262
82345W        W54016  38.585  42.892   2.929
82346W        W54017  12.801  26.018  14.466
82347W        W54018  41.275  36.721  10.713
82348W        W54019  39.822   9.827   3.306
82349W        W54020   2.891  18.029   3.832
82350W        W54021  38.486  24.635   2.970
82351W        W54022  11.629  28.451  11.618
82352W        W54023   4.574  41.926   0.683
82353W        W54024  25.225   2.258   0.346
82354W        W54025  44.451   4.658   0.317
82355W        W54026  15.797  35.747   0.685
82356W        W54027  15.042  11.609   4.142
82357W        W54028  10.122  15.786  11.583
82358W        W54029  40.172  11.404   2.055
82359W        W54030  29.498  36.581   2.727
82360W        W54031  35.840  15.395   0.008
82361W        W54032  39.949  13.204  10.461
82362W        W54033   0.540  38.815   4.382
82363W        W54034   2.950   0.571  11.351
82364W        W54035  35.504  31.585   1.341
82365W        W54036  11.798  34.453  14.981
82366W        W54037  16.214  31.417   4.180
82367W        W54038   6.441  42.730   4.508
82368W        W54039  13.108  32.559   4.441
82369W        W54040  20.240   3.117  14.880
82370W        W54041   5.683  24.339   2.196
82371W        W54042  18.699  17.804   2.847
82372W        W54043   5.774   0.920   5.063
82373W        W54044  17.038   3.861   4.210
82374W        W54045   3.164  35.434  13.130
82375W        W54046  35.590  21.898   1.277
82376W        W54047  15.548  40.102  11.560
82377W        W54048  34.266  27.779  11.438
82378W        W54049  40.620  17.386   3.651
82379W        W54050  31.554  14.582  10.644
82380W        W54051  16.531  42.463   4.655
82381W        W54052  13.658  25.133  12.836
82382W        W54053  27.189  41.435  11.687
82383W        W54054  27.351  31.981  12.026
82384W        W54055  41.666   6.068  11.679
82385W        W54056  15.403  25.562  10.572
82386W        W54057  13.002   9.653   4.887
82387W        W54058   2.316  42.838  12.715
82388W        W54059  30.952  38.133   1.855
82389W        W54060  26.150  12.900  12.562
82390W        W54061  42.749  35.364  11.635
82391W        W54062   7.162  39.824   4.781
82392W        W54063  28.914  10.269  13.910
82393W        W54064  44.742  44.779  13.316
82394W        W54065   7.445  22.058   0.439
82395W        W54066  11.553   2.263  14.051
82396W        W54067  10.438  19.700   3.847
82397W        W54068   2.750  38.589   1.929
82398W        W54069  11.416  35.633  12.048
82399W        W54070  17.059  39.921   3.474
82400W        W54071  18.149  40.352   2.861
82401W        W54072  11.416  22.594   0.833
82402W        W54073  43.165  25.156   4.992
82403W        W54074  12.071   1.327  10.203
82404W        W54075  10.120  23.148  13.562
82405W        W54076   0.497  34.543   1.337
82406W        W54077  21.208  20.249  11.621
82407W        W54078  43.821  30.944   4.118
82408W        W54079  37.902  37.653   0.904
82409W        W54080   0.777  31.763   2.818
82410W        W54081  27.540  34.788  11.542
82411W        W54082  17.346   7.786  14.368
82412W        W54083  12.015  15.890  13.419
82413W        W54084  13.560  40.069   2.684
82414W        W54085   2.727  27.149   2.237
82415W        W54086  31.920  31.413   2.872
82416W        W54087  41.711  20.997   0.816
82417W        W54088   4.627  42.621  14.415
82418W        W54089   1.750   7.807   4.080
82419W        W54090  29.085   8.361   3.255
82420W        W54091   2.861  22.810   0.527
82421W        W54092  29.769  21.345  13.902
82422W        W54093   0.990  31.840  11.724
82423W        W54094   5.194  39.531   4.495
82424W        W54095  35.821  12.035  13.810
82425W        W54096  29.488  10.095   1.342
82426W        W54097  37.787   3.269  12.088
82427W        W54098  17.723  24.566   3.983
82428W        W54099  15.208  27.903   2.789
82429W        W54100  36.717  11.953  11.742
82430W        W54101  27.037  12.118  11.959
82431W        W54102  27.040   1.964   3.386
82432W        W54103  31.972  14.351  11.207
82433W        W54104  10.842   0.715   0.337
82434W        W54105  17.679  21.628  13.382
82435W        W54106  43.592   2.887  14.296
82436W        W54107   8.321  33.998   2.282
82437W        W54108  11.565   3.548  12.649
82438W        W54109   4.918  40.417   1.774
82439W        W54110  10.732  12.040  12.846
82440W        W54111   8.972  36.287  13.363
82441W        W54112  29.763   8.704  13.918
82442W        W54113  35.859  41.948   0.068
82443W        W54114  32.037   8.107  10.567
82444W        W54115  38.491  30.714   3.696
82445W        W54116  15.110  27.396  14.744
82446W        W54117  44.201  43.062  12.040
82447W        W54118  37.328  38.444   3.629
82448W        W54119  17.633   6.828  12.028
82449W        W54120  21.288  23.229   3.297
82450W        W54121   4.659  19.193  12.598
82451W        W54122  36.385  21.260   5.061
82452W        W54123   6.721  26.061   0.320
82453W        W54124  13.982   7.865  12.087
82454W        W54125  15.741   7.269   5.387
82455W        W54126  43.261  29.132  14.545
82456W        W54127  16.207  39.035   0.807
82457W        W54128  15.229   4.394  14.526
82458W        W54129  37.362  15.991   1.189
82459W        W54130  29.522  24.227   1.290
82460W        W54131  36.429  44.350   1.212
82461W        W54132  42.345  20.732   0.407
82462W        W54133  28.215  20.339   0.406
82463W        W54134  31.325  41.705  11.193
82464W        W54135  13.070  23.622  11.042
82465W        W54136  22.522  21.073   0.834
82466W        W54137  23.162  28.943  12.082
82467W        W54138  18.065  40.328  13.089
82468W        W54139  40.732  10.145  13.294
82469W        W54140  30.481  35.584  14.363
82470W        W54141  33.944  28.907  13.452
82471W        W54142   7.268  10.685  14.925
82472W        W54143  19.611  23.049  10.213
82473W        W54144   8.020  23.277   1.271
82474W        W54145  19.466  38.839  12.895
82475W        W54146   6.890   9.280  13.551
82476W        W54147  12.897   2.935  14.394
82477W        W54148  42.054  28.247  12.970
82478W        W54149   0.900  43.544  13.186
82479W        W54150  44.645   8.128  12.930
82480W        W54151  23.045  22.031  12.837
82481W        W54152  22.344  22.993   0.935
82482W        W54153  17.645  43.279  10.739
82483W        W54154   3.773  14.719  12.340
82484W        W54155  29.037  13.902  12.444
82485W        W54156  20.048   4.311  14.937
82486W        W54157  32.848  14.648   2.656
82487W        W54158   8.550   9.897   4.903
82488W        W54159  16.984  14.288   1.730
82489W        W54160  44.636  19.775   1.406
82490W        W54161  10.720  25.926   1.287
82491W        W54162  22.315  15.897   0.768
82492W        W54163  19.768   9.357  12.402
82493W        W54164  14.135   7.208   0.956
82494W        W54165  27.639   4.908   4.737
82495W        W54166  24.697   9.753  14.744
82496W        W54167  22.779   5.679   3.560
82497W        W54168  37.740  37.163  14.370
82498W        W54169   2.991  13.187   1.040
82499W        W54170  40.855  40.230  13.132
82500W        W54171   0.029  43.368  11.064
82501W        W54172  30.187  32.908  12.453
82502W        W54173   1.159  41.517  11.508
82503W        W54174  18.741   4.422   0.558
82504W        W54175  24.618   1.713  14.890
82505W        W54176  20.872   6.689  13.077
82506W        W54177  10.313  34.194  11.755
82507W        W54178  24.736   1.244  13.170
82508W        W54179  20.489  25.520  13.950
82509W        W54180  16.129  34.846  10.539
82510W        W54181   7.582  15.779   3.588
82511W        W54182  34.920  12.257   0.280
82512W        W54183  44.374  37.001  12.826
82513W        W54184  16.570  22.067  10.697
82514W        W54185  38.041  32.443   1.034
82515W        W54186  12.717  18.153  10.628
82516W        W54187  28.514   5.359  10.416
82517W        W54188  26.042  28.196   2.961
82518W        W54189  16.153  34.466  10.885
82519W        W54190  36.489  18.183  12.991
82520W        W54191   3.765  42.407  13.476
82521W        W54192   7.374  41.034   1.282
82522W        W54193   4.053  17.070  12.561
82523W        W54194   3.935  30.616  13.384
82524W        W54195   7.140  15.532   3.716
82525W        W54196  26.490  15.286   2.225
82526W        W54197  26.120  41.755  14.747
82527W        W54198   7.142  24.115  14.448
82528W        W54199  12.997  30.452  13.025
82529W        W54200  24.254  25.183   3.664
82530W        W54201  43.355  20.667   0.200
82531W        W54202   9.316  27.510   0.946
82532W        W54203  15.092  14.282  14.240
82533W        W54204  14.129   3.713   1.391
82534W        W54205  41.939  29.640   2.601
82535W        W54206  29.464  28.735   1.675
82536W        W54207   4.926   4.776   2.310
82537W        W54208  34.328  22.184   2.526
82538W        W54209  39.030  10.298  11.574
82539W        W54210   7.943   4.929  14.944
82540W        W54211   8.114  12.130   0.292
82541W        W54212  42.397  41.348  12.403
82542W        W54213   3.844   0.651  14.331
82543W        W54214  20.660  27.764   3.746
82544W        W54215   3.823  12.139   0.088
82545W        W54216  44.200   0.677  14.441
82546W        W54217  37.985  17.586   4.040
82547W        W54218  43.368   4.444  11.208
82548W        W54219  31.031   2.700  14.350
82549W        W54220   9.873   1.870   1.371
82550W        W54221  13.663  24.986  12.067
82551W        W54222   5.269  37.302   1.343
82552W        W54223  31.885  39.267  12.040
82553W        W54224  37.038  21.552  14.336
82554W        W54225  29.081  24.945  12.592
82555W        W54226  20.752  42.563   1.342
82556W        W54227  36.234  39.993  12.645
82557W        W54228  30.482  14.385  11.540
82558W        W54229  38.645   3.206   2.671
82559W        W54230  25.060   1.449  14.788
82560W        W54231  29.602  22.928  13.496
82561W        W54232  12.129  17.138   2.844
82562W        W54233   5.783  19.686  11.229
82563W        W54234  11.792   4.804   4.769
82564W        W54235  43.858  36.389   2.478
82565W        W54236   1.757  39.507   1.784
82566W        W54237  41.230  26.792   4.844
82567W        W54238  27.639  19.158   1.523
82568W        W54239  18.542   5.707  11.563
82569W        W54240  37.654   2.012   0.380
82570W        W54241  44.544  13.087   0.344
82571W        W54242  27.640  31.459   1.425
82572W        W54243  40.123  15.081  13.073
82573W        W54244  28.629  25.038   0.511
82574W        W54245  30.388  32.942  13.828
82575W        W54246  27.472  23.717  14.919
82576W        W54247  41.411  30.058  10.834
82577W        W54248   1.530  17.693  11.956
82578W        W54249  34.931   5.157  11.056
82579W        W54250   1.803   7.341   4.698
82580W        W54251  38.957  24.155   0.434
82581W        W54252  40.993  37.340  12.443
82582W        W54253  12.648  37.598  12.093
82583W        W54254  15.775   9.875   4.710
82584W        W54255   8.348  24.627  13.935
82585W        W54256  42.498  24.567   3.367
82586W        W54257  14.175  33.915   1.650
82587W        W54258  40.970  25.291  13.362
82588W        W54259  44.105  39.894   1.718
82589W        W54260   5.292   6.214   4.296
82590W        W54261  32.372  39.947  11.792
82591W        W54262  22.327  38.907   2.953
82592W        W54263  41.241  22.251   4.061
82593W        W54264  22.005  44.418   4.147
82594W        W54265  35.824  39.509  13.287
82595W        W54266  16.749  37.543  12.540
82596W        W54267   6.797  20.500  14.891
82597W        W54268   3.287   3.328  13.224
82598W        W54269  10.595  14.615  13.829
82599W        W54270  41.775   1.860   3.245
82600W        W54271   8.406  31.057   3.200
82601W        W54272  11.153   7.369   1.951
82602W        W54273  44.063  21.534   1.035
82603W        W54274  25.539  44.374   4.533
82604W        W54275  30.822   2.881   1.657
82605W        W54276   3.598   3.024   3.625
82606W        W54277  28.828  25.475   0.257
82607W        W54278  17.138  41.607  14.201
82608W        W54279  18.494  25.064   0.008
82609W        W54280  34.585  24.496  12.113
82610W        W54281  17.745   2.708  13.354
82611W        W54282  32.641   9.353  12.098
82612W        W54283  31.005  39.898   3.687
82613W        W54284  12.626  37.798  11.590
82614W        W54285  12.307  17.821  10.644
82615W        W54286   4.291  38.262  13.989
82616W        W54287  22.546  44.895  10.657
82617W        W54288  15.677  16.385   2.762
82618W        W54289  14.707  26.669   1.370
82619W        W54290  28.665  11.234   2.098
82620W        W54291   1.086  11.436  11.948
82621W        W54292  34.914  12.379   4.513
82622W        W54293  39.561   5.309  13.352
82623W        W54294  43.813  39.214   2.625
82624W        W54295  15.136   7.670   4.920
82625W        W54296  25.466   9.942   5.090
82626W        W54297  37.046  19.292   2.213
82627W        W54298  37.037   9.753  14.783
82628W        W54299  42.716  28.878  10.205
82629W        W54300  36.920   0.906   3.838
82630W        W54301  42.524   0.522   3.124
82631W        W54302  12.169  41.060  12.638
82632W        W54303   7.491  18.835   3.418
82633W        W54304  33.240   5.874   0.975
82634W        W54305  25.568   3.203  13.404
82635W        W54306  30.203   6.947  12.932
82636W        W54307  33.208  32.005  10.171
82637W        W54308  18.713  16.334   0.446
82638W        W54309  12.123  42.336   1.726
82639W        W54310   5.540  29.354  13.361
82640W        W54311  41.537  13.368  13.367
82641W        W54312  28.582  10.413  10.739
82642W        W54313  19.455  20.034   4.567
82643W        W54314  30.412   2.414  14.525
82644W        W54315  26.663  15.182  12.579
82645W        W54316  43.194  21.574   1.269
82646W        W54317   8.339  17.299  12.430
82647W        W54318  17.726  32.873   2.966
82648W        W54319  43.027   7.899   3.796
82649W        W54320  28.591   6.311   4.074
82650W        W54321  30.737   1.840  10.977
82651W        W54322  42.991   4.678  10.979
82652W        W54323  34.043   2.419   4.611
82653W        W54324  43.089  11.135  13.894
82654W        W54325  33.059  20.979   2.312
82655W        W54326   7.330  14.015  13.826
82656W        W54327  34.505  18.974  13.066
82657W        W54328  41.779   9.035   2.414
82658W        W54329  18.442  19.820  12.960
82659W        W54330  19.526  22.549  14.807
82660W        W54331  10.374  36.772  11.126
82661W        W54332  18.224  11.394   3.740
82662W        W54333  28.900  30.472  12.068
82663W        W54334  18.835  11.976   4.159
82664W        W54335  40.226  18.898   3.654
82665W        W54336  42.498  31.812   1.950
82666W        W54337  29.717   9.630   1.295
82667W        W54338   9.175  39.775  12.585
82668W        W54339  18.023  23.901   2.711
82669W        W54340   9.963   5.823  14.950
82670W        W54341   4.898   2.315   1.593
82671W        W54342  19.169  13.621  13.272
82672W        W54343  25.553  44.059  10.680
82673W        W54344  18.666  11.531   4.363
82674W        W54345  26.515   6.292  11.629
82675W        W54346  35.503   5.847   4.740
82676W        W54347  19.019  23.901  13.431
82677W        W54348  12.611  18.650  10.797
82678W        W54349  43.277  39.117   5.133
82679W        W54350  37.316  39.390   3.702
82680W        W54351  16.382   7.799   4.201
82681W        W54352  37.260  36.152  10.197
82682W        W54353  15.907   4.614  10.420
82683W        W54354  33.055  36.066  14.587
82684W        W54355  11.188   1.340   3.658
82685W        W54356  31.632   0.123  14.658
82686W        W54357  19.636  21.601  14.040
82687W        W54358  43.731  43.783  11.164
82688W        W54359   1.004  44.435  10.224
82689W        W54360  14.039   9.902   0.372
82690W        W54361   2.988  19.786   1.345
82691W        W54362   6.863  35.905  13.465
82692W        W54363   3.308  26.209  12.225
82693W        W54364  34.021  31.777   3.433
82694W        W54365  10.303  30.193   0.226
82695W        W54366  25.200  18.640  12.067
82696W        W54367  35.469  18.305  13.939
82697W        W54368  23.520   9.551  11.568
82698W        W54369  43.518  12.626   3.365
82699W        W54370  12.844  28.892  14.934
82700W        W54371  16.450  14.336  14.427
82701W        W54372  37.911  17.777   2.657
82702W        W54373  12.190  33.050  14.967
82703W        W54374  36.490  22.258  14.021
82704W        W54375   2.436  15.313   3.846
82705W        W54376  33.843  36.034   3.866
82706W        W54377  33.182  11.590   2.346
82707W        W54378  42.449  14.661   0.251
82708W        W54379  35.931   9.775  12.064
82709W        W54380  14.186  27.912  11.025
82710W        W54381   2.146  22.486  13.060
82711W        W54382  21.288  31.539   1.686
82712W        W54383  42.271  34.062  14.490
82713W        W54384  16.789  20.933   2.868
82714W        W54385  20.356  23.945  12.992
82715W        W54386  12.312  16.065   2.907
82716W        W54387  16.525  19.123   0.475
82717W        W54388  18.663   6.472   2.212
82718W        W54389  15.596  26.230  13.361
82719W        W54390  33.576   1.869   2.132
82720W        W54391   2.587  28.637   3.456
82721W        W54392  22.824  18.095  12.921
82722W        W54393  29.586   4.233  13.255
82723W        W54394  26.632  36.932   4.477
82724W        W54395  20.964  41.861   4.092
82725W        W54396  16.866  17.687   0.139
82726W        W54397  32.943  23.520   1.317
82727W        W54398  31.418  18.467  11.601
82728W        W54399  44.353   6.680   2.412
82729W        W54400  10.617  20.249  14.893
82730W        W54401  29.454  28.266  10.848
82731W        W54402  12.356  21.893  11.116
82732W        W54403  27.440   2.676   3.308
82733W        W54404   9.861  39.069  13.740
82734W        W54405  20.315  14.906   4.610
82735W        W54406  33.308  25.767   3.970
82736W        W54407  19.384   9.582   3.864
82737W        W54408  11.948  24.748  11.480
82738W        W54409  23.170  38.054   0.556
82739W        W54410   3.817   7.042  14.446
82740W        W54411  42.252  19.775  14.439
82741W        W54412  35.805   5.035   3.245
82742W        W54413  26.505  30.762   4.370
82743W        W54414  28.005  26.729   0.468
82744W        W54415   6.270  37.139   3.355
82745W        W54416  36.819  15.564   2.306
82746W        W54417  26.151   9.590   3.285
82747W        W54418   7.389  29.921   4.440
82748W        W54419  16.107  15.333  11.991
82749W        W54420  38.578   7.861  13.628
82750W        W54421  30.697  43.388  14.931
82751W        W54422   8.217  41.893   3.040
82752W        W54423  23.190  36.471  10.496
82753W        W54424  35.842  37.182  10.249
82754W        W54425  16.102  29.978  14.966
82755W        W54426   0.711  30.554   5.160
82756W        W54427  13.630  22.136  10.721
82757W        W54428   9.446  20.139   0.294
82758W        W54429  10.281  31.568  10.723
82759W        W54430   7.182   1.876  13.597
82760W        W54431  31.564   2.151   1.814
82761W        W54432  22.426  28.409  13.148
82762W        W54433  38.976   0.665   1.348
82763W        W54434  28.834  19.249   0.086
82764W        W54435   1.894  21.320   2.626
82765W        W54436  15.919  14.678  10.759
82766W        W54437  39.816  25.494   4.764
82767W        W54438   5.091  36.332   1.388
82768W        W54439  15.899  40.468   3.773
82769W        W54440  23.108  35.282  12.999
82770W        W54441  21.642   7.674   2.803
82771W        W54442  36.477   6.255  13.739
82772W        W54443  23.107  31.511   1.765
82773W        W54444   2.863   3.646   4.863
82774W        W54445  11.848  44.769   0.056
82775W        W54446  28.172   6.065   4.310
82776W        W54447  26.617   6.891   2.561
82777W        W54448  15.977  13.646  13.473
82778W        W54449  28.446   3.736   3.178
82779W        W54450  26.975  13.738  12.016
82780W        W54451  16.091  28.902  12.976
82781W        W54452  41.400  40.548  11.542
82782W        W54453   7.912  21.024   1.847
82783W        W54454   5.838  10.652  12.895
82784W        W54455   7.388  35.343  11.190
82785W        W54456  34.455  39.078  14.878
82786W        W54457   0.354  31.864  13.938
82787W        W54458   9.909  20.739   0.767
82788W        W54459  32.651  40.250  14.470
82789W        W54460   6.897  14.508  10.726
82790W        W54461   9.660   0.827   3.127
82791W        W54462  36.088   5.262  10.767
82792W        W54463  19.055   6.462  11.833
82793W        W54464  44.331  11.178   9.737
82794W        W54465  15.381  26.263  13.877
82795W        W54466   9.317  36.093  13.021
82796W        W54467  39.547  43.942   0.687
82797W        W54468   7.602  33.120  12.677
82798W        W54469  23.710  11.134   1.497
82799W        W54470  11.634   2.026  11.520
82800W        W54471  16.752  34.099  11.553
82801W        W54472   1.534  28.964   1.675
82802W        W54473   6.652  42.972   3.376
82803W        W54474  12.455  10.611  14.826
82804W        W54475   1.480   5.402   3.774
82805W        W54476  22.124  19.779   0.706
82806W        W54477  34.649  24.161  14.816
82807W        W54478  17.742  44.572   0.001
82808W        W54479  11.110  28.452  11.613
82809W        W54480   7.598  40.434  14.942
82810W        W54481  40.418   3.445   2.881
82811W        W54482   2.954  39.571   4.227
82812W        W54483  17.193  25.252   3.691
82813W        W54484  14.700  39.184   0.747
82814W        W54485  18.627  25.164  13.353
82815W        W54486  10.433  14.288  10.208
82816W        W54487  38.634  30.475  11.556
82817W        W54488  25.038  38.079   0.033
82818W        W54489  32.049  13.019   4.104
82819W        W54490  17.417  23.052   0.835
82820W        W54491  25.136  31.509  13.936
82821W        W54492  19.432   5.789  14.231
82822W        W54493  11.918  10.440   1.284
82823W        W54494  14.285  21.623  14.883
82824W        W54495  18.113   6.894  11.460
82825W        W54496  16.615  34.378  11.073
82826W        W54497  30.655   2.280  13.555
82827W        W54498  25.738  12.673   3.123
82828W        W54499  10.636  27.571   1.137
82829W        W54500  11.713   5.199   1.751
82830W        W54501  32.563  25.665   3.451
82831W        W54502  13.557  10.618   4.291
82832W        W54503   3.857   1.063   3.215
82833W        W54504   5.922  24.673   4.215
82834W        W54505  24.461  40.218  11.194
82835W        W54506  38.873  29.902   4.666
82836W        W54507  26.629  28.719   2.359
82837W        W54508  34.431  37.010   3.613
82838W        W54509   0.730  21.728  13.980
82839W        W54510  40.887  14.217   4.372
82840W        W54511  42.853  11.694   1.205
82841W        W54512  18.652  14.732  12.800
82842W        W54513  20.673  10.173  11.210
82843W        W54514  20.555   5.356   3.327
82844W        W54515  11.234  14.530  10.635
82845W        W54516  42.623   4.942  10.130
82846W        W54517  39.711  40.349  10.726
82847W        W54518  16.301  26.631   2.918
82848W        W54519   1.131  10.885   1.299
82849W        W54520  20.158  10.938  10.721
82850W        W54521  35.931  15.040  14.005
82851W        W54522  35.563  18.265  12.290
82852W        W54523  21.622   2.975  12.044
82853W        W54524  23.528  40.334   2.586
82854W        W54525  39.487  32.231   2.256
82855W        W54526  30.054  36.623  11.993
82856W        W54527  14.051   1.911  12.970
82857W        W54528  14.168   6.111  14.814
82858W        W54529   2.972  37.624   0.720
82859W        W54530  10.091  19.245  13.808
82860W        W54531  27.762   2.202   2.790
82861W        W54532  18.726  21.329   5.130
82862W        W54533   1.205  32.598   4.569
82863W        W54534   8.937  38.756  13.463
82864W        W54535  18.216  13.131  13.077
82865W        W54536   1.966  43.320   1.784
82866W        W54537  32.044  12.815  13.452
82867W        W54538  32.792  29.178   4.299
82868W        W54539  31.501   3.820   0.175
82869W        W54540  34.725  31.557  12.578
82870W        W54541  39.774  31.052   1.680
82871W        W54542   6.717  42.826   2.864
82872W        W54543   0.089  15.520  14.860
82873W        W54544  16.154  33.263   4.296
82874W        W54545  27.445   3.972  12.048
82875W        W54546   8.209   8.431  11.197
82876W        W54547   4.294  25.261  10.664
82877W        W54548  12.740  15.840   4.189
82878W        W54549  32.332  32.345  14.441
82879W        W54550   8.296   6.931  14.935
82880W        W54551   7.698   2.481   5.223
82881W        W54552  32.213  36.843  11.123
82882W        W54553  21.464  37.461  11.227
82883W        W54554  42.276   7.976  11.717
82884W        W54555   4.426  30.721   0.736
82885W        W54556  39.401  29.468  12.096
82886W        W54557   1.217  31.390  10.772
82887W        W54558  43.044  15.224   4.126
82888W        W54559  44.856  23.670   5.278
82889W        W54560  38.902  39.392   1.872
82890W        W54561  20.702  28.235  14.429
82891W        W54562  12.222  28.488   0.231
82892W        W54563  20.457  38.705   3.723
82893W        W54564   8.721  13.095  10.649
82894W        W54565   2.789  35.488   4.996
82895W        W54566  32.715  13.860  12.991
82896W        W54567  14.150  16.013   0.715
82897W        W54568   4.845  37.308  14.835
82898W        W54569  41.976  41.478   5.322
82899W        W54570  29.355  16.682   4.665
82900W        W54571  29.376   7.790   9.968
82901W        W54572  33.399  33.987  13.476
82902W        W54573  36.432  40.104  12.186
82903W        W54574   7.789  44.265   3.310
82904W        W54575  30.367  40.835  10.712
82905W        W54576  16.023   2.045  11.011
82906W        W54577  41.920  26.930   0.427
82907W        W54578  27.954  41.344   1.809
82908W        W54579  21.379  22.911   9.889
82909W        W54580   6.713  41.911  12.614
82910W        W54581   0.816  23.199  14.333
82911W        W54582  43.844  38.360  14.986
82912W        W54583   5.859  40.990  12.482
82913W        W54584  33.076  18.242  14.194
82914W        W54585   5.814  33.969   3.409
82915W        W54586  35.529  40.051  11.638
82916W        W54587  35.035   3.305   0.842
82917W        W54588  33.602  38.055  11.289
82918W        W54589  10.077  33.544   2.291
82919W        W54590  28.529   7.069   2.665
82920W        W54591   1.396  32.496   4.079
82921W        W54592  19.694  43.625  14.390
82922W        W54593  18.137  35.595  14.061
82923W        W54594  12.023  28.148   4.308
82924W        W54595  24.557  14.034   3.710
82925W        W54596  26.585  23.283   4.087
82926W        W54597   8.906  17.023  11.566
82927W        W54598   2.322  33.507   1.374
82928W        W54599  10.046   5.752   3.746
82929W        W54600  35.863  31.823  11.624
82930W        W54601  14.806  43.042  11.169
82931W        W54602  35.307  15.772  13.896
82932W        W54603  19.312  24.629   3.368
82933W        W54604  44.369  16.867   2.737
82934W        W54605   0.013   2.899  13.510
82935W        W54606  44.393  30.499  14.388
82936W        W54607  24.504  10.201   0.850
82937W        W54608  11.678  42.960  10.742
82938W        W54609  16.813  42.859  12.139
82939W        W54610  40.906  24.315   3.174
82940W        W54611  38.055  22.913  14.824
82941W        W54612  35.045  27.682   1.814
82942W        W54613  22.938  28.839   0.868
82943W        W54614  28.673   4.329   2.365
82944W        W54615   7.925  25.509   4.589
82945W        W54616   4.688   8.039   3.133
82946W        W54617  38.991  32.720   0.971
82947W        W54618   5.230  35.524   2.892
82948W        W54619  42.431   2.825   4.530
82949W        W54620  39.049  26.767  11.446
82950W        W54621   1.400  17.242  11.044
82951W        W54622  30.544   6.297   3.627
82952W        W54623  38.336  44.163   1.750
82953W        W54624  14.703  29.997   1.894
82954W        W54625  24.043  21.303  14.070
82955W        W54626  22.995  31.623  14.166
82956W        W54627  25.489  17.621   1.723
82957W        W54628  21.931  44.219  12.648
82958W        W54629  32.216  16.084  11.446
82959W        W54630   5.567  18.140  12.943
82960W        W54631  32.093   0.285   3.369
82961W        W54632  13.780  29.131   4.105
82962W        W54633  10.274  37.573  10.552
82963W        W54634   5.635   5.815   3.074
82964W        W54635  20.737  17.299   0.311
82965W        W54636  38.149  28.645   3.182
82966W        W54637   1.960   2.162  13.957
82967W        W54638  12.338  32.119   2.304
82968W        W54639  39.059  12.293  11.094
82969W        W54640  22.234   2.289  14.130
82970W        W54641  34.972   8.399  10.805
82971W        W54642  25.451  12.218  10.676
82972W        W54643  20.772  13.836  11.552
82973W        W54644  23.566  24.780   4.615
82974W        W54645  28.988   1.646  12.567
82975W        W54646  37.568  23.696  12.441
82976W        W54647  14.530  23.660   1.978
82977W        W54648  13.288  17.239   0.274
82978W        W54649  34.785  14.384  13.185
82979W        W54650  18.816  42.999  11.653
82980W        W54651  31.766   6.927   4.140
82981W        W54652  21.374  19.142  12.068
82982W        W54653  23.490  18.792   1.699
82983W        W54654  35.942  41.275  13.446
82984W        W54655  43.417  33.528  13.875
82985W        W54656  38.554  40.272  11.504
82986W        W54657  33.520  43.096   3.134
82987W        W54658  31.877  29.102  14.601
82988W        W54659  15.255  18.296   3.858
82989W        W54660  35.856   2.764  12.781
82990W        W54661   1.923   7.121   0.215
82991W        W54662  17.580  37.047   4.040
82992W        W54663  20.021  32.362  12.823
82993W        W54664  39.571  43.757   2.192
82994W        W54665  34.956  24.722   3.881
82995W        W54666  14.235  43.782  13.235
82996W        W54667  12.634   6.196  14.476
82997W        W54668  40.447  10.777   1.012
82998W        W54669   8.741   7.798   5.016
82999W        W54670  12.133   8.927   0.377
83000W        W54671  31.193  33.023  14.246
83001W        W54672  20.666   8.703  10.644
83002W        W54673   5.236  21.785   1.880
83003W        W54674  13.395  38.772   4.656
83004W        W54675  39.790  42.807   4.232
83005W        W54676  26.282  35.601  11.236
83006W        W54677   1.512   9.869   0.714
83007W        W54678  30.113  39.800   0.322
83008W        W54679  33.404  13.086   1.387
83009W        W54680   0.014  33.341   2.688
83010W        W54681   7.864  26.530  11.166
83011W        W54682  25.247  12.660  10.785
83012W        W54683  31.107  23.238  14.322
83013W        W54684  38.395  24.109  14.248
83014W        W54685   0.338  36.865  11.611
83015W        W54686  42.394  30.238  14.415
83016W        W54687   2.271  29.620  13.494
83017W        W54688   2.247   4.658   1.386
83018W        W54689  30.002   7.639  13.477
83019W        W54690  14.043  28.138  11.484
83020W        W54691  40.543   0.733  13.779
83021W        W54692  37.706  24.288   3.103
83022W        W54693  13.597  37.444  11.552
83023W        W54694  19.156  10.682   0.035
83024W        W54695  26.747   6.185  12.622
83025W        W54696   5.252  42.759  14.161
83026W        W54697  30.429   4.461   4.529
83027W        W54698   2.911  15.205   1.690
83028W        W54699  15.159   3.312   3.972
83029W        W54700  40.972  24.505  14.003
83030W        W54701  21.717  36.844  12.387
83031W        W54702  40.148  17.201   4.542
83032W        W54703  13.836  43.454  11.543
83033W        W54704   7.882  16.133  11.694
83034W        W54705  17.740   4.772   3.774
83035W        W54706  16.064  23.494   0.047
83036W        W54707  44.215  32.936  13.928
83037W        W54708  35.450  32.156  13.790
83038W        W54709  14.588  10.439   0.052
83039W        W54710   7.281  12.749  14.451
83040W        W54711  33.722  13.191  14.824
83041W        W54712  20.535  20.604  14.019
83042W        W54713  17.540   5.446  14.099
83043W        W54714  22.648  32.716  10.655
83044W        W54715  15.657  39.363   0.831
83045W        W54716  31.593  24.071  14.138
83046W        W54717  27.283  24.300  11.144
83047W        W54718   8.706   4.782  12.901
83048W        W54719  34.678  14.287   2.696
83049W        W54720   0.789  27.095  12.345
83050W        W54721  12.785  27.544  11.658
83051W        W54722  10.179   3.616  11.994
83052W        W54723   5.881  27.055   4.315
83053W        W54724   0.075  31.063   1.393
83054W        W54725  13.811   5.787   5.375
83055W        W54726  35.842  25.498   0.314
83056W        W54727  25.942   3.731  11.615
83057W        W54728  40.908  11.249   1.271
83058W        W54729  36.069  14.070   4.627
83059W        W54730  11.431  26.003  12.528
83060W        W54731  43.963  17.049   4.090
83061W        W54732  11.021  24.791  14.024
83062W        W54733  23.253  23.560  13.925
83063W        W54734  26.012  44.940  14.275
83064W        W54735  34.996  26.806  13.024
83065W        W54736  10.668  18.747   2.392
83066W        W54737  32.022  27.999   3.041
83067W        W54738  44.891  17.757   1.925
83068W        W54739   7.872  28.743  10.862
83069W        W54740   9.013  32.613  13.200
83070W        W54741  26.086  34.881   3.297
83071W        W54742   5.143  36.523  13.966
83072W        W54743   9.200  44.653   4.420
83073W        W54744  36.639  16.677   1.341
83074W        W54745  27.980  35.592   4.953
83075W        W54746  36.494  37.466   5.085
83076W        W54747   2.999  10.322   0.631
83077W        W54748  18.359  27.984   2.935
83078W        W54749  16.291   5.326  10.170
83079W        W54750   0.278  32.611  13.553
83080W        W54751  16.446  22.394   2.876
83081W        W54752  28.030  19.687  14.261
83082W        W54753  33.322  41.736   0.872
83083W        W54754  40.022   5.834   3.122
83084W        W54755  28.180  43.622   0.017
83085W        W54756  19.116   0.381  13.890
83086W        W54757  36.997  27.105   4.175
83087W        W54758  12.363   2.705  13.429
83088W        W54759  39.714  25.036   2.673
83089W        W54760  30.718   2.893  12.959
83090W        W54761  27.149  30.454  11.979
83091W        W54762  34.236  34.533  12.894
83092W        W54763  13.134  14.498   2.738
83093W        W54764  43.657  29.110   0.907
83094W        W54765  36.555  12.663   3.730
83095W        W54766  44.363  27.405  11.656
83096W        W54767  18.891   9.755  12.294
83097W        W54768  31.955  37.916  14.499
83098W        W54769  29.103   5.769  11.482
83099W        W54770  25.776   8.823  11.597
83100W        W54771   1.086  36.159   2.909
83101W        W54772   0.834  16.171  11.060
83102W        W54773   3.775  42.184   1.263
83103W        W54774  39.293  13.604  14.353
83104W        W54775   2.169  36.932  11.228
83105W        W54776  35.051  21.469   2.350
83106W        W54777   1.931  21.418  10.664
83107W        W54778  38.912  25.730  11.080
83108W        W54779  17.603  37.616  13.268
83109W        W54780   5.895  27.208  11.432
83110W        W54781   3.400  13.184   3.188
83111W        W54782  32.220  16.078  14.418
83112W        W54783  25.015  12.313   4.857
83113W        W54784  21.216  20.069   3.694
83114W        W54785  41.277  14.148   3.589
83115W        W54786   6.198  38.616  14.341
83116W        W54787   2.803  42.004   1.972
83117W        W54788   7.262  24.721  12.439
83118W        W54789  32.407  14.232  11.442
83119W        W54790  29.057   8.849   3.078
83120W        W54791   2.385  14.253  13.625
83121W        W54792   4.757  42.422  14.896
83122W        W54793  28.463  22.989   4.344
83123W        W54794  22.963  11.701   0.963
83124W        W54795  15.695  17.517   4.229
83125W        W54796  13.194   6.726  10.591
83126W        W54797  26.108  25.684  14.567
83127W        W54798  31.142  18.194   0.529
83128W        W54799  34.068  39.814   3.764
83129W        W54800   3.411  33.482   0.754
83130W        W54801  21.181  14.158  13.494
83131W        W54802   1.751  32.296   3.586
83132W        W54803  35.971  10.808  11.177
83133W        W54804  42.178  27.607   2.339
83134W        W54805  16.252  12.224  10.928
83135W        W54806  29.660  35.477  11.166
83136W        W54807  41.963  21.722  10.627
83137W        W54808  18.674  20.270   0.258
83138W        W54809   3.330   3.479  12.200
83139W        W54810  20.564  34.200   0.827
83140W        W54811  37.580  40.382  13.496
83141W        W54812  39.087  22.575  14.393
83142W        W54813   0.893  30.631   1.170
83143W        W54814  40.225  34.431   3.347
83144W        W54815  42.547  24.048  13.906
83145W        W54816   1.812  22.322   4.284
83146W        W54817  37.355   1.294   2.596
83147W        W54818  12.666  44.523   1.362
83148W        W54819  28.717  42.364   1.485
83149W        W54820  41.469  25.713   4.930
83150W        W54821  37.958  29.720   1.495
83151W        W54822  25.794   4.747   1.242
83152W        W54823  25.953   9.091   2.402
83153W        W54824  29.429  42.990   3.573
83154W        W54825  42.927  19.194  12.461
83155W        W54826  15.809  29.248  14.437
83156W        W54827  36.462  28.355  11.672
83157W        W54828  23.622  20.294  12.481
83158W        W54829  28.467  31.073   3.693
83159W        W54830   1.371  38.917   2.611
83160W        W54831  22.710   1.427   0.096
83161W        W54832   2.291  11.732  10.801
83162W        W54833  44.696  27.232  12.102
83163W        W54834   8.422  37.904  12.622
83164W        W54835  20.884   6.419  10.944
83165W        W54836  30.994  27.940   4.164
83166W        W54837  43.885  40.347  12.562
83167W        W54838  35.595  44.542   3.817
83168W        W54839  24.115  21.700   3.958
83169W        W54840  16.404   7.647   5.028
83170W        W54841   2.749  22.598   3.943
83171W        W54842  14.165   1.006   0.366
83172W        W54843  35.155  33.391   4.539
83173W        W54844  13.065  37.786  13.027
83174W        W54845   6.519  44.991  13.957
83175W        W54846   9.816  23.157   1.317
83176W        W54847  15.237  34.906   2.949
83177W        W54848   5.036   0.895   3.692
83178W        W54849  38.412  33.670  10.363
83179W        W54850  11.111  26.706   1.459
83180W        W54851  44.243   5.486   4.434
83181W        W54852   0.900  31.533   1.296
83182W        W54853   9.727   5.860   1.304
83183W        W54854  27.664  22.338  11.189
83184W        W54855   6.829  22.050  14.874
83185W        W54856  33.692  24.246   2.178
83186W        W54857  31.115  26.952   1.748
83187W        W54858   3.028  41.072   0.293
83188W        W54859  24.770  30.977   4.507
83189W        W54860  27.500  37.852   0.464
83190W        W54861  16.715  32.415  13.778
83191W        W54862   8.394  28.945   1.781
83192W        W54863  42.911  27.471   4.489
83193W        W54864  26.982  12.667   0.877
83194W        W54865   0.686  33.796  11.119
83195W        W54866   7.775  41.759   2.806
83196W        W54867   9.721  17.278   2.898
83197W        W54868  41.579  23.084  12.481
83198W        W54869  36.045  24.608   0.945
83199W        W54870   1.121  29.132   3.462
83200W        W54871  10.666  25.112  14.218
83201W        W54872  33.899  17.869   2.754
83202W        W54873  23.808   1.158   4.103
83203W        W54874  22.460  32.406  12.628
83204W        W54875  44.937  31.384  14.926
83205W        W54876  29.112   7.886  13.690
83206W        W54877   3.744   7.642   1.426
83207W        W54878   5.621  16.027   2.743
83208W        W54879  42.072  38.868  14.334
83209W        W54880  31.038  13.842  13.996
83210W        W54881  14.782  29.176  14.459
83211W        W54882  43.438  42.766  14.379
83212W        W54883  22.494  27.448   0.296
83213W        W54884  42.286  12.278   5.128
83214W        W54885  40.946  12.691  14.465
83215W        W54886  20.195  28.382   4.214
83216W        W54887   5.128  38.546  13.004
83217W        W54888  44.957  27.502   1.384
83218W        W54889  33.084  27.539   2.241
83219W        W54890  33.793  28.410  13.752
83220W        W54891  30.672  33.366   0.047
83221W        W54892  10.248  38.131  10.524
83222W        W54893  17.096  31.220  10.408
83223W        W54894  39.607  12.710   3.117
83224W        W54895   7.781  21.206  13.469
83225W        W54896  17.667  11.724   2.293
83226W        W54897  12.879   1.478  11.016
83227W        W54898  12.221  41.942  13.535
83228W        W54899  20.663   5.147  13.229
83229W        W54900  14.655  21.994   0.693
83230W        W54901  30.551  14.094  11.974
83231W        W54902  26.528   4.318   1.732
83232W        W54903  20.106  38.561   4.076
83233W        W54904   9.850  14.560   3.202
83234W        W54905  35.505  44.316   1.667
83235W        W54906   5.448  20.732  14.569
83236W        W54907   3.151  41.942   3.492
83237W        W54908   0.594  21.659   4.501
83238W        W54909   6.822  27.672  13.309
83239W        W54910  22.302  15.817  12.098
83240W        W54911  34.849  27.020   3.111
83241W        W54912  27.844   9.194  10.680
83242W        W54913   3.250  35.918  13.350
83243W        W54914   0.048   2.199   2.879
83244W        W54915  30.733  26.908  13.283
83245W        W54916  43.222  11.821   2.271
83246W        W54917  18.773  12.924  12.803
83247W        W54918   6.135  22.548  14.268
83248W        W54919  34.257  30.387   3.201
83249W        W54920  40.238  44.439  13.477
83250W        W54921  30.380  22.422   1.455
83251W        W54922  11.641  20.558  12.983
83252W        W54923  25.392  15.705  14.368
83253W        W54924  11.121  28.042   4.609
83254W        W54925  10.423  18.790  13.823
83255W        W54926  27.662  17.584  13.023
83256W        W54927  43.537   4.963  11.142
83257W        W54928  12.945  34.837  11.558
83258W        W54929  38.350   3.904  13.202
83259W        W54930  10.286  26.949   4.732
83260W        W54931  21.132  27.463   4.169
83261W        W54932  42.975  29.448   4.550
83262W        W54933  37.902  37.504  13.572
83263W        W54934  18.628  42.929  13.349
83264W        W54935  13.312  29.521  11.902
83265W        W54936   5.896  43.761  12.869
83266W        W54937  24.539   0.839  10.896
83267W        W54938  43.927  42.740   2.829
83268W        W54939  42.271  13.058  11.993
83269W        W54940   2.974   0.951   3.244
83270W        W54941  16.387   4.920  10.482
83271W        W54942  31.590  39.317   0.453
83272W        W54943  19.489   6.170   2.597
83273W        W54944  19.575   8.355  11.591
83274W        W54945  39.435  16.693  12.001
83275W        W54946  14.275  11.641   2.413
83276W        W54947   5.353  39.065   1.911
83277W        W54948  33.093   3.522   4.779
83278W        W54949  15.780   4.223   1.668
83279W        W54950  41.920  19.500  12.967
83280W        W54951  40.530   7.213  10.242
83281W        W54952   4.637   9.608  12.997
83282W        W54953  39.810   9.605   2.840
83283W        W54954  38.417  29.473   1.439
83284W        W54955  19.689  32.644   2.337
83285W        W54956   4.849   5.351   1.770
83286W        W54957  14.212  16.165  11.221
83287W        W54958  40.616  25.105  10.817
83288W        W54959   1.005  16.341  11.967
83289W        W54960  13.826  20.686   1.179
83290W        W54961  31.479  27.630  11.921
83291W        W54962   5.356   1.830  10.542
83292W        W54963  36.094  30.147   0.618
83293W        W54964   5.840   0.719   2.354
83294W        W54965   7.131   2.191  11.972
83295W        W54966  35.183  40.342   0.590
83296W        W54967  27.613   0.729   0.921
83297W        W54968  35.335  29.039  10.504
83298W        W54969   5.449  40.148   1.735
83299W        W54970   2.294   8.188  12.953
83300W        W54971   4.431   5.308   4.680
83301W        W54972   5.091  16.152  12.033
83302W        W54973  33.938   9.162  10.839
83303W        W54974   0.990  14.516   3.465
83304W        W54975  22.299   3.034   4.525
83305W        W54976  29.009   2.894  12.013
83306W        W54977   9.378   3.154   2.896
83307W        W54978  16.840  43.859  12.957
83308W        W54979  43.623  13.173  12.434
83309W        W54980  36.349  30.387  14.278
83310W        W54981  35.419  40.826   1.958
83311W        W54982  37.710   8.408  12.054
83312W        W54983  25.472  28.575   4.754
83313W        W54984  24.890   8.785  12.478
83314W        W54985  23.190  19.025   3.867
83315W        W54986  40.492  34.348  10.321
83316W        W54987   2.244   7.881  12.489
83317W        W54988  23.911  32.863   4.512
83318W        W54989   1.937  40.495  10.753
83319W        W54990  15.381  25.126   9.988
83320W        W54991   9.815  40.488  13.381
83321W        W54992  42.250  21.894  14.153
83322W        W54993  35.843  14.256  14.461
83323W        W54994  38.369   9.128   0.407
83324W        W54995  44.906  42.886   1.012
83325W        W54996  19.553  19.697  13.839
83326W        W54997  27.597  26.997   2.780
83327W        W54998  17.598  35.183   4.905
83328W        W54999  21.301  42.470  11.976
83329W        W55000  18.234  16.716   4.322
83330W        W55001  12.309  18.019  12.523
83331W        W55002  21.556   1.940  12.843
83332W        W55003  26.408  24.946   4.095
83333W        W55004  38.872  18.887  10.669
83334W        W55005  21.165  14.743   1.250
83335W        W55006  16.688  40.561  12.315
83336W        W55007  40.537  42.046  14.711
83337W        W55008   5.797  40.294  11.914
83338W        W55009  42.876  17.693   1.248
83339W        W55010  19.271  11.112   0.537
83340W        W55011  23.970  10.433   2.406
83341W        W55012  19.212  27.097  11.945
83342W        W55013  16.817  30.520   2.370
83343W        W55014   6.279  26.210   3.982
83344W        W55015  15.730  40.588  13.788
83345W        W55016  37.935  42.719   0.289
83346W        W55017  40.666  36.049  11.224
83347W        W55018  21.111   5.955   1.327
83348W        W55019   5.330  13.933  10.743
83349W        W55020   8.189   1.528  13.506
83350W        W55021  16.260  20.658   0.355
83351W        W55022  16.682   9.749  12.491
83352W        W55023  35.009  22.986  14.014
83353W        W55024   6.520   4.359   0.797
83354W        W55025   2.715   0.727   1.895
83355W        W55026   6.665  26.399  14.089
83356W        W55027  30.993  25.550  12.780
83357W        W55028  31.457  31.957  12.443
83358W        W55029  34.152  10.483   3.313
83359W        W55030  42.932  37.148   2.730
83360W        W55031  24.278  11.638   0.384
83361W        W55032  42.934  18.003  13.469
83362W        W55033  22.072   5.852   1.299
83363W        W55034   1.015   1.537  14.810
83364W        W55035  35.694  34.480  14.585
83365W        W55036  19.681  36.546   3.311
83366W        W55037   3.273   6.590   0.190
83367W        W55038   4.176  14.845   0.386
83368W        W55039   9.896  44.662  11.064
83369W        W55040  42.842  40.498  12.981
83370W        W55041  32.130   1.733  10.525
83371W        W55042  40.619  18.296   0.861
83372W        W55043  12.602  40.325   4.771
83373W        W55044   4.732  24.781   2.849
83374W        W55045   3.195  33.556  14.457
83375W        W55046  22.161   0.823  14.384
83376W        W55047  33.843   6.774  12.457
83377W        W55048  25.550  17.598  12.662
83378W        W55049   7.185  42.826  14.412
83379W        W55050  22.814  13.212   2.740
83380W        W55051   5.650   4.245  14.852
83381W        W55052  14.066  29.586  14.977
83382W        W55053  20.740  31.058  10.604
83383W        W55054   5.348  40.495   4.364
83384W        W55055  41.245  28.099   0.840
83385W        W55056  41.891  29.240  14.693
83386W        W55057  34.033  38.024  11.583
83387W        W55058  16.664  31.638  14.242
83388W        W55059  27.235  40.418  11.481
83389W        W55060  13.619  38.007  14.769
83390W        W55061   1.768   6.529  12.001
83391W        W55062  22.992   7.000  10.831
83392W        W55063  42.763  14.276   3.770
83393W        W55064   1.830  30.508  13.079
83394W        W55065  12.899  38.633   3.719
83395W        W55066  30.880   3.928  14.021
83396W        W55067  12.307   7.305  12.736
83397W        W55068  39.368  36.587  11.634
83398W        W55069   4.309  42.035   3.005
83399W        W55070  38.494  39.787  13.873
83400W        W55071  39.800  14.529  11.448
83401W        W55072  39.544  17.678  14.721
83402W        W55073  21.086  38.576  12.103
83403W        W55074  29.062   5.710  14.332
83404W        W55075  17.244  44.841  13.868
83405W        W55076  17.571  40.316  14.510
83406W        W55077  44.885   0.366   1.763
83407W        W55078  43.482  13.055  11.296
83408W        W55079  11.233  36.315  13.616
83409W        W55080  32.002  22.293   0.791
83410W        W55081  12.327  14.091  14.452
83411W        W55082  21.014  10.302  10.334
83412W        W55083  37.581   2.303  11.340
83413W        W55084  27.637  34.579   4.861
83414W        W55085   2.819  32.938  11.982
83415W        W55086  26.846  23.609   3.730
83416W        W55087  36.912  12.315   0.729
83417W        W55088  25.466  37.425   0.826
83418W        W55089  16.341  38.402   3.601
83419W        W55090  38.278   4.424   2.322
83420W        W55091  39.926  13.118   1.375
83421W        W55092  10.962  28.503   4.397
83422W        W55093  39.595  37.861   1.476
83423W        W55094  16.679  38.601   4.842
83424W        W55095   0.758  27.145   3.185
83425W        W55096   0.834   4.652   5.087
83426W        W55097  17.020  44.416  12.438
83427W        W55098   6.276  15.338  12.887
83428W        W55099   6.411  25.759   3.744
83429W        W55100  27.004  21.791   2.354
83430W        W55101  41.331  14.678   2.851
83431W        W55102  28.726   8.353   1.282
83432W        W55103  37.333   2.042   3.403
83433W        W55104  10.360   3.109   2.820
83434W        W55105  24.605  18.756   3.944
83435W        W55106  34.537   3.495   0.699
83436W        W55107   0.819   0.801  11.596
83437W        W55108  23.350  14.784   3.140
83438W        W55109  10.525  17.240  11.242
83439W        W55110  33.785  42.272   3.646
83440W        W55111  40.239  31.363  14.973
83441W        W55112  38.573  25.182   4.583
83442W        W55113  28.306  39.427   1.766
83443W        W55114  20.511   2.504  11.552
83444W        W55115   1.375  15.653  12.376
83445W        W55116  25.727   7.130  12.096
83446W        W55117   2.240  17.024   5.063
83447W        W55118  11.701  33.124  13.970
83448W        W55119  28.643  16.223  10.582
83449W        W55120  33.632  35.513   0.265
83450W        W55121  43.903  27.653  12.462
83451W        W55122  18.499   5.818  14.400
83452W        W55123  43.045  40.575  10.823
83453W        W55124  20.149  37.251   2.170
83454W        W55125  43.360  23.267   3.214
83455W        W55126  44.378  30.658  14.927
83456W        W55127  42.659  36.407  13.035
83457W        W55128   1.152  21.609  10.956
83458W        W55129  10.541  12.578  13.990
83459W        W55130  36.072  31.868   4.588
83460W        W55131   0.984   8.917   3.673
83461W        W55132  20.078  27.382   4.325
83462W        W55133  18.587  39.329   2.647
83463W        W55134  17.237   2.692  13.452
83464W        W55135  16.077   9.216   0.965
83465W        W55136  42.773   5.798   1.794
83466W        W55137   2.501  40.078  14.542
83467W        W55138  19.125  30.449  13.535
83468W        W55139  39.749  32.287  13.830
83469W        W55140  30.615   4.773   1.744
83470W        W55141   7.213  17.395   3.732
83471W        W55142  33.920  19.062  11.645
83472W        W55143  35.221   1.396  11.794
83473W        W55144  19.778  44.700   3.681
83474W        W55145  10.345  36.592  14.699
83475W        W55146  34.680  42.286   3.335
83476W        W55147  15.753  13.312   2.856
83477W        W55148  42.030  38.353  10.676
83478W        W55149  35.222  35.150   2.196
83479W        W55150   1.394   9.138   4.988
83480W        W55151   4.463  23.663   1.390
83481W        W55152  37.454  33.438  11.147
83482W        W55153  24.754  32.234  12.468
83483W        W55154  31.688  36.183   4.330
83484W        W55155  41.274  24.986   2.785
83485W        W55156  35.579  33.641  12.248
83486W        W55157  26.324  19.659   5.223
83487W        W55158  40.391   2.418  12.060
83488W        W55159  39.839  18.063  11.053
83489W        W55160  20.660  26.483   1.363
83490W        W55161   7.420  18.041   0.018
83491W        W55162  14.584  11.166   3.739
83492W        W55163  29.461  34.325   3.894
83493W        W55164  30.392  35.516  13.446
83494W        W55165  34.379  12.109  10.606
83495W        W55166  35.195  20.494  14.007
83496W        W55167  21.925  42.056   1.906
83497W        W55168  37.000  23.586  13.665
83498W        W55169  13.169  37.879   2.071
83499W        W55170  20.844  21.097   1.290
83500W        W55171  19.223  33.597   2.222
83501W        W55172  26.379   9.667   4.622
83502W        W55173  27.136  11.962   3.707
83503W        W55174   9.391  38.073  14.322
83504W        W55175  29.453   7.500  14.532
83505W        W55176   7.680  43.964   0.593
83506W        W55177  25.093  39.547   3.136
83507W        W55178  28.746   0.809   4.844
83508W        W55179   5.797  37.530   0.754
83509W        W55180   9.565   4.659   3.337
83510W        W55181   0.785  28.487  10.295
83511W        W55182  40.388   3.693  13.431
83512W        W55183   1.598   0.446  10.760
83513W        W55184   1.137  23.161   0.530
83514W        W55185  36.960  29.401   2.651
83515W        W55186  27.985  23.442  11.579
83516W        W55187  17.321  42.563  13.382
83517W        W55188  23.542  14.889  12.630
83518W        W55189   1.526  14.921   4.167
83519W        W55190  42.928  24.617   1.698
83520W        W55191  32.465  28.541   1.809
83521W        W55192  27.197  13.726   4.127
83522W        W55193  13.746  11.913  12.945
83523W        W55194  30.561  33.908  14.015
83524W        W55195  29.330  25.581   0.287
83525W        W55196  42.120  20.319   0.201
83526W        W55197  26.418   8.994   2.697
83527W        W55198  24.931  12.283  10.631
83528W        W55199   3.545  39.331  13.956
83529W        W55200  30.663  40.665   0.308
83530W        W55201  12.901   7.240   1.633
83531W        W55202  20.341   4.651   2.738
83532W        W55203  10.848  17.585  11.437
83533W        W55204  18.614  24.765   1.180
83534W        W55205  24.482  41.413  10.475
83535W        W55206   4.544  39.306  13.934
83536W        W55207  16.312  11.562  14.005
83537W        W55208  17.585  25.651  12.031
83538W        W55209  23.145   7.685  12.383
83539W        W55210  26.844  30.262   0.342
83540W        W55211  10.134   7.342  13.998
83541W        W55212  14.614   0.775   0.445
83542W        W55213  31.847  41.399   0.193
83543W        W55214  26.096  19.168   0.538
83544W        W55215  14.395  29.227   2.294
83545W        W55216   0.915  15.561  12.598
83546W        W55217  44.802  25.372  13.893
83547W        W55218  22.662  24.687  14.493
83548W        W55219   6.995  31.857  13.441
83549W        W55220  35.858  16.244   1.304
83550W        W55221  29.333   7.383   5.454
83551W        W55222   9.173  15.181   4.302
83552W        W55223   6.364  15.548   4.630
83553W        W55224  37.972  32.756   2.430
83554W        W55225  33.438  26.132  11.933
83555W        W55226  15.025  40.131   4.610
83556W        W55227   5.699   3.490  12.368
83557W        W55228  23.198  14.595  14.405
83558W        W55229  22.191  13.193   1.867
83559W        W55230  13.099  29.260  11.024
83560W        W55231  35.308  14.273   1.328
83561W        W55232  30.556  19.338   2.708
83562W        W55233  28.063  11.632   4.594
83563W        W55234  18.107  32.141  13.988
83564W        W55235  26.106  10.183  14.448
83565W        W55236   5.856  15.284  12.422
83566W        W55237  39.617  25.508   1.875
83567W        W55238  34.063   3.320  11.569
83568W        W55239  14.288  17.970  11.171
83569W        W55240   9.951  42.225  10.535
83570W        W55241  42.038  17.386   3.663
83571W        W55242  38.542  24.894  11.426
83572W        W55243   4.083  41.459  11.507
83573W        W55244  25.172  27.560  14.449
83574W        W55245  29.496  13.804   2.313
83575W        W55246  22.049  42.810  11.542
83576W        W55247  36.810  43.027  13.489
83577W        W55248   9.867  24.236   2.302
83578W        W55249  41.065  30.837   3.272
83579W        W55250  38.039  38.732  13.465
83580W        W55251  18.019  10.947   0.608
83581W        W55252   7.123  10.446  11.981
83582W        W55253   9.639   5.182  10.778
83583W        W55254   9.198  12.638   0.181
83584W        W55255  26.430  19.245  11.519
83585W        W55256  33.327  41.410   3.422
83586W        W55257  33.113   9.274  13.791
83587W        W55258   5.279  29.145   1.374
83588W        W55259   1.952  25.128  10.846
83589W        W55260  36.438  10.121   1.269
83590W        W55261  17.094  36.312   0.857
83591W        W55262  34.629  36.831  12.081
83592W        W55263  22.823  42.481  13.895
83593W        W55264  21.793   8.622  11.421
83594W        W55265   9.328  16.321  11.189
83595W        W55266   9.259  16.725   0.849
83596W        W55267  22.143  30.619  13.956
83597W        W55268   9.345  13.764  10.626
83598W        W55269  11.362   9.680   1.904
83599W        W55270   7.847  27.998  14.960
83600W        W55271  14.724  37.109   0.156
83601W        W55272  16.731   3.981   1.688
83602W        W55273  32.157  44.473   0.243
83603W        W55274  33.949  24.689  11.133
83604W        W55275   3.851  24.945  12.510
83605W        W55276  42.016   4.387   0.030
83606W        W55277  15.150  41.247  11.382
83607W        W55278  16.494  41.326   0.883
83608W        W55279   4.973  26.019   4.165
83609W        W55280  28.887  33.941  12.971
83610W        W55281  16.101  16.107   4.332
83611W        W55282  14.758  26.615  11.066
83612W        W55283  35.478   0.190  12.040
83613W        W55284  20.650  41.177   3.598
83614W        W55285  12.411  26.122  12.449
83615W        W55286  13.625  33.037   0.680
83616W        W55287  12.829  21.309  11.517
83617W        W55288   8.385   5.173   2.880
83618W        W55289  40.934  12.728   0.312
83619W        W55290  41.705  10.182  11.027
83620W        W55291  26.507  21.187   4.099
83621W        W55292  12.881  42.681  11.118
83622W        W55293   6.780  22.711   2.406
83623W        W55294  28.992  25.635   1.812
83624W        W55295  12.272  23.259  14.399
83625W        W55296  20.447   4.892  14.916
83626W        W55297  40.265   1.909  12.942
83627W        W55298  28.755   5.666  12.206
83628W        W55299  10.698  22.608  14.007
83629W        W55300   2.453  15.239  13.949
83630W        W55301   6.637  43.821   3.262
83631W        W55302  33.041   4.136   3.164
83632W        W55303  13.245   5.852   2.659
83633W        W55304  42.459  42.756   4.687
83634W        W55305  34.865  12.752   4.100
83635W        W55306  15.319  32.594  12.462
83636W        W55307  35.919   8.181   4.613
83637W        W55308  40.134  16.600   1.546
83638W        W55309  26.424  17.756  14.723
83639W        W55310  16.609  16.879  11.629
83640W        W55311  25.926  42.936  11.186
83641W        W55312  44.688   7.330   0.693
83642W        W55313  14.796  36.476   2.748
83643W        W55314  41.367   0.262  12.971
83644W        W55315  44.413  12.561   0.274
83645W        W55316   2.241  30.525  12.130
83646W        W55317  38.010   4.240  12.966
83647W        W55318  15.099  22.300  12.032
83648W        W55319  41.096   4.255  11.898
83649W        W55320   0.660  14.810   1.918
83650W        W55321  20.175  38.134   4.477
83651W        W55322  30.913  33.873   4.101
83652W        W55323  23.272   6.317   4.670
83653W        W55324  12.328   6.615  11.034
83654W        W55325  17.198  18.177  10.621
83655W        W55326  20.627  30.118  13.404
83656W        W55327  10.829  11.306   4.227
83657W        W55328  15.547  42.875   0.708
83658W        W55329   9.425  18.767  12.670
83659W        W55330  33.575  13.176  12.828
83660W        W55331   7.186  29.982   4.931
83661W        W55332  12.254  23.469   0.405
83662W        W55333   4.260  13.807   0.669
83663W        W55334   8.196   9.459   2.975
83664W        W55335  34.865  34.153   2.879
83665W        W55336  41.250  37.905  13.906
83666W        W55337  44.781  33.455  13.553
83667W        W55338  16.198  34.592  14.741
83668W        W55339  43.517  15.113   1.317
83669W        W55340   2.869  21.009   2.771
83670W        W55341   1.740  41.828  11.065
83671W        W55342   7.503  41.053  11.941
83672W        W55343  44.491  29.529   0.023
83673W        W55344  19.196   6.387  13.410
83674W        W55345  42.864  30.803   4.680
83675W        W55346  18.237   7.409   2.324
83676W        W55347   1.868  21.342  12.552
83677W        W55348  11.209  39.394   3.217
83678W        W55349   8.889  22.200   0.444
83679W        W55350   0.999  43.485  13.686
83680W        W55351  43.143  35.407  14.199
83681W        W55352  31.871  12.252   1.414
83682W        W55353  26.956  20.272  12.575
83683W        W55354  35.597  40.535   5.097
83684W        W55355  10.835   8.771  12.515
83685W        W55356  13.141   2.484   0.370
83686W        W55357  15.633  43.855   1.281
83687W        W55358  15.139  31.113   2.215
83688W        W55359  23.845   8.027  11.190
83689W        W55360  43.899  36.793  11.151
83690W        W55361  37.360  23.262   2.304
83691W        W55362  26.508  21.303  14.379
83692W        W55363  30.256  28.270  11.134
83693W        W55364  16.221  37.494  12.530
83694W        W55365   4.807   1.814  13.857
83695W        W55366  20.560  14.769   1.230
83696W        W55367  24.377  18.633   1.618
83697W        W55368  36.135  13.590   4.383
83698W        W55369  35.546  15.836  14.886
83699W        W55370  32.679  34.908  14.208
83700W        W55371  19.248  35.039  10.708
83701W        W55372  37.943  22.354  13.906
83702W        W55373  33.507  13.251   1.879
83703W        W55374  13.570  42.476  14.413
83704W        W55375  42.371  22.416  11.107
83705W        W55376  10.177  11.216   1.880
83706W        W55377  15.610   7.681   4.608
83707W        W55378  26.498  34.929   4.628
83708W        W55379  15.118  13.340  12.025
83709W        W55380   7.805  32.392   0.893
83710W        W55381  38.588  30.379  14.803
83711W        W55382  14.191   0.673   1.987
83712W        W55383  29.072   9.830  14.187
83713W        W55384  18.535  36.282   5.036
83714W        W55385  12.610   6.641  10.539
83715W        W55386   6.017  11.585   2.735
83716W        W55387  16.900  13.907   5.145
83717W        W55388  14.006   0.872   2.448
83718W        W55389  28.413  19.512   3.386
83719W        W55390  20.774  37.619  10.767
83720W        W55391  37.177  26.293   5.036
83721W        W55392  30.015  26.485  13.038
83722W        W55393  20.196   2.186  13.861
83723W        W55394   3.045  20.706  13.205
83724W        W55395   3.447  16.277  14.999
83725W        W55396  31.343  19.602  14.671
83726W        W55397  17.976  10.973   0.084
83727W        W55398  14.422  10.275  10.721
83728W        W55399  19.499   1.769  12.117
83729W        W55400  19.084  28.929   2.200
83730W        W55401  27.690  38.553   3.707
83731W        W55402   9.526  32.916   3.022
83732W        W55403  12.730   8.033   3.295
83733W        W55404  12.332  43.852  12.212
83734W        W55405  24.938   0.909   3.621
83735W        W55406  35.268   3.160   2.600
83736W        W55407  19.212  29.666   1.859
83737W        W55408  34.111   8.683  14.393
83738W        W55409   4.628   4.831   4.612
83739W        W55410  44.468   8.671   1.352
83740W        W55411  29.064  22.489  12.996
83741W        W55412  33.913  12.330   2.726
83742W        W55413  40.139  25.926  10.824
83743W        W55414  13.684  19.676   2.295
83744W        W55415  44.302  15.249   1.751
83745W        W55416   7.478  22.948   0.629
83746W        W55417   6.290  44.424   1.192
83747W        W55418  43.022  23.040  12.489
83748W        W55419  42.285  12.820   5.157
83749W        W55420  15.268  37.596  12.503
83750W        W55421  15.136  35.943   4.810
83751W        W55422  33.521  28.094  11.861
83752W        W55423  35.499  19.624  13.125
83753W        W55424   0.854  16.045  13.870
83754W        W55425  12.836  42.073  14.857
83755W        W55426   0.966  34.375   0.438
83756W        W55427  37.846  28.313   4.112
83757W        W55428  30.076  30.222   2.556
83758W        W55429   9.194  19.530   2.210
83759W        W55430  41.345  43.065  14.867
83760W        W55431  15.132  40.082   3.714
83761W        W55432   4.278  13.722   1.614
83762W        W55433  28.211   1.726   3.810
83763W        W55434   9.427  28.006   0.978
83764W        W55435  42.104  41.460   4.739
83765W        W55436   4.828  43.174   1.336
83766W        W55437   5.714  21.590   4.543
83767W        W55438   2.991  16.288  13.548
83768W        W55439  32.749  19.586   2.586
83769W        W55440  15.358   8.894   0.622
83770W        W55441   3.703   8.164  13.254
83771W        W55442  26.473  40.742  14.063
83772W        W55443  15.945  16.959  11.140
83773W        W55444  25.453   2.299   2.797
83774W        W55445  35.937  28.399  13.956
83775W        W55446  33.568   4.000  13.910
83776W        W55447  14.227   9.177  11.588
83777W        W55448  22.976  25.151   4.023
83778W        W55449  12.242  27.557   3.912
83779W        W55450  39.472   5.809  11.601
83780W        W55451  38.633   2.943   4.898
83781W        W55452  31.464  38.489   3.797
83782W        W55453  16.513  42.767  10.689
83783W        W55454  20.711  36.367  11.021
83784W        W55455  22.554  19.480  12.932
83785W        W55456  23.135  18.311   2.868
83786W        W55457   3.023   1.903   0.383
83787W        W55458  27.430  35.662  12.827
83788W        W55459  40.870  18.607   4.575
83789W        W55460  29.368  30.398  11.327
83790W        W55461  25.270  37.589  14.945
83791W        W55462  36.922  37.386  13.302
83792W        W55463   2.849  34.450   4.116
83793W        W55464  33.195   1.842   3.339
83794W        W55465  42.163  16.815   1.117
83795W        W55466  34.546  34.592   1.421
83796W        W55467  44.996  37.993   2.497
83797W        W55468  15.532   3.307  10.953
83798W        W55469  12.010   9.230  10.696
83799W        W55470  18.324   5.862   4.582
83800W        W55471  36.026  38.791   0.425
83801W        W55472  43.987  11.102  11.049
83802W        W55473  42.406  37.595  11.843
83803W        W55474  10.732  37.614  13.656
83804W        W55475  40.954  20.220   4.060
83805W        W55476  16.954  34.020  13.941
83806W        W55477  18.565  16.572  12.883
83807W        W55478  18.538  11.381  11.495
83808W        W55479  25.295  44.718  11.132
83809W        W55480   1.253  16.241  12.933
83810W        W55481  16.167  18.279  11.477
83811W        W55482  11.096  24.728   4.201
83812W        W55483   6.001   1.424  11.162
83813W        W55484  37.866  28.156   1.412
83814W        W55485   9.132   1.249  14.025
83815W        W55486   1.225  10.381   1.376
83816W        W55487  23.537  17.342  10.638
83817W        W55488  18.137  32.851  13.387
83818W        W55489  41.563  41.278  12.863
83819W        W55490   6.319  30.055   4.632
83820W        W55491  32.802  44.826  14.386
83821W        W55492  12.187  43.398  11.385
83822W        W55493  41.449  40.047  10.659
83823W        W55494   7.868  43.632   1.695
83824W        W55495   8.878  24.098  10.361
83825W        W55496  17.507   3.845   2.628
83826W        W55497   7.345  13.915  13.327
83827W        W55498  26.281  39.757   3.856
83828W        W55499  26.176  15.190   3.868
83829W        W55500  12.314   9.655   3.297
83830W        W55501  24.323  20.246   4.165
83831W        W55502  27.553  28.699  12.555
83832W        W55503  20.250  18.332   2.396
83833W        W55504  15.143  15.315   0.278
83834W        W55505  29.443  36.134  14.324
83835W        W55506   7.822   1.847  10.839
83836W        W55507  37.797  38.538  12.583
83837W        W55508  26.287   6.435  10.420
83838W        W55509  14.883  38.091   1.814
83839W        W55510  43.407  12.719   4.875
83840W        W55511  34.453  25.169   1.204
83841W        W55512   5.232  26.289  11.034
83842W        W55513   6.091  21.649   1.631
83843W        W55514  13.609  18.591   0.266
83844W        W55515  29.222   7.348  11.134
83845W        W55516  10.025  27.077  14.762
83846W        W55517   7.123  13.874   2.239
83847W        W55518  18.246  29.218   2.935
83848W        W55519  23.964  24.924   0.869
83849W        W55520  13.346  17.574  13.377
83850W        W55521  30.413  17.533   2.290
83851W        W55522  31.168  40.705  14.038
83852W        W55523   5.243  22.075  14.259
83853W        W55524   1.547  27.918   4.661
83854W        W55525  17.671   5.492  10.486
83855W        W55526  43.655   5.834  10.968
83856W        W55527  15.719  30.053   1.373
83857W        W55528   0.727   7.232   0.789
83858W        W55529   0.436   7.838  12.535
83859W        W55530  24.497   8.825   0.321
83860W        W55531  15.869   9.730  14.927
83861W        W55532   6.753  37.632   2.107
83862W        W55533  12.684   5.032  12.837
83863W        W55534  24.928  28.746  12.519
83864W        W55535  36.726  15.864  12.432
83865W        W55536  40.075  32.902   1.761
83866W        W55537   8.667   1.372   1.364
83867W        W55538   9.271  10.274   4.633
83868W        W55539  17.502  21.604   2.799
83869W        W55540  44.725  39.239  13.547
83870W        W55541  42.487  15.272   3.215
83871W        W55542   1.390   8.798   1.663
83872W        W55543  15.223  23.221   1.091
83873W        W55544  27.382  14.727  12.811
83874W        W55545  43.082  19.069  11.089
83875W        W55546   4.535   9.808   2.838
83876W        W55547   6.204  23.084  14.268
83877W        W55548   4.779  36.995   2.080
83878W        W55549  28.698   8.954   5.226
83879W        W55550  13.840  13.142   0.517
83880W        W55551  23.735  22.074   4.818
83881W        W55552   1.279  25.986  13.562
83882W        W55553  13.183  34.000  13.811
83883W        W55554  19.675  10.998   3.724
83884W        W55555  34.568   2.956   1.742
83885W        W55556  10.298  32.409   3.956
83886W        W55557  31.469  40.833   3.162
83887W        W55558  33.030  12.926   2.591
83888W        W55559  38.939  34.041   2.703
83889W        W55560   9.800  21.940   0.341
83890W        W55561   2.507  11.760   0.886
83891W        W55562  23.024  41.923   0.261
83892W        W55563  32.657  31.139  12.348
83893W        W55564  32.546  40.286   5.013
83894W        W55565   8.629   5.235   3.866
83895W        W55566   5.775  24.168  10.728
83896W        W55567  10.327  15.883  11.115
83897W        W55568  19.152  41.999   1.341
83898W        W55569   9.770  43.449   3.708
83899W        W55570   6.494  34.980   2.304
83900W        W55571  22.188  38.207   3.183
83901W        W55572  43.373   5.622  12.680
83902W        W55573  20.600  16.950   0.700
83903W        W55574  13.841   9.142   4.025
83904W        W55575  38.419  23.496   0.444
83905W        W55576   6.706  27.977  12.908
83906W        W55577  19.580  12.329   5.061
83907W        W55578   1.481  23.913  13.446
83908W        W55579  26.646  37.340   1.729
83909W        W55580  27.203  25.717   3.267
83910W        W55581  37.243  23.342   1.787
83911W        W55582   1.831  33.061   2.673
83912W        W55583  13.913  33.202  10.749
83913W        W55584  16.027  41.591   0.882
83914W        W55585   1.972   4.715  12.915
83915W        W55586  33.330  14.093  10.891
83916W        W55587   2.453  40.530  10.645
83917W        W55588   8.092  20.539   0.778
83918W        W55589  39.788  19.236  11.538
83919W        W55590  26.628  38.854   1.897
83920W        W55591  14.204   8.957   4.577
83921W        W55592  34.581   8.700   2.841
83922W        W55593  40.051  22.629   3.551
83923W        W55594  36.535  32.423   1.724
83924W        W55595  42.265  31.142   2.647
83925W        W55596  39.318   5.622  10.642
83926W        W55597  43.773  38.518  12.297
83927W        W55598  36.050  16.688  13.568
83928W        W55599   6.129  21.241  10.650
83929W        W55600   0.868  21.938   1.859
83930W        W55601  29.038  26.025  10.695
83931W        W55602  40.722  39.437  13.334
83932W        W55603  43.171   3.318  13.638
83933W        W55604   2.271  40.774   1.876
83934W        W55605  33.108  14.730   2.220
83935W        W55606   3.839  43.243   3.655
83936W        W55607  43.053   1.254   3.249
83937W        W55608  22.542  36.428   1.870
83938W        W55609  42.342   1.811  10.443
83939W        W55610  24.366   0.762  11.898
83940W        W55611  43.202   6.804   1.284
83941W        W55612  41.476   3.354  11.687
83942W        W55613  41.297  38.150   1.757
83943W        W55614  16.829  19.100   4.176
83944W        W55615   4.703  44.033  10.261
83945W        W55616  10.251  24.637   2.706
83946W        W55617  31.967  12.159  14.907
83947W        W55618  30.873  12.766  10.680
83948W        W55619  37.089  10.329  11.674
83949W        W55620  27.538  35.971   3.490
83950W        W55621  18.938  32.609   1.638
83951W        W55622  17.144  44.256  14.412
83952W        W55623  40.343  12.989   1.702
83953W        W55624  43.296  32.100  14.723
83954W        W55625   3.184  15.476  11.331
83955W        W55626  11.730  29.501  14.527
83956W        W55627  26.287  14.107  13.078
83957W        W55628  10.568  29.705  14.307
83958W        W55629   4.226  28.653   3.681
83959W        W55630  11.831  15.703   2.269
83960W        W55631  21.612  41.020  10.230
83961W        W55632  13.569  13.201  12.840
83962W        W55633   5.384   0.994  14.245
83963W        W55634  30.488  44.339  11.209
83964W        W55635  29.116   5.958  12.490
83965W        W55636  14.568  22.979  12.521
83966W        W55637  22.460  24.526   1.724
83967W        W55638  39.492   6.804  11.506
83968W        W55639   2.850  15.785  13.522
83969W        W55640  38.664   1.761   0.712
83970W        W55641  20.959   3.341   1.604
83971W        W55642  31.909  43.790   3.243
83972W        W55643  19.957   7.859  11.058
83973W        W55644  15.851   6.191  14.404
83974W        W55645   2.543  20.770   3.086
83975W        W55646  35.912   6.287   0.744
83976W        W55647   6.326  24.517  11.099
83977W        W55648  41.932  29.799  10.815
83978W        W55649  37.580  41.463  14.621
83979W        W55650  31.049  28.689   4.623
83980W        W55651  10.256  39.103  12.063
83981W        W55652  12.111  40.481   1.906
83982W        W55653  16.931  19.322  14.755
83983W        W55654  34.549  25.024   3.714
83984W        W55655  15.303  30.709   3.306
83985W        W55656  21.368  27.527  13.454
83986W        W55657  16.324  32.050   3.709
83987W        W55658  10.630  37.047   0.865
83988W        W55659  18.212  30.698   2.688
83989W        W55660  44.305  21.553   5.456
83990W        W55661  30.010  31.865   1.872
83991W        W55662  21.970   3.775  11.972
83992W        W55663  23.284   8.328   3.317
83993W        W55664   8.813  18.604   2.206
83994W        W55665  26.463  44.944   3.379
83995W        W55666   5.184  17.227   2.334
83996W        W55667  37.386   5.208  10.783
83997W        W55668  12.739  44.354  12.428
83998W        W55669  36.065  16.998  12.622
83999W        W55670  31.946   8.982   1.439
84000W        W55671  38.392   8.703   1.356
84001W        W55672  44.103  38.852  11.447
84002W        W55673  29.736  19.574  10.396
84003W        W55674   9.861  43.842   0.033
84004W        W55675  44.906  15.586   4.348
84005W        W55676  26.429  31.706   0.676
84006W        W55677  19.683  27.604   0.730
84007W        W55678  26.622  16.635  14.070
84008W        W55679  36.132  40.175   4.629
84009W        W55680  24.984  25.223  11.546
84010W        W55681  39.499  38.829   1.734
84011W        W55682  30.877  29.054  13.799
84012W        W55683  32.583  31.198  14.900
84013W        W55684   4.667  12.154   3.703
84014W        W55685  35.856  44.360  13.057
84015W        W55686   2.710   6.036   0.554
84016W        W55687  44.462   6.688  13.736
84017W        W55688  31.142  12.800   1.285
84018W        W55689   4.670  34.980   1.240
84019W        W55690   4.731   1.142  13.387
84020W        W55691  33.966  38.774   1.912
84021W        W55692  30.182  23.625  10.711
84022W        W55693  20.533   7.638  13.304
84023W        W55694  19.556  20.030  12.406
84024W        W55695  24.443   1.600   2.282
84025W        W55696  21.469   3.011   4.061
84026W        W55697   7.702  10.673  10.657
84027W        W55698   8.728  30.217   0.967
84028W        W55699  12.777  42.434   4.513
84029W        W55700  38.629   1.938  10.751
84030W        W55701  40.132  31.608  12.382
84031W        W55702  42.033  26.716  13.174
84032W        W55703  28.928   3.161   3.574
84033W        W55704   8.286  16.196  11.414
84034W        W55705   4.472  25.573  13.523
84035W        W55706  37.471   5.454  11.224
84036W        W55707  36.019  21.772   1.499
84037W        W55708  27.491  42.082   4.466
84038W        W55709  17.837  10.242   2.354
84039W        W55710   0.812  18.561  14.769
84040W        W55711  27.404  36.479   1.256
84041W        W55712  44.850  38.096   1.072
84042W        W55713   3.640  29.202  11.053
84043W        W55714  41.003  43.039   0.258
84044W        W55715  38.040  27.815  11.508
84045W        W55716  17.931   4.351  13.865
84046W        W55717   3.821  24.194   1.713
84047W        W55718  40.848  17.925   2.424
84048W        W55719  29.390   8.701  14.764
84049W        W55720  13.810   2.934  13.112
84050W        W55721  30.662   7.799   0.359
84051W        W55722  37.755  26.057  13.536
84052W        W55723  11.327  22.077   0.777
84053W        W55724  25.783  37.314   4.998
84054W        W55725   2.294  18.137  14.238
84055W        W55726  20.239  33.920  10.720
84056W        W55727  33.455   7.357   2.833
84057W        W55728  44.424  32.885   4.375
84058W        W55729  17.979  19.094  12.913
84059W        W55730  11.100  36.909   1.767
84060W        W55731  10.692   5.295   0.844
84061W        W55732   9.505  17.457  13.004
84062W        W55733  28.612  35.537  11.163
84063W        W55734  22.514  14.378   0.751
84064W        W55735  35.622  24.050  10.746
84065W        W55736  29.387   2.483   3.134
84066W        W55737  10.175  38.761  12.431
84067W        W55738   8.341   0.668   0.994
84068W        W55739  31.221   0.965  14.368
84069W        W55740   2.754  19.170   2.677
84070W        W55741  43.972  42.529   1.403
84071W        W55742  28.789  34.876   4.424
84072W        W55743  28.138  25.514   0.917
84073W        W55744  32.590  38.413  13.815
84074W        W55745  41.722  21.899  10.217
84075W        W55746  20.207  43.652  14.352
84076W        W55747   2.052  25.599  11.108
84077W        W55748  35.216  43.416   2.263
84078W        W55749  16.655  10.313   1.847
84079W        W55750  36.135  20.307   2.468
84080W        W55751  17.027  43.888   1.926
84081W        W55752  26.177  35.378   2.312
84082W        W55753   7.910  37.856  12.552
84083W        W55754  30.916  38.074  12.891
84084W        W55755   1.880  24.267  10.934
84085W        W55756   2.468  16.758  14.339
84086W        W55757  34.047  38.348  14.042
84087W        W55758  22.519   6.654  12.248
84088W        W55759  14.048  39.628  11.602
84089W        W55760  13.907  16.735   0.932
84090W        W55761  43.595   5.622  14.658
84091W        W55762  30.367  21.560   2.616
84092W        W55763  13.383  10.224   1.467
84093W        W55764  41.459  21.720  13.564
84094W        W55765   2.370  21.616  10.870
84095W        W55766  39.882  17.140   4.095
84096W        W55767  15.276   0.284  12.106
84097W        W55768  20.489  34.149  14.412
84098W        W55769   4.377   9.335   2.719
84099W        W55770  25.157   8.950   2.790
84100W        W55771  41.749  22.221  12.477
84101W        W55772  38.890   8.718   1.129
84102W        W55773   7.356  32.466  11.914
84103W        W55774   2.238  20.002   3.953
84104W        W55775  35.617  19.003   0.852
84105W        W55776   4.781  30.946   1.327
84106W        W55777  28.873   3.419   2.204
84107W        W55778  39.329  36.324  14.937
84108W        W55779  37.510  28.545   0.769
84109W        W55780  27.448  39.858  11.299
84110W        W55781  12.872   6.381  13.065
84111W        W55782  43.464  26.361   2.238
84112W        W55783  33.341  35.061  12.991
84113W        W55784  44.231  37.485  13.028
84114W        W55785   1.749  22.128   4.742
84115W        W55786  33.855  18.379   2.782
84116W        W55787  33.937  30.146  11.939
84117W        W55788   9.657  15.822   2.876
84118W        W55789   7.344  14.247   4.184
84119W        W55790  40.911  18.187   0.434
84120W        W55791  36.624  27.984   3.718
84121W        W55792   1.114  36.720  11.564
84122W        W55793  10.348  29.537  12.943
84123W        W55794   6.792  35.388  13.383
84124W        W55795   0.620  18.277  14.354
84125W        W55796  30.541  10.869  11.907
84126W        W55797  24.998  26.548  13.509
84127W        W55798  11.847  40.801   4.641
84128W        W55799   9.446  35.499   4.127
84129W        W55800   4.987  37.558   2.615
84130W        W55801   2.773  19.317  14.608
84131W        W55802  10.634  18.352   4.680
84132W        W55803  26.202  25.292  14.213
84133W        W55804   8.395  20.415   3.091
84134W        W55805  37.468   4.952   3.269
84135W        W55806   3.536   5.265   1.245
84136W        W55807   3.122  39.394  13.076
84137W        W55808   0.222  44.900  14.164
84138W        W55809  40.968  21.674  14.434
84139W        W55810  34.691  40.133   0.888
84140W        W55811  27.700  14.618   3.865
84141W        W55812   5.483  25.055   5.192
84142W        W55813  14.432  17.548   0.907
84143W        W55814  11.622  14.200  12.303
84144W        W55815  14.679   8.866  13.318
84145W        W55816   8.786  28.706  12.042
84146W        W55817  29.017  17.316   3.764
84147W        W55818  44.982   0.264  13.381
84148W        W55819  44.307  14.177  12.940
84149W        W55820  22.936  14.724   2.800
84150W        W55821  32.355  17.164  10.922
84151W        W55822  16.776  20.817   2.355
84152W        W55823  15.651   7.768  13.997
84153W        W55824  12.129  36.643   4.609
84154W        W55825  10.396  27.165   1.367
84155W        W55826  23.059  25.471  13.286
84156W        W55827   2.968  37.789  10.690
84157W        W55828  10.516  23.363  11.206
84158W        W55829  23.057   6.259   0.784
84159W        W55830  44.156  14.209   2.340
84160W        W55831  26.162  22.564   1.685
84161W        W55832  38.308  11.832  10.640
84162W        W55833  20.805   0.770   0.993
84163W        W55834  43.569  26.658   5.196
84164W        W55835  40.014  12.832  13.082
84165W        W55836  19.608  14.219   0.668
84166W        W55837   1.964  10.321   3.416
84167W        W55838  28.728  36.055  10.939
84168W        W55839  26.124   4.859   4.059
84169W        W55840  14.818  41.260   5.003
84170W        W55841  17.806  14.137   0.444
84171W        W55842  35.113  26.034  14.770
84172W        W55843  33.815   4.687   3.265
84173W        W55844  19.424   2.916   2.735
84174W        W55845  27.908  36.431  11.576
84175W        W55846  29.386  36.014   2.701
84176W        W55847   6.698  31.427  13.398
84177W        W55848  16.733  28.125  13.307
84178W        W55849  38.303   1.239   4.062
84179W        W55850  44.466  35.060   0.930
84180W        W55851  37.807  25.038  13.285
84181W        W55852  26.051  27.497   1.314
84182W        W55853  21.055  39.625  11.829
84183W        W55854  39.289   7.134  14.812
84184W        W55855  24.003   2.898   4.432
84185W        W55856   3.186  29.995   1.657
84186W        W55857   2.420  31.096  11.161
84187W        W55858   3.463  19.103  11.086
84188W        W55859  16.726  20.085  13.141
84189W        W55860   7.240  43.267  13.473
84190W        W55861  24.497  18.017  13.483
84191W        W55862  21.302  22.409   9.973
84192W        W55863  41.544  33.924  12.087
84193W        W55864  31.427  24.227  12.152
84194W        W55865   5.823  32.514  14.449
84195W        W55866   4.756   8.246  14.782
84196W        W55867  17.043  31.815   5.039
84197W        W55868  41.815  11.718  13.396
84198W        W55869  19.499  36.042   3.370
84199W        W55870  13.258  31.619   0.374
84200W        W55871  38.023  40.371   4.096
84201W        W55872  39.366  31.518  13.266
84202W        W55873   2.838  30.364   1.843
84203W        W55874  43.918  23.541   2.260
84204W        W55875  11.812  35.969  12.190
84205W        W55876  44.764  35.152  14.983
84206W        W55877  31.341   5.248  14.507
84207W        W55878  10.737  14.828   1.504
84208W        W55879   7.839  32.392   1.770
84209W        W55880  44.223  17.232   0.902
84210W        W55881   2.217  19.224  11.883
84211W        W55882  40.472  35.812  11.638
84212W        W55883   8.937  15.263  11.995
84213W        W55884  24.203  24.681   3.646
84214W        W55885  44.346  24.795   4.675
84215W        W55886  11.002  11.246   1.316
84216W        W55887  29.635  33.047  14.293
84217W        W55888  34.963  15.596  10.358
84218W        W55889   4.813  20.275   2.396
84219W        W55890  29.539  37.585  13.916
84220W        W55891  18.027  34.992   0.775
84221W        W55892  22.279  37.638  11.552
84222W        W55893  26.007  44.631   4.468
84223W        W55894  28.970   6.207   4.765
84224W        W55895  10.844   0.905   4.407
84225W        W55896  43.210  15.573   4.592
84226W        W55897  19.729  40.554  11.655
84227W        W55898  21.689  15.827  13.663
84228W        W55899  33.482   0.475  10.717
84229W        W55900  20.704   0.759   4.175
84230W        W55901  18.071  23.158   0.066
84231W        W55902  37.434  35.576  11.991
84232W        W55903  21.038  27.102   9.614
84233W        W55904  36.218   2.719   1.576
84234W        W55905  34.468  21.332   1.231
84235W        W55906  14.602  36.942   1.095
84236W        W55907  39.734  14.273   0.836
84237W        W55908  41.806   5.436   1.532
84238W        W55909  14.125  40.570   2.683
84239W        W55910  36.088   9.546   2.722
84240W        W55911   0.343  34.311   3.603
84241W        W55912  30.418  35.508   4.956
84242W        W55913  23.664  17.739  12.449
84243W        W55914  38.935  33.566   4.084
84244W        W55915   1.181  18.793   4.192
84245W        W55916  30.703  34.948   1.117
84246W        W55917  20.992  37.089   3.207
84247W        W55918  44.818  28.894   3.734
84248W        W55919  32.031  41.466   3.361
84249W        W55920  26.824  44.910  12.501
84250W        W55921  35.414  32.023   2.768
84251W        W55922   5.782  19.429   1.714
84252W        W55923  38.859  37.783   2.668
84253W        W55924  38.361  43.322  13.872
84254W        W55925   5.295  20.524  14.114
84255W        W55926   1.859   1.525   0.941
84256W        W55927  38.927  29.001   3.450
84257W        W55928   4.623   5.686   4.304
84258W        W55929  19.576  19.297  13.438
84259W        W55930  25.627  37.482  14.333
84260W        W55931  28.539  29.608   4.206
84261W        W55932   9.709  22.769  14.856
84262W        W55933  41.323  16.780  14.821
84263W        W55934   1.249  12.203  12.466
84264W        W55935  13.224  24.173   2.575
84265W        W55936  35.046  17.526  13.788
84266W        W55937  37.115  26.972   3.688
84267W        W55938  25.185  22.696  12.566
84268W        W55939  14.629  40.754   3.225
84269W        W55940   1.889  35.026   4.718
84270W        W55941  18.805   4.720   2.849
84271W        W55942   8.779  32.034   0.851
84272W        W55943  27.538  42.748   2.766
84273W        W55944  27.058  44.979  14.793
84274W        W55945  32.734  19.233  13.061
84275W        W55946  26.816  37.468  11.952
84276W        W55947  10.549  26.093  12.098
84277W        W55948  43.890  38.816  14.752
84278W        W55949  42.915  42.573   4.878
84279W        W55950  10.221   8.143  13.409
84280W        W55951   7.455  33.621   0.446
84281W        W55952   1.831  33.328   1.804
84282W        W55953  41.857  22.705   2.742
84283W        W55954  39.013  44.828   3.584
84284W        W55955  16.113   9.425   4.509
84285W        W55956  13.419  26.065  13.489
84286W        W55957   7.136   5.989   0.962
84287W        W55958   6.209  19.506   3.068
84288W        W55959   4.493  43.850   0.054
84289W        W55960  40.482  12.041  13.821
84290W        W55961   0.196  37.411   0.108
84291W        W55962   2.498  27.585   0.686
84292W        W55963  41.188   0.043   3.738
84293W        W55964  37.943  24.037   2.699
84294W        W55965  23.243   2.214   1.413
84295W        W55966  13.215  25.552   2.529
84296W        W55967   3.897  30.838   1.217
84297W        W55968  37.973  44.017  12.596
84298W        W55969  23.023  41.452   4.838
84299W        W55970  13.417  33.182   2.406
84300W        W55971  11.034  18.747   4.571
84301W        W55972   6.380  23.207  10.562
84302W        W55973  36.496  41.299  10.869
84303W        W55974  34.020  11.430  12.116
84304W        W55975  27.689  34.660  14.875
84305W        W55976  42.995   0.685  12.167
84306W        W55977   9.880  42.059   3.376
84307W        W55978  30.106  42.818   0.276
84308W        W55979   3.953   6.335  12.306
84309W        W55980  41.481   0.704   1.313
84310W        W55981   7.867  29.398  13.038
84311W        W55982  32.318   3.755  14.724
84312W        W55983  31.242  28.395  10.995
84313W        W55984  13.128   1.298   0.943
84314W        W55985  19.339   6.281  14.973
84315W        W55986  31.458  14.783  13.148
84316W        W55987  38.904  31.128   4.075
84317W        W55988  30.194  18.151  14.385
84318W        W55989   1.370  40.135   0.961
84319W        W55990   0.390  22.543  11.946
84320W        W55991  43.252  25.329   0.277
84321W        W55992  43.465  28.047  11.932
84322W        W55993  24.656   1.350   1.826
84323W        W55994  24.461  14.051   0.402
84324W        W55995  19.443  43.161   3.674
84325W        W55996   3.926  23.107   2.732
84326W        W55997  35.440   1.852   1.210
84327W        W55998  44.733   9.766   3.379
84328W        W55999  12.886   6.415   1.040
84329W        W56000  23.930   4.050   1.479
84330W        W56001   2.064  29.401   1.411
84331W        W56002  37.919  25.788  13.113
84332W        W56003  17.158   1.649   4.349
84333W        W56004  10.789   1.935  12.554
84334W        W56005  40.870  43.817  14.834
84335W        W56006  19.580  21.914  11.672
84336W        W56007  17.799  13.612  13.662
84337W        W56008  31.607  29.139  12.023
84338W        W56009  39.803  32.620   2.400
84339W        W56010   3.662  12.146   2.395
84340W        W56011  44.236  30.008  10.558
84341W        W56012  25.975  34.896  10.696
84342W        W56013  31.112   5.434  14.050
84343W        W56014  15.621  25.661  11.832
84344W        W56015  17.639  18.803   1.052
84345W        W56016  24.206   9.907  10.820
84346W        W56017  10.404   0.343   3.287
84347W        W56018   4.829  11.316  14.811
84348W        W56019  43.419  32.710   2.290
84349W        W56020  32.171  18.183   3.793
84350W        W56021   6.198   5.125  11.141
84351W        W56022  15.583  27.731   4.258
84352W        W56023  25.664  19.790  11.693
84353W        W56024  24.205  19.472  12.066
84354W        W56025  43.426  40.217  13.851
84355W        W56026   9.759  23.605  10.591
84356W        W56027  41.870  10.877   0.743
84357W        W56028  39.451   7.264  13.933
84358W        W56029  21.461  38.511   5.354
84359W        W56030  20.642  14.718   5.447
84360W        W56031  23.084  20.751   4.068
84361W        W56032  30.004  31.102   2.495
84362W        W56033  40.808  28.657   3.340
84363W        W56034   0.829  39.284   2.697
84364W        W56035  29.592   6.487   3.657
84365W        W56036   4.746  37.157   0.775
84366W        W56037  27.475  27.302   2.390
84367W        W56038  29.544  42.746   2.197
84368W        W56039  17.638   9.718   2.348
84369W        W56040  25.683  11.979   2.391
84370W        W56041  24.543  38.058  14.838
84371W        W56042  12.385  15.725  13.767
84372W        W56043  10.394  31.526  14.405
84373W        W56044  21.814  24.819  10.140
84374W        W56045   2.358  29.913  13.945
84375W        W56046  12.386  26.825  11.907
84376W        W56047  36.124  40.989   4.119
84377W        W56048  18.250  24.472   0.765
84378W        W56049  41.164   6.740   0.860
84379W        W56050  39.175   7.945   4.557
84380W        W56051  24.748  12.489   0.859
84381W        W56052  22.116   3.320   2.760
84382W        W56053  30.128  14.196  13.446
84383W        W56054  34.958  30.989   3.629
84384W        W56055  44.386   8.282  10.029
84385W        W56056   2.237  29.663   1.829
84386W        W56057  20.719  34.582  14.544
84387W        W56058   0.733  14.569  11.445
84388W        W56059  16.297  14.126  12.114
84389W        W56060   7.760   1.051  14.239
84390W        W56061  19.451  27.598   2.159
84391W        W56062  10.435  29.680   2.324
84392W        W56063   1.828  33.559   3.740
84393W        W56064  23.004  39.387  12.905
84394W        W56065  20.811  13.914  12.124
84395W        W56066   1.420  44.248  14.393
84396W        W56067  25.743  12.618  10.975
84397W        W56068  35.873  29.364  13.534
84398W        W56069   4.411  27.641  10.530
84399W        W56070   9.872  21.736  10.807
84400W        W56071  20.735  37.104  13.393
84401W        W56072  13.585   6.024  11.119
84402W        W56073   3.480   9.042   1.707
84403W        W56074  32.221  29.181  12.572
84404W        W56075  23.651  35.952   3.647
84405W        W56076  42.424  13.272   4.326
84406W        W56077  25.165   4.688  14.468
84407W        W56078  32.686   4.238   1.722
84408W        W56079   4.130  33.935  14.255
84409W        W56080   1.285  37.946  13.000
84410W        W56081  18.174  22.547  14.264
84411W        W56082  18.206  15.933  11.647
84412W        W56083  32.184   8.209   3.249
84413W        W56084  27.093   2.359  13.438
84414W        W56085  21.499  20.998  11.901
84415W        W56086  28.599   1.267  13.791
84416W        W56087  14.354  43.213   3.221
84417W        W56088  18.138  12.258  13.479
84418W        W56089  36.830   6.162  11.790
84419W        W56090  20.481  34.573   4.860
84420W        W56091  11.330  27.164   4.666
84421W        W56092  26.904  31.527  13.594
84422W        W56093  23.295  11.417   1.356
84423W        W56094   8.250  15.041  13.161
84424W        W56095   9.398   0.420  10.728
84425W        W56096  42.313  26.435  13.861
84426W        W56097  26.442  40.314  10.410
84427W        W56098   6.740   7.458   3.521
84428W        W56099  44.924  22.481  14.413
84429W        W56100   0.591  34.093   0.750
84430W        W56101  39.900  19.068  12.395
84431W        W56102  21.492  40.487  14.699
84432W        W56103  36.473  37.843  10.674
84433W        W56104  19.243  29.638  11.621
84434W        W56105  12.295  22.134  14.925
84435W        W56106  21.734  21.732   4.566
84436W        W56107  32.580  15.212  13.453
84437W        W56108  39.170  34.493   2.805
84438W        W56109  29.884  44.966   1.768
84439W        W56110  10.629  19.314  12.940
84440W        W56111   0.769   9.465   2.167
84441W        W56112  32.315  18.307  14.322
84442W        W56113  21.714  10.800   3.840
84443W        W56114   6.378  17.742  10.788
84444W        W56115   7.847  12.229  11.552
84445W        W56116  28.743  43.325   3.972
84446W        W56117  32.280   1.498   0.911
84447W        W56118  44.428  14.934   4.631
84448W        W56119  19.184  32.916  10.615
84449W        W56120  17.088  44.879   1.880
84450W        W56121  36.406  38.791  11.680
84451W        W56122  38.317  18.463   4.975
84452W        W56123  10.218   7.975  14.282
84453W        W56124  13.138  33.253  12.724
84454W        W56125  20.726  44.423   4.523
84455W        W56126   1.586   4.041  14.368
84456W        W56127   1.675  30.472  14.873
84457W        W56128  16.156  38.940  13.749
84458W        W56129  31.072  10.290  14.235
84459W        W56130  18.767  21.752   3.227
84460W        W56131  11.293  26.135   4.922
84461W        W56132  22.687  43.571   2.301
84462W        W56133  24.496  31.417  12.005
84463W        W56134  40.616   5.680  12.392
84464W        W56135  29.093  38.245   0.955
84465W        W56136   6.295  28.895   1.833
84466W        W56137  29.471  34.463   0.397
84467W        W56138   6.312  10.395   1.347
84468W        W56139   1.552  12.656  11.581
84469W        W56140  30.105  17.767  14.012
84470W        W56141  42.524   1.702  10.910
84471W        W56142  14.728  16.275  11.181
84472W        W56143  34.025   9.979   3.232
84473W        W56144   3.191  10.866   0.030
84474W        W56145  33.450  17.404   1.717
84475W        W56146  17.960  12.636  11.007
84476W        W56147  21.341  10.207   2.821
84477W        W56148  14.483  37.636   4.568
84478W        W56149  24.822  31.633   2.570
84479W        W56150  15.261   7.862  10.133
84480W        W56151  27.457  34.871  12.500
84481W        W56152  22.686   0.889   1.364
84482W        W56153  36.661  26.490  11.217
84483W        W56154  38.883  23.655   0.308
84484W        W56155  28.504  32.411   4.344
84485W        W56156  38.961  40.930   3.684
84486W        W56157  30.352   8.312  13.074
84487W        W56158  25.146  36.565   0.745
84488W        W56159   0.304  15.297  11.938
84489W        W56160   9.846  41.275  14.439
84490W        W56161   3.726  32.591  14.881
84491W        W56162  36.890  42.907   3.686
84492W        W56163  21.204   8.281  14.961
84493W        W56164   2.944  39.867  12.950
84494W        W56165  14.145  23.948  14.820
84495W        W56166  43.568   1.229  11.668
84496W        W56167  41.249  31.042   1.637
84497W        W56168  19.550  36.445  11.021
84498W        W56169  11.098  36.561   2.978
84499W        W56170  36.338  27.139  12.531
84500W        W56171  23.259  40.297  12.986
84501W        W56172  39.629  10.580  14.831
84502W        W56173  34.847  16.524  10.324
84503W        W56174  12.164  43.933   2.179
84504W        W56175  21.289  13.792   0.047
84505W        W56176  19.043  30.424  11.114
84506W        W56177  26.119  38.914   4.273
84507W        W56178  40.075  32.914  12.489
84508W        W56179  10.614  31.459  11.137
84509W        W56180   4.688  20.761   2.459
84510W        W56181  18.309  23.280  11.151
84511W        W56182  24.774  36.777   1.068
84512W        W56183   2.865  23.962   1.321
84513W        W56184  10.901   5.207  11.658
84514W        W56185  38.357  31.278  13.321
84515W        W56186  15.546  22.695  10.904
84516W        W56187  29.537  24.008   4.969
84517W        W56188   1.714   3.525  14.473
84518W        W56189  20.049  20.643   2.607
84519W        W56190  42.058   9.820   4.621
84520W        W56191  16.142  26.205   2.688
84521W        W56192  21.091  25.192  10.743
84522W        W56193  27.577  32.472   2.370
84523W        W56194  17.567  31.356  10.590
84524W        W56195  43.012  41.013  10.383
84525W        W56196  25.338  38.810  10.891
84526W        W56197  25.076  27.391  13.934
84527W        W56198  32.314  40.945  10.730
84528W        W56199  39.849  37.876  10.719
84529W        W56200  29.078  29.415   2.363
84530W        W56201  19.673  18.431   4.627
84531W        W56202  25.300  23.773  11.656
84532W        W56203  16.653  24.635   4.964
84533W        W56204  18.182  14.552   0.406
84534W        W56205   3.730   5.334   0.764
84535W        W56206   4.624  13.203   0.214
84536W        W56207  35.882   5.393   2.870
84537W        W56208  20.925  25.978  11.849
84538W        W56209   5.758   8.185  10.717
84539W        W56210   5.579  23.957   0.817
84540W        W56211   7.399   7.829  12.524
84541W        W56212  10.800  36.387  14.740
84542W        W56213  13.848  30.878  12.088
84543W        W56214  38.781  16.973  13.505
84544W        W56215  18.781   8.777   5.035
84545W        W56216   9.909  35.380   1.812
84546W        W56217  41.503   5.761   0.345
84547W        W56218   9.928  40.344  11.016
84548W        W56219   4.707  22.286  12.438
84549W        W56220  28.464   4.838  13.813
84550W        W56221   8.438  27.563   1.445
84551W        W56222  28.984   7.314  11.592
84552W        W56223  35.442  44.229  13.387
84553W        W56224  18.788  10.156  10.598
84554W        W56225   3.991  11.461   1.614
84555W        W56226  40.988   1.794  10.846
84556W        W56227   3.835  30.043   4.186
84557W        W56228  36.935  40.939  14.915
84558W        W56229  31.040  18.596  13.425
84559W        W56230  32.061  24.533   1.349
84560W        W56231  13.821  28.120  14.822
84561W        W56232  19.884   6.854   1.940
84562W        W56233  44.424  23.499   5.503
84563W        W56234  33.132  26.774  10.618
84564W        W56235  29.261  17.810   1.299
84565W        W56236  24.915  15.040  12.025
84566W        W56237  21.147  24.060  14.294
84567W        W56238  34.888  34.966   1.743
84568W        W56239  23.157  44.765   3.300
84569W        W56240  15.191  10.392   3.570
84570W        W56241  40.532  15.799   0.919
84571W        W56242   1.295  29.549  14.472
84572W        W56243  37.920   0.025  12.083
84573W        W56244  32.521  12.304  11.691
84574W        W56245  28.013   7.032   5.040
84575W        W56246   0.086  17.501  14.848
84576W        W56247  20.336  25.663   2.727
84577W        W56248  34.296   2.391   0.798
84578W        W56249  38.701  44.307  10.254
84579W        W56250   0.288  23.008   0.037
84580W        W56251  36.876  31.683   2.618
84581W        W56252  12.245   6.826   3.029
84582W        W56253  44.579  26.464  14.344
84583W        W56254  28.971  16.266   1.136
84584W        W56255  33.420   5.393   1.845
84585W        W56256  18.506   5.356  12.082
84586W        W56257  16.516  28.152  10.689
84587W        W56258  41.432  23.529  14.455
84588W        W56259  23.646  18.293  14.382
84589W        W56260   0.411  18.226  12.953
84590W        W56261   2.670  38.314  12.100
84591W        W56262  30.942   0.217  10.640
84592W        W56263  40.581  37.662  12.374
84593W        W56264   0.795   4.722   3.598
84594W        W56265  14.927   4.302  13.231
84595W        W56266  21.669  44.343  10.597
84596W        W56267  18.874  18.658  13.730
84597W        W56268  15.196  11.730   2.254
84598W        W56269   1.555   2.407   3.241
84599W        W56270   9.376   8.340   0.723
84600W        W56271  25.095  27.429   4.082
84601W        W56272  34.915  44.688   0.463
84602W        W56273   9.552  33.233  11.506
84603W        W56274  17.985  22.171   3.521
84604W        W56275  14.311  31.687  13.224
84605W        W56276  22.644  16.741  11.526
84606W        W56277   0.733  10.140   4.992
84607W        W56278   4.912  44.498  10.113
84608W        W56279  41.879  27.227   3.700
84609W        W56280   9.811  13.670   2.134
84610W        W56281   8.668  26.158   3.115
84611W        W56282  21.699  16.685  13.133
84612W        W56283   0.518  20.832   3.701
84613W        W56284  10.041  11.748  11.445
84614W        W56285  32.661  12.098   2.372
84615W        W56286   4.277  37.244  12.272
84616W        W56287  41.022  30.236  10.494
84617W        W56288  16.061  44.264   1.852
84618W        W56289  37.647  18.598   2.638
84619W        W56290  14.835  28.151   4.569
84620W        W56291  18.324  18.136   4.053
84621W        W56292   1.279  20.981   4.065
84622W        W56293  26.892  38.309  14.107
84623W        W56294  22.263  35.133  12.888
84624W        W56295   1.049  12.651   1.665
84625W        W56296  12.811  42.512  10.515
84626W        W56297  13.426   1.846  14.824
84627W        W56298  42.030  25.076   0.823
84628W        W56299  24.046  28.886   4.175
84629W        W56300  14.084  42.688  10.785
84630W        W56301  26.107  14.312   4.127
84631W        W56302  23.286   8.949   2.932
84632W        W56303   8.636  44.395   0.722
84633W        W56304  37.127  35.862  14.507
84634W        W56305  15.170  43.071   3.849
84635W        W56306  23.973  40.920   0.020
84636W        W56307  29.604  19.237  11.515
84637W        W56308  10.700  13.318   3.596
84638W        W56309  19.227  21.515  14.564
84639W        W56310  35.817   6.644  11.241
84640W        W56311  27.696   5.203   2.216
84641W        W56312  22.942  27.279  11.619
84642W        W56313  32.098  33.086  14.837
84643W        W56314  38.586  34.935   3.829
84644W        W56315  10.204  43.023   3.674
84645W        W56316  25.221  34.052  11.376
84646W        W56317  41.547  15.504  11.552
84647W        W56318  38.992  15.847   2.601
84648W        W56319  13.942  35.828  14.463
84649W        W56320  21.557  30.954   3.647
84650W        W56321  24.950  12.358  11.614
84651W        W56322  20.521  42.468   2.664
84652W        W56323   3.588  36.615  13.775
84653W        W56324   0.406  27.441  13.455
84654W        W56325  22.014  12.520   3.884
84655W        W56326  28.898  11.826   3.144
84656W        W56327   3.395   1.454   4.597
84657W        W56328  42.602   1.734   3.710
84658W        W56329  21.155   5.990  13.660
84659W        W56330  32.973   4.845   3.871
84660W        W56331  35.900  36.730   2.805
84661W        W56332  27.631  18.775   2.408
84662W        W56333  25.194  13.284  11.869
84663W        W56334  21.569  22.696  13.740
84664W        W56335  14.293   0.811   2.895
84665W        W56336   3.248   8.920  10.715
84666W        W56337  13.299  12.378  14.953
84667W        W56338  33.180  33.788   1.658
84668W        W56339  40.254  30.645  10.988
84669W        W56340  13.369   5.472   4.797
84670W        W56341  36.015  24.737   4.570
84671W        W56342  43.972  43.290  11.122
84672W        W56343  18.307  23.628   3.090
84673W        W56344  16.883  44.833  10.686
84674W        W56345  26.027  37.076   1.686
84675W        W56346   9.499  41.503  14.735
84676W        W56347   5.180  23.709   4.444
84677W        W56348  23.065  12.534  13.988
84678W        W56349  43.911  15.052  13.355
84679W        W56350  30.623   3.962  12.474
84680W        W56351  12.777  11.115  11.530
84681W        W56352  21.159  43.124   4.660
84682W        W56353  24.462  22.313  12.374
84683W        W56354  37.517  38.877  10.538
84684W        W56355  30.525  39.525   1.315
84685W        W56356  22.805  22.650   0.238
84686W        W56357  15.656  40.807  14.249
84687W        W56358  22.282  30.704  11.399
84688W        W56359   3.834  26.221   1.631
84689W        W56360  43.300  10.353   0.461
84690W        W56361  20.491  16.614  13.745
84691W        W56362   1.762  25.497   3.208
84692W        W56363  20.697  23.031   4.480
84693W        W56364  20.789  37.776  14.763
84694W        W56365   0.887  27.926   1.068
84695W        W56366  43.001  16.129   2.554
84696W        W56367  18.074   5.878   1.790
84697W        W56368   1.352  18.947   9.717
84698W        W56369  42.777   8.130  14.902
84699W        W56370  26.549   9.232   0.005
84700W        W56371   0.767   4.235  12.535
84701W        W56372   0.861  37.404   1.709
84702W        W56373  30.516  41.512   2.801
84703W        W56374  39.803  40.775  14.899
84704W        W56375  32.603  33.486  13.463
84705W        W56376  23.049  28.453   4.606
84706W        W56377  15.841  39.201   2.719
84707W        W56378  12.007  20.444   1.939
84708W        W56379  38.176  44.781  13.073
84709W        W56380  21.621  25.977   3.836
84710W        W56381  25.429  21.121  11.446
84711W        W56382  29.517  36.708  11.138
84712W        W56383   8.673  24.626   4.087
84713W        W56384   5.200  14.782  11.295
84714W        W56385  25.971  34.900   4.550
84715W        W56386   3.211  38.069  11.064
84716W        W56387   7.325   2.742  10.758
84717W        W56388  44.984   4.755  14.873
84718W        W56389   0.810  26.241   3.298
84719W        W56390  44.156  31.544  12.010
84720W        W56391  24.236  18.623  11.852
84721W        W56392  33.960  35.832   3.037
84722W        W56393  44.194  23.929  12.459
84723W        W56394  24.075  40.913  13.623
84724W        W56395  13.648  11.662  13.519
84725W        W56396  34.492  13.753   1.581
84726W        W56397  21.615  41.226   1.661
84727W        W56398   1.033  11.372   2.383
84728W        W56399  28.001  43.916   0.906
84729W        W56400  28.031  34.648  14.421
84730W        W56401   9.459  38.310  13.066
84731W        W56402  17.818  29.555  11.917
84732W        W56403  20.281  22.437   2.776
84733W        W56404  35.809  34.940   3.163
84734W        W56405   1.493   7.150  10.441
84735W        W56406  21.468  31.965   2.418
84736W        W56407  21.901   8.775   3.144
84737W        W56408  10.550  34.798  12.270
84738W        W56409  27.746  19.176   3.158
84739W        W56410   4.813  19.829   1.464
84740W        W56411  38.070  15.363   1.199
84741W        W56412  10.125  23.105   1.988
84742W        W56413  32.651  38.325   4.144
84743W        W56414  16.642  41.757   3.398
84744W        W56415  24.118  28.443   3.189
84745W        W56416  27.053  26.067   2.206
84746W        W56417  42.628  33.989   0.951
84747W        W56418  20.481  19.534  11.219
84748W        W56419  33.608  33.856  13.002
84749W        W56420  18.498  21.895  12.205
84750W        W56421  21.130  38.681   2.849
84751W        W56422  29.521   3.412   1.543
84752W        W56423  31.818   3.734  14.700
84753W        W56424  13.307  12.198   4.216
84754W        W56425  14.783  25.069   2.309
84755W        W56426  17.846  36.317  13.358
84756W        W56427  27.438  29.510   0.212
84757W        W56428  16.352   4.429   5.517
84758W        W56429  39.313   6.750  12.007
84759W        W56430  22.003   9.768  12.553
84760W        W56431  34.515  38.889   9.940
84761W        W56432   3.653  12.756   2.255
84762W        W56433  28.968  23.478   4.796
84763W        W56434  25.384  10.337  10.888
84764W        W56435  37.976   2.311   0.778
84765W        W56436   9.408  14.700   2.321
84766W        W56437  10.874  28.621  12.873
84767W        W56438   3.955  14.326   2.744
84768W        W56439  41.262   8.795  11.594
84769W        W56440  25.484  37.913   2.345
84770W        W56441  12.967  40.428   1.308
84771W        W56442  29.211  15.231   1.855
84772W        W56443   2.936  24.629  12.315
84773W        W56444  37.319  20.251   0.005
84774W        W56445  28.491  12.189   2.863
84775W        W56446  33.540  19.646   3.281
84776W        W56447  21.837  31.559   0.965
84777W        W56448  30.612  36.687   0.070
84778W        W56449  25.636  38.555  12.929
84779W        W56450  15.834  18.628  11.661
84780W        W56451   9.578   1.292   3.342
84781W        W56452   4.455  15.259  11.769
84782W        W56453   5.317   6.119  13.517
84783W        W56454  27.015  11.380   4.545
84784W        W56455   9.246  29.349   1.736
84785W        W56456  42.956  35.971   1.520
84786W        W56457  43.428  30.447   1.694
84787W        W56458  39.206  10.604   0.156
84788W        W56459  13.169  38.409  13.409
84789W        W56460  21.570   6.010   0.759
84790W        W56461  32.103  15.756   2.724
84791W        W56462  40.376  32.521   0.359
84792W        W56463  32.807  38.235   0.979
84793W        W56464  36.599  25.333  10.729
84794W        W56465  25.731  23.274   2.819
84795W        W56466  25.983  31.623  10.514
84796W        W56467  42.428  20.301  13.543
84797W        W56468   5.817   3.389   0.271
84798W        W56469  13.651  37.127  14.700
84799W        W56470  22.618  28.949   4.756
84800W        W56471  30.481  28.084   0.926
84801W        W56472  21.670  38.441   4.068
84802W        W56473   1.347   1.167  12.972
84803W        W56474  41.115  36.172   2.658
84804W        W56475  28.157   8.261   3.595
84805W        W56476  29.767   8.303   1.417
84806W        W56477  19.392  19.783   2.391
84807W        W56478  28.125  28.201  11.009
84808W        W56479  34.350  24.180  13.559
84809W        W56480   1.784  36.343  14.475
84810W        W56481   7.343   2.857   0.779
84811W        W56482  41.817   9.953  11.468
84812W        W56483  32.578   7.224  12.704
84813W        W56484  35.366  11.255   3.872
84814W        W56485  13.744  32.790   0.258
84815W        W56486   7.760   1.797  10.326
84816W        W56487   2.295  23.587   0.844
84817W        W56488   8.024  20.084  14.165
84818W        W56489  21.537  27.467   3.465
84819W        W56490  25.458  29.650  12.063
84820W        W56491  30.531   5.932   2.175
84821W        W56492  34.576  22.751  14.793
84822W        W56493  39.347  32.945  11.340
84823W        W56494  28.992  28.130   0.293
84824W        W56495  41.152  18.261   0.911
84825W        W56496  28.332  33.962   4.202
84826W        W56497  13.071  16.717  11.941
84827W        W56498   3.528  40.539  13.758
84828W        W56499  26.610  10.934   0.815
84829W        W56500   7.370  21.085  10.820
84830W        W56501  27.375   5.310  14.975
84831W        W56502   6.921  39.386   0.362
84832W        W56503   4.215  38.633   2.731
84833W        W56504   3.002  43.272   4.600
84834W        W56505   8.265  24.121   2.704
84835W        W56506  32.022  33.322  11.394
84836W        W56507   7.882  24.561   0.971
84837W        W56508  35.110  21.190   2.789
84838W        W56509  33.920  41.034   0.002
84839W        W56510   9.128  31.396  13.433
84840W        W56511   2.326   7.659   0.299
84841W        W56512  41.580  36.040   0.365
84842W        W56513   3.259   7.619  14.331
84843W        W56514   4.193  43.824   4.165
84844W        W56515  26.654  25.508   0.820
84845W        W56516  35.992   0.699  10.620
84846W        W56517   3.730   9.360  13.057
84847W        W56518  22.882   6.493   9.919
84848W        W56519   5.203   1.811   3.188
84849W        W56520  25.773  22.070   3.560
84850W        W56521  34.181  33.590  11.113
84851W        W56522   9.705  24.251   1.392
84852W        W56523  42.768  37.064  11.957
84853W        W56524  26.920  25.994   5.034
84854W        W56525  28.052  11.835   4.129
84855W        W56526  18.117  21.058  11.958
84856W        W56527  44.834  14.919   0.395
84857W        W56528  23.611  38.798   4.163
84858W        W56529  26.293  37.962  10.744
84859W        W56530   4.701  40.840   1.468
84860W        W56531  33.083  22.630  12.478
84861W        W56532  23.136  20.533   1.378
84862W        W56533   4.775  40.385  14.361
84863W        W56534  43.730  16.714   3.724
84864W        W56535  35.026  11.441  14.239
84865W        W56536  23.690  25.052  13.119
84866W        W56537  19.846   3.199  12.043
84867W        W56538   6.809   9.553  11.176
84868W        W56539   0.909   2.695  13.055
84869W        W56540  39.580   6.225   4.204
84870W        W56541  11.361  13.134  11.693
84871W        W56542  23.142  30.643  11.010
84872W        W56543  42.401  23.245   0.874
84873W        W56544  43.522  26.571   2.769
84874W        W56545  31.691  36.095  14.475
84875W        W56546   2.332  20.090  14.398
84876W        W56547  16.806  27.108   0.784
84877W        W56548  32.083  44.297  14.765
84878W        W56549  32.261  37.869  12.879
84879W        W56550   6.873   2.992   3.909
84880W        W56551  20.555  36.980  12.732
84881W        W56552  26.119  25.502   0.930
84882W        W56553  23.141   9.455   2.927
84883W        W56554  22.048  39.194  14.543
84884W        W56555  38.859  41.751   2.614
84885W        W56556  13.583  38.894   2.414
84886W        W56557  32.338  13.218   3.283
84887W        W56558   9.107   3.980  10.768
84888W        W56559   5.439  35.982   1.712
84889W        W56560  43.423  22.508   0.370
84890W        W56561  29.006  20.957   3.303
84891W        W56562  14.253  22.067  12.600
84892W        W56563  25.497  38.621   1.357
84893W        W56564   7.725   7.865   2.763
84894W        W56565   4.685  16.598  10.903
84895W        W56566  16.599  38.281  12.075
84896W        W56567  40.970  14.108   4.890
84897W        W56568  25.384  43.510  12.511
84898W        W56569   1.304  28.574   4.259
84899W        W56570  44.756   8.656   0.715
84900W        W56571  32.015   8.795   4.611
84901W        W56572  16.115   4.918   3.324
84902W        W56573   9.436  12.528   3.250
84903W        W56574   1.805   4.734   4.547
84904W        W56575  33.920  40.391   4.596
84905W        W56576  10.637  14.326  14.334
84906W        W56577  12.065  42.256   3.356
84907W        W56578  27.461   9.016  14.369
84908W        W56579  33.584  15.693  14.884
84909W        W56580  28.421   9.720  12.496
84910W        W56581  25.467  23.185   0.779
84911W        W56582  32.918  44.944  10.615
84912W        W56583  12.693  24.214   3.813
84913W        W56584   2.957   5.048   0.299
84914W        W56585  30.140  39.096   4.768
84915W        W56586  43.019  42.712   1.409
84916W        W56587   6.658  44.305   3.456
84917W        W56588  23.832  30.774  11.894
84918W        W56589   5.974  28.153  14.943
84919W        W56590  15.079  37.305  11.169
84920W        W56591  33.831  35.275  13.077
84921W        W56592   7.427  16.120  11.477
84922W        W56593  28.916  10.946   2.578
84923W        W56594  40.899  43.093   2.090
84924W        W56595  40.572  39.344   4.180
84925W        W56596  12.056  28.751  11.649
84926W        W56597  16.218  30.132  13.543
84927W        W56598  16.372   9.990   0.800
84928W        W56599  36.381  33.429   3.229
84929W        W56600  34.234  44.250  11.472
84930W        W56601  14.037  33.337  13.023
84931W        W56602   3.331  38.930  12.927
84932W        W56603   0.529  42.523   3.206
84933W        W56604   5.354  33.359   0.416
84934W        W56605  22.909  17.561  11.113
84935W        W56606   5.873  33.400  11.618
84936W        W56607  16.148  16.632  12.568
84937W        W56608   8.842  24.237  12.568
84938W        W56609  40.221  37.320  10.333
84939W        W56610  15.290  33.101  14.383
84940W        W56611  15.457  19.597  13.472
84941W        W56612  18.874  13.259  13.545
84942W        W56613  18.957  30.043  13.822
84943W        W56614  29.216   2.722   2.682
84944W        W56615  14.180  10.538   3.464
84945W        W56616  12.353   0.963  14.004
84946W        W56617  27.964   2.966   4.213
84947W        W56618  44.481  19.740   4.184
84948W        W56619   6.200   0.698  10.603
84949W        W56620  23.960  23.023   3.824
84950W        W56621  42.357  41.087   5.601
84951W        W56622  10.780  40.297   4.187
84952W        W56623  36.983  35.116   4.616
84953W        W56624  16.059  10.340  12.930
84954W        W56625  27.028  37.436  12.900
84955W        W56626  33.030  39.327  10.336
84956W        W56627  21.592  36.155   4.552
84957W        W56628  20.384   9.809   3.660
84958W        W56629  36.429   2.217   1.644
84959W        W56630  18.292   1.110   0.873
84960W        W56631  41.834  27.691  12.517
84961W        W56632  23.487  40.556   1.301
84962W        W56633  42.882  44.993  14.818
84963W        W56634  12.894  42.079  12.454
84964W        W56635  19.230  14.330   1.437
84965W        W56636  39.468  10.576  10.890
84966W        W56637   3.056   4.617   1.711
84967W        W56638  20.216   8.468  12.671
84968W        W56639   3.796   8.666   0.371
84969W        W56640   9.202  40.451  10.368
84970W        W56641   2.690  13.818   1.317
84971W        W56642  36.395  39.879  14.006
84972W        W56643  14.164   5.670   2.590
84973W        W56644  33.617  19.870  12.461
84974W        W56645  18.726  40.662   4.576
84975W        W56646  31.088  10.132  13.377
84976W        W56647  14.709  18.542   3.091
84977W        W56648  28.913  11.828  13.563
84978W        W56649   8.182  34.462   0.512
84979W        W56650  23.506  24.497  10.647
84980W        W56651   7.639  34.876   3.204
84981W        W56652  23.541  36.474   1.736
84982W        W56653   3.752  11.337  14.333
84983W        W56654   3.751  20.293  11.575
84984W        W56655  43.381  23.170  13.364
84985W        W56656   0.912  21.187   1.377
84986W        W56657  22.267  44.074   3.803
84987W        W56658   8.198  14.067   2.913
84988W        W56659   1.423  21.932   4.142
84989W        W56660  31.046  25.551  10.788
84990W        W56661  26.175  28.158   3.466
84991W        W56662  26.111   5.820   0.753
84992W        W56663  43.383   6.789  10.492
84993W        W56664  15.700  20.103  13.534
84994W        W56665   8.729   0.966  13.852
84995W        W56666   5.813   2.308   2.324
84996W        W56667  44.328   1.740  13.278
84997W        W56668  12.969   6.748  12.290
84998W        W56669  14.639  23.135   2.703
84999W        W56670  34.882  14.407   0.635
85000W        W56671  40.005   8.179  13.384
85001W        W56672  20.525   3.673   0.902
85002W        W56673  40.160  21.645  11.929
85003W        W56674  17.374  22.614  14.578
85004W        W56675  17.743  40.055   3.173
85005W        W56676  18.577   1.862   2.155
85006W        W56677  13.845  25.959  14.428
85007W        W56678  43.923   4.150   4.597
85008W        W56679  17.792  23.396   3.564
85009W        W56680  41.307  12.171  13.902
85010W        W56681   0.982  13.578  14.904
85011W        W56682  30.012  41.423   3.724
85012W        W56683   4.220  24.493   4.622
85013W        W56684  12.929  38.874  13.371
85014W        W56685  14.672  42.931   2.405
85015W        W56686  26.225  41.506   1.689
85016W        W56687  11.927   4.756   3.378
85017W        W56688   3.046  22.515   4.512
85018W        W56689  16.674  16.825   2.778
85019W        W56690  44.375  16.530   2.199
85020W        W56691  15.660  28.927   0.880
85021W        W56692   7.733  34.490  13.958
85022W        W56693   0.024   2.694   4.608
85023W        W56694   0.894  21.120  14.260
85024W        W56695  20.103  21.496   0.286
85025W        W56696  34.793  32.983  10.742
85026W        W56697   5.943  12.135  14.983
85027W        W56698  10.642  25.264  11.139
85028W        W56699  26.686  39.378   3.692
85029W        W56700  20.699  19.617  10.369
85030W        W56701   1.039  34.432  13.582
85031W        W56702  15.035  18.728  11.141
85032W        W56703  40.595  36.401  11.587
85033W        W56704   6.772  33.425   4.761
85034W        W56705  31.968   1.474  13.130
85035W        W56706  44.013   8.731   0.416
85036W        W56707  36.913  37.326  11.907
85037W        W56708   1.727  10.093  14.049
85038W        W56709  18.983  41.467  14.865
85039W        W56710  26.629  44.877   0.974
85040W        W56711   6.746  10.310   4.890
85041W        W56712  20.500  10.763   4.571
85042W        W56713  15.488  37.846   1.294
85043W        W56714  38.091  24.239  12.926
85044W        W56715   9.217  13.138   0.946
85045W        W56716  27.825  30.041  13.813
85046W        W56717   0.983  13.113   2.950
85047W        W56718  44.398   9.815   4.466
85048W        W56719  23.468  24.998   0.941
85049W        W56720   2.973  38.141  11.529
85050W        W56721  12.668  31.046   1.368
85051W        W56722  33.675   5.326  12.958
85052W        W56723  20.989   9.324   0.297
85053W        W56724  33.036   7.377  10.870
85054W        W56725  35.632   4.423   0.462
85055W        W56726  26.160  12.696   0.510
85056W        W56727   6.612   5.837   2.354
85057W        W56728  13.318   2.767   1.766
85058W        W56729  44.187  27.945  14.097
85059W        W56730   3.952  31.570  12.468
85060W        W56731  16.090  37.812   4.293
85061W        W56732   8.954  27.756  13.105
85062W        W56733  32.530  13.702   3.354
85063W        W56734  16.573   3.141   0.993
85064W        W56735  41.879   7.994   1.219
85065W        W56736  27.563  22.571   1.680
85066W        W56737  28.299  11.379  11.453
85067W        W56738  13.125  41.328   3.094
85068W        W56739  25.581  36.750  13.596
85069W        W56740  38.856   2.444   1.346
85070W        W56741   4.476  20.210  12.092
85071W        W56742  20.274   0.687  10.490
85072W        W56743  44.860  11.361   9.764
85073W        W56744  28.499  40.266  12.116
85074W        W56745   6.781  11.326  10.652
85075W        W56746  21.212  32.425  10.990
85076W        W56747  12.355  28.150  14.108
85077W        W56748  28.247  15.524   2.285
85078W        W56749  21.842  31.993   0.186
85079W        W56750   6.320  39.299  13.134
85080W        W56751   2.747  43.524  14.610
85081W        W56752  22.474   6.663   1.393
85082W        W56753  21.168   3.683   2.848
85083W        W56754  34.637  13.738  13.501
85084W        W56755  14.838  17.025   4.188
85085W        W56756  19.286  16.376  11.154
85086W        W56757  43.222  13.294   2.655
85087W        W56758  10.929  20.048  13.428
85088W        W56759  30.484  28.672  13.810
85089W        W56760  30.089  29.088   4.795
85090W        W56761   2.879  31.798  11.745
85091W        W56762  22.588  20.662   3.720
85092W        W56763  37.261  12.544   4.136
85093W        W56764  12.682  26.708  10.187
85094W        W56765   6.462  18.257   2.830
85095W        W56766   8.430  40.278  13.800
85096W        W56767  40.715  24.237  11.979
85097W        W56768  28.696  28.919  13.343
85098W        W56769   3.850  24.594   2.637
85099W        W56770   6.933  21.979   3.725
85100W        W56771  26.196  14.858   2.754
85101W        W56772   8.848  31.947  13.813
85102W        W56773   7.171  10.123  11.500
85103W        W56774  36.907   3.495  12.507
85104W        W56775  17.282  30.405   3.864
85105W        W56776  27.957  12.181   3.349
85106W        W56777  31.274  30.559   0.180
85107W        W56778  33.511  31.123   4.452
85108W        W56779  15.163   6.968  12.900
85109W        W56780  21.215  40.563   4.092
85110W        W56781  16.732  17.097   2.253
85111W        W56782   7.924   8.417   4.880
85112W        W56783  43.252  31.226   1.000
85113W        W56784  25.936  22.499  10.591
85114W        W56785   8.843  22.226  13.517
85115W        W56786  14.344   7.858   1.785
85116W        W56787   5.927   8.354   4.852
85117W        W56788  21.576  11.844   2.771
85118W        W56789   1.820  40.985   4.328
85119W        W56790  36.018  32.061  12.073
85120W        W56791  28.487  27.103   3.485
85121W        W56792  13.747  21.624  14.916
85122W        W56793   7.881  33.718  14.578
85123W        W56794  42.480  29.278   4.607
85124W        W56795  17.867  24.213  11.158
85125W        W56796  11.792  38.696   5.185
85126W        W56797  35.840  26.876  13.287
85127W        W56798  18.195  37.854  11.457
85128W        W56799   0.136  28.710  12.409
85129W        W56800   7.806  36.699   0.038
85130W        W56801  24.043  10.093   3.774
85131W        W56802   6.881  11.147   0.292
85132W        W56803  13.815  39.545   1.821
85133W        W56804  27.579  21.562   1.841
85134W        W56805  20.737  34.855   2.371
85135W        W56806   1.870  44.274   0.541
85136W        W56807  42.482  43.767  13.447
85137W        W56808  14.711  37.830  12.001
85138W        W56809  25.407  37.970  14.235
85139W        W56810  22.394  24.752  10.371
85140W        W56811  21.160   6.481   1.274
85141W        W56812   8.177  23.369   1.870
85142W        W56813  33.532  43.658   3.901
85143W        W56814  26.758   4.206   3.647
85144W        W56815  10.002  26.491  12.579
85145W        W56816  28.948   1.218   4.592
85146W        W56817  24.725   3.671   2.640
85147W        W56818  43.826  18.978   4.226
85148W        W56819   4.694  13.093   4.787
85149W        W56820   8.926  29.307   1.316
85150W        W56821  39.625   2.870   0.378
85151W        W56822  23.697   1.856  13.552
85152W        W56823  31.544   6.636  12.120
85153W        W56824  35.988  34.155   3.813
85154W        W56825  32.997  41.378   2.581
85155W        W56826  17.076  38.374   0.809
85156W        W56827  23.528  36.985   3.028
85157W        W56828  10.746  30.467   2.790
85158W        W56829   9.471  32.001  10.765
85159W        W56830  33.899   0.474   3.655
85160W        W56831  38.092   5.680   0.833
85161W        W56832  33.338  35.989   3.837
85162W        W56833  16.828   4.365   2.825
85163W        W56834   3.500  43.396   1.825
85164W        W56835   8.940  42.775  14.037
85165W        W56836  20.593  36.235  13.841
85166W        W56837  34.452  28.967  13.397
85167W        W56838   9.554   2.681   1.734
85168W        W56839   9.869  13.196   2.752
85169W        W56840  36.417  41.580   3.444
85170W        W56841  17.680   6.479   2.897
85171W        W56842  25.978  11.082  11.906
85172W        W56843  11.065  26.250  11.483
85173W        W56844  43.397  14.379  13.877
85174W        W56845  21.663   4.841   2.168
85175W        W56846  31.111  15.187  13.221
85176W        W56847  44.311  16.182   4.389
85177W        W56848  14.852  26.129  10.931
85178W        W56849  22.203   2.237  13.064
85179W        W56850  20.591  23.034  11.534
85180W        W56851  11.443   6.754  12.589
85181W        W56852  34.965   6.156  10.967
85182W        W56853   3.811  37.932  12.947
85183W        W56854  37.893   8.955   0.236
85184W        W56855   3.402  22.778   1.914
85185W        W56856  40.496  12.799  14.263
85186W        W56857  43.534  11.657   1.888
85187W        W56858  30.164   3.782   4.573
85188W        W56859  16.122  16.309  11.272
85189W        W56860  35.889  15.342   2.269
85190W        W56861  11.148  29.911   3.587
85191W        W56862  30.193  14.831   1.271
85192W        W56863  32.450  28.789   4.202
85193W        W56864   0.716  32.578   4.367
85194W        W56865  20.655   9.213  10.763
85195W        W56866  40.478  36.896  13.450
85196W        W56867  25.684  40.811  14.140
85197W        W56868  39.372   8.861   1.003
85198W        W56869  28.941  37.935   3.747
85199W        W56870  25.043  19.355  11.175
85200W        W56871  20.252   8.400  14.887
85201W        W56872   9.432  20.808   1.956
85202W        W56873  21.567  43.890   4.496
85203W        W56874  44.429   3.763  12.499
85204W        W56875   1.874  37.480  14.320
85205W        W56876  16.488  33.414   0.856
85206W        W56877  22.212  21.084   1.286
85207W        W56878  26.072  21.600   0.328
85208W        W56879   3.762  40.856  13.436
85209W        W56880  39.250  18.789  10.277
85210W        W56881  40.885  32.821  10.529
85211W        W56882  21.170   7.280  10.354
85212W        W56883  24.509  39.885  13.347
85213W        W56884  42.288  27.540  12.984
85214W        W56885  14.273   4.704  12.058
85215W        W56886  10.170  35.851   0.891
85216W        W56887  37.044  42.886  10.724
85217W        W56888  20.485  32.663  14.064
85218W        W56889  27.547  32.395   4.787
85219W        W56890  33.525  25.980  10.590
85220W        W56891  22.191  33.343   2.507
85221W        W56892  31.484  38.072  14.970
85222W        W56893  11.901   7.870   0.917
85223W        W56894   5.728  44.725  12.043
85224W        W56895  26.758   4.822   4.205
85225W        W56896  31.177  17.326  12.527
85226W        W56897  13.501  19.270  13.501
85227W        W56898  32.942  34.152  12.070
85228W        W56899  37.498  13.128  13.902
85229W        W56900   9.723  30.169   2.816
85230W        W56901  29.111   8.204  10.147
85231W        W56902  25.451   5.771  11.322
85232W        W56903  24.619  37.432  11.236
85233W        W56904  43.734  38.302   0.484
85234W        W56905   8.965  37.195   4.547
85235W        W56906  20.712   8.076  13.016
85236W        W56907  11.064  30.259   1.879
85237W        W56908  39.324  29.976   2.339
85238W        W56909  20.282  19.748   0.918
85239W        W56910  42.275  42.395  14.372
85240W        W56911  21.735  20.967  14.469
85241W        W56912   4.874  17.613   4.554
85242W        W56913  10.423  15.845   0.301
85243W        W56914   5.382  26.050   2.360
85244W        W56915  33.909   2.951   3.754
85245W        W56916  16.400  21.054  12.875
85246W        W56917  37.615  18.036   0.791
85247W        W56918  20.686  15.555   5.047
85248W        W56919  31.706  43.228  14.773
85249W        W56920  24.803  14.591   1.426
85250W        W56921  10.810  40.255  12.632
85251W        W56922  28.802  11.220   4.296
85252W        W56923  14.580   8.229   0.410
85253W        W56924  37.067  34.019   3.462
85254W        W56925  31.431  18.528   0.830
85255W        W56926  43.293  10.764  13.204
85256W        W56927  42.012  24.529  12.298
85257W        W56928   6.256  32.761  12.429
85258W        W56929  11.011  38.837  11.459
85259W        W56930  38.509  38.635   0.331
85260W        W56931  24.196  31.580   4.111
85261W        W56932  18.787  29.931   3.162
85262W        W56933  18.765  40.882   1.366
85263W        W56934  36.096  33.168  14.365
85264W        W56935   9.173  41.498  12.489
85265W        W56936  27.076   2.395  12.474
85266W        W56937  34.067  38.792  13.774
85267W        W56938  26.293  29.204   2.712
85268W        W56939  22.595  17.466   3.617
85269W        W56940  18.059  17.139   4.084
85270W        W56941  10.438  28.517   1.789
85271W        W56942  19.074  40.331  12.399
85272W        W56943  16.946  26.404  10.826
85273W        W56944   0.159  42.389  11.348
85274W        W56945  24.802  40.422   3.111
85275W        W56946  28.976  44.118  14.736
85276W        W56947  18.721   8.398  11.436
85277W        W56948  31.994  25.561   2.110
85278W        W56949  37.505  26.194   4.630
85279W        W56950   9.650  29.950  13.872
85280W        W56951  21.946  39.437   4.087
85281W        W56952  29.535  34.858  12.245
85282W        W56953  27.704   6.976  10.265
85283W        W56954  39.806   9.643   2.053
85284W        W56955  11.205  30.655  11.123
85285W        W56956  14.884   1.184  14.425
85286W        W56957   5.149   7.115   3.045
85287W        W56958  43.828  11.353  14.299
85288W        W56959  22.453  40.841   4.252
85289W        W56960  13.841   6.537  12.799
85290W        W56961  33.532  41.753   2.217
85291W        W56962   7.806   6.823  11.183
85292W        W56963  13.825   3.356   4.133
85293W        W56964  42.357   3.413  13.131
85294W        W56965  18.152  12.359  14.591
85295W        W56966  21.476  21.314  12.546
85296W        W56967  37.300  35.009   4.215
85297W        W56968   7.477   7.162   3.170
85298W        W56969  24.733  15.068   3.887
85299W        W56970   7.447  14.886   2.615
85300W        W56971  43.534  34.392   1.768
85301W        W56972   5.179  17.991  11.191
85302W        W56973   2.492  27.133   0.425
85303W        W56974  19.243  29.211   0.755
85304W        W56975  24.700  27.033  13.553
85305W        W56976  30.884   8.540  13.749
85306W        W56977  17.291  39.590   1.213
85307W        W56978  33.614  34.953   1.365
85308W        W56979  38.966  10.448  11.057
85309W        W56980  39.243   8.634  12.475
85310W        W56981  29.200   7.835  11.321
85311W        W56982  14.403  29.153  11.446
85312W        W56983   4.800  27.483  12.259
85313W        W56984  42.394  15.356   0.843
85314W        W56985  14.544   0.808  14.547
85315W        W56986  16.463   7.109   0.850
85316W        W56987  42.932  43.895  10.760
85317W        W56988  25.388  43.236   3.143
85318W        W56989  37.037  42.215   3.127
85319W        W56990  16.089  10.398   1.010
85320W        W56991  42.832   5.481  11.136
85321W        W56992  23.332   0.664  11.143
85322W        W56993  39.547  44.248  12.998
85323W        W56994  32.530  28.702  14.320
85324W        W56995   2.336   6.195   1.386
85325W        W56996  26.249   2.332   0.279
85326W        W56997  10.557   2.615  11.256
85327W        W56998  43.032  26.251  10.695
85328W        W56999  25.797  38.419  14.753
85329W        W57000   0.371  11.882  10.964
85330W        W57001  21.510  26.747   0.307
85331W        W57002  31.929  43.810  14.823
85332W        W57003  43.723  43.522  10.703
85333W        W57004  33.549  27.032  11.895
85334W        W57005  23.667  24.562  12.903
85335W        W57006  37.806  44.495  12.405
85336W        W57007  11.348  36.150  11.416
85337W        W57008  17.680  19.253  13.828
85338W        W57009  38.321  34.582  13.976
85339W        W57010   1.278  14.608  14.466
85340W        W57011  39.197  42.143   4.362
85341W        W57012  38.085  44.906  14.287
85342W        W57013   2.322  14.217  12.626
85343W        W57014  39.336  35.919  12.082
85344W        W57015  28.438  30.636   1.303
85345W        W57016  44.272  40.977   5.715
85346W        W57017   6.462  25.563  14.386
85347W        W57018  44.729  21.225   5.420
85348W        W57019  29.632   0.546  10.804
85349W        W57020  35.998  21.348  12.008
85350W        W57021  39.465  21.985   4.332
85351W        W57022  21.229  25.734  10.996
85352W        W57023   0.354  23.198  14.046
85353W        W57024  39.388   2.353   1.955
85354W        W57025  16.744  11.824  12.572
85355W        W57026  10.515   5.974  12.124
85356W        W57027  11.429  33.918   5.048
85357W        W57028   9.744   9.164  13.105
85358W        W57029  11.287  37.423  11.876
85359W        W57030   4.026  29.541  11.066
85360W        W57031  35.137  39.507  10.318
85361W        W57032  38.875  22.096   0.381
85362W        W57033  17.322  41.612  11.120
85363W        W57034  39.085  14.128   3.704
85364W        W57035  11.599  36.039   3.249
85365W        W57036  27.336  17.946  13.774
85366W        W57037  30.131  27.255  14.999
85367W        W57038  29.458   8.480   0.293
85368W        W57039  35.757  40.109   1.876
85369W        W57040   8.642  19.133  14.075
85370W        W57041   5.621   8.961  12.037
85371W        W57042  19.900  40.891   3.177
85372W        W57043  39.914  29.060   2.383
85373W        W57044  20.582  29.398  10.741
85374W        W57045   2.709  10.285   2.165
85375W        W57046  40.839  28.721  13.042
85376W        W57047   6.770  39.470  13.483
85377W        W57048  27.948  23.746   2.274
85378W        W57049   5.460  38.403   2.299
85379W        W57050  31.602  11.578  13.878
85380W        W57051  15.590  34.468  13.530
85381W        W57052  44.947  18.990  14.560
85382W        W57053  19.049  25.274  12.305
85383W        W57054   3.432  10.783  10.641
85384W        W57055  36.104  36.740  12.183
85385W        W57056   9.665  44.367  13.673
85386W        W57057  12.308  21.227   5.035
85387W        W57058  36.147  34.777   2.354
85388W        W57059  22.107  28.655  13.991
85389W        W57060  35.950  28.880  13.320
85390W        W57061  40.252   3.837  10.682
85391W        W57062   5.842  29.062   0.078
85392W        W57063   7.660  24.306  13.200
85393W        W57064   1.001  12.779   0.231
85394W        W57065  28.736  42.791   1.797
85395W        W57066  34.898  19.692   2.259
85396W        W57067  27.683  10.317   5.021
85397W        W57068   5.862  26.681   4.682
85398W        W57069   5.416   4.892  11.905
85399W        W57070  38.991  27.059   3.587
85400W        W57071  42.880  36.371  14.796
85401W        W57072   4.987  41.038   4.699
85402W        W57073   9.359  42.234   3.273
85403W        W57074  37.896  28.461  13.919
85404W        W57075  18.294  27.327  14.840
85405W        W57076  43.254  43.411   0.917
85406W        W57077  43.138  41.069  10.917
85407W        W57078  32.039  38.966  14.474
85408W        W57079  30.438  30.561   2.150
85409W        W57080  15.780  11.562  11.463
85410W        W57081   5.937   3.998   4.273
85411W        W57082  26.826  17.335  12.416
85412W        W57083  22.059  43.506   3.680
85413W        W57084  13.335   8.217   3.069
85414W        W57085  43.547  41.985   3.775
85415W        W57086  21.310  15.203   4.453
85416W        W57087  18.745  35.186   4.722
85417W        W57088  25.052   8.176   0.276
85418W        W57089  19.080  15.338   1.900
85419W        W57090  13.722  31.827   3.692
85420W        W57091  43.985  23.491   4.744
85421W        W57092  18.693  43.273  12.075
85422W        W57093  14.725  11.896   3.709
85423W        W57094  19.643  14.112  14.149
85424W        W57095   0.239   0.417   3.437
85425W        W57096   7.636  39.559  14.758
85426W        W57097   2.492  21.582  13.618
85427W        W57098  28.670   5.889  11.769
85428W        W57099  33.586  37.575   3.758
85429W        W57100  38.855  37.589   1.708
85430W        W57101  21.805  40.783  14.388
85431W        W57102   4.411  18.617  10.590
85432W        W57103  43.222  41.487  14.901
85433W        W57104  35.560  26.976  14.112
85434W        W57105  41.237  29.445   0.187
85435W        W57106  24.651   3.417  12.137
85436W        W57107  24.191  29.644   1.269
85437W        W57108   0.029  43.835  14.550
85438W        W57109   1.293   0.409   0.486
85439W        W57110  23.775   7.331   4.223
85440W        W57111  33.085  32.558  13.291
85441W        W57112  35.587  43.304   1.225
85442W        W57113   4.376  40.627   0.934
85443W        W57114  43.993  39.484   2.116
85444W        W57115  44.647  39.163  10.622
85445W        W57116  28.016  22.129  14.254
85446W        W57117   6.456  19.183  14.384
85447W        W57118  18.052  42.049  14.377
85448W        W57119  36.133  20.774  14.237
85449W        W57120  14.589  13.346  14.920
85450W        W57121  12.368  12.750  14.547
85451W        W57122   5.114  12.094  12.429
85452W        W57123  37.162  33.024   3.269
85453W        W57124  14.793  10.382  10.316
85454W        W57125   1.301  36.812   1.823
85455W        W57126  19.752   4.625  13.298
85456W        W57127  34.954  42.292   1.146
85457W        W57128   9.881  42.931  11.589
85458W        W57129  17.226   3.917  12.569
85459W        W57130   5.570   5.406  12.455
85460W        W57131  34.105  24.752   3.327
85461W        W57132  44.369  11.181   5.061
85462W        W57133   6.714  42.245   3.659
85463W        W57134  10.961  18.046  13.421
85464W        W57135  17.467  25.556   3.077
85465W        W57136  30.584   7.342   4.610
85466W        W57137   1.203  39.521   3.629
85467W        W57138   4.935  26.124  10.207
85468W        W57139  23.956  40.953   3.214
85469W        W57140  28.073  27.267   3.764
85470W        W57141   8.808  13.759   0.966
85471W        W57142   8.321  20.255  11.166
85472W        W57143  10.999   8.061  11.487
85473W        W57144  38.469  30.225   3.912
85474W        W57145  10.541  37.379  14.079
85475W        W57146  20.969  40.579   4.578
85476W        W57147  21.654  33.877   1.002
85477W        W57148  44.471   9.495  10.711
85478W        W57149  11.863  42.749  14.069
85479W        W57150   3.857   4.608  14.649
85480W        W57151  13.838  13.746   0.666
85481W        W57152  25.912  22.291  11.218
85482W        W57153  32.947  22.284   3.810
85483W        W57154  28.733  12.660   0.209
85484W        W57155  23.777  19.777  12.012
85485W        W57156  10.242  20.080   3.522
85486W        W57157   0.439  27.257  13.947
85487W        W57158  33.696  39.135  13.883
85488W        W57159  24.129  39.589   4.110
85489W        W57160  11.296   5.792   2.247
85490W        W57161  27.490  32.510  12.585
85491W        W57162   0.358  35.053  13.127
85492W        W57163   7.334  16.735   3.416
85493W        W57164   5.653  34.512  12.194
85494W        W57165  15.126   4.985   0.939
85495W        W57166  33.713  17.816  12.424
85496W        W57167  24.036  31.012  13.022
85497W        W57168  37.819  40.531  10.371
85498W        W57169  36.926  21.254  10.792
85499W        W57170  32.678  19.215   1.044
85500W        W57171  35.318  20.527  12.760
85501W        W57172  38.295  39.387   3.516
85502W        W57173  11.775   0.986  10.671
85503W        W57174  23.703  15.540   2.277
85504W        W57175  32.826   8.779   3.159
85505W        W57176  37.723  42.352  10.728
85506W        W57177  34.873  33.750   1.392
85507W        W57178  22.042  44.283  14.445
85508W        W57179  37.712  33.519   2.732
85509W        W57180  23.043  14.770   0.915
85510W        W57181  37.390  34.734  11.526
85511W        W57182  27.571  34.231  10.673
85512W        W57183  35.332  40.390  13.124
85513W        W57184   7.824  44.994   4.420
85514W        W57185  34.027  44.833   3.020
85515W        W57186   2.391  20.644   1.744
85516W        W57187  31.598  16.824   3.060
85517W        W57188  27.307  17.180   0.784
85518W        W57189  30.802  30.909   1.364
85519W        W57190  13.101  40.563   0.787
85520W        W57191  24.547   3.292  11.636
85521W        W57192  41.448  27.502   1.148
85522W        W57193   2.727  33.652   2.663
85523W        W57194  37.595   6.648  10.540
85524W        W57195   4.324  15.545   3.214
85525W        W57196  25.714   5.924   1.977
85526W        W57197  24.680   9.235  12.619
85527W        W57198  25.609   1.489  11.661
85528W        W57199   4.680  44.278   4.964
85529W        W57200  38.866  20.278  14.879
85530W        W57201  23.940  19.567   0.408
85531W        W57202   3.164  41.430  13.584
85532W        W57203  43.430  30.159   3.243
85533W        W57204  40.981  28.567  12.133
85534W        W57205  41.529  32.019   2.390
85535W        W57206  10.201   3.208  10.703
85536W        W57207  35.117  24.981   3.183
85537W        W57208  29.065  42.432  14.650
85538W        W57209   1.093  27.579  13.123
85539W        W57210   1.861   0.691   2.290
85540W        W57211   4.928   4.943   0.225
85541W        W57212   0.443  22.757   2.755
85542W        W57213  31.511  35.330   4.132
85543W        W57214  16.269  16.162  13.776
85544W        W57215   1.210  13.871   2.951
85545W        W57216  21.133  25.940   3.927
85546W        W57217  20.565  34.814   3.266
85547W        W57218  20.044   3.823   4.081
85548W        W57219  41.116  33.969   2.064
85549W        W57220  25.121  19.571  12.967
85550W        W57221  17.625   4.765  13.937
85551W        W57222  38.341  44.485  13.603
85552W        W57223  44.511  21.766  12.050
85553W        W57224  43.864   2.954  12.804
85554W        W57225  39.786  34.596   0.861
85555W        W57226  22.204  24.580  14.680
85556W        W57227  40.884   0.325   4.336
85557W        W57228  22.601   8.911   4.179
85558W        W57229  14.736  38.313  12.921
85559W        W57230  24.584  37.633  12.644
85560W        W57231  27.448   1.137  10.353
85561W        W57232   8.840   5.888   0.676
85562W        W57233   2.332   7.328   2.401
85563W        W57234  38.609   5.287  13.521
85564W        W57235   6.349  44.889   0.945
85565W        W57236  31.401  39.022   1.723
85566W        W57237   1.894   6.425   2.623
85567W        W57238   1.914  24.995   4.654
85568W        W57239  25.148  38.979  12.578
85569W        W57240  23.546  24.000  13.972
85570W        W57241  11.402  25.829   3.196
85571W        W57242  27.847  15.388  12.085
85572W        W57243   3.396  42.267   3.127
85573W        W57244  38.592  15.283   1.229
85574W        W57245  26.689  26.816   4.024
85575W        W57246  31.883  29.137   1.003
85576W        W57247  14.123  31.548   3.210
85577W        W57248  43.843  32.508   0.824
85578W        W57249   9.660   1.495   2.451
85579W        W57250  44.718  35.596  11.620
85580W        W57251  17.404  13.182   1.204
85581W        W57252  21.189  20.218   2.799
85582W        W57253   9.118   0.182   1.033
85583W        W57254  19.191  11.766   3.635
85584W        W57255   6.459   2.968   3.548
85585W        W57256  42.785  18.546  14.350
85586W        W57257  36.457   4.782  14.881
85587W        W57258  20.570  31.516  13.306
85588W        W57259  29.068  11.590  12.614
85589W        W57260  20.707  39.850   2.395
85590W        W57261  11.044  40.838   3.140
85591W        W57262   5.972   8.400  13.468
85592W        W57263  14.710  27.983  14.795
85593W        W57264  12.766  27.596  10.717
85594W        W57265   0.700   9.400  13.948
85595W        W57266   6.361  35.321  13.073
85596W        W57267  29.862   3.815   4.171
85597W        W57268   1.145   4.551   2.797
85598W        W57269  26.455   1.718   3.685
85599W        W57270  17.812   2.940   1.418
85600W        W57271  36.082  17.569  10.811
85601W        W57272  10.721  24.132  14.746
85602W        W57273  26.198  21.206   2.707
85603W        W57274  25.923  41.057  11.934
85604W        W57275  36.520  24.901  12.045
85605W        W57276  39.518  36.040  13.418
85606W        W57277  20.735  25.466   0.194
85607W        W57278  19.958  35.520   3.846
85608W        W57279  21.027  38.841  12.585
85609W        W57280  36.502  13.800  12.346
85610W        W57281   5.181  42.945  11.972
85611W        W57282  24.230  14.601   3.091
85612W        W57283  23.735  19.760   1.797
85613W        W57284  16.668  42.564   5.238
85614W        W57285  43.369   3.461  10.632
85615W        W57286  21.536  11.556   2.350
85616W        W57287  36.131  40.426   3.302
85617W        W57288   1.229   2.302  13.555
85618W        W57289   1.322  32.096  12.428
85619W        W57290  13.162   7.742   1.648
85620W        W57291   4.595  36.753   0.251
85621W        W57292  36.017  33.988  11.162
85622W        W57293   5.427  41.986   2.225
85623W        W57294  30.895  44.760  14.973
85624W        W57295  28.633  10.942  10.757
85625W        W57296  19.841  30.411  12.807
85626W        W57297  35.406  31.628  11.511
85627W        W57298  13.528  39.013  10.372
85628W        W57299  37.846  36.586   0.944
85629W        W57300  11.716  21.989  12.782
85630W        W57301  38.020  15.133  11.577
85631W        W57302  30.627  22.557   4.710
85632W        W57303   4.792  16.777  11.368
85633W        W57304  38.830  37.947  10.816
85634W        W57305  32.854  25.474  13.387
85635W        W57306  31.428  21.101  11.572
85636W        W57307  33.845  33.639  14.758
85637W        W57308   1.263  44.349   0.812
85638W        W57309  17.655   2.010  12.535
85639W        W57310  17.179  26.627  12.529
85640W        W57311  24.054  21.965   2.640
85641W        W57312  33.957  40.877  11.438
85642W        W57313  36.383  39.748   3.839
85643W        W57314   3.207   2.739  11.525
85644W        W57315  43.100  28.670   2.743
85645W        W57316  19.883  33.435   1.816
85646W        W57317  27.869  28.678   4.243
85647W        W57318  30.163   5.137  11.184
85648W        W57319  44.247  26.155   1.188
85649W        W57320  22.778  32.033   5.121
85650W        W57321  27.382  14.617   1.925
85651W        W57322  20.530  42.495  12.519
85652W        W57323  22.027   5.889  13.452
85653W        W57324   2.962   2.993  12.435
85654W        W57325  43.395  41.565   3.515
85655W        W57326  20.773  11.183   2.967
85656W        W57327  37.777  29.185  11.577
85657W        W57328  30.184   8.753   2.284
85658W        W57329  29.070  36.898   3.537
85659W        W57330  17.697  31.590  11.477
85660W        W57331   4.959  21.011   2.085
85661W        W57332   7.480  25.072   3.192
85662W        W57333  17.801  16.271   4.528
85663W        W57334   6.920   9.258   1.863
85664W        W57335  28.094  17.782   3.725
85665W        W57336  28.236   0.308  11.701
85666W        W57337   9.155  13.556   0.646
85667W        W57338  36.141  17.756  11.290
85668W        W57339   1.412  12.094   1.006
85669W        W57340   4.729  39.268   3.783
85670W        W57341  16.318  12.648   0.997
85671W        W57342   0.381  39.036   2.825
85672W        W57343  35.644  27.006   1.422
85673W        W57344  29.709   3.529   5.174
85674W        W57345  19.806  37.556   3.960
85675W        W57346  43.857  37.446  14.282
85676W        W57347  37.495  29.894   2.635
85677W        W57348   2.364  35.639  14.980
85678W        W57349  23.239  35.094  11.011
85679W        W57350  26.584  17.492   4.787
85680W        W57351  16.233  27.996  13.019
85681W        W57352  44.549  38.842   2.631
85682W        W57353  18.117  34.152   1.888
85683W        W57354  16.799  16.366  12.960
85684W        W57355  31.372  19.533   3.318
85685W        W57356  32.183  42.834  12.479
85686W        W57357  37.458  39.424   1.190
85687W        W57358   7.958   1.616  11.273
85688W        W57359  23.097   8.185   0.962
85689W        W57360  17.129  15.647  12.481
85690W        W57361   5.703  44.316  10.600
85691W        W57362   2.276  25.420   3.698
85692W        W57363  34.519   5.739   3.179
85693W        W57364  18.132  33.064   4.248
85694W        W57365  12.100   4.559   2.741
85695W        W57366  30.290  38.940  12.061
85696W        W57367  10.735  16.157   2.673
85697W        W57368  12.731  39.124   2.871
85698W        W57369   1.435   1.217   0.927
85699W        W57370   2.188  14.093   2.206
85700W        W57371  35.015  29.831  10.693
85701W        W57372   1.309  31.364   1.017
85702W        W57373  42.772  10.855  10.657
85703W        W57374  26.272  28.115   0.963
85704W        W57375  25.592   3.524  11.288
85705W        W57376  11.890  13.557  14.050
85706W        W57377  33.113   2.416  13.999
85707W        W57378  11.340   3.838  11.135
85708W        W57379  26.966  36.840  11.435
85709W        W57380  24.074  36.311  11.605
85710W        W57381  42.172  21.613  11.950
85711W        W57382  22.994   4.335  13.063
85712W        W57383  25.192  14.658   1.834
85713W        W57384  42.235  10.770   1.115
85714W        W57385  40.591  22.320   1.821
85715W        W57386  18.814  35.925  13.359
85716W        W57387  41.744  32.843   4.070
85717W        W57388   3.813  16.035   0.306
85718W        W57389  17.071  35.058   4.995
85719W        W57390  35.021  38.911   4.542
85720W        W57391   2.478  32.940   0.277
85721W        W57392  39.802   4.895   3.560
85722W        W57393  41.799  12.386   2.774
85723W        W57394  37.503  36.611   0.210
85724W        W57395  19.084  27.176  10.860
85725W        W57396  27.500  24.236  12.463
85726W        W57397   5.822  12.212  12.163
85727W        W57398  19.086  10.877  11.594
85728W        W57399  21.970  36.654  13.618
85729W        W57400  31.847   4.654  13.764
85730W        W57401   5.248  22.662   1.308
85731W        W57402  18.697  11.625  12.343
85732W        W57403  42.069   1.792  12.204
85733W        W57404  29.817  37.391   0.441
85734W        W57405  21.067   4.594   0.903
85735W        W57406   0.650  16.790  12.582
85736W        W57407  21.521  37.952   4.946
85737W        W57408  27.566  36.872  13.984
85738W        W57409  10.812  32.250  10.784
85739W        W57410  22.469  35.117  11.424
85740W        W57411  17.212   4.865  13.054
85741W        W57412  18.700  37.591   1.344
85742W        W57413  37.417   3.387  10.888
85743W        W57414  24.098  26.987   1.918
85744W        W57415  33.323  29.166  11.656
85745W        W57416  32.896  10.114  12.565
85746W        W57417  16.750  18.315   0.819
85747W        W57418  38.439  16.065  10.733
85748W        W57419  29.560   7.888  13.405
85749W        W57420  39.053  31.159   0.370
85750W        W57421  41.611  13.223  11.487
85751W        W57422  13.383  42.246  12.095
85752W        W57423   2.904  13.870   4.344
85753W        W57424  22.068  43.777   0.164
85754W        W57425   5.386  33.538  12.876
85755W        W57426  16.577   6.364  11.551
85756W        W57427  32.043  24.891  10.972
85757W        W57428   1.908  12.103  13.076
85758W        W57429   6.532  40.949   4.340
85759W        W57430  13.342  44.438   3.237
85760W        W57431  30.056  37.065   3.210
85761W        W57432   2.379  23.539  10.696
85762W        W57433  37.861  42.590  12.496
85763W        W57434  40.856  16.441   0.725
85764W        W57435   1.966  21.795   4.200
85765W        W57436  24.634  38.423   4.712
85766W        W57437   0.309  40.906   2.511
85767W        W57438  32.613  34.426   0.897
85768W        W57439  20.168  22.796   3.663
85769W        W57440  41.204  36.311   1.333
85770W        W57441  36.848  26.939   0.857
85771W        W57442  23.771  38.976  12.958
85772W        W57443  20.336  33.720   4.187
85773W        W57444  16.218  12.808   1.963
85774W        W57445  14.101  10.096   2.488
85775W        W57446  43.784  16.546  10.752
85776W        W57447  24.137  43.081  14.428
85777W        W57448   6.900  37.770  12.463
85778W        W57449  21.315  15.689   4.228
85779W        W57450  34.505  35.445  11.423
85780W        W57451  42.802  43.770  12.136
85781W        W57452   5.715  25.432   3.242
85782W        W57453  33.796  31.404  11.577
85783W        W57454  30.321  33.614   1.410
85784W        W57455  37.885   5.948   3.808
85785W        W57456  20.920  24.983  11.621
85786W        W57457  28.688  15.516   2.732
85787W        W57458   4.526  38.000  12.491
85788W        W57459  42.880   8.726   2.466
85789W        W57460  20.777  31.172   4.184
85790W        W57461  27.165  21.533   2.755
85791W        W57462   8.719   8.863  14.065
85792W        W57463  10.873  39.478  11.128
85793W        W57464  28.427  17.814  14.492
85794W        W57465   9.827  31.567   0.306
85795W        W57466   2.458  44.879  12.468
85796W        W57467  27.412  35.275  11.485
85797W        W57468  32.735   1.351   0.693
85798W        W57469   7.768   9.849   3.112
85799W        W57470  42.056  21.117  12.023
85800W        W57471   1.817   9.492   3.176
85801W        W57472  29.334   2.250  14.426
85802W        W57473  10.571   6.385   1.278
85803W        W57474  11.114  24.233  10.656
85804W        W57475  35.656  24.872  14.846
85805W        W57476  37.773   2.423  12.498
85806W        W57477  23.078   7.217  13.903
85807W        W57478   9.650  23.495  11.507
85808W        W57479  22.857  24.007   3.384
85809W        W57480  21.607   0.527   3.043
85810W        W57481  42.329  41.792  13.952
85811W        W57482  14.156  12.655   0.504
85812W        W57483  28.268  36.557   3.678
85813W        W57484  23.648  31.964   0.891
85814W        W57485   1.356  19.773  12.139
85815W        W57486  25.824  30.509  13.932
85816W        W57487  15.655  16.503   4.538
85817W        W57488  32.933  38.294  13.397
85818W        W57489  15.271  38.448   2.512
85819W        W57490  19.626  15.596  11.538
85820W        W57491   7.969  37.857  13.097
85821W        W57492  17.063   7.298  12.127
85822W        W57493  20.118  36.540  10.567
85823W        W57494  38.481  43.954  12.499
85824W        W57495  31.575  30.663   2.933
85825W        W57496   1.656  29.395   0.516
85826W        W57497  24.569   5.990   4.814
85827W        W57498  44.139  44.881  11.447
85828W        W57499  10.812  42.614   2.242
85829W        W57500  42.509  22.517   0.380
85830W        W57501   9.202  22.520  11.892
85831W        W57502  39.825  40.762  12.468
85832W        W57503  12.269  19.739  14.883
85833W        W57504  21.223   4.717  12.428
85834W        W57505  30.560  34.059   4.677
85835W        W57506  27.371   8.412   2.341
85836W        W57507  10.260  21.656   4.541
85837W        W57508  25.116  27.940  14.032
85838W        W57509  20.349  44.689  11.080
85839W        W57510  44.121  38.557   3.961
85840W        W57511  14.850  29.284  13.158
85841W        W57512  44.087  35.520  12.481
85842W        W57513   6.313  26.084  13.839
85843W        W57514  28.393  26.512  14.694
85844W        W57515  29.542   9.599   3.173
85845W        W57516   7.348  30.276  12.523
85846W        W57517  19.849  18.004   5.009
85847W        W57518   0.029  29.542  10.591
85848W        W57519  12.509  11.832  14.079
85849W        W57520  28.729   4.948   1.770
85850W        W57521  15.726   0.717  12.607
85851W        W57522  18.243  32.882  12.854
85852W        W57523  27.478  36.802   4.078
85853W        W57524  21.522   7.801   3.289
85854W        W57525  24.705   4.498   9.794
85855W        W57526  25.626  26.766  10.292
85856W        W57527   1.256  22.639  12.265
85857W        W57528  21.808  36.666  11.445
85858W        W57529  25.281   8.990  14.951
85859W        W57530  42.128  10.196  12.771
85860W        W57531  16.896   6.723   4.960
85861W        W57532  27.013  24.621   2.469
85862W        W57533  39.889  40.944  10.556
85863W        W57534  38.179  21.485   0.059
85864W        W57535   2.752  37.851  11.159
85865W        W57536  14.665  12.565  13.562
85866W        W57537  39.029  42.419   4.826
85867W        W57538  39.729  36.812   4.388
85868W        W57539   0.958  37.203   3.674
85869W        W57540   1.850  18.614  13.795
85870W        W57541  40.956  12.088  12.663
85871W        W57542  38.418  11.149   1.240
85872W        W57543   7.447  28.355  14.948
85873W        W57544  34.833  22.247   2.399
85874W        W57545  15.818   0.019  14.243
85875W        W57546  11.837  35.912   0.410
85876W        W57547  17.754  18.210  12.909
85877W        W57548  37.005   1.327  10.676
85878W        W57549  19.210  14.207   1.943
85879W        W57550  44.886  42.664   3.748
85880W        W57551  37.667  11.896   2.274
85881W        W57552  18.126  25.068  13.141
85882W        W57553  19.188  25.945  14.282
85883W        W57554   8.418  33.152  14.219
85884W        W57555  19.806  17.563  11.426
85885W        W57556   9.836  11.663   0.796
85886W        W57557  29.637  36.082  12.966
85887W        W57558  43.315  39.932  14.636
85888W        W57559  34.379   6.448  12.928
85889W        W57560  38.059  43.350   3.699
85890W        W57561   7.117  20.162   2.278
85891W        W57562  21.954  25.582   0.553
85892W        W57563  24.219  39.010   2.997
85893W        W57564  41.819  26.163  11.958
85894W        W57565  22.580  10.151   4.520
85895W        W57566  44.392  38.020  10.963
85896W        W57567  17.534   1.968  13.844
85897W        W57568  17.578   0.510   1.812
85898W        W57569  37.614  36.885  12.425
85899W        W57570  19.779  13.812   0.958
85900W        W57571  19.414   7.832   2.783
85901W        W57572  21.201  13.856  10.292
85902W        W57573   5.788  34.301   0.305
85903W        W57574  23.276  32.474  14.857
85904W        W57575  28.982  35.587  13.397
85905W        W57576  44.897  12.229  14.338
85906W        W57577   1.864  16.739   4.862
85907W        W57578  42.684  27.628   4.047
85908W        W57579  43.710  32.124   0.460
85909W        W57580  35.919  39.141   0.829
85910W        W57581  34.117   1.605  13.592
85911W        W57582  34.882   4.497   1.345
85912W        W57583  34.989  28.720   2.910
85913W        W57584  17.346  10.180   1.470
85914W        W57585  40.786  44.231  14.505
85915W        W57586  10.305  40.992  14.678
85916W        W57587  15.359  18.618  10.752
85917W        W57588  13.622  17.276  14.847
85918W        W57589  33.770   7.218   1.514
85919W        W57590   9.389   1.697  14.114
85920W        W57591  12.152  43.951   0.814
85921W        W57592  28.953   5.737   3.808
85922W        W57593  34.372  37.796  11.915
85923W        W57594  20.254  37.578  10.247
85924W        W57595  10.373   2.880   0.102
85925W        W57596  43.087  20.087   2.836
85926W        W57597   5.304  35.991   0.184
85927W        W57598  36.548  25.997  11.264
85928W        W57599  37.027   1.324   4.301
85929W        W57600  16.025  43.447   4.730
85930W        W57601   2.922  17.220  12.492
85931W        W57602  36.455  33.027  13.338
85932W        W57603  40.306  19.172  11.516
85933W        W57604   1.765  15.928   4.190
85934W        W57605  35.239   4.058   0.447
85935W        W57606  24.358  13.769  10.459
85936W        W57607  29.395   3.616   2.475
85937W        W57608   6.729   7.585   4.041
85938W        W57609  15.347   3.591   5.073
85939W        W57610  19.110  15.531   0.435
85940W        W57611  36.116  18.924  11.869
85941W        W57612   5.684  29.060  14.080
85942W        W57613  22.248  28.886  14.444
85943W        W57614  29.242  25.174  10.147
85944W        W57615  32.442   7.147   1.821
85945W        W57616   3.421  15.365   0.410
85946W        W57617  31.003  20.099   0.161
85947W        W57618  10.751  44.040   2.022
85948W        W57619  42.014  35.870   4.092
85949W        W57620  33.770   9.792  11.419
85950W        W57621   0.924  27.055   1.798
85951W        W57622  10.866  18.273   2.315
85952W        W57623  20.710  14.402  11.996
85953W        W57624  40.495  44.263   2.254
85954W        W57625   3.230  43.410  10.408
85955W        W57626  21.474  36.863   0.493
85956W        W57627   8.866  11.635   0.860
85957W        W57628  37.586   7.631   3.326
85958W        W57629  19.728   0.684  13.340
85959W        W57630  24.809  24.716  13.606
85960W        W57631   9.892  24.995  10.459
85961W        W57632   6.839  34.587  13.851
85962W        W57633  18.812  43.331  14.328
85963W        W57634  16.251  36.703   1.267
85964W        W57635  18.526  21.150  13.074
85965W        W57636  10.246  21.399  10.959
85966W        W57637  34.455  17.112  13.285
85967W        W57638   1.762  20.407  13.467
85968W        W57639  37.597  32.383   1.790
85969W        W57640  17.504   2.369  11.536
85970W        W57641  15.308  29.279  10.598
85971W        W57642   3.912  17.592   3.155
85972W        W57643  13.816   9.235   0.575
85973W        W57644  27.402  37.389   2.323
85974W        W57645  37.962  34.681   4.098
85975W        W57646   7.684  17.054  12.981
85976W        W57647   9.882  36.154  12.096
85977W        W57648  14.025  36.068   2.262
85978W        W57649   8.397  13.350  10.993
85979W        W57650  16.016  42.977  13.107
85980W        W57651   9.735  36.636   2.761
85981W        W57652  44.467   1.043  11.242
85982W        W57653  10.592   5.180   4.281
85983W        W57654  28.447   6.497   0.841
85984W        W57655  24.706  27.625   3.286
85985W        W57656  17.075  24.141  13.827
85986W        W57657  35.446   4.251  14.474
85987W        W57658  42.686  14.988  12.094
85988W        W57659   6.260  33.387   4.649
85989W        W57660  41.404  43.169  10.407
85990W        W57661  43.425  22.880  14.378
85991W        W57662  18.047  42.941   1.760
85992W        W57663  24.188  25.106   1.832
85993W        W57664  17.557   6.906   3.208
85994W        W57665   4.783  34.387  14.687
85995W        W57666  29.982  41.915  14.026
85996W        W57667  18.821  32.099  12.117
85997W        W57668  27.022   5.921   1.279
85998W        W57669  44.604  32.585   3.081
85999W        W57670  18.985  10.949   0.946
86000W        W57671  33.322  27.627   1.408
86001W        W57672  37.021  29.134  11.145
86002W        W57673  17.199  20.675  11.983
86003W        W57674  43.758  32.232   3.449
86004W        W57675  27.322  14.060   4.546
86005W        W57676  28.191  19.654  11.535
86006W        W57677  10.084  31.127  14.353
86007W        W57678  16.055  13.821   1.650
86008W        W57679   0.061  10.798  10.634
86009W        W57680  16.334  38.040   1.764
86010W        W57681  38.045  42.883  13.949
86011W        W57682   2.292  33.077  14.079
86012W        W57683   2.462  34.056   4.724
86013W        W57684  39.007  17.930  10.698
86014W        W57685  19.627  35.384   1.832
86015W        W57686  34.922  35.158  11.548
86016W        W57687  16.662  32.147  13.333
86017W        W57688  27.478  18.547   0.272
86018W        W57689  32.332  39.611   2.650
86019W        W57690  15.056  36.477  10.672
86020W        W57691  16.733  19.243   3.557
86021W        W57692  40.901  29.331   0.584
86022W        W57693   9.440  11.798  12.099
86023W        W57694  42.739   2.332   2.786
86024W        W57695  20.124  32.129  11.503
86025W        W57696  23.216  14.241   3.872
86026W        W57697   1.802   7.620   0.380
86027W        W57698  25.268  36.443  11.153
86028W        W57699  30.441  18.336  13.098
86029W        W57700  18.301   2.219   2.941
86030W        W57701   9.724  35.445  13.486
86031W        W57702  29.285  32.842   0.799
86032W        W57703  11.323  17.429  11.574
86033W        W57704  16.011  25.043   3.194
86034W        W57705  20.606  37.882   1.380
86035W        W57706  38.334   7.115   2.184
86036W        W57707   7.119  41.858   3.594
86037W        W57708  35.397  23.548   4.150
86038W        W57709  18.072  25.563   2.446
86039W        W57710  40.540  20.027  13.840
86040W        W57711  43.027  22.365   1.343
86041W        W57712   2.450   1.914  13.986
86042W        W57713  31.485   4.905  11.567
86043W        W57714   5.860   4.829   1.250
86044W        W57715  37.916  21.008   2.250
86045W        W57716  17.304  14.261   0.396
86046W        W57717  21.294  36.451  10.687
86047W        W57718  42.449  20.521  10.733
86048W        W57719  21.970   0.403   3.849
86049W        W57720  14.656  43.313  13.875
86050W        W57721   3.756  32.985   1.000
86051W        W57722  29.375  36.894  10.665
86052W        W57723  38.461  39.842   4.334
86053W        W57724  16.600  22.691  11.118
86054W        W57725  27.117   7.300  12.321
86055W        W57726  34.354  26.528  13.553
86056W        W57727  33.893  13.638   3.718
86057W        W57728   3.456  44.539  14.052
86058W        W57729  35.074   0.883  13.611
86059W        W57730  25.519  34.496   1.298
86060W        W57731   0.365  19.699  14.486
86061W        W57732  10.090   1.448   3.724
86062W        W57733  31.684  40.329   4.348
86063W        W57734   7.929  24.070  11.222
86064W        W57735  28.624  34.127  14.833
86065W        W57736  18.776   1.952   1.313
86066W        W57737   2.202   7.266  11.863
86067W        W57738  41.862   9.170  14.992
86068W        W57739  11.553   8.790   4.409
86069W        W57740  29.072   3.722  14.088
86070W        W57741   1.285  27.576  12.625
86071W        W57742  26.171  30.051  14.427
86072W        W57743   2.872  33.178   3.457
86073W        W57744  29.175  14.893  12.461
86074W        W57745  18.829   6.243  10.693
86075W        W57746  31.113  10.211   1.748
86076W        W57747  33.506  39.293   3.252
86077W        W57748   5.476   2.809   3.561
86078W        W57749  35.746  24.377  12.461
86079W        W57750  13.119  39.885   0.367
86080W        W57751  38.138  44.905  12.548
86081W        W57752  16.772  30.413  13.981
86082W        W57753   7.759  33.466  11.417
86083W        W57754  32.204  42.421  10.731
86084W        W57755  32.436  15.625  11.303
86085W        W57756   1.818  34.611   2.917
86086W        W57757  38.447  15.031  10.643
86087W        W57758   5.992  35.920  12.939
86088W        W57759  43.144  14.527   9.599
86089W        W57760   6.243  20.009   2.889
86090W        W57761  13.725  15.420   2.282
86091W        W57762  42.758  44.472   3.738
86092W        W57763   9.642  37.116   2.563
86093W        W57764  42.428  35.785  13.753
86094W        W57765   0.993   5.243   3.708
86095W        W57766  28.685  22.690   1.837
86096W        W57767  11.498  28.237   0.335
86097W        W57768  22.927  27.392   0.682
86098W        W57769   7.035  35.070  12.987
86099W        W57770  19.711  31.581   4.930
86100W        W57771  25.172  25.456   4.531
86101W        W57772   2.073  19.990   4.955
86102W        W57773   0.876  29.976   4.400
86103W        W57774  30.789  20.113   3.806
86104W        W57775  40.183  19.892   3.675
86105W        W57776  29.857  22.681   4.851
86106W        W57777   6.694   2.943  13.668
86107W        W57778  19.763  21.486   0.879
86108W        W57779  33.500  29.912   3.137
86109W        W57780  12.742  21.901   3.729
86110W        W57781   7.240  35.880   0.325
86111W        W57782  31.378  11.255   2.426
86112W        W57783  31.192  15.447   1.145
86113W        W57784  41.074  12.795  10.701
86114W        W57785  39.299   2.416  12.947
86115W        W57786  37.196  39.215  14.363
86116W        W57787  29.526  35.913   3.545
86117W        W57788  40.904  35.622   0.903
86118W        W57789  26.875  32.482  13.425
86119W        W57790   7.733   8.560  11.927
86120W        W57791  28.259  43.845   2.718
86121W        W57792   8.801  35.495   4.930
86122W        W57793  13.844  21.596  13.867
86123W        W57794  23.262  37.301   4.250
86124W        W57795  40.375  26.483  14.734
86125W        W57796   8.126  20.665   4.569
86126W        W57797   1.218  22.685   1.650
86127W        W57798  41.892  43.460   4.500
86128W        W57799  36.902  33.628   0.525
86129W        W57800  29.938  12.518  13.020
86130W        W57801  42.643  37.857  14.842
86131W        W57802  23.370  34.154  10.458
86132W        W57803  43.052  26.048  14.824
86133W        W57804  24.679  26.947   2.259
86134W        W57805  15.122  32.548   3.117
86135W        W57806  20.752  34.997  10.546
86136W        W57807   4.166  36.317  12.497
86137W        W57808  27.794  13.183   1.671
86138W        W57809  36.965  23.970   0.011
86139W        W57810  25.201  27.516   0.378
86140W        W57811  10.951   5.339  13.852
86141W        W57812  26.470  25.523   1.311
86142W        W57813   5.367  39.801  12.460
86143W        W57814   6.454  44.279  12.505
86144W        W57815   1.432  31.656   4.677
86145W        W57816  25.952   0.458  13.540
86146W        W57817  21.009  42.055   4.570
86147W        W57818  44.620  40.480   4.132
86148W        W57819  37.496  14.802   0.692
86149W        W57820  11.066  15.121   1.212
86150W        W57821  24.286  12.828  12.677
86151W        W57822  15.261  25.630   1.842
86152W        W57823  38.426  16.591   4.544
86153W        W57824   9.756  27.143   3.894
86154W        W57825  36.342   5.289   4.850
86155W        W57826   4.431   0.315  10.369
86156W        W57827  19.310   8.825  14.544
86157W        W57828  22.436  40.105   1.633
86158W        W57829  43.830   1.443   1.411
86159W        W57830  29.394  39.106  11.880
86160W        W57831  39.522  23.997  11.482
86161W        W57832  41.203  40.540   1.863
86162W        W57833  18.538   4.370   3.876
86163W        W57834  31.497  27.571   4.714
86164W        W57835  31.390  30.251   0.966
86165W        W57836  34.599  13.759   4.589
86166W        W57837  19.369  20.542  11.216
86167W        W57838  13.242  37.371  11.200
86168W        W57839   8.457  18.310  10.554
86169W        W57840   3.343  15.662  10.458
86170W        W57841  42.299  15.587  14.313
86171W        W57842  15.128  24.196   0.792
86172W        W57843  25.744  38.605  11.097
86173W        W57844  19.362  19.671  10.748
86174W        W57845  44.008  29.008   1.291
86175W        W57846  22.175  32.087  10.976
86176W        W57847  14.553  10.265  13.055
86177W        W57848  23.617  28.856   0.218
86178W        W57849  44.940  17.986   3.907
86179W        W57850  28.435  26.784   4.774
86180W        W57851  12.340  15.751  11.506
86181W        W57852  27.652  41.269   0.703
86182W        W57853  13.592  27.019   2.414
86183W        W57854  33.605   4.935  11.523
86184W        W57855  39.567  10.275  14.018
86185W        W57856  33.190  16.257  11.695
86186W        W57857  12.159  17.357  13.023
86187W        W57858  41.913  43.033   0.515
86188W        W57859   2.109  36.564   0.755
86189W        W57860   8.634  10.952  14.940
86190W        W57861   9.203  10.594  11.480
86191W        W57862   7.230  31.473   3.061
86192W        W57863  34.619  40.106   2.329
86193W        W57864  41.013  35.776   1.398
86194W        W57865  34.995   6.422   4.191
86195W        W57866   5.798  34.906  11.903
86196W        W57867  39.840   5.966   0.334
86197W        W57868  10.374  34.930   2.218
86198W        W57869   4.504   3.426   1.619
86199W        W57870   3.738  16.581   1.715
86200W        W57871  30.077   1.548   3.609
86201W        W57872  44.650  40.855   9.657
86202W        W57873   4.589   1.738   0.989
86203W        W57874  23.045  29.565  14.026
86204W        W57875  25.671  21.116   0.847
86205W        W57876  40.003  21.572  10.746
86206W        W57877  27.475   2.301  11.892
86207W        W57878   2.891  30.916   3.714
86208W        W57879   7.655  18.283   3.322
86209W        W57880  37.136   9.826  13.822
86210W        W57881  37.855  15.262   0.736
86211W        W57882   1.199  32.974   0.100
86212W        W57883  22.574   8.397  14.743
86213W        W57884  39.597  14.957   0.321
86214W        W57885  19.071  27.086  10.321
86215W        W57886   1.259   1.331  12.075
86216W        W57887  25.398  42.491  14.766
86217W        W57888  34.570   6.280   0.537
86218W        W57889   0.195  38.464   1.689
86219W        W57890  11.377  22.163   1.850
86220W        W57891  20.618   3.219   2.450
86221W        W57892  38.297  28.969  12.411
86222W        W57893  20.764   2.147  11.185
86223W        W57894  10.762  42.441   0.513
86224W        W57895   5.655  30.980  12.863
86225W        W57896  41.429  29.452  13.400
86226W        W57897  11.565   8.597   2.402
86227W        W57898  11.908  33.116   2.270
86228W        W57899  34.038  43.877   4.666
86229W        W57900  17.636  15.204   2.833
86230W        W57901  12.358  26.107   2.625
86231W        W57902  42.988  23.745   0.286
86232W        W57903  40.521  11.241   1.675
86233W        W57904  42.724  26.510   3.193
86234W        W57905   9.065  12.720  13.881
86235W        W57906  29.698   2.447   2.706
86236W        W57907  27.994  12.405  10.651
86237W        W57908  31.936   7.192   2.337
86238W        W57909  34.050   3.393   4.252
86239W        W57910  23.600  44.513   2.786
86240W        W57911  25.898  19.164   1.011
86241W        W57912  44.246  29.019   0.279
86242W        W57913  15.418   4.989   1.934
86243W        W57914  11.901  38.781  12.475
86244W        W57915  10.408  14.477   1.319
86245W        W57916  12.598  40.408   0.777
86246W        W57917  21.978  16.047  10.664
86247W        W57918  15.610  29.060   4.754
86248W        W57919  35.514   9.550  12.658
86249W        W57920  10.228  16.755   3.288
86250W        W57921   0.162   0.923   1.276
86251W        W57922  41.306  11.698  14.433
86252W        W57923  17.099   4.844  11.109
86253W        W57924  21.238   8.249   2.299
86254W        W57925   1.344  25.653  14.900
86255W        W57926  28.969   9.547   5.366
86256W        W57927   0.555  19.042  11.903
86257W        W57928  10.119  20.660   3.620
86258W        W57929   2.907  37.389   0.245
86259W        W57930  22.898  39.084  12.474
86260W        W57931  19.528  41.430   2.785
86261W        W57932  30.421   3.969  14.250
86262W        W57933  12.091  39.918   0.311
86263W        W57934   0.962  41.314   4.000
86264W        W57935  21.579  15.706  11.423
86265W        W57936  18.267  10.243   4.116
86266W        W57937  11.130  20.098  11.631
86267W        W57938  11.206  32.203   0.628
86268W        W57939  38.946   8.545   2.141
86269W        W57940  22.764   1.206  11.496
86270W        W57941   7.619  36.014   3.390
86271W        W57942  23.957   8.174   3.929
86272W        W57943  20.595  13.179  10.693
86273W        W57944  12.987   0.684  12.125
86274W        W57945  42.278  27.177  13.374
86275W        W57946  23.385  37.806   1.920
86276W        W57947  16.302   2.264  14.036
86277W        W57948   6.684  28.601  14.621
86278W        W57949   9.639   5.646   0.810
86279W        W57950  43.341  21.151   5.435
86280W        W57951   4.171  33.618   2.645
86281W        W57952  13.166  17.152   4.506
86282W        W57953  10.765  17.590   1.920
86283W        W57954  42.052   6.315   3.746
86284W        W57955   7.312  26.445   2.802
86285W        W57956  30.098  29.881   1.551
86286W        W57957  22.582  35.488  12.187
86287W        W57958  44.227   2.726  12.468
86288W        W57959   3.905  21.611  10.940
86289W        W57960  13.177  11.839   4.589
86290W        W57961  42.073   6.680   4.382
86291W        W57962  22.198   5.042   2.879
86292W        W57963  43.179   5.839  11.867
86293W        W57964  34.530  34.152  13.821
86294W        W57965   4.121  21.224   2.980
86295W        W57966  32.031  19.522   2.889
86296W        W57967  33.083  41.116   1.538
86297W        W57968  16.720  21.161  11.445
86298W        W57969  20.560  40.075  14.381
86299W        W57970  41.345   2.137   0.358
86300W        W57971  33.880  19.159   1.644
86301W        W57972   9.130  39.779  11.278
86302W        W57973  26.520   0.819  12.969
86303W        W57974  38.834  11.501   0.579
86304W        W57975  30.009  11.708  11.938
86305W        W57976  35.092  35.862   1.435
86306W        W57977  21.589  23.277   2.864
86307W        W57978  16.380  24.592   4.469
86308W        W57979  34.146  15.800  10.712
86309W        W57980  23.706  11.413   2.019
86310W        W57981  12.418  37.398   1.935
86311W        W57982  27.272   7.902  10.265
86312W        W57983   2.451   5.194   2.644
86313W        W57984  40.130  12.563  14.530
86314W        W57985  24.580   7.711  13.907
86315W        W57986  27.265  31.035  14.993
86316W        W57987  39.248  16.561   1.418
86317W        W57988  25.193  37.271   1.269
86318W        W57989   0.953  38.312  11.176
86319W        W57990   2.317  25.621   0.228
86320W        W57991  34.945  14.185  14.550
86321W        W57992  26.411  32.159  13.913
86322W        W57993  33.222  13.534  12.107
86323W        W57994  33.380  29.054  13.000
86324W        W57995  39.250  33.405  13.306
86325W        W57996  42.110  27.995  12.101
86326W        W57997  32.014   6.371  12.378
86327W        W57998  21.767  24.471  13.750
86328W        W57999   5.600   9.332   3.269
86329W        W58000  24.525  39.659  12.064
86330W        W58001  19.621  29.627   1.461
86331W        W58002  10.307  19.202  12.454
86332W        W58003   6.717   9.414   4.611
86333W        W58004  22.511  23.259  14.695
86334W        W58005  37.058  27.445   2.730
86335W        W58006  29.868  20.269  13.012
86336W        W58007   5.725  16.018  11.274
86337W        W58008  29.467  13.471  11.661
86338W        W58009  23.062  26.072   1.543
86339W        W58010  39.920  43.983  13.407
86340W        W58011   2.309  18.496  12.359
86341W        W58012  18.804  11.852   5.225
86342W        W58013   9.564   4.275  14.828
86343W        W58014  32.043  22.195  13.824
86344W        W58015  23.836  24.588  13.392
86345W        W58016  34.400  26.167   2.824
86346W        W58017  42.423   9.400   0.012
86347W        W58018   8.758  34.132   4.130
86348W        W58019   1.908  14.149   1.763
86349W        W58020  27.507  43.687   0.848
86350W        W58021  31.485  33.619   0.337
86351W        W58022  25.419  37.466  10.858
86352W        W58023   2.459   6.469   5.024
86353W        W58024  30.376   5.368  10.680
86354W        W58025  31.460  32.780   3.351
86355W        W58026  39.967  20.687   3.125
86356W        W58027  24.606  21.673   2.323
86357W        W58028  24.697  35.643  12.496
86358W        W58029  37.967  38.990   5.661
86359W        W58030  19.513  16.761   3.081
86360W        W58031  17.210   6.644   0.230
86361W        W58032  26.131  40.919  14.399
86362W        W58033  24.097  19.788  14.962
86363W        W58034   5.915  26.359   5.083
86364W        W58035  44.401  21.236  14.246
86365W        W58036  11.165  38.138  11.118
86366W        W58037  24.453  36.940   0.020
86367W        W58038  14.594   4.025   2.247
86368W        W58039  37.436  10.434  12.510
86369W        W58040  41.507  29.689  14.246
86370W        W58041  41.088   5.427   0.445
86371W        W58042  26.224  11.834  10.745
86372W        W58043  18.588  11.565  10.142
86373W        W58044  22.253  33.584  14.047
86374W        W58045  17.668  22.449  14.991
86375W        W58046  24.583  43.713  13.776
86376W        W58047  41.578  24.233  11.067
86377W        W58048   3.980  13.387   4.563
86378W        W58049   6.498  36.050  13.934
86379W        W58050  12.243  25.250  12.462
86380W        W58051  12.702  36.160  12.534
86381W        W58052   9.309  25.705   1.219
86382W        W58053   4.745  44.629   2.755
86383W        W58054  29.685  30.156  11.994
86384W        W58055  12.793   3.444  14.500
86385W        W58056  36.084  27.487   3.264
86386W        W58057  34.904  26.698   1.788
86387W        W58058   3.783   0.485  13.828
86388W        W58059  19.104  24.235  12.597
86389W        W58060  42.879  26.533  13.168
86390W        W58061  35.533  26.408   1.017
86391W        W58062  33.900  13.899  14.348
86392W        W58063   3.460   0.275   0.112
86393W        W58064   0.774   6.997  12.499
86394W        W58065   0.337  18.749  14.996
86395W        W58066  25.372  33.497   2.724
86396W        W58067  32.407   1.272  10.470
86397W        W58068  19.053  42.833  14.162
86398W        W58069  26.939  35.478  14.686
86399W        W58070   1.836  38.371   3.815
86400W        W58071  26.906  24.110  13.126
86401W        W58072   9.070   1.266  13.166
86402W        W58073  20.641  37.831   2.302
86403W        W58074  36.468  22.215   3.257
86404W        W58075  26.647   2.595   1.228
86405W        W58076  42.375  32.110  13.449
86406W        W58077  31.888  10.478  14.806
86407W        W58078  38.888  34.952  14.099
86408W        W58079  44.288  13.552  10.292
86409W        W58080   2.655  18.457   9.726
86410W        W58081  23.213  16.212   4.088
86411W        W58082  20.307   0.229  11.140
86412W        W58083  26.270  38.542  14.644
86413W        W58084  22.565  41.429  10.555
86414W        W58085   9.212  44.431  14.459
86415W        W58086  21.729   9.696   1.610
86416W        W58087   0.943  11.312  10.799
86417W        W58088  26.569   7.662  13.828
86418W        W58089  43.412  23.508   0.742
86419W        W58090  25.049   9.846  12.423
86420W        W58091  29.635  25.280  13.420
86421W        W58092  25.744  28.743   1.408
86422W        W58093  22.680  38.092   4.644
86423W        W58094  39.738  21.233   3.834
86424W        W58095   9.364  42.838  10.760
86425W        W58096  44.713  40.265   3.345
86426W        W58097  26.976  14.413   3.269
86427W        W58098   7.264  37.526   2.350
86428W        W58099  29.995   3.204   0.610
86429W        W58100  13.607  31.012   1.830
86430W        W58101  36.988  44.805   4.739
86431W        W58102  12.131  21.682   1.215
86432W        W58103   3.717  43.381  14.698
86433W        W58104  39.882  24.089   3.422
86434W        W58105  34.700   7.780  11.989
86435W        W58106   7.946  20.133  12.906
86436W        W58107  32.169  31.489  14.947
86437W        W58108  42.499  27.697  11.208
86438W        W58109  20.426   9.775   1.725
86439W        W58110  41.262  36.155   3.788
86440W        W58111  11.816  20.980  14.425
86441W        W58112   2.984  11.838  14.357
86442W        W58113  15.770  33.484   0.027
86443W        W58114  14.600  42.067  11.156
86444W        W58115  14.969  35.557  12.166
86445W        W58116   6.858  42.316   2.796
86446W        W58117   2.858  13.764  13.005
86447W        W58118  27.649  17.738   3.193
86448W        W58119  16.274  41.284  11.667
86449W        W58120  36.881  40.403  13.833
86450W        W58121  13.793  14.924   2.262
86451W        W58122  34.562  39.118  12.433
86452W        W58123  11.161  20.731  10.368
86453W        W58124  43.881  23.642   2.780
86454W        W58125  30.955   6.853  10.578
86455W        W58126  23.583  33.667   1.278
86456W        W58127  37.048   8.022  11.514
86457W        W58128  30.710   8.114   3.415
86458W        W58129  39.580  18.110  14.434
86459W        W58130  11.347  36.517   0.974
86460W        W58131  16.136  35.442   3.847
86461W        W58132   7.530  36.977  12.279
86462W        W58133   2.038  11.053  13.873
86463W        W58134  33.106  32.158  14.599
86464W        W58135  40.584  32.613  12.268
86465W        W58136  41.153   9.227  13.507
86466W        W58137  28.907  39.343  11.998
86467W        W58138  18.300   3.839   2.235
86468W        W58139   4.914  28.610   1.902
86469W        W58140  29.406  44.996   1.978
86470W        W58141   6.887  22.266   1.000
86471W        W58142   0.002  35.846   4.363
86472W        W58143   0.232   3.379   4.520
86473W        W58144  30.060  40.473  11.557
86474W        W58145  10.236  29.487   3.304
86475W        W58146  16.704  30.201  14.468
86476W        W58147   2.890  15.514  13.977
86477W        W58148  42.770   0.257  14.354
86478W        W58149  18.158   5.320  13.385
86479W        W58150  32.903  15.583  13.315
86480W        W58151  24.595   2.962   4.696
86481W        W58152   9.758  37.586  13.814
86482W        W58153  12.764  23.873  11.342
86483W        W58154  28.018  39.774  13.726
86484W        W58155  34.606  21.221   3.689
86485W        W58156  29.912   4.622  14.517
86486W        W58157  18.681   0.699   4.562
86487W        W58158  15.313   2.388   0.045
86488W        W58159  25.177   4.165  11.625
86489W        W58160  10.253  24.323   1.762
86490W        W58161  13.821   1.645   3.600
86491W        W58162  37.580   4.862  13.983
86492W        W58163   1.705  26.003   3.157
86493W        W58164  15.551  24.890  13.550
86494W        W58165  16.596  15.914   4.134
86495W        W58166   3.503  10.666  13.019
86496W        W58167  22.929  36.061  10.780
86497W        W58168  25.881  30.452   3.223
86498W        W58169   9.113  34.420   1.932
86499W        W58170  37.052  15.591   1.305
86500W        W58171  10.608   7.787  14.943
86501W        W58172   7.510  29.935  13.462
86502W        W58173  11.793  20.614   0.556
86503W        W58174  43.718   0.809  14.372
86504W        W58175  12.896   4.699   0.196
86505W        W58176  22.943  37.989  13.886
86506W        W58177  17.166   2.839   1.201
86507W        W58178  22.077  19.529  12.730
86508W        W58179  33.523  11.918   0.839
86509W        W58180   6.244  16.583   0.309
86510W        W58181  41.775  41.760  13.921
86511W        W58182  29.312   2.358   1.834
86512W        W58183  24.286   6.325   4.521
86513W        W58184   2.698  29.360   2.717
86514W        W58185   6.183  13.242   1.743
86515W        W58186  43.030  34.626  12.007
86516W        W58187  21.142  20.550  10.735
86517W        W58188  17.698  17.720   2.952
86518W        W58189  20.743   2.163  13.020
86519W        W58190  27.083   6.336  10.199
86520W        W58191   3.464  22.150  12.921
86521W        W58192  29.415  36.135   4.138
86522W        W58193  18.137  35.506   3.204
86523W        W58194   3.326  25.086   3.815
86524W        W58195  44.834  17.790  12.536
86525W        W58196   1.652  22.775   9.706
86526W        W58197  31.262  27.488   2.938
86527W        W58198  39.410  14.831  12.862
86528W        W58199  28.639  33.501  13.994
86529W        W58200  42.446   2.482  11.261
86530W        W58201  25.757  41.555   3.399
86531W        W58202  12.618  41.417   4.946
86532W        W58203  17.028   0.418   1.772
86533W        W58204  11.545  18.639   4.558
86534W        W58205  27.557   7.732  10.666
86535W        W58206  22.919  12.153  10.745
86536W        W58207  38.781  18.287  12.414
86537W        W58208  41.218  33.334  12.400
86538W        W58209  39.586  30.484   0.686
86539W        W58210   2.117  44.854   1.345
86540W        W58211   9.147  42.785   1.374
86541W        W58212  19.485  27.945   1.082
86542W        W58213  33.319  18.153   4.939
86543W        W58214  43.821  39.770   0.706
86544W        W58215  10.434  24.803   3.546
86545W        W58216  38.336  19.706  11.239
86546W        W58217  26.706  17.407   1.809
86547W        W58218  21.110  39.334   1.622
86548W        W58219  24.042   8.696  11.522
86549W        W58220  41.555  41.791  10.163
86550W        W58221  13.518   6.891   5.064
86551W        W58222   9.828  35.004  14.467
86552W        W58223   9.132  37.430   5.017
86553W        W58224   0.468  43.993   0.023
86554W        W58225  12.622  36.410   1.946
86555W        W58226  15.993   9.644  14.134
86556W        W58227  27.576   3.201  10.659
86557W        W58228  12.305  28.659  14.291
86558W        W58229  36.417  38.605  11.162
86559W        W58230  27.529   5.978  10.278
86560W        W58231   8.277  43.064   4.097
86561W        W58232  32.207  21.215   3.805
86562W        W58233  30.214  19.228  13.969
86563W        W58234  37.495  38.134   2.660
86564W        W58235  44.342  10.075   0.478
86565W        W58236  32.440  22.578   4.577
86566W        W58237  44.576  22.548   4.326
86567W        W58238  20.079   3.486   1.625
86568W        W58239  24.321  17.361  11.083
86569W        W58240  36.380  33.122   0.526
86570W        W58241  24.774  24.958   0.512
86571W        W58242  21.930  23.481  13.537
86572W        W58243   7.225  28.482   4.007
86573W        W58244   2.711   1.239  12.457
86574W        W58245  22.076  38.005   2.288
86575W        W58246   2.147  39.011  12.348
86576W        W58247  14.056  42.089   1.876
86577W        W58248  44.583  41.303   4.974
86578W        W58249  17.054   0.325  13.880
86579W        W58250   9.573  43.951   0.470
86580W        W58251   6.534   8.428   1.726
86581W        W58252  38.465  34.819  13.322
86582W        W58253  22.153  12.841   3.439
86583W        W58254   9.669  38.313   2.298
86584W        W58255  36.597  35.029  12.444
86585W        W58256  31.393  32.490  13.564
86586W        W58257  36.462  38.719   4.617
86587W        W58258  10.356  35.484  10.721
86588W        W58259  34.444  38.887  14.366
86589W        W58260   2.652  40.317  14.966
86590W        W58261  42.406  43.294   3.491
86591W        W58262  36.381   2.730   4.203
86592W        W58263  32.669  26.083   2.362
86593W        W58264  40.327  33.878   1.266
86594W        W58265   7.192  17.113   1.551
86595W        W58266  14.524  32.593  11.187
86596W        W58267  19.353   8.828   2.772
86597W        W58268  17.217  42.919  11.415
86598W        W58269  23.336   0.276  14.039
86599W        W58270  11.708  18.036   1.489
86600W        W58271  38.928   7.329   0.562
86601W        W58272  15.727   0.004  12.024
86602W        W58273  17.922  35.841   1.453
86603W        W58274   5.782  35.979   4.367
86604W        W58275  40.252  11.207   1.227
86605W        W58276  40.901  12.890  13.072
86606W        W58277  24.109  42.992   2.477
86607W        W58278   6.510  35.998  14.838
86608W        W58279  40.972  28.536   0.914
86609W        W58280  44.828  42.379   0.893
86610W        W58281  24.067  26.372  13.518
86611W        W58282  25.416   7.428  11.185
86612W        W58283  14.789   6.809  11.156
86613W        W58284  44.915  29.196   2.844
86614W        W58285  27.580  41.823  13.039
86615W        W58286  12.880  25.478   4.948
86616W        W58287  44.838  12.543   4.190
86617W        W58288  14.613  31.672   1.164
86618W        W58289  31.136  23.641   0.995
86619W        W58290   5.623  26.507   2.361
86620W        W58291  23.186  14.639  11.645
86621W        W58292   6.426  13.747   0.994
86622W        W58293  33.606  14.489  12.219
86623W        W58294   3.942  14.149  11.618
86624W        W58295   4.825  26.561   0.266
86625W        W58296   1.962  29.408   3.623
86626W        W58297  11.402   2.769  13.951
86627W        W58298  39.533   4.870   2.267
86628W        W58299  44.413  38.012  13.732
86629W        W58300   7.127  18.140   4.135
86630W        W58301  21.280  23.071   0.984
86631W        W58302  42.497   5.725   3.191
86632W        W58303   6.213   5.905   3.678
86633W        W58304   8.360   8.790   1.226
86634W        W58305  17.210  15.898   3.333
86635W        W58306   4.411  29.596   1.454
86636W        W58307   0.409  29.047   2.932
86637W        W58308  32.479   0.269  12.784
86638W        W58309  40.935  27.724   4.666
86639W        W58310  30.916   4.944  12.092
86640W        W58311  24.579  42.458   4.510
86641W        W58312  12.830  12.662   3.171
86642W        W58313  10.588  38.993   1.907
86643W        W58314   7.869  14.144  10.709
86644W        W58315  25.735  39.873   3.663
86645W        W58316  27.314  15.014   0.121
86646W        W58317  11.702  33.346  11.122
86647W        W58318  23.028  20.212   3.159
86648W        W58319  37.101  37.541   1.218
86649W        W58320  41.467   1.277  10.637
86650W        W58321   2.471   8.156  14.371
86651W        W58322  33.744   9.575   0.367
86652W        W58323  34.064  17.857  14.341
86653W        W58324  39.740  38.384  10.638
86654W        W58325  40.941  39.301   2.723
86655W        W58326  31.273  24.754   2.975
86656W        W58327  31.130   2.463  10.954
86657W        W58328  29.647  43.984   3.815
86658W        W58329  19.257  19.040   3.410
86659W        W58330  26.149  42.349  13.025
86660W        W58331  41.066  36.510   2.263
86661W        W58332  10.393   6.173   2.516
86662W        W58333  18.195  31.543   0.909
86663W        W58334   4.277  19.892   3.558
86664W        W58335  20.504  30.586  13.603
86665W        W58336  19.145  25.384   9.796
86666W        W58337  18.359  28.633  13.989
86667W        W58338  22.821  33.040   2.922
86668W        W58339  26.938  43.223   4.269
86669W        W58340   2.811  31.614  13.525
86670W        W58341  42.384   9.288   1.271
86671W        W58342  15.098  26.615  12.559
86672W        W58343   3.831  13.148  14.989
86673W        W58344  31.197   0.439   1.968
86674W        W58345  35.582  34.754  12.817
86675W        W58346  22.995  38.502   9.679
86676W        W58347   0.268  15.788  10.977
86677W        W58348  12.823  23.906  12.454
86678W        W58349  21.726  32.430   2.317
86679W        W58350  34.038  31.398  14.529
86680W        W58351  14.088   0.322   3.661
86681W        W58352  44.165  30.114  11.386
86682W        W58353  13.858  40.296  13.521
86683W        W58354  35.434  33.756   4.025
86684W        W58355  27.036   7.692  14.538
86685W        W58356  16.069  36.210   1.224
86686W        W58357  37.949  17.370   0.480
86687W        W58358   4.309  21.601   0.261
86688W        W58359   6.304  15.627   0.938
86689W        W58360  20.652  37.803   3.740
86690W        W58361  11.258  42.007   3.616
86691W        W58362  27.990  42.005  10.976
86692W        W58363  13.245  38.474   1.870
86693W        W58364  40.958  11.803  13.116
86694W        W58365   8.601   6.445   2.482
86695W        W58366  27.488  39.436   1.631
86696W        W58367  38.256  15.256  14.476
86697W        W58368   4.419  12.840  13.526
86698W        W58369  43.497  12.523   1.358
86699W        W58370   6.887  28.941  10.429
86700W        W58371  36.202  38.484   3.395
86701W        W58372  28.148   5.925   2.941
86702W        W58373   6.906  38.246   0.329
86703W        W58374  33.317  34.493  13.638
86704W        W58375  34.925  25.692   3.527
86705W        W58376  12.012  14.072  14.031
86706W        W58377  23.820   0.402   0.721
86707W        W58378   8.422  44.250   1.858
86708W        W58379  36.155  26.630   4.854
86709W        W58380  39.824  34.173   2.388
86710W        W58381  15.697  11.128   0.020
86711W        W58382  13.802  42.973   2.446
86712W        W58383  18.326  26.271  14.888
86713W        W58384  16.793  32.646  13.257
86714W        W58385  19.765   4.478  11.541
86715W        W58386  26.423  17.772   0.235
86716W        W58387   1.754  11.338  13.527
86717W        W58388  25.222  29.330  12.531
86718W        W58389   4.201  10.162  13.797
86719W        W58390  26.937   3.258   1.168
86720W        W58391  33.599  24.678   2.462
86721W        W58392  17.786  38.464   1.455
86722W        W58393   2.035   7.850   2.719
86723W        W58394  20.219  35.104  13.035
86724W        W58395  40.279  41.013  12.444
86725W        W58396   9.394  43.308  13.077
86726W        W58397  12.597  44.847   3.791
86727W        W58398  27.712  30.723   4.300
86728W        W58399   9.131  38.366  12.643
86729W        W58400  30.944  38.875   2.134
86730W        W58401  43.871  41.144   4.593
86731W        W58402  24.009   6.230  10.683
86732W        W58403  20.060  11.643   0.422
86733W        W58404   8.446   9.125  12.372
86734W        W58405  43.727  13.764  11.075
86735W        W58406  36.950  16.103   3.631
86736W        W58407   1.268  16.149   4.741
86737W        W58408  28.630   8.944  12.962
86738W        W58409  32.983  32.897   2.083
86739W        W58410  26.483  18.077  12.879
86740W        W58411  42.450  20.293   1.603
86741W        W58412  40.238  34.493  13.405
86742W        W58413  11.217  33.150  13.716
86743W        W58414   6.816  29.106  14.537
86744W        W58415  37.808  16.140   4.215
86745W        W58416   5.382   8.835   3.657
86746W        W58417  13.675  11.352   3.709
86747W        W58418  19.658  19.351  11.542
86748W        W58419   9.858  32.103  10.428
86749W        W58420   9.109  41.886   2.398
86750W        W58421   0.306  20.270   2.834
86751W        W58422  24.954  34.174  13.422
86752W        W58423  23.262  29.678  11.626
86753W        W58424  37.889  40.814   1.837
86754W        W58425  13.141  40.517  14.010
86755W        W58426   1.889   5.080   2.699
86756W        W58427  37.309   9.775  14.336
86757W        W58428  34.179  41.493   3.178
86758W        W58429  30.431  21.619  12.294
86759W        W58430  32.644  44.809  13.430
86760W        W58431  22.789   4.413   4.850
86761W        W58432  23.491  36.828  11.167
86762W        W58433  35.936  24.960   0.319
86763W        W58434  28.612  17.607  12.139
86764W        W58435  28.201  27.688   2.878
86765W        W58436  43.916  14.307  14.515
86766W        W58437  11.117   6.447   4.195
86767W        W58438  37.580  35.932   2.226
86768W        W58439  31.972  16.830  11.067
86769W        W58440  34.598  12.713   3.663
86770W        W58441   1.934  41.456   3.668
86771W        W58442  12.596  17.903   4.455
86772W        W58443   3.799  13.631   0.750
86773W        W58444  29.594  43.051   3.087
86774W        W58445  24.958  36.416   2.453
86775W        W58446  12.728   9.690   1.246
86776W        W58447  36.317  30.792   2.727
86777W        W58448  16.665  43.790  11.997
86778W        W58449  44.317  32.415  14.008
86779W        W58450  19.594   9.375   0.211
86780W        W58451  24.537  30.442   0.178
86781W        W58452  13.746  37.594   4.160
86782W        W58453   3.370  20.196  12.433
86783W        W58454  35.566  40.123   0.877
86784W        W58455  23.999  30.634   0.305
86785W        W58456  26.324  41.002   1.504
86786W        W58457  14.756   2.661  10.614
86787W        W58458  36.112  12.726   4.751
86788W        W58459  14.067  28.393   3.712
86789W        W58460  28.870  23.035   2.266
86790W        W58461  11.904  11.326   0.282
86791W        W58462  21.302  38.815   4.099
86792W        W58463   9.276  15.999   0.220
86793W        W58464  39.265  31.531   3.092
86794W        W58465  38.869  14.995  12.119
86795W        W58466  25.885  38.948   3.289
86796W        W58467   2.904   3.647  13.000
86797W        W58468  13.777  43.957  10.637
86798W        W58469  22.621  17.721   0.718
86799W        W58470   8.750   5.205   3.362
86800W        W58471  22.427  44.293  11.075
86801W        W58472  29.457  17.223   2.381
86802W        W58473  33.267  42.289  13.013
86803W        W58474  40.056  24.467  10.506
86804W        W58475  11.438  29.954   2.303
86805W        W58476  44.235  22.212   2.683
86806W        W58477  41.466   8.313   1.857
86807W        W58478  24.290  44.705  11.150
86808W        W58479  27.553  29.423   3.873
86809W        W58480  36.600   4.225   3.161
86810W        W58481  23.986  10.703  13.899
86811W        W58482  16.780  17.324  13.437
86812W        W58483  13.406  25.706   1.019
86813W        W58484  35.409  17.061  11.524
86814W        W58485   6.220  16.142   1.300
86815W        W58486   4.720  42.377  13.514
86816W        W58487  37.758  28.645  13.028
86817W        W58488  11.923   4.074   2.695
86818W        W58489  38.315  39.499  13.090
86819W        W58490  36.974  25.181   2.472
86820W        W58491  21.723  16.536  14.902
86821W        W58492   8.443  17.106   4.054
86822W        W58493  13.831  28.609   0.161
86823W        W58494  20.040  16.831  14.458
86824W        W58495  42.608  33.406   5.156
86825W        W58496   7.104  23.654  14.715
86826W        W58497   3.053   1.577   4.100
86827W        W58498   3.674  30.872  11.504
86828W        W58499   7.877  15.707   4.125
86829W        W58500  39.757   9.155   3.721
86830W        W58501  36.495  16.575  14.509
86831W        W58502  36.645  25.151  11.592
86832W        W58503  35.332  29.344  11.175
86833W        W58504  29.160   4.428   4.081
86834W        W58505   7.447   9.612   3.979
86835W        W58506  21.038  40.856  10.171
86836W        W58507  24.486  41.567   3.544
86837W        W58508   5.616  21.134   2.853
86838W        W58509   5.292  44.640  10.513
86839W        W58510  41.773  35.368  14.558
86840W        W58511  31.993  42.413   3.322
86841W        W58512  29.471  23.824  13.880
86842W        W58513   6.073   6.760  10.409
86843W        W58514  21.187  35.125   3.297
86844W        W58515  23.200  10.609   3.673
86845W        W58516  38.554  43.116  12.452
86846W        W58517  32.469   1.852  12.552
86847W        W58518   2.287   7.343  13.582
86848W        W58519  14.571  16.149  14.376
86849W        W58520  25.344   4.956   2.184
86850W        W58521  29.952  10.254  13.117
86851W        W58522  23.839   4.712   4.644
86852W        W58523  32.313   3.859   0.605
86853W        W58524  22.918  11.629   0.030
86854W        W58525   2.917  40.308   0.789
86855W        W58526  19.432  23.733   3.349
86856W        W58527  24.370  34.721   5.072
86857W        W58528  30.122  37.434  10.793
86858W        W58529  38.463  40.513   0.529
86859W        W58530  23.924  12.327  10.696
86860W        W58531  22.166  37.210  10.115
86861W        W58532   6.891  31.234   2.086
86862W        W58533  27.635   7.068  11.025
86863W        W58534  24.714  39.894   3.197
86864W        W58535  34.565  15.605   2.344
86865W        W58536  43.931  27.773   0.694
86866W        W58537  19.201   5.800   2.804
86867W        W58538  24.149  37.397  12.374
86868W        W58539   1.818  32.773  10.723
86869W        W58540   9.391  36.921  12.780
86870W        W58541  18.692  34.349   0.916
86871W        W58542   6.749  32.589   0.005
86872W        W58543  26.491  28.913  13.278
86873W        W58544  32.412  33.514   3.334
86874W        W58545   2.690  36.144   4.594
86875W        W58546  43.083  36.334   4.946
86876W        W58547   0.835  37.513   3.167
86877W        W58548  41.116  34.631   1.759
86878W        W58549   5.981  41.980  11.496
86879W        W58550  25.535  16.484  14.931
86880W        W58551  34.377  43.216  10.298
86881W        W58552   3.160  36.525   3.753
86882W        W58553   7.703   2.720   2.805
86883W        W58554  18.423  39.540  14.933
86884W        W58555  19.457  28.024  14.710
86885W        W58556  28.010  31.806   1.267
86886W        W58557   4.879   3.780   1.512
86887W        W58558  19.791  33.880   2.718
86888W        W58559  32.670  42.499  13.867
86889W        W58560  12.185  10.697  14.345
86890W        W58561  38.537  25.264   0.883
86891W        W58562   1.395   5.622   0.993
86892W        W58563  27.489  32.700   4.369
86893W        W58564  10.278  20.484   1.394
86894W        W58565  31.024  43.992   3.718
86895W        W58566  30.471  18.997  11.404
86896W        W58567   8.369   8.710  12.661
86897W        W58568  39.752  37.456  13.541
86898W        W58569   6.181  11.326   4.199
86899W        W58570  18.312  23.673  12.342
86900W        W58571  23.244  25.541   4.238
86901W        W58572  35.131  10.396   1.381
86902W        W58573   2.805  40.301   3.728
86903W        W58574  14.744  43.395   2.121
86904W        W58575   7.656  40.054   2.260
86905W        W58576  34.869  26.885   1.309
86906W        W58577  35.795  23.863  12.482
86907W        W58578  32.997   7.942   0.835
86908W        W58579  29.948  34.099   3.235
86909W        W58580  42.030  44.013  13.502
86910W        W58581   4.804  29.198  13.015
86911W        W58582  41.015  26.944  12.060
86912W        W58583  17.202  32.356   2.209
86913W        W58584  30.382  28.111   1.443
86914W        W58585   8.822   0.601   3.120
86915W        W58586   6.214  30.551   3.761
86916W        W58587   2.424  17.016   2.170
86917W        W58588  30.336  41.050   3.942
86918W        W58589  24.994  19.060   0.743
86919W        W58590  14.091  12.649  13.826
86920W        W58591  43.937  34.481  14.004
86921W        W58592  23.029  29.850   0.875
86922W        W58593   1.421  26.245   2.803
86923W        W58594   9.339  28.623  13.135
86924W        W58595  18.987  21.686   3.683
86925W        W58596  37.939  29.151   3.214
86926W        W58597  38.861  28.697   4.912
86927W        W58598   2.522  21.990   1.386
86928W        W58599  19.058  40.290  14.421
86929W        W58600   8.307  26.395  11.993
86930W        W58601   1.677  41.368   4.647
86931W        W58602   9.191  13.331   4.203
86932W        W58603  18.700  33.022   1.372
86933W        W58604  28.872  26.281   3.982
86934W        W58605  31.875   2.330  12.650
86935W        W58606  30.450  17.646   3.895
86936W        W58607  14.205  36.038   3.440
86937W        W58608   9.894  19.746  13.902
86938W        W58609  13.559  23.055  10.679
86939W        W58610  43.747   1.265   1.899
86940W        W58611   0.769  12.587  14.800
86941W        W58612  18.728  17.092   2.295
86942W        W58613  43.530  31.734   4.096
86943W        W58614  15.112  39.450   0.534
86944W        W58615  10.441  36.554   3.097
86945W        W58616  17.293  24.896  14.408
86946W        W58617  23.589  12.767  11.945
86947W        W58618   1.701   3.902   0.336
86948W        W58619  16.182  16.620  14.068
86949W        W58620  19.297   1.962  14.855
86950W        W58621  17.973  10.724   2.131
86951W        W58622   6.751  19.084  13.906
86952W        W58623  17.743  12.731   1.918
86953W        W58624  37.722  39.958  12.530
86954W        W58625  27.596  40.988   3.054
86955W        W58626  26.956  12.802  14.354
86956W        W58627  28.076  27.667  11.008
86957W        W58628  16.016  19.196  13.023
86958W        W58629  18.777  41.319   3.352
86959W        W58630  19.984  29.401   2.912
86960W        W58631  35.009  37.520   3.084
86961W        W58632  35.721  39.151  10.394
86962W        W58633  22.176  10.160  12.109
86963W        W58634  38.896  12.591  13.898
86964W        W58635  13.522  43.547   4.460
86965W        W58636  12.787   4.705  11.089
86966W        W58637  16.709  36.286  14.381
86967W        W58638  42.659  43.855  11.216
86968W        W58639  18.649   6.747   4.145
86969W        W58640   7.535  21.766   1.395
86970W        W58641  19.500   2.316  11.178
86971W        W58642  23.377  10.436   2.864
86972W        W58643  16.103  19.085  14.818
86973W        W58644  19.408  36.073  14.726
86974W        W58645  24.696   0.159  13.967
86975W        W58646  12.799  18.952  11.653
86976W        W58647  21.617  38.817  10.436
86977W        W58648  24.141  42.813  10.688
86978W        W58649  13.784  28.333   4.524
86979W        W58650  31.716  12.336  13.462
86980W        W58651   7.601  17.240   1.279
86981W        W58652  13.524   7.303  12.483
86982W        W58653  19.760  12.346  14.954
86983W        W58654   5.176   6.768   3.554
86984W        W58655  32.942  20.984  13.481
86985W        W58656  27.056  10.799   1.636
86986W        W58657   4.922  20.787  11.020
86987W        W58658  43.470   9.869   3.150
86988W        W58659  16.314   7.772  12.420
86989W        W58660  31.430  31.332  13.493
86990W        W58661  31.663  23.722   1.014
86991W        W58662  19.967   9.382   4.910
86992W        W58663  16.180   1.722   0.753
86993W        W58664  37.108  40.743  14.124
86994W        W58665  44.914  15.122   4.654
86995W        W58666  11.730  44.736  14.046
86996W        W58667   4.521  34.945  13.999
86997W        W58668   8.871  25.185   4.296
86998W        W58669  14.223  44.740   4.687
86999W        W58670  11.226  44.657   2.645
87000W        W58671   5.329  22.162   1.153
87001W        W58672  41.904   1.986   4.102
87002W        W58673   6.147  39.573   4.314
87003W        W58674  18.726  24.650  13.230
87004W        W58675  18.246   5.624  10.448
87005W        W58676  22.169   4.196  11.737
87006W        W58677  41.450  42.776   0.299
87007W        W58678  18.071  39.580  14.400
87008W        W58679  10.870  26.715  11.021
87009W        W58680  37.579   9.052  10.657
87010W        W58681  34.392  18.265   0.271
87011W        W58682  37.052  27.489   1.792
87012W        W58683  40.000   0.003   2.343
87013W        W58684  21.215  28.602   0.352
87014W        W58685  42.860  15.722  11.544
87015W        W58686   0.802  35.146   1.362
87016W        W58687  20.023  19.760  12.971
87017W        W58688   1.428  39.375   0.357
87018W        W58689  44.304  28.219  12.037
87019W        W58690  22.589  21.874  13.047
87020W        W58691  19.084  10.756   1.412
87021W        W58692  29.033  26.139   0.723
87022W        W58693  11.249  18.678  11.073
87023W        W58694  43.041  35.603   4.568
87024W        W58695   3.422  39.636  14.384
87025W        W58696   7.025  38.483  10.838
87026W        W58697  18.288  12.718  12.776
87027W        W58698  37.860  26.232   1.312
87028W        W58699  25.602  43.065  10.794
87029W        W58700  15.359  40.565   4.556
87030W        W58701  37.626  33.720  10.712
87031W        W58702  14.603  40.580  12.877
87032W        W58703  25.501  22.591  14.429
87033W        W58704  20.013  25.181  12.524
87034W        W58705  11.194  40.444   0.874
87035W        W58706   0.809   6.723  13.942
87036W        W58707  26.999  14.209   4.141
87037W        W58708  17.415   7.883  13.842
87038W        W58709  27.726  28.863   1.859
87039W        W58710  44.942  44.938  12.872
87040W        W58711   0.790  18.376  13.834
87041W        W58712  11.697   5.841   3.423
87042W        W58713   1.738  43.511  12.576
87043W        W58714  11.489  32.099  10.222
87044W        W58715  34.470  17.114   3.319
87045W        W58716   7.480  11.405   0.281
87046W        W58717  11.237   7.400  11.409
87047W        W58718  43.772  30.134   0.579
87048W        W58719  17.107  40.673  12.592
87049W        W58720  39.606  26.568   4.931
87050W        W58721  17.393  17.279  10.674
87051W        W58722  26.090  17.330   3.680
87052W        W58723  44.995   6.278   2.745
87053W        W58724   3.321  42.028  10.621
87054W        W58725   1.483  22.278   9.711
87055W        W58726  43.257  40.878   4.062
87056W        W58727  20.012  27.896  13.425
87057W        W58728  37.928  16.266  11.931
87058W        W58729  14.861  39.952   0.529
87059W        W58730  31.734  18.442  12.795
87060W        W58731   5.519  11.818  12.256
87061W        W58732  29.673  37.210  11.172
87062W        W58733  22.008  17.629   4.214
87063W        W58734  30.856  10.454  10.288
87064W        W58735  21.747  31.535   2.429
87065W        W58736  43.943   6.422  13.013
87066W        W58737   6.178   0.784   0.477
87067W        W58738   9.282  21.004  13.413
87068W        W58739  33.975  26.396   2.631
87069W        W58740  35.329   8.524  13.839
87070W        W58741  10.863  38.346  12.923
87071W        W58742  29.724   8.130   3.186
87072W        W58743   5.251   6.305   2.277
87073W        W58744   3.300  27.141   0.899
87074W        W58745  43.534  35.588   2.363
87075W        W58746  27.294  29.082  14.286
87076W        W58747  15.291  11.265  10.158
87077W        W58748  33.464  26.731   1.871
87078W        W58749  19.839  40.847   1.162
87079W        W58750  14.336  30.339   4.177
87080W        W58751  22.192  28.123  14.961
87081W        W58752   7.657  35.055  10.847
87082W        W58753  30.179   5.300   3.375
87083W        W58754  34.033  23.137  10.623
87084W        W58755  44.325  17.863  13.888
87085W        W58756  42.582  22.586  10.651
87086W        W58757  24.132  13.686   0.187
87087W        W58758  13.208  15.609  10.498
87088W        W58759  44.275  25.270   4.107
87089W        W58760  19.680  39.542   2.350
87090W        W58761  11.134  15.856   2.349
87091W        W58762  35.887  32.488  14.937
87092W        W58763   7.353  17.518   0.013
87093W        W58764  19.875  38.009   3.266
87094W        W58765   9.603  30.186  11.647
87095W        W58766  41.243  17.239  12.037
87096W        W58767   8.105  25.056   1.142
87097W        W58768   4.432  10.995   0.573
87098W        W58769   1.415  27.911  13.426
87099W        W58770  29.999  31.658   1.336
87100W        W58771  20.702   9.789  13.009
87101W        W58772   6.465  40.527   1.200
87102W        W58773   3.937  22.604  13.569
87103W        W58774   5.793  40.850  11.960
87104W        W58775  19.031  37.307  13.830
87105W        W58776  36.897  13.315  13.341
87106W        W58777  21.324  25.903  10.171
87107W        W58778   6.238  17.303   2.239
87108W        W58779  21.591  19.526  14.890
87109W        W58780  22.423  32.539   3.146
87110W        W58781   7.316   0.436   2.391
87111W        W58782  19.726  34.375   2.879
87112W        W58783  43.540  29.034  14.988
87113W        W58784  40.470  38.535  11.105
87114W        W58785   9.509  27.169  13.760
87115W        W58786  36.033  35.860  12.558
87116W        W58787   9.661  22.842  14.139
87117W        W58788  17.673   8.196  11.012
87118W        W58789  10.796   5.338  11.130
87119W        W58790   1.483   2.357  12.323
87120W        W58791  18.600  19.487   2.145
87121W        W58792  28.948  14.125  13.810
87122W        W58793  18.199   3.320  11.714
87123W        W58794  20.312  31.112  12.493
87124W        W58795  16.237  31.713   4.621
87125W        W58796  30.915   6.641   1.763
87126W        W58797  25.413  21.026   1.289
87127W        W58798  27.973  20.474   0.899
87128W        W58799   3.329  13.666   1.950
87129W        W58800  16.564  24.484   2.890
87130W        W58801  23.595  38.894  14.782
87131W        W58802  23.717  14.685  13.079
87132W        W58803   0.760   9.724  11.015
87133W        W58804  21.510  23.717   5.067
87134W        W58805  41.421   4.331  11.377
87135W        W58806  10.265  27.673   5.063
87136W        W58807  31.391  22.101   3.757
87137W        W58808  15.423   9.700  11.914
87138W        W58809  38.995  11.309  14.905
87139W        W58810   6.495  40.330  13.137
87140W        W58811  15.650  21.923  13.992
87141W        W58812  30.130  36.367  11.547
87142W        W58813   2.423  17.532   4.559
87143W        W58814  25.130  32.036  14.314
87144W        W58815  34.594  14.823   1.762
87145W        W58816  43.887  40.748   1.078
87146W        W58817   0.320  30.971  14.512
87147W        W58818   5.235   0.569   0.941
87148W        W58819   8.313   4.114  14.456
87149W        W58820  15.664  33.063   2.152
87150W        W58821  14.834  44.070  12.106
87151W        W58822  26.643  38.344  14.958
87152W        W58823  23.111  18.578  11.855
87153W        W58824   6.154  17.241  10.628
87154W        W58825  37.537  41.003  14.876
87155W        W58826  37.968   3.038  13.807
87156W        W58827  34.454  32.393  12.008
87157W        W58828  24.234  21.771  13.497
87158W        W58829  30.985  44.607   2.524
87159W        W58830  18.685  29.405   3.202
87160W        W58831   0.271  11.631   2.193
87161W        W58832  36.929  39.554   2.898
87162W        W58833  13.665  40.508  14.905
87163W        W58834  18.116  13.657  10.603
87164W        W58835  25.164  35.127   1.079
87165W        W58836   2.324   7.098   3.857
87166W        W58837  30.959  34.385   2.733
87167W        W58838   1.762   2.464   0.767
87168W        W58839   4.020   2.920  12.413
87169W        W58840  28.706  26.971   2.636
87170W        W58841  19.278   6.371   5.021
87171W        W58842  18.268  32.021  13.077
87172W        W58843  22.475   5.391  11.139
87173W        W58844  38.431   5.211  11.702
87174W        W58845  34.433  38.937   2.126
87175W        W58846  20.463  26.637  14.422
87176W        W58847   6.851  43.963   0.156
87177W        W58848  15.122  29.943   4.567
87178W        W58849  18.664   8.290   4.669
87179W        W58850  25.033  27.003   0.323
87180W        W58851  30.040  13.737   3.700
87181W        W58852  37.046   9.189   0.839
87182W        W58853  27.211  44.500  14.059
87183W        W58854   7.351  16.426   0.818
87184W        W58855  12.610  23.817   0.537
87185W        W58856  33.062  22.998   0.317
87186W        W58857  13.810  27.930   3.700
87187W        W58858  12.163  12.627   0.862
87188W        W58859  39.369  36.578   1.361
87189W        W58860  22.480  43.993  11.499
87190W        W58861   7.144  17.670   3.290
87191W        W58862   6.889  27.076  11.638
87192W        W58863  42.566   8.931   4.516
87193W        W58864  12.160   9.332  14.982
87194W        W58865   5.406  15.174   4.137
87195W        W58866  22.788  11.325   1.320
87196W        W58867  18.575  35.581  14.360
87197W        W58868  34.070  22.476   0.656
87198W        W58869  43.973   7.868   1.078
87199W        W58870  37.104   2.201   0.381
87200W        W58871  40.940  18.429  11.153
87201W        W58872  34.119  28.244  11.682
87202W        W58873  44.865  27.125  13.458
87203W        W58874  31.149  15.567   2.941
87204W        W58875  17.633   7.233   2.309
87205W        W58876  41.107   3.460   4.556
87206W        W58877   6.350  23.007   1.402
87207W        W58878   9.024  14.194  12.856
87208W        W58879  42.793   9.234  11.125
87209W        W58880  36.272  26.035   0.838
87210W        W58881   0.346  41.596  14.881
87211W        W58882   8.286  23.445   4.151
87212W        W58883  32.056  15.466   4.205
87213W        W58884  24.369   4.519  10.704
87214W        W58885   2.440  39.952   3.374
87215W        W58886  12.346  35.472   1.691
87216W        W58887  29.677  32.481   1.396
87217W        W58888  26.711  14.763  12.277
87218W        W58889   0.526  18.056  12.107
87219W        W58890  26.770  37.318  14.868
87220W        W58891  30.043  44.556  13.896
87221W        W58892  34.391  28.665   4.745
87222W        W58893  18.066  20.962  12.461
87223W        W58894  26.227  17.349  10.999
87224W        W58895  31.570  34.086   3.329
87225W        W58896  14.153  23.046  12.894
87226W        W58897  32.915  11.822  13.717
87227W        W58898   6.592  24.560  13.887
87228W        W58899   5.557   0.429   0.541
87229W        W58900  15.303  10.362  10.679
87230W        W58901  25.045  42.324  10.649
87231W        W58902  43.503   7.099   3.679
87232W        W58903  19.599  17.955   0.487
87233W        W58904  29.891  24.182  13.486
87234W        W58905  18.859   3.774  14.954
87235W        W58906   1.772   2.453  13.558
87236W        W58907   5.787  33.920   3.925
87237W        W58908   4.192  20.590   0.364
87238W        W58909  22.478  43.267   1.383
87239W        W58910  28.419  11.191  13.011
87240W        W58911  42.805  30.098   0.221
87241W        W58912   0.672   7.761  13.976
87242W        W58913  39.825  37.448  11.898
87243W        W58914  34.338  30.705   1.439
87244W        W58915   4.757  23.487   2.814
87245W        W58916   1.892   0.173   2.209
87246W        W58917  29.886  15.807  13.860
87247W        W58918  32.447  31.022   4.637
87248W        W58919  38.416  10.896  14.825
87249W        W58920  39.723  28.598  12.581
87250W        W58921  14.370  23.652   0.642
87251W        W58922   6.726  33.030  14.719
87252W        W58923  44.722  26.762   5.201
87253W        W58924   7.804  21.988  11.371
87254W        W58925  28.058  21.740   0.030
87255W        W58926   6.573  18.814  11.688
87256W        W58927  40.399  33.068   3.575
87257W        W58928   4.155  32.396  10.653
87258W        W58929  33.432   6.813   1.640
87259W        W58930  15.720  20.532   3.282
87260W        W58931  21.560   8.739   1.845
87261W        W58932  31.424  12.368  13.901
87262W        W58933  15.689  44.748  13.833
87263W        W58934  22.687  19.067   4.114
87264W        W58935   6.199  37.091  13.512
87265W        W58936  11.871  29.156   4.100
87266W        W58937   9.688  27.884   0.148
87267W        W58938   8.330  31.476  14.507
87268W        W58939  43.486  35.521   3.650
87269W        W58940  22.642  30.950   4.511
87270W        W58941  11.641  32.327   0.356
87271W        W58942   7.205  25.921  10.692
87272W        W58943   2.713  27.384  13.008
87273W        W58944   9.349  15.068  11.665
87274W        W58945  11.148  18.783   0.679
87275W        W58946  27.108  35.645  12.416
87276W        W58947  44.055  12.086   4.633
87277W        W58948  32.603  44.095   2.819
87278W        W58949  40.949  20.956  13.812
87279W        W58950  13.521  18.330   4.298
87280W        W58951  35.755  20.898  11.983
87281W        W58952  12.895   1.646   4.127
87282W        W58953  26.122  29.574  14.246
87283W        W58954   8.692  16.663   4.092
87284W        W58955   3.340   9.538   0.446
87285W        W58956  40.375  17.401  11.223
87286W        W58957   0.924  36.968   4.139
87287W        W58958  27.236  27.404  11.533
87288W        W58959  30.626   7.602   3.394
87289W        W58960  30.967  27.418  11.169
87290W        W58961  29.143  26.078   1.267
87291W        W58962  18.363  24.219   2.382
87292W        W58963  26.656  11.172  11.158
87293W        W58964  11.228  29.600  11.962
87294W        W58965   9.018  24.320   4.324
87295W        W58966  16.538  32.865  14.943
87296W        W58967  24.556   5.690   4.353
87297W        W58968  28.592  27.481   2.620
87298W        W58969  19.648  25.224  13.037
87299W        W58970  32.210  42.090  12.882
87300W        W58971  38.336  31.961  14.458
87301W        W58972  20.117  21.797  11.564
87302W        W58973  39.521  27.573   1.462
87303W        W58974  43.366  11.447  12.413
87304W        W58975  26.274  28.522  12.312
87305W        W58976   4.175  43.690  12.414
87306W        W58977  25.678  21.515   1.297
87307W        W58978   6.258  19.512   1.544
87308W        W58979   6.341  22.805  14.691
87309W        W58980  41.353  18.119  13.942
87310W        W58981  31.141  39.853   0.425
87311W        W58982  36.280  13.481   0.813
87312W        W58983   6.358  38.318   4.568
87313W        W58984  30.544  29.868  11.018
87314W        W58985   2.307   5.197  10.602
87315W        W58986  19.097  44.073   3.299
87316W        W58987  16.747  36.820   2.158
87317W        W58988   4.856  28.941  12.540
87318W        W58989  17.281  24.924  12.219
87319W        W58990  26.388  25.079  11.642
87320W        W58991  32.423  23.955  10.748
87321W        W58992  16.154  42.551   5.066
87322W        W58993   1.156  43.767  11.600
87323W        W58994   1.458  29.971  12.463
87324W        W58995  13.642  10.732   2.650
87325W        W58996  13.604  39.594   4.372
87326W        W58997  34.636  38.834   4.194
87327W        W58998  35.675  37.513   0.287
87328W        W58999  12.799  30.205  12.203
87329W        W59000  41.898  34.860   3.665
87330W        W59001  28.609  22.217   1.529
87331W        W59002  10.878   9.331   0.741
87332W        W59003  29.762   1.956  12.061
87333W        W59004   0.270  25.644   4.091
87334W        W59005   8.626  34.036  11.214
87335W        W59006  30.623  37.327   2.784
87336W        W59007  18.484  43.536  12.485
87337W        W59008  43.068  40.432   1.317
87338W        W59009  10.411  15.649   0.806
87339W        W59010  44.448  12.196  12.144
87340W        W59011  24.658   1.528  12.145
87341W        W59012  12.579  25.836  12.013
87342W        W59013  25.483  21.781   2.817
87343W        W59014   5.916  12.752   1.723
87344W        W59015  22.474  26.769  12.456
87345W        W59016  14.314  35.084   2.625
87346W        W59017  41.483   8.275  13.059
87347W        W59018  36.859  35.590   4.778
87348W        W59019   2.818  18.618   3.287
87349W        W59020  42.072  28.712  13.505
87350W        W59021   3.318  34.817  10.936
87351W        W59022  19.289   0.344  13.359
87352W        W59023  36.553  20.319   0.313
87353W        W59024  30.102  10.764  13.060
87354W        W59025  31.857  13.776   3.869
87355W        W59026  11.852  12.584   1.283
87356W        W59027  34.483  29.478  13.406
87357W        W59028  40.670  28.404   0.232
87358W        W59029   2.986  36.813   1.300
87359W        W59030  11.169  36.564   0.473
87360W        W59031   2.305  10.286  12.505
87361W        W59032  17.156  21.236   4.944
87362W        W59033   2.120  35.479  13.115
87363W        W59034  35.933   8.406   0.463
87364W        W59035  44.326  32.421   4.610
87365W        W59036  22.657  17.819  11.511
87366W        W59037  33.347  41.236  10.871
87367W        W59038  22.222  28.643   4.576
87368W        W59039  36.428  19.545   2.159
87369W        W59040   6.378  18.256  12.758
87370W        W59041  29.476  39.936  14.107
87371W        W59042  17.201   9.545  11.959
87372W        W59043  25.752  33.532  14.277
87373W        W59044   8.444  24.524   2.421
87374W        W59045   4.564  35.103   4.541
87375W        W59046  11.624  20.586   2.834
87376W        W59047  14.598  16.193   2.737
87377W        W59048  39.640  12.601  14.291
87378W        W59049  24.984  31.703   1.187
87379W        W59050  29.875  21.097   2.175
87380W        W59051  24.015  14.302   0.975
87381W        W59052  38.499   8.300  14.261
87382W        W59053  29.604  36.630   4.247
87383W        W59054  35.909  33.364  14.807
87384W        W59055  43.455   4.106  12.588
87385W        W59056  28.592  18.948   4.396
87386W        W59057  34.987   9.918  13.947
87387W        W59058   1.959  16.729  14.212
87388W        W59059  27.964  36.489  12.863
87389W        W59060  41.564  20.721  14.963
87390W        W59061   9.566  37.550   3.357
87391W        W59062  17.206   1.739  12.476
87392W        W59063  17.512  39.933   1.820
87393W        W59064  26.055  41.947   0.769
87394W        W59065  24.103  26.627   4.888
87395W        W59066  16.057  15.349  14.772
87396W        W59067  28.007   8.957  10.242
87397W        W59068   6.304  26.944   4.594
87398W        W59069  34.987  26.459   0.062
87399W        W59070  21.250  37.571  14.921
87400W        W59071  27.692   3.730   4.673
87401W        W59072  44.019   5.562  11.633
87402W        W59073  20.696  30.515   4.555
87403W        W59074  14.404  39.614  12.601
87404W        W59075  15.317  13.921  13.933
87405W        W59076  12.184  31.966  13.077
87406W        W59077   9.075  33.531   1.182
87407W        W59078  44.521  31.980  14.584
87408W        W59079  28.482  34.970  12.449
87409W        W59080  20.662  14.542   0.377
87410W        W59081  30.907   3.494  13.745
87411W        W59082  26.667  23.626  14.486
87412W        W59083  21.020   4.868  10.680
87413W        W59084  21.303  21.504   2.074
87414W        W59085   0.612  15.360  14.305
87415W        W59086  35.023  10.153   3.832
87416W        W59087  39.487  23.072   4.740
87417W        W59088  23.174   6.817  13.010
87418W        W59089  29.969  43.480  13.970
87419W        W59090   7.455  33.411  14.549
87420W        W59091   0.049  36.340   0.783
87421W        W59092  39.071  44.040   0.816
87422W        W59093  41.053  28.586   4.359
87423W        W59094  35.976   9.728  14.825
87424W        W59095  23.961  39.606  12.960
87425W        W59096  27.554  16.265   4.900
87426W        W59097  38.272  37.063  14.427
87427W        W59098  30.987  36.569  13.869
87428W        W59099   4.416   3.831  10.929
87429W        W59100  41.847  16.311  14.502
87430W        W59101   9.133  27.188   4.567
87431W        W59102  27.249  29.540   4.672
87432W        W59103  22.645   3.454  11.589
87433W        W59104  18.173   9.218   1.838
87434W        W59105  35.505  32.415   4.187
87435W        W59106  35.377  29.897   0.773
87436W        W59107  43.885  21.017   4.732
87437W        W59108  26.110   4.977  11.643
87438W        W59109  41.771  11.405   0.704
87439W        W59110  24.347   4.812   4.657
87440W        W59111  15.200  15.119  14.773
87441W        W59112  16.218   6.284  10.209
87442W        W59113  34.017   4.919  13.016
87443W        W59114  30.208  31.524  12.193
87444W        W59115   6.378   4.375  12.517
87445W        W59116  29.695  13.388  13.036
87446W        W59117  13.206  15.092   2.608
87447W        W59118  24.282  34.407  10.303
87448W        W59119  24.488  15.694  12.350
87449W        W59120  14.879  29.538  13.994
87450W        W59121   7.769  32.447   2.335
87451W        W59122  20.452  16.991  11.121
87452W        W59123   9.839  35.158   4.143
87453W        W59124  37.484   4.886   4.224
87454W        W59125   2.000  34.561  11.927
87455W        W59126  25.128  30.303  10.987
87456W        W59127  13.159  11.095  14.261
87457W        W59128  19.530   1.699  14.394
87458W        W59129  10.831  41.381   1.805
87459W        W59130  38.965  28.592  12.091
87460W        W59131   4.399  10.794  11.554
87461W        W59132  27.862   0.924  10.626
87462W        W59133   2.931  43.768   4.759
87463W        W59134  16.216  19.046   0.942
87464W        W59135  30.446   0.986   3.280
87465W        W59136  19.307  11.129   5.146
87466W        W59137  11.714  16.791  12.461
87467W        W59138  41.732   2.480  14.448
87468W        W59139   4.515  42.372  11.158
87469W        W59140  19.758  28.237   3.282
87470W        W59141   0.187  29.070   0.448
87471W        W59142  38.686   6.126  12.498
87472W        W59143  12.665  11.268  11.024
87473W        W59144  39.459  44.008  12.117
87474W        W59145  27.613  12.792  12.449
87475W        W59146  31.444  13.720   2.001
87476W        W59147   2.263   0.538   0.327
87477W        W59148  35.504   3.189   1.713
87478W        W59149  27.550  29.941   2.919
87479W        W59150  28.617   8.983   3.271
87480W        W59151  38.680   9.203   4.548
87481W        W59152  18.413  12.186   4.352
87482W        W59153  39.866   0.475   1.348
87483W        W59154   5.479  15.208  13.374
87484W        W59155  22.742  18.993   3.600
87485W        W59156   2.002  34.487  12.444
87486W        W59157  30.125  43.407   0.425
87487W        W59158  13.022  37.544   0.270
87488W        W59159  15.145  39.591  13.565
87489W        W59160  13.729  36.951   2.169
87490W        W59161  35.935  16.254  10.693
87491W        W59162  38.612  25.417  14.917
87492W        W59163   9.722  16.870  14.551
87493W        W59164  23.559  28.774   1.490
87494W        W59165  19.271  39.495   0.034
87495W        W59166   5.720  39.284   1.577
87496W        W59167   2.569  39.467   2.330
87497W        W59168  36.580  29.400  12.996
87498W        W59169  41.804  19.249  14.274
87499W        W59170  33.863  21.696  12.172
87500W        W59171  12.182  23.910  12.855
87501W        W59172   3.344  41.589  14.029
87502W        W59173  19.690  29.931  14.568
87503W        W59174   2.345  21.744   3.347
87504W        W59175  24.092  34.817   3.212
87505W        W59176  27.959   1.450  10.755
87506W        W59177   8.201  34.054  12.972
87507W        W59178  37.008   7.247  10.862
87508W        W59179   5.315  34.527  13.003
87509W        W59180  42.237   8.821  12.048
87510W        W59181   7.153  44.078  13.888
87511W        W59182  15.371   1.163  14.940
87512W        W59183  39.437  39.644  12.561
87513W        W59184  30.534  13.595   4.998
87514W        W59185  25.099  22.603   3.121
87515W        W59186  39.462  38.776  13.693
87516W        W59187   2.247  44.828  13.781
87517W        W59188  38.373  37.378  13.367
87518W        W59189  29.647  43.093  10.395
87519W        W59190  20.594  20.128  10.369
87520W        W59191  29.558  10.533  12.425
87521W        W59192  14.578   8.791   1.452
87522W        W59193   3.037  25.702   4.619
87523W        W59194  34.150  33.452   4.581
87524W        W59195  43.693  40.111  11.108
87525W        W59196  44.856  16.046   4.589
87526W        W59197  33.570  43.742   1.804
87527W        W59198  42.655  19.206  14.824
87528W        W59199  14.258  36.394  14.842
87529W        W59200  35.006  25.300  13.278
87530W        W59201  39.335   1.507   2.067
87531W        W59202  36.045   3.944  11.320
87532W        W59203   6.874  35.335   2.246
87533W        W59204   6.381  40.770  11.211
87534W        W59205  21.737  27.945  13.805
87535W        W59206  28.723  25.695  12.357
87536W        W59207  41.787  13.621   5.010
87537W        W59208  15.368  22.264  11.186
87538W        W59209  31.002  31.249  12.363
87539W        W59210  20.393  35.055   2.776
87540W        W59211  20.464  22.433   0.873
87541W        W59212  13.925   8.868   2.259
87542W        W59213  27.077  32.877  14.060
87543W        W59214  36.101  14.624   4.555
87544W        W59215  29.636  44.510  11.620
87545W        W59216  34.334  34.983  12.135
87546W        W59217   9.395  28.609  11.441
87547W        W59218  24.056  35.574  13.038
87548W        W59219  28.054  31.985  13.113
87549W        W59220  34.487  32.809  11.732
87550W        W59221  28.081  42.619   4.940
87551W        W59222  41.588   7.430  11.546
87552W        W59223   8.646  15.231   4.392
87553W        W59224  39.891  18.474   0.342
87554W        W59225  12.535  44.182   0.495
87555W        W59226  37.392   3.292  14.847
87556W        W59227   6.190  44.517  11.375
87557W        W59228  34.740   0.481  11.646
87558W        W59229   4.808   7.086   1.206
87559W        W59230  41.024  15.849   3.766
87560W        W59231   7.156  15.314  14.983
87561W        W59232  36.527   0.308  14.419
87562W        W59233   5.306  42.598   0.509
87563W        W59234  13.400  12.318   1.675
87564W        W59235  37.312  43.186  11.861
87565W        W59236  28.217  12.382   1.878
87566W        W59237  35.758   9.376  11.209
87567W        W59238  35.508   8.341  13.316
87568W        W59239   6.651  29.345   0.448
87569W        W59240  10.447  35.222  13.025
87570W        W59241   6.649  44.205   1.505
87571W        W59242  31.532  17.121  10.329
87572W        W59243  35.229  23.291   3.135
87573W        W59244  20.414   4.727  12.031
87574W        W59245  13.038   2.185  12.991
87575W        W59246  16.636  24.954   0.907
87576W        W59247  18.933  40.825   0.825
87577W        W59248   3.318  22.683  10.382
87578W        W59249  38.652   4.692   4.670
87579W        W59250   2.759  40.954  10.727
87580W        W59251   9.961  25.717  13.788
87581W        W59252  12.683   1.908  11.220
87582W        W59253  37.150  33.922   0.881
87583W        W59254  36.061  31.489   3.194
87584W        W59255  35.641  33.425   4.394
87585W        W59256  16.535   6.210   3.944
87586W        W59257  19.505  28.659   4.511
87587W        W59258  38.979  30.724   1.244
87588W        W59259  36.818  28.934  14.728
87589W        W59260  21.719  28.030   1.747
87590W        W59261  42.835  17.303   3.213
87591W        W59262  21.642  32.574   4.678
87592W        W59263  14.657  29.846  12.562
87593W        W59264   4.777  27.266   2.814
87594W        W59265  29.238  41.017   1.359
87595W        W59266  34.280  33.971   4.600
87596W        W59267  10.651  13.734   4.592
87597W        W59268  27.669  32.595  14.821
87598W        W59269  42.004  11.412   3.739
87599W        W59270   7.814  29.859   3.526
87600W        W59271  32.654  43.403   3.084
87601W        W59272  18.612  32.137  11.635
87602W        W59273  42.410  33.843   1.833
87603W        W59274  43.320  21.763  10.332
87604W        W59275  30.981  44.756  12.658
87605W        W59276  36.033  42.379   1.307
87606W        W59277   5.826   1.912  11.305
87607W        W59278  27.514  35.108   3.266
87608W        W59279  13.252  27.682   4.227
87609W        W59280   2.875  43.700  13.008
87610W        W59281  11.622  19.038  12.899
87611W        W59282   7.705   1.480  12.972
87612W        W59283  16.682  26.957  13.084
87613W        W59284  19.025  12.348   1.312
87614W        W59285  12.339  41.312  14.513
87615W        W59286  20.319  15.854   1.751
87616W        W59287  22.740  38.159  12.081
87617W        W59288  10.747  38.825  13.218
87618W        W59289  14.742  11.709   3.206
87619W        W59290  35.485   4.808   0.803
87620W        W59291  31.010  11.125  12.080
87621W        W59292  40.359  13.798   4.790
87622W        W59293  41.836  24.567  12.783
87623W        W59294  42.463  44.183  10.635
87624W        W59295   9.928   7.267   0.008
87625W        W59296  44.402  21.023  11.446
87626W        W59297  16.489  10.855   3.281
87627W        W59298  26.586  19.174   1.851
87628W        W59299   1.960  23.808  11.818
87629W        W59300  15.699  39.622  11.543
87630W        W59301  30.979  33.537  14.116
87631W        W59302  41.414  24.513   2.950
87632W        W59303  21.302  26.634   4.574
87633W        W59304  25.581  26.564  14.403
87634W        W59305  33.337  27.945  11.124
87635W        W59306   9.746  11.886   0.250
87636W        W59307   5.291  21.514   3.758
87637W        W59308   5.339  35.463   4.923
87638W        W59309  25.615  20.149   2.017
87639W        W59310  41.829   4.924  13.807
87640W        W59311   2.967   1.346  12.946
87641W        W59312  10.597  19.620   1.343
87642W        W59313  23.501  20.416  12.981
87643W        W59314  43.402  31.427   3.699
87644W        W59315  30.168  22.271   4.736
87645W        W59316  40.073   6.893  13.116
87646W        W59317   5.407  39.679   0.465
87647W        W59318  21.393   7.538  14.822
87648W        W59319   4.732  25.751  13.946
87649W        W59320  41.375  41.281   4.721
87650W        W59321  33.615  37.713  14.760
87651W        W59322   3.887  29.523  11.703
87652W        W59323  22.384  35.286  14.118
87653W        W59324   9.211  34.967  11.990
87654W        W59325  31.521  28.650   3.890
87655W        W59326  17.274  27.428   4.074
87656W        W59327  31.276  42.491   4.909
87657W        W59328  28.469  31.532   1.804
87658W        W59329  18.521   3.219   0.969
87659W        W59330  18.396  17.229   0.938
87660W        W59331  40.874  17.297   3.202
87661W        W59332  29.531  40.732  14.369
87662W        W59333  41.367  12.087  12.967
87663W        W59334  16.607  41.117  11.327
87664W        W59335  43.170  15.169   0.447
87665W        W59336  40.822  34.615   0.872
87666W        W59337  21.756   7.156  12.547
87667W        W59338  40.716  23.965  14.045
87668W        W59339  27.660  33.733  10.685
87669W        W59340  26.684  19.912  10.659
87670W        W59341  21.042  42.516  11.139
87671W        W59342  38.576  38.894  13.503
87672W        W59343  31.642  20.755   5.177
87673W        W59344   7.836  41.430   2.410
87674W        W59345   3.626  22.946  12.368
87675W        W59346  32.278  44.425   4.959
87676W        W59347  43.196  35.803   1.945
87677W        W59348  40.133   8.357   3.183
87678W        W59349  40.338  32.821   1.244
87679W        W59350  10.851  33.116  11.449
87680W        W59351  23.290  29.874   2.819
87681W        W59352  15.177  30.010   1.319
87682W        W59353  26.959  20.417  13.372
87683W        W59354  43.350   1.438  12.473
87684W        W59355  44.777  11.769  12.178
87685W        W59356  23.501  43.275  11.969
87686W        W59357  23.819  31.375  14.620
87687W        W59358  21.194  35.118  13.400
87688W        W59359  35.334  12.653  11.984
87689W        W59360   0.369  30.640   1.368
87690W        W59361  21.150   7.330  10.859
87691W        W59362  26.271  29.722   3.731
87692W        W59363  27.449   0.989   1.350
87693W        W59364  31.472  34.905   3.406
87694W        W59365  41.492  12.701   3.848
87695W        W59366   1.804  17.242  10.721
87696W        W59367  32.024  23.653  10.611
87697W        W59368  22.898  14.694   3.493
87698W        W59369  16.551  26.275  11.414
87699W        W59370  26.427  41.474   0.176
87700W        W59371  40.496  20.213  14.774
87701W        W59372  19.453  36.785   2.779
87702W        W59373  40.966  26.917  14.203
87703W        W59374  12.402   9.240  12.054
87704W        W59375  41.809  38.874   3.590
87705W        W59376  33.312  33.407   4.071
87706W        W59377  27.678   7.135   3.354
87707W        W59378  43.776  22.136   4.339
87708W        W59379  28.575  37.156  14.757
87709W        W59380  22.235  24.079  14.519
87710W        W59381  23.218  16.340  13.675
87711W        W59382  13.036  24.606   4.831
87712W        W59383  37.777  31.569   0.724
87713W        W59384  14.153  39.560   1.153
87714W        W59385  41.132  41.559  12.858
87715W        W59386  42.517  14.711   1.241
87716W        W59387   0.703  41.285  13.335
87717W        W59388  22.663   7.725   3.278
87718W        W59389  10.161   7.800  13.036
87719W        W59390  13.099  25.957  14.926
87720W        W59391  10.925   4.685  12.525
87721W        W59392  17.168  37.156  11.001
87722W        W59393  44.864  39.927  12.943
87723W        W59394  34.177  38.476  11.887
87724W        W59395   9.438   7.941  12.384
87725W        W59396   4.423  41.161   0.884
87726W        W59397  44.504  37.968   0.121
87727W        W59398  15.408   7.562  11.504
87728W        W59399  23.212  29.267  12.470
87729W        W59400  26.034  15.247  14.693
87730W        W59401  10.477  11.487  11.563
87731W        W59402  25.603  11.531   1.336
87732W        W59403  38.325  26.627  11.044
87733W        W59404  36.700  41.358  12.911
87734W        W59405  14.864   9.449  10.720
87735W        W59406  25.483  28.184  13.407
87736W        W59407  32.074  35.870  13.614
87737W        W59408   8.871  19.385  11.094
87738W        W59409  31.717  38.347  12.459
87739W        W59410  42.492  36.167   3.187
87740W        W59411   1.420  29.454   3.830
87741W        W59412  39.361   4.361  13.831
87742W        W59413  36.984   0.583  14.435
87743W        W59414  19.515  24.036   2.749
87744W        W59415   6.780  42.240  14.306
87745W        W59416  20.627  39.885  12.065
87746W        W59417   3.397  35.666   0.479
87747W        W59418  40.312   9.326   1.450
87748W        W59419  42.487  19.598   2.469
87749W        W59420   9.682  40.309   0.935
87750W        W59421  10.017  42.053   2.212
87751W        W59422  10.335  17.108  14.059
87752W        W59423  43.031  30.073  12.212
87753W        W59424  24.507  32.934   1.291
87754W        W59425  30.976  20.732   2.812
87755W        W59426  15.665  25.724   3.415
87756W        W59427  25.092  44.640   4.710
87757W        W59428  22.682  39.518   4.616
87758W        W59429  29.656  11.902   0.781
87759W        W59430  20.004  17.829   4.119
87760W        W59431   3.646  39.885  10.648
87761W        W59432  23.683  43.861   3.346
87762W        W59433  20.221  27.931   0.459
87763W        W59434   4.915   0.307  10.126
87764W        W59435  16.194  26.010  10.726
87765W        W59436  39.255  13.682  11.681
87766W        W59437  12.242  22.286   2.332
87767W        W59438  29.195  44.295   4.938
87768W        W59439  38.243  12.239   3.407
87769W        W59440  11.597  39.236  11.979
87770W        W59441  36.813  36.310  11.932
87771W        W59442   8.772  41.497   2.471
87772W        W59443  39.896  32.796   4.699
87773W        W59444  36.281   4.294  14.979
87774W        W59445   3.857  43.970   0.892
87775W        W59446  25.197  23.671  10.785
87776W        W59447   3.936   1.327   1.009
87777W        W59448   1.883  39.513   1.227
87778W        W59449   0.347  17.212  11.191
87779W        W59450  27.562  34.423   0.343
87780W        W59451  28.531   4.467   2.850
87781W        W59452  26.611  35.107  14.526
87782W        W59453  34.593   8.678   0.886
87783W        W59454  11.566   3.867  10.670
87784W        W59455  20.895  36.191   4.050
87785W        W59456  15.185  44.609   2.485
87786W        W59457  17.769   0.911  13.518
87787W        W59458   5.802  36.919   3.385
87788W        W59459  14.821  32.672   4.221
87789W        W59460  35.250  20.295   3.882
87790W        W59461  33.496  31.804   2.894
87791W        W59462  42.455   4.585   1.174
87792W        W59463  35.084  19.658   3.144
87793W        W59464  11.310  28.530   3.040
87794W        W59465  22.908  34.121  12.468
87795W        W59466   1.862   7.818  13.431
87796W        W59467  25.626  10.152   3.699
87797W        W59468  43.793  43.722   0.454
87798W        W59469   3.877  38.252   4.397
87799W        W59470  17.464  20.076   0.812
87800W        W59471   3.395  15.092   3.624
87801W        W59472  43.089  24.079   9.713
87802W        W59473  33.062  19.865  14.490
87803W        W59474   3.870  20.400   5.503
87804W        W59475  37.026  36.635   2.402
87805W        W59476  11.544  15.176  13.001
87806W        W59477  25.527  27.047  13.877
87807W        W59478  24.262  24.993   0.462
87808W        W59479  16.169   9.764  10.682
87809W        W59480   0.375  36.097  12.951
87810W        W59481  14.915  13.762  12.256
87811W        W59482  13.885  14.617  13.983
87812W        W59483  30.930  24.611   3.342
87813W        W59484  30.082  37.567  13.991
87814W        W59485  13.273  33.011   0.277
87815W        W59486   8.318  37.331  13.818
87816W        W59487  35.123   1.534  13.047
87817W        W59488  16.631  37.220   0.846
87818W        W59489  15.249   1.740   3.360
87819W        W59490  36.782   2.073   2.863
87820W        W59491  21.768  43.422  14.035
87821W        W59492  37.993  20.546   0.392
87822W        W59493  32.825  27.622   4.541
87823W        W59494  18.083  31.498  12.658
87824W        W59495   9.905   5.410   2.874
87825W        W59496  39.288   1.922   4.113
87826W        W59497  25.950  30.979   3.264
87827W        W59498  15.670  43.916   3.776
87828W        W59499   2.598  23.633   4.524
87829W        W59500  11.930   2.434   4.716
87830W        W59501  37.491  24.515   1.460
87831W        W59502  41.766  41.449  10.469
87832W        W59503   1.740  33.358   3.233
87833W        W59504  28.719  20.748  11.426
87834W        W59505  32.204  29.060  13.500
87835W        W59506  33.143  13.315   5.272
87836W        W59507   4.910  39.545   0.511
87837W        W59508   2.107  38.540   1.379
87838W        W59509   4.602  36.818   3.925
87839W        W59510   9.782   0.999   2.657
87840W        W59511   3.698  15.684   4.692
87841W        W59512  41.033  28.175   2.236
87842W        W59513  39.515  21.096   4.596
87843W        W59514  10.814   2.895   2.714
87844W        W59515  23.079  10.348   4.592
87845W        W59516  22.379   0.817   3.154
87846W        W59517   5.646  37.889  14.262
87847W        W59518  20.518  35.431   3.833
87848W        W59519   2.078  36.631  11.642
87849W        W59520   1.999  42.028  12.817
87850W        W59521  27.089   0.829   2.588
87851W        W59522  30.994  16.065  13.488
87852W        W59523  11.145  39.608  14.870
87853W        W59524  36.995   3.855  10.903
87854W        W59525  44.994  11.704  11.697
87855W        W59526  16.865  36.772   0.903
87856W        W59527  35.963  35.567  13.005
87857W        W59528  37.850  22.015  10.654
87858W        W59529  36.464  30.665   4.453
87859W        W59530  20.350  27.523  13.541
87860W        W59531  18.271  39.807   0.386
87861W        W59532  23.400  41.038  10.139
87862W        W59533  18.003  34.465   1.487
87863W        W59534   5.991  32.008  14.713
87864W        W59535   6.690  26.262  12.867
87865W        W59536   9.882  42.056  11.640
87866W        W59537  22.328   1.811  13.353
87867W        W59538  25.555  18.066   2.662
87868W        W59539  21.729  38.145   4.506
87869W        W59540   7.682  23.017  11.720
87870W        W59541  24.082  30.120  13.616
87871W        W59542  33.976  36.876   4.703
87872W        W59543  40.234  30.403   4.113
87873W        W59544  42.887  35.566   0.365
87874W        W59545  42.038  11.368  14.796
87875W        W59546   4.411  30.566   3.300
87876W        W59547  37.991  12.619   1.584
87877W        W59548  25.073  22.130   3.382
87878W        W59549   2.865  26.438   0.912
87879W        W59550  30.048   8.688   3.205
87880W        W59551   3.354  28.942   3.588
87881W        W59552  29.960   7.958  13.050
87882W        W59553  38.775   2.297   2.393
87883W        W59554   4.217   4.807  11.795
87884W        W59555  35.581   2.233  11.612
87885W        W59556   9.558  32.967   1.758
87886W        W59557  11.759  28.773  11.229
87887W        W59558   7.776  37.417  12.188
87888W        W59559  24.277  31.082  11.539
87889W        W59560  37.078  21.137  11.293
87890W        W59561  44.854  11.321   2.265
87891W        W59562  23.052  37.136   3.800
87892W        W59563  31.176  30.442   2.327
87893W        W59564  39.438  25.638   0.524
87894W        W59565  10.023   2.666   1.004
87895W        W59566   1.031  42.458   4.260
87896W        W59567  10.187  38.009   3.675
87897W        W59568   7.823  28.880  12.891
87898W        W59569   4.678  10.715   3.623
87899W        W59570  34.434  22.772  11.118
87900W        W59571  43.065   9.055   4.598
87901W        W59572  25.458  44.306   1.377
87902W        W59573  32.093  27.847  11.186
87903W        W59574  28.717   8.670   2.238
87904W        W59575  13.324  30.994  12.029
87905W        W59576  15.278  39.883   0.221
87906W        W59577  15.060  31.210  13.094
87907W        W59578   1.841   7.467  11.215
87908W        W59579  41.424  25.703  10.691
87909W        W59580  41.658  38.366   3.739
87910W        W59581  42.849  24.689   5.029
87911W        W59582  25.701  34.064  13.958
87912W        W59583  18.346  21.001   4.300
87913W        W59584  11.194  36.558  11.733
87914W        W59585  41.108   4.719  14.941
87915W        W59586   6.940  23.647   4.086
87916W        W59587  43.408  13.904   0.688
87917W        W59588  32.749  30.653  13.155
87918W        W59589  12.944   8.370   4.640
87919W        W59590   7.983   5.896   2.734
87920W        W59591  26.675  21.645  13.808
87921W        W59592   2.763  23.930   4.157
87922W        W59593  36.860  17.041   4.359
87923W        W59594   6.700  27.471  14.005
87924W        W59595  40.878  22.215   2.290
87925W        W59596   8.443  25.551   0.304
87926W        W59597  10.842   9.767  13.874
87927W        W59598  12.587   5.255   1.932
87928W        W59599  30.427  11.680   4.710
87929W        W59600  36.716  16.537   3.824
87930W        W59601  29.641  34.949   5.039
87931W        W59602  10.323  12.726  14.450
87932W        W59603  15.359  24.236  14.304
87933W        W59604  37.046   0.989  13.534
87934W        W59605  17.730  21.173  13.654
87935W        W59606  32.097  16.056   0.955
87936W        W59607   7.233  17.823  11.630
87937W        W59608  18.800  42.283  12.839
87938W        W59609  19.249   0.990   3.644
87939W        W59610  26.674  21.949   3.530
87940W        W59611  10.108  35.003  12.006
87941W        W59612  42.505  14.276  13.529
87942W        W59613  25.646  32.888  10.733
87943W        W59614  20.763  23.274  10.614
87944W        W59615  40.993  34.497  11.537
87945W        W59616  16.101  11.698  10.749
87946W        W59617  34.831   0.484  13.809
87947W        W59618  23.697   4.781  10.845
87948W        W59619  35.598  41.919  13.940
87949W        W59620  43.300  35.647  12.871
87950W        W59621   3.852  25.124  14.772
87951W        W59622  19.176  33.981  10.744
87952W        W59623   0.301   6.872  10.731
87953W        W59624  28.023  29.511   4.177
87954W        W59625  22.710  30.421   3.646
87955W        W59626  42.700   5.628   3.659
87956W        W59627  34.651  21.604   3.247
87957W        W59628  23.058  33.806  12.044
87958W        W59629  33.893  35.506   2.258
87959W        W59630  18.178  26.629   3.124
87960W        W59631  19.406  21.960   2.269
87961W        W59632  34.499  20.353  12.376
87962W        W59633  26.345  42.820   1.932
87963W        W59634  37.077  35.681  12.616
87964W        W59635  37.276  23.293   0.816
87965W        W59636  18.505  31.716  11.977
87966W        W59637  15.660  38.253   2.790
87967W        W59638   3.467  10.551  11.608
87968W        W59639  41.405  27.260  12.955
87969W        W59640  28.493  14.795  13.661
87970W        W59641  41.020  12.745   2.080
87971W        W59642  31.958   7.901  11.036
87972W        W59643  32.786   2.827  14.009
87973W        W59644  29.962   7.740   4.968
87974W        W59645  11.124   6.391  14.747
87975W        W59646   7.381  23.234  12.994
87976W        W59647  42.942  14.929  14.982
87977W        W59648  37.354  34.397   2.945
87978W        W59649  43.954  20.002  13.363
87979W        W59650   0.264  20.447  12.057
87980W        W59651  38.964  26.541   3.261
87981W        W59652  26.372  36.198  14.258
87982W        W59653   1.923  30.836   3.782
87983W        W59654  27.674   2.037  11.449
87984W        W59655  43.054  37.483  10.195
87985W        W59656   5.640  38.577  13.061
87986W        W59657  18.910  17.927  11.447
87987W        W59658   8.666   0.127  10.661
87988W        W59659  32.278  41.502   4.303
87989W        W59660  14.424   9.749  10.753
87990W        W59661   7.806  30.258  10.440
87991W        W59662  12.607  42.942  10.711
87992W        W59663   2.462  23.562   4.996
87993W        W59664   9.926  42.775   0.864
87994W        W59665  40.326  37.774  12.952
87995W        W59666  19.345  28.746  13.827
87996W        W59667  16.614  16.218  10.247
87997W        W59668   6.470  19.079   1.345
87998W        W59669  42.966  28.657   3.848
87999W        W59670  19.029   9.718   4.239
88000W        W59671   8.943  19.597   0.744
88001W        W59672  17.258  44.519  14.855
88002W        W59673  12.252  38.832   2.208
88003W        W59674   1.471  21.643  11.401
88004W        W59675  29.862  22.942  13.935
88005W        W59676  35.979  42.130  11.122
88006W        W59677  23.636  21.331  12.665
88007W        W59678   8.023  34.417  11.615
88008W        W59679   2.988  10.286   2.612
88009W        W59680  33.842  19.309   0.268
88010W        W59681  26.388   6.272   3.135
88011W        W59682  36.094  35.080   2.748
88012W        W59683  20.524  25.979   5.119
88013W        W59684  41.947  40.244   2.351
88014W        W59685   4.505  11.378  13.585
88015W        W59686  39.950  12.872  14.950
88016W        W59687  23.608  42.783   0.754
88017W        W59688  10.922  42.247  12.515
88018W        W59689   8.097  40.437   0.081
88019W        W59690  26.936  12.985   3.649
88020W        W59691  12.340  21.813  13.989
88021W        W59692   0.471  12.750   5.443
88022W        W59693  41.984  11.162   0.285
88023W        W59694  30.716  12.570   9.966
88024W        W59695   2.738  32.704   0.675
88025W        W59696  37.878  19.699   1.844
88026W        W59697  15.609  39.495   3.091
88027W        W59698  31.795  17.654   4.112
88028W        W59699  10.401  35.903   1.374
88029W        W59700  39.376   8.695  11.499
88030W        W59701  28.127   9.890   3.342
88031W        W59702  34.292  41.844   0.444
88032W        W59703  11.482  37.366   4.575
88033W        W59704  44.842  12.138   0.532
88034W        W59705  13.274  11.870  14.869
88035W        W59706   4.822  24.488  12.401
88036W        W59707  44.421   0.236   0.070
88037W        W59708  30.285   8.238   1.393
88038W        W59709  26.103  31.241   2.726
88039W        W59710  17.810  15.935   1.878
88040W        W59711  27.095  33.627   1.552
88041W        W59712   7.899  31.788  14.581
88042W        W59713  37.199  38.102  12.276
88043W        W59714  10.579  10.861  11.493
88044W        W59715  14.691   2.771  14.125
88045W        W59716  38.415  16.374   0.548
88046W        W59717  21.761  33.518  12.448
88047W        W59718  18.437   8.867  11.139
88048W        W59719  10.186  38.297   4.983
88049W        W59720  24.542  24.136  13.794
88050W        W59721  23.373  33.126  12.531
88051W        W59722  25.209  16.189   2.710
88052W        W59723  38.685  22.610   4.551
88053W        W59724  43.013  12.827   4.067
88054W        W59725   5.889  38.935  14.916
88055W        W59726  39.103  24.967  13.089
88056W        W59727   2.786  43.028   0.903
88057W        W59728  20.200  27.408   3.823
88058W        W59729  12.542  15.241  14.948
88059W        W59730  32.108   3.398  12.091
88060W        W59731   7.238  41.387  11.646
88061W        W59732   3.619  10.679   3.576
88062W        W59733  26.733  26.565   3.134
88063W        W59734  43.771   2.010   2.245
88064W        W59735  11.265  27.566   2.856
88065W        W59736  27.128  42.238   2.279
88066W        W59737  22.695  10.280  12.026
88067W        W59738  38.707  42.451   2.676
88068W        W59739   2.432   8.124  10.751
88069W        W59740  11.627  25.956   3.639
88070W        W59741  40.191  16.227  11.086
88071W        W59742  18.684  11.659   2.442
88072W        W59743  36.066  35.923   3.243
88073W        W59744  42.851  21.320  13.861
88074W        W59745  44.222  20.653   0.938
88075W        W59746  38.586  18.764  12.448
88076W        W59747   9.611  38.053   0.526
88077W        W59748  39.251  10.477   4.754
88078W        W59749  27.476  13.194   1.260
88079W        W59750   2.290  43.738  14.441
88080W        W59751  18.612  39.832   1.456
88081W        W59752  18.397  30.081   1.881
88082W        W59753  32.855   2.520  14.444
88083W        W59754  21.331  32.005   0.404
88084W        W59755  13.028  29.205  14.571
88085W        W59756  17.882   1.376   1.885
88086W        W59757  21.117  24.275   4.257
88087W        W59758  23.497  10.648   2.394
88088W        W59759   6.466  35.098   0.846
88089W        W59760  37.375  39.468   3.198
88090W        W59761  24.226   5.965  12.511
88091W        W59762  14.592  22.105   3.784
88092W        W59763  11.418   9.326   2.723
88093W        W59764  19.052  37.514   4.237
88094W        W59765  15.523  20.197   2.388
88095W        W59766  24.182  20.296  14.932
88096W        W59767  44.456  22.234  14.413
88097W        W59768  39.571  32.115   0.445
88098W        W59769   3.211  18.445  12.787
88099W        W59770   3.473  16.073   5.059
88100W        W59771  11.715   5.473  11.162
88101W        W59772   1.881  10.021   4.584
88102W        W59773  16.607  27.610  14.841
88103W        W59774  13.738  11.772  11.097
88104W        W59775  35.463   9.334  13.420
88105W        W59776  20.511  35.832  12.044
88106W        W59777   8.802  24.502   3.602
88107W        W59778  19.256  26.704  14.896
88108W        W59779  33.428  18.091  12.066
88109W        W59780  12.394  12.246  11.345
88110W        W59781  25.681   0.460   0.775
88111W        W59782  40.166  32.635   3.259
88112W        W59783  10.240  34.759  14.819
88113W        W59784  42.745  24.668  11.178
88114W        W59785   8.317  11.166   3.675
88115W        W59786   3.403   6.107   1.667
88116W        W59787  15.993   2.218  10.173
88117W        W59788   5.611  42.098  14.856
88118W        W59789  31.440   6.149  12.120
88119W        W59790  11.794  18.703  12.513
88120W        W59791  11.293   7.687  12.694
88121W        W59792  11.347  12.866   0.190
88122W        W59793  31.972  26.661   4.619
88123W        W59794  13.591  40.099   0.752
88124W        W59795  23.391  16.301  14.218
88125W        W59796   5.176  43.215  10.699
88126W        W59797  24.152  43.596   4.670
88127W        W59798  28.436  16.628  13.497
88128W        W59799  29.156  23.852  14.295
88129W        W59800  18.575   8.419   2.843
88130W        W59801  27.818  32.113   5.124
88131W        W59802  42.315   7.485  14.381
88132W        W59803  12.988  24.542  11.671
88133W        W59804  44.945   0.852   3.314
88134W        W59805  12.089  28.670   1.096
88135W        W59806  27.501  29.687   3.392
88136W        W59807  37.817   3.528  11.204
88137W        W59808  13.128   5.891  11.509
88138W        W59809   8.342   9.951  13.016
88139W        W59810  14.949  37.876   1.354
88140W        W59811   9.585  17.642   3.716
88141W        W59812  33.477  35.309  13.454
88142W        W59813   0.315  36.406  12.538
88143W        W59814  44.508  29.622   4.562
88144W        W59815  32.649  44.494   1.885
88145W        W59816   3.925   7.927   1.869
88146W        W59817  12.667  36.659   4.116
88147W        W59818  33.168  34.401  10.353
88148W        W59819  30.674   7.825   2.225
88149W        W59820  10.596  42.851   0.262
88150W        W59821  43.470  18.594  12.743
88151W        W59822   7.788   5.864  10.427
88152W        W59823  41.914  15.599   0.774
88153W        W59824   2.742  13.126   0.035
88154W        W59825  29.399   0.795   4.056
88155W        W59826  35.492  40.416  10.679
88156W        W59827  23.654   5.805   3.965
88157W        W59828  44.857  43.356   4.565
88158W        W59829  36.066  37.145   2.561
88159W        W59830  41.046  38.935  11.646
88160W        W59831  16.554   9.891  13.917
88161W        W59832   9.645  42.154  14.458
88162W        W59833  27.524  29.958   3.834
88163W        W59834  39.900  29.609  12.181
88164W        W59835  17.594  44.921  11.709
88165W        W59836  20.548  10.434  13.133
88166W        W59837  41.341  21.983   2.392
88167W        W59838  27.740  20.266  12.017
88168W        W59839  19.231  24.969   1.672
88169W        W59840  32.447   3.381  10.807
88170W        W59841  19.422  37.005   1.385
88171W        W59842  43.771   7.391   0.400
88172W        W59843  31.840  23.011   0.528
88173W        W59844   7.431   6.118  13.419
88174W        W59845  14.025  11.194  11.135
88175W        W59846  33.143  22.485   0.154
88176W        W59847  43.221  20.488  14.201
88177W        W59848  12.628  35.371   4.023
88178W        W59849  34.151  37.477   1.360
88179W        W59850  41.749  19.737  12.547
88180W        W59851  18.034  39.637  13.521
88181W        W59852  11.867  31.467  14.250
88182W        W59853  38.549  21.611  10.610
88183W        W59854  28.626  21.527  12.327
88184W        W59855  23.437  11.786   0.037
88185W        W59856  41.321  28.218   5.100
88186W        W59857  31.945   1.886   4.147
88187W        W59858  40.317  41.163   4.982
88188W        W59859  44.418  24.467  13.821
88189W        W59860  18.923  38.511   4.540
88190W        W59861   5.973  16.207   1.755
88191W        W59862  18.565  32.058   3.052
88192W        W59863  33.713  10.925  14.343
88193W        W59864  27.677   2.245   0.467
88194W        W59865  10.131  18.489   1.198
88195W        W59866   5.487  17.340   2.775
88196W        W59867   5.349   6.922  14.037
88197W        W59868  30.057   3.005   2.298
88198W        W59869  40.412  17.350  14.354
88199W        W59870   9.128  16.673   4.334
88200W        W59871   2.238  38.983   1.144
88201W        W59872  14.648  24.106  14.848
88202W        W59873   5.764  44.959   4.730
88203W        W59874  37.391   6.315   3.166
88204W        W59875  39.745  36.071   4.802
88205W        W59876  10.359  19.046   2.122
88206W        W59877  20.121  20.704   3.133
88207W        W59878  24.675  40.072   4.581
88208W        W59879   5.300  38.768   1.478
88209W        W59880   8.171   4.679  14.375
88210W        W59881  28.515  43.700  11.936
88211W        W59882  21.760   6.444  14.075
88212W        W59883  12.527  39.996   3.782
88213W        W59884  18.377  18.726  10.648
88214W        W59885   0.853  42.481   4.755
88215W        W59886   4.797  27.731   1.948
88216W        W59887  25.692  42.530   4.385
88217W        W59888  41.955   9.307  10.741
88218W        W59889  15.227  44.519  12.964
88219W        W59890  20.794  44.340   0.264
88220W        W59891  42.658  36.551   0.271
88221W        W59892  44.293   1.423   3.807
88222W        W59893  42.024   8.228  13.122
88223W        W59894  41.366  24.053   3.206
88224W        W59895  17.985  18.873   3.278
88225W        W59896  42.838  28.943  11.104
88226W        W59897   7.912   4.003   0.948
88227W        W59898  42.815  37.481   3.255
88228W        W59899  12.160   1.260   4.414
88229W        W59900  12.152  16.945   2.343
88230W        W59901  10.380  43.329   2.880
88231W        W59902  26.273  28.646   4.363
88232W        W59903  19.669  18.237   4.093
88233W        W59904  28.259  14.488  14.430
88234W        W59905  17.674  14.025   1.278
88235W        W59906  42.871  25.211   4.155
88236W        W59907   7.523  28.191  13.447
88237W        W59908  30.867  36.404   2.836
88238W        W59909  33.656   5.093   2.372
88239W        W59910  18.442  31.165  14.876
88240W        W59911  31.118  32.486  14.030
88241W        W59912  24.099   4.948  12.502
88242W        W59913  28.217  27.562   4.766
88243W        W59914  40.609   3.396   4.624
88244W        W59915  35.970   6.301   2.408
88245W        W59916  40.838  25.105   0.741
88246W        W59917  38.995  35.808  14.416
88247W        W59918  32.581   6.252   4.257
88248W        W59919  44.689  10.369  11.666
88249W        W59920  26.131  37.764   0.326
88250W        W59921   9.669  29.155   0.837
88251W        W59922  37.814  16.069   1.886
88252W        W59923   5.140  31.081  10.450
88253W        W59924  38.346  33.735   1.711
88254W        W59925  36.862  13.750  10.706
88255W        W59926  42.723  43.454   1.032
88256W        W59927   7.886  17.193   2.375
88257W        W59928  28.231  34.058  11.417
88258W        W59929  40.892  10.412   2.202
88259W        W59930  22.750  44.980   1.906
88260W        W59931  28.980  28.488  13.360
88261W        W59932  36.758  27.564  10.700
88262W        W59933  39.618   1.307   1.239
88263W        W59934  17.068   4.204   1.349
88264W        W59935  33.947  22.235  14.416
88265W        W59936   2.063  12.781   4.514
88266W        W59937  43.080  10.767  14.261
88267W        W59938   5.268   8.044   4.256
88268W        W59939   6.944  24.181   3.325
88269W        W59940  11.686  12.883  12.071
88270W        W59941   5.557  30.269  14.849
88271W        W59942   1.298  32.953  11.095
88272W        W59943  28.570  42.609   4.592
88273W        W59944  14.787  41.824  13.637
88274W        W59945  24.884  43.292  13.904
88275W        W59946  34.517  38.467   3.264
88276W        W59947   0.214   9.436  14.858
88277W        W59948   9.395  31.988  12.568
88278W        W59949   8.437  15.093  14.468
88279W        W59950  22.899   1.940  14.787
88280W        W59951  13.827  34.817   0.307
88281W        W59952  25.022   8.192  13.810
88282W        W59953  37.907  29.335  12.475
88283W        W59954  16.844  36.947   3.290
88284W        W59955  44.789  31.534  11.375
88285W        W59956  26.997  23.488  13.563
88286W        W59957  28.942  11.313   3.397
88287W        W59958  27.756   3.132   0.295
88288W        W59959   2.844   0.959  10.471
88289W        W59960  36.553  12.547  13.408
88290W        W59961  20.581  26.921   0.726
88291W        W59962   5.285  31.546   3.960
88292W        W59963  20.563  18.586  14.413
88293W        W59964  30.417  37.630   3.736
88294W        W59965  44.438  32.721  12.580
88295W        W59966  42.125   2.391  12.938
88296W        W59967  26.033  40.537  14.727
88297W        W59968  18.971  26.241  11.375
88298W        W59969  32.103   4.238  14.830
88299W        W59970  23.696  33.099   2.861
88300W        W59971   0.730  31.567  12.966
88301W        W59972   8.275  39.355  14.432
88302W        W59973   2.445  40.386   0.954
88303W        W59974  13.673  34.677  14.001
88304W        W59975  44.036  36.867   2.362
88305W        W59976  17.462   6.742   0.693
88306W        W59977   6.151  41.093   4.026
88307W        W59978  44.637  35.047   5.021
88308W        W59979   2.996   0.908  10.956
88309W        W59980  20.209  24.149   0.427
88310W        W59981  25.422  42.863  11.228
88311W        W59982  40.829   1.300  11.064
88312W        W59983  38.295  28.540   1.856
88313W        W59984  27.517  25.247  14.856
88314W        W59985  31.023   1.256  10.614
88315W        W59986  21.987   4.372  13.093
88316W        W59987   0.361  39.395   1.668
88317W        W59988  18.437  29.225  14.673
88318W        W59989  16.674   5.862   0.324
88319W        W59990  17.322   1.765  13.359
88320W        W59991  42.024  23.272   1.282
88321W        W59992  44.406  32.372   2.169
88322W        W59993  16.182  19.585   4.109
88323W        W59994  34.124   6.152  10.762
88324W        W59995   2.488  38.515  14.408
88325W        W59996  37.432  32.971  12.103
88326W        W59997  16.933  32.267   3.435
88327W        W59998  15.529  27.074  13.873
88328W        W59999   4.245   2.098  14.856
88329W        W60000  24.184  34.372  12.668
88330W        W60001  25.140  38.682   2.601
88331W        W60002  38.221  10.707   3.870
88332W        W60003  26.624   8.734   1.250
88333W        W60004  37.966  13.756   0.838
88334W        W60005   5.835   9.226  12.927
88335W        W60006  15.211  18.781   1.846
88336W        W60007  11.798   7.350   2.777
88337W        W60008   1.967  18.805   1.814
88338W        W60009  23.304  38.438   2.751
88339W        W60010  15.233   4.403  11.653
88340W        W60011  31.393  30.689  14.294
88341W        W60012  39.909  22.753   3.056
88342W        W60013  10.832  13.520   3.118
88343W        W60014   7.416  37.576  11.851
88344W        W60015   5.758  15.194  13.818
88345W        W60016  38.707  18.239  14.103
88346W        W60017  28.179  30.999  10.701
88347W        W60018  40.772   5.453   3.193
88348W        W60019   6.610  43.901   2.352
88349W        W60020  22.951  44.343  11.000
88350W        W60021  42.689   6.368  11.526
88351W        W60022  41.074  19.687   2.143
88352W        W60023  16.027  31.014  13.753
88353W        W60024   4.064  42.263  13.038
88354W        W60025  35.883  43.452  14.279
88355W        W60026   5.920  34.359  14.001
88356W        W60027  14.381  30.973  10.627
88357W        W60028   9.942  12.359   1.352
88358W        W60029  35.375  30.904  12.985
88359W        W60030   7.249   7.849   3.030
88360W        W60031  13.939  25.542  12.973
88361W        W60032  26.563  10.751  11.409
88362W        W60033  35.674  39.956  13.500
88363W        W60034  37.277  16.689  14.092
88364W        W60035   8.856  23.713  12.455
88365W        W60036  44.905  38.590  14.182
88366W        W60037  27.557  32.858   1.252
88367W        W60038  21.440   4.862  12.866
88368W        W60039  43.327  16.824  13.409
88369W        W60040   5.257  25.157  12.357
88370W        W60041  33.099  15.307  11.999
88371W        W60042  17.875   0.404  13.473
88372W        W60043  39.445   7.036   3.100
88373W        W60044   9.805  21.794   2.282
88374W        W60045  38.871   2.072   5.055
88375W        W60046  35.667  33.508  14.232
88376W        W60047  44.934  24.700   3.700
88377W        W60048  39.694  20.520  12.669
88378W        W60049   6.332  33.410  12.963
88379W        W60050  28.110   5.677   0.338
88380W        W60051   7.037  37.817  11.614
88381W        W60052  33.605  41.310   2.470
88382W        W60053  39.753  31.049   0.821
88383W        W60054  19.153  10.822   3.436
88384W        W60055  23.605  44.261  12.880
88385W        W60056   4.945  11.001  12.389
88386W        W60057  32.190  20.749  11.541
88387W        W60058  15.325  22.305  12.500
88388W        W60059  34.641  12.285  13.822
88389W        W60060  33.845  15.986  13.237
88390W        W60061  34.275  30.099  12.515
88391W        W60062  18.952  20.852  13.113
88392W        W60063  25.014  24.537   2.785
88393W        W60064   7.464   5.797   2.741
88394W        W60065   0.026  26.123  13.590
88395W        W60066  10.322  35.319   4.091
88396W        W60067  39.465   3.982   3.853
88397W        W60068  29.733   1.025  12.555
88398W        W60069  44.502  33.236  12.570
88399W        W60070  23.604   0.778  12.846
88400W        W60071   0.119  34.950  11.179
88401W        W60072  37.110  26.967  13.834
88402W        W60073  40.868  22.440  13.922
88403W        W60074   5.408  27.912   0.766
88404W        W60075  19.081  11.276  12.400
88405W        W60076   1.859  15.580   2.224
88406W        W60077  26.202  16.319  11.131
88407W        W60078   3.374  15.787   3.155
88408W        W60079  11.783  21.124  13.884
88409W        W60080  27.439  41.831  12.162
88410W        W60081  12.748   4.011  13.040
88411W        W60082  37.485  43.421  12.823
88412W        W60083  29.536  26.740  10.661
88413W        W60084  43.418  44.444  10.998
88414W        W60085  26.071  39.935   2.878
88415W        W60086  12.338  40.433   0.304
88416W        W60087   4.902   2.817   2.448
88417W        W60088   9.383  41.358   3.310
88418W        W60089  31.504   0.549   4.604
88419W        W60090  29.036  37.818  13.019
88420W        W60091   9.876  40.514   3.648
88421W        W60092   5.426  10.402   0.816
88422W        W60093   6.154   3.361   0.875
88423W        W60094  43.851  10.071  14.149
88424W        W60095   4.874   6.262   1.906
88425W        W60096  21.804  10.445   2.805
88426W        W60097  22.788  36.854   2.128
88427W        W60098  12.497  10.378  12.048
88428W        W60099   5.147  33.214   3.869
88429W        W60100  38.841  31.384   4.534
88430W        W60101  43.084  40.295   2.879
88431W        W60102  23.310  20.064  14.363
88432W        W60103  23.713  34.580   0.312
88433W        W60104  42.057  42.906   1.443
88434W        W60105  26.621  22.196  13.663
88435W        W60106  41.433  38.668   1.710
88436W        W60107   6.286  32.822   4.583
88437W        W60108   1.964  14.241  13.260
88438W        W60109  18.719  21.277   1.887
88439W        W60110  21.455  37.065   4.196
88440W        W60111  34.710  40.433  11.780
88441W        W60112   5.192  20.336   0.846
88442W        W60113  26.397   8.781  12.390
88443W        W60114  12.138  41.408   1.280
88444W        W60115   7.211   1.661  11.982
88445W        W60116  13.425  42.522  13.523
88446W        W60117  33.013  19.840  12.067
88447W        W60118  13.372  44.390   0.253
88448W        W60119  17.768  12.250   3.754
88449W        W60120  25.232  12.721   0.402
88450W        W60121  30.663  14.715  14.088
88451W        W60122  43.871  36.022   0.203
88452W        W60123  35.573  38.881  12.288
88453W        W60124  12.879  43.413   3.157
88454W        W60125  22.907  14.309  12.968
88455W        W60126  27.896   3.453  14.028
88456W        W60127  28.596  36.492   4.088
88457W        W60128  16.111  24.179  13.791
88458W        W60129  35.087  24.784  13.323
88459W        W60130  31.552  25.985  11.779
88460W        W60131   0.969  35.803  10.277
88461W        W60132  28.696  12.179  12.493
88462W        W60133  28.641  38.089  11.803
88463W        W60134  24.709  29.088  12.216
88464W        W60135  42.249  21.643  13.234
88465W        W60136  15.485  19.790   2.727
88466W        W60137  39.515   7.868   2.729
88467W        W60138   5.683  43.606  13.310
88468W        W60139  28.505  34.474  14.475
88469W        W60140  37.031  19.650   4.433
88470W        W60141  40.761  34.362   3.247
88471W        W60142  14.280  13.694   0.955
88472W        W60143  41.533  38.578   0.003
88473W        W60144   2.484   5.182   0.423
88474W        W60145  19.074   2.034  12.416
88475W        W60146  22.673  26.922  14.686
88476W        W60147  22.037  30.091  10.800
88477W        W60148   7.599   7.205  10.195
88478W        W60149  11.096  16.490   1.011
88479W        W60150  22.736  38.418  14.633
88480W        W60151  25.724  43.597  11.642
88481W        W60152   1.371  11.141   2.703
88482W        W60153  14.561  33.820  12.556
88483W        W60154   0.990  38.007   2.542
88484W        W60155  16.046  17.375  12.409
88485W        W60156  37.657  25.693   4.021
88486W        W60157  39.742   2.507   2.309
88487W        W60158  43.067   9.651  11.325
88488W        W60159  21.665   1.980  11.919
88489W        W60160  44.278  29.175  10.856
88490W        W60161   6.543  17.955  14.857
88491W        W60162  40.541   9.827   1.416
88492W        W60163  10.454  28.412   0.836
88493W        W60164  41.542  41.913  10.670
88494W        W60165  25.542   3.393   0.515
88495W        W60166   9.658  39.933  14.284
88496W        W60167   7.171  38.611   0.989
88497W        W60168  43.816   7.449  12.367
88498W        W60169  12.055  35.957  14.044
88499W        W60170   9.951  16.538  13.103
88500W        W60171  23.649  35.443   3.833
88501W        W60172  37.498  11.322   1.281
88502W        W60173  13.206  19.157   2.876
88503W        W60174  30.922  13.178   2.875
88504W        W60175  36.666  10.803   4.031
88505W        W60176  15.171   0.999  13.346
88506W        W60177  11.257  43.711  11.723
88507W        W60178   7.010  37.245  14.843
88508W        W60179  21.549  11.220  14.527
88509W        W60180   1.316  29.859  10.666
88510W        W60181  18.058  13.123   2.786
88511W        W60182  35.334  12.091   2.701
88512W        W60183  41.248  19.140   0.853
88513W        W60184  42.088  26.737   4.482
88514W        W60185  22.526  44.701   1.301
88515W        W60186   3.325  21.142  14.283
88516W        W60187   4.030   2.342   3.435
88517W        W60188  25.208  41.670   9.833
88518W        W60189  25.952  12.135   4.304
88519W        W60190  37.160  10.775   3.922
88520W        W60191  24.286  11.363   4.065
88521W        W60192  40.288  30.887  12.721
88522W        W60193  29.629  15.111  12.584
88523W        W60194  24.693  41.071   4.357
88524W        W60195  35.595  11.403   3.102
88525W        W60196  44.875  24.067  10.266
88526W        W60197  27.991  28.373   1.737
88527W        W60198  21.313   8.221  11.259
88528W        W60199  41.764  28.020   1.786
88529W        W60200  30.180  36.258   3.718
88530W        W60201  41.596  20.193  12.421
88531W        W60202  33.456  31.570  12.331
88532W        W60203  40.329  42.336   0.375
88533W        W60204  14.215  18.057  13.601
88534W        W60205  37.056  36.433   0.449
88535W        W60206   0.224  37.357  13.603
88536W        W60207  12.275  12.307   0.272
88537W        W60208  15.182  44.042   3.695
88538W        W60209  41.527  21.730   2.827
88539W        W60210  25.736  22.204   0.766
88540W        W60211  34.180  11.304  11.637
88541W        W60212  18.204  35.828  12.005
88542W        W60213   5.943  29.956   0.026
88543W        W60214  37.796  28.422   1.907
88544W        W60215  33.961  33.068   3.406
88545W        W60216  41.589  12.835  10.724
88546W        W60217  40.177  17.060  11.989
88547W        W60218  41.980  37.073  13.076
88548W        W60219  16.411   0.839  14.053
88549W        W60220   9.114  37.490  13.030
88550W        W60221  13.866  34.409  13.489
88551W        W60222  12.785   5.562   0.009
88552W        W60223  39.064  43.466  14.542
88553W        W60224  18.798  32.493  14.924
88554W        W60225  20.780  40.381  10.198
88555W        W60226  40.870  40.593  11.713
88556W        W60227  17.049   4.261   0.015
88557W        W60228  26.580  10.323   3.227
88558W        W60229   3.893   0.860  12.411
88559W        W60230  41.854  28.917  10.440
88560W        W60231  29.113   1.335  11.647
88561W        W60232  35.918  21.111  11.547
88562W        W60233   3.677   6.390   4.631
88563W        W60234  41.826  23.157  11.150
88564W        W60235  37.544  17.539   3.780
88565W        W60236  22.803  26.603  12.080
88566W        W60237  22.221   3.272   2.245
88567W        W60238   6.373  22.832  11.952
88568W        W60239  17.163  33.949  11.941
88569W        W60240  22.665  36.826  11.681
88570W        W60241  35.499  12.821  10.673
88571W        W60242   2.945  10.687   1.891
88572W        W60243   8.901  39.802  14.049
88573W        W60244  31.891  26.174  10.433
88574W        W60245   1.950  35.972  12.023
88575W        W60246  35.778  39.386   4.539
88576W        W60247  22.521   3.443  14.380
88577W        W60248  38.419  27.015   1.803
88578W        W60249  21.002  19.023   0.931
88579W        W60250  20.320  13.459  14.575
88580W        W60251  43.969   3.601   4.998
88581W        W60252   7.368   1.255   2.789
88582W        W60253   0.951  35.199  12.475
88583W        W60254  11.453  36.518   3.359
88584W        W60255  39.585  30.645   2.850
88585W        W60256  39.127   9.012   4.282
88586W        W60257  35.857  25.556   4.052
88587W        W60258  15.499   2.271  13.573
88588W        W60259  15.093  26.084  12.993
88589W        W60260  13.092  27.986   0.828
88590W        W60261  43.859  12.854   4.160
88591W        W60262  14.143   3.060  11.371
88592W        W60263  42.048  39.949  13.244
88593W        W60264   6.310  31.093  13.734
88594W        W60265  26.061   0.013  13.280
88595W        W60266  26.117   8.713  11.970
88596W        W60267  24.939   4.872   2.601
88597W        W60268  17.690   1.306   2.388
88598W        W60269  34.129  18.661  11.888
88599W        W60270  12.861  35.996   0.404
88600W        W60271  13.219  42.283  11.179
88601W        W60272  22.761  21.907   3.929
88602W        W60273  34.896   5.703  14.532
88603W        W60274   5.248  43.293  12.412
88604W        W60275  13.139  14.174   4.126
88605W        W60276  24.758  44.379   4.347
88606W        W60277  26.533  19.823  10.137
88607W        W60278  24.254   8.811  14.870
88608W        W60279  38.498  11.607   2.420
88609W        W60280  10.973  31.043  14.038
88610W        W60281  43.510   9.079  11.475
88611W        W60282  43.399  34.844  14.428
88612W        W60283  19.226  25.065   5.261
88613W        W60284  42.170  19.513   1.770
88614W        W60285  37.550  39.996  10.988
88615W        W60286   9.854  30.933  14.782
88616W        W60287  30.045   0.860  11.538
88617W        W60288  30.513   5.223  12.899
88618W        W60289  28.122  33.973  10.679
88619W        W60290   9.862  42.858   3.324
88620W        W60291  30.886   2.458   1.353
88621W        W60292  32.178   1.777   4.619
88622W        W60293  41.006  41.388   1.436
88623W        W60294   0.617  20.192  12.968
88624W        W60295  44.987   1.815   3.227
88625W        W60296   6.848  30.794   1.778
88626W        W60297   2.931  26.735  11.533
88627W        W60298  40.916  37.336   3.306
88628W        W60299  39.296  43.817  10.404
88629W        W60300  36.134  19.172  11.084
88630W        W60301   5.606  25.936  12.895
88631W        W60302  11.263   2.783  14.850
88632W        W60303  33.092  11.294  12.110
88633W        W60304  14.348  41.875   0.425
88634W        W60305  15.695  22.029   1.262
88635W        W60306  32.582  25.090   3.246
88636W        W60307  18.663   8.926  13.852
88637W        W60308  17.065   3.215   0.833
88638W        W60309  30.215  23.357  11.167
88639W        W60310  31.831  22.863  11.028
88640W        W60311  23.777  12.232   1.789
88641W        W60312  32.707  17.609   2.939
88642W        W60313  10.616  26.997   3.557
88643W        W60314  42.922  13.369  14.782
88644W        W60315  30.874  28.096   3.686
88645W        W60316  24.598  32.597  10.772
88646W        W60317  28.836  42.788   2.737
88647W        W60318  22.959  44.022   1.612
88648W        W60319  15.125   2.959   1.877
88649W        W60320  25.006  29.369   2.538
88650W        W60321  29.292   6.508   4.474
88651W        W60322  22.715  21.112   4.006
88652W        W60323  21.988  27.523   0.539
88653W        W60324   6.057  16.722  10.771
88654W        W60325  31.158  44.922   1.697
88655W        W60326  14.902  42.023  14.097
88656W        W60327  40.907   4.798  13.998
88657W        W60328  40.625  21.622   4.937
88658W        W60329   5.223  37.501  13.969
88659W        W60330  27.991  42.328  11.610
88660W        W60331  13.582  10.162  12.982
88661W        W60332   7.167  17.514  11.193
88662W        W60333  19.852  38.432  11.105
88663W        W60334  22.473  19.826   0.314
88664W        W60335   9.418  37.814  12.727
88665W        W60336  40.027  40.026   2.450
88666W        W60337  11.174  19.527   0.507
88667W        W60338  17.891  28.424  13.973
88668W        W60339  19.771  26.685   0.710
88669W        W60340  36.269  30.676   3.633
88670W        W60341   7.221  32.500  14.227
88671W        W60342  11.252  38.280   3.185
88672W        W60343  14.332   4.649  14.925
88673W        W60344  27.377  24.452  12.020
88674W        W60345  37.151  24.444  12.977
88675W        W60346  44.370   5.215  11.470
88676W        W60347  23.542  35.488  11.169
88677W        W60348  40.035  27.434   0.702
88678W        W60349  17.172   5.291  13.383
88679W        W60350  28.693  40.820  12.939
88680W        W60351   0.911  30.924  12.030
88681W        W60352  18.702  44.781   4.574
88682W        W60353   9.760   9.343   2.598
88683W        W60354  32.898   3.739   1.527
88684W        W60355  29.592   3.883   1.327
88685W        W60356   9.796   9.704  13.904
88686W        W60357  33.559  24.227   0.700
88687W        W60358   1.710  10.618   2.412
88688W        W60359  26.157  37.579   2.929
88689W        W60360  24.189   7.280   4.571
88690W        W60361  26.505  16.236   3.212
88691W        W60362   3.426  22.007  14.375
88692W        W60363  42.228   9.890   2.402
88693W        W60364   8.917  44.439   1.150
88694W        W60365   4.823  37.025   3.506
88695W        W60366  13.234  43.593   2.834
88696W        W60367  41.434   0.966   1.892
88697W        W60368  21.998  15.448  13.433
88698W        W60369   5.892  22.808  13.867
88699W        W60370  32.141  17.360  11.703
88700W        W60371  26.230  17.869  11.051
88701W        W60372  44.830  17.320   3.326
88702W        W60373  42.796  34.700  10.302
88703W        W60374  20.080  42.312  11.558
88704W        W60375   1.696   8.151  12.970
88705W        W60376  39.803  38.403   0.284
88706W        W60377   2.663  35.605   4.478
88707W        W60378  25.306  12.712  13.445
88708W        W60379  16.517  14.039   1.726
88709W        W60380   4.185  14.182   2.314
88710W        W60381  42.512   3.105   4.084
88711W        W60382  20.953  41.652  14.887
88712W        W60383  24.011  24.095   0.199
88713W        W60384  12.437   0.460   3.154
88714W        W60385  39.477   8.185  14.853
88715W        W60386  10.986  10.132  13.063
88716W        W60387  41.777  19.095   0.867
88717W        W60388  16.343   6.765   4.823
88718W        W60389  31.148  33.773  12.869
88719W        W60390  41.873  23.965   3.146
88720W        W60391  35.443  43.379   1.718
88721W        W60392  24.777  19.237   3.207
88722W        W60393  18.792  21.530  11.951
88723W        W60394  35.124  41.869  13.079
88724W        W60395  19.217  34.988   1.291
88725W        W60396  44.799  11.909   4.985
88726W        W60397   2.463  22.778  14.297
88727W        W60398   7.845  36.944   4.543
88728W        W60399  35.458  26.071  11.280
88729W        W60400  33.704  32.163  14.025
88730W        W60401  18.056  35.127  13.840
88731W        W60402  19.225  44.864  13.184
88732W        W60403   8.773  28.927  13.557
88733W        W60404  42.351  24.466   2.879
88734W        W60405  43.223  17.658  12.948
88735W        W60406  39.717  43.759  13.875
88736W        W60407  38.609  17.212  14.767
88737W        W60408  25.185  42.998  11.720
88738W        W60409  28.651  41.398  13.837
88739W        W60410  14.155   2.252   5.041
88740W        W60411  40.753  42.837   0.685
88741W        W60412  41.355   6.863  12.369
88742W        W60413  18.744   7.298   2.451
88743W        W60414  30.967  14.194   3.958
88744W        W60415   8.599  15.253   4.932
88745W        W60416  25.557  34.134   0.130
88746W        W60417  21.956   9.270  13.775
88747W        W60418  12.607  29.096   1.896
88748W        W60419   1.068   5.378   2.902
88749W        W60420  37.418   4.896   0.358
88750W        W60421  15.416  37.979   3.161
88751W        W60422  42.793   5.171  12.078
88752W        W60423   9.450  16.228   1.624
88753W        W60424   6.259  31.614   1.944
88754W        W60425   2.257   2.412   1.049
88755W        W60426  31.713  37.601   0.326
88756W        W60427  35.059   0.994   2.797
88757W        W60428   0.238  19.116  13.698
88758W        W60429  16.033   8.100  14.052
88759W        W60430   5.894  28.741   2.747
88760W        W60431  28.518  39.470   0.391
88761W        W60432  21.635   7.308  11.164
88762W        W60433  24.835  19.237   2.316
88763W        W60434   9.120  29.936   0.026
88764W        W60435  13.749  42.459   1.671
88765W        W60436  35.402  11.824  14.320
88766W        W60437  10.435  30.901   4.117
88767W        W60438  28.001  21.565  13.514
88768W        W60439   7.918  27.612   3.391
88769W        W60440  10.143  16.378  11.653
88770W        W60441  36.472  38.881  12.495
88771W        W60442  14.200  41.482   1.209
88772W        W60443  30.509  35.861   3.158
88773W        W60444  26.712  29.972   3.791
88774W        W60445  24.721   3.502   3.388
88775W        W60446   7.425   7.083   3.680
88776W        W60447  22.711  10.393   4.078
88777W        W60448  23.700  13.826   2.885
88778W        W60449  18.501  31.547  13.028
88779W        W60450  19.952   4.983   4.979
88780W        W60451  19.428  33.371  12.000
88781W        W60452  30.317  43.396  14.406
88782W        W60453   0.904  20.634  13.034
88783W        W60454   8.428  37.959   2.708
88784W        W60455  11.661   8.940   3.582
88785W        W60456  13.345   2.323   0.824
88786W        W60457  40.956  15.338  13.199
88787W        W60458  43.000  10.793  12.379
88788W        W60459  44.585  21.116  14.966
88789W        W60460  37.085   9.221   4.798
88790W        W60461   1.985  36.877  12.110
88791W        W60462  30.393  38.849   0.361
88792W        W60463  22.751   7.667   1.380
88793W        W60464   3.806  21.823   0.298
88794W        W60465  18.152  28.515   0.834
88795W        W60466   2.568   9.161   2.897
88796W        W60467  36.553  33.362   4.362
88797W        W60468  15.745  41.988   2.640
88798W        W60469   6.844  15.766   4.727
88799W        W60470  32.659  33.709  10.867
88800W        W60471  29.953  33.014   3.227
88801W        W60472   7.671  40.495  13.872
88802W        W60473  30.548  23.952   1.221
88803W        W60474  29.772   3.132   0.129
88804W        W60475  32.115  17.396   5.073
88805W        W60476  12.483  11.221  11.942
88806W        W60477   4.098  22.699   0.380
88807W        W60478  36.110  33.562   4.509
88808W        W60479  32.431  39.877  12.284
88809W        W60480  29.148  17.582   4.847
88810W        W60481   6.485  23.805   2.686
88811W        W60482  28.530  20.187   3.830
88812W        W60483  14.738  14.030   1.876
88813W        W60484  24.119  44.946  14.404
88814W        W60485  43.969   0.983  11.984
88815W        W60486   9.007  11.204   2.257
88816W        W60487   0.321  20.089   2.344
88817W        W60488  15.746  36.860  13.524
88818W        W60489  18.593   4.327   4.666
88819W        W60490  17.425  15.870  11.967
88820W        W60491  10.548  40.470  14.973
88821W        W60492  12.207   9.906  13.448
88822W        W60493  18.869   1.689   1.749
88823W        W60494  27.125  19.365   1.701
88824W        W60495   3.665  15.441  10.128
88825W        W60496  17.813   1.899  10.673
88826W        W60497  24.527  26.891   3.683
88827W        W60498  38.543  25.688  10.701
88828W        W60499   8.319  16.600  12.039
88829W        W60500  17.765  19.951   2.214
88830W        W60501  37.176  35.001  13.229
88831W        W60502   3.417   4.142   4.175
88832W        W60503  35.651  12.055  11.140
88833W        W60504   5.068  32.991  13.463
88834W        W60505  41.083  35.066  14.982
88835W        W60506   2.295  12.419  12.956
88836W        W60507  43.989  25.714   3.907
88837W        W60508   2.171  12.238  11.670
88838W        W60509  33.011  17.827   4.686
88839W        W60510   7.870  37.455   0.826
88840W        W60511  31.570  34.095  13.898
88841W        W60512   3.051  27.925   3.729
88842W        W60513   3.703   0.406  12.537
88843W        W60514  25.230  26.162  13.206
88844W        W60515   8.381  36.001  11.163
88845W        W60516  20.951  15.553  10.944
88846W        W60517  15.224  37.925  12.104
88847W        W60518  41.930   7.392   3.827
88848W        W60519  36.283  14.249  14.747
88849W        W60520  37.917   9.439   3.673
88850W        W60521   9.787  15.246  11.901
88851W        W60522  22.091   3.910   4.526
88852W        W60523  43.697  20.693  14.321
88853W        W60524  36.051  13.609   2.326
88854W        W60525  22.604  43.714  11.109
88855W        W60526  40.904  29.544  13.465
88856W        W60527  35.114   7.136  10.744
88857W        W60528  31.876  24.235  12.950
88858W        W60529  33.411  32.287  13.608
88859W        W60530  23.681  34.035  10.840
88860W        W60531  16.023   0.392   3.161
88861W        W60532   0.199   1.420   3.970
88862W        W60533  10.188  43.855   3.187
88863W        W60534  44.951  32.677  14.350
88864W        W60535   3.441  37.766  13.752
88865W        W60536  37.640  43.998  11.618
88866W        W60537  36.144  15.828  14.898
88867W        W60538  29.144  21.875  10.684
88868W        W60539  24.836  35.307  10.989
88869W        W60540  12.352  10.152   1.349
88870W        W60541   0.916  38.586   1.870
88871W        W60542  28.085  13.411  10.699
88872W        W60543  41.579  26.025  13.356
88873W        W60544  30.149  32.693   1.433
88874W        W60545  16.256  25.443  14.767
88875W        W60546   0.714   9.151  12.016
88876W        W60547  11.101  33.024  14.207
88877W        W60548  13.695  29.459  14.019
88878W        W60549  41.871  32.988  14.332
88879W        W60550  28.489  28.918   2.995
88880W        W60551  40.962  18.692   0.715
88881W        W60552  20.603  14.053  13.027
88882W        W60553  20.742   9.149  14.875
88883W        W60554  37.484  18.628   4.584
88884W        W60555   2.561  13.632   4.033
88885W        W60556   4.998  43.338   4.161
88886W        W60557   6.729  15.419  12.567
88887W        W60558  23.451   4.315  10.803
88888W        W60559  26.208   0.773   1.533
88889W        W60560  17.480   9.551  14.057
88890W        W60561  14.924   0.034  14.951
88891W        W60562  33.872   6.936  11.143
88892W        W60563  37.283  13.168   2.278
88893W        W60564  16.495   9.440  12.960
88894W        W60565  32.464   5.396   1.192
88895W        W60566  38.316  37.865  10.827
88896W        W60567  11.297  15.590  11.191
88897W        W60568   9.989   5.928   2.834
88898W        W60569  10.346  24.314  11.080
88899W        W60570  12.953   4.318  14.405
88900W        W60571   9.317  25.464   2.156
88901W        W60572   2.457  42.664   3.152
88902W        W60573  35.847   2.798   1.220
88903W        W60574  39.950  39.306   3.117
88904W        W60575  16.996   0.776   2.810
88905W        W60576   3.880  22.981  10.975
88906W        W60577  29.453  44.521   2.165
88907W        W60578  16.740   6.457  10.245
88908W        W60579  13.397   9.625   1.937
88909W        W60580   5.388   2.849   0.830
88910W        W60581   7.437  34.050   0.188
88911W        W60582  21.971  39.750  14.483
88912W        W60583  37.499  11.168  13.035
88913W        W60584  15.817  18.677  13.980
88914W        W60585  17.158  18.622   3.352
88915W        W60586  31.850  20.585  13.681
88916W        W60587  13.532   7.413   1.504
88917W        W60588  34.132   3.254   2.800
88918W        W60589  26.580  34.430   3.870
88919W        W60590  34.829  18.837   5.027
88920W        W60591  12.919  20.138  14.450
88921W        W60592   3.185  27.362   3.716
88922W        W60593  22.110  25.614  12.739
88923W        W60594  44.461  17.021  13.777
88924W        W60595  44.539  38.588  11.548
88925W        W60596  18.637  17.623   0.093
88926W        W60597  26.611  15.541  12.969
88927W        W60598   0.506  26.099   1.352
88928W        W60599   3.478  38.292  12.633
88929W        W60600  31.850  23.704   3.861
88930W        W60601  22.321  13.757  10.574
88931W        W60602  20.400   7.791   1.187
88932W        W60603  13.623  14.681   2.695
88933W        W60604   1.987  42.976   1.359
88934W        W60605   8.847  16.797  14.341
88935W        W60606  17.662   9.536   0.858
88936W        W60607  33.991   4.194   3.296
88937W        W60608   1.382  39.490   1.411
88938W        W60609   3.818   4.604  14.070
88939W        W60610  21.934  10.338   3.716
88940W        W60611  10.190  43.916   1.328
88941W        W60612  32.537  24.767   1.343
88942W        W60613  37.842  38.118   4.328
88943W        W60614  40.797  44.969  14.947
88944W        W60615  24.405  21.894  14.484
88945W        W60616  32.672  38.859  12.859
88946W        W60617  26.893  31.637  14.581
88947W        W60618  18.118   3.164   2.298
88948W        W60619  38.269  23.736  13.075
88949W        W60620  19.398   2.926   4.945
88950W        W60621  19.037   8.272   3.863
88951W        W60622  20.599  30.425  14.896
88952W        W60623  27.757   9.807   5.119
88953W        W60624   9.743  28.490  14.782
88954W        W60625   4.167  42.331  11.557
88955W        W60626  17.897  19.111  12.411
88956W        W60627  33.556  34.984  11.273
88957W        W60628   8.360  11.158  14.513
88958W        W60629  12.644   3.780  14.058
88959W        W60630   8.106   5.293   3.771
88960W        W60631  32.926  35.893  13.605
88961W        W60632  35.111  14.499  11.975
88962W        W60633  23.218  13.277  11.483
88963W        W60634  22.193  21.494  12.872
88964W        W60635  14.704  28.530   1.264
88965W        W60636  27.023   6.279   1.871
88966W        W60637   0.463   0.308   4.807
88967W        W60638  12.915  41.260  12.019
88968W        W60639  16.044  42.111   2.227
88969W        W60640   4.392  42.461   3.292
88970W        W60641  39.782  35.942   1.806
88971W        W60642  14.110   1.145   1.835
88972W        W60643  35.081   2.867   1.738
88973W        W60644  16.787  16.425  11.501
88974W        W60645  19.874  18.484   1.301
88975W        W60646  15.532  29.119   3.122
88976W        W60647  18.784  41.464  14.371
88977W        W60648  21.497  33.987  12.534
88978W        W60649  32.713  23.727   0.881
88979W        W60650  19.592  33.632   3.236
88980W        W60651  35.364  37.526  13.638
88981W        W60652  44.933   8.904   4.461
88982W        W60653  36.793  23.930   2.358
88983W        W60654   9.754  20.283   4.633
88984W        W60655  11.890  24.251  13.282
88985W        W60656  43.768  14.762  13.988
88986W        W60657  35.521  36.254   4.133
88987W        W60658  40.764  29.935  13.802
88988W        W60659  19.231   6.985   1.323
88989W        W60660  24.217   3.409  12.919
88990W        W60661  19.075  16.706   1.111
88991W        W60662  39.021  41.303  11.208
88992W        W60663   6.707  19.269  13.424
88993W        W60664   1.380  35.807  13.671
88994W        W60665   7.291  35.375   3.889
88995W        W60666   9.796   7.605   0.994
88996W        W60667  36.352  31.773   2.864
88997W        W60668  40.857  44.438  10.565
88998W        W60669  10.664  24.484  10.414
88999W        W60670   4.764  21.657   2.813
89000W        W60671  36.864   3.284  13.411
89001W        W60672  27.683  42.896  14.859
89002W        W60673  35.011  25.528  11.005
89003W        W60674  37.140  29.436   0.703
89004W        W60675  10.720  28.097   3.393
89005W        W60676  10.091  24.533  12.998
89006W        W60677  31.738  31.942  11.460
89007W        W60678  21.542  42.986  10.477
89008W        W60679  11.687  11.848  10.342
89009W        W60680  34.297  24.555  10.736
89010W        W60681  40.711  26.501  12.920
89011W        W60682  31.656  23.086   4.917
89012W        W60683  24.955  35.378  14.881
89013W        W60684  19.374  16.332   2.833
89014W        W60685  19.410  32.543  11.656
89015W        W60686  36.787  36.437  13.744
89016W        W60687  29.020  36.602  12.434
89017W        W60688  24.524  34.673   2.372
89018W        W60689   2.871  30.961  12.823
89019W        W60690  33.977  43.438   4.375
89020W        W60691  34.932   6.215   2.691
89021W        W60692  33.377  43.560  13.494
89022W        W60693  12.109  16.115  12.369
89023W        W60694  18.805  31.127  12.525
89024W        W60695  15.254  43.347   1.852
89025W        W60696  24.674  21.334   0.665
89026W        W60697  38.077  20.059  13.459
89027W        W60698   8.868   1.058  12.013
89028W        W60699  19.664  40.307  10.730
89029W        W60700  29.952  44.486   3.621
89030W        W60701   2.383  33.219   3.783
89031W        W60702   3.592  35.166  13.003
89032W        W60703  43.911  34.702   1.029
89033W        W60704   3.433  25.660   3.351
89034W        W60705  18.555  16.797  14.285
89035W        W60706   9.156  10.742  14.039
89036W        W60707  44.039  22.758   4.097
89037W        W60708  20.273  25.285  11.249
89038W        W60709  19.026   4.901   0.437
89039W        W60710  10.080  33.608   1.376
89040W        W60711  44.462   7.246  11.157
89041W        W60712  20.780  16.421  12.851
89042W        W60713  39.734   6.692   4.035
89043W        W60714  21.064   7.182   0.739
89044W        W60715   1.247   3.715   4.172
89045W        W60716  11.363  20.897   0.510
89046W        W60717  40.537   3.949  14.402
89047W        W60718  40.544  12.860   3.874
89048W        W60719  42.755  31.848   3.113
89049W        W60720  16.268  40.785  11.633
89050W        W60721  19.551   1.759   2.487
89051W        W60722  14.231   4.751  14.321
89052W        W60723  36.400   5.173   0.233
89053W        W60724  41.613  40.054  10.168
89054W        W60725  14.127  31.107  14.012
89055W        W60726  44.265  42.309  14.121
89056W        W60727  28.100  40.591  13.346
89057W        W60728   5.252  12.087   1.916
89058W        W60729  38.623  30.865  14.570
89059W        W60730   6.269  40.215  12.670
89060W        W60731  27.522  41.931   2.437
89061W        W60732  10.331   1.985  14.498
89062W        W60733  27.074  40.941   4.884
89063W        W60734  26.106   9.903  12.874
89064W        W60735   2.705   4.757   3.737
89065W        W60736  26.474  34.985  10.772
89066W        W60737  31.255  32.047   2.601
89067W        W60738  25.772  42.129  14.749
89068W        W60739  36.822  11.265  13.772
89069W        W60740  44.698  23.702  13.502
89070W        W60741  31.650   5.314   4.038
89071W        W60742  44.579  26.298   1.612
89072W        W60743   0.991  27.543  10.644
89073W        W60744  19.019  16.326   3.670
89074W        W60745  24.094  41.093  13.151
89075W        W60746  14.898  39.451  12.562
89076W        W60747  19.425  37.538  11.083
89077W        W60748  24.233  44.843  12.757
89078W        W60749   4.166  26.204   2.603
89079W        W60750   2.500  14.340  11.639
89080W        W60751  16.740  27.675  14.306
89081W        W60752  19.095  27.113   0.154
89082W        W60753  39.341  17.149   0.421
89083W        W60754  44.459  31.503  14.380
89084W        W60755  25.565  32.340   0.947
89085W        W60756  34.537  21.034  13.710
89086W        W60757   6.480  43.531   1.833
89087W        W60758   3.840  31.830  14.418
89088W        W60759  24.067  35.580  11.187
89089W        W60760  18.292   3.925   3.798
89090W        W60761   0.485  18.671  13.520
89091W        W60762  16.666  12.088  11.238
89092W        W60763  10.516   4.590  13.853
89093W        W60764   9.257  12.899   3.892
89094W        W60765  44.244  20.748  14.444
89095W        W60766  13.199  28.673  13.849
89096W        W60767  36.512  21.728   4.101
89097W        W60768   2.775   6.182   1.049
89098W        W60769  33.890  12.805  14.325
89099W        W60770  22.265  13.597  12.716
89100W        W60771  20.700  39.229   5.474
89101W        W60772  39.368  41.828  14.943
89102W        W60773  26.232  15.357   2.841
89103W        W60774   5.307  43.368  14.918
89104W        W60775  31.442  38.748   1.269
89105W        W60776   9.262  34.825   2.783
89106W        W60777  35.406   7.321  11.984
89107W        W60778  13.381  18.630  13.384
89108W        W60779  39.247   2.506   2.435
89109W        W60780  22.427  41.400  14.794
89110W        W60781  22.216  14.069  10.971
89111W        W60782   0.902  22.857   2.973
89112W        W60783  34.511  18.709  12.219
89113W        W60784  30.023  41.789   0.030
89114W        W60785   6.781  21.458   2.181
89115W        W60786  27.937  39.931  14.460
89116W        W60787   6.768  20.245  12.077
89117W        W60788   9.889  17.847  12.102
89118W        W60789  16.663  10.691  13.431
89119W        W60790  10.640  15.120   0.909
89120W        W60791  20.971   5.751  11.188
89121W        W60792  19.777  38.356  12.046
89122W        W60793  17.317  20.547   3.652
89123W        W60794   5.238  19.199  11.947
89124W        W60795  13.346  39.412  14.399
89125W        W60796   7.698  37.985   0.004
89126W        W60797  17.852   0.171   2.102
89127W        W60798  15.710  35.715  10.481
89128W        W60799  44.781  15.659   2.320
89129W        W60800  16.163  32.620   3.035
89130W        W60801   7.666  25.054  13.622
89131W        W60802   2.422  39.597  11.573
89132W        W60803  17.804   8.317   2.125
89133W        W60804  41.486  40.921  13.494
89134W        W60805   9.338  29.512   4.485
89135W        W60806  20.753  29.589   3.629
89136W        W60807  26.417  25.714  10.538
89137W        W60808  39.104  20.217  12.376
89138W        W60809  20.659  33.375   2.681
89139W        W60810  39.589  39.511   3.836
89140W        W60811  30.174  33.085   3.693
89141W        W60812  13.919  40.281   0.366
89142W        W60813  25.393   8.875  12.439
89143W        W60814   8.022  32.046  10.542
89144W        W60815  14.728  13.371   4.551
89145W        W60816  28.253  37.143  10.184
89146W        W60817   2.230  40.159  11.572
89147W        W60818  14.306   8.164   4.020
89148W        W60819  34.905  35.905   1.931
89149W        W60820   1.308  11.832  10.557
89150W        W60821  24.280  35.996   1.893
89151W        W60822   2.398  34.274   0.036
89152W        W60823  24.376  44.768  14.854
89153W        W60824  40.326   0.380   1.576
89154W        W60825  36.960  12.341  12.477
89155W        W60826  15.969  24.600   4.792
89156W        W60827   6.341  42.027   2.311
89157W        W60828  35.324  16.291  14.826
89158W        W60829  39.024  15.801   4.042
89159W        W60830  26.573  35.677  12.481
89160W        W60831  21.278  21.780  12.819
89161W        W60832  25.048   2.473   4.092
89162W        W60833  43.727  26.450  12.093
89163W        W60834  35.104  28.095  10.640
89164W        W60835   0.718  28.343   1.309
89165W        W60836  43.558  22.667  10.756
89166W        W60837  39.818  32.708  13.533
89167W        W60838  40.810   5.875  14.311
89168W        W60839  43.854   5.069  10.728
89169W        W60840  39.976  14.753   0.006
89170W        W60841  18.742  31.577  14.956
89171W        W60842  27.314  33.604   3.043
89172W        W60843  43.854  13.077   0.814
89173W        W60844  34.104  28.335   3.288
89174W        W60845   4.784  30.667   1.889
89175W        W60846  28.575  22.018   0.524
89176W        W60847  18.727  31.904  14.001
89177W        W60848   3.467  22.154   2.569
89178W        W60849  39.364  27.694  13.570
89179W        W60850  36.660  40.979  12.488
89180W        W60851   4.262  19.116   3.063
89181W        W60852  15.186  24.078   2.933
89182W        W60853  13.905  29.001   2.388
89183W        W60854  28.326  10.286  14.402
89184W        W60855  21.223  38.332   4.326
89185W        W60856  39.319  28.569   1.838
89186W        W60857  10.676  30.634  12.463
89187W        W60858   5.931  13.061  13.463
89188W        W60859  18.491   9.668  13.215
89189W        W60860  10.127  15.196   0.829
89190W        W60861  25.657  25.662  14.305
89191W        W60862  18.126  38.349   4.099
89192W        W60863  33.293  30.662  11.498
89193W        W60864  20.143  21.140   0.818
89194W        W60865  25.058  12.194   2.681
89195W        W60866  34.535  43.849   1.831
89196W        W60867  44.529  42.819  11.394
89197W        W60868   0.761  24.252  14.541
89198W        W60869   5.681  18.942  11.961
89199W        W60870  18.396  18.205   4.553
89200W        W60871  20.999  17.967   4.335
89201W        W60872  14.663  35.950  13.413
89202W        W60873  44.311  26.482  12.096
89203W        W60874  17.357  25.505  11.556
89204W        W60875  37.941  22.367   0.992
89205W        W60876  30.646   5.239  13.843
89206W        W60877  27.162  42.802  11.507
89207W        W60878  43.916  44.977   3.271
89208W        W60879  32.055  31.652   4.599
89209W        W60880  39.320  35.452  11.205
89210W        W60881   2.647  29.243  11.117
89211W        W60882  44.159   3.864  14.253
89212W        W60883  43.431   2.988  10.419
89213W        W60884  42.601  22.488   3.741
89214W        W60885  30.981  18.966  11.568
89215W        W60886   1.533  34.836  14.423
89216W        W60887  24.162  12.328  12.634
89217W        W60888   6.318  10.423  12.904
89218W        W60889  21.184  12.819  11.527
89219W        W60890  29.608  30.708   4.568
89220W        W60891   1.296  12.588  14.774
89221W        W60892   6.340   5.208   3.187
89222W        W60893  34.024  31.509  10.710
89223W        W60894   1.947  41.034  14.318
89224W        W60895  28.033  36.068  10.777
89225W        W60896  39.536   6.271  13.886
89226W        W60897  12.032  30.040   0.934
89227W        W60898   1.135  40.456  14.814
89228W        W60899  40.396   3.520  13.927
89229W        W60900  16.170  35.421   4.374
89230W        W60901  33.776  41.172   3.263
89231W        W60902  40.309  30.189   9.929
89232W        W60903  32.458  36.186  12.382
89233W        W60904  42.488   3.380   3.219
89234W        W60905   8.767  25.574   0.917
89235W        W60906   4.759   2.180  12.461
89236W        W60907  36.064  39.230  12.441
89237W        W60908  32.471  34.465  12.986
89238W        W60909  12.375  19.308   0.772
89239W        W60910  30.428  18.725   0.864
89240W        W60911  35.307   8.901   3.194
89241W        W60912  15.568  27.027  12.037
89242W        W60913  44.929  19.685   3.867
89243W        W60914  11.020  28.643   2.612
89244W        W60915  37.321  31.411   1.837
89245W        W60916  43.740  33.749  11.668
89246W        W60917   4.268  44.534   4.716
89247W        W60918   4.406  26.144  13.973
89248W        W60919  17.667   9.331   4.199
89249W        W60920  29.540  19.991   4.306
89250W        W60921   7.190  16.571  13.909
89251W        W60922  25.134  32.062  12.103
89252W        W60923  15.129  36.179  13.381
89253W        W60924  33.451  37.031  11.487
89254W        W60925  19.747  34.864  12.990
89255W        W60926  26.939  21.208  10.694
89256W        W60927  25.656  39.931  10.712
89257W        W60928   6.380  21.059  13.329
89258W        W60929  42.833  34.919  12.478
89259W        W60930   4.879  24.673   1.949
89260W        W60931  43.527   0.750  12.083
89261W        W60932   3.879  12.763  11.375
89262W        W60933  40.283  12.792   4.820
89263W        W60934   0.054  11.150   0.277
89264W        W60935  35.674   0.439   2.598
89265W        W60936  26.288   3.414  13.064
89266W        W60937  44.519   5.416  11.920
89267W        W60938  22.489  38.279   9.635
89268W        W60939  37.531   9.564  10.752
89269W        W60940  40.822  24.406  13.204
89270W        W60941   1.405  14.368  13.029
89271W        W60942  25.936  20.179   1.623
89272W        W60943  24.727  31.372   0.350
89273W        W60944   0.456   2.343   1.069
89274W        W60945   8.234  44.997   4.091
89275W        W60946  21.564  26.937  12.933
89276W        W60947  36.449  21.588   0.709
89277W        W60948  31.918   0.462  13.011
89278W        W60949  37.655  33.748   0.901
89279W        W60950   2.425  38.570   3.602
89280W        W60951   3.914   6.748   4.203
89281W        W60952  39.395  44.555   4.684
89282W        W60953  35.876   8.884   1.363
89283W        W60954   3.128   3.305  14.239
89284W        W60955   6.759  28.536   2.549
89285W        W60956  42.861   2.961  14.796
89286W        W60957  10.653   1.619  12.171
89287W        W60958  26.584   1.001   1.124
89288W        W60959  23.758  31.523   1.142
89289W        W60960  34.636   0.004  14.978
89290W        W60961  39.324   0.349  10.464
89291W        W60962  24.035  15.081   3.082
89292W        W60963   6.775  38.811  11.548
89293W        W60964  15.026   1.331   1.602
89294W        W60965  39.248   7.808  12.609
89295W        W60966   4.277   5.761  10.737
89296W        W60967  24.034  12.293   1.328
89297W        W60968  39.514  29.980  13.366
89298W        W60969   1.913  24.283   4.111
89299W        W60970  22.764  42.946  12.567
89300W        W60971  20.738  33.809   1.173
89301W        W60972  31.466   2.700   2.766
89302W        W60973  33.675  11.221  11.683
89303W        W60974  29.158  43.060   1.266
89304W        W60975   9.337  29.673   3.996
89305W        W60976  10.060   2.763  11.169
89306W        W60977  26.042   5.665  14.735
89307W        W60978   3.000  13.771  13.510
89308W        W60979   8.167  23.564   0.518
89309W        W60980   4.407  28.845   0.981
89310W        W60981  13.700  39.798   2.270
89311W        W60982  10.683   7.367   3.705
89312W        W60983  36.044   0.026   1.824
89313W        W60984   8.316   3.287  13.038
89314W        W60985  39.907  11.439  14.800
89315W        W60986  24.709  24.103  14.942
89316W        W60987   9.416   3.792  14.935
89317W        W60988  23.146  28.972   4.648
89318W        W60989  20.107  14.725   9.927
89319W        W60990  23.095  38.150  13.347
89320W        W60991   7.431  44.730  10.767
89321W        W60992  15.693   5.804   4.183
89322W        W60993  29.262   6.350  10.688
89323W        W60994   0.799  20.284   0.223
89324W        W60995  28.411  17.100  12.004
89325W        W60996  22.978  18.337  13.355
89326W        W60997  21.501   5.418   3.487
89327W        W60998  43.558  29.165   3.352
89328W        W60999  23.538  15.396   4.157
89329W        W61000  22.570  25.156  13.426
89330W        W61001  35.599   2.701  14.867
89331W        W61002   8.126  43.974  12.977
89332W        W61003  29.094   1.802  14.305
89333W        W61004  15.464  24.129  11.913
89334W        W61005  36.617  16.591   4.404
89335W        W61006   6.255   0.745  13.577
89336W        W61007  20.151  30.882  14.377
89337W        W61008  33.182   9.692  14.403
89338W        W61009  19.557   4.268   3.613
89339W        W61010  10.568  34.959  11.243
89340W        W61011  20.999  24.080  14.803
89341W        W61012  42.109  33.440  13.493
89342W        W61013  17.997   9.472  12.949
89343W        W61014  19.846  19.142  11.979
89344W        W61015  40.306  39.746  12.058
89345W        W61016  40.400   6.436   3.741
89346W        W61017  20.909  27.571  12.453
89347W        W61018  20.909  33.488  12.004
89348W        W61019   6.135  36.833   4.754
89349W        W61020  13.878  25.476   4.592
89350W        W61021   7.681   8.031  13.888
89351W        W61022  19.773   2.814   3.120
89352W        W61023  12.100  20.363  12.845
89353W        W61024  37.599   8.572   0.479
89354W        W61025   4.669  31.480  14.922
89355W        W61026  11.525  33.602   3.103
89356W        W61027  44.445  32.161   0.905
89357W        W61028  18.016  15.229   3.756
89358W        W61029  30.486  42.008  14.826
89359W        W61030  44.844  30.024   4.476
89360W        W61031  28.400   7.933   2.693
89361W        W61032   4.564  17.085  12.490
89362W        W61033  19.759  36.595  11.485
89363W        W61034  40.298   8.391   0.450
89364W        W61035  17.104   1.784   4.863
89365W        W61036  22.620  23.552  10.541
89366W        W61037  19.623  20.480   4.325
89367W        W61038  39.503   4.807   4.934
89368W        W61039  43.457  22.030   1.408
89369W        W61040  41.895  41.864   9.776
89370W        W61041  13.087  17.266  11.071
89371W        W61042  39.501  24.099  12.748
89372W        W61043   2.058  29.014  13.832
89373W        W61044  30.316  31.897  12.496
89374W        W61045  35.087  10.915   4.184
89375W        W61046  27.689  40.366   0.498
89376W        W61047  30.820  28.392   1.306
89377W        W61048  35.538   8.058  13.750
89378W        W61049  26.705  33.116   4.578
89379W        W61050   7.785   7.662  13.541
89380W        W61051  29.754   9.813   4.236
89381W        W61052  24.200  27.768   1.891
89382W        W61053   1.809  19.684   0.348
89383W        W61054  30.115  36.576   4.113
89384W        W61055  37.938  23.706   4.490
89385W        W61056  42.817   0.783   4.509
89386W        W61057  30.420   4.207   0.649
89387W        W61058   4.414  10.997  13.951
89388W        W61059   0.996  21.748   2.309
89389W        W61060  27.998  37.260  12.433
89390W        W61061  22.747  17.588  11.985
89391W        W61062  28.501  34.408   2.909
89392W        W61063  33.119  41.660   4.275
89393W        W61064  31.417  25.719   2.745
89394W        W61065  26.069  30.306  14.854
89395W        W61066  36.942  38.128   3.352
89396W        W61067  39.913  41.663   2.049
89397W        W61068  16.789  23.696  13.816
89398W        W61069  38.283  37.875  11.325
89399W        W61070  27.666  27.046  14.808
89400W        W61071  23.253  41.036   4.617
89401W        W61072   8.544  41.056   2.664
89402W        W61073  24.377  32.445  11.210
89403W        W61074  40.933  14.141  12.479
89404W        W61075   4.791  16.627  12.693
89405W        W61076   4.732  39.094   2.864
89406W        W61077  35.969  24.255  14.192
89407W        W61078  30.585  11.213  10.661
89408W        W61079  39.768  44.212   1.963
89409W        W61080  37.638   7.121   3.280
89410W        W61081  25.037  32.309   4.585
89411W        W61082  28.124   2.883  14.962
89412W        W61083  25.700   6.450   1.946
89413W        W61084   1.097  32.208  14.478
89414W        W61085  40.047  14.258  13.109
89415W        W61086  11.088  21.882   0.329
89416W        W61087  15.051   6.215   3.709
89417W        W61088  13.627  24.974  11.212
89418W        W61089  26.296  25.099   2.788
89419W        W61090  38.895  19.185  12.501
89420W        W61091   2.240  26.694   1.828
89421W        W61092  23.373  40.486   3.414
89422W        W61093  44.989  34.397  12.009
89423W        W61094   6.728  30.422   3.754
89424W        W61095   0.846  33.838   1.749
89425W        W61096   9.157  31.065  11.612
89426W        W61097  20.597  31.993  14.976
89427W        W61098  15.823  33.081  13.751
89428W        W61099  31.134  33.382   2.819
89429W        W61100  42.618  32.884  11.366
89430W        W61101  18.343  22.313  12.544
89431W        W61102  16.810  13.593   0.023
89432W        W61103   7.976  34.709  10.652
89433W        W61104  33.161  19.538   0.320
89434W        W61105  42.851   1.517  12.009
89435W        W61106   9.866  14.792   1.112
89436W        W61107   3.698  19.821   4.662
89437W        W61108  14.536   0.791   2.353
89438W        W61109  20.155  13.788   4.579
89439W        W61110  32.836  28.092   0.926
89440W        W61111  32.048  20.237  13.309
89441W        W61112  35.009  30.011   4.547
89442W        W61113   5.797  42.729   2.423
89443W        W61114  20.047  26.066   0.812
89444W        W61115  25.224  31.137   3.602
89445W        W61116   2.728  15.075  12.974
89446W        W61117  24.040  20.569   3.257
89447W        W61118  44.605  20.782  14.070
89448W        W61119   8.841  19.234  11.921
89449W        W61120  23.916  12.068  13.009
89450W        W61121  12.086   5.813  14.014
89451W        W61122  13.753   2.625   3.873
89452W        W61123  38.314  27.489   0.236
89453W        W61124   2.854   1.818  13.171
89454W        W61125   2.856  11.718   2.776
89455W        W61126  34.047  26.440  11.329
89456W        W61127  37.848  33.938   4.583
89457W        W61128  16.958   8.306   0.850
89458W        W61129   9.381  17.756  11.046
89459W        W61130  15.885  36.160  10.729
89460W        W61131  42.759  31.571  10.335
89461W        W61132  28.328  23.814   4.080
89462W        W61133  31.472  28.624  11.963
89463W        W61134   4.913  44.823  11.858
89464W        W61135  10.705   3.649   3.232
89465W        W61136  27.044  16.612   4.907
89466W        W61137  21.095   6.929   2.852
89467W        W61138  15.105  28.239   0.372
89468W        W61139  44.048  13.850   5.736
89469W        W61140   9.436  10.014  10.420
89470W        W61141  27.646  32.675  13.082
89471W        W61142  38.788  33.509  14.985
89472W        W61143  28.771   7.923  14.092
89473W        W61144  36.851  31.632  14.479
89474W        W61145   1.360  36.698   4.225
89475W        W61146  10.731  27.138  14.267
89476W        W61147   5.868   4.237   3.226
89477W        W61148  26.439  27.579  10.585
89478W        W61149  12.424  23.959  12.125
89479W        W61150  11.148  23.798  13.829
89480W        W61151   7.167  40.068   2.110
89481W        W61152  43.280  41.132   2.395
89482W        W61153  27.049   4.334   3.212
89483W        W61154  14.781   1.412   4.670
89484W        W61155  30.171   5.429   2.525
89485W        W61156  33.641  12.613   1.286
89486W        W61157  26.852   9.065   3.222
89487W        W61158  17.129  17.675  11.354
89488W        W61159  15.053   1.036  11.490
89489W        W61160  18.684  33.487  11.184
89490W        W61161   9.419   2.236   2.921
89491W        W61162  42.378  35.019  11.558
89492W        W61163  26.760  32.741  11.142
89493W        W61164   0.652  27.030   0.819
89494W        W61165  15.402  21.686   3.572
89495W        W61166  38.095  28.105  10.580
89496W        W61167  28.472  42.971   0.791
89497W        W61168  38.606  38.363  13.444
89498W        W61169  37.068  11.119  14.793
89499W        W61170  22.460  22.762   2.275
89500W        W61171  37.452  13.899   2.808
89501W        W61172   3.950  18.984   1.776
89502W        W61173  36.465  24.973   3.818
89503W        W61174  39.178   9.701   1.218
89504W        W61175  18.709  21.113   0.926
89505W        W61176  34.511  39.987  11.968
89506W        W61177  39.396   5.265  12.879
89507W        W61178  21.120  26.650  13.696
89508W        W61179  13.564  12.063   0.271
89509W        W61180  20.029   0.856  11.910
89510W        W61181  23.579  22.389   0.436
89511W        W61182  32.745  18.399   1.381
89512W        W61183  12.392  12.171   3.754
89513W        W61184  14.610  23.927  11.573
89514W        W61185  20.126  24.871   1.250
89515W        W61186  14.549  41.823   0.957
89516W        W61187  15.734   8.760   4.574
89517W        W61188  24.966  12.768   4.641
89518W        W61189  24.154  36.015  13.552
89519W        W61190   0.174  37.444  12.124
89520W        W61191  31.186  18.643  11.179
89521W        W61192  12.760  40.483  11.649
89522W        W61193  22.482  22.485   4.591
89523W        W61194  27.211   3.903   4.746
89524W        W61195   4.481   7.576   0.915
89525W        W61196  39.351  39.849  12.076
89526W        W61197  32.933  17.171   2.785
89527W        W61198  27.241   7.257   3.054
89528W        W61199  35.547   8.178   3.072
89529W        W61200  23.494  10.883   1.042
89530W        W61201  26.709  28.563   1.830
89531W        W61202  11.795  23.350   3.095
89532W        W61203   3.259  24.690  10.427
89533W        W61204   1.799  19.082  10.209
89534W        W61205   2.046   4.952  14.649
89535W        W61206  16.298  15.722  13.027
89536W        W61207  28.164  34.723   5.099
89537W        W61208  35.589  13.283  13.906
89538W        W61209  33.395  37.316   1.878
89539W        W61210   5.380  20.520   3.945
89540W        W61211  21.164   4.930  13.301
89541W        W61212  24.549  25.890  11.244
89542W        W61213  29.532  17.081   3.834
89543W        W61214  17.106   3.547   2.494
89544W        W61215  29.593   4.856  12.672
89545W        W61216  44.080  32.014  12.508
89546W        W61217  41.413  39.631   3.235
89547W        W61218  18.752  20.606   4.047
89548W        W61219  20.558  39.391  10.311
89549W        W61220  14.832  15.325   3.124
89550W        W61221  38.341   3.416   0.383
89551W        W61222  44.652  22.661   0.788
89552W        W61223  13.097  39.867  14.460
89553W        W61224  10.769  29.139   3.673
89554W        W61225  34.943  37.297   3.580
89555W        W61226  33.628  21.072   1.494
89556W        W61227   2.610  39.452  13.020
89557W        W61228  16.448  31.553   3.742
89558W        W61229  41.239  10.129  12.014
89559W        W61230  17.157  37.413   9.964
89560W        W61231  16.559  10.608   2.352
89561W        W61232   8.804  28.926   4.857
89562W        W61233  13.297  27.493   0.805
89563W        W61234  30.741  12.204   2.539
89564W        W61235  16.489   5.345  12.121
89565W        W61236  25.197  32.390  12.645
89566W        W61237   9.882   2.189  13.451
89567W        W61238  13.710  23.194   0.977
89568W        W61239  17.042  13.094  12.968
89569W        W61240  14.800  27.914  10.669
89570W        W61241   9.748  25.344   3.755
89571W        W61242  40.445  27.398  11.660
89572W        W61243   5.084  35.784  12.102
89573W        W61244   7.687  22.773  14.424
89574W        W61245  21.788  29.589   3.682
89575W        W61246  28.919   5.278   0.742
89576W        W61247   4.672  10.743  14.794
89577W        W61248  32.605  24.476  14.739
89578W        W61249  37.917  19.186   1.679
89579W        W61250   1.230  19.252   0.855
89580W        W61251  13.671  10.839   3.820
89581W        W61252  42.308  16.843   4.172
89582W        W61253   6.594  15.239  11.157
89583W        W61254  18.626  16.617   2.839
89584W        W61255  20.170   7.944  10.607
89585W        W61256  13.176   8.472  10.073
89586W        W61257  22.596  16.666   5.033
89587W        W61258  16.673  42.421  11.895
89588W        W61259  26.720  36.350   3.671
89589W        W61260  26.963  22.124   4.578
89590W        W61261  11.688  27.424   2.563
89591W        W61262  33.480   3.878   4.792
89592W        W61263  13.352  24.080   1.180
89593W        W61264  27.948  23.234   2.234
89594W        W61265  32.584  28.286   0.274
89595W        W61266  10.459   6.673  12.416
89596W        W61267  17.959  38.049   0.013
89597W        W61268  31.673  29.646   0.788
89598W        W61269  24.277  12.240  13.318
89599W        W61270  26.737  23.236   0.252
89600W        W61271  24.277  23.006   2.781
89601W        W61272   6.349  27.467  14.413
89602W        W61273   7.726   3.550  12.938
89603W        W61274  17.233  35.915  14.071
89604W        W61275  18.692  15.311   0.674
89605W        W61276  14.845  44.983   2.660
89606W        W61277  14.793  12.351  13.033
89607W        W61278  35.424  34.424   0.532
89608W        W61279  24.908  32.710   0.505
89609W        W61280  34.490  28.479   1.713
89610W        W61281  35.565   5.798   2.901
89611W        W61282  32.479  22.725   1.323
89612W        W61283  36.927  14.142   0.381
89613W        W61284  26.069  14.013  11.542
89614W        W61285  25.126  43.374   4.606
89615W        W61286  30.461  42.969   4.041
89616W        W61287  43.971  36.463   4.602
89617W        W61288  21.386  22.132  14.305
89618W        W61289  27.022  33.911  10.917
89619W        W61290  25.125   7.405  14.878
89620W        W61291  29.470  32.050   4.035
89621W        W61292  16.709  21.996   3.565
89622W        W61293  13.834  32.449  13.430
89623W        W61294  25.207  37.959   4.186
89624W        W61295  23.638  28.999   3.860
89625W        W61296  10.811   7.330   0.130
89626W        W61297  44.732  29.111  14.347
89627W        W61298  27.077  15.842   2.816
89628W        W61299   0.717  26.245   3.812
89629W        W61300  16.444  37.841   3.882
89630W        W61301   0.083   6.004  12.986
89631W        W61302  42.827  16.579  14.243
89632W        W61303  26.103  42.480   0.472
89633W        W61304  26.717   6.328   1.282
89634W        W61305  11.856  32.600  14.042
89635W        W61306   5.674   0.771  13.385
89636W        W61307  26.377  36.463   4.508
89637W        W61308  12.209   7.751  12.488
89638W        W61309  42.003  37.452   1.895
89639W        W61310   7.239  42.390   0.418
89640W        W61311  15.690  10.411  14.353
89641W        W61312  18.769  36.779  14.374
89642W        W61313  39.307   0.894   3.318
89643W        W61314  27.294  22.665  14.888
89644W        W61315  11.403  18.293  13.552
89645W        W61316  29.398  18.663   1.849
89646W        W61317  42.729  19.718  10.495
89647W        W61318   9.871  12.827   2.382
89648W        W61319  24.826  23.610  14.068
89649W        W61320  10.533  26.758  14.543
89650W        W61321  24.227  10.595   3.812
89651W        W61322  43.236  32.329  10.760
89652W        W61323   2.792  31.953  10.791
89653W        W61324  15.480  26.619   0.019
89654W        W61325  12.920  11.192  13.811
89655W        W61326  35.102  36.361  14.298
89656W        W61327  33.116  10.313   3.277
89657W        W61328  42.400  31.004  13.402
89658W        W61329   6.213  36.897   2.913
89659W        W61330   8.321  43.286   1.707
89660W        W61331   8.352  10.194  11.526
89661W        W61332  31.060  34.690  13.414
89662W        W61333   4.461   1.930  11.278
89663W        W61334  37.563  14.172  14.493
89664W        W61335  23.446  26.202   4.696
89665W        W61336  26.703   5.862   3.230
89666W        W61337  12.592  20.389  12.471
89667W        W61338  42.263   8.304  14.925
89668W        W61339  28.109  19.414  12.862
89669W        W61340  14.509  37.389  11.751
89670W        W61341  31.200  38.401   0.314
89671W        W61342   3.323  14.297   0.187
89672W        W61343   1.991  20.522   3.179
89673W        W61344   2.927   6.958   2.156
89674W        W61345  11.446  34.903   1.860
89675W        W61346   8.956  24.486  12.057
89676W        W61347   3.451  24.435  13.896
89677W        W61348  41.918  37.863  12.385
89678W        W61349  22.661  34.068  14.446
89679W        W61350  16.182  37.818   4.790
89680W        W61351  37.766   8.259  11.167
89681W        W61352  21.743  26.617  11.310
89682W        W61353  26.251  39.064  13.355
89683W        W61354  18.646  22.604  14.043
89684W        W61355   9.626  23.967   0.912
89685W        W61356  25.143   3.725  13.984
89686W        W61357  25.760  27.690   4.944
89687W        W61358   5.750   2.443   4.486
89688W        W61359   4.877  24.045  10.520
89689W        W61360  35.542  40.341   3.859
89690W        W61361  29.432  38.430  13.443
89691W        W61362  32.577  44.459  14.943
89692W        W61363  33.989  41.438   4.095
89693W        W61364  27.936   8.879  13.753
89694W        W61365  11.196  16.071  11.072
89695W        W61366  36.702  43.977  13.790
89696W        W61367  34.588   4.876  11.491
89697W        W61368  40.862  16.141   2.946
89698W        W61369  40.315   6.656  11.028
89699W        W61370  29.543  32.721  11.249
89700W        W61371  23.819  19.512  11.108
89701W        W61372  31.972  41.792  13.227
89702W        W61373  31.814  19.483  14.515
89703W        W61374  13.170  26.561   2.866
89704W        W61375  14.949   1.478  14.862
89705W        W61376   8.757   4.267  11.168
89706W        W61377  41.806  33.959  13.391
89707W        W61378  25.414  34.493  12.881
89708W        W61379  39.486  39.568   0.171
89709W        W61380  31.996  15.086   2.778
89710W        W61381  13.709  16.256  12.507
89711W        W61382   9.448   2.712  12.770
89712W        W61383   0.363  36.655  12.969
89713W        W61384  42.226  23.731  14.777
89714W        W61385   9.230  36.879  13.795
89715W        W61386   0.537  25.982  11.138
89716W        W61387   0.829   8.826  11.014
89717W        W61388  24.290  27.935   3.251
89718W        W61389  10.873   1.795   3.783
89719W        W61390  39.464  28.103   4.281
89720W        W61391   4.459  20.276  14.899
89721W        W61392  39.051  40.422  11.313
89722W        W61393  40.282   7.396  12.999
89723W        W61394  39.169  37.291   3.673
89724W        W61395  21.079  15.702   0.089
89725W        W61396  18.105  38.603  14.882
89726W        W61397  32.095  14.892  13.980
89727W        W61398   0.216  34.887   0.518
89728W        W61399   1.482   6.650   1.777
89729W        W61400  30.395   2.657  13.257
89730W        W61401  41.483  21.216   4.212
89731W        W61402  32.348  23.197  11.808
89732W        W61403  21.220  11.716  10.684
89733W        W61404  42.776  13.268   3.935
89734W        W61405  14.475  25.528   3.785
89735W        W61406   2.061   9.919   1.646
89736W        W61407  15.673  11.814  11.015
89737W        W61408  16.902  35.002  14.475
89738W        W61409  40.955  32.641   3.246
89739W        W61410  32.454   8.324   3.955
89740W        W61411  24.758   7.600  12.632
89741W        W61412  37.369   1.334   3.895
89742W        W61413   0.957  20.154   1.650
89743W        W61414   9.486  34.871   3.248
89744W        W61415   0.328  10.255   3.627
89745W        W61416  20.154  19.565  12.037
89746W        W61417  34.622   3.478  10.701
89747W        W61418  35.364  11.798   3.999
89748W        W61419  23.133  24.754   2.799
89749W        W61420   1.978   9.281  10.706
89750W        W61421  28.419  29.389   0.207
89751W        W61422  42.948  17.169  12.426
89752W        W61423  44.449  41.468   1.893
89753W        W61424  31.342  26.446  12.683
89754W        W61425  25.945   1.462   0.772
89755W        W61426  44.530  31.983  12.850
89756W        W61427  19.601  30.140   4.177
89757W        W61428  10.193   0.419   3.742
89758W        W61429  39.921  34.052  13.426
89759W        W61430  36.530  24.988  14.730
89760W        W61431  32.542  22.230  13.694
89761W        W61432  32.576   4.616   4.075
89762W        W61433  13.097  19.692   2.854
89763W        W61434  18.317  38.945   1.928
89764W        W61435  25.790   0.519  10.713
89765W        W61436  12.766  28.391  13.792
89766W        W61437  43.555  10.845   2.382
89767W        W61438   0.289  41.305  13.033
89768W        W61439  41.204  28.486  12.622
89769W        W61440   5.004  27.224  10.898
89770W        W61441   5.785  31.075  11.968
89771W        W61442  28.882   9.751   2.860
89772W        W61443  39.868  31.045   2.649
89773W        W61444  43.256  26.638   3.220
89774W        W61445   2.421  16.266   0.322
89775W        W61446  10.176  11.622   2.782
89776W        W61447  40.630   4.456  14.323
89777W        W61448  10.035  32.567  13.345
89778W        W61449  12.625  34.684   0.422
89779W        W61450  44.064  30.125  13.919
89780W        W61451  27.405  31.197  12.814
89781W        W61452  35.478  18.984  14.532
89782W        W61453  30.322  24.762  14.407
89783W        W61454  13.412  12.872  11.183
89784W        W61455  31.471  28.523  10.545
89785W        W61456   4.398  25.632   0.371
89786W        W61457  33.942  12.638   3.698
89787W        W61458  14.058  32.254  13.013
89788W        W61459  14.899  30.667   2.183
89789W        W61460  14.655  17.007  12.586
89790W        W61461  20.177  20.253  11.633
89791W        W61462  32.037  13.076  13.918
89792W        W61463  38.970  32.901   3.272
89793W        W61464  29.935  38.101  13.089
89794W        W61465  13.805   5.791   1.241
89795W        W61466   7.306  31.327   4.027
89796W        W61467   1.847  15.785   2.678
89797W        W61468  21.199  10.749   0.343
89798W        W61469  35.478   7.314   4.830
89799W        W61470  43.293   8.790   4.998
89800W        W61471  44.822   1.664  12.047
89801W        W61472  34.356  26.602  10.504
89802W        W61473   2.846  40.363   1.315
89803W        W61474  42.854  34.167   3.672
89804W        W61475  15.264  11.849   3.689
89805W        W61476   5.242  30.426   1.801
89806W        W61477   9.926   7.652   1.806
89807W        W61478  20.748  15.081   3.704
89808W        W61479  29.460  23.716   2.331
89809W        W61480   1.742  19.413   0.800
89810W        W61481  26.717  18.526   3.212
89811W        W61482  38.375   0.660  11.579
89812W        W61483  30.161  15.296  10.969
89813W        W61484  34.430  33.098   0.898
89814W        W61485   1.238   0.441   3.205
89815W        W61486  40.741  26.511  10.262
89816W        W61487   3.567   1.761  11.052
89817W        W61488  15.526  39.566   1.786
89818W        W61489  15.847  41.350   1.961
89819W        W61490  12.352  34.841  14.470
89820W        W61491  18.657   3.755   4.579
89821W        W61492  26.051   1.736  12.379
89822W        W61493  34.928  36.472  12.936
89823W        W61494   0.424  17.902   4.059
89824W        W61495   0.637   1.620  11.714
89825W        W61496  22.610   6.699   2.822
89826W        W61497  25.608   9.030  11.153
89827W        W61498   9.206  38.773  11.485
89828W        W61499  34.778  27.709  11.437
89829W        W61500  12.258  32.024   3.662
89830W        W61501   9.641  25.926  13.413
89831W        W61502  12.574  34.187  14.560
89832W        W61503  35.397  37.010   3.658
89833W        W61504  31.029   7.191   0.881
89834W        W61505  14.645  34.603  11.219
89835W        W61506  26.568   7.000   1.757
89836W        W61507  43.845  18.228  11.535
89837W        W61508  30.419  24.433  14.808
89838W        W61509  29.418   0.440   1.441
89839W        W61510  16.524  11.674   1.820
89840W        W61511  33.009  27.674  14.058
89841W        W61512   1.762  23.323  11.934
89842W        W61513   5.716  43.017   2.863
89843W        W61514   0.933  40.060   4.329
89844W        W61515  25.026  32.086   3.729
89845W        W61516  42.464  39.313   1.362
89846W        W61517   7.868  18.270  11.946
89847W        W61518  24.070  24.155  12.169
89848W        W61519  32.433  26.701   0.513
89849W        W61520  25.974   8.205   2.154
89850W        W61521  41.350  33.403  14.763
89851W        W61522  10.820  13.418   1.195
89852W        W61523  42.769   9.963  10.458
89853W        W61524  31.091  19.210   1.940
89854W        W61525   2.659  21.046   0.816
89855W        W61526  34.437  17.520   0.952
89856W        W61527  36.313  42.654  11.086
89857W        W61528  11.606  13.898   2.698
89858W        W61529  24.486  17.377  11.559
89859W        W61530  25.898   3.814   3.231
89860W        W61531  12.167  19.446   3.692
89861W        W61532  12.205  16.871  10.749
89862W        W61533  38.503  24.094   4.146
89863W        W61534  33.040   7.759   1.798
89864W        W61535   4.860   0.828   2.301
89865W        W61536  23.747  39.544   3.718
89866W        W61537   3.704  34.296  12.621
89867W        W61538  17.852  20.225   2.807
89868W        W61539   7.309  42.904   4.035
89869W        W61540  28.885  42.998   4.782
89870W        W61541  35.917  16.821  13.088
89871W        W61542  44.603  16.163   3.174
89872W        W61543  41.043   6.122  10.892
89873W        W61544   7.493  41.157  14.592
89874W        W61545  31.929   6.924  13.521
89875W        W61546  30.187  23.411   0.616
89876W        W61547  31.698  10.875   0.141
89877W        W61548  37.375  26.056   3.235
89878W        W61549  14.092  41.825   3.323
89879W        W61550  44.494  42.833  12.815
89880W        W61551  25.713   8.275   4.606
89881W        W61552  13.323  25.116   2.272
89882W        W61553   6.463  31.981  14.484
89883W        W61554  17.954  44.673   1.301
89884W        W61555  36.863  32.506  11.665
89885W        W61556  15.693   5.404   2.203
89886W        W61557  17.723   9.093  14.112
89887W        W61558  38.389  30.671   0.208
89888W        W61559  41.266  25.593  11.174
89889W        W61560  39.914   7.744  13.137
89890W        W61561   5.264   3.263   3.661
89891W        W61562  22.293  18.063   4.372
89892W        W61563  34.797  39.479  10.723
89893W        W61564  19.572   9.150  11.980
89894W        W61565  15.247  11.568   3.208
89895W        W61566  40.958  25.302   3.273
89896W        W61567  44.401  13.840   1.669
89897W        W61568  11.731  29.906  10.823
89898W        W61569  23.290  35.653   0.788
89899W        W61570  39.537   5.285   4.683
89900W        W61571  20.093  17.372   2.444
89901W        W61572   4.453  41.881  11.495
89902W        W61573  18.565   7.822   3.274
89903W        W61574  18.837   2.901   3.384
89904W        W61575  24.122  12.532  14.667
89905W        W61576  19.478  26.621  13.775
89906W        W61577  25.514  25.140  11.210
89907W        W61578  22.657  25.741  11.210
89908W        W61579  43.545  38.074   2.282
89909W        W61580  27.420  18.740  12.389
89910W        W61581   9.634  19.573  13.502
89911W        W61582  24.367  44.807   1.152
89912W        W61583  43.491  35.356  11.999
89913W        W61584  24.234   3.017   0.821
89914W        W61585   4.039  44.965   4.915
89915W        W61586  13.045  30.354  13.536
89916W        W61587  12.329  23.779  11.632
89917W        W61588   4.118   8.420  12.329
89918W        W61589  12.340  10.433  11.266
89919W        W61590   4.776  38.296   3.206
89920W        W61591  30.246   1.823  12.153
89921W        W61592  33.630  14.798   0.138
89922W        W61593  19.338  14.482  12.074
89923W        W61594   8.124  10.672  14.242
89924W        W61595   5.337  40.391   3.367
89925W        W61596   9.357  22.609   2.404
89926W        W61597  40.040  28.770   0.967
89927W        W61598  12.188  31.951   1.804
89928W        W61599  27.907  42.039   1.214
89929W        W61600  16.072  24.992  14.989
89930W        W61601  37.309  21.381   9.906
89931W        W61602   9.421  35.841  14.042
89932W        W61603  43.295  20.241   4.214
89933W        W61604  16.387   6.642   2.175
89934W        W61605  15.488  33.401  13.090
89935W        W61606  14.117   5.705  13.015
89936W        W61607  44.835  26.492  12.009
89937W        W61608  30.591  41.847   0.759
89938W        W61609  11.447  24.710   1.362
89939W        W61610  38.752   3.448  14.573
89940W        W61611  32.815  37.815  13.581
89941W        W61612  28.414   8.737   3.656
89942W        W61613  25.776  41.290  14.392
89943W        W61614  11.664  23.070  12.310
89944W        W61615  44.970   9.856  12.402
89945W        W61616   4.753  12.320  12.085
89946W        W61617   0.877  26.724   3.476
89947W        W61618  21.571  28.525  12.510
89948W        W61619  44.209   6.273  13.449
89949W        W61620   1.995  39.778   4.123
89950W        W61621  17.271  29.694  14.025
89951W        W61622  11.619  38.960  13.801
89952W        W61623  30.612  35.563  12.495
89953W        W61624  39.796  40.789  11.034
89954W        W61625   2.250  34.415   1.426
89955W        W61626  12.931   6.089  14.915
89956W        W61627  35.488  35.523  12.157
89957W        W61628  31.572  10.403   3.177
89958W        W61629  18.688   3.844   2.604
89959W        W61630  37.750   5.444   1.156
89960W        W61631  30.514  11.218  11.544
89961W        W61632  36.333  35.511   2.598
89962W        W61633  14.149   1.036  14.852
89963W        W61634   7.246   8.151  10.732
89964W        W61635  31.982  34.350  10.767
89965W        W61636  10.792  18.954  14.491
89966W        W61637  32.156  16.506   2.783
89967W        W61638  25.719  26.150   1.362
89968W        W61639  10.657  25.267   3.535
89969W        W61640  16.655  31.089  13.431
89970W        W61641  29.402  18.483  11.455
89971W        W61642  30.471  12.211  11.486
89972W        W61643   5.952  12.054   4.345
89973W        W61644  20.988  27.365  11.630
89974W        W61645  42.803   6.290   0.595
89975W        W61646  10.837   6.758  13.931
89976W        W61647  38.837  22.584   1.379
89977W        W61648  41.785  16.839   0.084
89978W        W61649  16.537  27.382  12.810
89979W        W61650  29.015  24.039   2.113
89980W        W61651   9.705   3.458   3.731
89981W        W61652  26.980  29.562  10.952
89982W        W61653  38.827  15.276  13.174
89983W        W61654  11.864  43.538   3.782
89984W        W61655  30.608  25.709   2.042
89985W        W61656  24.724  30.920   3.678
89986W        W61657  36.096  19.582   4.658
89987W        W61658  16.152   7.835   3.729
89988W        W61659  16.830  29.238  12.574
89989W        W61660   8.747   4.928   1.172
89990W        W61661  33.436  33.302  12.051
89991W        W61662  29.075  12.357   0.864
89992W        W61663  28.021   6.096  10.176
89993W        W61664  21.514  18.116   2.573
89994W        W61665  10.726  19.476  14.458
89995W        W61666   3.417   2.734   3.242
89996W        W61667  21.780  34.856  11.150
89997W        W61668  35.851  35.436   0.850
89998W        W61669  26.409  20.293  12.556
89999W        W61670  42.774  13.698   0.456
90000W        W61671  25.929  33.163  11.055
90001W        W61672  16.232   9.462  11.155
90002W        W61673  14.195  44.838   3.290
90003W        W61674  15.226  36.034  11.865
90004W        W61675  12.867   1.422   3.654
90005W        W61676  24.272   4.402  11.476
90006W        W61677  25.280  41.985  14.743
90007W        W61678  30.709  25.076  14.305
90008W        W61679  31.629  23.949   3.458
90009W        W61680  15.258   5.148   5.126
90010W        W61681  37.537  22.360  12.549
90011W        W61682  41.874  32.651   3.076
90012W        W61683   9.917  31.398   1.243
90013W        W61684  18.726   1.143  11.892
90014W        W61685  23.397   0.813  14.978
90015W        W61686  39.744  29.218  13.004
90016W        W61687  34.814  42.457   3.812
90017W        W61688  17.184  30.697  13.826
90018W        W61689  34.905  11.656   2.310
90019W        W61690   1.953  38.740   0.508
90020W        W61691  38.832   5.966   2.700
90021W        W61692  11.090  23.643   4.624
90022W        W61693  29.939  34.202   0.418
90023W        W61694  31.131  30.197   4.703
90024W        W61695  17.313  19.531  13.499
90025W        W61696   1.277   9.324   3.811
90026W        W61697   4.406  41.997   3.536
90027W        W61698  20.552  38.326  13.893
90028W        W61699  23.443  25.773  12.594
90029W        W61700  28.276  35.079   2.867
90030W        W61701   5.193  32.444  13.042
90031W        W61702   5.696   5.853  14.530
90032W        W61703  44.687  32.456   2.606
90033W        W61704  23.291  37.972   3.574
90034W        W61705  42.012  42.817   2.808
90035W        W61706  32.813  14.688  11.037
90036W        W61707  38.482  21.901  12.769
90037W        W61708  17.254  35.161  13.200
90038W        W61709  12.323  44.027  14.495
90039W        W61710  14.860  15.965  12.380
90040W        W61711   9.671   9.609  12.057
90041W        W61712  28.649  40.884  13.940
90042W        W61713   6.230  10.226   5.097
90043W        W61714   6.249  34.014  11.560
90044W        W61715   9.980  34.768   3.155
90045W        W61716  30.626   4.706   3.151
90046W        W61717  12.838   7.812  13.784
90047W        W61718  12.855  22.616  14.108
90048W        W61719  25.432   6.455   1.040
90049W        W61720  36.831   8.762   1.241
90050W        W61721  10.507  21.186  11.815
90051W        W61722   8.893  32.457  12.444
90052W        W61723   4.937   6.197  12.137
90053W        W61724  16.163  32.750   4.421
90054W        W61725  15.673  43.264  10.803
90055W        W61726  31.104  23.699  12.157
90056W        W61727  35.375   9.061  12.531
90057W        W61728  17.282  30.938  10.801
90058W        W61729   5.859  11.129   1.776
90059W        W61730  14.301  23.811   1.135
90060W        W61731  14.230  21.054   3.706
90061W        W61732  10.293  25.675  10.438
90062W        W61733  37.150  33.082   2.373
90063W        W61734  20.131  39.564   3.866
90064W        W61735   7.867  14.205  11.507
90065W        W61736  38.373  43.825   1.363
90066W        W61737  20.892   2.827   0.869
90067W        W61738  30.949  26.157   4.633
90068W        W61739  40.405  33.828  14.866
90069W        W61740  28.188  35.539   3.446
90070W        W61741   8.875  17.460  10.812
90071W        W61742   7.493  32.142  14.491
90072W        W61743  18.595   3.430   0.230
90073W        W61744  39.428  34.872  11.450
90074W        W61745  40.509  12.310  12.509
90075W        W61746  23.075  19.092   1.844
90076W        W61747  32.881  23.392  14.972
90077W        W61748  14.461   0.299  14.410
90078W        W61749  41.891  33.238   3.774
90079W        W61750   8.003  42.442   0.801
90080W        W61751  34.349  33.054  13.934
90081W        W61752  34.495   1.808   3.597
90082W        W61753  15.288  41.414  12.609
90083W        W61754  36.552  36.326   3.167
90084W        W61755   6.170  30.028   3.154
90085W        W61756  40.384  31.568  10.481
90086W        W61757  43.692  32.406  11.960
90087W        W61758  37.917  22.555  10.873
90088W        W61759  17.113  27.604  12.156
90089W        W61760  10.558  26.073   0.800
90090W        W61761  22.630   4.346  10.199
90091W        W61762  39.603  26.015   2.086
90092W        W61763  16.796  25.482  10.660
90093W        W61764   3.948  12.856  10.382
90094W        W61765  28.169  25.948   0.255
90095W        W61766   2.385  25.285  13.889
90096W        W61767  27.380  16.769  12.578
90097W        W61768  35.048  15.996   3.286
90098W        W61769   9.620   1.426   1.387
90099W        W61770  27.828  41.287  12.376
90100W        W61771  42.273  16.700   1.618
90101W        W61772  41.084  41.602  14.079
90102W        W61773  23.826   1.987   3.579
90103W        W61774  30.070   5.384   4.734
90104W        W61775  33.337   8.922  12.070
90105W        W61776  42.268  43.077  12.839
90106W        W61777  43.746   6.334   4.348
90107W        W61778  13.835  19.846  11.467
90108W        W61779  32.758  24.484   4.565
90109W        W61780   3.773  39.834   4.889
90110W        W61781  37.053  40.939   2.807
90111W        W61782  19.371  42.908   2.413
90112W        W61783  22.543  26.676   3.584
90113W        W61784   7.627   8.253  12.336
90114W        W61785  43.484  25.050  10.972
90115W        W61786  19.564  34.115   4.538
90116W        W61787  34.992   2.150   4.842
90117W        W61788  30.538  39.483  14.403
90118W        W61789   0.176  19.337   1.792
90119W        W61790   2.543  32.401  10.981
90120W        W61791  11.772  41.983   1.827
90121W        W61792  28.107   4.810   0.986
90122W        W61793  15.875  15.023   2.327
90123W        W61794  26.852  41.539  13.469
90124W        W61795  39.730  19.025   3.788
90125W        W61796  17.762  15.617   3.152
90126W        W61797  31.484  27.603   1.778
90127W        W61798   4.479  26.175  12.873
90128W        W61799  26.043  22.612   4.106
90129W        W61800  28.226  35.823  12.068
90130W        W61801  20.516  11.418  13.410
90131W        W61802  18.007  17.217   1.826
90132W        W61803  39.759  21.025   2.367
90133W        W61804  13.843  26.218   4.113
90134W        W61805  35.016  19.937  11.115
90135W        W61806  32.858  15.912  12.451
90136W        W61807  29.723  38.950   4.087
90137W        W61808  42.087  25.637   4.052
90138W        W61809  36.587   0.446  10.353
90139W        W61810  38.834  36.040  12.027
90140W        W61811   3.399  16.152  10.638
90141W        W61812  39.814  34.839  14.268
90142W        W61813  17.948  37.085   0.167
90143W        W61814   1.823   9.643   4.212
90144W        W61815   9.184   5.987   3.197
90145W        W61816  18.373  38.181  14.743
90146W        W61817  43.976  24.729  10.711
90147W        W61818  44.639  23.135   0.582
90148W        W61819  42.407   9.418   3.697
90149W        W61820  40.304  11.989  10.886
90150W        W61821  27.035  10.298   2.446
90151W        W61822  12.493   9.379  14.584
90152W        W61823  43.511  14.590   1.247
90153W        W61824  15.716  22.532   1.432
90154W        W61825   9.870  18.600   2.855
90155W        W61826   3.754  15.384   3.826
90156W        W61827   7.400  20.977   4.123
90157W        W61828   4.320  11.598  10.556
90158W        W61829  30.445  11.877   1.761
90159W        W61830  39.041  13.326   1.454
90160W        W61831   3.769   8.206  11.970
90161W        W61832   0.836  44.934   4.393
90162W        W61833  43.939  33.368  14.893
90163W        W61834  42.007   7.264  13.535
90164W        W61835   7.860  15.543  13.355
90165W        W61836  10.204  12.576   3.677
90166W        W61837  19.651  36.832   4.234
90167W        W61838  41.975  38.154   9.955
90168W        W61839  22.488  40.180  14.382
90169W        W61840  33.353  19.161   3.209
90170W        W61841  37.414  31.708   3.301
90171W        W61842  25.257  34.838   2.728
90172W        W61843   3.134  17.979  10.630
90173W        W61844  20.144  33.647  14.988
90174W        W61845  15.371   0.537   2.440
90175W        W61846  19.354  15.173   4.958
90176W        W61847  15.388  35.957   4.347
90177W        W61848   2.499  39.076   3.619
90178W        W61849  29.293  14.930   1.427
90179W        W61850  28.324  37.149   4.195
90180W        W61851  27.905  43.448  10.571
90181W        W61852   5.085   0.997   2.751
90182W        W61853  44.846  18.657   2.950
90183W        W61854  37.931  31.413  14.688
90184W        W61855  32.645  29.080   2.459
90185W        W61856  40.136  37.986  12.484
90186W        W61857  21.546  29.469   3.206
90187W        W61858  36.571  39.546   1.433
90188W        W61859   9.246   5.567  12.068
90189W        W61860  15.582   9.402   3.804
90190W        W61861   2.511  42.843  14.954
90191W        W61862  37.475  21.147  12.444
90192W        W61863  43.477   8.261  13.990
90193W        W61864  30.895  18.058   3.337
90194W        W61865  16.134  23.909  12.198
90195W        W61866  29.241   3.572   3.791
90196W        W61867  23.684  19.706   2.664
90197W        W61868  32.423  16.642   0.511
90198W        W61869  14.519   8.237  11.176
90199W        W61870  17.510   5.396   2.465
90200W        W61871  19.643   1.408  12.573
90201W        W61872  44.968  17.104   2.835
90202W        W61873  38.744  27.627   4.874
90203W        W61874   9.721  28.775  14.350
90204W        W61875  42.741  41.054   3.864
90205W        W61876  16.072   4.021  11.088
90206W        W61877   1.751   2.055   1.766
90207W        W61878  25.156  39.439  12.920
90208W        W61879  43.572  11.235  14.797
90209W        W61880  36.565  12.028  13.344
90210W        W61881  23.553  11.865   4.861
90211W        W61882   1.894  13.634   1.770
90212W        W61883  33.916  13.751   0.851
90213W        W61884   2.766  17.635   1.328
90214W        W61885   7.033  30.611   4.172
90215W        W61886  27.155  31.748   2.906
90216W        W61887  42.322  32.838  12.105
90217W        W61888  43.785  17.634   3.783
90218W        W61889  20.324   9.367   3.402
90219W        W61890  11.643  19.216  13.912
90220W        W61891  38.794   4.306  10.662
90221W        W61892   9.814  20.326  11.507
90222W        W61893   2.436  19.863  10.257
90223W        W61894  41.957   1.318  12.499
90224W        W61895  27.105   9.338   2.674
90225W        W61896  40.772  42.861  14.203
90226W        W61897  34.567  37.322  13.340
90227W        W61898  34.133  32.329  11.479
90228W        W61899  36.516   3.806   2.787
90229W        W61900   3.331  39.542  12.102
90230W        W61901  18.877  33.954   3.562
90231W        W61902  28.136  25.166   2.107
90232W        W61903  11.341   8.821  12.500
90233W        W61904  23.937  18.662  11.446
90234W        W61905  33.206  32.375   3.235
90235W        W61906  23.546  42.485  14.870
90236W        W61907  10.564  16.053  11.538
90237W        W61908  42.535  16.025   3.754
90238W        W61909  40.118  10.451   0.784
90239W        W61910  12.742  13.163   1.686
90240W        W61911  42.383  44.333  12.036
90241W        W61912  16.320  32.556  13.477
90242W        W61913  34.209  20.237   3.772
90243W        W61914  36.909  27.115   0.387
90244W        W61915  32.543   4.580   4.978
90245W        W61916  34.897   8.257   0.804
90246W        W61917  36.338  35.167  14.746
90247W        W61918  13.275  37.343   4.166
90248W        W61919   0.284   2.439  11.219
90249W        W61920   1.386  23.572  10.330
90250W        W61921   7.702  30.112  11.171
90251W        W61922   5.256   1.641   0.499
90252W        W61923  24.437  18.192  12.049
90253W        W61924  18.442  41.794   2.450
90254W        W61925  17.521  35.328  10.745
90255W        W61926   5.149  26.996  11.641
90256W        W61927   5.652  39.312   0.187
90257W        W61928   3.848  15.560   0.970
90258W        W61929  25.616  40.380  14.447
90259W        W61930  12.565  25.215   0.903
90260W        W61931   0.229  13.301   4.914
90261W        W61932  17.150  13.231   3.984
90262W        W61933   2.760  24.129   1.793
90263W        W61934  35.734  34.132  12.145
90264W        W61935  34.881  22.520  12.009
90265W        W61936  29.240  36.596  13.504
90266W        W61937   0.255  41.850   2.258
90267W        W61938  39.553  41.621  12.573
90268W        W61939  23.214   4.885   2.161
90269W        W61940   5.966  38.927  13.995
90270W        W61941  36.328  41.424   0.335
90271W        W61942  15.200   4.592   5.108
90272W        W61943   7.698  13.307   1.382
90273W        W61944   3.509  10.388   1.340
90274W        W61945  27.878   5.200   0.749
90275W        W61946  25.102   3.297   2.679
90276W        W61947  40.501  30.580  11.444
90277W        W61948  14.619  25.112  13.304
90278W        W61949  19.605  19.531   4.651
90279W        W61950  40.292  20.810  13.430
90280W        W61951  27.268  28.162   0.942
90281W        W61952  18.508  15.768   2.736
90282W        W61953  31.669  23.646  13.821
90283W        W61954   2.191   9.613  13.287
90284W        W61955  25.277  28.374  12.401
90285W        W61956   2.377  29.445   3.277
90286W        W61957  11.657  42.940   0.089
90287W        W61958  25.806  33.099  13.392
90288W        W61959  15.786  23.039   2.242
90289W        W61960  19.800   6.222   1.332
90290W        W61961   3.044   2.338  14.479
90291W        W61962  28.568  16.858  11.070
90292W        W61963  29.573  15.407  13.995
90293W        W61964   4.201   3.768   4.169
90294W        W61965   6.974  40.798   3.789
90295W        W61966  25.690  35.178  13.991
90296W        W61967  22.160   5.729  10.929
90297W        W61968   7.869  34.374   3.258
90298W        W61969  18.702  20.797   3.107
90299W        W61970  11.248  38.236   1.849
90300W        W61971  44.272  17.291   1.805
90301W        W61972  43.793  36.507  10.744
90302W        W61973  32.738  14.383   0.933
90303W        W61974  15.059  15.065   2.732
90304W        W61975  34.583  23.192  14.292
90305W        W61976  40.090  34.358  14.410
90306W        W61977  15.802  40.606  14.755
90307W        W61978  22.630  25.293   2.748
90308W        W61979  22.205   5.272  10.707
90309W        W61980  35.716  38.791   0.017
90310W        W61981  10.197  13.514  10.649
90311W        W61982  17.321  10.449   0.808
90312W        W61983  31.503   2.315  13.064
90313W        W61984  27.012   1.411  12.378
90314W        W61985  19.483  29.069  11.570
90315W        W61986  32.513  39.640  13.251
90316W        W61987  36.113  12.782  11.620
90317W        W61988  16.026  36.994  11.818
90318W        W61989  43.441  41.369   1.833
90319W        W61990  37.815  22.493   3.248
90320W        W61991   1.887  29.092   0.166
90321W        W61992  13.653  39.445  11.906
90322W        W61993  30.258  42.295  10.606
90323W        W61994  10.956  22.116   4.827
90324W        W61995  20.018   9.310  12.881
90325W        W61996  12.792  33.169   0.382
90326W        W61997  38.031  26.792   0.768
90327W        W61998  23.961   7.387  13.428
90328W        W61999   0.075  11.711  12.630
90329W        W62000  24.010   0.294  11.931
90330W        W62001  37.686  22.729  12.217
90331W        W62002  18.332  12.911  10.098
90332W        W62003  31.401  20.659   3.824
90333W        W62004   3.545  11.092   0.346
90334W        W62005  21.377   7.744   1.410
90335W        W62006  40.182  37.297  13.244
90336W        W62007  16.928   0.988   5.040
90337W        W62008   0.617  12.172   3.792
90338W        W62009  12.657  33.506  12.830
90339W        W62010  14.673  12.425   4.567
90340W        W62011   6.941  11.766  12.670
90341W        W62012  12.264  24.623  13.404
90342W        W62013  34.580   8.415   0.359
90343W        W62014   2.199  35.924   4.541
90344W        W62015   2.254  37.081   2.784
90345W        W62016   7.556  38.317  12.390
90346W        W62017  15.641  14.218  10.662
90347W        W62018  15.318   5.886   3.410
90348W        W62019  35.990   1.791  14.942
90349W        W62020  17.155  34.631   4.152
90350W        W62021   9.380   1.955  13.508
90351W        W62022  43.925  25.219  14.557
90352W        W62023  29.482  25.207  10.623
90353W        W62024  18.086  33.555   0.367
90354W        W62025   9.471  17.158  13.517
90355W        W62026   6.948  29.118   4.201
90356W        W62027   0.270  44.043  11.558
90357W        W62028  19.534  27.192  10.086
90358W        W62029   3.867  34.821  12.646
90359W        W62030  11.708   5.727   3.909
90360W        W62031  37.385   1.107  14.265
90361W        W62032  12.402  40.887  11.243
90362W        W62033  37.129  26.608  11.521
90363W        W62034  42.438  30.517  13.228
90364W        W62035  12.838  41.027  14.846
90365W        W62036  38.067  23.162   0.279
90366W        W62037  13.194   4.283  13.093
90367W        W62038  31.667   7.638  11.969
90368W        W62039  30.712  38.087   3.741
90369W        W62040  11.287  36.561   2.502
90370W        W62041  39.508  24.580  13.575
90371W        W62042  33.175  20.165  12.437
90372W        W62043  42.539   1.837   2.808
90373W        W62044  44.790   4.667  10.666
90374W        W62045  36.340  27.483   3.745
90375W        W62046  18.197  22.619  13.765
90376W        W62047  32.933  34.436   2.235
90377W        W62048  18.627  44.422   1.925
90378W        W62049   0.831  42.411   1.875
90379W        W62050  31.202  37.661  13.014
90380W        W62051   2.528  30.371  11.659
90381W        W62052  17.219  17.323   2.241
90382W        W62053  28.609  17.520   4.557
90383W        W62054   3.578  26.590   4.846
90384W        W62055  44.909  19.719  13.396
90385W        W62056  40.950  40.546  12.708
90386W        W62057  33.308  26.619  12.539
90387W        W62058  36.022  35.922  13.967
90388W        W62059   6.998   5.762   4.522
90389W        W62060  28.948  10.118   0.039
90390W        W62061  35.905   5.985   0.285
90391W        W62062  19.581  21.111  10.546
90392W        W62063  21.758  27.090   3.202
90393W        W62064  12.636  23.538   2.235
90394W        W62065  17.572   0.512  12.580
90395W        W62066   0.391  13.339  12.689
90396W        W62067  11.857  20.024  13.317
90397W        W62068   5.758  13.627  12.001
90398W        W62069  42.441  24.603  10.766
90399W        W62070   3.428  38.309  14.035
90400W        W62071  11.254  37.490  13.746
90401W        W62072  17.597  36.032  14.986
90402W        W62073  32.968  34.130  14.987
90403W        W62074  21.872  26.437   5.356
90404W        W62075  30.157  12.230   2.658
90405W        W62076  36.565  35.027  12.976
90406W        W62077  44.708  25.177   1.322
90407W        W62078  27.104  44.324  12.051
90408W        W62079  33.879  28.927   0.777
90409W        W62080   9.119  20.808   4.640
90410W        W62081  13.862  32.024   1.826
90411W        W62082  30.167  25.426   1.826
90412W        W62083  14.288  34.010   4.633
90413W        W62084   3.288  29.243  14.831
90414W        W62085  18.203  13.856  13.837
90415W        W62086  12.154  41.893  12.034
90416W        W62087  34.328  24.579  11.664
90417W        W62088  19.110  16.782   2.718
90418W        W62089  42.924  20.244   1.861
90419W        W62090  18.894  18.739  10.655
90420W        W62091  17.153   0.484  11.013
90421W        W62092  30.888  22.459   1.602
90422W        W62093  35.864  38.670  10.618
90423W        W62094  38.331  14.310  13.561
90424W        W62095  24.362  23.776   3.638
90425W        W62096   1.905   1.192   3.748
90426W        W62097  26.610  27.747   2.115
90427W        W62098  31.708  34.261  11.208
90428W        W62099  15.569  31.658   4.180
90429W        W62100  28.167  43.920  10.956
90430W        W62101  16.870  13.236  12.457
90431W        W62102  37.416  43.472   1.166
90432W        W62103  22.718  16.708  13.420
90433W        W62104  39.825  13.071  13.553
90434W        W62105  36.602  20.719  13.420
90435W        W62106  36.188  36.061   2.413
90436W        W62107  40.127  22.618   0.259
90437W        W62108  12.159   8.795  12.336
90438W        W62109  24.997  22.721   4.565
90439W        W62110  33.009   5.651  13.588
90440W        W62111  31.894  26.431   0.423
90441W        W62112   1.809  33.670   4.282
90442W        W62113  34.837  17.744   1.763
90443W        W62114  40.069  11.230  11.170
90444W        W62115  26.595  41.553   4.747
90445W        W62116  28.009  35.569   0.508
90446W        W62117  13.759  39.791  13.488
90447W        W62118  44.245   1.564   2.890
90448W        W62119  38.070  28.358   4.592
90449W        W62120  28.916   4.162   4.480
90450W        W62121   9.646   6.303  11.125
90451W        W62122  11.097   9.340  14.842
90452W        W62123  32.439  39.356  14.226
90453W        W62124  18.534  24.387  11.573
90454W        W62125  38.441  23.257  12.989
90455W        W62126  40.060   5.014  14.043
90456W        W62127   4.763  18.707   2.249
90457W        W62128  11.676  34.137  13.665
90458W        W62129  27.475  18.047  12.141
90459W        W62130  44.012  29.112   3.011
90460W        W62131  32.128  17.838   1.350
90461W        W62132  16.033   4.988   5.453
90462W        W62133  12.554   5.666  10.844
90463W        W62134  44.870  19.246   2.195
90464W        W62135  41.932  42.361  12.591
90465W        W62136  10.283  19.098   3.623
90466W        W62137  11.500  33.726   4.574
90467W        W62138   7.280   2.779  12.858
90468W        W62139   4.469  10.855  12.501
90469W        W62140  33.840  15.681  12.426
90470W        W62141  22.143  22.456   2.545
90471W        W62142  30.042  42.304   3.412
90472W        W62143  42.590  32.675   1.338
90473W        W62144  25.825  26.855   3.077
90474W        W62145   0.396  27.938   1.218
90475W        W62146   6.145   5.693   3.197
90476W        W62147  25.552  11.309   4.167
90477W        W62148  43.867  32.207   2.932
90478W        W62149  44.382  20.349  10.644
90479W        W62150  28.063  43.082   5.199
90480W        W62151   1.997  42.163  11.379
90481W        W62152  31.401  31.877  13.530
90482W        W62153  12.575  40.347  10.572
90483W        W62154  32.138  22.074  13.304
90484W        W62155  26.213  32.645  14.625
90485W        W62156  32.566  35.134  13.301
90486W        W62157  40.141  19.811  14.826
90487W        W62158  37.825  36.157  12.081
90488W        W62159  21.511  36.926  10.610
90489W        W62160  32.311  38.895   4.996
90490W        W62161  16.716  44.018   1.397
90491W        W62162  31.543  16.352   3.322
90492W        W62163  11.851   5.394  13.836
90493W        W62164  24.547   0.840  11.408
90494W        W62165   6.143  22.755  10.746
90495W        W62166   7.168  40.355  10.739
90496W        W62167  16.536   6.563   0.852
90497W        W62168  27.225  31.478  13.192
90498W        W62169  28.605  23.575   1.808
90499W        W62170   1.779  15.328   2.899
90500W        W62171  29.287   1.904  12.244
90501W        W62172   2.296  22.283  12.604
90502W        W62173   7.757  44.981   1.833
90503W        W62174   9.049  32.695   3.968
90504W        W62175  29.346  29.320   4.593
90505W        W62176  11.636   6.251  12.454
90506W        W62177  11.164  18.680   3.594
90507W        W62178  11.668  15.905   4.778
90508W        W62179  39.002  39.907  11.444
90509W        W62180  18.599  24.287   1.369
90510W        W62181  26.495  35.658   4.117
90511W        W62182  20.738  28.282  13.917
90512W        W62183   5.700   1.351  13.876
90513W        W62184  32.514   7.877   2.692
90514W        W62185  41.763  42.081   0.720
90515W        W62186  32.111  39.009  11.137
90516W        W62187   3.228  44.822   3.268
90517W        W62188  29.712   6.423  12.910
90518W        W62189  34.838   9.247  14.735
90519W        W62190  30.913  36.917   1.061
90520W        W62191  16.630  40.433  14.965
90521W        W62192  37.172   7.861   2.130
90522W        W62193  44.529   3.769  13.300
90523W        W62194   8.763  35.658  11.228
90524W        W62195  34.006  41.003   4.424
90525W        W62196  16.075  31.860   1.371
90526W        W62197  39.011  24.152  12.478
90527W        W62198  25.009  11.343  13.757
90528W        W62199  31.594  34.831  13.420
90529W        W62200  37.204  37.841   5.053
90530W        W62201  38.229   2.836  10.744
90531W        W62202  43.770  18.557  13.730
90532W        W62203  44.419  38.246   2.680
90533W        W62204  44.300   8.136  12.064
90534W        W62205   0.971  41.594   1.925
90535W        W62206  44.496  16.623  12.981
90536W        W62207  39.227  16.283   4.213
90537W        W62208   2.323  36.084   3.664
90538W        W62209  10.679  15.293  13.527
90539W        W62210  42.757  31.338   2.228
90540W        W62211  41.963  29.458  14.214
90541W        W62212  19.661  17.599  10.369
90542W        W62213  20.448   4.858   4.967
90543W        W62214  19.597  21.069   1.823
90544W        W62215  44.537  21.542  11.554
90545W        W62216  18.116  26.711   1.269
90546W        W62217   7.422  40.952  14.102
90547W        W62218  27.545  10.182   1.308
90548W        W62219  13.039   9.315  10.623
90549W        W62220  36.926  36.085   2.811
90550W        W62221  40.713   4.224   4.891
90551W        W62222  20.885  37.815  12.973
90552W        W62223   0.032   5.785   0.885
90553W        W62224  39.802  20.858   1.655
90554W        W62225  29.388  22.442  12.517
90555W        W62226  12.957  37.786  11.168
90556W        W62227  27.445  25.428   1.961
90557W        W62228  22.942  43.943  11.722
90558W        W62229  16.567  14.302   5.182
90559W        W62230  23.475  18.205   2.452
90560W        W62231  36.009   6.265   1.824
90561W        W62232  22.905  13.722   0.330
90562W        W62233   2.000  42.347  13.502
90563W        W62234  25.636  18.798   1.387
90564W        W62235  15.139   0.254   1.732
90565W        W62236  42.302   5.349   1.351
90566W        W62237   7.455  13.929   1.824
90567W        W62238  33.332  44.860  12.853
90568W        W62239  17.434  25.824   4.199
90569W        W62240   8.622   2.529   4.779
90570W        W62241  15.730  36.058  13.011
90571W        W62242  14.447   5.166  14.876
90572W        W62243  13.089   8.344  13.808
90573W        W62244  25.118  11.409   3.925
90574W        W62245  27.189  22.334   2.413
90575W        W62246  17.740   2.275   2.277
90576W        W62247  37.493  29.005   1.414
90577W        W62248  22.918  38.371   3.665
90578W        W62249  38.255  10.213  10.851
90579W        W62250  33.456   3.198  14.327
90580W        W62251  18.132   6.925   3.974
90581W        W62252  40.553  30.617  13.984
90582W        W62253  23.524  39.986  14.295
90583W        W62254  43.796  13.033  14.772
90584W        W62255  19.608  44.028   2.471
90585W        W62256  30.601  19.250  13.623
90586W        W62257  24.692  32.588   0.963
90587W        W62258  24.732  24.530  11.086
90588W        W62259  19.675  18.654  14.936
90589W        W62260  26.670  29.269  10.154
90590W        W62261  42.308   9.346  12.029
90591W        W62262  33.085   6.897  13.981
90592W        W62263  17.882  18.591   0.203
90593W        W62264  19.125  23.434   4.282
90594W        W62265  38.147  41.630   3.672
90595W        W62266   4.991  31.891  14.779
90596W        W62267   1.058  31.761   0.808
90597W        W62268   8.917  21.661  14.423
90598W        W62269  10.121   4.634  10.959
90599W        W62270   9.394  13.904   3.692
90600W        W62271   5.201  31.435  14.918
90601W        W62272  19.124   1.950   4.561
90602W        W62273   1.767  42.783   3.743
90603W        W62274  39.354  29.051   1.142
90604W        W62275  31.182  10.914   3.260
90605W        W62276  19.678  20.942   2.364
90606W        W62277  30.553  40.343  10.618
90607W        W62278  32.468  41.280   3.197
90608W        W62279  16.808  31.983   3.852
90609W        W62280  15.610  42.835  12.839
90610W        W62281  43.427  17.198   2.088
90611W        W62282   1.765  31.901  12.604
90612W        W62283  22.312   1.958  12.451
90613W        W62284  40.526  27.034  12.039
90614W        W62285   5.768   3.918  13.799
90615W        W62286  16.628  29.944  14.920
90616W        W62287  22.532  17.686  12.944
90617W        W62288  44.064  11.064  13.946
90618W        W62289   8.833  35.080   2.800
90619W        W62290  18.755   6.862   0.492
90620W        W62291  13.657   9.203  13.054
90621W        W62292  34.319  34.573   3.866
90622W        W62293   0.694  19.283  13.850
90623W        W62294  40.731  43.240   4.318
90624W        W62295   9.642  36.921   0.012
90625W        W62296  37.078  38.609  10.615
90626W        W62297  22.268  11.566  11.151
90627W        W62298  16.227  27.098   2.681
90628W        W62299  30.670  40.406  12.880
90629W        W62300  36.385  42.384   2.338
90630W        W62301   6.903   4.864  13.963
90631W        W62302  34.913   7.649   3.704
90632W        W62303  17.088  27.784  13.099
90633W        W62304  41.814  24.324  14.349
90634W        W62305  17.128  15.744   0.811
90635W        W62306  26.847  37.479  13.968
90636W        W62307  32.197  36.182   2.852
90637W        W62308  35.850  32.858   3.695
90638W        W62309  29.686  12.188  12.617
90639W        W62310  19.225  41.830   4.630
90640W        W62311  20.052  23.466   2.742
90641W        W62312  40.284  30.208  12.197
90642W        W62313   7.867  43.909   1.133
90643W        W62314  29.710  17.005   0.431
90644W        W62315   7.657  33.394   0.855
90645W        W62316  25.782   1.797  14.065
90646W        W62317   2.550  34.045   2.286
90647W        W62318  27.679  44.763  10.724
90648W        W62319   2.776  34.548   2.191
90649W        W62320   0.897  13.529   4.241
90650W        W62321   8.480  31.132  14.851
90651W        W62322   1.422  20.588  12.663
90652W        W62323  31.354  16.372   0.536
90653W        W62324  25.674  13.553  14.314
90654W        W62325  42.478  44.520   3.274
90655W        W62326  34.049  34.399   1.886
90656W        W62327  16.025  13.004   3.216
90657W        W62328  19.154   0.971   4.552
90658W        W62329  17.713  16.049  11.525
90659W        W62330  24.681  42.512   0.896
90660W        W62331   5.250  25.460   1.659
90661W        W62332  15.485  10.356   2.755
90662W        W62333  18.791  30.295   1.365
90663W        W62334  12.220  42.703   2.066
90664W        W62335   8.643   6.213   3.916
90665W        W62336  31.919  10.386  11.215
90666W        W62337   7.735   1.005   4.740
90667W        W62338  34.922  10.525   9.866
90668W        W62339  31.483  31.183  12.127
90669W        W62340   7.297  36.511  12.530
90670W        W62341   1.986  24.505  13.981
90671W        W62342  35.622  37.956  12.366
90672W        W62343  12.287  24.522  11.124
90673W        W62344  17.232  14.526   4.602
90674W        W62345  20.707  20.675  13.540
90675W        W62346  16.330  10.230   4.799
90676W        W62347   9.188  20.495  11.640
90677W        W62348  35.152  12.284  14.299
90678W        W62349  43.536  37.675  11.018
90679W        W62350   0.985  33.068  10.681
90680W        W62351  31.184   4.243   3.276
90681W        W62352  11.951  40.759  13.010
90682W        W62353  37.013  36.521   4.947
90683W        W62354  29.081  28.218   4.051
90684W        W62355  41.379   6.378   0.268
90685W        W62356  28.578   7.715  10.696
90686W        W62357  23.983  39.236  13.357
90687W        W62358  36.130  11.459   3.130
90688W        W62359  38.713  29.034  14.301
90689W        W62360  44.241  43.730  11.196
90690W        W62361  25.645  32.219  11.996
90691W        W62362  28.555  44.363   1.298
90692W        W62363  29.117  37.177   2.116
90693W        W62364  31.806   8.504   5.013
90694W        W62365  37.087  28.728  11.945
90695W        W62366  41.414  13.049  11.940
90696W        W62367  34.099  14.313  14.029
90697W        W62368   4.222  31.906   0.209
90698W        W62369  15.531   6.401   3.653
90699W        W62370  39.284   9.244  10.790
90700W        W62371  34.316   8.841  12.908
90701W        W62372  43.300  38.352   1.899
90702W        W62373  10.636  32.155  11.859
90703W        W62374  34.908   8.232   4.260
90704W        W62375  14.706  23.647  12.037
90705W        W62376  31.052   8.582   1.533
90706W        W62377  28.010  35.940  11.622
90707W        W62378  34.321  36.866  13.125
90708W        W62379  25.701   1.437  13.558
90709W        W62380  32.331  42.865   4.840
90710W        W62381   7.690   2.432   2.342
90711W        W62382   8.575  26.387   0.462
90712W        W62383  19.327  12.813  11.704
90713W        W62384  30.649   0.527   3.315
90714W        W62385  32.623   7.974  14.504
90715W        W62386   4.178  16.490  11.740
90716W        W62387  43.223  33.842  14.485
90717W        W62388  44.841  42.960   4.164
90718W        W62389  42.010  29.135   2.865
90719W        W62390  17.805  33.912   3.093
90720W        W62391  37.057  27.977   2.819
90721W        W62392  19.120   9.215   1.878
90722W        W62393  40.393  27.135   0.431
90723W        W62394  16.254  16.212   3.829
90724W        W62395  14.272  10.527   2.124
90725W        W62396   6.922  22.693  12.371
90726W        W62397   8.291   4.950   3.408
90727W        W62398  37.287  15.772   4.661
90728W        W62399  23.777  13.746  14.287
90729W        W62400  41.136   2.351  11.583
90730W        W62401  32.504  12.708   3.284
90731W        W62402  38.178   4.030  13.978
90732W        W62403  41.381  36.706  11.635
90733W        W62404   5.353   0.698  13.831
90734W        W62405  28.254   3.713  11.082
90735W        W62406  26.148  27.519  12.280
90736W        W62407   9.657  35.944  10.719
90737W        W62408  14.182  23.668  11.438
90738W        W62409  14.280   2.663   1.797
90739W        W62410   7.431  31.002   0.981
90740W        W62411  32.412  17.873  13.375
90741W        W62412  26.581  13.749  12.835
90742W        W62413  25.886  38.249   2.208
90743W        W62414  13.296  33.537   1.479
90744W        W62415  35.352  43.447  12.996
90745W        W62416  41.495  42.982  13.485
90746W        W62417  26.779  23.743   0.337
90747W        W62418  37.881  23.687   0.870
90748W        W62419  40.996  19.106   0.410
90749W        W62420  24.212  31.099   3.667
90750W        W62421   8.505  31.551   3.260
90751W        W62422   2.805  37.934   2.620
90752W        W62423  13.200  10.982   1.701
90753W        W62424  44.974  29.736   4.893
90754W        W62425  44.723   8.871  11.890
90755W        W62426  13.533  43.021  11.611
90756W        W62427  14.573  29.008  13.468
90757W        W62428  20.019  10.832  12.511
90758W        W62429  43.865  41.286  10.521
90759W        W62430  10.731   7.583   2.250
90760W        W62431  24.003  13.207   0.357
90761W        W62432  17.206  15.747  13.994
90762W        W62433  38.889  14.514  10.259
90763W        W62434  24.683  31.454  11.038
90764W        W62435  29.150  11.902   1.098
90765W        W62436  25.500  22.116  13.494
90766W        W62437   0.453  35.822   1.923
90767W        W62438  18.205  21.271  13.887
90768W        W62439  22.677  28.663   4.316
90769W        W62440   5.216  22.354   2.163
90770W        W62441  32.341  30.130   1.851
90771W        W62442  20.720  25.044  14.023
90772W        W62443   9.689  27.515  14.715
90773W        W62444  40.459  14.845   0.892
90774W        W62445   7.929   0.701  13.301
90775W        W62446  19.239  42.353   2.157
90776W        W62447   0.593  16.322   3.249
90777W        W62448  39.411  42.082  12.381
90778W        W62449   2.949  19.207  14.101
90779W        W62450  22.651  34.553   2.820
90780W        W62451  25.949  38.097  13.385
90781W        W62452   1.793  34.577   2.398
90782W        W62453   3.785  26.156   4.030
90783W        W62454   3.641   2.465   2.464
90784W        W62455  25.712   0.215  13.954
90785W        W62456  24.320  35.574  14.139
90786W        W62457  17.187  31.506   0.372
90787W        W62458   4.206  41.935  10.500
90788W        W62459  37.428  38.924   3.864
90789W        W62460  19.342  37.308   2.669
90790W        W62461  43.788  10.778  14.998
90791W        W62462  40.018  21.592   0.941
90792W        W62463  27.369  26.118  13.950
90793W        W62464  21.880  22.233   3.479
90794W        W62465   0.353  24.616   0.728
90795W        W62466   1.079  27.997  12.446
90796W        W62467   2.212  15.736   1.665
90797W        W62468  17.059   7.179   4.758
90798W        W62469  29.488   0.357   3.771
90799W        W62470  25.863  28.974   0.959
90800W        W62471  12.330  12.630  12.183
90801W        W62472   7.838   3.527  14.825
90802W        W62473   9.308  24.676   2.752
90803W        W62474  35.513  16.947  14.374
90804W        W62475  16.126  20.050  11.343
90805W        W62476   6.381  27.558  12.902
90806W        W62477  42.694  43.365   1.692
90807W        W62478  19.517  43.672   0.531
90808W        W62479  13.731  24.731  12.511
90809W        W62480  40.569  10.890  13.498
90810W        W62481  31.627  25.110  12.713
90811W        W62482   2.929  10.256   1.144
90812W        W62483  39.989  35.162   2.299
90813W        W62484  26.260  23.229   2.849
90814W        W62485   3.816  21.036  14.109
90815W        W62486   3.960  32.980  13.461
90816W        W62487  26.700  22.306  13.161
90817W        W62488  10.247  41.459   4.541
90818W        W62489  10.282  13.079   4.638
90819W        W62490   2.120   3.878  12.129
90820W        W62491  27.983  29.515  12.375
90821W        W62492  17.273  36.610  12.612
90822W        W62493   8.177  32.947   2.698
90823W        W62494  35.504  21.059   3.669
90824W        W62495  17.420   8.126  12.063
90825W        W62496  16.532  19.965   4.265
90826W        W62497   6.143  38.427   2.852
90827W        W62498  38.274  25.394  14.545
90828W        W62499  31.988  26.730   0.838
90829W        W62500  44.975   7.928   4.544
90830W        W62501   3.711  32.509   0.758
90831W        W62502  17.757  31.161  13.355
90832W        W62503   1.259   2.360   4.185
90833W        W62504  20.026  23.984   1.426
90834W        W62505  17.082  13.031   4.516
90835W        W62506  34.285  31.076  14.926
90836W        W62507   7.627  24.241  14.322
90837W        W62508  29.114  29.486  10.599
90838W        W62509  17.226  35.493   3.083
90839W        W62510  43.595  25.432   2.056
90840W        W62511  10.831  42.574   4.154
90841W        W62512  29.645  41.119  12.996
90842W        W62513  14.098  21.987   2.149
90843W        W62514  14.322   0.422   0.742
90844W        W62515  27.689  28.980  12.137
90845W        W62516  16.995  17.656   1.437
90846W        W62517  16.687  20.645  10.719
90847W        W62518  25.788  42.898  13.850
90848W        W62519  37.135  14.716  11.574
90849W        W62520  10.151  35.847   1.866
90850W        W62521   1.330   5.257   1.401
90851W        W62522  21.320  39.426   1.162
90852W        W62523  41.427  15.269   2.633
90853W        W62524   6.100  24.195   4.118
90854W        W62525  44.379  15.751  14.474
90855W        W62526   9.021  43.647   4.259
90856W        W62527  36.037  12.495  13.913
90857W        W62528   2.793  15.006  10.731
90858W        W62529  23.101  12.401  12.994
90859W        W62530  26.102  31.482   3.227
90860W        W62531   0.325  42.424   4.686
90861W        W62532  22.209   7.301  14.272
90862W        W62533  28.375  25.254   1.370
90863W        W62534  28.393  23.070   3.008
90864W        W62535  42.518  21.178   1.790
90865W        W62536   1.883  24.331   2.640
90866W        W62537  39.427  44.271  13.944
90867W        W62538  12.611  14.193  12.428
90868W        W62539  17.055  24.934   1.626
90869W        W62540  21.702  20.690  14.956
90870W        W62541   2.817  40.371  10.974
90871W        W62542   9.160  17.917  14.742
90872W        W62543  27.578  34.569   3.202
90873W        W62544  22.099  16.471  14.506
90874W        W62545   8.334  21.089  13.330
90875W        W62546  14.403  28.070   2.198
90876W        W62547   4.793  12.748  12.373
90877W        W62548  39.920  42.704   1.997
90878W        W62549   7.314  21.401  14.268
90879W        W62550  10.588   9.325  13.921
90880W        W62551  12.505  13.775  13.048
90881W        W62552  18.272  41.383  10.795
90882W        W62553  31.867   1.283  10.650
90883W        W62554   9.805  28.637  13.850
90884W        W62555  10.222   0.501   0.377
90885W        W62556  29.612  38.404   2.384
90886W        W62557  37.460  36.554  11.109
90887W        W62558  29.866  13.233   3.700
90888W        W62559   7.215  36.128  12.134
90889W        W62560  12.114  36.801   0.782
90890W        W62561  31.980  18.510  10.707
90891W        W62562  29.476  22.805   2.326
90892W        W62563  15.376  44.318   4.115
90893W        W62564   7.260  13.852  12.826
90894W        W62565  27.443   7.347   1.870
90895W        W62566   5.402  42.897  13.308
90896W        W62567  25.810   2.657   2.728
90897W        W62568  27.196  39.079   0.260
90898W        W62569  27.550  14.589   0.430
90899W        W62570  18.829  42.328   3.846
90900W        W62571  25.572   9.218   1.831
90901W        W62572  20.333  18.187  14.700
90902W        W62573  18.158   2.998   1.799
90903W        W62574  16.292  13.264  10.726
90904W        W62575  16.099  20.113  14.324
90905W        W62576  23.739  23.120   1.132
90906W        W62577  28.224  28.202  14.381
90907W        W62578  32.160  25.103   2.865
90908W        W62579  36.377  23.530  10.343
90909W        W62580  10.813  37.747   2.237
90910W        W62581  32.747  35.947   1.862
90911W        W62582  38.116  36.991  12.487
90912W        W62583   1.368  35.987  13.017
90913W        W62584  19.740  34.581   4.355
90914W        W62585  42.495  29.473   0.708
90915W        W62586  28.248  10.402  11.174
90916W        W62587   0.929  39.079  12.261
90917W        W62588  28.675  44.492  11.587
90918W        W62589  15.350   3.447  10.079
90919W        W62590  15.625   7.799  13.110
90920W        W62591  24.678   8.854  11.140
90921W        W62592  17.835   0.016  10.780
90922W        W62593  23.484  34.060  11.819
90923W        W62594  25.328  34.380  13.747
90924W        W62595   7.204  32.084  10.246
90925W        W62596  34.304  22.493   1.133
90926W        W62597   4.264   9.909   0.285
90927W        W62598   0.407  26.497   4.721
90928W        W62599  19.616  21.597   0.080
90929W        W62600  17.628  13.791  10.582
90930W        W62601   3.359  25.657  14.526
90931W        W62602   3.365  35.860   0.990
90932W        W62603  33.367  13.803   1.029
90933W        W62604  42.451  27.481  12.474
90934W        W62605  23.280  36.568   3.249
90935W        W62606  19.630  13.308   4.176
90936W        W62607  17.308  22.529   0.866
90937W        W62608  42.945  33.322   2.924
90938W        W62609  22.747  27.247   2.857
90939W        W62610  23.679  15.792  13.949
90940W        W62611   7.143  10.826  12.865
90941W        W62612  40.072  12.152   1.261
90942W        W62613  13.764  43.038  12.085
90943W        W62614  35.344  36.049  11.905
90944W        W62615  27.612   5.834   5.524
90945W        W62616  27.564  39.607   3.939
90946W        W62617  15.854   2.390   3.070
90947W        W62618  30.105  12.425  11.206
90948W        W62619   8.382  39.469   4.570
90949W        W62620  30.340  10.077  12.345
90950W        W62621  28.890  29.373  13.552
90951W        W62622  24.738  34.332  12.085
90952W        W62623  42.153  25.498   1.925
90953W        W62624  38.797   9.784   4.169
90954W        W62625   9.781   6.596   4.191
90955W        W62626   9.369  42.279  14.022
90956W        W62627  32.075   2.300  14.098
90957W        W62628  22.662   3.771   2.205
90958W        W62629   0.992  10.130  13.263
90959W        W62630   7.369  12.254   0.934
90960W        W62631  19.176   3.937   4.427
90961W        W62632  33.083   1.838  13.439
90962W        W62633  38.407  36.940   2.726
90963W        W62634  36.744  14.161   5.031
90964W        W62635   1.390   8.651  12.197
90965W        W62636  31.108  29.122   3.680
90966W        W62637  16.707   7.218   2.089
90967W        W62638   2.610   5.696   2.729
90968W        W62639  20.622  15.384  11.643
90969W        W62640  11.053  21.557  11.352
90970W        W62641  32.495  17.036  11.909
90971W        W62642  38.296  10.685   4.376
90972W        W62643  33.230  42.799  13.093
90973W        W62644  10.151  23.059  14.992
90974W        W62645  28.269  11.239   1.742
90975W        W62646   8.624  20.391   0.616
90976W        W62647  32.522   4.971   3.628
90977W        W62648  20.445  28.257   3.742
90978W        W62649  30.027  34.491  13.360
90979W        W62650  22.396   9.738   0.754
90980W        W62651  40.406  22.879   0.733
90981W        W62652  34.629  36.018   2.345
90982W        W62653  12.702  31.499  10.744
90983W        W62654  15.307   9.162  10.713
90984W        W62655  24.516  20.198  11.028
90985W        W62656  15.610  20.182   0.995
90986W        W62657  43.938   4.681   4.644
90987W        W62658  22.259   8.411  11.561
90988W        W62659  31.566  42.361   0.443
90989W        W62660  15.092   1.709   2.430
90990W        W62661   3.130  22.917  12.205
90991W        W62662  40.180   9.393   4.156
90992W        W62663   3.871  38.540  12.387
90993W        W62664  36.774  23.720  14.115
90994W        W62665  35.844  22.023  13.749
90995W        W62666  32.416  34.881  12.033
90996W        W62667  26.049   8.550  13.178
90997W        W62668  33.854  24.777  12.047
90998W        W62669  25.245   5.411  14.012
90999W        W62670  40.382  42.838   3.442
91000W        W62671   8.770  24.981  11.900
91001W        W62672   7.587  33.891   3.194
91002W        W62673  30.456  26.627   2.487
91003W        W62674  13.871  11.246  12.061
91004W        W62675   5.894  11.683  10.375
91005W        W62676  32.461  18.070  11.201
91006W        W62677  23.999  17.722   4.213
91007W        W62678  41.845  34.298   3.672
91008W        W62679  18.043  38.512   1.889
91009W        W62680  24.757   9.370   4.142
91010W        W62681  33.613  34.541  10.079
91011W        W62682  33.134  12.414   1.677
91012W        W62683   5.059  17.631   2.809
91013W        W62684  28.753  14.428   1.409
91014W        W62685  36.977  16.567   2.841
91015W        W62686  27.126  23.573  10.736
91016W        W62687  33.633  11.086   2.603
91017W        W62688  19.185  43.244   1.642
91018W        W62689  32.881  39.992  14.104
91019W        W62690   0.126  37.984  11.395
91020W        W62691  34.323  26.257   3.315
91021W        W62692  40.468  21.533  11.522
91022W        W62693  44.464   4.545   1.676
91023W        W62694  37.307  29.419   5.045
91024W        W62695  17.843  40.399   2.442
91025W        W62696   4.739  14.764   4.105
91026W        W62697  39.106   6.633  12.985
91027W        W62698  12.564   2.489   2.045
91028W        W62699  17.810  32.829   3.861
91029W        W62700  38.898  11.746  14.635
91030W        W62701  22.606  32.196  10.686
91031W        W62702   4.874  30.326  12.296
91032W        W62703  19.118   2.514  13.279
91033W        W62704   9.617  15.615  11.572
91034W        W62705  35.799   6.147  11.059
91035W        W62706  41.601   6.688   4.570
91036W        W62707  14.311   3.540   4.216
91037W        W62708   8.818  39.132   0.318
91038W        W62709  30.462   8.600  10.944
91039W        W62710  34.577  43.262  13.905
91040W        W62711  34.967   4.993   0.445
91041W        W62712  30.526   8.563   0.794
91042W        W62713   6.614  12.736  14.881
91043W        W62714  22.501  36.835   0.244
91044W        W62715  22.672  12.620   4.581
91045W        W62716  44.497  41.901   3.835
91046W        W62717  41.482  22.047  12.894
91047W        W62718  19.257   0.003  12.650
91048W        W62719   3.777  18.137   2.791
91049W        W62720  20.205  31.933  13.591
91050W        W62721  41.090   1.729  13.953
91051W        W62722  18.303  34.049   0.381
91052W        W62723  14.315  23.601  13.794
91053W        W62724  24.517   8.669   2.261
91054W        W62725   4.397  34.658  10.670
91055W        W62726  10.654  39.841   0.470
91056W        W62727  26.483  16.290   4.092
91057W        W62728  22.631  27.695   1.369
91058W        W62729   5.836  27.630  13.631
91059W        W62730   4.198   7.906   2.321
91060W        W62731  37.945  13.405  12.697
91061W        W62732   4.835   9.019  14.300
91062W        W62733   4.839   2.185   1.092
91063W        W62734  12.226  24.634   4.608
91064W        W62735  11.955  31.866  14.624
91065W        W62736  34.515  30.071  13.476
91066W        W62737   3.758  29.507   0.411
91067W        W62738  12.299  26.699  10.987
91068W        W62739  36.974  40.293   1.164
91069W        W62740  20.270  27.341   1.281
91070W        W62741  41.340   9.803  11.592
91071W        W62742   0.751   3.910   3.280
91072W        W62743   0.370  28.567   2.336
91073W        W62744   9.264  33.832  10.741
91074W        W62745  19.957  32.483   1.369
91075W        W62746  29.685  13.096  12.594
91076W        W62747  27.654  30.296   0.093
91077W        W62748   9.485  37.341  11.138
91078W        W62749  21.557  16.014   1.622
91079W        W62750  20.575  14.749   2.542
91080W        W62751  31.449  19.649   1.251
91081W        W62752   0.523   2.780   3.880
91082W        W62753  34.969  25.281   4.991
91083W        W62754  40.272  12.412   3.911
91084W        W62755  33.829  10.807  12.971
91085W        W62756   6.436  16.711  11.147
91086W        W62757  11.757  26.072  10.999
91087W        W62758   3.986  13.354  12.204
91088W        W62759  25.999  12.654  14.467
91089W        W62760  15.174  29.478   2.969
91090W        W62761  35.102  30.368   0.897
91091W        W62762   5.920  22.285  10.645
91092W        W62763  10.219   2.264  11.092
91093W        W62764  25.415   3.981  11.212
91094W        W62765   7.747  17.611   2.133
91095W        W62766   2.153  36.561   3.606
91096W        W62767  37.509  33.970   3.190
91097W        W62768  37.378   3.349   3.620
91098W        W62769   6.131  25.460  11.431
91099W        W62770   6.682  22.430   4.417
91100W        W62771   9.762  38.459  14.356
91101W        W62772   7.978  32.094  12.469
91102W        W62773  16.949   0.913   3.702
91103W        W62774   3.464  33.233   0.305
91104W        W62775  19.178  38.330   0.699
91105W        W62776  21.644  11.854  12.462
91106W        W62777   6.489  21.268   1.768
91107W        W62778  35.918  21.599   2.937
91108W        W62779  37.081  26.242  11.098
91109W        W62780  39.629  17.079   3.668
91110W        W62781   8.200  35.685   1.758
91111W        W62782  39.780  34.146   4.096
91112W        W62783  19.334  19.117   1.862
91113W        W62784  21.288   3.820   0.216
91114W        W62785   8.507   7.091   3.220
91115W        W62786  35.356  19.327   0.399
91116W        W62787  34.834  28.623  11.399
91117W        W62788  15.193  29.140   1.341
91118W        W62789  28.985  38.842  12.092
91119W        W62790  34.583  12.340   4.114
91120W        W62791  22.557  33.970   4.623
91121W        W62792   2.205  25.269   2.819
91122W        W62793  17.721  44.323   3.105
91123W        W62794  16.616   5.205   2.373
91124W        W62795  27.177   6.905   1.824
91125W        W62796  31.054  20.261   0.637
91126W        W62797  43.743  40.242   0.415
91127W        W62798  37.283  44.266   0.279
91128W        W62799   8.730  37.569   2.788
91129W        W62800   5.996  16.088   4.749
91130W        W62801  41.461  21.495   0.371
91131W        W62802  24.578   9.348  11.077
91132W        W62803   7.900  34.871  14.926
91133W        W62804   8.259  25.940   2.218
91134W        W62805  22.946  17.966   0.310
91135W        W62806  41.159  32.937  11.671
91136W        W62807  39.916  28.116  12.576
91137W        W62808  44.725  25.555  10.994
91138W        W62809  38.102  22.599   4.534
91139W        W62810  36.749  43.532  14.561
91140W        W62811  26.122  29.520   0.338
91141W        W62812  11.034  17.133  11.221
91142W        W62813  13.690   2.551   3.357
91143W        W62814  43.343  39.343   0.810
91144W        W62815  20.988  22.707   5.047
91145W        W62816  27.471  40.277  11.013
91146W        W62817  12.674   1.442  11.477
91147W        W62818  43.286  30.908   2.784
91148W        W62819  26.584  29.873   1.308
91149W        W62820  36.138  38.451   1.282
91150W        W62821   4.435  42.768  11.521
91151W        W62822  13.346  41.589   4.659
91152W        W62823  25.127  17.361  13.545
91153W        W62824   2.382  20.222   5.341
91154W        W62825  30.650  40.887   1.181
91155W        W62826  38.127  44.526  11.090
91156W        W62827  14.109   8.453   0.388
91157W        W62828  15.155  41.480   2.897
91158W        W62829  26.039   7.817   3.620
91159W        W62830   8.233  12.586   4.083
91160W        W62831  31.044  16.004   3.253
91161W        W62832  31.179  44.322  14.954
91162W        W62833  40.447   2.904   4.839
91163W        W62834   6.458  41.281  14.884
91164W        W62835  29.619  24.505   4.648
91165W        W62836   7.661  21.504   1.850
91166W        W62837  29.917  11.739  12.615
91167W        W62838  42.730  17.360   0.900
91168W        W62839  26.271  24.663   0.373
91169W        W62840  33.349   8.334   0.826
91170W        W62841   9.659  17.096  11.072
91171W        W62842   2.418  17.137   0.274
91172W        W62843  42.687  33.179  10.316
91173W        W62844  18.513  41.916   3.682
91174W        W62845   6.426   0.955   1.481
91175W        W62846  30.624  37.053   4.644
91176W        W62847   3.780  41.895  10.824
91177W        W62848  42.386  30.793  13.865
91178W        W62849   5.269  18.469   2.060
91179W        W62850  25.781  12.850   4.101
91180W        W62851  21.176  33.493   0.488
91181W        W62852  34.839  28.765  10.522
91182W        W62853  19.202   0.094  14.505
91183W        W62854   7.154   3.678   0.311
91184W        W62855  17.559  24.132  14.023
91185W        W62856   2.914  11.827   4.776
91186W        W62857   5.703  33.880  11.604
91187W        W62858  18.928  12.724  14.791
91188W        W62859  30.208   7.638   3.088
91189W        W62860   0.956  32.693  11.946
91190W        W62861   7.757  15.743   1.624
91191W        W62862  17.817  20.950   2.227
91192W        W62863  38.073  34.417   4.527
91193W        W62864  44.825  37.549   2.322
91194W        W62865  31.833   2.226   3.337
91195W        W62866  12.746  19.572   1.267
91196W        W62867   8.329  42.537  12.487
91197W        W62868  17.023   6.823  14.117
91198W        W62869  10.356  15.317  14.437
91199W        W62870  19.630  30.409   3.713
91200W        W62871  13.400  31.110  10.939
91201W        W62872  40.425  33.277  11.066
91202W        W62873  41.015  15.061  11.512
91203W        W62874  13.904   8.287   2.692
91204W        W62875  44.224  23.165   5.099
91205W        W62876  40.258  38.618   0.402
91206W        W62877   8.222  40.446   1.937
91207W        W62878  25.351  16.633   3.677
91208W        W62879   3.432  14.653   4.952
91209W        W62880  20.985  34.646  10.828
91210W        W62881  13.916  21.080  10.773
91211W        W62882  36.110  19.141   3.780
91212W        W62883   5.835  44.839   3.226
91213W        W62884  36.154  10.168   4.616
91214W        W62885  15.101  14.254   0.907
91215W        W62886  36.120  25.464  13.427
91216W        W62887  15.846  16.607  12.996
91217W        W62888  39.948   3.821  14.310
91218W        W62889   9.098   9.898  14.547
91219W        W62890   3.664  31.183   4.318
91220W        W62891  37.408   2.648   2.478
91221W        W62892   2.961  32.798  14.191
91222W        W62893  37.859  27.380   4.421
91223W        W62894   6.921  39.938   3.927
91224W        W62895  42.974  14.746   4.419
91225W        W62896  15.706  44.528  14.312
91226W        W62897  25.773   6.209   4.206
91227W        W62898  24.601   6.630   0.940
91228W        W62899  30.036  12.276   4.597
91229W        W62900   5.955   7.949  14.398
91230W        W62901  12.318  40.032  10.897
91231W        W62902  31.822  19.783   0.498
91232W        W62903  27.396  26.566  13.098
91233W        W62904  37.766  31.033   0.947
91234W        W62905   8.154  36.044  12.188
91235W        W62906   5.350   1.868  11.055
91236W        W62907  31.862  32.538  12.147
91237W        W62908  14.289  17.617  12.802
91238W        W62909   2.928  39.847  12.026
91239W        W62910  33.062   2.523  12.967
91240W        W62911  15.054  10.517  14.821
91241W        W62912   4.773  41.920  11.092
91242W        W62913   3.120   4.266   1.185
91243W        W62914  25.605   6.072   9.985
91244W        W62915   2.865  24.259  11.060
91245W        W62916  19.667  43.903  12.340
91246W        W62917  44.457  16.151  12.790
91247W        W62918   8.656  14.306   0.595
91248W        W62919  31.471   2.863  12.505
91249W        W62920  32.162  42.886   3.167
91250W        W62921   7.756  11.192   1.893
91251W        W62922   8.007  32.981  12.397
91252W        W62923  21.148  29.516  13.499
91253W        W62924  16.157  24.240   3.619
91254W        W62925  38.466  44.355   1.250
91255W        W62926  18.062  31.134   4.705
91256W        W62927  41.356  14.142  11.899
91257W        W62928  36.910   9.968   3.779
91258W        W62929  30.315  29.039   4.291
91259W        W62930  43.458  36.375   1.843
91260W        W62931  17.768  15.544   4.062
91261W        W62932  27.353  28.910   4.018
91262W        W62933   5.831  26.465   3.237
91263W        W62934  16.567  42.334  14.355
91264W        W62935   6.375  20.502   1.168
91265W        W62936   1.945  25.005  13.979
91266W        W62937  23.291  19.023  12.044
91267W        W62938  43.519  18.098   0.458
91268W        W62939   5.758  27.648   1.797
91269W        W62940  23.560  16.042   1.826
91270W        W62941   7.988  42.898  12.054
91271W        W62942  13.282  14.420   4.586
91272W        W62943  37.467  12.364   3.688
91273W        W62944  37.456  14.116   0.391
91274W        W62945  33.854   1.421  10.837
91275W        W62946   0.357   7.319  12.452
91276W        W62947  38.943  14.089  11.544
91277W        W62948  29.152  39.541  12.884
91278W        W62949   5.874  43.974   2.886
91279W        W62950  38.275  36.259  12.353
91280W        W62951  36.267  22.499   4.075
91281W        W62952  22.536  37.408  13.587
91282W        W62953   9.875  13.259  14.793
91283W        W62954  44.750  17.087  11.478
91284W        W62955  23.116  42.727   2.087
91285W        W62956  41.534  17.638   3.762
91286W        W62957   7.938  43.506  13.004
91287W        W62958  39.562  42.940  12.581
91288W        W62959  13.071  29.414  12.367
91289W        W62960  18.876  28.647   0.206
91290W        W62961  30.668  35.381  13.870
91291W        W62962  28.219   2.166   1.834
91292W        W62963  35.716  31.229  12.560
91293W        W62964  20.146  10.094  13.471
91294W        W62965  18.106  18.628  11.080
91295W        W62966  42.105  21.581   3.573
91296W        W62967  41.340  14.907  11.029
91297W        W62968  21.579  40.289  11.918
91298W        W62969  39.916  10.223   4.210
91299W        W62970  20.195  30.121  10.626
91300W        W62971  35.765  11.479  11.062
91301W        W62972  42.308  19.578  14.942
91302W        W62973  39.559  40.390  11.224
91303W        W62974   9.716   7.880  11.496
91304W        W62975  31.671  44.307   3.258
91305W        W62976  13.606  30.837   3.938
91306W        W62977   2.520  19.147   9.748
91307W        W62978  19.849  14.419   4.968
91308W        W62979   9.255  42.681   4.610
91309W        W62980  11.660  36.557   2.887
91310W        W62981   1.768  37.923  12.077
91311W        W62982  17.357  12.105  12.935
91312W        W62983  40.296  39.023   2.828
91313W        W62984  18.279  25.934   0.777
91314W        W62985  34.458   8.395   3.795
91315W        W62986  24.040  44.479  14.179
91316W        W62987   0.666  34.814   1.749
91317W        W62988  38.586  26.111  12.444
91318W        W62989   2.912  37.166  11.564
91319W        W62990  38.816  19.234   3.708
91320W        W62991  43.966  28.719  12.913
91321W        W62992  10.645  43.182  14.462
91322W        W62993  35.995  30.617   3.174
91323W        W62994  15.051  41.118  11.877
91324W        W62995   9.396   0.281   2.329
91325W        W62996  32.465  30.263  12.344
91326W        W62997  44.202  19.129   1.796
91327W        W62998  16.334  11.808   4.632
91328W        W62999  13.203  28.559   1.827
91329W        W63000  20.587   7.441   0.851
91330W        W63001  35.149  33.331  12.918
91331W        W63002  15.221  37.844  11.214
91332W        W63003   8.008  30.076   0.453
91333W        W63004   4.999  27.737   2.907
91334W        W63005   0.841  34.837   3.883
91335W        W63006   2.778  19.708   2.143
91336W        W63007  22.034  33.382  14.481
91337W        W63008  32.983  40.304  12.864
91338W        W63009  15.197  20.091  14.735
91339W        W63010  25.771  12.586   2.543
91340W        W63011  39.991   6.461  12.848
91341W        W63012   5.848   8.513  12.179
91342W        W63013  35.853   4.228  13.937
91343W        W63014  42.056   7.903  14.230
91344W        W63015  29.924  42.750  13.390
91345W        W63016   0.114   8.580  13.029
91346W        W63017   8.716  42.032   2.719
91347W        W63018  33.186   8.837   0.916
91348W        W63019  37.772  31.867  14.399
91349W        W63020  36.448   8.311   2.711
91350W        W63021  11.250  42.180  14.699
91351W        W63022  17.958   3.204  12.155
91352W        W63023  30.248  16.554  12.875
91353W        W63024  42.375  43.713   3.176
91354W        W63025  25.146   7.943   3.105
91355W        W63026  36.921  13.352   3.108
91356W        W63027  10.114  39.345  13.357
91357W        W63028  25.119   1.968  14.856
91358W        W63029  40.769  17.591  11.483
91359W        W63030  38.455   0.245  14.013
91360W        W63031   9.729  28.985  10.723
91361W        W63032  30.028  42.887  10.846
91362W        W63033   1.498  33.925  14.684
91363W        W63034   7.974  41.332  10.595
91364W        W63035   5.324  31.626   4.469
91365W        W63036  24.465  10.161  12.566
91366W        W63037  40.751  27.784  11.776
91367W        W63038   8.838  43.926  13.484
91368W        W63039   4.505  12.899  10.756
91369W        W63040  40.363   2.277  11.199
91370W        W63041  41.868  36.808   3.636
91371W        W63042  11.234  25.208  14.924
91372W        W63043   6.936   3.162  11.880
91373W        W63044   6.913   5.735  14.412
91374W        W63045  34.798   7.743   1.752
91375W        W63046  20.619  30.634   1.437
91376W        W63047  33.919  28.161  14.883
91377W        W63048  44.962  32.005  11.541
91378W        W63049  40.905  15.739   3.267
91379W        W63050  20.338  22.040  12.961
91380W        W63051   8.948  10.115   1.694
91381W        W63052  12.576  36.446   1.432
91382W        W63053  38.669  15.547   0.756
91383W        W63054  36.996   5.307  14.463
91384W        W63055   7.180   0.748  12.986
91385W        W63056   5.286  29.694  12.434
91386W        W63057   3.985  20.794   4.535
91387W        W63058   4.253  22.601   2.885
91388W        W63059  30.942  20.637   1.756
91389W        W63060  42.461  21.555   2.346
91390W        W63061  14.937  33.445  14.508
91391W        W63062  26.682  44.008   0.584
91392W        W63063  22.633  34.473  10.326
91393W        W63064   2.973  23.443  14.932
91394W        W63065  30.148   3.063  13.554
91395W        W63066  34.874  37.310  11.034
91396W        W63067  24.817   0.816   2.682
91397W        W63068  42.403  24.935   4.704
91398W        W63069  21.227  23.030  14.517
91399W        W63070  40.783   6.434   1.341
91400W        W63071  11.173  42.512   3.432
91401W        W63072  15.877  12.762   3.722
91402W        W63073  39.489   0.821   1.395
91403W        W63074   6.307  10.357   4.616
91404W        W63075  20.840   3.420  12.568
91405W        W63076   8.646   2.866  12.576
91406W        W63077   3.692  33.965  10.987
91407W        W63078  43.674  44.837  14.557
91408W        W63079  21.770   2.424   2.856
91409W        W63080   5.890  29.220   0.573
91410W        W63081  31.102   0.460  14.305
91411W        W63082  34.119  41.050   2.613
91412W        W63083  18.538  41.308  12.502
91413W        W63084   3.416  36.981   3.761
91414W        W63085  31.981  24.907   4.987
91415W        W63086  32.050  16.871  14.006
91416W        W63087  21.300  18.780  11.215
91417W        W63088  18.191   6.414  11.295
91418W        W63089  16.776  30.543   3.756
91419W        W63090  37.564   7.184   0.958
91420W        W63091   3.511  31.796  14.842
91421W        W63092   5.217  30.517   2.839
91422W        W63093  35.286  35.146   3.157
91423W        W63094  16.959  25.948  11.420
91424W        W63095  35.839   2.140  10.738
91425W        W63096  12.749  13.774  14.386
91426W        W63097  14.837   5.585   2.225
91427W        W63098  22.718   9.703  10.294
91428W        W63099   0.918   7.409  11.091
91429W        W63100  19.743   8.477  14.701
91430W        W63101  22.151  24.661   3.703
91431W        W63102  44.954  36.901   1.387
91432W        W63103  14.981  22.696   0.451
91433W        W63104  24.770  24.238   2.401
91434W        W63105  42.070   2.285  12.424
91435W        W63106  12.080  25.663  13.442
91436W        W63107  27.469  11.747  11.387
91437W        W63108  39.291  16.998   2.305
91438W        W63109  42.086  33.868   0.901
91439W        W63110  20.491  38.512   0.314
91440W        W63111  38.272  27.534  12.293
91441W        W63112  28.152  24.272  11.154
91442W        W63113  38.563  10.174  11.774
91443W        W63114  22.941   7.951   3.658
91444W        W63115  44.367  30.154  14.874
91445W        W63116  20.522   6.227  10.617
91446W        W63117  10.790  38.616  11.929
91447W        W63118  10.652  20.284  13.794
91448W        W63119  23.161  37.486   4.896
91449W        W63120  13.950  17.654   2.729
91450W        W63121  17.264  16.320  14.902
91451W        W63122  25.743  29.294   1.372
91452W        W63123  21.640  30.126   2.790
91453W        W63124  25.283   6.241  10.602
91454W        W63125  41.709  38.134   1.116
91455W        W63126  39.701  27.892  10.639
91456W        W63127   3.577  36.329  13.318
91457W        W63128  13.798  44.307   2.714
91458W        W63129  43.443  21.505   3.577
91459W        W63130   6.218  37.287  13.041
91460W        W63131  39.526  15.729   1.928
91461W        W63132  40.370  41.457   4.575
91462W        W63133  17.129  35.876  12.048
91463W        W63134  29.624  20.538   1.741
91464W        W63135  30.572  22.576  14.504
91465W        W63136  24.998  35.047  13.053
91466W        W63137  19.245  37.464   3.249
91467W        W63138  13.950   7.357  11.397
91468W        W63139  39.913  39.109   1.870
91469W        W63140   7.156  37.462   1.660
91470W        W63141   4.703  31.902  14.330
91471W        W63142   3.029  18.637  12.010
91472W        W63143   9.708   6.211   3.203
91473W        W63144  12.849  19.958  11.665
91474W        W63145   0.924   2.500   0.825
91475W        W63146  10.349   4.448  14.351
91476W        W63147  20.462   2.335  13.425
91477W        W63148   9.893   6.508   0.948
91478W        W63149  18.628  14.344   3.186
91479W        W63150  33.086  31.814  10.913
91480W        W63151  36.085  15.394   2.744
91481W        W63152   7.725  33.573   1.388
91482W        W63153  30.891  11.312   0.795
91483W        W63154  15.797  21.380  10.002
91484W        W63155   7.266  25.232  12.404
91485W        W63156  37.631  23.200  14.958
91486W        W63157  26.467  19.560  13.005
91487W        W63158  17.064  11.602  11.597
91488W        W63159  32.663   5.442   2.425
91489W        W63160  13.859  38.275  11.007
91490W        W63161  15.727  10.363   1.474
91491W        W63162  27.268  35.025  14.941
91492W        W63163  30.218   8.215  11.694
91493W        W63164  36.920   0.964  12.009
91494W        W63165  26.183  22.502  13.391
91495W        W63166  18.619  16.694   4.671
91496W        W63167  36.095  23.510   1.431
91497W        W63168  27.015  34.921   3.339
91498W        W63169   7.290  23.978   4.210
91499W        W63170   9.732  34.625   2.728
91500W        W63171  21.989   7.235  11.815
91501W        W63172  30.599  44.883  11.895
91502W        W63173  31.038  15.421  11.144
91503W        W63174  44.671  40.855   0.790
91504W        W63175  26.542  42.092  12.473
91505W        W63176  33.080   4.496  14.373
91506W        W63177  40.463  13.651   0.279
91507W        W63178   4.481  22.135   4.728
91508W        W63179  25.038  26.105  12.200
91509W        W63180  40.850  14.823   1.305
91510W        W63181  37.881  39.892  12.035
91511W        W63182  12.911  15.145  12.648
91512W        W63183  13.571  20.538   2.634
91513W        W63184   8.911  25.720  13.003
91514W        W63185   9.836  20.521  11.036
91515W        W63186  15.301   4.991   9.670
91516W        W63187  25.678  36.353   3.842
91517W        W63188  17.455  35.490   2.311
91518W        W63189  35.096  27.651  12.893
91519W        W63190  41.755  36.214   0.854
91520W        W63191   5.533  11.889   0.680
91521W        W63192   3.028  26.991  13.203
91522W        W63193  27.597  13.652   3.354
91523W        W63194  11.903  26.397   3.697
91524W        W63195   0.468  32.841  14.341
91525W        W63196  13.268  27.417  10.683
91526W        W63197  22.430   3.949   3.099
91527W        W63198   1.216   5.159   0.901
91528W        W63199  13.074  18.286   3.000
91529W        W63200  39.017  12.030  13.378
91530W        W63201  12.710  15.886  11.130
91531W        W63202  14.709  26.965  10.703
91532W        W63203  31.036  44.952  12.186
91533W        W63204  23.034  21.039  12.014
91534W        W63205   1.388   4.993   2.800
91535W        W63206   9.669  12.181  12.976
91536W        W63207  30.686  14.612   4.975
91537W        W63208  32.928   0.193  12.111
91538W        W63209  44.497  15.678  12.961
91539W        W63210  21.093   7.137  12.862
91540W        W63211  41.429   9.941  14.340
91541W        W63212  10.600  19.961  11.882
91542W        W63213   4.927  19.767  14.759
91543W        W63214  38.612  17.615  12.435
91544W        W63215  15.883   3.949   0.973
91545W        W63216  31.647  39.928   0.280
91546W        W63217  22.876  23.283   4.496
91547W        W63218   8.177  17.366   0.558
91548W        W63219  43.193   6.697  14.988
91549W        W63220  22.522  25.212   4.860
91550W        W63221  21.211   2.891  11.294
91551W        W63222   3.393  26.220  12.758
91552W        W63223  34.479  36.839   2.738
91553W        W63224  42.997  21.318  12.195
91554W        W63225   5.272  35.671   0.573
91555W        W63226  39.072  30.544   2.598
91556W        W63227   9.724  21.703   4.530
91557W        W63228  12.671   5.095  14.776
91558W        W63229  16.183  38.867   3.392
91559W        W63230  36.009  14.956  12.062
91560W        W63231  34.949  21.273   1.050
91561W        W63232  34.952  39.410   1.871
91562W        W63233  12.605  14.503  13.425
91563W        W63234   2.811   7.316  11.500
91564W        W63235  35.383  24.796   3.604
91565W        W63236   0.929  13.272  11.937
91566W        W63237  38.078   9.682  14.965
91567W        W63238  40.819   4.691   1.918
91568W        W63239   3.834  27.893  11.111
91569W        W63240   0.333  13.067   1.338
91570W        W63241  26.082   2.789   0.974
91571W        W63242  28.061  16.984  11.070
91572W        W63243  21.083  35.358   0.271
91573W        W63244  18.886  30.912  14.851
91574W        W63245  29.920  35.406  11.646
91575W        W63246  17.117  31.355  13.350
91576W        W63247  32.153  14.563  12.875
91577W        W63248   4.195   5.037  12.473
91578W        W63249  16.593  38.811   2.109
91579W        W63250  24.731  36.916   1.562
91580W        W63251  40.776  12.620   1.633
91581W        W63252  16.993  40.986  12.199
91582W        W63253  23.262  18.164  14.006
91583W        W63254   9.510  43.228   3.270
91584W        W63255   9.334   1.745  11.872
91585W        W63256   2.794  39.675   3.664
91586W        W63257   8.881  35.148   1.820
91587W        W63258  24.977   3.064   4.143
91588W        W63259  39.599  36.101  12.528
91589W        W63260  30.485  26.599   3.007
91590W        W63261  26.752  33.047  13.358
91591W        W63262  26.650  28.368   2.736
91592W        W63263  43.443  14.645   3.094
91593W        W63264  12.071  18.561   2.880
91594W        W63265   1.393  32.594  12.309
91595W        W63266   9.262  33.900  12.892
91596W        W63267   9.487  43.868   2.778
91597W        W63268  17.492  13.709   0.389
91598W        W63269  38.581  23.462  11.249
91599W        W63270  22.732   1.469  14.574
91600W        W63271   8.293  24.956  14.395
91601W        W63272   0.307  26.752  11.986
91602W        W63273  35.195  19.538   2.655
91603W        W63274   2.225   5.483   1.776
91604W        W63275  18.223  30.377  11.626
91605W        W63276  37.465  41.503  11.733
91606W        W63277   2.685   9.393   2.190
91607W        W63278  14.769  35.606   1.903
91608W        W63279  35.825  20.131  13.361
91609W        W63280  40.064  27.733  12.887
91610W        W63281  37.883  12.338   2.432
91611W        W63282  37.764  38.412  11.147
91612W        W63283  20.061  13.710  11.095
91613W        W63284  36.812  17.129  10.528
91614W        W63285  32.556  42.357   0.587
91615W        W63286  43.931   0.208   0.315
91616W        W63287  38.318  19.253   0.486
91617W        W63288  11.323   8.251   2.712
91618W        W63289  23.810  15.298   0.022
91619W        W63290  43.055  26.625   4.134
91620W        W63291  31.633  13.982  12.930
91621W        W63292  16.993  38.895  10.336
91622W        W63293  44.013  16.747  13.867
91623W        W63294  29.046  25.558   1.266
91624W        W63295  29.386  12.966   9.815
91625W        W63296   7.204  22.804  14.778
91626W        W63297  41.747  13.805   4.531
91627W        W63298  29.194  10.346  14.343
91628W        W63299  15.503  27.096   0.258
91629W        W63300  44.330  36.958  14.325
91630W        W63301   1.483  22.598   0.189
91631W        W63302  17.788  44.344   2.594
91632W        W63303  32.994   6.480   1.757
91633W        W63304  37.579  12.745   2.338
91634W        W63305  25.093  38.178   2.704
91635W        W63306  44.353  32.073   2.798
91636W        W63307  24.374  26.149   4.862
91637W        W63308  11.568  24.521   2.844
91638W        W63309   9.509  10.570   3.649
91639W        W63310  12.874  20.584   3.425
91640W        W63311  44.988   5.162  14.266
91641W        W63312  44.738  38.424   0.305
91642W        W63313  18.086  34.586   3.243
91643W        W63314  44.266   1.763  11.584
91644W        W63315  34.962   4.072  12.196
91645W        W63316  39.487   5.709   0.734
91646W        W63317   2.686   3.543   3.133
91647W        W63318   2.387  40.390  12.398
91648W        W63319   6.842  44.401   0.477
91649W        W63320   8.199  30.989  13.028
91650W        W63321  35.345   2.589  11.325
91651W        W63322  16.802   8.421  12.883
91652W        W63323  11.681  16.293  13.425
91653W        W63324   2.961  35.177   0.796
91654W        W63325  28.447   4.913  14.349
91655W        W63326  20.993   0.439  11.204
91656W        W63327  40.367  21.229   0.087
91657W        W63328  37.088  11.229  11.488
91658W        W63329  21.004  27.620   0.168
91659W        W63330  18.511   1.270   4.069
91660W        W63331  17.106  25.750  14.552
91661W        W63332  40.153  40.455  13.862
91662W        W63333  14.760  25.639   0.279
91663W        W63334  27.467  28.373   3.222
91664W        W63335  42.510  39.389   2.327
91665W        W63336  44.327  32.575  13.522
91666W        W63337   5.193  43.398  13.342
91667W        W63338   4.451  43.950  11.189
91668W        W63339  38.601   3.008  14.333
91669W        W63340   4.922  42.422   4.308
91670W        W63341  35.855  23.363  12.486
91671W        W63342   6.332  10.210   3.038
91672W        W63343  22.274  32.311  14.345
91673W        W63344   8.799  33.667  13.061
91674W        W63345  39.950   6.917  11.315
91675W        W63346   2.753  26.126  10.688
91676W        W63347  21.038  12.438  11.083
91677W        W63348  34.341   8.895  12.063
91678W        W63349  34.250  42.559  13.018
91679W        W63350  12.648  15.666   3.699
91680W        W63351  16.665   4.339  14.071
91681W        W63352  44.546  25.836   1.847
91682W        W63353   2.437  17.050  12.479
91683W        W63354  36.307  14.680  12.581
91684W        W63355   0.322  39.606  11.691
91685W        W63356  20.026  42.093  12.374
91686W        W63357  15.403  40.514  11.156
91687W        W63358  28.226   8.243   1.387
91688W        W63359  36.845  34.382   3.130
91689W        W63360  29.142  20.742  12.491
91690W        W63361  17.826  38.372   0.888
91691W        W63362   4.977  12.617   3.694
91692W        W63363  31.518  26.151   4.169
91693W        W63364  20.230  38.618  11.923
91694W        W63365  10.247  37.806  13.838
91695W        W63366   0.700  41.318  12.013
91696W        W63367  44.280  37.582   1.470
91697W        W63368  25.758   6.682  11.237
91698W        W63369  33.487  43.515   0.300
91699W        W63370  30.691  27.210   4.219
91700W        W63371   3.243   5.601   1.706
91701W        W63372   4.329  24.043  12.121
91702W        W63373   4.148  14.532  11.071
91703W        W63374   1.449   9.207  13.537
91704W        W63375  22.056   7.948   3.637
91705W        W63376  19.513   1.841   3.001
91706W        W63377  19.050  33.469   3.719
91707W        W63378  18.228   8.347  11.565
91708W        W63379  30.086  33.607  10.641
91709W        W63380  21.208  12.621  12.041
91710W        W63381   8.199  22.190  11.049
91711W        W63382  27.123  32.834   3.509
91712W        W63383  17.183  37.455  13.559
91713W        W63384  25.729  31.312  12.950
91714W        W63385  15.776  25.885   2.142
91715W        W63386  21.558  20.815  13.853
91716W        W63387  34.889  31.124  14.329
91717W        W63388  14.301  35.937  11.453
91718W        W63389  41.991  31.848   0.216
91719W        W63390  19.238   1.002   0.003
91720W        W63391  36.664  35.888   2.393
91721W        W63392  10.734  21.741  14.915
91722W        W63393  30.007   5.708  12.577
91723W        W63394  15.349   1.923   1.059
91724W        W63395   6.710  18.876  12.494
91725W        W63396   8.233  39.664   3.751
91726W        W63397  16.134  22.765   3.109
91727W        W63398   3.250  31.583   0.846
91728W        W63399   5.858  14.585  11.572
91729W        W63400   2.998  21.135   1.777
91730W        W63401  25.144   0.465   0.051
91731W        W63402  19.119   3.449   0.400
91732W        W63403  41.603  41.481   4.323
91733W        W63404   8.980  39.929  13.089
91734W        W63405  16.110  15.289   1.847
91735W        W63406  33.363  11.110  13.471
91736W        W63407  26.033  32.006   0.352
91737W        W63408  17.647  25.643  14.918
91738W        W63409  21.808   4.524  11.580
91739W        W63410  22.008   0.193  12.787
91740W        W63411  18.182   1.749  14.394
91741W        W63412  29.920  31.986   0.767
91742W        W63413  29.568  28.745   2.232
91743W        W63414   4.523  36.369   2.845
91744W        W63415  27.502   3.352   2.374
91745W        W63416  18.045  26.249  12.558
91746W        W63417  36.680  23.740   0.533
91747W        W63418  26.182  37.612  13.462
91748W        W63419  21.353  28.749   1.885
91749W        W63420  36.957   0.429   0.673
91750W        W63421   4.631  23.201  12.550
91751W        W63422   6.122  26.637   2.257
91752W        W63423   2.280  10.079   2.472
91753W        W63424  21.224   5.742   1.788
91754W        W63425  30.171   0.893   2.202
91755W        W63426  15.742  29.128  10.808
91756W        W63427  14.270  42.705   0.018
91757W        W63428  44.087  33.896   1.375
91758W        W63429  15.743  33.412  10.845
91759W        W63430  21.748   5.713   1.701
91760W        W63431  11.729  40.478   5.021
91761W        W63432  12.460  21.002   4.578
91762W        W63433   1.736  12.766   3.264
91763W        W63434  42.730   2.526  13.602
91764W        W63435   4.645   6.644  12.113
91765W        W63436   7.457   5.047  11.217
91766W        W63437  32.978  22.229  10.672
91767W        W63438  36.969   2.424   0.859
91768W        W63439  11.075  25.853  13.544
91769W        W63440  37.011  42.066  13.434
91770W        W63441  10.936  11.998  10.872
91771W        W63442  36.825  14.375   4.188
91772W        W63443  14.129  40.696  13.357
91773W        W63444   6.307  17.231   2.766
91774W        W63445  29.076  26.099  14.203
91775W        W63446  23.204  11.755  10.529
91776W        W63447   4.396   0.038   3.834
91777W        W63448  31.717  11.415  14.420
91778W        W63449  37.812   1.242  14.886
91779W        W63450  30.598  14.679   3.326
91780W        W63451   7.663  36.920   3.298
91781W        W63452   2.985  16.801  14.323
91782W        W63453  18.595   6.412  12.073
91783W        W63454   6.133  16.062  13.391
91784W        W63455  10.796  44.602   4.301
91785W        W63456  43.195  43.747  11.209
91786W        W63457  11.618  14.341  13.456
91787W        W63458   1.282  37.276   3.091
91788W        W63459  24.792  29.007  14.514
91789W        W63460   4.111  27.558  12.857
91790W        W63461  29.975  27.544  13.798
91791W        W63462   9.433  35.203  14.744
91792W        W63463  41.093   8.195   3.360
91793W        W63464  15.326  11.857   2.760
91794W        W63465  17.139  33.748   3.857
91795W        W63466  29.085  17.583   4.318
91796W        W63467  36.626  19.500   2.652
91797W        W63468  22.679   8.388   4.165
91798W        W63469  41.713  42.881   3.233
91799W        W63470  28.915  21.967  13.887
91800W        W63471  41.768  25.477  11.015
91801W        W63472   8.478  20.002  11.587
91802W        W63473   6.790  17.262   4.360
91803W        W63474  35.028  43.963  14.285
91804W        W63475  42.054  12.016   4.731
91805W        W63476  25.676   3.022   2.364
91806W        W63477  29.896  22.298   0.646
91807W        W63478  19.270   0.779  13.614
91808W        W63479  18.736  18.204  10.958
91809W        W63480  27.406  41.732   0.238
91810W        W63481  31.604  11.167   4.631
91811W        W63482  25.920  19.886   2.933
91812W        W63483  30.413  44.791   1.819
91813W        W63484  23.704   9.830  12.552
91814W        W63485  32.117  27.480  10.175
91815W        W63486  41.784  21.275   2.269
91816W        W63487  44.052   8.631   4.527
91817W        W63488   1.953   5.574  11.216
91818W        W63489  16.749  29.140   1.212
91819W        W63490  16.670   9.803   2.617
91820W        W63491   1.957  27.339   1.865
91821W        W63492  37.441  33.611   4.516
91822W        W63493  14.808  10.172   2.952
91823W        W63494   7.247   0.199  12.131
91824W        W63495  37.410  38.003   1.380
91825W        W63496  29.020  41.815   3.567
91826W        W63497   2.081  41.060   1.475
91827W        W63498  10.925  41.266  12.114
91828W        W63499   5.233  24.242  12.046
91829W        W63500  13.561   3.316   2.602
91830W        W63501  23.593  30.394  10.988
91831W        W63502   0.825  11.678   4.828
91832W        W63503  25.065  13.718  12.558
91833W        W63504  18.434   4.403  13.755
91834W        W63505  13.885  28.147  14.288
91835W        W63506  23.125  39.381   1.740
91836W        W63507   4.155   8.118   3.215
91837W        W63508   8.652  37.477  12.830
91838W        W63509  42.995   8.216   4.678
91839W        W63510  21.099  39.074  13.036
91840W        W63511  31.845  14.572   2.707
91841W        W63512   0.973  28.462  12.243
91842W        W63513   0.504   7.705  13.478
91843W        W63514   6.623  24.473   3.631
91844W        W63515  21.718  29.970   1.321
91845W        W63516   7.793  20.109   3.782
91846W        W63517  19.214  44.940   3.866
91847W        W63518  40.843  12.229   2.767
91848W        W63519   5.433   6.311  12.011
91849W        W63520  42.696  14.647   2.681
91850W        W63521  15.146  28.296   1.949
91851W        W63522  31.975  14.568   1.823
91852W        W63523  25.005  44.979   3.762
91853W        W63524   2.954  21.767   1.190
91854W        W63525   3.710  26.331  13.400
91855W        W63526   7.334   6.187   1.880
91856W        W63527  12.737  29.672   4.204
91857W        W63528  21.517  39.252  12.793
91858W        W63529  39.229  14.122   3.217
91859W        W63530  12.911  29.204   9.797
91860W        W63531  29.609  42.869   4.076
91861W        W63532  24.985  11.025   0.256
91862W        W63533  33.975  42.367   4.108
91863W        W63534  41.170   9.333  11.225
91864W        W63535  40.298  17.026   1.311
91865W        W63536  25.753  36.966   0.330
91866W        W63537  43.751  30.685   2.761
91867W        W63538  28.549  14.196   3.262
91868W        W63539  41.852  12.399  11.444
91869W        W63540   2.490  22.103  10.649
91870W        W63541  22.786   8.901   1.640
91871W        W63542  22.657  14.523   1.233
91872W        W63543  19.698  36.829  10.617
91873W        W63544  22.229  37.706  10.223
91874W        W63545  38.358  20.317  12.120
91875W        W63546  30.232  37.340  11.764
91876W        W63547  44.343  21.975   4.509
91877W        W63548  24.262  40.995   2.326
91878W        W63549  14.859   1.419  11.169
91879W        W63550  33.100  13.788  14.303
91880W        W63551  28.582   7.007   9.578
91881W        W63552  19.741  43.894  13.370
91882W        W63553   9.796  43.122   4.673
91883W        W63554  31.086  11.194   1.775
91884W        W63555   4.819   7.442   2.234
91885W        W63556  42.475  24.208   0.765
91886W        W63557  41.868  40.976  10.265
91887W        W63558   7.208  38.555  11.312
91888W        W63559  28.575  33.036  11.434
91889W        W63560  30.025   5.867   3.293
91890W        W63561  42.134  43.381  12.447
91891W        W63562  41.577  16.321   2.642
91892W        W63563   1.184  26.437   3.782
91893W        W63564   7.553  42.382  14.977
91894W        W63565  38.223  38.701   4.965
91895W        W63566  36.536  26.442  12.081
91896W        W63567  42.966  17.833  14.854
91897W        W63568  22.186  43.959  12.238
91898W        W63569  33.045  18.249  10.955
91899W        W63570  19.158  30.891  14.356
91900W        W63571  35.369  23.797   4.615
91901W        W63572  38.362  17.279   0.205
91902W        W63573  13.314  22.785   3.116
91903W        W63574   1.983  13.372   0.897
91904W        W63575   8.236   1.703   0.882
91905W        W63576  22.655  43.292   0.892
91906W        W63577  20.013  44.507  12.999
91907W        W63578   4.673  22.755  14.286
91908W        W63579   2.845  23.281  11.967
91909W        W63580  21.565  20.605   0.477
91910W        W63581  21.608  24.188  10.156
91911W        W63582   7.417  36.808   0.384
91912W        W63583  26.030  37.428  12.569
91913W        W63584  32.044   5.337  10.782
91914W        W63585   9.717  43.400  13.500
91915W        W63586   4.526   5.428  13.405
91916W        W63587  30.974  40.351   4.816
91917W        W63588  41.582   8.553   2.363
91918W        W63589   4.897  38.410  12.559
91919W        W63590   0.724  42.766   3.652
91920W        W63591  28.467  44.751  14.484
91921W        W63592   9.609   7.903   1.451
91922W        W63593  31.922  43.023  13.495
91923W        W63594  25.739  14.101   2.350
91924W        W63595  20.738   4.713  13.499
91925W        W63596  21.061  34.114  14.336
91926W        W63597  10.672  13.861  11.405
91927W        W63598  15.495   3.808   2.338
91928W        W63599   7.392  39.566   3.118
91929W        W63600  23.290  23.981   3.108
91930W        W63601  26.021  10.576  12.029
91931W        W63602  43.183  13.553   4.076
91932W        W63603  26.086  23.934   4.409
91933W        W63604  43.396  37.106  14.207
91934W        W63605  37.081   2.498   1.350
91935W        W63606   0.915   8.153   3.250
91936W        W63607  34.754  13.929   0.737
91937W        W63608   6.957  40.259  11.987
91938W        W63609  33.899  17.089   4.145
91939W        W63610   2.503  23.031  10.775
91940W        W63611  40.272  26.891  11.104
91941W        W63612  33.971  29.478  11.590
91942W        W63613   9.740  34.646   4.035
91943W        W63614   5.020   5.926   0.229
91944W        W63615  39.900  31.311   1.248
91945W        W63616  37.455  21.229   0.544
91946W        W63617  30.824  41.416  13.909
91947W        W63618  39.620  11.154  12.572
91948W        W63619  42.019   0.437   3.193
91949W        W63620  35.436  42.304  11.970
91950W        W63621  40.616   2.344   1.883
91951W        W63622  43.499  16.482   0.175
91952W        W63623  37.469  33.976   2.608
91953W        W63624   8.023  10.825  13.240
91954W        W63625  30.594  16.813  13.577
91955W        W63626   0.895   8.807  13.907
91956W        W63627  39.001  32.605  14.940
91957W        W63628   7.558   6.254  12.487
91958W        W63629   7.170  31.455  12.283
91959W        W63630   4.464   2.260  12.881
91960W        W63631  40.929   4.060   3.283
91961W        W63632  10.573   1.931   0.966
91962W        W63633  27.847  40.565   4.951
91963W        W63634   1.502  23.677   3.813
91964W        W63635  39.879  17.252  14.407
91965W        W63636   4.254  44.563  13.022
91966W        W63637  33.377   2.025  11.656
91967W        W63638  43.245   7.787  13.877
91968W        W63639  29.127  25.062   4.135
91969W        W63640  42.945  14.265   2.928
91970W        W63641  26.808   6.707   2.126
91971W        W63642   7.792   6.367   4.544
91972W        W63643   8.272  20.053   0.771
91973W        W63644   6.363  13.847  10.675
91974W        W63645   9.279   4.124   1.194
91975W        W63646  30.400  14.573   2.868
91976W        W63647  22.054  40.749   2.198
91977W        W63648  39.387  37.862   2.838
91978W        W63649  40.046  19.990   0.327
91979W        W63650   7.125  38.069  11.190
91980W        W63651  21.040  26.809  14.997
91981W        W63652  14.043  17.014  12.095
91982W        W63653  39.830  32.450  12.667
91983W        W63654  11.841   8.315  14.978
91984W        W63655  42.620  25.207  12.580
91985W        W63656  41.421  18.602  12.910
91986W        W63657  32.925   9.232   4.226
91987W        W63658  36.851   4.792  14.543
91988W        W63659  37.888  14.627   1.851
91989W        W63660   5.509   7.285  12.465
91990W        W63661  38.726  43.439   1.384
91991W        W63662  13.868  20.597  11.008
91992W        W63663  14.787  34.022   4.450
91993W        W63664  15.672  30.921  13.374
91994W        W63665   6.314  24.677  14.796
91995W        W63666   8.901   7.220   0.858
91996W        W63667  11.127   6.350   1.380
91997W        W63668  35.360   2.746   0.335
91998W        W63669  27.080  15.766   3.722
91999W        W63670  39.960  18.574   1.725
92000W        W63671  29.973  25.681   1.382
92001W        W63672  37.508  11.863   3.752
92002W        W63673  19.354  10.930  12.048
92003W        W63674   7.879  13.315   3.440
92004W        W63675  18.188  26.356   1.707
92005W        W63676  28.607   3.785   1.240
92006W        W63677   6.755  22.004  13.638
92007W        W63678  39.493  38.103   0.001
92008W        W63679   5.878  24.637  12.433
92009W        W63680   0.018  10.188  13.492
92010W        W63681  31.611  43.815   2.306
92011W        W63682   7.863   8.843  13.963
92012W        W63683  37.880  10.192  12.618
92013W        W63684  27.522  14.369  13.170
92014W        W63685  21.471  24.942  12.869
92015W        W63686   5.726  26.188   1.975
92016W        W63687  33.282  26.595  14.305
92017W        W63688   5.150  32.786   0.792
92018W        W63689  26.684   7.162  14.074
92019W        W63690  13.312  41.806   0.321
92020W        W63691  24.807  22.153   2.363
92021W        W63692  14.182  34.038   3.564
92022W        W63693  19.861  38.921   4.424
92023W        W63694   2.727  41.686   3.357
92024W        W63695  14.350   3.465  11.648
92025W        W63696   6.334  27.732   5.014
92026W        W63697   5.974  34.144  12.456
92027W        W63698  26.293  39.940   5.100
92028W        W63699   3.461  29.980   0.243
92029W        W63700  14.115  30.963  14.525
92030W        W63701   0.103  24.189   0.378
92031W        W63702  42.397   6.970  14.391
92032W        W63703  20.239  12.841  12.605
92033W        W63704  26.108  17.669  12.763
92034W        W63705  41.928  32.605  11.408
92035W        W63706  34.338  32.912  14.455
92036W        W63707  27.921  10.099  11.528
92037W        W63708   7.437  15.843  13.425
92038W        W63709   0.833  14.338   1.785
92039W        W63710  40.305  43.468   3.215
92040W        W63711  16.685  13.412  11.589
92041W        W63712  29.881  27.981  10.944
92042W        W63713  11.881  30.929  13.336
92043W        W63714  38.152  39.369   4.016
92044W        W63715  44.943   9.384   2.638
92045W        W63716   1.217  21.136  13.444
92046W        W63717   7.241   0.455   3.398
92047W        W63718  14.120   3.356  14.079
92048W        W63719  29.389   9.747   1.767
92049W        W63720   0.548  19.994  14.882
92050W        W63721  42.460  18.830   4.390
92051W        W63722   6.396  13.740   2.867
92052W        W63723  42.754  13.405   0.896
92053W        W63724  27.690  27.936   4.228
92054W        W63725   7.887  39.611   4.531
92055W        W63726  31.064  15.351  12.147
92056W        W63727  37.927  11.220   0.997
92057W        W63728  29.181  27.621   1.760
92058W        W63729  16.666  11.561  14.836
92059W        W63730  16.113  15.251  12.895
92060W        W63731  29.975  25.982   1.797
92061W        W63732  43.027  34.443   1.822
92062W        W63733   0.309  21.021  13.630
92063W        W63734  27.078  34.374  13.577
92064W        W63735  18.524  25.491  13.794
92065W        W63736   1.300  26.278  10.946
92066W        W63737  15.539  20.680   3.762
92067W        W63738  11.380  44.798   4.853
92068W        W63739  39.275  33.083   0.065
92069W        W63740  38.338  36.103  12.956
92070W        W63741   3.938  34.399  13.549
92071W        W63742   3.744  32.917   3.844
92072W        W63743  24.627  34.523   1.357
92073W        W63744  43.215   9.528   2.806
92074W        W63745  23.809  40.127  12.127
92075W        W63746  30.870  34.463   3.811
92076W        W63747  15.069  11.263  11.253
92077W        W63748  16.609   5.851   3.167
92078W        W63749  40.749  11.349  14.377
92079W        W63750   7.165   8.044  14.858
92080W        W63751  21.170  16.010   3.299
92081W        W63752  33.002  32.849  10.745
92082W        W63753  42.174  36.581  13.134
92083W        W63754  29.522  21.229  11.414
92084W        W63755  42.349  37.751  14.429
92085W        W63756  40.367  21.689  13.807
92086W        W63757  27.548  38.752  12.983
92087W        W63758  34.347  12.790  10.951
92088W        W63759  30.033  44.460  11.948
92089W        W63760  24.541  13.365   2.033
92090W        W63761  40.170  43.400  14.367
92091W        W63762  44.493  30.796  12.587
92092W        W63763  20.165  38.288   3.612
92093W        W63764  22.151  35.383  12.460
92094W        W63765  25.749  43.239   0.833
92095W        W63766  10.880  13.057  14.920
92096W        W63767  16.655  17.756  10.655
92097W        W63768  22.208  41.395  12.360
92098W        W63769  21.804  17.219  11.683
92099W        W63770  19.241   9.398  10.751
92100W        W63771  14.037  41.267   2.186
92101W        W63772  33.076   5.420   3.208
92102W        W63773  19.480  13.035   3.731
92103W        W63774   6.763  38.639  14.992
92104W        W63775  38.898  23.681  12.243
92105W        W63776  27.949  36.094   1.360
92106W        W63777  17.065  30.039   0.794
92107W        W63778  33.466  22.091  10.791
92108W        W63779  21.204  23.597  13.034
92109W        W63780  10.967  22.042  11.265
92110W        W63781   3.770  31.593   0.912
92111W        W63782  44.543  32.253  12.416
92112W        W63783  29.433  37.086  13.800
92113W        W63784   5.255  22.226   4.079
92114W        W63785   3.633  40.581  12.898
92115W        W63786  10.308  40.875   0.638
92116W        W63787  37.745  44.550  14.442
92117W        W63788   4.814  12.768   2.008
92118W        W63789  37.820  17.308   4.474
92119W        W63790   4.004  34.825   0.333
92120W        W63791  27.810  29.075  14.305
92121W        W63792  17.809  18.761  13.642
92122W        W63793  34.104  20.938   4.526
92123W        W63794  39.010  12.719   2.421
92124W        W63795  16.728  32.162  14.282
92125W        W63796  24.928   1.155  11.071
92126W        W63797  15.025  39.782  11.474
92127W        W63798   9.828  18.451   3.374
92128W        W63799  19.789  38.555   4.815
92129W        W63800  33.140  10.894   0.492
92130W        W63801  37.802  27.551   3.947
92131W        W63802  33.633  41.418  11.746
92132W        W63803  40.636  25.996  11.204
92133W        W63804  37.559  33.326   1.831
92134W        W63805   6.314  34.477   4.614
92135W        W63806   4.933  41.362   0.966
92136W        W63807  31.545  18.734   3.677
92137W        W63808  44.453  21.757   2.745
92138W        W63809   2.991   5.250   4.514
92139W        W63810  11.630  17.289  13.268
92140W        W63811  17.043  30.615   2.900
92141W        W63812   7.103  29.208   0.714
92142W        W63813  29.192  23.217   0.733
92143W        W63814  42.524  12.591  11.950
92144W        W63815  11.385  44.497  12.696
92145W        W63816  35.874  13.194   4.124
92146W        W63817  13.582  12.573  13.795
92147W        W63818  38.798  36.354  10.622
92148W        W63819  22.736  38.385  11.272
92149W        W63820  11.385  25.234  12.018
92150W        W63821   2.019  34.910   3.297
92151W        W63822   6.599  42.961   0.299
92152W        W63823  13.273  17.008  11.509
92153W        W63824  43.878  41.443  10.040
92154W        W63825  15.291  29.102   4.337
92155W        W63826  40.835   4.193   2.198
92156W        W63827   5.974   9.681  14.939
92157W        W63828  21.259  11.207  10.639
92158W        W63829  18.286  15.878  14.022
92159W        W63830   5.130  40.088  13.953
92160W        W63831  23.289  28.578   2.945
92161W        W63832  13.522   7.626  12.092
92162W        W63833  34.367  35.461   3.180
92163W        W63834  11.830   1.360  12.072
92164W        W63835  14.113   0.989  11.572
92165W        W63836  27.934  26.075  12.118
92166W        W63837  14.029  12.306   3.097
92167W        W63838  13.957  23.054  11.983
92168W        W63839   3.920  31.524   0.426
92169W        W63840  39.309  26.904   3.209
92170W        W63841  36.405  16.077   3.807
92171W        W63842  19.711  12.352  13.123
92172W        W63843  17.619  26.908   4.810
92173W        W63844  44.363   4.906  13.342
92174W        W63845  26.994   0.737   4.744
92175W        W63846  21.664  16.597  11.781
92176W        W63847   9.104  30.930  12.466
92177W        W63848   5.132  21.957   0.427
92178W        W63849  24.942  11.456   0.893
92179W        W63850  16.270  21.290   1.664
92180W        W63851  42.213  26.021   3.718
92181W        W63852   8.723  20.164   1.070
92182W        W63853  20.987   0.444  11.708
92183W        W63854  14.142  13.449  13.475
92184W        W63855  40.946  23.754  12.064
92185W        W63856  22.246   7.550   0.790
92186W        W63857  16.911  11.641   2.712
92187W        W63858  21.096  13.168   1.750
92188W        W63859  38.021  29.541  14.996
92189W        W63860  23.533   2.710  12.951
92190W        W63861  42.002  31.115  14.614
92191W        W63862  15.801  19.185  11.182
92192W        W63863  38.222  18.659  10.648
92193W        W63864  18.668   9.111   1.632
92194W        W63865   3.191  33.177  12.904
92195W        W63866   0.878  38.316   2.927
92196W        W63867   1.281   1.338   1.456
92197W        W63868  33.192  19.675   4.735
92198W        W63869  42.027  16.196  13.064
92199W        W63870  36.478  42.152  11.189
92200W        W63871   9.031  23.654   0.245
92201W        W63872  44.354   8.743  14.737
92202W        W63873   2.124  24.714   1.192
92203W        W63874  31.317  17.471   4.147
92204W        W63875  14.878   4.430   4.130
92205W        W63876  43.241  22.816   2.051
92206W        W63877  18.551   7.831   2.213
92207W        W63878  18.551   5.665   1.773
92208W        W63879  27.984  20.660   4.163
92209W        W63880  12.878   9.606  11.394
92210W        W63881  13.236  25.470   4.352
92211W        W63882  31.046   0.937  11.919
92212W        W63883  11.583  30.448  10.837
92213W        W63884  39.232  29.881  12.460
92214W        W63885  35.068  19.590  11.542
92215W        W63886   0.023  35.174  11.642
92216W        W63887  44.438  37.706   4.980
92217W        W63888   2.536  29.233   1.743
92218W        W63889  14.707   4.775   3.603
92219W        W63890  14.865  15.832   3.177
92220W        W63891  15.788  27.973  11.458
92221W        W63892  11.879  10.765  12.470
92222W        W63893  37.049  20.608  11.481
92223W        W63894  27.547   0.501  14.953
92224W        W63895  35.537  37.908   1.794
92225W        W63896   7.842  34.653   3.801
92226W        W63897  35.397  38.075   3.637
92227W        W63898  39.119  16.328  14.983
92228W        W63899  11.552  22.620   1.926
92229W        W63900  30.499   4.186  12.016
92230W        W63901  19.429  24.810  10.483
92231W        W63902  40.080  18.686   3.205
92232W        W63903   6.228   5.795   1.324
92233W        W63904  38.663  40.567  10.005
92234W        W63905  39.869   7.449   0.432
92235W        W63906  19.605  11.672   0.691
92236W        W63907  29.038  32.365  11.447
92237W        W63908  16.850   6.374  14.294
92238W        W63909  31.513   8.079  10.879
92239W        W63910   2.560  14.816   3.747
92240W        W63911  38.886  29.092  14.796
92241W        W63912  15.236  20.310  14.258
92242W        W63913   4.329  15.080   1.502
92243W        W63914   5.863  11.846  11.353
92244W        W63915  44.255   4.146   4.187
92245W        W63916  44.519  33.420  13.073
92246W        W63917  10.813  19.544  13.392
92247W        W63918   1.795  12.482   1.001
92248W        W63919  15.203  18.725   4.676
92249W        W63920  34.780  21.770   3.748
92250W        W63921  10.846  36.764   4.083
92251W        W63922  21.957  13.642   2.767
92252W        W63923  11.759   4.944  12.567
92253W        W63924  22.291  36.541  14.863
92254W        W63925   8.580  20.651   2.622
92255W        W63926  40.218  36.025   2.463
92256W        W63927  12.122  20.662  10.690
92257W        W63928   4.818   2.577  11.166
92258W        W63929  12.343  26.133   4.117
92259W        W63930  38.607  24.015   1.322
92260W        W63931   9.087  44.465  13.505
92261W        W63932   5.460  26.834   4.130
92262W        W63933  44.828  20.596  10.607
92263W        W63934   0.487  34.997   2.914
92264W        W63935   6.743   6.939  11.982
92265W        W63936  23.727  41.959   4.556
92266W        W63937  38.093  38.238  13.367
92267W        W63938  13.745  40.495  13.064
92268W        W63939   4.034  26.644   1.856
92269W        W63940  29.906  15.314   0.649
92270W        W63941  19.184  36.591   4.926
92271W        W63942   5.929  25.875  13.386
92272W        W63943  32.009  42.378   3.841
92273W        W63944  12.456  13.364  13.346
92274W        W63945   1.888  22.338  12.287
92275W        W63946  23.737   3.257  13.832
92276W        W63947  40.098  21.264  13.923
92277W        W63948   4.752  32.992  14.864
92278W        W63949  29.410  33.546   4.976
92279W        W63950   4.226  27.263   2.975
92280W        W63951  29.919  39.366  13.478
92281W        W63952  36.245  11.001   2.928
92282W        W63953  44.566  12.681  12.065
92283W        W63954  28.504  14.850  14.162
92284W        W63955   5.414  27.463   1.429
92285W        W63956  23.632  37.246  12.461
92286W        W63957  29.037   7.279   5.015
92287W        W63958  27.717  33.407  11.442
92288W        W63959  11.796  16.586   3.231
92289W        W63960   8.644  39.927   4.521
92290W        W63961   7.264  38.739  12.464
92291W        W63962  35.061  22.080  13.083
92292W        W63963  40.392  37.811  14.508
92293W        W63964  17.213  37.609   1.252
92294W        W63965  15.325  11.312  13.634
92295W        W63966  33.516   5.914  14.393
92296W        W63967  33.077  13.106   3.836
92297W        W63968  36.304  21.772  13.879
92298W        W63969   1.420   7.244   3.376
92299W        W63970  22.094  32.801  14.361
92300W        W63971  32.905  20.600   3.473
92301W        W63972  18.820  10.878  12.086
92302W        W63973  34.647  42.822   2.234
92303W        W63974  24.265  12.025   2.161
92304W        W63975  12.071  17.156   3.440
92305W        W63976  37.419   2.472   3.712
92306W        W63977  43.252  18.617  11.268
92307W        W63978  36.073  35.404   3.152
92308W        W63979  30.904  17.741   0.752
92309W        W63980  25.253   7.488  12.896
92310W        W63981  20.507  34.972   4.093
92311W        W63982  15.749  14.000   2.241
92312W        W63983  16.404  10.655  12.080
92313W        W63984   4.252  17.119  13.408
92314W        W63985  44.195   2.715   3.150
92315W        W63986   3.254  24.494  12.988
92316W        W63987  28.974  20.820   1.015
92317W        W63988  17.747   2.537  14.254
92318W        W63989   4.371  39.906  14.848
92319W        W63990  40.765  31.038  12.933
92320W        W63991  19.220   6.231   0.807
92321W        W63992  24.442   3.774  11.475
92322W        W63993  41.992  39.339   4.999
92323W        W63994   4.801  29.536  10.580
92324W        W63995  43.874  34.966  10.845
92325W        W63996  44.819  28.736  13.252
92326W        W63997   2.765  16.326  12.029
92327W        W63998   1.733  20.324   2.781
92328W        W63999  36.327  32.473  13.354
92329W        W64000  15.744   7.865  11.231
92330W        W64001  14.750  24.422  11.656
92331W        W64002  36.023  37.808  11.023
92332W        W64003  22.077   1.244   2.674
92333W        W64004  38.351   1.995  13.087
92334W        W64005  21.529  26.988  13.812
92335W        W64006  40.407  22.240   0.460
92336W        W64007  34.191   5.588   4.577
92337W        W64008   1.356  26.599   0.086
92338W        W64009   9.848  32.475   4.215
92339W        W64010  22.643  15.122   2.702
92340W        W64011  20.486   1.658  11.154
92341W        W64012  42.928  38.894  11.504
92342W        W64013   2.058  39.423   2.316
92343W        W64014   0.734  18.545   0.750
92344W        W64015  23.592  25.490  14.078
92345W        W64016  41.914  30.207  13.606
92346W        W64017  30.923  15.830  11.695
92347W        W64018  25.012   0.986   0.033
92348W        W64019   1.660  38.919  11.553
92349W        W64020  24.795  24.891  14.287
92350W        W64021  24.954  44.563  13.302
92351W        W64022   1.440  18.838   1.799
92352W        W64023   0.427  36.596   1.682
92353W        W64024  28.921  11.376   2.893
92354W        W64025  22.723  17.063  11.105
92355W        W64026  21.012  36.855  10.459
92356W        W64027  44.505  34.849   2.275
92357W        W64028  39.220  22.052  10.576
92358W        W64029  14.137  22.793   0.871
92359W        W64030   3.004   8.901   2.991
92360W        W64031  21.008  33.397   1.378
92361W        W64032  34.737  36.482   4.750
92362W        W64033  39.362  43.950   1.729
92363W        W64034   6.709   7.860  11.997
92364W        W64035  13.231   5.608  13.410
92365W        W64036  35.984   0.934  12.459
92366W        W64037   6.204  18.192  14.517
92367W        W64038  10.883  29.730  13.462
92368W        W64039  26.328  40.308  13.801
92369W        W64040  43.855  26.931  10.720
92370W        W64041   8.698   2.644   3.526
92371W        W64042  31.236   2.322   0.809
92372W        W64043  40.073  44.491   1.452
92373W        W64044   5.321   6.287  11.510
92374W        W64045  35.158  14.899  14.890
92375W        W64046  41.087  31.671  14.790
92376W        W64047   1.771  32.497  12.643
92377W        W64048  14.319  20.011  14.657
92378W        W64049  41.376  26.657   1.960
92379W        W64050  42.547  24.216  11.111
92380W        W64051  17.475  14.740   5.030
92381W        W64052  39.469  18.724  13.855
92382W        W64053   9.641  37.031   0.900
92383W        W64054  26.119  36.929  11.723
92384W        W64055  17.955   5.809  10.082
92385W        W64056  31.919  11.858   0.395
92386W        W64057  38.822  39.640  13.026
92387W        W64058   0.384   9.231   0.358
92388W        W64059  43.619  36.441   3.546
92389W        W64060  17.128   8.207  11.629
92390W        W64061  42.312  10.720  14.780
92391W        W64062  17.985   4.373   2.133
92392W        W64063  28.528   5.557   3.100
92393W        W64064  25.150  37.881  10.623
92394W        W64065  22.959  38.998  14.492
92395W        W64066  21.062  31.163   0.409
92396W        W64067   0.812   5.215  10.905
92397W        W64068  39.587   7.446  13.477
92398W        W64069  44.832  20.250   2.288
92399W        W64070   8.731   4.297  10.654
92400W        W64071  17.757   5.474  11.585
92401W        W64072  16.052  33.908   3.592
92402W        W64073  14.410  34.131  11.067
92403W        W64074  21.969  27.286   3.660
92404W        W64075   6.896  11.764   2.764
92405W        W64076   2.753  10.727   0.976
92406W        W64077  37.099  21.689  11.238
92407W        W64078  13.916  18.323  11.271
92408W        W64079  42.893  17.615  14.399
92409W        W64080   4.819  39.715   2.283
92410W        W64081  11.280  39.872   2.639
92411W        W64082  21.754  38.971  10.909
92412W        W64083  34.456  16.865   0.349
92413W        W64084  38.850  16.614   0.786
92414W        W64085  32.711  18.777  14.813
92415W        W64086  10.623  34.171  10.912
92416W        W64087  18.745  14.198  14.077
92417W        W64088  43.031  10.216  12.898
92418W        W64089  40.809  44.933   4.689
92419W        W64090  17.573  33.706  11.635
92420W        W64091  22.388  24.766   9.866
92421W        W64092  15.915  26.468   0.794
92422W        W64093  31.649  43.567  12.917
92423W        W64094  38.999   7.699   2.078
92424W        W64095  43.437  34.331  11.815
92425W        W64096  38.328  19.994   0.878
92426W        W64097   4.864  18.625  13.562
92427W        W64098   2.897  36.628  11.496
92428W        W64099  32.075  36.142   1.551
92429W        W64100  34.323  31.381   3.241
92430W        W64101   3.224  31.329   4.541
92431W        W64102  24.936  36.837   2.786
92432W        W64103  40.740  11.386   2.777
92433W        W64104  28.088  14.981   1.252
92434W        W64105  32.145  39.081  14.990
92435W        W64106  44.156  18.608  13.278
92436W        W64107  26.105   8.954  10.242
92437W        W64108  23.716  12.730  10.916
92438W        W64109  13.682  33.786  11.530
92439W        W64110  18.786  11.349   1.660
92440W        W64111  23.083   2.058  10.723
92441W        W64112   4.558  41.953  14.816
92442W        W64113  19.658  12.903  10.989
92443W        W64114  33.141  35.090  12.492
92444W        W64115  37.475   0.246   1.859
92445W        W64116   6.602   0.369  10.482
92446W        W64117  27.961   8.664   4.779
92447W        W64118   6.982  14.223  13.476
92448W        W64119  42.944  19.033   2.196
92449W        W64120  13.527   5.408   0.780
92450W        W64121  23.742  33.095  14.871
92451W        W64122  41.810  36.298   3.716
92452W        W64123  13.812  17.554   3.785
92453W        W64124  44.099  32.026   0.038
92454W        W64125  22.570   0.108   4.133
92455W        W64126  23.671  38.707   9.853
92456W        W64127   6.605   2.349  11.830
92457W        W64128   1.980   2.789  10.873
92458W        W64129   4.508  14.271  13.302
92459W        W64130  28.384  35.820   5.194
92460W        W64131  32.576  38.758   1.188
92461W        W64132  31.376   3.716  12.858
92462W        W64133   1.882  19.227   0.048
92463W        W64134   6.001  42.962   4.283
92464W        W64135   2.474  27.542  14.747
92465W        W64136  40.105  19.081   1.791
92466W        W64137  21.957  21.204   2.739
92467W        W64138  36.602   4.743  12.149
92468W        W64139  29.072  28.154   1.768
92469W        W64140  41.885  12.577   2.232
92470W        W64141  40.745  34.578  11.109
92471W        W64142  13.626   7.934  12.491
92472W        W64143  14.594  21.104  13.540
92473W        W64144   7.439  15.407   4.116
92474W        W64145  15.687  16.539  11.377
92475W        W64146  28.989   0.489   4.085
92476W        W64147  42.009  14.239  10.137
92477W        W64148   6.526   1.049  11.393
92478W        W64149  13.366  37.365   0.830
92479W        W64150  23.760  39.048   4.603
92480W        W64151  42.481  30.663   2.595
92481W        W64152  43.989  32.069  10.384
92482W        W64153   4.505  17.345  13.805
92483W        W64154  14.004  23.259  11.165
92484W        W64155  38.261  39.856   3.856
92485W        W64156  32.089  35.955   1.073
92486W        W64157   8.404  14.543   2.807
92487W        W64158  30.809  40.271  10.090
92488W        W64159  29.554  31.616   1.994
92489W        W64160  11.720  38.731  11.986
92490W        W64161   2.815  37.284   4.400
92491W        W64162  26.521  23.168  10.678
92492W        W64163  41.885   6.924  13.888
92493W        W64164  21.246  37.395  13.580
92494W        W64165  12.650  24.592   2.674
92495W        W64166  23.234  32.872   0.744
92496W        W64167  31.382  22.676  13.924
92497W        W64168  40.064   0.852   0.212
92498W        W64169   4.410  15.061  14.385
92499W        W64170  17.155  27.201   2.755
92500W        W64171   6.682  11.117   4.349
92501W        W64172   0.015  13.389  12.293
92502W        W64173   0.361   0.201   4.324
92503W        W64174  19.605  40.545   0.266
92504W        W64175   1.616  40.597   0.833
92505W        W64176  39.296  16.649  10.622
92506W        W64177   7.167  16.640   0.313
92507W        W64178  33.455  27.015   4.005
92508W        W64179  11.310   4.972  12.235
92509W        W64180  11.198  24.697  14.831
92510W        W64181  15.677  14.405  14.888
92511W        W64182  29.472   9.138  13.928
92512W        W64183  15.442  26.710   0.928
92513W        W64184  11.682  14.062   3.820
92514W        W64185  12.337  22.963   0.341
92515W        W64186   3.732  44.142  10.308
92516W        W64187  20.192  30.557   4.623
92517W        W64188  26.272  21.974   0.633
92518W        W64189  44.055   0.889  10.520
92519W        W64190  19.498  39.063   2.223
92520W        W64191  30.097  39.959  14.815
92521W        W64192  44.838  37.070  14.544
92522W        W64193   9.732  26.154   1.528
92523W        W64194  20.806  20.119   1.689
92524W        W64195  23.219  16.295   1.491
92525W        W64196  20.612  28.829   0.780
92526W        W64197  37.971  14.050   0.423
92527W        W64198  32.169  40.740   1.897
92528W        W64199  12.284   0.051  14.942
92529W        W64200  10.169  39.823  10.704
92530W        W64201  25.887  39.859  14.485
92531W        W64202  25.175  30.930   0.730
92532W        W64203  31.697  35.956   2.886
92533W        W64204  40.416  35.600   4.546
92534W        W64205  22.717  35.812   3.608
92535W        W64206  15.364  31.895   0.041
92536W        W64207  25.644  43.360  11.206
92537W        W64208  12.133  24.011  10.644
92538W        W64209  13.257  22.414   1.726
92539W        W64210   7.453  17.272   3.250
92540W        W64211  30.031  15.132   4.520
92541W        W64212   9.779  39.013   0.240
92542W        W64213  11.206   6.362   1.905
92543W        W64214  40.897  23.968  11.586
92544W        W64215  25.176  26.982   2.130
92545W        W64216  44.897   9.858   4.300
92546W        W64217  31.879   7.411  13.337
92547W        W64218  11.250  38.374  12.125
92548W        W64219  22.117  26.141   0.558
92549W        W64220  43.777   6.800  11.436
92550W        W64221  14.527  30.060   2.401
92551W        W64222  16.599  36.374   2.380
92552W        W64223  10.615  30.613   0.285
92553W        W64224  23.245  31.356  11.943
92554W        W64225  30.716   1.107  12.705
92555W        W64226  21.050  23.144  13.309
92556W        W64227  30.061  44.714  12.464
92557W        W64228  31.872  10.266  10.716
92558W        W64229  18.365  37.019   4.647
92559W        W64230  12.380   1.410   2.236
92560W        W64231  12.266  15.310   3.619
92561W        W64232  35.125   0.289  14.201
92562W        W64233  22.297  16.720   0.770
92563W        W64234  31.498   3.825   3.170
92564W        W64235  23.081  38.479   1.252
92565W        W64236  22.080  13.578  11.003
92566W        W64237  38.451  41.977   1.829
92567W        W64238  30.623  15.602  12.033
92568W        W64239  34.347  39.696  10.586
92569W        W64240  18.798  17.248  14.788
92570W        W64241  27.112  38.126   3.154
92571W        W64242   7.814  19.435   1.707
92572W        W64243   7.269  41.722  12.081
92573W        W64244   9.670  31.067   2.785
92574W        W64245  14.659  16.064   0.827
92575W        W64246  20.515  11.989   0.146
92576W        W64247  17.606  30.182  13.438
92577W        W64248  40.419   6.345   4.501
92578W        W64249  44.533   0.238   1.375
92579W        W64250  39.366  14.285  11.309
92580W        W64251   2.619  40.374   4.648
92581W        W64252  11.806  24.713  12.877
92582W        W64253  11.793  11.865  10.843
92583W        W64254  24.152   5.936   0.298
92584W        W64255   5.264  31.141  12.559
92585W        W64256  15.986  19.656  13.419
92586W        W64257  42.070   8.447  11.686
92587W        W64258   6.492  34.366  12.934
92588W        W64259  34.886  18.601  11.266
92589W        W64260  41.317  33.919   1.045
92590W        W64261  41.068  42.940   4.037
92591W        W64262  39.984  23.026  14.980
92592W        W64263  17.843  30.948   0.815
92593W        W64264  33.895  42.207  11.135
92594W        W64265   5.875   5.759  12.763
92595W        W64266  25.932  35.395   1.116
92596W        W64267  11.254  10.909   2.876
92597W        W64268  35.913   8.163  10.680
92598W        W64269  32.235  20.815  10.657
92599W        W64270   0.090   7.398   1.872
92600W        W64271  34.391  21.364  11.356
92601W        W64272  41.699  29.037   1.817
92602W        W64273   5.285   6.472   0.909
92603W        W64274   8.964  24.499  11.120
92604W        W64275  34.561   4.802   4.669
92605W        W64276  31.061  11.716   1.157
92606W        W64277  37.681  44.823  13.957
92607W        W64278  42.516   2.471   3.218
92608W        W64279  33.060  14.262  12.910
92609W        W64280   3.720  33.278   3.092
92610W        W64281  11.309  20.394   0.440
92611W        W64282  21.357   8.651  11.688
92612W        W64283  21.291  20.210   0.308
92613W        W64284  29.919   8.691  14.762
92614W        W64285  14.151  10.745   3.972
92615W        W64286   8.271  28.471   0.997
92616W        W64287   7.367  37.614   0.771
92617W        W64288  26.786  14.125   3.657
92618W        W64289  30.107  41.459   2.295
92619W        W64290  28.897  12.759  13.779
92620W        W64291  35.651  18.781  12.140
92621W        W64292  21.821  31.349  12.007
92622W        W64293  30.975   6.859  11.086
92623W        W64294   1.107  30.891  14.086
92624W        W64295  32.648  36.965   3.136
92625W        W64296  43.492  23.206  12.341
92626W        W64297  34.552   0.684   1.419
92627W        W64298  29.512  16.266   3.343
92628W        W64299  15.169  10.030   4.231
92629W        W64300   6.322   7.568  14.534
92630W        W64301  44.022  11.419   5.336
92631W        W64302   9.662  13.146  12.214
92632W        W64303   8.292   7.469  12.877
92633W        W64304  22.307  14.739  14.813
92634W        W64305  43.484  29.388  10.610
92635W        W64306  25.404  39.899  13.080
92636W        W64307   1.872  23.517   0.459
92637W        W64308  43.788  18.885   0.862
92638W        W64309  15.905   3.076   0.864
92639W        W64310  34.764  19.298   3.290
92640W        W64311   3.377  31.758  11.975
92641W        W64312  14.300  35.523  11.150
92642W        W64313  23.918   7.226  11.246
92643W        W64314  26.555  25.216   3.262
92644W        W64315  24.682   2.400  11.629
92645W        W64316   3.545  26.039  11.384
92646W        W64317  15.362   3.301   2.298
92647W        W64318  32.068  15.867  13.979
92648W        W64319  25.121  39.050   2.977
92649W        W64320  38.100  43.421   4.779
92650W        W64321   7.872  13.839   0.504
92651W        W64322  23.278  35.106   3.679
92652W        W64323  43.400  26.506   3.724
92653W        W64324  23.198  25.455  10.641
92654W        W64325  30.306  24.043  11.683
92655W        W64326   3.264  22.269  14.803
92656W        W64327  33.737  22.518   1.906
92657W        W64328  33.400  15.695  10.188
92658W        W64329   7.775  28.357  12.800
92659W        W64330  23.128  25.965   3.968
92660W        W64331  31.233  34.351   4.156
92661W        W64332   3.897   1.755   0.285
92662W        W64333  11.342  13.372   1.886
92663W        W64334  15.249  24.326  11.052
92664W        W64335  29.892  14.670  13.447
92665W        W64336  30.225   9.782  14.310
92666W        W64337  33.640  27.745   1.811
92667W        W64338  44.961  18.214  11.145
92668W        W64339  19.872  40.989  11.393
92669W        W64340  35.425  22.976  14.823
92670W        W64341  15.303  14.736   0.968
92671W        W64342  20.264  34.040   1.225
92672W        W64343  44.800  41.379   0.926
92673W        W64344  28.817  27.450  12.558
92674W        W64345   1.704  42.299   2.769
92675W        W64346  28.908  42.492  11.217
92676W        W64347  12.521  29.096  14.555
92677W        W64348  17.522  19.681  11.987
92678W        W64349  25.451   5.284  13.560
92679W        W64350  43.048  34.493   2.735
92680W        W64351  35.653  18.933   1.731
92681W        W64352  35.471  34.797   2.799
92682W        W64353  18.974  34.850   1.724
92683W        W64354  13.914  32.944   3.259
92684W        W64355   8.185  11.152  14.016
92685W        W64356  43.944  14.770   0.413
92686W        W64357  31.950  34.450  14.443
92687W        W64358   4.477   9.739  13.841
92688W        W64359  43.037  32.930   1.246
92689W        W64360  25.558  15.846   3.925
92690W        W64361  41.465  10.323  13.329
92691W        W64362  28.146   9.852  12.924
92692W        W64363  36.066  44.598  13.991
92693W        W64364  25.123  16.537  10.640
92694W        W64365   1.141  36.062   1.417
92695W        W64366   2.485  28.154   1.785
92696W        W64367   0.585  11.643  12.517
92697W        W64368  10.159   6.914  13.230
92698W        W64369   6.389  29.793  11.101
92699W        W64370  16.423   1.118   1.834
92700W        W64371  23.468   3.156   2.787
92701W        W64372   7.290  13.812   0.928
92702W        W64373  36.765  28.946   2.539
92703W        W64374  43.223  19.641   0.735
92704W        W64375   4.586  26.965   3.193
92705W        W64376   3.532  35.200  14.320
92706W        W64377  39.329  25.136   0.295
92707W        W64378  24.824  30.528  13.941
92708W        W64379  38.186   5.305   2.167
92709W        W64380  29.360   6.004   3.603
92710W        W64381  39.338  31.763  12.792
92711W        W64382   4.395  26.450   1.550
92712W        W64383  34.069  23.360   2.714
92713W        W64384   8.687   0.038  11.847
92714W        W64385  26.756   2.796   0.414
92715W        W64386  42.590  28.627  13.386
92716W        W64387   6.553  23.696  10.454
92717W        W64388  34.328  41.322  13.356
92718W        W64389  40.021  14.150   2.179
92719W        W64390   9.339  36.087  12.102
92720W        W64391  37.286  28.817   3.660
92721W        W64392  22.653  22.611   1.815
92722W        W64393   5.661  15.508  11.291
92723W        W64394  20.576  43.377   2.781
92724W        W64395  24.849  10.854  14.335
92725W        W64396  34.444   0.871   0.943
92726W        W64397   7.238  32.044  11.537
92727W        W64398   3.361  25.511  10.407
92728W        W64399   0.575   7.208  12.912
92729W        W64400  24.902  25.970  10.503
92730W        W64401  41.686  43.221  14.511
92731W        W64402  33.888  30.462   4.213
92732W        W64403   5.189  41.498   3.325
92733W        W64404  25.793  29.129   4.975
92734W        W64405  19.878  13.773  12.582
92735W        W64406  30.411  16.676  11.582
92736W        W64407   2.947  41.520  12.361
92737W        W64408   3.445   4.956  12.078
92738W        W64409  13.101  35.306   4.203
92739W        W64410   6.419  22.532   2.757
92740W        W64411  41.563  38.981  14.370
92741W        W64412  22.776  41.533  11.597
92742W        W64413   1.373  30.916   3.709
92743W        W64414  27.052  36.384  10.706
92744W        W64415  10.348  35.592  12.695
92745W        W64416  33.659   8.688  12.403
92746W        W64417   9.646  10.313   1.155
92747W        W64418  13.076   8.437   2.224
92748W        W64419   5.423  39.849   2.697
92749W        W64420  16.741  42.919  11.630
92750W        W64421  34.453   0.678  10.434
92751W        W64422  30.647  16.654   2.357
92752W        W64423  33.560  21.763   3.200
92753W        W64424  44.821  35.388   4.193
92754W        W64425  16.208  11.729   0.529
92755W        W64426   3.426  36.035   1.936
92756W        W64427  38.021  27.903   2.847
92757W        W64428  25.587  34.284  10.253
92758W        W64429   6.356  24.441  11.599
92759W        W64430  34.060  28.872   1.267
92760W        W64431   6.778   3.925   1.883
92761W        W64432  43.367  18.100   2.252
92762W        W64433  22.759  35.114  14.472
92763W        W64434  29.065  28.877   4.664
92764W        W64435  21.326  35.296  13.872
92765W        W64436  35.705   2.822  12.275
92766W        W64437   0.312  36.132   3.301
92767W        W64438   5.484   1.208   4.109
92768W        W64439  37.167   1.841   3.835
92769W        W64440  20.140  23.665   9.853
92770W        W64441  27.194  34.927   1.456
92771W        W64442  22.093  34.884  13.922
92772W        W64443  20.000  31.655   0.809
92773W        W64444  23.958  39.390   3.268
92774W        W64445   6.276  28.355   1.823
92775W        W64446   7.741  12.367   3.475
92776W        W64447  41.510  26.168  14.731
92777W        W64448  29.655  17.743   1.615
92778W        W64449   4.876  10.718   2.678
92779W        W64450  13.716  40.915   0.265
92780W        W64451  35.867   8.426   4.170
92781W        W64452  28.065  33.664  12.354
92782W        W64453  42.957  16.273  12.388
92783W        W64454  38.083  30.066  13.801
92784W        W64455  30.533  12.306   3.010
92785W        W64456  10.241  11.759  14.062
92786W        W64457  35.179  35.152  12.005
92787W        W64458   0.997   7.465   1.732
92788W        W64459  15.080  33.854  14.787
92789W        W64460  29.996   7.820   1.491
92790W        W64461  41.409  24.956   4.268
92791W        W64462  36.437  28.683  14.978
92792W        W64463  38.544   1.761   2.032
92793W        W64464  15.222  33.363  10.614
92794W        W64465  20.734  40.771   0.071
92795W        W64466  16.007   2.217   4.040
92796W        W64467   4.799  21.108  11.401
92797W        W64468  13.345  27.043  12.497
92798W        W64469   3.211  37.794   2.334
92799W        W64470  43.398  13.547   2.230
92800W        W64471   5.962  28.207   3.617
92801W        W64472  33.901  24.066  12.898
92802W        W64473  37.476  30.544   4.857
92803W        W64474  29.380  10.825   2.736
92804W        W64475  23.689  37.962   3.162
92805W        W64476  10.858  19.443   1.760
92806W        W64477  10.715  36.318   1.319
92807W        W64478  30.611   5.972  12.396
92808W        W64479   0.415  13.161  10.165
92809W        W64480   2.145  22.285   1.164
92810W        W64481   9.423  15.828  11.145
92811W        W64482   6.228   2.724   4.640
92812W        W64483   6.498  44.975   4.398
92813W        W64484  28.363  23.085   2.512
92814W        W64485  28.058  42.753   3.914
92815W        W64486   3.167   2.489   2.282
92816W        W64487  19.043   3.244   0.909
92817W        W64488  22.660   2.156  11.202
92818W        W64489  21.051  43.592   4.460
92819W        W64490   4.749   6.763  14.793
92820W        W64491  44.347  15.397   3.694
92821W        W64492  12.430  26.388  14.842
92822W        W64493  35.817  20.234  10.572
92823W        W64494   2.174  13.293  13.544
92824W        W64495  18.073  28.529   4.118
92825W        W64496  33.652   8.140   4.940
92826W        W64497  22.548  28.535  12.626
92827W        W64498   7.008  38.736  14.061
92828W        W64499  43.069   2.951  14.332
92829W        W64500   3.603  14.729  11.877
92830W        W64501  37.352   9.742   3.617
92831W        W64502  25.206  24.050  14.824
92832W        W64503  19.201  13.611   4.149
92833W        W64504  33.397  16.724  13.822
92834W        W64505  21.513  39.983   3.157
92835W        W64506  33.024  15.871   0.720
92836W        W64507  27.069  16.319   3.030
92837W        W64508  11.899  43.030   4.687
92838W        W64509  13.760  12.262   3.956
92839W        W64510  11.301  18.063   4.158
92840W        W64511  16.565   3.441   0.191
92841W        W64512  32.613   5.038  14.712
92842W        W64513  10.839  43.772   0.296
92843W        W64514  38.255   9.768  12.636
92844W        W64515  18.745  30.215   3.592
92845W        W64516  26.543  24.515   1.024
92846W        W64517   1.896  15.207  14.970
92847W        W64518  21.703  34.520   2.371
92848W        W64519  11.268   8.993   0.765
92849W        W64520   6.410  15.550   0.442
92850W        W64521  41.020  20.950   1.788
92851W        W64522  36.335  28.374  12.974
92852W        W64523  19.535  31.595  12.854
92853W        W64524   3.041  44.321  13.823
92854W        W64525  32.114   5.982   4.191
92855W        W64526  12.584  15.147   1.786
92856W        W64527  33.717  16.730  11.138
92857W        W64528   7.297  44.851   3.117
92858W        W64529  40.308  35.980   0.896
92859W        W64530  21.728   9.058  11.677
92860W        W64531  12.170  14.841  11.557
92861W        W64532  44.483  19.993   3.670
92862W        W64533  42.380  32.110  14.380
92863W        W64534   2.058  39.513  13.941
92864W        W64535  36.842  32.519  12.177
92865W        W64536   8.855  12.056   1.939
92866W        W64537  39.560  19.498   2.401
92867W        W64538  11.213   2.259   1.423
92868W        W64539  20.567  16.395   0.529
92869W        W64540   4.154  19.885  11.666
92870W        W64541  22.933  19.591  13.279
92871W        W64542  43.080  21.534   5.183
92872W        W64543  18.362  11.852   3.544
92873W        W64544  13.357  21.382   1.780
92874W        W64545  18.840  28.942  10.685
92875W        W64546  41.532   7.610   1.261
92876W        W64547   5.683  38.077  11.957
92877W        W64548  16.211   8.690   2.854
92878W        W64549  25.955   8.224   5.558
92879W        W64550  15.658  14.436  12.915
92880W        W64551  19.711   5.194   0.408
92881W        W64552  43.170  39.007  13.566
92882W        W64553  19.558  16.794  11.026
92883W        W64554  17.066  12.411  11.121
92884W        W64555  28.629  16.816   2.375
92885W        W64556  19.538  39.767   0.613
92886W        W64557  12.831   1.656  12.483
92887W        W64558  13.508  36.312  12.679
92888W        W64559  32.417   7.663  12.482
92889W        W64560  14.378  35.716   1.245
92890W        W64561  14.505  11.928   1.689
92891W        W64562  42.485  38.032   9.954
92892W        W64563  43.929   8.889   1.323
92893W        W64564  19.455  25.140   4.761
92894W        W64565  12.065  24.589   2.728
92895W        W64566  32.417   6.495   2.529
92896W        W64567  39.009   8.457  14.296
92897W        W64568  18.120  34.671  12.581
92898W        W64569   0.797   1.139  14.566
92899W        W64570  29.595  30.837  14.757
92900W        W64571  10.209  27.062  14.272
92901W        W64572   8.668  17.289   0.041
92902W        W64573   2.721  11.433  11.122
92903W        W64574  30.442  34.083  14.487
92904W        W64575  16.083  25.575  13.782
92905W        W64576  27.530  13.176  11.476
92906W        W64577  28.582   8.432   3.273
92907W        W64578  19.615  38.490  13.541
92908W        W64579  37.898  42.940   4.010
92909W        W64580  22.379  39.825  12.964
92910W        W64581  27.178  20.583  11.643
92911W        W64582  14.608  41.497   2.881
92912W        W64583  36.055  37.301   5.465
92913W        W64584  25.546   7.833  11.630
92914W        W64585   2.143  32.493   0.234
92915W        W64586  15.046  10.790   2.129
92916W        W64587  41.608  11.620  10.688
92917W        W64588   3.138  39.040  12.463
92918W        W64589  36.930  26.243   4.017
92919W        W64590   5.983  16.568   3.297
92920W        W64591  25.012  25.025  10.604
92921W        W64592  31.379  28.168   3.628
92922W        W64593  28.378   7.970  11.528
92923W        W64594   3.194  10.197  14.104
92924W        W64595  25.990   6.449  14.730
92925W        W64596  37.353  38.882   4.890
92926W        W64597  25.946  42.995  12.080
92927W        W64598  20.402  28.483  12.847
92928W        W64599  27.039   0.715  13.095
92929W        W64600   4.811  23.988  12.825
92930W        W64601   9.729   9.446  10.855
92931W        W64602  20.406  33.077   3.917
92932W        W64603   8.802  27.722   2.212
92933W        W64604  18.326  24.128   0.391
92934W        W64605  15.732   8.678  13.388
92935W        W64606  23.555   7.455   0.335
92936W        W64607  41.465  14.022  11.411
92937W        W64608   2.824  12.203  14.017
92938W        W64609  41.379   0.779   0.509
92939W        W64610   0.246   3.346  14.927
92940W        W64611  33.464  39.382  13.494
92941W        W64612  12.907  39.041  12.397
92942W        W64613  44.782  17.086   1.811
92943W        W64614   5.308  20.627   3.454
92944W        W64615  18.599  31.523   1.871
92945W        W64616  10.479   0.607   4.153
92946W        W64617  24.601   8.364   1.801
92947W        W64618   5.732  15.196  12.910
92948W        W64619  20.328  40.051   0.884
92949W        W64620  21.517  32.393   0.925
92950W        W64621  12.120  38.380   3.291
92951W        W64622  33.617  34.504  11.117
92952W        W64623  43.018  31.649   4.071
92953W        W64624  43.813   2.379   3.828
92954W        W64625  42.279  26.171   4.208
92955W        W64626  12.849  40.061  14.915
92956W        W64627  42.762  42.950  11.935
92957W        W64628  24.204  36.065  11.179
92958W        W64629  13.795  36.955  11.527
92959W        W64630  35.847  18.671  14.731
92960W        W64631  17.247  21.296  12.982
92961W        W64632  19.430  26.377   4.609
92962W        W64633  23.385  36.529   0.229
92963W        W64634  36.649  19.185  11.073
92964W        W64635  44.858   3.277  10.878
92965W        W64636  31.177  33.460   1.814
92966W        W64637   3.751  18.017   1.805
92967W        W64638   1.903  14.082  13.771
92968W        W64639  26.146  32.552  14.108
92969W        W64640  37.862  35.958   3.875
92970W        W64641  28.013  14.278   2.614
92971W        W64642  28.097  37.696  13.812
92972W        W64643  18.879  21.454  11.153
92973W        W64644  31.553  44.315   0.652
92974W        W64645  41.389   1.805   4.226
92975W        W64646  30.870  29.449   2.724
92976W        W64647  12.786  38.084  12.322
92977W        W64648  14.883   5.755   3.094
92978W        W64649  19.090   3.404   4.598
92979W        W64650  44.177  17.381  13.005
92980W        W64651   4.296   6.437   4.040
92981W        W64652  19.835   0.487   4.237
92982W        W64653  33.267  18.668  13.487
92983W        W64654   4.246  42.405  14.825
92984W        W64655  28.992   8.593   4.502
92985W        W64656  22.083  38.844   3.400
92986W        W64657  19.308  10.951  10.522
92987W        W64658  23.212   6.625  11.099
92988W        W64659  43.400  31.849   1.851
92989W        W64660  11.196  23.073  12.629
92990W        W64661  13.239   9.476  11.063
92991W        W64662  15.872  25.236  11.927
92992W        W64663  33.078   5.809  14.075
92993W        W64664  34.510   6.223  14.457
92994W        W64665  26.690  38.866   3.769
92995W        W64666  14.869  30.057  14.013
92996W        W64667  18.049  37.652   2.321
92997W        W64668   0.406  26.180   0.706
92998W        W64669   8.761  33.101   1.178
92999W        W64670  40.289   5.475   3.369
93000W        W64671  24.396  10.015   2.883
93001W        W64672  19.676  37.875   1.924
93002W        W64673  35.297  22.881   1.129
93003W        W64674   2.341  38.943   9.991
93004W        W64675  39.597  35.081  11.005
93005W        W64676  42.665  15.111   0.441
93006W        W64677  43.623   0.363   0.705
93007W        W64678  11.871  19.255  11.867
93008W        W64679  13.659  18.905  10.397
93009W        W64680  28.459  36.539   2.155
93010W        W64681  36.831  19.600   0.312
93011W        W64682  13.390   4.827  13.775
93012W        W64683   5.028  31.612  13.954
93013W        W64684   9.930  19.665  12.499
93014W        W64685  39.686  22.022  14.940
93015W        W64686  19.309   6.897  12.605
93016W        W64687  15.791  11.783  14.796
93017W        W64688  15.360  38.944  12.014
93018W        W64689  25.435   9.487   0.041
93019W        W64690   1.614  27.936  12.480
93020W        W64691  39.537  23.334  12.469
93021W        W64692   2.191   0.327  12.471
93022W        W64693  31.160  10.433   2.872
93023W        W64694  16.244   9.089  12.046
93024W        W64695  31.306  10.717  12.829
93025W        W64696  30.921  41.413   4.544
93026W        W64697  20.275  15.218   1.227
93027W        W64698  20.745   2.990  11.521
93028W        W64699  22.285  34.280   2.073
93029W        W64700  34.426   0.372   3.671
93030W        W64701   2.410  44.222   0.787
93031W        W64702  21.966  15.702  12.473
93032W        W64703  36.359   5.996  14.487
93033W        W64704  10.540  30.718  13.364
93034W        W64705  17.689  20.893   0.279
93035W        W64706  20.236  35.936   3.698
93036W        W64707  15.210   9.279   0.301
93037W        W64708   9.921  34.259  14.911
93038W        W64709  15.667  38.120   4.153
93039W        W64710  15.729   1.344  11.651
93040W        W64711  29.816  35.664  14.717
93041W        W64712  13.578  10.504  11.609
93042W        W64713  29.150  34.113   1.746
93043W        W64714  35.972  40.432  11.454
93044W        W64715   8.816  39.440  11.903
93045W        W64716  26.180  32.863  10.731
93046W        W64717  17.021  14.639   4.139
93047W        W64718  30.107  19.308   3.906
93048W        W64719  25.129  13.745  12.060
93049W        W64720  25.522   4.708  12.257
93050W        W64721  41.433   3.490  13.291
93051W        W64722   9.161  13.866   2.740
93052W        W64723   3.931   2.727   0.234
93053W        W64724  31.667  33.269   2.705
93054W        W64725  27.113  32.001  11.032
93055W        W64726   6.670  11.836   2.271
93056W        W64727   5.922  22.135   3.793
93057W        W64728  37.804  32.497  12.592
93058W        W64729  16.525  29.499  10.725
93059W        W64730  21.602  32.177  14.771
93060W        W64731  17.269  33.524  14.939
93061W        W64732  40.828  28.609  13.907
93062W        W64733  14.293  31.845  14.954
93063W        W64734  33.145  31.845   3.287
93064W        W64735  27.592  26.180   1.251
93065W        W64736  20.680   0.465   2.981
93066W        W64737  24.240  16.339   2.340
93067W        W64738  38.416   1.723  11.159
93068W        W64739  35.159  13.844   4.758
93069W        W64740  18.254  12.126  11.712
93070W        W64741  31.120  43.488   3.681
93071W        W64742   4.229  13.323  11.374
93072W        W64743  28.703   2.384   0.440
93073W        W64744  22.594   2.271   3.869
93074W        W64745   7.710  10.396   4.974
93075W        W64746  30.170   7.342  10.708
93076W        W64747   2.982  11.953  11.499
93077W        W64748   8.819  33.165   4.079
93078W        W64749   1.284   0.825  13.386
93079W        W64750  20.371  44.014   3.655
93080W        W64751   2.897  34.529  13.522
93081W        W64752  21.294   0.262   4.611
93082W        W64753  44.826   9.329   3.659
93083W        W64754  10.934  20.282  12.073
93084W        W64755  40.385   5.291   4.563
93085W        W64756  33.536  30.115   2.157
93086W        W64757  26.424   5.665  11.114
93087W        W64758   0.741   7.998  14.430
93088W        W64759  34.282   6.866  13.380
93089W        W64760  14.801  18.126   3.617
93090W        W64761  22.695   1.850   1.808
93091W        W64762  20.220  36.547   1.476
93092W        W64763  30.436  27.975  14.815
93093W        W64764   0.423  44.209   4.181
93094W        W64765  43.233  16.717   2.109
93095W        W64766  42.795  40.538   1.902
93096W        W64767  30.945  21.689   4.913
93097W        W64768  14.516  34.059   2.756
93098W        W64769   4.933  40.031   2.685
93099W        W64770  28.092  16.392   1.286
93100W        W64771   4.189  33.652   1.353
93101W        W64772  26.447  20.306  10.352
93102W        W64773  41.306  20.755   2.866
93103W        W64774  24.571  36.061   2.345
93104W        W64775  36.519  34.627   0.824
93105W        W64776  40.511   0.648  12.608
93106W        W64777  39.068  43.274   4.594
93107W        W64778   9.568  21.240  14.050
93108W        W64779  25.172  12.150  12.087
93109W        W64780  35.340   0.508   3.655
93110W        W64781  43.178  19.049   3.622
93111W        W64782  35.373  15.313   0.756
93112W        W64783  21.615  40.965   5.070
93113W        W64784   2.688  22.290  11.992
93114W        W64785   2.541  13.708  12.588
93115W        W64786  27.564  18.037  14.918
93116W        W64787   1.943   6.445   4.973
93117W        W64788   8.806  20.158  12.859
93118W        W64789  32.633   3.293   4.017
93119W        W64790  15.354  16.615   2.172
93120W        W64791  28.723  43.967  11.540
93121W        W64792  27.103  34.399  10.746
93122W        W64793  30.092  28.075   0.184
93123W        W64794   2.959  14.772   2.345
93124W        W64795  24.083  25.761   2.687
93125W        W64796   6.849  34.473   4.630
93126W        W64797  30.709  19.148   0.807
93127W        W64798  39.205  31.942  11.517
93128W        W64799   9.361  19.492  11.239
93129W        W64800  29.752  33.699  13.038
93130W        W64801   2.726  12.922   2.441
93131W        W64802  22.545  35.914  12.889
93132W        W64803  22.189   3.772   2.489
93133W        W64804  44.027   7.837   0.546
93134W        W64805  37.530  16.144  11.152
93135W        W64806  21.633  10.194  12.923
93136W        W64807  15.109  12.788  14.332
93137W        W64808  44.531  24.195  11.138
93138W        W64809   2.947  20.463   2.182
93139W        W64810  39.095  38.426   3.065
93140W        W64811  25.236  36.921  11.543
93141W        W64812   0.775  28.667   3.525
93142W        W64813  41.520  14.181   1.892
93143W        W64814   9.171  13.363   1.865
93144W        W64815   3.390  42.505   4.678
93145W        W64816  10.379   9.349   3.760
93146W        W64817  40.353  44.904  14.173
93147W        W64818  11.290  14.599  14.427
93148W        W64819  38.636   7.798  12.547
93149W        W64820  36.503  27.958  11.994
93150W        W64821  42.954  24.672  13.923
93151W        W64822   2.785  22.273  10.234
93152W        W64823   0.656  23.714   2.793
93153W        W64824  40.549  28.339   2.157
93154W        W64825  14.291  24.936   0.313
93155W        W64826  40.432  28.678   3.665
93156W        W64827  12.654  39.433   1.318
93157W        W64828  43.117  18.143  14.430
93158W        W64829   6.907  36.435  13.539
93159W        W64830  36.602  19.549  14.836
93160W        W64831   7.616  13.722   0.078
93161W        W64832  36.204  24.727   1.971
93162W        W64833   9.263  35.029   2.193
93163W        W64834   2.280  19.183   4.368
93164W        W64835   8.672  39.546  11.434
93165W        W64836  24.302  13.691   1.217
93166W        W64837  15.200  36.195   1.283
93167W        W64838  40.024  38.838   3.348
93168W        W64839  23.889  28.055  10.622
93169W        W64840   8.688  15.084  13.488
93170W        W64841  22.682  43.292  13.559
93171W        W64842  41.301  38.483  10.145
93172W        W64843  30.385  26.169   2.735
93173W        W64844  29.138  42.790   3.171
93174W        W64845  20.894   8.828  12.936
93175W        W64846   1.938  26.629   1.212
93176W        W64847  34.594  31.063  11.142
93177W        W64848  18.565  24.698  11.003
93178W        W64849  38.458  44.888   0.288
93179W        W64850  26.834  42.364  14.842
93180W        W64851  26.975   2.314  11.973
93181W        W64852  31.024  26.047  10.554
93182W        W64853  35.019  23.181  11.588
93183W        W64854  26.647  38.098   1.212
93184W        W64855  19.617  16.850  14.759
93185W        W64856   5.054  32.493   4.290
93186W        W64857  43.903  18.560   3.285
93187W        W64858  30.608  11.273   3.732
93188W        W64859  23.970  25.989  14.723
93189W        W64860  20.142  23.634  13.961
93190W        W64861  30.916  18.180   1.411
93191W        W64862  21.659  14.636  14.326
93192W        W64863  20.026  30.445   4.112
93193W        W64864  44.932  12.648  11.131
93194W        W64865  13.550  31.352   3.849
93195W        W64866  17.224  16.017   3.834
93196W        W64867  44.357  38.966   4.539
93197W        W64868  43.974  31.134   0.342
93198W        W64869  18.089  32.499  12.497
93199W        W64870   3.987  10.776   0.345
93200W        W64871  26.545   5.201  10.892
93201W        W64872  21.210   8.679   4.789
93202W        W64873  21.164  37.273  10.832
93203W        W64874   0.238   1.406  10.783
93204W        W64875   6.046   6.717   3.342
93205W        W64876  41.305  26.266   4.057
93206W        W64877   4.964  30.342   0.574
93207W        W64878  13.664  26.910   4.738
93208W        W64879  18.996  14.893  14.068
93209W        W64880   3.071  38.348   1.177
93210W        W64881  20.285  34.110  11.588
93211W        W64882  13.245  35.214  10.339
93212W        W64883  15.256   0.064  10.798
93213W        W64884  10.817  13.778  12.423
93214W        W64885  21.238  44.589   4.529
93215W        W64886  26.620  14.858   4.427
93216W        W64887  33.001  39.832  10.571
93217W        W64888  21.280  36.509   2.267
93218W        W64889  30.874  22.174   3.705
93219W        W64890  43.981  19.987  14.757
93220W        W64891   5.613  10.375   2.307
93221W        W64892  24.482  43.882   4.194
93222W        W64893   9.377   2.272   4.651
93223W        W64894  12.170  11.232   4.285
93224W        W64895  30.615   9.732  12.592
93225W        W64896   4.298  28.876   5.036
93226W        W64897  37.586   7.922  11.595
93227W        W64898  29.399   7.292  14.003
93228W        W64899   9.365   4.234  13.335
93229W        W64900   0.267   9.122  13.890
93230W        W64901  37.937  22.416  14.893
93231W        W64902  21.247  14.691  10.491
93232W        W64903  36.786  15.619   3.764
93233W        W64904  24.041  17.774   0.782
93234W        W64905  17.565   1.315   4.439
93235W        W64906   1.443  28.517  14.525
93236W        W64907  42.460  27.757   1.902
93237W        W64908   2.678  20.594  10.661
93238W        W64909   1.013   1.209   0.567
93239W        W64910  12.230  19.684  13.409
93240W        W64911  27.521  12.298   3.589
93241W        W64912  42.405  27.159   4.470
93242W        W64913  34.334  26.178   5.041
93243W        W64914  34.028  20.194  12.015
93244W        W64915  33.598  16.922   3.702
93245W        W64916  44.533  29.656   1.057
93246W        W64917  26.190  18.054   4.235
93247W        W64918   4.003  35.774  11.276
93248W        W64919   2.350   3.725  11.006
93249W        W64920   4.707  41.915  13.243
93250W        W64921  33.316  22.536  14.292
93251W        W64922  30.069  22.556  13.021
93252W        W64923   3.630   5.784   1.067
93253W        W64924  35.887  32.540   1.429
93254W        W64925  27.774   0.817  12.430
93255W        W64926  17.590   4.502   1.356
93256W        W64927   2.401  33.985   1.193
93257W        W64928  27.047  30.561  13.305
93258W        W64929   5.371  43.265  14.218
93259W        W64930  24.994  26.222   0.994
93260W        W64931  43.217  34.960  13.952
93261W        W64932  20.325  39.064   3.028
93262W        W64933  40.812  11.811  14.575
93263W        W64934  28.849  21.467  13.936
93264W        W64935  25.959  21.558   0.829
93265W        W64936  21.268   7.398   4.045
93266W        W64937   3.961  23.660   1.324
93267W        W64938  16.610  43.420  14.558
93268W        W64939   5.793  12.260  11.655
93269W        W64940  11.156   0.487  13.573
93270W        W64941  12.794   1.294  13.318
93271W        W64942  32.708  43.968   4.224
93272W        W64943   1.742  12.259  12.584
93273W        W64944  33.363  20.727   1.208
93274W        W64945  24.941  29.965  13.895
93275W        W64946  37.351  40.882   1.764
93276W        W64947  10.691  21.676  11.001
93277W        W64948   3.806   6.236   3.295
93278W        W64949  25.157   4.323  13.239
93279W        W64950  40.249  30.917   1.839
93280W        W64951  39.342  41.446  12.134
93281W        W64952  15.031  33.629   0.944
93282W        W64953  41.879  25.379   3.175
93283W        W64954  27.807  25.058  12.659
93284W        W64955  24.967  29.993   3.249
93285W        W64956  29.327  29.201   0.787
93286W        W64957  26.070  14.717  13.076
93287W        W64958   9.109   0.911  14.786
93288W        W64959  38.927  14.541  11.251
93289W        W64960  24.121  12.576  14.166
93290W        W64961  12.092  38.557   1.318
93291W        W64962  32.685   1.381   1.232
93292W        W64963  40.299  23.218  11.992
93293W        W64964  32.257  30.543  13.080
93294W        W64965  31.442   6.429   3.523
93295W        W64966  13.193  32.523  11.581
93296W        W64967   8.804  19.166   0.978
93297W        W64968  39.490  34.144  13.166
93298W        W64969  21.182  32.407   0.121
93299W        W64970  12.865  12.816   4.146
93300W        W64971  20.592   9.311  11.658
93301W        W64972  26.425  26.846   0.603
93302W        W64973  24.242  16.179  13.871
93303W        W64974   3.877  40.876  12.089
93304W        W64975   5.821  27.216  10.922
93305W        W64976   0.003  44.396   2.814
93306W        W64977  28.531   4.458   4.700
93307W        W64978  14.314   0.195  13.047
93308W        W64979  27.517   8.337  13.121
93309W        W64980  22.631  11.130   0.867
93310W        W64981  34.391   3.344  12.564
93311W        W64982   5.974  33.812   1.285
93312W        W64983   7.491   7.406   0.782
93313W        W64984   5.206  36.824   4.629
93314W        W64985  25.629  23.632   1.743
93315W        W64986   9.460  17.021   2.268
93316W        W64987  25.995  40.993   4.441
93317W        W64988  24.959  12.853  11.149
93318W        W64989  37.384   9.719   3.079
93319W        W64990  20.067  26.649   9.704
93320W        W64991  27.212   2.424   1.886
93321W        W64992   1.274  28.110   2.429
93322W        W64993  41.972  28.429   0.510
93323W        W64994  10.125   0.099  12.900
93324W        W64995  22.579   1.894  10.777
93325W        W64996  19.193  13.940   9.918
93326W        W64997   1.699   0.800   1.389
93327W        W64998  11.905  27.377  14.012
93328W        W64999  24.657  31.823  14.429
93329W        W65000  24.401  10.749   2.424
93330W        W65001  15.127  16.121   1.032
93331W        W65002  20.312  25.531   0.488
93332W        W65003  13.685  10.603   4.829
93333W        W65004  36.878  43.767   3.338
93334W        W65005   9.698  43.084  14.409
93335W        W65006  38.794  33.603  13.466
93336W        W65007   0.849  31.785   4.980
93337W        W65008  27.236   3.929  14.471
93338W        W65009  33.640  35.809   4.268
93339W        W65010   9.931  39.581   1.874
93340W        W65011   8.861  32.812  13.697
93341W        W65012  44.802   1.262   1.129
93342W        W65013   7.176   7.812   3.916
93343W        W65014  19.300  38.896  12.029
93344W        W65015   7.791  10.642   0.528
93345W        W65016  21.632  30.041  10.460
93346W        W65017  15.594  27.114   3.430
93347W        W65018   9.676  21.350  11.655
93348W        W65019  24.058  19.446   4.448
93349W        W65020  14.731  14.663   4.137
93350W        W65021  32.686  33.792  10.347
93351W        W65022  19.653  22.525  13.402
93352W        W65023  28.646  39.691  14.006
93353W        W65024  19.020  32.417   0.386
93354W        W65025  33.848  31.274   3.341
93355W        W65026   1.514  41.465   2.781
93356W        W65027   3.405  16.547  14.492
93357W        W65028  39.917  34.874  11.693
93358W        W65029  39.335  38.982  13.153
93359W        W65030  15.524   2.761  14.285
93360W        W65031  19.488  30.546  10.734
93361W        W65032   5.259  28.349   4.140
93362W        W65033  39.022   0.740  12.008
93363W        W65034  42.904  12.887  10.670
93364W        W65035  24.138   5.931   4.207
93365W        W65036  18.715   5.740  10.671
93366W        W65037   9.993  24.684  11.173
93367W        W65038   9.241  12.875  12.051
93368W        W65039  29.085   8.760   1.280
93369W        W65040   3.692  29.088   3.211
93370W        W65041  12.210  32.305  12.267
93371W        W65042   9.151  20.628  12.119
93372W        W65043  19.581  20.140   0.679
93373W        W65044   4.960  39.862  11.119
93374W        W65045  13.044   3.610  11.734
93375W        W65046  20.610  21.502  14.457
93376W        W65047  27.040  19.574   3.589
93377W        W65048  13.266  31.043  13.261
93378W        W65049  29.687   6.859   4.589
93379W        W65050  27.589  38.889  14.575
93380W        W65051  12.197  14.579  14.351
93381W        W65052  37.634   6.663   1.031
93382W        W65053  31.195   7.274  10.316
93383W        W65054  22.741  21.712  12.577
93384W        W65055  33.212  33.085  11.222
93385W        W65056  36.059  25.187  14.847
93386W        W65057  12.298  16.642   0.807
93387W        W65058  34.834  12.129   3.705
93388W        W65059   2.559   7.373  14.922
93389W        W65060  26.124  34.119  11.918
93390W        W65061  39.787  31.124  14.394
93391W        W65062  11.646   8.771  14.445
93392W        W65063  26.545  11.185  13.018
93393W        W65064   2.651  16.276  11.188
93394W        W65065  14.838   8.091   4.052
93395W        W65066  12.106   6.323   1.424
93396W        W65067  26.921   0.169   0.293
93397W        W65068  13.753   5.881  13.365
93398W        W65069  29.893  14.550   1.963
93399W        W65070  29.717  17.160   3.352
93400W        W65071   0.206  14.800  12.541
93401W        W65072  21.534  23.138  13.498
93402W        W65073  18.833   5.807   4.446
93403W        W65074  18.833  11.678  10.574
93404W        W65075   8.816  35.309   0.971
93405W        W65076  12.509  25.013   3.440
93406W        W65077  22.452  26.061  10.893
93407W        W65078  10.890  38.337  11.518
93408W        W65079  25.055  21.992  11.938
93409W        W65080  32.152   4.618   3.763
93410W        W65081  12.343  27.916  12.598
93411W        W65082  32.014   5.348   1.451
93412W        W65083  32.741  39.460   0.784
93413W        W65084  29.939   6.892   0.743
93414W        W65085  40.566  24.842  13.961
93415W        W65086   0.847  44.320   0.206
93416W        W65087   1.807   2.198   1.230
93417W        W65088  44.747  18.195  13.892
93418W        W65089  29.428   5.144  11.035
93419W        W65090  22.968  26.188  11.198
93420W        W65091  27.558  27.151  10.715
93421W        W65092   7.465  20.244  11.544
93422W        W65093  32.898   7.335   2.091
93423W        W65094  24.579  35.174   4.113
93424W        W65095  39.035   0.790   4.632
93425W        W65096   6.976  42.893  10.609
93426W        W65097  26.750  24.631  14.316
93427W        W65098  16.526  20.502   2.682
93428W        W65099   3.251  40.935  14.608
93429W        W65100   1.361  16.172   2.009
93430W        W65101  18.557  13.182   2.837
93431W        W65102  23.594   5.726   1.919
93432W        W65103  34.520  37.267  11.389
93433W        W65104  30.668   4.617   0.858
93434W        W65105  20.317  27.879  13.974
93435W        W65106  41.448  20.201  13.430
93436W        W65107  25.654  23.716  13.652
93437W        W65108  28.767  38.016   4.236
93438W        W65109  21.801   7.349   0.075
93439W        W65110  44.023   2.966  12.041
93440W        W65111  27.061  39.942   2.935
93441W        W65112  39.899   4.742  14.455
93442W        W65113  22.190   2.718   1.677
93443W        W65114  37.499  35.963   4.573
93444W        W65115  19.909  26.421   5.505
93445W        W65116  32.907  36.820  10.644
93446W        W65117  19.690  19.656   3.642
93447W        W65118  30.888  34.538  10.148
93448W        W65119  34.584   2.823  14.985
93449W        W65120   1.030  12.721  14.331
93450W        W65121  39.523  34.294  10.798
93451W        W65122  24.581  20.974  10.612
93452W        W65123  41.899  12.734   3.134
93453W        W65124  33.123   4.507   1.778
93454W        W65125   4.170  39.684   2.715
93455W        W65126  12.144  10.237  14.985
93456W        W65127   4.431  30.127   1.434
93457W        W65128  17.881  35.064   3.081
93458W        W65129  20.768  44.361   3.600
93459W        W65130  28.253   2.415  11.676
93460W        W65131   6.467  31.026   3.771
93461W        W65132  11.319  22.483   2.791
93462W        W65133   4.178  17.642   4.050
93463W        W65134  10.776  17.103  11.685
93464W        W65135  22.672  27.397  13.887
93465W        W65136   2.840  19.544   9.974
93466W        W65137  34.568  11.780  13.253
93467W        W65138  33.147  40.624   5.112
93468W        W65139  12.102  13.577   2.752
93469W        W65140  30.879  17.586   0.201
93470W        W65141  29.514  10.456  10.782
93471W        W65142  13.213  40.797   0.352
93472W        W65143  32.787  23.110  13.280
93473W        W65144  11.076  30.426  11.579
93474W        W65145   0.300   8.982   3.058
93475W        W65146  34.587  12.325   3.284
93476W        W65147  43.211   7.232  13.594
93477W        W65148  22.076  26.163   0.008
93478W        W65149  25.521  18.008   3.171
93479W        W65150  23.652  15.299  10.714
93480W        W65151  21.180  26.129   4.414
93481W        W65152  13.519  34.562  14.517
93482W        W65153  38.861   8.923  13.174
93483W        W65154   8.472  37.857  10.675
93484W        W65155  43.563  41.360   4.986
93485W        W65156  18.219  39.865  13.979
93486W        W65157   8.144  15.723  12.954
93487W        W65158  20.578  31.253  14.310
93488W        W65159  35.806  27.696  11.585
93489W        W65160  34.969  36.583  13.450
93490W        W65161  26.710  22.629   1.673
93491W        W65162  18.541  35.352  13.826
93492W        W65163  33.623   1.833   1.219
93493W        W65164  13.526  38.383  11.979
93494W        W65165  30.502  36.807   2.786
93495W        W65166  35.479  25.463   4.848
93496W        W65167  26.529   1.729   4.528
93497W        W65168   8.176  22.398   1.139
93498W        W65169  38.478  17.701   4.180
93499W        W65170  21.548  27.615   2.967
93500W        W65171  39.923  35.666   2.220
93501W        W65172  33.607   9.987  14.473
93502W        W65173  27.539   8.470  14.470
93503W        W65174  43.466  10.271   4.581
93504W        W65175  18.075  43.219  14.989
93505W        W65176  15.696  23.475   2.538
93506W        W65177  10.723  21.510   0.409
93507W        W65178  20.747  41.758   0.372
93508W        W65179  36.041  33.347   3.610
93509W        W65180   3.903  33.534  13.137
93510W        W65181  21.043  44.702  14.464
93511W        W65182   6.127   0.776   4.691
93512W        W65183  42.284  41.432   2.960
93513W        W65184  13.932  13.917  13.414
93514W        W65185  35.439  43.868   1.918
93515W        W65186  17.017  10.847   3.343
93516W        W65187   6.358   6.189   1.975
93517W        W65188  15.037  12.328   3.762
93518W        W65189  33.190  28.727  12.629
93519W        W65190  34.871  13.407   2.708
93520W        W65191  36.962  20.114   3.673
93521W        W65192  14.324   5.062  13.405
93522W        W65193  25.542  22.249  10.363
93523W        W65194  12.912   8.519   3.215
93524W        W65195  18.093   2.288  13.334
93525W        W65196  17.003  41.997  11.255
93526W        W65197   9.216  44.260  13.966
93527W        W65198   6.827  20.108  13.559
93528W        W65199  30.119  23.596  12.040
93529W        W65200   8.724  22.816   5.018
93530W        W65201  30.143  20.340  10.629
93531W        W65202   1.511  15.796   0.492
93532W        W65203   2.309  13.175  10.607
93533W        W65204  28.171  39.280  12.630
93534W        W65205  21.006  11.310  10.190
93535W        W65206  32.009  34.953   3.541
93536W        W65207   6.416  16.095  11.515
93537W        W65208  15.402   9.101   1.326
93538W        W65209  11.636  38.478   2.717
93539W        W65210  38.465   4.716   2.720
93540W        W65211  39.888  35.422   0.486
93541W        W65212  19.562  43.753   1.502
93542W        W65213  12.370  31.647  14.331
93543W        W65214   7.306  26.512   0.946
93544W        W65215  33.974   9.886  13.915
93545W        W65216   0.438  40.402   1.762
93546W        W65217   5.807   6.679  13.880
93547W        W65218   6.101   9.863  11.827
93548W        W65219  25.189  35.350   2.869
93549W        W65220   0.923  18.873   9.999
93550W        W65221  10.177  20.440   3.146
93551W        W65222  24.709  29.082   3.756
93552W        W65223   2.452  34.146   1.794
93553W        W65224  24.180  37.977   2.894
93554W        W65225  25.071  41.910  10.968
93555W        W65226  33.895  23.611  14.709
93556W        W65227  13.962   8.689  12.267
93557W        W65228  34.382  41.201   2.197
93558W        W65229  17.232  36.668   2.266
93559W        W65230  26.783   5.333   1.698
93560W        W65231  20.080  13.385   1.988
93561W        W65232   5.004   9.756   3.784
93562W        W65233   9.315   7.886   1.007
93563W        W65234  39.739  41.507   0.172
93564W        W65235  38.963  21.732  12.904
93565W        W65236  25.203  36.857   2.291
93566W        W65237   6.253  37.484   1.959
93567W        W65238  21.472  19.578  14.383
93568W        W65239  38.429  15.969  14.598
93569W        W65240  32.068  15.276  14.879
93570W        W65241  43.553  43.954  12.564
93571W        W65242   8.785  37.550   4.161
93572W        W65243  27.899  29.058   3.871
93573W        W65244  44.194  33.941  12.186
93574W        W65245  26.076   1.364  14.292
93575W        W65246  12.706   0.875   3.795
93576W        W65247  16.690  29.067  11.948
93577W        W65248  37.367   8.842   3.223
93578W        W65249  20.250  40.242   1.700
93579W        W65250  18.930  13.367   4.515
93580W        W65251  29.025  38.103  12.571
93581W        W65252   1.251  30.706  13.632
93582W        W65253  12.845  23.476  11.622
93583W        W65254  25.438  27.673   3.780
93584W        W65255  12.050  39.655  13.250
93585W        W65256  28.491  43.361  12.315
93586W        W65257  35.692  10.176   3.853
93587W        W65258   8.200  28.174  11.620
93588W        W65259  21.534  20.651  11.045
93589W        W65260  29.613  32.413   0.846
93590W        W65261   7.695   4.668   2.397
93591W        W65262   0.557  15.209  11.047
93592W        W65263   6.450  28.447   0.341
93593W        W65264  11.969  29.171   1.198
93594W        W65265  40.792  17.532  13.986
93595W        W65266  15.612  28.096   1.847
93596W        W65267   4.840   3.329   2.226
93597W        W65268  33.861  20.287  13.964
93598W        W65269  15.273   8.789  11.557
93599W        W65270  41.809  41.466   3.253
93600W        W65271  22.326   5.126  12.897
93601W        W65272  35.544  39.006  10.857
93602W        W65273  17.670  35.178  12.045
93603W        W65274  17.565  17.924  11.525
93604W        W65275  13.151  33.110   3.696
93605W        W65276  36.372   7.371   2.358
93606W        W65277  26.112  13.375   1.299
93607W        W65278  13.007  42.940   3.367
93608W        W65279   8.833  12.765  11.042
93609W        W65280  16.705  30.867   1.867
93610W        W65281  38.391  36.380  14.049
93611W        W65282  11.468  18.201  14.086
93612W        W65283  15.148  42.623  13.375
93613W        W65284  32.204  14.054  14.318
93614W        W65285  32.392  17.748  14.840
93615W        W65286  16.634  41.037  12.556
93616W        W65287   9.901   6.238  10.689
93617W        W65288  29.462  24.241   2.308
93618W        W65289  14.293   6.697  14.463
93619W        W65290   6.172  44.405   1.683
93620W        W65291  23.642  43.183  14.308
93621W        W65292   7.258  19.275   4.772
93622W        W65293  22.691  29.201  14.478
93623W        W65294  15.124  39.783  12.890
93624W        W65295   8.640   8.447  10.464
93625W        W65296  39.449  23.100  13.838
93626W        W65297   3.893   4.635   2.277
93627W        W65298  38.119  19.727  11.709
93628W        W65299  13.375   8.900   2.287
93629W        W65300  37.451   5.376   2.919
93630W        W65301  13.106   2.796   3.162
93631W        W65302  20.778  38.020   0.373
93632W        W65303  43.729   6.942  12.393
93633W        W65304  27.723  41.721   4.187
93634W        W65305  15.166  33.421   3.422
93635W        W65306  15.854   8.596   3.386
93636W        W65307  22.597  34.398   0.780
93637W        W65308  32.150  44.042   4.083
93638W        W65309   0.972  40.555  10.697
93639W        W65310  24.032   3.428  12.386
93640W        W65311  20.993  35.497   1.298
93641W        W65312   9.218  18.620   4.059
93642W        W65313  27.132  32.082   1.798
93643W        W65314   7.333  23.178  11.070
93644W        W65315  27.031   9.367   4.604
93645W        W65316  11.598  18.793   5.093
93646W        W65317  28.563   3.962   2.742
93647W        W65318  26.707   8.410  11.494
93648W        W65319  26.294  32.558   0.117
93649W        W65320  31.062  25.336   4.198
93650W        W65321  10.966  26.130   3.098
93651W        W65322   7.906  11.154   0.473
93652W        W65323   3.717  33.130  12.890
93653W        W65324  13.216  11.917  11.105
93654W        W65325  28.104   1.219  12.342
93655W        W65326  44.774  15.972   0.253
93656W        W65327  12.170  19.091   4.058
93657W        W65328  15.186   8.410   0.433
93658W        W65329  31.541  24.653   1.936
93659W        W65330  37.792  24.617   4.778
93660W        W65331  11.678   3.280  13.529
93661W        W65332   6.346  26.808  13.386
93662W        W65333   8.280  39.837  12.651
93663W        W65334  12.064  15.109  13.027
93664W        W65335  43.088  21.499   4.431
93665W        W65336  11.570  19.608  12.098
93666W        W65337  37.666   6.892  10.981
93667W        W65338  21.561   1.783  14.936
93668W        W65339  12.647  10.042  11.360
93669W        W65340  22.804   7.188   2.264
93670W        W65341  30.475  37.316  13.017
93671W        W65342   8.749   6.747   0.706
93672W        W65343  22.467  30.173  14.596
93673W        W65344  14.735  27.411  11.561
93674W        W65345  37.132  23.018  14.866
93675W        W65346  35.394   4.853  12.901
93676W        W65347  36.828  19.563   1.399
93677W        W65348   5.165  14.143   0.869
93678W        W65349  35.046  11.450   4.233
93679W        W65350  27.043   2.714   2.328
93680W        W65351   0.475  40.828  11.906
93681W        W65352  17.956  41.123  14.310
93682W        W65353  40.085  27.296  12.008
93683W        W65354  17.031  38.860   2.406
93684W        W65355   4.297  28.582  11.485
93685W        W65356  10.390  11.635   4.562
93686W        W65357  32.828  25.641   0.699
93687W        W65358  22.015   6.873   1.421
93688W        W65359  37.255  39.946  10.583
93689W        W65360  16.767  36.130   4.095
93690W        W65361  25.689  23.779  10.847
93691W        W65362  28.657  27.101  14.906
93692W        W65363  31.930   3.982   4.344
93693W        W65364  15.009  44.514  11.477
93694W        W65365  12.758  42.220  10.934
93695W        W65366  42.537  28.431  12.857
93696W        W65367  30.440  29.798  14.743
93697W        W65368  41.792   0.409  12.715
93698W        W65369  27.613  32.343  14.333
93699W        W65370   5.751  24.170   1.276
93700W        W65371  36.563  18.681  12.143
93701W        W65372  23.192  17.258   4.202
93702W        W65373  30.484  18.488   0.434
93703W        W65374  26.955  22.828   2.457
93704W        W65375  44.452   6.476  14.297
93705W        W65376   1.208  26.507   0.565
93706W        W65377  42.266  20.585   2.428
93707W        W65378  41.319  23.917  13.323
93708W        W65379  29.088  22.122   1.279
93709W        W65380  17.089  24.796   9.947
93710W        W65381   1.335  12.719   2.414
93711W        W65382  43.193  41.094   3.603
93712W        W65383   2.255   5.653   4.411
93713W        W65384  26.092  42.121  12.051
93714W        W65385  37.848  25.492  12.272
93715W        W65386   0.896  27.740   2.323
93716W        W65387  23.392  10.103  13.280
93717W        W65388  12.094  21.152   3.169
93718W        W65389  17.613  41.194   0.141
93719W        W65390   5.741  33.225  11.123
93720W        W65391  23.589  35.502   1.885
93721W        W65392  28.638  17.609   4.056
93722W        W65393  35.323  39.778   1.185
93723W        W65394  22.727   8.654  11.625
93724W        W65395  21.622  14.719   3.889
93725W        W65396   0.262   2.461  13.536
93726W        W65397  25.007   3.184   4.938
93727W        W65398  43.479   2.319  12.635
93728W        W65399  12.794  42.571   2.164
93729W        W65400  23.157  12.358  11.176
93730W        W65401  39.284   3.276   0.415
93731W        W65402  35.972  28.686  11.731
93732W        W65403  12.635  34.454  11.419
93733W        W65404  26.459  24.861   2.355
93734W        W65405   9.361  16.085  12.065
93735W        W65406  15.140   9.643  14.046
93736W        W65407  28.451   3.822   2.233
93737W        W65408  15.698  38.323   2.244
93738W        W65409   9.906  23.961   1.788
93739W        W65410  10.616  20.152   3.161
93740W        W65411   3.936   0.387  10.529
93741W        W65412  11.585  11.770   1.768
93742W        W65413  10.234  20.235  10.052
93743W        W65414   6.001  20.803  12.718
93744W        W65415  12.662  35.638  12.417
93745W        W65416   7.190  40.434  12.421
93746W        W65417   8.557  13.587  11.670
93747W        W65418  15.632  26.586  12.372
93748W        W65419  10.273  43.917   2.232
93749W        W65420  14.585  17.031   0.317
93750W        W65421  43.794  18.467   4.204
93751W        W65422  26.254  29.185  12.060
93752W        W65423   3.388  16.543  13.384
93753W        W65424  37.173  10.662   0.072
93754W        W65425   7.633  38.067  11.156
93755W        W65426  15.841  27.385  12.280
93756W        W65427  32.634  26.110   4.458
93757W        W65428   7.640  41.224   2.840
93758W        W65429   9.672  41.322   0.924
93759W        W65430  25.116  35.961  13.185
93760W        W65431  20.055  29.092  14.085
93761W        W65432   2.010   5.228   4.663
93762W        W65433  24.178  23.745  13.797
93763W        W65434  14.338  27.605   1.908
93764W        W65435  17.628  15.723   4.540
93765W        W65436  12.332  23.668   0.935
93766W        W65437  18.767  20.975   2.300
93767W        W65438  39.014  23.515  14.779
93768W        W65439  30.841   6.290   1.358
93769W        W65440  38.244  10.250  10.339
93770W        W65441   6.030   6.873  11.369
93771W        W65442  28.820  21.286  14.441
93772W        W65443  27.336  27.495   1.078
93773W        W65444  39.229   7.650  11.743
93774W        W65445  28.295  23.447   4.983
93775W        W65446  21.234  34.620  14.397
93776W        W65447  17.794  22.410  12.509
93777W        W65448   5.390  15.124   3.237
93778W        W65449  26.586  24.480  12.893
93779W        W65450  16.138  41.977  14.269
93780W        W65451  14.028   5.198  12.971
93781W        W65452  10.119  18.249  14.489
93782W        W65453   1.245  13.531   1.695
93783W        W65454  35.969  41.501   2.132
93784W        W65455  27.824  32.593   0.860
93785W        W65456   5.229   2.754   4.445
93786W        W65457   9.703  35.050  10.707
93787W        W65458   7.219  21.034  12.178
93788W        W65459  10.268  28.258  11.639
93789W        W65460  22.600  11.346   3.069
93790W        W65461   1.689  24.737  11.113
93791W        W65462  16.627  19.573   1.435
93792W        W65463  17.708  44.775  14.126
93793W        W65464   5.966   4.667  11.186
93794W        W65465  30.070  14.803   0.726
93795W        W65466  36.819   3.722  12.057
93796W        W65467  37.491  19.011  13.422
93797W        W65468  11.145   8.875   2.575
93798W        W65469   9.779  15.024   2.470
93799W        W65470   2.219  44.075  11.042
93800W        W65471  19.553  42.915  11.972
93801W        W65472  34.063  33.347  12.355
93802W        W65473  26.982   1.386  14.764
93803W        W65474  24.240   7.743  10.458
93804W        W65475  29.121   8.101   4.483
93805W        W65476  17.995   1.537   1.144
93806W        W65477   0.514  30.675   2.296
93807W        W65478  42.268   5.709   1.722
93808W        W65479   8.797   3.409  12.833
93809W        W65480  23.698   6.304   3.704
93810W        W65481  32.497  39.793   0.402
93811W        W65482  43.375  24.506  12.477
93812W        W65483  35.333  10.704  12.066
93813W        W65484  31.190  28.231  13.547
93814W        W65485   7.607  10.740  14.513
93815W        W65486  18.288  25.446   4.972
93816W        W65487  16.085  25.002   4.259
93817W        W65488  20.473  39.512  11.663
93818W        W65489  13.821  13.592   0.172
93819W        W65490  22.423  39.484  10.576
93820W        W65491  26.552  27.159   4.426
93821W        W65492  23.305   1.864   3.637
93822W        W65493  32.902  17.774  11.123
93823W        W65494  28.670  22.138   2.533
93824W        W65495   1.328  36.544   1.338
93825W        W65496   3.814  24.032  11.441
93826W        W65497  21.901  39.975  13.152
93827W        W65498  31.125   0.940  12.447
93828W        W65499  24.727   2.477   0.357
93829W        W65500  36.107  14.118  12.999
93830W        W65501   5.353  10.814   0.453
93831W        W65502  28.463  39.908   1.892
93832W        W65503  19.080  32.631  13.628
93833W        W65504  20.780  12.406   0.032
93834W        W65505  15.776  40.040  10.290
93835W        W65506  26.754  23.506  11.094
93836W        W65507  21.135   1.459   2.214
93837W        W65508  24.980   4.378   1.331
93838W        W65509  13.578  22.493  12.887
93839W        W65510   1.852  18.352  14.498
93840W        W65511  21.918  40.806   4.266
93841W        W65512  43.319   6.394   0.824
93842W        W65513   5.258  21.581  14.065
93843W        W65514  25.912  33.137   2.193
93844W        W65515  20.207   8.624  12.171
93845W        W65516   5.914  28.400   4.380
93846W        W65517  40.885  18.241   3.871
93847W        W65518   9.372  40.577  12.219
93848W        W65519  33.278  37.924   2.406
93849W        W65520   7.764  34.867  11.665
93850W        W65521  19.564  31.995   3.707
93851W        W65522  34.655  10.960  13.367
93852W        W65523  44.880   5.528   4.075
93853W        W65524   8.501  32.816  13.311
93854W        W65525  32.239  32.574   3.480
93855W        W65526  28.333  36.541   2.672
93856W        W65527   5.752  17.707  13.827
93857W        W65528  34.155   0.814  14.496
93858W        W65529   7.263   8.620   1.698
93859W        W65530  17.265  39.791   0.346
93860W        W65531   3.889   9.389   0.816
93861W        W65532  22.761   2.456   4.842
93862W        W65533   6.929  18.093   1.293
93863W        W65534  21.475  11.896  13.347
93864W        W65535  27.042  21.252  13.801
93865W        W65536  33.723  34.759   3.141
93866W        W65537   3.657  31.319  14.907
93867W        W65538  37.558   1.749  12.072
93868W        W65539  11.708  11.114  14.873
93869W        W65540   0.464  41.152   2.942
93870W        W65541  39.301  35.181   4.507
93871W        W65542  25.735  32.271   1.805
93872W        W65543  13.129  37.349  12.104
93873W        W65544  40.990  14.026   1.074
93874W        W65545  44.462  14.356  13.827
93875W        W65546   1.469  21.702  13.332
93876W        W65547  43.004  13.958  11.051
93877W        W65548  32.156  11.398  13.580
93878W        W65549  14.223  16.817   2.662
93879W        W65550  36.922  26.054   0.007
93880W        W65551  30.152   3.205  14.765
93881W        W65552  26.581   8.207  13.807
93882W        W65553  40.325  14.343   3.710
93883W        W65554   6.166  15.737  14.994
93884W        W65555   4.292   9.817   1.509
93885W        W65556  18.736  17.883  13.609
93886W        W65557  12.342  33.836   4.091
93887W        W65558  23.949  27.710   2.755
93888W        W65559  43.879  31.527  12.447
93889W        W65560  38.079   3.399   4.414
93890W        W65561  36.067  42.168  13.900
93891W        W65562   6.508   7.338  12.640
93892W        W65563  14.897  35.043  11.039
93893W        W65564  21.811  39.233   3.610
93894W        W65565   6.271  39.708  11.847
93895W        W65566   1.263   4.681  13.311
93896W        W65567  40.767  18.696  10.715
93897W        W65568   0.629   6.945   2.739
93898W        W65569  17.206  28.475  12.330
93899W        W65570  18.236  33.117   4.925
93900W        W65571   9.144  15.649  14.822
93901W        W65572  10.758   8.114  13.474
93902W        W65573  21.493   4.236   0.444
93903W        W65574  37.586  13.811  11.489
93904W        W65575  16.120  24.625  14.056
93905W        W65576  42.769   5.683  12.117
93906W        W65577   4.243  29.477  13.105
93907W        W65578   5.962   2.884   3.729
93908W        W65579  43.762  12.235  12.424
93909W        W65580   3.846  23.314  13.302
93910W        W65581   9.913   2.195   0.843
93911W        W65582  15.648  11.613   4.186
93912W        W65583  35.584  42.436  13.861
93913W        W65584  30.023  31.877   2.501
93914W        W65585  28.700   9.177   3.734
93915W        W65586  23.228  43.202  10.715
93916W        W65587  35.934  36.508   1.229
93917W        W65588   8.170  36.410  11.374
93918W        W65589  34.425  10.098  10.748
93919W        W65590  22.145   9.787   2.352
93920W        W65591  14.474  34.663  14.820
93921W        W65592  42.519  28.432   3.977
93922W        W65593  13.112   8.176  11.619
93923W        W65594  12.778  23.240   3.380
93924W        W65595  39.209  21.585   2.347
93925W        W65596  11.550  18.263  11.391
93926W        W65597  28.404  10.240  13.883
93927W        W65598  11.203  31.918  11.569
93928W        W65599  15.873  21.062  12.885
93929W        W65600  10.191  40.809   0.153
93930W        W65601   9.027  26.930   2.563
93931W        W65602   3.394  24.846  14.882
93932W        W65603  15.074  42.270  11.206
93933W        W65604  36.798  22.106  11.071
93934W        W65605  17.709  37.334  11.110
93935W        W65606  20.672   0.953  10.716
93936W        W65607  32.387  33.099   0.463
93937W        W65608  18.809  20.088  12.034
93938W        W65609  39.504  24.916   3.312
93939W        W65610  14.239  22.096   1.643
93940W        W65611  42.478   1.956  11.356
93941W        W65612   5.803  41.407   4.521
93942W        W65613  13.704  20.995   2.416
93943W        W65614  29.163  40.373  13.618
93944W        W65615  27.996  33.543   2.259
93945W        W65616  19.616   1.525  11.648
93946W        W65617   6.870   7.247   4.423
93947W        W65618  41.010  32.106  13.891
93948W        W65619  39.136  43.885  12.862
93949W        W65620  25.084  41.602  12.613
93950W        W65621  23.983   9.855   4.257
93951W        W65622  37.042  25.760  11.259
93952W        W65623  42.832  35.890  14.521
93953W        W65624  26.020  27.868  14.137
93954W        W65625  39.249  25.533  12.437
93955W        W65626  16.937   7.757  14.044
93956W        W65627  14.635  39.909   4.362
93957W        W65628   7.711   7.089  12.688
93958W        W65629  21.077   9.128  11.822
93959W        W65630  36.443   8.133   3.736
93960W        W65631   0.789   6.178   1.525
93961W        W65632  28.384  11.876   0.846
93962W        W65633  15.819  27.690   2.123
93963W        W65634  32.956  40.043   0.290
93964W        W65635  26.041  30.752   9.955
93965W        W65636  12.430  32.350   2.781
93966W        W65637  35.097  39.936   2.882
93967W        W65638   4.858  10.230   3.625
93968W        W65639  24.999   2.657  12.035
93969W        W65640  10.171  37.986  11.934
93970W        W65641  32.445   5.687   0.764
93971W        W65642   3.896  36.912   1.617
93972W        W65643  11.448  25.034   2.802
93973W        W65644  42.483  41.474  11.418
93974W        W65645  29.589   3.961   3.759
93975W        W65646   2.453  10.836   1.905
93976W        W65647  32.055   3.409  11.164
93977W        W65648   6.931  29.976  10.618
93978W        W65649  24.582  31.902   2.164
93979W        W65650  27.201  27.314  14.191
93980W        W65651   5.566  16.272   0.688
93981W        W65652   4.037  40.915  13.003
93982W        W65653  19.637  16.737   0.285
93983W        W65654  40.423  18.571   9.955
93984W        W65655  32.336   4.014  13.845
93985W        W65656  43.936  43.478   1.311
93986W        W65657  27.655  37.844  13.123
93987W        W65658   0.697  13.596   3.764
93988W        W65659  33.666  36.580  14.366
93989W        W65660   7.454  35.543  14.421
93990W        W65661  22.691   2.783   3.345
93991W        W65662   0.570  10.206  11.048
93992W        W65663  26.161   8.665  14.549
93993W        W65664   4.483  39.330  12.577
93994W        W65665  37.508   4.175   1.746
93995W        W65666  39.088  23.058  10.627
93996W        W65667  39.370  36.130   0.428
93997W        W65668  39.380  29.416  12.601
93998W        W65669  15.202   2.815  12.828
93999W        W65670  31.482  26.572  11.085
94000W        W65671   3.758  38.862   2.814
94001W        W65672  42.048   5.798   1.239
94002W        W65673   9.825   8.340   0.436
94003W        W65674  44.705  26.356  12.476
94004W        W65675  10.856  18.313  12.949
94005W        W65676   9.049  16.707   0.327
94006W        W65677   6.940  20.970   2.411
94007W        W65678  13.377   4.322   4.178
94008W        W65679   9.552  26.326   0.298
94009W        W65680  44.429  21.194  13.295
94010W        W65681   2.238  34.435  11.151
94011W        W65682  14.298  35.532   3.321
94012W        W65683   7.216  40.590   3.036
94013W        W65684  37.264  43.684   1.748
94014W        W65685  41.536  25.651   1.805
94015W        W65686  23.652  35.337   1.381
94016W        W65687  42.115  26.701  10.431
94017W        W65688   4.395  22.990  11.076
94018W        W65689   6.902  40.373   0.961
94019W        W65690  15.055  38.085  11.647
94020W        W65691  24.137  44.775   4.648
94021W        W65692  41.015  24.780   2.171
94022W        W65693  42.304  28.191  14.262
94023W        W65694  14.203  39.374   0.684
94024W        W65695  44.279   8.750  13.706
94025W        W65696  37.447  16.340  14.479
94026W        W65697  26.717   1.833  10.255
94027W        W65698  16.412   8.193   2.900
94028W        W65699  21.501  22.508  12.101
94029W        W65700   1.837  13.268   3.964
94030W        W65701  36.116   4.932  14.030
94031W        W65702  17.769   5.518   1.535
94032W        W65703  12.851  23.112   0.282
94033W        W65704  17.809  15.053  14.867
94034W        W65705  38.956  25.496   0.321
94035W        W65706   7.844  37.076   0.441
94036W        W65707  20.001  22.725  14.941
94037W        W65708  27.013  28.691  14.088
94038W        W65709  32.413  34.984  14.862
94039W        W65710  33.044  16.481   4.323
94040W        W65711  22.727  13.624  14.433
94041W        W65712  20.075  19.202   2.199
94042W        W65713  16.202  23.644   2.465
94043W        W65714  37.865  21.136  10.624
94044W        W65715   8.747  38.466  12.990
94045W        W65716   5.759   0.980   1.917
94046W        W65717  43.823  44.361  14.331
94047W        W65718  13.657  29.953  13.080
94048W        W65719   5.687  28.067   4.039
94049W        W65720  36.014  20.291  14.437
94050W        W65721  29.876   7.778  10.701
94051W        W65722   2.998  11.579   0.905
94052W        W65723  26.221  39.620   0.792
94053W        W65724  13.284   0.778   1.694
94054W        W65725  26.920   7.814   2.827
94055W        W65726  35.387  39.436  13.009
94056W        W65727  26.068  33.005   2.667
94057W        W65728  18.227  20.157   2.426
94058W        W65729  15.316   7.388   1.671
94059W        W65730  16.365  14.046   1.219
94060W        W65731  37.878  38.502  14.012
94061W        W65732   4.851  18.441   1.733
94062W        W65733  16.691  28.421  11.641
94063W        W65734   5.732  23.114   2.727
94064W        W65735   1.927   1.723  11.120
94065W        W65736  24.442  30.566  12.529
94066W        W65737  42.691  24.434  14.309
94067W        W65738  34.870  40.988   4.381
94068W        W65739   6.366  29.133   4.088
94069W        W65740   0.384   6.625  14.624
94070W        W65741  31.500   8.408  12.928
94071W        W65742   5.380  31.542   2.414
94072W        W65743  19.254  25.457  13.309
94073W        W65744  15.943  17.761  14.941
94074W        W65745   7.883   4.734  11.077
94075W        W65746  22.637  36.433   2.862
94076W        W65747  42.219   9.085   2.725
94077W        W65748  40.871  20.561   1.158
94078W        W65749  33.938   0.024  11.477
94079W        W65750   6.359   4.951   1.191
94080W        W65751  40.391   2.377   3.620
94081W        W65752   9.080  40.461   3.301
94082W        W65753   1.906  20.532  13.959
94083W        W65754  40.733  13.065   1.368
94084W        W65755  12.200   5.882   2.715
94085W        W65756  39.742  14.147   3.162
94086W        W65757  35.950   4.299  14.566
94087W        W65758  10.225  19.213  11.946
94088W        W65759  34.312   2.141  12.470
94089W        W65760  38.977  39.452   0.001
94090W        W65761  26.114  36.874   4.324
94091W        W65762  12.194   7.736   1.321
94092W        W65763  31.467  39.485   4.009
94093W        W65764  38.789   8.190   3.276
94094W        W65765  40.290  13.566   3.270
94095W        W65766  26.392  21.698  12.012
94096W        W65767  13.959  32.468  12.554
94097W        W65768  19.827  13.246   2.925
94098W        W65769  39.342  16.732  12.904
94099W        W65770  26.809  24.569  11.020
94100W        W65771  41.998   8.891   4.462
94101W        W65772   3.920   1.141  14.518
94102W        W65773  28.259  25.174   4.204
94103W        W65774  13.360  23.624   4.679
94104W        W65775  39.602   1.766  12.029
94105W        W65776  33.021  14.797   0.776
94106W        W65777  34.288  10.968   3.155
94107W        W65778  34.817  40.973   5.086
94108W        W65779  21.336   3.219   3.624
94109W        W65780  34.080  19.774   1.833
94110W        W65781   1.911  21.486  11.557
94111W        W65782  32.173   3.851   5.143
94112W        W65783   9.571  21.616  10.420
94113W        W65784   1.312  17.370  12.951
94114W        W65785  19.101  20.674  14.568
94115W        W65786  40.976  39.606  14.526
94116W        W65787  29.031   9.065  10.511
94117W        W65788  15.794  43.703   2.230
94118W        W65789  26.555  13.694   2.792
94119W        W65790  15.948  27.850  10.084
94120W        W65791  36.809   5.157  14.913
94121W        W65792  20.994  36.298  12.049
94122W        W65793  22.558  31.022   0.567
94123W        W65794  29.682  11.663  13.905
94124W        W65795  26.084  29.408   2.285
94125W        W65796  29.573  29.562   4.180
94126W        W65797  34.040  11.677   3.787
94127W        W65798  42.853  21.959   3.025
94128W        W65799  42.997  39.275   2.213
94129W        W65800  13.872   3.131   0.319
94130W        W65801  10.033  40.007  10.208
94131W        W65802   2.515   0.475  11.102
94132W        W65803  14.007  12.958   5.050
94133W        W65804  16.583  18.674   4.429
94134W        W65805  35.540   5.354   0.686
94135W        W65806   9.298  14.318   4.018
94136W        W65807  34.480  40.965  10.729
94137W        W65808  27.007  19.515  13.070
94138W        W65809  40.134  11.231  12.558
94139W        W65810   6.811  35.053   0.463
94140W        W65811   0.693  16.967  11.495
94141W        W65812   4.642  16.715   1.967
94142W        W65813  21.938  27.489  12.562
94143W        W65814   8.044  24.872  10.320
94144W        W65815  44.237  44.799   1.313
94145W        W65816  22.886  30.843   2.773
94146W        W65817  20.507   4.704  12.971
94147W        W65818  10.150  19.718  12.029
94148W        W65819  20.469  38.187   4.034
94149W        W65820  38.131  41.287   1.942
94150W        W65821  42.802  34.054   0.269
94151W        W65822  41.956  31.061   4.407
94152W        W65823  10.280  24.674  10.725
94153W        W65824  42.850  30.420  13.515
94154W        W65825  29.592  22.086  11.548
94155W        W65826  21.080  17.723  12.085
94156W        W65827  27.140   8.529  11.995
94157W        W65828  33.890   9.862  14.899
94158W        W65829  41.119  41.540  11.652
94159W        W65830  31.840  33.558  12.232
94160W        W65831  16.858  13.714   3.972
94161W        W65832  10.614  26.061   3.463
94162W        W65833  42.498  37.000   0.476
94163W        W65834  38.817   8.913   0.127
94164W        W65835  38.307   2.200  13.837
94165W        W65836  20.691  25.250   1.037
94166W        W65837  29.992  38.986   1.683
94167W        W65838  23.849  44.365   1.767
94168W        W65839   3.937  27.914   0.854
94169W        W65840  36.573  44.515  12.421
94170W        W65841  33.156  38.529   4.067
94171W        W65842  35.963   8.181  12.923
94172W        W65843   6.435  30.829  13.011
94173W        W65844  17.094  23.907   0.919
94174W        W65845  12.669  17.579   1.337
94175W        W65846  23.217  43.244   4.465
94176W        W65847   8.297  42.287  12.936
94177W        W65848  21.242  35.393   2.689
94178W        W65849  22.281  14.250   3.388
94179W        W65850  16.517   6.774   5.326
94180W        W65851  14.069  31.089   0.944
94181W        W65852  25.693   2.441  14.336
94182W        W65853   4.814  12.150  11.607
94183W        W65854  17.137  40.555  11.938
94184W        W65855  41.505  21.419  10.679
94185W        W65856  30.350   6.535  12.282
94186W        W65857  11.056   3.753   4.122
94187W        W65858  38.153  38.439   3.295
94188W        W65859  17.612   0.583   0.338
94189W        W65860  31.521  30.746  10.277
94190W        W65861  44.395  15.291  11.799
94191W        W65862  20.496  17.124   3.851
94192W        W65863  23.500  15.834   1.370
94193W        W65864  32.526  36.110   3.231
94194W        W65865  20.588  38.598   0.867
94195W        W65866   1.455   9.268   1.398
94196W        W65867  13.726   3.040   3.542
94197W        W65868  13.798  16.170   0.356
94198W        W65869   2.221  35.678  10.850
94199W        W65870  12.326  39.958   4.281
94200W        W65871  44.031   9.230  10.570
94201W        W65872  42.860   7.734   0.534
94202W        W65873  31.320   9.088  11.035
94203W        W65874  11.810   2.409   4.207
94204W        W65875  17.214  24.459   4.124
94205W        W65876   7.107  22.579   1.769
94206W        W65877  27.210   9.458  14.198
94207W        W65878   3.185   4.234  13.088
94208W        W65879  22.493  40.549   2.402
94209W        W65880  22.271   4.486  12.611
94210W        W65881  44.585  11.065   0.450
94211W        W65882  11.287  25.876   4.045
94212W        W65883  42.768  15.648   1.042
94213W        W65884   1.325  38.773   1.610
94214W        W65885  28.220  33.252  11.084
94215W        W65886  17.617  10.693  14.372
94216W        W65887  11.334  31.440   4.659
94217W        W65888  33.405  31.357   1.033
94218W        W65889   6.236  11.933   1.246
94219W        W65890  13.648   4.792   1.736
94220W        W65891   6.360  17.752   2.809
94221W        W65892  43.724  43.013   3.254
94222W        W65893  17.562  44.742   2.338
94223W        W65894  12.825   8.886   2.260
94224W        W65895  42.714  12.626  13.871
94225W        W65896  16.350  36.413   3.787
94226W        W65897  10.671   9.720   2.343
94227W        W65898  31.113  12.697   3.032
94228W        W65899  35.873  39.484   3.137
94229W        W65900  29.680  19.086   3.662
94230W        W65901   9.791   3.634   0.849
94231W        W65902  38.997  26.301  14.919
94232W        W65903  22.357  30.235  13.044
94233W        W65904   4.309  28.169  14.493
94234W        W65905  37.987  40.872  12.169
94235W        W65906   0.832  35.872   3.270
94236W        W65907  26.483  36.545   2.318
94237W        W65908   3.233  29.220   4.023
94238W        W65909  40.995   1.823   4.660
94239W        W65910   4.826   6.432  12.572
94240W        W65911   4.780  14.206   3.226
94241W        W65912  12.384  23.253  13.887
94242W        W65913   4.011  16.508   3.189
94243W        W65914  32.164  17.144  12.717
94244W        W65915  40.590  32.161  12.977
94245W        W65916  26.105  26.597  14.346
94246W        W65917  28.957  35.553   4.135
94247W        W65918  26.220  20.244   4.180
94248W        W65919  44.542  33.006  14.395
94249W        W65920  32.193   0.488   2.909
94250W        W65921  40.830  14.254   3.854
94251W        W65922  20.647  10.683   1.235
94252W        W65923  37.245  17.493   5.093
94253W        W65924  15.307  39.357   4.344
94254W        W65925  33.858  37.130  10.169
94255W        W65926  27.128   2.785   1.383
94256W        W65927  16.636  16.586   3.766
94257W        W65928  11.208   5.779   4.310
94258W        W65929   0.786  29.142  11.592
94259W        W65930  16.207  43.905   4.535
94260W        W65931  37.959  36.144   1.869
94261W        W65932   0.094  28.189  12.394
94262W        W65933  30.132   6.017  12.122
94263W        W65934  36.719  41.931   1.860
94264W        W65935   0.389   2.665  10.371
94265W        W65936  25.138   8.750   1.185
94266W        W65937   5.879  24.193  14.898
94267W        W65938  14.165  41.500   3.792
94268W        W65939   3.867  34.279   0.397
94269W        W65940   8.753  35.201  12.134
94270W        W65941   4.052   8.766   3.945
94271W        W65942  40.847  37.633  12.824
94272W        W65943  10.940  23.212  14.766
94273W        W65944   2.827  32.155  13.410
94274W        W65945   8.828  31.915  11.584
94275W        W65946  12.064  27.806  11.888
94276W        W65947   4.286  28.169  12.523
94277W        W65948  40.488  22.178  13.664
94278W        W65949  44.812  28.164  13.302
94279W        W65950   4.736   9.065  12.202
94280W        W65951  35.103  44.090  10.988
94281W        W65952   8.650  43.479   1.347
94282W        W65953  25.557  19.943   0.237
94283W        W65954  39.266   8.393   3.211
94284W        W65955   8.873  33.872  12.556
94285W        W65956  21.989  24.943   3.244
94286W        W65957  10.688  24.277   2.819
94287W        W65958  31.394  44.016  14.025
94288W        W65959  38.412   0.160  12.208
94289W        W65960  40.336  22.763   2.771
94290W        W65961  33.449  18.073   2.921
94291W        W65962  22.710  16.903   2.768
94292W        W65963  31.466  36.975  13.549
94293W        W65964  30.688  34.603   0.707
94294W        W65965   1.512  19.144  10.629
94295W        W65966   6.993  21.050  10.407
94296W        W65967   4.590  11.705  11.806
94297W        W65968  17.108   6.126   0.128
94298W        W65969  35.637  23.194  12.927
94299W        W65970  25.523   4.245  12.061
94300W        W65971   1.389   8.285   4.610
94301W        W65972  30.103  23.509   3.867
94302W        W65973   0.435   6.250   4.577
94303W        W65974  19.266   6.726   2.806
94304W        W65975  11.067  19.216  12.198
94305W        W65976   4.237  32.741   4.561
94306W        W65977   6.202  40.878   1.993
94307W        W65978   5.665  41.265   4.044
94308W        W65979  38.062  32.714  13.027
94309W        W65980  28.035  32.370  13.978
94310W        W65981   9.493  24.703  13.898
94311W        W65982  32.700  10.892  11.561
94312W        W65983  11.335   1.492   0.318
94313W        W65984   6.550  16.101   0.898
94314W        W65985   1.463  28.432   1.693
94315W        W65986   5.744  27.545   2.422
94316W        W65987  13.172   8.069   0.619
94317W        W65988  33.989  17.775  12.902
94318W        W65989  22.755  11.256   4.425
94319W        W65990  17.753   7.402  10.658
94320W        W65991  21.549  32.625   1.379
94321W        W65992  37.573  44.261   2.710
94322W        W65993  39.265  19.688   1.437
94323W        W65994  30.439  11.565  14.341
94324W        W65995  33.518  30.560  10.752
94325W        W65996  27.011  40.085  11.134
94326W        W65997   2.989  40.083   1.744
94327W        W65998  14.058   5.738  11.781
94328W        W65999  25.234  39.235  11.167
94329W        W66000  27.741  21.414  14.771
94330W        W66001  11.947  18.218  13.898
94331W        W66002   4.185  35.857   2.371
94332W        W66003  17.056  27.741   1.203
94333W        W66004   3.818   5.899   4.564
94334W        W66005  21.709  39.802   1.205
94335W        W66006  36.295  29.691  11.173
94336W        W66007  44.933  29.062   4.255
94337W        W66008  14.685  11.427   1.786
94338W        W66009  10.021   2.750   3.345
94339W        W66010  21.062  36.424   1.197
94340W        W66011  25.420   6.053   3.406
94341W        W66012  39.007   8.347  11.611
94342W        W66013  26.512  36.105  10.771
94343W        W66014   1.468  40.354  13.864
94344W        W66015   1.265  13.441  13.080
94345W        W66016  22.073  31.409  14.427
94346W        W66017  39.760  18.707  11.727
94347W        W66018  18.309  43.703   2.167
94348W        W66019  12.100  22.910   1.252
94349W        W66020   4.399  16.684   3.746
94350W        W66021  44.795   6.901  10.842
94351W        W66022  38.463  36.855   4.879
94352W        W66023  14.010  43.766   0.206
94353W        W66024  14.075  44.498   3.677
94354W        W66025  41.520  26.943   0.040
94355W        W66026  31.554  11.577  12.797
94356W        W66027  20.091  18.124   0.410
94357W        W66028  19.437  41.994   1.775
94358W        W66029  20.132  21.231  13.995
94359W        W66030  43.428  13.689  14.749
94360W        W66031   7.718  11.505   5.152
94361W        W66032  15.463  19.938  11.670
94362W        W66033   6.469  31.972  12.538
94363W        W66034   2.017  27.998   3.521
94364W        W66035  10.428   6.995  13.654
94365W        W66036  32.887  39.514  13.954
94366W        W66037  21.523  31.670  13.314
94367W        W66038  28.143   4.814   4.619
94368W        W66039  18.470  12.635   2.871
94369W        W66040  39.523  14.554  14.359
94370W        W66041  28.917  26.766   3.877
94371W        W66042  18.782  41.049   2.872
94372W        W66043  44.825  19.789  14.788
94373W        W66044  36.522  42.812   4.221
94374W        W66045  27.324  30.014  11.761
94375W        W66046   2.989  34.065   3.829
94376W        W66047  12.384  36.866  13.938
94377W        W66048   2.253   1.986   3.749
94378W        W66049  44.811  13.607   0.898
94379W        W66050  40.988  28.014  10.945
94380W        W66051  18.018  26.038  11.343
94381W        W66052   0.685  15.825  13.447
94382W        W66053  28.655  12.784  11.312
94383W        W66054  26.224  14.287   2.251
94384W        W66055   7.950  31.534  11.680
94385W        W66056  11.411  33.564   0.970
94386W        W66057  44.728  42.820   3.296
94387W        W66058  25.400   6.557   2.755
94388W        W66059  31.878  38.122  13.999
94389W        W66060  23.174  24.452   0.702
94390W        W66061  37.891  21.341   0.821
94391W        W66062   3.374   0.842  12.620
94392W        W66063   1.030   7.870   2.821
94393W        W66064  12.300  35.537  13.304
94394W        W66065  11.404   3.025  14.411
94395W        W66066  11.615  42.755  13.069
94396W        W66067  33.799  37.990   2.411
94397W        W66068  39.988  39.253   3.658
94398W        W66069  14.931  26.682  13.091
94399W        W66070   8.661  20.099   2.425
94400W        W66071   9.249  34.454   4.171
94401W        W66072   8.324  10.683  12.463
94402W        W66073   8.813  34.066  10.718
94403W        W66074  12.916  42.496  13.423
94404W        W66075  37.397  33.362   4.987
94405W        W66076   8.215  31.940   3.053
94406W        W66077  33.862  44.860   0.315
94407W        W66078  24.542  15.516  13.364
94408W        W66079  24.952  11.326  14.796
94409W        W66080   9.353  14.459   0.337
94410W        W66081   8.103   7.632   4.167
94411W        W66082  27.505  20.756  12.030
94412W        W66083  32.133  26.969  11.426
94413W        W66084  12.786   0.237   1.888
94414W        W66085  41.956  16.587   3.293
94415W        W66086  22.993  14.169  11.466
94416W        W66087  33.534  40.404  12.068
94417W        W66088  18.420  29.542   4.975
94418W        W66089  21.661  35.972   5.084
94419W        W66090  44.370  42.932  13.780
94420W        W66091  44.840  23.698   9.907
94421W        W66092  22.199  37.571  14.866
94422W        W66093  33.976   6.416  13.771
94423W        W66094  33.846   6.312  12.935
94424W        W66095  14.549  30.565   2.532
94425W        W66096  38.299  30.533  11.158
94426W        W66097  31.047  15.524   0.464
94427W        W66098  27.395   8.761   2.759
94428W        W66099   0.007  26.051   2.618
94429W        W66100  43.686  10.855   2.908
94430W        W66101  34.588  33.191  12.049
94431W        W66102   9.210  38.372   1.711
94432W        W66103  42.512  42.801  13.191
94433W        W66104  36.896  14.851  12.023
94434W        W66105   0.682  23.810   4.291
94435W        W66106  39.571  43.446  10.628
94436W        W66107   2.532  44.492  10.968
94437W        W66108  28.112  41.558  14.819
94438W        W66109   5.950  36.056  10.650
94439W        W66110  37.040  14.269  13.426
94440W        W66111   6.176  31.948  14.018
94441W        W66112  39.818  42.461  10.686
94442W        W66113   9.403  25.195  13.031
94443W        W66114  26.924  34.836  10.570
94444W        W66115  28.534  30.350   0.840
94445W        W66116  34.838  29.815   2.202
94446W        W66117  38.517  16.680   4.042
94447W        W66118  20.690  30.308  10.669
94448W        W66119  22.052   4.336   3.686
94449W        W66120  29.540  33.808   2.639
94450W        W66121  33.900  21.646   0.768
94451W        W66122  10.387  26.042  12.940
94452W        W66123  22.876   1.809  13.288
94453W        W66124  30.563  14.253   3.632
94454W        W66125   9.713  38.459   4.886
94455W        W66126  28.813   6.934  14.756
94456W        W66127   2.031  24.054  11.377
94457W        W66128  31.580  28.990   3.508
94458W        W66129  39.013   6.084  11.563
94459W        W66130   8.035  41.557  12.275
94460W        W66131  39.569  41.250   4.180
94461W        W66132   8.878  33.359  12.437
94462W        W66133  27.429  44.670   2.716
94463W        W66134  28.428  15.164  11.186
94464W        W66135  16.127  29.226   2.374
94465W        W66136  35.097   0.809  14.129
94466W        W66137  21.667   8.741  13.398
94467W        W66138  41.560  39.932  14.062
94468W        W66139  18.263   7.978   4.098
94469W        W66140   8.758  17.334  12.032
94470W        W66141  32.602  10.026   4.476
94471W        W66142   0.542  29.978  11.806
94472W        W66143  38.755  31.047   1.628
94473W        W66144  28.538  17.586   3.561
94474W        W66145  28.646  21.079   3.677
94475W        W66146  42.098  12.059  11.145
94476W        W66147  44.071  36.659   3.323
94477W        W66148  26.829  37.548   4.030
94478W        W66149  43.579   9.764   0.919
94479W        W66150  25.073  36.815  13.795
94480W        W66151   5.411  20.126   1.267
94481W        W66152  36.422  28.564  14.029
94482W        W66153  24.146  10.665   1.983
94483W        W66154   4.856  26.535   1.314
94484W        W66155  36.595  29.969   1.765
94485W        W66156  11.690  44.309   4.213
94486W        W66157  41.052  11.739  11.971
94487W        W66158   5.987  43.986   4.793
94488W        W66159  44.431  36.299   4.806
94489W        W66160  19.014  40.010   3.678
94490W        W66161  32.128  18.818   4.992
94491W        W66162  33.915   6.402  11.153
94492W        W66163  39.341   5.252   2.814
94493W        W66164   4.748   2.453  10.645
94494W        W66165  20.039  34.427  14.317
94495W        W66166   1.342   4.649   4.312
94496W        W66167   6.029   1.085  11.615
94497W        W66168   0.721  38.223  13.794
94498W        W66169   2.147  40.754   0.665
94499W        W66170  36.190  24.610   4.102
94500W        W66171  27.659  26.546  13.998
94501W        W66172  24.442  15.799   4.118
94502W        W66173  18.302   7.438   1.475
94503W        W66174  37.469   1.232  10.440
94504W        W66175   0.184  22.221   0.495
94505W        W66176  32.078  26.164  12.440
94506W        W66177   7.812   6.925   1.998
94507W        W66178  30.435  43.717  13.987
94508W        W66179  33.940  31.021  13.370
94509W        W66180   3.130  22.534  13.172
94510W        W66181  36.896   8.075   4.649
94511W        W66182  39.971   0.430   3.279
94512W        W66183  34.533  17.846  14.074
94513W        W66184  10.813  21.501  12.485
94514W        W66185  35.447  34.079  11.145
94515W        W66186   6.746   1.272   1.216
94516W        W66187   4.791   7.724  13.876
94517W        W66188  33.637  17.240   2.202
94518W        W66189   6.857  10.843   4.787
94519W        W66190  39.837  35.502  14.957
94520W        W66191  40.033  31.294   3.309
94521W        W66192  38.237  23.483  11.645
94522W        W66193  16.014  17.656   3.696
94523W        W66194  31.598   2.580   2.099
94524W        W66195  10.133  39.724  14.320
94525W        W66196  38.562  41.417   3.894
94526W        W66197  27.529  44.049  13.992
94527W        W66198  24.168   2.939   3.909
94528W        W66199  11.374  30.198  11.217
94529W        W66200  19.505   0.046   3.379
94530W        W66201  39.815   1.764   3.276
94531W        W66202  40.309  14.763  14.568
94532W        W66203  34.858   0.001  10.525
94533W        W66204  43.359   5.439   0.457
94534W        W66205  37.910  23.699  12.050
94535W        W66206  20.368  42.042   0.174
94536W        W66207  29.959  18.203  13.129
94537W        W66208  17.632  44.430   3.594
94538W        W66209  35.904  21.303   1.129
94539W        W66210  42.759  32.617   3.643
94540W        W66211  15.248  15.889  10.010
94541W        W66212  19.187  31.633   2.589
94542W        W66213  36.786   7.982  12.011
94543W        W66214   6.460  25.058  13.929
94544W        W66215   5.553  14.378  10.546
94545W        W66216  32.109  21.223  13.285
94546W        W66217  20.532   8.501  14.342
94547W        W66218  28.651  29.674  12.947
94548W        W66219  20.085   3.703   2.606
94549W        W66220  29.506  21.572   1.496
94550W        W66221  10.180  12.650  11.165
94551W        W66222  24.643   2.446   1.394
94552W        W66223  30.889  30.190   0.088
94553W        W66224  41.854   4.656  14.268
94554W        W66225  34.832  12.749  14.492
94555W        W66226  43.304   0.901  12.521
94556W        W66227  40.949  27.150   4.204
94557W        W66228   1.890  36.713   2.766
94558W        W66229  35.425   6.145  10.712
94559W        W66230  34.925  16.222  13.034
94560W        W66231  37.007  28.232  11.969
94561W        W66232  14.310   5.958  12.565
94562W        W66233  16.597  14.994   2.711
94563W        W66234   2.852  18.650   2.769
94564W        W66235  41.423  22.280   0.823
94565W        W66236  42.366  40.995   4.598
94566W        W66237  30.473  36.359  13.908
94567W        W66238  30.728   6.948   2.174
94568W        W66239   1.530  37.936  13.443
94569W        W66240  29.629  27.101  12.998
94570W        W66241  40.942   8.525   2.661
94571W        W66242  26.251  18.829   0.167
94572W        W66243  40.884   2.449   1.461
94573W        W66244  17.993  11.847   0.888
94574W        W66245  24.619   4.388  14.393
94575W        W66246  38.027  37.856   2.369
94576W        W66247  27.025  33.011  11.898
94577W        W66248  16.505  36.549  13.972
94578W        W66249  18.054  40.910  10.830
94579W        W66250  27.579  21.815  13.333
94580W        W66251  42.055  17.041   4.579
94581W        W66252   0.700  41.930  14.673
94582W        W66253  35.143  29.483  13.063
94583W        W66254   3.722  22.738   0.749
94584W        W66255  39.408   7.675  13.058
94585W        W66256  37.015  17.893  11.592
94586W        W66257   7.395  40.723  12.882
94587W        W66258   4.313  36.877   2.310
94588W        W66259  31.437   4.874   2.777
94589W        W66260  17.452   3.207   4.664
94590W        W66261   4.469   1.911   2.329
94591W        W66262  34.578   6.665   1.852
94592W        W66263   8.752  17.059  10.518
94593W        W66264  16.704  26.097   3.939
94594W        W66265  30.385   8.284   3.777
94595W        W66266   0.226  19.678  13.966
94596W        W66267  35.500  20.957  14.847
94597W        W66268   4.179  19.282   4.696
94598W        W66269  22.036  37.079  11.061
94599W        W66270   5.786  34.773  11.123
94600W        W66271   2.650  28.080   2.299
94601W        W66272  15.620  16.709   3.659
94602W        W66273   6.790  44.377   2.477
94603W        W66274  10.570  26.187  13.827
94604W        W66275  21.612   1.396   2.423
94605W        W66276   7.174  26.005  12.855
94606W        W66277  11.834  37.826  12.964
94607W        W66278  40.593  31.081   0.450
94608W        W66279  20.856  15.657  14.108
94609W        W66280  43.978  15.383   3.276
94610W        W66281  22.970   5.906  12.950
94611W        W66282  32.251  30.580  11.298
94612W        W66283  37.575  30.433   0.336
94613W        W66284  41.958  22.815  10.329
94614W        W66285  23.515  35.239  13.640
94615W        W66286  17.631  40.892   1.129
94616W        W66287  12.083  13.221  11.027
94617W        W66288  26.194  33.879  13.784
94618W        W66289  23.719  27.526  14.133
94619W        W66290   9.224  33.942   4.275
94620W        W66291   3.887  10.959   1.668
94621W        W66292  44.585  18.358   1.276
94622W        W66293  20.501  40.575  14.475
94623W        W66294   4.962  27.681  13.101
94624W        W66295  33.954   8.921  13.946
94625W        W66296  31.978  26.942   0.372
94626W        W66297  11.143  12.486   3.811
94627W        W66298  26.280  34.707  11.956
94628W        W66299  41.656  34.706  13.761
94629W        W66300  31.896  43.910   0.874
94630W        W66301   4.819  37.669   0.683
94631W        W66302  18.002  44.558  11.404
94632W        W66303  25.956  22.748  12.990
94633W        W66304  26.169   3.223   1.251
94634W        W66305  33.340  19.984  12.904
94635W        W66306  11.633  26.030  14.712
94636W        W66307  10.830   1.227  14.473
94637W        W66308  11.775  25.507  14.834
94638W        W66309  35.796  38.909  14.182
94639W        W66310   7.464   0.005  13.958
94640W        W66311   4.855   0.328  10.658
94641W        W66312  38.044  35.877   0.387
94642W        W66313  32.526  12.784  12.107
94643W        W66314  42.987  21.672  12.594
94644W        W66315  44.050  22.983   4.616
94645W        W66316  30.827  24.590  14.495
94646W        W66317  15.773  37.680  14.809
94647W        W66318  41.871  26.649  12.200
94648W        W66319  11.858  10.680   4.924
94649W        W66320  29.563  29.721   3.289
94650W        W66321  39.972  41.797   4.416
94651W        W66322  34.122  40.325   3.669
94652W        W66323   7.840   0.704  12.479
94653W        W66324  12.708  35.769   4.608
94654W        W66325   1.341  39.419  10.844
94655W        W66326  40.412   3.389  10.926
94656W        W66327  40.042  25.954  12.643
94657W        W66328  42.166   1.012   2.433
94658W        W66329  25.161  16.256   0.768
94659W        W66330  27.095  39.293   1.317
94660W        W66331  19.119   2.012  13.296
94661W        W66332   2.563  35.922  11.252
94662W        W66333   1.542  24.064   2.346
94663W        W66334  40.701  19.979   3.607
94664W        W66335  30.493   6.869  13.366
94665W        W66336  36.087  28.222   0.308
94666W        W66337  40.824  36.866  11.647
94667W        W66338  38.613   8.866   2.380
94668W        W66339  42.022  18.620  13.025
94669W        W66340   6.183   6.376   4.567
94670W        W66341  29.222  36.869   4.611
94671W        W66342   5.279  19.934   1.750
94672W        W66343  33.968   5.158  12.545
94673W        W66344  36.513   2.979   1.228
94674W        W66345  29.645  28.119  14.957
94675W        W66346  33.332  24.770   3.837
94676W        W66347  34.546  43.854   0.864
94677W        W66348  18.054  39.780   3.769
94678W        W66349  23.342  20.647  12.153
94679W        W66350  23.613   3.942   2.340
94680W        W66351  37.091  20.275  11.087
94681W        W66352  28.180  18.545  12.925
94682W        W66353   7.281  36.039  14.400
94683W        W66354  44.216  26.081   3.653
94684W        W66355   8.792   5.834   0.165
94685W        W66356  26.188  27.139  13.080
94686W        W66357  30.858  29.684   0.458
94687W        W66358  23.875  35.985   4.477
94688W        W66359  35.809  31.962  14.080
94689W        W66360   0.720   9.382   1.461
94690W        W66361  16.235  33.737   4.056
94691W        W66362  40.946  34.949  10.771
94692W        W66363   7.584  33.390   4.159
94693W        W66364  23.811  14.737   3.394
94694W        W66365  15.794  13.135  10.748
94695W        W66366  25.029  22.235  14.763
94696W        W66367   0.288  38.893   1.397
94697W        W66368  34.460  27.054  12.387
94698W        W66369  27.504  14.086  11.702
94699W        W66370  31.006  43.045   1.251
94700W        W66371  21.831   8.162  11.201
94701W        W66372   4.550  21.299   1.693
94702W        W66373  42.749  36.039   3.653
94703W        W66374  20.089  20.325  13.863
94704W        W66375  25.475   2.949   3.330
94705W        W66376  37.461  25.424  11.955
94706W        W66377   8.343  18.111  11.793
94707W        W66378  30.369  11.057   1.215
94708W        W66379  36.385  16.213   1.277
94709W        W66380  26.198  12.813  11.170
94710W        W66381   3.281  17.245   4.090
94711W        W66382   5.813  35.840  14.408
94712W        W66383  14.164   9.915  11.179
94713W        W66384  27.761  12.812   4.135
94714W        W66385  18.366  30.146  13.091
94715W        W66386  31.842  29.639  14.373
94716W        W66387   2.370  44.736   3.187
94717W        W66388  35.482  19.827   0.433
94718W        W66389  37.387   5.588  10.043
94719W        W66390  26.406  29.018   4.743
94720W        W66391  41.877   2.168   2.419
94721W        W66392  30.337  36.077  13.478
94722W        W66393  32.010  14.732  10.406
94723W        W66394  33.301  36.551  11.622
94724W        W66395  18.859   0.065  13.463
94725W        W66396  24.990  24.462   0.409
94726W        W66397  39.828  19.490  13.267
94727W        W66398   7.043  18.116  12.012
94728W        W66399  43.457  42.938   0.776
94729W        W66400  26.650   9.545  14.595
94730W        W66401  40.515  37.292  11.511
94731W        W66402   0.894  17.311   3.623
94732W        W66403  30.386  34.400   3.410
94733W        W66404   5.235  38.270  12.167
94734W        W66405  33.579  23.108  11.975
94735W        W66406  11.273  34.552  14.903
94736W        W66407  16.673  37.588   4.722
94737W        W66408  38.168  38.028  14.791
94738W        W66409  37.412   7.300   4.174
94739W        W66410   5.348  25.042   4.127
94740W        W66411  26.468  13.667   3.677
94741W        W66412  14.059  24.013  12.953
94742W        W66413  43.152  23.982   3.740
94743W        W66414  38.789  23.413  10.363
94744W        W66415  37.818  34.307   1.622
94745W        W66416  28.028  39.069  11.867
94746W        W66417  31.433  15.262   2.392
94747W        W66418  33.497  13.605  14.593
94748W        W66419  37.351   9.754   0.209
94749W        W66420  35.608  44.762   1.929
94750W        W66421  42.339  26.680   0.226
94751W        W66422   6.731  42.346   2.292
94752W        W66423  24.409  26.630  12.847
94753W        W66424  12.651  39.884   2.190
94754W        W66425  27.625  33.237  10.442
94755W        W66426  11.140   2.027  10.795
94756W        W66427  25.456  40.479  10.839
94757W        W66428  41.969  15.018  13.556
94758W        W66429   8.818  39.442   0.761
94759W        W66430  30.333  11.820  12.328
94760W        W66431  24.346  25.129   4.488
94761W        W66432  20.476  16.836  11.616
94762W        W66433  42.457  31.018  10.941
94763W        W66434  12.877  33.219  13.595
94764W        W66435   2.844  16.205  10.715
94765W        W66436  43.862  29.235  13.918
94766W        W66437  36.539  15.277  11.227
94767W        W66438  42.516  18.645  12.837
94768W        W66439  23.430   7.077  11.157
94769W        W66440   2.710  14.093  10.860
94770W        W66441  39.971  22.668  12.779
94771W        W66442  22.856  17.181  13.233
94772W        W66443  26.050   0.979  11.590
94773W        W66444  40.745   2.856   3.778
94774W        W66445  24.235  12.139  11.069
94775W        W66446   9.433  21.807   3.145
94776W        W66447  35.576  36.811  10.467
94777W        W66448  11.694  23.488  12.008
94778W        W66449  24.609  26.579  14.911
94779W        W66450  35.415   2.885  13.086
94780W        W66451  41.264  22.069   1.278
94781W        W66452  22.214  14.761  12.161
94782W        W66453  18.168  33.517  10.872
94783W        W66454  18.669  13.720   1.105
94784W        W66455  43.505  11.278  10.986
94785W        W66456   2.772   5.960   4.106
94786W        W66457  24.557  14.309  12.500
94787W        W66458  26.233   7.259  14.345
94788W        W66459  25.712   9.604  10.672
94789W        W66460   0.947  17.144  14.732
94790W        W66461  26.487   2.804   1.936
94791W        W66462  34.388   0.499  12.055
94792W        W66463  35.865  11.193   0.551
94793W        W66464  37.408  38.652   2.650
94794W        W66465  15.002   1.020   3.788
94795W        W66466   0.350  34.394   0.366
94796W        W66467  22.307   6.979  12.623
94797W        W66468  35.899  20.731   2.731
94798W        W66469  25.931  29.923   4.071
94799W        W66470  19.757  37.308  13.353
94800W        W66471  43.816  32.548  13.897
94801W        W66472  31.587  36.603  11.064
94802W        W66473  26.711  14.046  10.264
94803W        W66474  12.140  36.988  12.644
94804W        W66475  15.024  27.277  13.820
94805W        W66476  14.298  38.362   3.901
94806W        W66477  22.127  10.764   1.344
94807W        W66478   9.820   2.387  11.462
94808W        W66479  23.257  32.056   3.150
94809W        W66480  30.810   6.340   0.497
94810W        W66481  25.728  36.087  14.744
94811W        W66482   5.340  13.812  11.747
94812W        W66483  22.683  39.703  11.020
94813W        W66484  30.084   3.999  10.612
94814W        W66485   0.856  44.223   1.182
94815W        W66486  20.566   2.602   1.867
94816W        W66487   0.002  30.616   2.199
94817W        W66488   1.861   3.877   2.802
94818W        W66489   7.715  16.959  14.348
94819W        W66490  40.904  42.807  14.711
94820W        W66491  30.272  21.651   4.048
94821W        W66492  17.545   2.962   2.853
94822W        W66493  33.310  18.763  10.255
94823W        W66494   9.351   3.446   3.338
94824W        W66495   6.077  27.682  11.519
94825W        W66496   7.808  19.533   2.207
94826W        W66497   2.743  16.057  14.869
94827W        W66498   4.740  24.339  11.916
94828W        W66499  30.092  24.313  14.413
94829W        W66500  35.410  38.960  12.773
94830W        W66501   9.121  28.421   0.957
94831W        W66502  37.195   7.343   3.101
94832W        W66503  20.512  35.861   4.142
94833W        W66504  20.980  17.078  13.448
94834W        W66505  25.035   5.338   2.372
94835W        W66506  27.094   4.592  13.458
94836W        W66507  42.577  29.971   3.309
94837W        W66508  21.224  37.491   4.041
94838W        W66509   9.124  35.644   2.229
94839W        W66510  40.739  34.819   4.103
94840W        W66511  27.757  38.151   2.265
94841W        W66512  31.546  27.405   3.360
94842W        W66513   7.762  31.018   2.368
94843W        W66514  19.300  41.439  14.436
94844W        W66515  19.762  11.340   5.040
94845W        W66516   9.819  36.392  10.509
94846W        W66517  35.650  40.700  13.411
94847W        W66518  40.306  22.525  12.409
94848W        W66519  30.511   1.302   1.023
94849W        W66520  17.724  12.349  10.387
94850W        W66521  32.129   5.920  12.154
94851W        W66522   5.890  11.744  11.876
94852W        W66523  25.293  44.224  13.967
94853W        W66524  32.936  44.009   1.869
94854W        W66525  37.863  21.515   2.345
94855W        W66526  35.480   0.276  11.133
94856W        W66527  40.389   2.881  13.007
94857W        W66528  31.056  36.930   0.044
94858W        W66529   2.439  39.376   0.839
94859W        W66530   7.293  30.790  12.537
94860W        W66531  27.610   6.345   3.790
94861W        W66532  27.099  35.726   2.673
94862W        W66533  21.010  40.671  14.665
94863W        W66534  37.797   9.687   4.983
94864W        W66535   2.860   4.813   1.193
94865W        W66536  27.265  11.237  12.100
94866W        W66537  15.849   1.300   2.205
94867W        W66538  31.685  31.500  10.719
94868W        W66539  18.283   5.485   3.759
94869W        W66540  22.622   0.158  12.612
94870W        W66541  31.157  13.218  10.698
94871W        W66542  29.183  41.757   1.766
94872W        W66543  24.892   2.886  11.585
94873W        W66544  29.738  19.590   3.676
94874W        W66545  37.302  43.017   3.325
94875W        W66546  18.381  13.764  11.582
94876W        W66547   0.267   7.585  12.961
94877W        W66548  39.908   3.302   3.192
94878W        W66549  23.089  38.891   3.620
94879W        W66550  10.111  37.548   4.705
94880W        W66551  13.203   0.264  14.591
94881W        W66552  33.044  33.938  11.618
94882W        W66553   6.347  13.750   4.730
94883W        W66554  41.978   4.422  12.872
94884W        W66555  42.115   4.275  14.045
94885W        W66556   3.384  28.708   4.024
94886W        W66557  40.559  32.053  13.484
94887W        W66558   2.658  33.240  12.872
94888W        W66559  34.254  40.341   1.998
94889W        W66560  14.070   7.795   2.768
94890W        W66561  13.802  18.662   1.652
94891W        W66562  11.588  36.906  14.920
94892W        W66563  30.170  25.769  12.539
94893W        W66564  35.626  43.485  12.551
94894W        W66565  40.446  10.915  14.534
94895W        W66566   9.502  42.900  10.274
94896W        W66567  39.436   4.499   3.594
94897W        W66568   8.851  19.040   0.473
94898W        W66569  19.533  27.624   0.239
94899W        W66570   8.456  44.018  11.668
94900W        W66571  21.202  12.833   1.371
94901W        W66572   4.386  11.795   2.847
94902W        W66573  33.909  19.494  13.475
94903W        W66574  44.003  29.667   3.039
94904W        W66575  39.417   0.828  10.693
94905W        W66576  37.548   0.063  14.411
94906W        W66577  29.595  29.556  14.390
94907W        W66578   4.248  40.715   3.757
94908W        W66579  19.694   1.246   3.755
94909W        W66580  15.680  17.586   3.234
94910W        W66581   5.729  35.583   0.817
94911W        W66582  19.273  29.919  13.438
94912W        W66583   7.777  23.356   5.283
94913W        W66584  44.179  19.183  14.823
94914W        W66585  16.693   0.227   2.186
94915W        W66586  31.425  27.994   2.103
94916W        W66587  24.571  20.235   0.270
94917W        W66588  25.461  36.586  14.059
94918W        W66589  29.627  41.002  11.159
94919W        W66590   0.509  34.967   0.977
94920W        W66591  37.555   2.327   1.253
94921W        W66592  23.703  42.273   0.750
94922W        W66593  40.067   8.317  12.485
94923W        W66594   2.373  14.749  12.404
94924W        W66595  14.156  23.508   1.533
94925W        W66596  31.467  31.433  12.558
94926W        W66597  34.069  11.905   1.744
94927W        W66598  10.351  12.967   9.808
94928W        W66599  10.950   9.732  13.378
94929W        W66600  42.835  35.956  14.013
94930W        W66601  12.289  38.482   4.363
94931W        W66602  15.436   7.375  10.192
94932W        W66603  44.375  34.460  14.297
94933W        W66604  36.247  42.075   3.636
94934W        W66605  13.029   8.333   1.486
94935W        W66606  27.462  35.038  13.543
94936W        W66607   7.029  33.912   2.694
94937W        W66608  27.657  23.120   4.615
94938W        W66609   7.175   8.171   1.425
94939W        W66610  26.661  16.499   3.652
94940W        W66611  18.030  12.142   1.323
94941W        W66612  11.020  24.553   1.133
94942W        W66613  18.065  44.672   3.749
94943W        W66614  37.825  17.302  14.446
94944W        W66615   8.222  28.525   1.480
94945W        W66616   5.469  38.965  11.136
94946W        W66617  33.821  31.320  12.632
94947W        W66618  34.165  26.280   4.213
94948W        W66619  30.378  11.306   0.729
94949W        W66620  31.913   6.298  11.857
94950W        W66621  29.941  15.760  14.846
94951W        W66622  33.378  41.876   1.369
94952W        W66623  33.499  17.879   3.824
94953W        W66624   5.451  19.163   1.410
94954W        W66625  24.972  12.827  13.064
94955W        W66626  10.922  17.637  14.330
94956W        W66627  39.033  40.219  12.303
94957W        W66628  29.664  27.653   3.118
94958W        W66629  21.689  33.558  10.729
94959W        W66630  44.970  32.017  13.117
94960W        W66631  16.634  15.296  11.995
94961W        W66632   8.923  18.821  12.836
94962W        W66633  33.212  22.895   0.831
94963W        W66634  34.372   4.588   2.433
94964W        W66635  39.396  35.600  13.702
94965W        W66636  27.097   5.745   1.765
94966W        W66637  21.711  28.868   0.134
94967W        W66638   0.695  41.023  13.785
94968W        W66639  25.305  27.709  13.583
94969W        W66640  29.028  44.665   3.691
94970W        W66641  36.016  36.255   5.420
94971W        W66642   1.242  43.998  13.943
94972W        W66643  41.465  42.861   1.983
94973W        W66644   0.711  12.318   1.029
94974W        W66645  34.136  30.969  12.381
94975W        W66646  40.008  13.312  13.971
94976W        W66647  39.544  14.068   3.935
94977W        W66648   2.996   6.422  11.977
94978W        W66649  10.660  15.105   2.452
94979W        W66650  34.476   6.100   2.333
94980W        W66651  11.400  32.097   3.325
94981W        W66652  17.924  29.406  10.653
94982W        W66653  30.561   1.322  14.032
94983W        W66654  31.343  24.115   0.809
94984W        W66655  37.250  26.675   4.642
94985W        W66656  44.993  11.121   1.307
94986W        W66657  25.290  26.050  11.457
94987W        W66658  11.199  32.595   1.404
94988W        W66659   5.173  33.505  13.355
94989W        W66660  12.676  13.119   1.155
94990W        W66661   3.636  20.871   5.468
94991W        W66662  34.006  44.232  12.109
94992W        W66663  19.181  11.624   0.397
94993W        W66664  39.096   3.378   0.908
94994W        W66665  40.006  44.284  14.838
94995W        W66666  13.104  14.635  13.500
94996W        W66667   1.753  16.848   2.773
94997W        W66668  34.645  25.996   4.105
94998W        W66669  33.345  15.407  11.231
94999W        W66670  28.974  31.647  12.461
95000W        W66671   0.911   8.067  13.399
95001W        W66672   6.837  27.876   5.010
95002W        W66673  24.542  27.476  10.606
95003W        W66674  26.505  14.198   2.697
95004W        W66675  17.148   3.377  14.275
95005W        W66676  41.397  24.536   3.994
95006W        W66677  22.166  17.268   3.849
95007W        W66678  21.057  14.743   3.453
95008W        W66679   0.535   5.371   2.845
95009W        W66680  21.618  30.682   4.356
95010W        W66681  35.305  43.106   3.131
95011W        W66682   5.722  36.841  12.290
95012W        W66683  13.758  31.820  14.375
95013W        W66684  41.525  24.485   5.113
95014W        W66685  12.169   6.535   4.874
95015W        W66686  35.494  17.370  11.930
95016W        W66687  17.003  31.549   1.726
95017W        W66688  18.905  31.046   0.676
95018W        W66689  20.022  34.326   4.721
95019W        W66690   2.670  10.888  13.070
95020W        W66691  25.170  10.789  12.521
95021W        W66692  19.825   3.771  11.166
95022W        W66693   9.279  44.492   1.966
95023W        W66694  12.357  36.356   0.712
95024W        W66695  21.089   5.112   0.993
95025W        W66696  31.580   6.772  14.444
95026W        W66697  21.250  42.668  12.892
95027W        W66698   1.443  13.732  10.676
95028W        W66699  33.367  25.607  14.904
95029W        W66700  16.991   1.783   0.032
95030W        W66701   2.125   6.563  11.075
95031W        W66702  38.171   6.027  10.471
95032W        W66703  44.848  16.585  11.588
95033W        W66704  23.011  22.776   1.321
95034W        W66705  37.038  42.875  11.231
95035W        W66706   2.026  30.071   3.269
95036W        W66707  16.114  33.487   3.285
95037W        W66708  33.910  34.932  11.646
95038W        W66709  13.408  15.402  13.989
95039W        W66710   8.766   0.893   1.203
95040W        W66711  14.248   6.478   0.218
95041W        W66712   8.381  44.873   0.197
95042W        W66713   8.264   9.788   0.399
95043W        W66714  36.987  18.722   3.746
95044W        W66715  15.636  23.992   2.671
95045W        W66716  14.425  32.625  12.294
95046W        W66717   7.651  16.662   0.475
95047W        W66718   7.952   4.672   4.255
95048W        W66719  20.474   5.446   1.853
95049W        W66720   9.700  10.190   3.939
95050W        W66721  40.745  28.038   0.965
95051W        W66722  30.948  41.662  14.346
95052W        W66723  21.395  32.205  13.964
95053W        W66724  25.209  29.413  11.627
95054W        W66725  35.527  24.061   2.018
95055W        W66726   4.266  15.715   1.837
95056W        W66727   0.748  32.205  14.081
95057W        W66728   4.456  12.619   3.793
95058W        W66729  27.476  19.809  12.047
95059W        W66730  20.207  24.697   1.742
95060W        W66731   0.480  16.063   1.348
95061W        W66732   8.945   3.755   2.198
95062W        W66733  23.236  25.666   1.261
95063W        W66734  29.917  39.860  10.746
95064W        W66735   9.043   7.107  13.366
95065W        W66736  18.810   8.228   2.420
95066W        W66737  30.685   8.961   2.726
95067W        W66738  23.137  27.100  14.823
95068W        W66739  27.084  40.710  10.511
95069W        W66740  15.625  43.952  13.488
95070W        W66741  28.572  16.584   1.025
95071W        W66742  10.532  23.857  11.186
95072W        W66743  11.306  41.918   2.739
95073W        W66744  17.245  31.599  12.066
95074W        W66745  42.025  31.157  12.499
95075W        W66746  29.703   5.161  12.260
95076W        W66747  27.593  27.456   1.926
95077W        W66748  20.438  42.865  12.134
95078W        W66749  43.387   7.300   4.180
95079W        W66750  32.385  27.630   1.597
95080W        W66751  12.023  10.136  12.177
95081W        W66752  44.967  28.395   3.593
95082W        W66753   4.334  19.526   2.202
95083W        W66754  33.851  24.169  13.430
95084W        W66755  43.639  36.945   3.228
95085W        W66756   1.931   9.863  12.921
95086W        W66757   8.623   3.880   4.843
95087W        W66758   4.431  16.238  14.719
95088W        W66759  37.030  22.738   3.670
95089W        W66760   4.634  30.738  10.448
95090W        W66761  18.409  32.608   1.710
95091W        W66762  28.131  37.976  11.973
95092W        W66763   0.402  33.189  14.873
95093W        W66764  33.820  13.227   4.566
95094W        W66765   1.848  39.328  12.086
95095W        W66766  40.754   8.264   3.756
95096W        W66767  20.441  12.543   1.907
95097W        W66768  43.663   6.180   0.245
95098W        W66769  44.779  39.325  11.101
95099W        W66770  27.110  44.975   0.743
95100W        W66771  35.494  26.927  12.617
95101W        W66772  15.666  22.163  13.091
95102W        W66773  36.645  39.520   4.249
95103W        W66774   2.840  22.094   3.638
95104W        W66775  33.829  35.301  14.440
95105W        W66776   1.232  43.458   1.003
95106W        W66777  44.330   5.380  14.113
95107W        W66778  23.072   6.949   3.689
95108W        W66779   0.304   7.828  10.705
95109W        W66780   6.465  21.126  10.269
95110W        W66781   6.634  42.390   4.140
95111W        W66782  40.397   1.424  14.923
95112W        W66783  42.968  25.952   4.661
95113W        W66784   4.012  32.634  11.092
95114W        W66785  26.900   8.367   0.286
95115W        W66786  41.001  28.691   3.852
95116W        W66787  31.070   9.782  10.660
95117W        W66788  27.016  11.153  12.542
95118W        W66789  33.120   7.672  14.516
95119W        W66790  30.201   2.603   2.658
95120W        W66791   7.701  16.033  13.024
95121W        W66792  13.598  31.019  14.045
95122W        W66793  19.184   2.518   1.973
95123W        W66794  15.993  27.205   2.244
95124W        W66795  36.464  29.498  10.733
95125W        W66796  20.585  27.509   4.202
95126W        W66797  31.451  41.032   4.595
95127W        W66798  26.467   8.016   2.868
95128W        W66799  35.343  40.933   3.303
95129W        W66800   8.296  38.770   1.341
95130W        W66801   3.616   6.891   4.601
95131W        W66802  20.535  23.603   0.269
95132W        W66803  41.382  21.496  11.532
95133W        W66804  29.038  27.046  14.285
95134W        W66805  38.994   5.896  12.149
95135W        W66806  32.276   9.091   1.879
95136W        W66807  28.452  13.287   4.326
95137W        W66808  43.349  32.193   3.130
95138W        W66809  14.282  15.509   1.322
95139W        W66810  19.170  20.824   0.916
95140W        W66811  35.361  24.012   2.940
95141W        W66812  44.013  21.676   9.646
95142W        W66813  13.218  19.338  14.993
95143W        W66814  26.545   4.218   3.172
95144W        W66815  40.020  17.136   2.756
95145W        W66816  12.790   6.762   1.768
95146W        W66817  29.556  13.023   1.940
95147W        W66818   8.694  23.434   4.439
95148W        W66819  28.305  34.853   4.213
95149W        W66820  34.548  29.909  14.493
95150W        W66821   4.073  22.998   3.236
95151W        W66822   9.434  19.667   2.740
95152W        W66823  34.177  41.013  12.540
95153W        W66824  13.364   1.470   4.928
95154W        W66825  44.508   8.632  10.940
95155W        W66826   3.407  27.115  12.830
95156W        W66827  18.554  20.653  13.839
95157W        W66828  26.741  14.306   2.262
95158W        W66829   1.477   1.735  14.947
95159W        W66830  42.238  11.448  13.501
95160W        W66831   5.490  17.847  12.443
95161W        W66832  35.948  15.718   0.801
95162W        W66833  16.377  26.599   2.412
95163W        W66834  12.808  12.182   3.450
95164W        W66835  37.023  43.686  12.349
95165W        W66836   3.500  28.605  12.136
95166W        W66837  30.410  12.668  12.810
95167W        W66838   1.584  31.858   0.894
95168W        W66839  37.804  26.249  14.614
95169W        W66840  27.198  26.429  12.261
95170W        W66841  13.316  19.532  11.363
95171W        W66842  21.179  40.590  12.912
95172W        W66843  22.155   1.754  12.006
95173W        W66844  27.934  30.557  13.731
95174W        W66845  15.578   6.372  14.831
95175W        W66846  23.592  37.749   5.069
95176W        W66847  37.453  33.864  12.441
95177W        W66848   0.510  44.790  11.148
95178W        W66849  10.374  37.960  12.865
95179W        W66850   9.410  37.480   2.243
95180W        W66851   6.188   2.810  13.517
95181W        W66852  38.873  30.528   1.723
95182W        W66853   3.968  24.429  12.369
95183W        W66854  13.553  13.171   3.669
95184W        W66855   2.391  43.115  10.158
95185W        W66856   2.843  11.280   0.232
95186W        W66857  20.475   4.187  14.674
95187W        W66858  24.487   3.688  14.750
95188W        W66859   6.820  32.528  12.999
95189W        W66860   6.365   7.752  12.369
95190W        W66861   8.991   8.154  12.420
95191W        W66862  36.015  35.042  12.911
95192W        W66863  44.218  35.056   3.208
95193W        W66864   5.671  43.978  13.703
95194W        W66865  33.923  43.229  14.455
95195W        W66866  17.005  17.740   4.669
95196W        W66867  19.092  25.267  13.793
95197W        W66868   8.848  36.107   2.197
95198W        W66869  30.857  33.581   1.417
95199W        W66870  11.775   0.823   0.797
95200W        W66871  19.233  20.201  14.427
95201W        W66872   2.441   4.339  13.467
95202W        W66873  22.727  41.036   4.642
95203W        W66874  25.296   1.016   2.725
95204W        W66875  10.116  35.029  11.480
95205W        W66876  15.847  30.092   3.192
95206W        W66877  16.949   4.443   2.141
95207W        W66878  13.194  15.215   1.584
95208W        W66879   9.279  27.386  10.668
95209W        W66880   8.531  36.439   3.086
95210W        W66881  35.495   4.337  11.110
95211W        W66882  28.561   7.287   4.635
95212W        W66883   9.612  12.703   1.517
95213W        W66884  33.921  29.414   1.356
95214W        W66885  33.097   7.711   1.281
95215W        W66886  40.928  35.559  14.939
95216W        W66887  43.032   9.881  14.420
95217W        W66888   4.963  34.538  11.547
95218W        W66889  25.464   2.836  11.522
95219W        W66890  26.511   3.469   0.921
95220W        W66891   1.344  42.077   0.812
95221W        W66892  44.465  30.631   3.716
95222W        W66893  33.233  38.587  12.497
95223W        W66894   4.298   7.452   0.407
95224W        W66895  42.876  38.852   9.681
95225W        W66896  31.011  37.646  10.687
95226W        W66897  42.853  19.686  14.835
95227W        W66898  34.554  22.583   2.047
95228W        W66899  30.013  20.608   2.925
95229W        W66900  42.256  22.213  13.738
95230W        W66901  38.003   4.871  11.779
95231W        W66902  24.611   7.863   0.981
95232W        W66903  26.823  14.094  13.152
95233W        W66904   1.930   8.649  12.010
95234W        W66905  21.585  43.009   1.892
95235W        W66906  42.715   6.788  11.217
95236W        W66907   5.217  41.705  11.265
95237W        W66908  12.643  33.089  11.146
95238W        W66909  16.634  27.314   3.518
95239W        W66910   3.657  40.979  14.277
95240W        W66911  10.737  11.169   2.400
95241W        W66912  26.171  19.379  12.600
95242W        W66913   8.870  29.649  12.881
95243W        W66914  38.366  36.868   3.774
95244W        W66915  24.055   6.675  11.516
95245W        W66916  37.059  24.072  13.903
95246W        W66917   2.291  41.536   1.415
95247W        W66918  27.295  25.015   3.867
95248W        W66919  11.340  34.672   3.385
95249W        W66920  35.181   9.314  12.980
95250W        W66921  30.133   3.993   3.696
95251W        W66922  25.627  38.818   0.027
95252W        W66923  30.710   0.521   4.192
95253W        W66924  13.956  44.831  11.185
95254W        W66925  44.853  27.688   4.395
95255W        W66926  32.573  12.146  12.558
95256W        W66927  23.406  34.394  14.059
95257W        W66928  40.070  24.498   1.877
95258W        W66929  36.946   1.442   2.288
95259W        W66930   7.996  16.529  14.628
95260W        W66931  28.931   9.369   4.164
95261W        W66932  26.177   2.826   0.447
95262W        W66933  29.780  10.786   4.848
95263W        W66934  21.990  22.726   4.691
95264W        W66935  44.881  18.901   1.745
95265W        W66936  31.543  23.494  13.346
95266W        W66937  38.331  34.634  12.857
95267W        W66938  14.728  27.534  13.039
95268W        W66939  19.111  43.591  13.961
95269W        W66940  25.894   4.577  11.872
95270W        W66941  13.343   3.650  11.302
95271W        W66942  12.516   2.384  11.171
95272W        W66943   7.939  21.866   0.440
95273W        W66944   9.408  43.710   4.616
95274W        W66945  40.493  17.365   0.947
95275W        W66946  22.600  10.525  13.995
95276W        W66947  17.714  38.032  14.069
95277W        W66948  15.641  41.305   3.822
95278W        W66949  34.463  44.795  13.171
95279W        W66950  22.492  29.114   3.412
95280W        W66951   7.636  32.620   1.314
95281W        W66952  43.967  31.617   1.915
95282W        W66953  40.297  33.607   1.775
95283W        W66954  22.459  36.062   4.565
95284W        W66955  27.595  41.886  13.818
95285W        W66956  15.307   9.217   2.292
95286W        W66957  39.815   3.399  14.579
95287W        W66958  19.830   3.798   3.584
95288W        W66959  36.588   6.340  11.371
95289W        W66960  27.486   8.298  11.261
95290W        W66961  24.044  35.610   2.142
95291W        W66962   6.253  28.698  14.908
95292W        W66963  38.867  27.510  13.554
95293W        W66964  28.857   3.912   4.037
95294W        W66965  18.430  19.310  13.031
95295W        W66966  26.603  34.102  13.042
95296W        W66967  27.185   5.624  13.556
95297W        W66968  39.978   7.334  10.999
95298W        W66969  18.175  22.690   0.252
95299W        W66970  33.161  28.904   2.382
95300W        W66971  31.801   4.408  13.295
95301W        W66972  42.994  16.517   0.883
95302W        W66973   1.907  29.842   0.444
95303W        W66974  24.736  24.643   3.224
95304W        W66975   5.436  44.841   1.822
95305W        W66976  18.350   4.527   0.895
95306W        W66977   8.180  37.464   4.065
95307W        W66978  34.927  31.470  11.159
95308W        W66979  36.012  11.419  11.508
95309W        W66980  32.232  31.953   1.692
95310W        W66981  17.265   2.196   4.513
95311W        W66982  11.270  38.957   1.334
95312W        W66983  33.992  23.727  13.730
95313W        W66984  28.743  42.917  11.574
95314W        W66985  13.780  16.716   3.350
95315W        W66986  35.955   8.669   2.360
95316W        W66987  12.331  44.531  10.929
95317W        W66988  22.992  10.308  10.659
95318W        W66989  44.460  25.652   4.406
95319W        W66990  22.095  23.913   4.247
95320W        W66991   5.053  28.631  10.208
95321W        W66992  16.188   2.779   3.166
95322W        W66993  36.460   9.650   0.453
95323W        W66994  44.303  30.954  10.541
95324W        W66995  19.832  11.225  11.182
95325W        W66996   0.321  17.627  12.339
95326W        W66997  19.744   0.970   2.422
95327W        W66998  13.776  13.001  11.828
95328W        W66999  24.118  20.111   1.033
95329W        W67000  15.187  35.573   2.212
95330W        W67001  36.178  29.644   5.156
95331W        W67002  20.212  33.595   2.855
95332W        W67003   9.539  11.588  11.574
95333W        W67004  32.580  41.791   3.272
95334W        W67005  13.623  18.460   3.008
95335W        W67006  10.176   3.689   3.642
95336W        W67007   0.402  13.847   3.413
95337W        W67008  12.905  18.020  14.230
95338W        W67009  22.667  28.985  12.872
95339W        W67010  44.922  23.977  14.928
95340W        W67011   4.426  19.314   0.384
95341W        W67012  22.766   5.357   0.827
95342W        W67013  20.100  32.902  13.640
95343W        W67014  21.105  30.947   2.906
95344W        W67015  25.154  31.535   3.911
95345W        W67016  19.493  32.067  14.215
95346W        W67017  11.521  32.068  14.874
95347W        W67018  29.395  14.725   0.004
95348W        W67019  23.449  33.329   2.290
95349W        W67020   5.699  32.116   4.623
95350W        W67021  39.937  15.655   3.752
95351W        W67022  11.364   5.283  10.842
95352W        W67023  38.098  14.280  11.012
95353W        W67024   3.730  21.771   5.591
95354W        W67025  42.246   6.734  14.824
95355W        W67026  36.904   9.788   3.274
95356W        W67027  20.293  40.836   2.682
95357W        W67028  31.647  18.590  12.039
95358W        W67029  32.473   3.016   2.318
95359W        W67030  17.605  14.873  10.580
95360W        W67031   1.331   1.935   3.303
95361W        W67032  24.617  37.544  14.591
95362W        W67033   5.386  42.446  14.546
95363W        W67034   5.082  38.482   1.913
95364W        W67035  10.466  22.295  10.437
95365W        W67036  41.037  26.827   3.170
95366W        W67037  13.646  21.031  12.081
95367W        W67038  27.482  34.463   2.174
95368W        W67039  35.496  41.739  11.917
95369W        W67040  35.940  17.517  13.986
95370W        W67041  30.727  23.993  11.320
95371W        W67042  36.637   3.373  14.413
95372W        W67043  29.144  13.353   1.840
95373W        W67044  13.155  28.925   4.624
95374W        W67045  43.911   8.387  11.840
95375W        W67046  13.758   1.692  12.604
95376W        W67047  44.985   8.661   1.248
95377W        W67048  30.781  15.299   2.722
95378W        W67049  30.616  39.299   2.192
95379W        W67050  25.040  20.033   0.133
95380W        W67051  11.862  18.239  12.289
95381W        W67052  38.360   3.642   2.695
95382W        W67053  30.564  23.490   4.136
95383W        W67054  17.295  20.514  13.653
95384W        W67055  38.540   9.319  13.020
95385W        W67056   5.784  25.743  13.904
95386W        W67057  18.618  22.572   4.041
95387W        W67058  19.754  22.389  14.062
95388W        W67059  19.561  29.633  12.214
95389W        W67060  23.186  37.582  11.518
95390W        W67061  11.574  35.969   0.850
95391W        W67062  16.105  34.442  13.266
95392W        W67063  11.719  13.999   0.281
95393W        W67064  32.452  30.518   5.003
95394W        W67065  37.340   0.319  10.719
95395W        W67066  18.031  37.915   4.348
95396W        W67067  11.432  34.039  12.997
95397W        W67068   7.258  21.760  13.290
95398W        W67069  44.837  24.304  12.905
95399W        W67070  14.431  17.601  13.751
95400W        W67071  11.321   1.588   1.200
95401W        W67072  25.097   5.259   2.910
95402W        W67073  40.544  43.552   3.706
95403W        W67074  42.516  14.316   2.007
95404W        W67075  22.420  15.614   0.344
95405W        W67076  25.083   5.806   1.710
95406W        W67077  43.289  33.929   1.660
95407W        W67078  31.462  23.959  13.121
95408W        W67079  29.333  24.530  14.354
95409W        W67080   7.261  35.523   1.935
95410W        W67081  33.597  32.441   2.352
95411W        W67082  15.814   1.647   1.832
95412W        W67083   1.267  18.554  12.473
95413W        W67084  19.105  34.977  14.802
95414W        W67085  27.981   7.393   0.948
95415W        W67086  31.512  33.560  10.606
95416W        W67087  19.978  30.612  10.626
95417W        W67088  12.088   6.728   0.612
95418W        W67089  20.474   2.312  14.302
95419W        W67090  19.968  19.445  11.133
95420W        W67091  31.452  16.178  12.053
95421W        W67092  30.643  32.442   4.282
95422W        W67093  16.706  13.279   4.248
95423W        W67094   5.190  25.958  10.626
95424W        W67095  18.234  41.478   3.808
95425W        W67096   0.543  31.334   2.023
95426W        W67097  13.108  44.928  13.807
95427W        W67098  12.804   7.376  13.012
95428W        W67099  30.383  28.561  11.532
95429W        W67100  40.071  32.856  13.958
95430W        W67101  21.097  13.442  11.000
95431W        W67102   3.226  12.034  13.150
95432W        W67103   9.115   9.625   3.793
95433W        W67104   2.928  12.678   1.853
95434W        W67105  23.080   1.056  14.072
95435W        W67106   3.918   1.307   4.152
95436W        W67107  20.105  43.315   1.328
95437W        W67108  19.176  31.411   3.073
95438W        W67109  27.118  27.545  13.341
95439W        W67110  29.902  17.542  12.766
95440W        W67111  39.538  15.566   4.595
95441W        W67112  16.868  36.429   1.807
95442W        W67113  39.263  15.107   3.784
95443W        W67114   5.438  28.533  11.677
95444W        W67115  38.328  41.058  13.373
95445W        W67116   5.834   3.926  12.916
95446W        W67117  40.943   5.274  13.750
95447W        W67118  19.080  35.120   0.799
95448W        W67119  18.585   2.009  14.613
95449W        W67120  18.783  25.179  11.047
95450W        W67121   3.843  12.285  11.603
95451W        W67122   5.396  35.442  13.640
95452W        W67123  42.871   0.287   2.205
95453W        W67124  21.996  15.722   1.363
95454W        W67125   4.214  22.805  10.605
95455W        W67126   9.153  21.211   4.302
95456W        W67127  42.791  24.360   2.133
95457W        W67128  14.804  31.216  14.870
95458W        W67129  12.592  32.487   4.509
95459W        W67130  14.796  20.265   3.655
95460W        W67131  44.392  20.871  10.623
95461W        W67132  44.652   2.232   4.588
95462W        W67133  26.610  18.238  13.354
95463W        W67134  24.140  14.616  13.366
95464W        W67135  14.763  10.991  11.703
95465W        W67136  28.575   7.710  12.502
95466W        W67137  22.051  36.518   0.734
95467W        W67138  20.084   1.545  10.711
95468W        W67139  33.391  19.598  13.474
95469W        W67140   1.897  18.483   0.860
95470W        W67141   2.320   4.786   4.628
95471W        W67142   8.437  26.528  14.278
95472W        W67143  20.294   0.240   0.296
95473W        W67144  37.349  35.538  13.733
95474W        W67145   9.391   4.209   2.829
95475W        W67146  30.433  20.330  11.378
95476W        W67147  18.316   8.363   2.352
95477W        W67148  44.586  21.517   1.882
95478W        W67149  32.585   7.463   3.688
95479W        W67150  18.823  37.390  12.481
95480W        W67151  29.238  30.071  12.266
95481W        W67152  28.594   2.305  10.878
95482W        W67153   1.731  38.447   2.253
95483W        W67154   3.282  44.506   3.722
95484W        W67155  42.954  39.889  11.559
95485W        W67156   5.799  35.447  10.515
95486W        W67157  35.338  40.006   5.124
95487W        W67158   4.783   7.579   4.974
95488W        W67159  14.608  19.606  10.692
95489W        W67160  29.380   1.954  12.775
95490W        W67161   4.233   4.231  12.078
95491W        W67162   6.224  37.793   0.817
95492W        W67163  32.565   5.706   4.155
95493W        W67164  13.829  29.293   4.754
95494W        W67165  41.895  23.080  14.037
95495W        W67166  38.166  15.693   0.791
95496W        W67167   9.423   1.624  11.049
95497W        W67168  31.359  41.224   2.032
95498W        W67169  34.910  38.046   9.935
95499W        W67170   2.706  31.396   1.878
95500W        W67171   3.475  43.452  14.029
95501W        W67172   1.757   6.241   2.138
95502W        W67173  30.405   2.003   1.301
95503W        W67174  13.166  18.848   3.739
95504W        W67175  19.438  25.660  13.775
95505W        W67176   3.133   7.428  11.119
95506W        W67177   5.938  19.132  14.429
95507W        W67178  15.702  24.508  10.743
95508W        W67179   3.227  27.559   0.496
95509W        W67180  41.221  20.704   3.391
95510W        W67181  36.798   5.301   1.437
95511W        W67182  31.898  25.272  14.190
95512W        W67183  36.517   9.542  10.833
95513W        W67184  44.634   7.270   1.625
95514W        W67185  24.463  20.797  12.901
95515W        W67186  34.688  23.239  11.197
95516W        W67187  37.370  37.106  12.037
95517W        W67188  43.425  22.184  12.891
95518W        W67189  32.975  39.561  12.050
95519W        W67190   7.960   1.857   1.696
95520W        W67191  32.068   2.345   1.950
95521W        W67192   7.969  37.350   1.360
95522W        W67193  17.527   6.194   4.266
95523W        W67194  38.430  26.622   4.777
95524W        W67195  16.650  25.480  14.413
95525W        W67196  19.253   9.952   1.173
95526W        W67197  43.128  32.626  12.426
95527W        W67198  28.045  23.707  11.996
95528W        W67199   1.769  44.061  13.877
95529W        W67200  14.427  17.153  13.030
95530W        W67201  25.677   3.813   4.537
95531W        W67202  38.327  21.716   4.399
95532W        W67203  20.090  11.729   0.953
95533W        W67204  44.481  31.517  10.057
95534W        W67205   3.997  17.445   9.998
95535W        W67206  18.140   4.844  13.648
95536W        W67207  22.736   9.411   1.743
95537W        W67208   4.879   0.783  10.381
95538W        W67209  14.667  34.675  11.731
95539W        W67210  27.174  16.754   1.380
95540W        W67211  44.053   4.362   3.758
95541W        W67212  25.160  23.938  13.337
95542W        W67213  20.559  36.481   1.862
95543W        W67214  22.628  40.999   0.044
95544W        W67215  39.300  35.416   2.907
95545W        W67216  33.273   5.894   1.894
95546W        W67217   0.465   3.223   0.412
95547W        W67218  41.351  36.187  10.482
95548W        W67219  13.141  30.185  14.013
95549W        W67220  40.317  43.670  13.134
95550W        W67221  20.254  17.717   4.548
95551W        W67222  33.277   2.945  13.902
95552W        W67223  37.313  28.950  11.546
95553W        W67224  34.425  37.328  12.850
95554W        W67225  37.855   7.933   4.663
95555W        W67226   2.310  20.447   0.238
95556W        W67227   2.758   1.443  10.703
95557W        W67228  10.838  13.233   1.699
95558W        W67229  42.703  30.655  11.180
95559W        W67230  30.511  44.367  11.717
95560W        W67231  38.665  44.338  11.174
95561W        W67232  44.993  29.016  13.884
95562W        W67233  30.222  12.750   1.323
95563W        W67234  38.853   7.222  10.629
95564W        W67235  17.301  36.500   4.117
95565W        W67236  38.977  21.706   9.871
95566W        W67237  42.442  16.583   3.124
95567W        W67238  30.735  38.840   2.947
95568W        W67239  25.677  13.292  11.992
95569W        W67240  41.501  20.529  11.592
95570W        W67241  16.704  13.004   0.874
95571W        W67242  15.166  15.250   0.808
95572W        W67243   0.913  30.161   0.820
95573W        W67244   7.796  42.684   1.197
95574W        W67245  44.191  44.548   5.285
95575W        W67246   8.689  32.967   1.660
95576W        W67247  40.063  12.262  14.059
95577W        W67248  28.751  29.935   1.780
95578W        W67249   3.384  34.981   2.072
95579W        W67250  15.713   0.317  12.983
95580W        W67251  40.761  35.616  12.048
95581W        W67252  22.443  31.587  13.435
95582W        W67253   9.922  17.311  13.782
95583W        W67254  30.983  23.547   3.362
95584W        W67255  44.712  29.676   1.722
95585W        W67256  22.453  40.494   1.279
95586W        W67257  10.384  31.787  13.041
95587W        W67258  19.177  18.305  10.655
95588W        W67259  17.351   0.684  10.270
95589W        W67260   3.087   1.787  14.177
95590W        W67261  18.009  22.780   2.782
95591W        W67262  12.337  28.024   0.001
95592W        W67263  17.682  14.988  12.941
95593W        W67264  27.571  22.298   4.016
95594W        W67265  16.496  13.575   1.489
95595W        W67266  28.003  43.451   1.610
95596W        W67267  33.564  22.114   4.947
95597W        W67268  20.284  37.397  12.193
95598W        W67269  22.644  21.328   1.378
95599W        W67270  26.522   4.887  11.354
95600W        W67271   1.330  27.150  13.444
95601W        W67272   3.338   4.544  11.532
95602W        W67273   2.814  44.907  13.819
95603W        W67274   1.457   0.981  10.798
95604W        W67275  20.656   7.872   0.557
95605W        W67276  40.817  19.479  12.462
95606W        W67277  32.150  44.992   0.271
95607W        W67278  29.917   1.830   1.486
95608W        W67279  23.108  32.745  10.921
95609W        W67280   5.796   3.358   2.163
95610W        W67281  13.233   8.661  11.515
95611W        W67282   5.466  30.244   5.090
95612W        W67283  14.706  16.511   0.369
95613W        W67284  43.472  21.278   4.950
95614W        W67285  34.593  14.521  14.137
95615W        W67286  20.129  31.964   1.452
95616W        W67287  40.898  16.952   2.433
95617W        W67288  14.347   3.375   0.066
95618W        W67289  11.725  42.642   0.916
95619W        W67290  27.720  39.308   0.647
95620W        W67291  38.328  32.063   4.139
95621W        W67292  35.378  36.060   0.513
95622W        W67293  21.128  37.043  11.415
95623W        W67294  18.257  19.907  11.480
95624W        W67295  25.069  13.783  13.083
95625W        W67296  28.931   7.279   2.891
95626W        W67297   7.820  14.267   4.331
95627W        W67298  13.905  12.076   4.962
95628W        W67299   3.812   7.978  10.699
95629W        W67300  19.119  34.327   4.804
95630W        W67301  21.675  24.126  13.403
95631W        W67302  23.088   4.521   0.341
95632W        W67303   7.282  18.191  10.803
95633W        W67304  19.233  21.008  14.185
95634W        W67305   1.280  11.358  11.473
95635W        W67306   6.805  29.857  13.938
95636W        W67307  22.488  33.891   0.835
95637W        W67308  13.141  35.506  14.419
95638W        W67309   7.841  25.761   2.868
95639W        W67310  40.102  14.347   1.230
95640W        W67311  27.202  14.865   2.555
95641W        W67312  37.950  20.790  14.910
95642W        W67313   7.580   1.927  13.917
95643W        W67314  44.806  41.258  13.216
95644W        W67315  31.854  44.326  13.865
95645W        W67316  32.851  12.244   1.243
95646W        W67317  10.851  25.949   0.186
95647W        W67318  36.893  12.977  11.223
95648W        W67319  39.022  15.983  13.551
95649W        W67320  18.295  22.406   3.115
95650W        W67321  26.531  43.849   0.093
95651W        W67322  11.345  13.799  11.947
95652W        W67323  34.126   8.791  11.627
95653W        W67324  21.092  13.179  13.275
95654W        W67325  34.671   9.675  10.572
95655W        W67326  25.568  34.508   3.678
95656W        W67327   1.721  36.305  11.490
95657W        W67328  35.694  14.148  12.708
95658W        W67329   7.408  44.816  14.435
95659W        W67330  33.923   2.437   0.113
95660W        W67331  25.213  39.900   2.044
95661W        W67332  33.615  28.114   0.302
95662W        W67333  24.397   2.560   2.883
95663W        W67334   2.959   3.987   3.083
95664W        W67335  31.644  10.875   1.090
95665W        W67336   8.376  42.140   4.508
95666W        W67337  39.470  31.096  11.057
95667W        W67338  33.960  13.900   1.374
95668W        W67339  13.036   2.433  14.452
95669W        W67340  34.080  17.715  13.836
95670W        W67341  16.302   1.232   3.576
95671W        W67342  19.040  21.762  13.562
95672W        W67343  13.516  28.143  11.585
95673W        W67344  26.968  40.480  11.909
95674W        W67345   2.957  25.636  10.707
95675W        W67346  22.718  43.283   0.368
95676W        W67347  16.258   1.019   2.331
95677W        W67348  35.365  19.669   4.450
95678W        W67349  40.347   8.304  14.058
95679W        W67350  27.608   8.842  12.878
95680W        W67351   5.705  13.317  13.070
95681W        W67352  33.931  29.910   3.932
95682W        W67353  21.598  40.764  10.689
95683W        W67354  21.540   9.646   2.101
95684W        W67355  35.625  35.294   2.796
95685W        W67356  40.312  41.799  11.218
95686W        W67357  16.833  15.683  14.355
95687W        W67358  43.385   9.085  12.368
95688W        W67359  33.083  25.947   0.355
95689W        W67360   1.291  19.708   3.684
95690W        W67361  11.632  36.939   0.866
95691W        W67362  44.923  13.518   5.743
95692W        W67363  29.390  27.350   0.380
95693W        W67364  18.948  31.322  14.534
95694W        W67365  43.938  42.338  11.808
95695W        W67366  11.566  36.456  13.998
95696W        W67367  25.893  40.298   5.089
95697W        W67368  30.755   3.244   3.318
95698W        W67369  23.096  34.144   2.275
95699W        W67370  11.779  42.472   2.246
95700W        W67371  15.128  42.956  12.979
95701W        W67372   7.858  38.916  10.855
95702W        W67373  11.246   8.475   0.659
95703W        W67374  40.008  15.560  13.207
95704W        W67375  32.598  36.168  13.313
95705W        W67376  37.045   4.324  14.438
95706W        W67377  31.930  16.382  12.054
95707W        W67378  14.284  29.707   3.442
95708W        W67379   8.696  41.545  11.238
95709W        W67380   2.191  19.586   1.260
95710W        W67381  31.021  33.393   0.428
95711W        W67382  10.399  14.263  11.578
95712W        W67383  44.588  27.715  14.953
95713W        W67384   1.207   7.392  14.470
95714W        W67385  18.710  35.591   1.921
95715W        W67386  14.794  13.336   3.180
95716W        W67387  31.478  15.883  14.813
95717W        W67388   9.439  21.482  10.953
95718W        W67389  26.205   8.288   4.756
95719W        W67390  33.409  38.559  13.055
95720W        W67391  26.677  29.510   4.001
95721W        W67392  25.052   4.328  11.139
95722W        W67393   1.535  10.691  11.487
95723W        W67394  34.916  11.984   1.286
95724W        W67395  33.822  37.585  13.502
95725W        W67396  18.601  38.360  10.687
95726W        W67397  33.994   0.201  13.917
95727W        W67398  20.096  10.607  13.500
95728W        W67399  22.145  13.347   0.469
95729W        W67400  11.801  42.259   1.310
95730W        W67401  29.349   7.790   0.830
95731W        W67402  27.084  28.170   2.922
95732W        W67403  30.412  33.542  13.269
95733W        W67404  19.347  37.869  14.946
95734W        W67405   4.613  21.316   3.176
95735W        W67406  44.723  36.982  11.036
95736W        W67407  20.693  38.277   4.494
95737W        W67408  31.375  11.625   4.742
95738W        W67409  29.008  38.677  10.342
95739W        W67410  19.481  13.997  12.336
95740W        W67411  40.770  17.602   1.792
95741W        W67412   0.357  13.086  11.215
95742W        W67413  41.440  14.052   4.078
95743W        W67414  23.984  34.139  13.251
95744W        W67415  19.053  17.973  13.068
95745W        W67416  42.388  27.995  14.892
95746W        W67417  10.711  32.096   0.485
95747W        W67418  27.892  33.181  14.426
95748W        W67419  11.197  34.448   0.418
95749W        W67420   0.359  37.995   3.725
95750W        W67421   4.818  21.197  14.838
95751W        W67422  38.543  18.050  12.819
95752W        W67423  10.469  28.925   1.036
95753W        W67424  37.108  34.566  13.570
95754W        W67425  23.918   0.116   3.645
95755W        W67426  43.977  14.280  10.985
95756W        W67427  41.570  22.956  13.391
95757W        W67428  36.633   4.719   1.726
95758W        W67429  28.100   1.260  10.295
95759W        W67430  10.392   0.979   0.417
95760W        W67431  19.011  39.780   0.727
95761W        W67432  26.655  12.704  13.731
95762W        W67433  30.684   0.007   2.373
95763W        W67434  44.926   5.912   2.368
95764W        W67435  10.699  42.723  14.243
95765W        W67436  43.780  23.145  10.707
95766W        W67437   9.951  38.464  12.803
95767W        W67438  24.145  26.810  14.800
95768W        W67439   4.439  23.088   2.892
95769W        W67440  28.670  17.642  13.089
95770W        W67441  19.850  36.043  11.170
95771W        W67442  24.479  18.672   2.926
95772W        W67443  14.605  10.818   2.400
95773W        W67444   6.775  32.978   3.038
95774W        W67445   8.665  35.424  12.591
95775W        W67446  41.734  38.898  12.978
95776W        W67447  14.295  27.473   4.158
95777W        W67448  36.553  35.839  12.508
95778W        W67449   0.876  39.818   2.710
95779W        W67450  42.215  43.520   1.595
95780W        W67451  42.990  44.008   4.585
95781W        W67452   3.915  29.548  14.033
95782W        W67453  20.766  27.293   1.831
95783W        W67454  26.996  17.998  12.898
95784W        W67455  16.168  25.433   0.282
95785W        W67456  26.234  31.967   3.368
95786W        W67457  43.275  31.181   3.256
95787W        W67458  32.222  15.676  11.765
95788W        W67459  32.423  11.807   2.800
95789W        W67460  20.554  35.852  13.026
95790W        W67461  34.482  38.571   3.757
95791W        W67462  16.567  10.403  13.012
95792W        W67463  21.788   9.691  11.091
95793W        W67464  40.402  35.551  14.755
95794W        W67465  39.770   0.473  10.891
95795W        W67466  26.546  11.829  11.885
95796W        W67467  17.035  37.516   2.194
95797W        W67468  20.442  33.935   3.683
95798W        W67469   7.815  13.315   0.420
95799W        W67470  43.127   0.758   3.843
95800W        W67471  22.538  26.019  14.748
95801W        W67472  23.962  37.345   1.725
95802W        W67473  40.968   9.328   0.488
95803W        W67474  30.642  33.004  11.970
95804W        W67475  19.693  15.782   3.358
95805W        W67476  27.786   3.910   1.827
95806W        W67477  14.805   4.711  12.060
95807W        W67478   2.780   5.953  12.456
95808W        W67479   2.966   0.382  10.850
95809W        W67480   8.175  17.607   2.494
95810W        W67481  37.930   0.358  11.529
95811W        W67482  12.094  16.921  14.494
95812W        W67483  39.560  31.607  13.925
95813W        W67484  25.290   8.285   1.741
95814W        W67485  14.373  43.731   3.267
95815W        W67486  15.552  22.863   5.054
95816W        W67487  30.931  21.494  12.443
95817W        W67488  34.196  40.361   0.262
95818W        W67489  34.386   8.691  14.861
95819W        W67490   2.422  37.204   9.633
95820W        W67491  21.676  25.649   3.157
95821W        W67492   1.717  38.518  13.920
95822W        W67493  11.852  38.631  11.492
95823W        W67494  41.248  13.870   4.521
95824W        W67495  19.826   0.567  14.251
95825W        W67496  11.009  38.219   2.314
95826W        W67497   9.385  12.932   2.897
95827W        W67498  29.455  20.622  14.779
95828W        W67499  22.244   0.208   0.415
95829W        W67500  34.169   6.891   0.738
95830W        W67501  33.791  40.916   0.837
95831W        W67502  35.388  30.552   0.479
95832W        W67503  39.124   4.462   4.581
95833W        W67504   4.417  21.335  11.664
95834W        W67505  43.080   1.692  10.060
95835W        W67506  38.531  10.097  14.042
95836W        W67507  18.121  27.482  14.363
95837W        W67508  11.623  20.818  11.596
95838W        W67509  17.683  37.001  13.847
95839W        W67510  37.410  20.211  10.675
95840W        W67511  35.509  28.191   1.337
95841W        W67512  41.587  25.486  13.280
95842W        W67513  40.962  36.017  12.733
95843W        W67514  18.076  18.719  14.732
95844W        W67515  18.506   9.793   2.882
95845W        W67516  33.607   4.373  13.537
95846W        W67517  15.723  19.544   3.152
95847W        W67518  30.567  26.257  11.982
95848W        W67519   6.755  39.497  11.088
95849W        W67520   5.034   5.145   1.324
95850W        W67521   4.387  31.635   4.022
95851W        W67522  23.448  19.569   1.344
95852W        W67523  30.622  26.622   0.981
95853W        W67524  38.538  21.610  13.705
95854W        W67525   3.427  24.478   1.247
95855W        W67526  33.613  33.376   3.642
95856W        W67527  26.663   0.669   5.152
95857W        W67528   7.016   1.150   0.747
95858W        W67529  24.682  22.735  12.581
95859W        W67530  12.739  36.996   1.251
95860W        W67531  39.838   5.262  14.886
95861W        W67532  23.045  32.007   3.616
95862W        W67533  26.243  40.951   4.006
95863W        W67534   2.838  17.283   4.318
95864W        W67535  37.991  41.264   0.024
95865W        W67536  20.121  41.111  10.783
95866W        W67537  26.681   4.947   0.257
95867W        W67538  40.480  43.750   2.181
95868W        W67539  12.893  38.049   0.287
95869W        W67540  29.147  41.392   2.149
95870W        W67541  14.574   8.479  14.597
95871W        W67542  43.438  15.661  13.009
95872W        W67543  28.963  28.465  14.903
95873W        W67544  26.708   5.825  13.975
95874W        W67545  14.409  31.107   3.249
95875W        W67546  25.773  34.671   4.127
95876W        W67547  43.443  27.454  14.383
95877W        W67548  26.845  14.753  14.101
95878W        W67549  34.905  16.292  11.574
95879W        W67550   8.840  20.729   0.272
95880W        W67551  34.297   5.126  12.089
95881W        W67552  34.867  12.374   2.727
95882W        W67553   3.155  26.017  11.020
95883W        W67554  16.075  19.739   0.241
95884W        W67555  26.120  39.868   1.381
95885W        W67556   9.299   9.829   3.350
95886W        W67557  43.400  43.011   3.674
95887W        W67558  21.237  29.175   2.858
95888W        W67559  35.047   6.756  11.611
95889W        W67560  21.637   3.461  10.740
95890W        W67561  37.118  39.941   3.218
95891W        W67562  35.606   0.234  14.441
95892W        W67563   4.796  13.430  13.978
95893W        W67564  42.953  40.434  13.905
95894W        W67565   4.328   5.896   1.317
95895W        W67566  17.599  22.941  11.121
95896W        W67567   1.245  19.848  13.958
95897W        W67568   9.252   1.251  12.677
95898W        W67569  37.110  24.538  12.092
95899W        W67570   3.988  11.171   1.167
95900W        W67571  14.161  29.324  13.436
95901W        W67572   3.805  27.105   3.240
95902W        W67573   9.239  27.179   4.058
95903W        W67574  12.288  15.520   0.862
95904W        W67575  12.267  20.414   0.276
95905W        W67576  26.673  39.270  13.054
95906W        W67577  37.321  32.838   1.932
95907W        W67578  37.520  24.630   3.923
95908W        W67579  33.696  35.001   0.395
95909W        W67580   0.502   0.804  12.862
95910W        W67581  32.656   0.693  14.329
95911W        W67582   4.760  33.942   4.165
95912W        W67583  18.169   2.621   2.323
95913W        W67584  31.484  21.699  11.302
95914W        W67585   6.982  29.449   4.619
95915W        W67586   3.171   0.507   3.455
95916W        W67587  31.031  44.736   3.113
95917W        W67588  13.178  10.140  11.608
95918W        W67589  35.909  37.947  14.267
95919W        W67590  40.000  27.060   2.514
95920W        W67591  22.617  24.016  11.491
95921W        W67592  34.472  22.264  14.289
95922W        W67593  29.560  12.235   0.159
95923W        W67594  32.360  42.348   2.350
95924W        W67595   5.874  22.441  12.413
95925W        W67596  33.622   3.072   0.707
95926W        W67597  41.721  43.997   0.811
95927W        W67598  28.112  36.825   1.891
95928W        W67599  21.726   4.269  14.976
95929W        W67600  38.926  19.900  14.501
95930W        W67601  23.159  17.005  10.360
95931W        W67602  17.214  23.305  10.377
95932W        W67603  36.926  36.906   9.638
95933W        W67604  27.412  11.338   3.250
95934W        W67605  14.842  10.191   3.885
95935W        W67606   7.759   2.517  12.983
95936W        W67607  22.446  27.407  11.644
95937W        W67608  13.101  28.496  13.358
95938W        W67609  42.446  23.976  12.870
95939W        W67610   8.229  35.744  13.575
95940W        W67611  15.662  25.161  11.466
95941W        W67612  12.958   3.375   9.930
95942W        W67613  15.239  39.034   0.870
95943W        W67614  20.378  42.508   4.413
95944W        W67615  38.991  18.615   0.548
95945W        W67616  18.722  43.094   1.873
95946W        W67617   6.901  25.963   2.167
95947W        W67618  39.446  29.519  13.596
95948W        W67619  33.895  40.956  14.080
95949W        W67620  27.689   5.917   4.520
95950W        W67621  13.911  44.912   3.922
95951W        W67622  21.276  33.397   1.888
95952W        W67623  31.582  24.321   2.363
95953W        W67624   0.895  16.471   0.328
95954W        W67625   2.905  42.469  12.486
95955W        W67626  11.814  25.107  14.499
95956W        W67627  31.570   6.776  12.956
95957W        W67628  26.491   4.662   4.988
95958W        W67629  10.557  29.317  13.366
95959W        W67630  26.124   8.210  13.556
95960W        W67631  44.443  42.435   3.854
95961W        W67632  13.073   8.721  14.445
95962W        W67633   7.984  11.311   2.350
95963W        W67634  31.127  26.008  11.060
95964W        W67635  10.582  37.609   1.726
95965W        W67636  36.036   1.424  14.426
95966W        W67637  21.743  12.706   4.638
95967W        W67638  12.111   7.883   0.429
95968W        W67639  14.837  23.710   0.455
95969W        W67640  34.197   2.755   2.788
95970W        W67641  41.966  37.763   4.169
95971W        W67642  29.302  12.795  10.511
95972W        W67643  36.269  13.609  11.485
95973W        W67644  25.129  34.331   3.893
95974W        W67645  38.046  21.484   1.293
95975W        W67646  40.970  24.527   3.661
95976W        W67647  31.176  40.110  10.802
95977W        W67648  10.076  41.422  12.801
95978W        W67649  17.665   4.159  11.079
95979W        W67650  33.751   3.976   1.254
95980W        W67651  13.029  17.321  13.726
95981W        W67652  32.047  28.681   3.339
95982W        W67653   3.373  19.272  11.848
95983W        W67654  24.607  44.578  12.532
95984W        W67655   7.196  15.396   4.593
95985W        W67656  11.093  10.766  11.526
95986W        W67657  26.286   7.750  11.054
95987W        W67658   2.787  37.478  12.512
95988W        W67659  16.794   5.524   1.746
95989W        W67660  41.550   5.853   2.147
95990W        W67661  22.511  42.340   0.699
95991W        W67662   7.416  43.425   4.256
95992W        W67663  44.269  41.532   0.878
95993W        W67664  41.834  13.060   0.815
95994W        W67665  44.569  27.834   0.910
95995W        W67666   7.182  42.039  12.492
95996W        W67667  35.495   1.928   2.580
95997W        W67668  20.281  11.217   9.763
95998W        W67669   8.298   0.992  12.551
95999W        W67670  36.612  18.255   1.443
96000W        W67671   3.989  23.537   3.726
96001W        W67672  37.908  35.214  14.407
96002W        W67673  36.808  35.436  13.533
96003W        W67674  40.656  44.676  11.786
96004W        W67675  16.680  41.414   1.360
96005W        W67676   8.892  11.770  12.837
96006W        W67677   0.799  23.731  14.430
96007W        W67678   3.842  38.823   4.339
96008W        W67679  35.000  23.190   1.422
96009W        W67680  35.992  37.343  12.833
96010W        W67681   2.890  29.575  11.683
96011W        W67682  10.843  27.618   3.188
96012W        W67683  42.966   7.871  11.030
96013W        W67684   7.908  12.244   4.493
96014W        W67685   6.337  28.553  13.048
96015W        W67686  44.780   9.136  11.029
96016W        W67687  36.098  10.250  12.837
96017W        W67688  13.113  25.578  12.633
96018W        W67689  21.456  26.639  12.511
96019W        W67690   3.317  11.271  11.164
96020W        W67691  21.740  37.329   3.188
96021W        W67692  31.710   3.060   1.838
96022W        W67693  21.958  15.393   0.974
96023W        W67694  15.375  37.884  14.236
96024W        W67695  32.883  25.987   1.855
96025W        W67696  14.918  31.700  14.841
96026W        W67697   7.907  27.585   1.814
96027W        W67698   1.510  16.176   2.769
96028W        W67699  26.789   5.350  13.780
96029W        W67700  40.749  12.902  10.100
96030W        W67701  35.253  42.766   3.766
96031W        W67702  21.924   4.772   4.439
96032W        W67703  36.418  33.712  12.734
96033W        W67704   8.101  19.169  11.573
96034W        W67705  33.679  33.970   0.461
96035W        W67706  17.516  11.844  11.574
96036W        W67707  33.561  26.065   2.615
96037W        W67708  12.679  30.082   1.702
96038W        W67709  15.993  17.751   4.599
96039W        W67710  40.609  40.281   3.291
96040W        W67711  37.537  32.912  11.189
96041W        W67712  36.866  12.110  10.675
96042W        W67713  44.853  19.021  10.702
96043W        W67714  15.837  13.110  14.401
96044W        W67715  43.689  25.775   2.910
96045W        W67716   5.426  14.618   3.464
96046W        W67717  24.101  32.427  10.542
96047W        W67718   0.461  31.327  13.391
96048W        W67719  19.202  43.546   3.954
96049W        W67720   2.665  17.973   1.726
96050W        W67721  33.909  10.948   1.830
96051W        W67722  11.923   8.663   3.240
96052W        W67723  24.523   3.896   0.228
96053W        W67724  44.675  31.527  11.897
96054W        W67725  40.915  38.871  12.137
96055W        W67726  39.496  23.053   2.793
96056W        W67727   4.712   8.472  13.524
96057W        W67728  33.053  13.246   2.153
96058W        W67729  33.420  33.891  14.901
96059W        W67730  16.135  16.050  10.202
96060W        W67731  26.471  26.577  14.711
96061W        W67732  35.851  12.771  14.338
96062W        W67733  42.587   9.533  12.442
96063W        W67734   4.694  24.454   2.373
96064W        W67735   4.301  12.069  14.855
96065W        W67736   5.276  14.217  12.052
96066W        W67737  28.466  41.875  13.902
96067W        W67738  26.928  18.341   1.942
96068W        W67739   4.372   0.786   1.928
96069W        W67740  18.778  10.371   0.304
96070W        W67741  10.506  27.057  13.816
96071W        W67742   8.642  23.463   3.303
96072W        W67743  38.460   6.873  10.683
96073W        W67744   9.814   2.083   0.363
96074W        W67745   5.352  21.281  14.920
96075W        W67746  10.867   8.251  14.874
96076W        W67747  33.511  21.128   2.842
96077W        W67748  19.759   3.062   4.576
96078W        W67749  32.381  38.659  14.734
96079W        W67750   4.007   8.743  14.849
96080W        W67751  15.722  27.767  10.915
96081W        W67752  38.962   5.200  10.506
96082W        W67753  37.021  21.974  14.696
96083W        W67754  37.105  14.254   1.743
96084W        W67755  17.905  38.274   4.703
96085W        W67756  13.175  17.540   4.154
96086W        W67757  20.098  20.527   2.108
96087W        W67758   5.478  25.269  13.921
96088W        W67759  21.481  41.473  14.084
96089W        W67760  16.337  42.438   3.712
96090W        W67761   1.467  31.001  12.044
96091W        W67762  16.842  42.355  14.814
96092W        W67763   1.484  43.838  14.731
96093W        W67764  24.516  20.914   1.781
96094W        W67765  23.954   7.826   2.174
96095W        W67766  28.404   6.659  12.453
96096W        W67767  33.009   3.265  12.029
96097W        W67768   1.045  40.379  11.993
96098W        W67769   2.300  36.937  14.081
96099W        W67770   6.795  12.550   0.822
96100W        W67771  38.588  40.991   1.823
96101W        W67772   4.675   0.681  12.433
96102W        W67773  34.365  28.431  14.962
96103W        W67774  33.031  28.026  11.681
96104W        W67775   3.211   2.485  10.755
96105W        W67776  27.664  13.278  14.863
96106W        W67777   5.449  19.851  13.466
96107W        W67778  35.675   5.801  13.898
96108W        W67779   2.694  14.780  14.326
96109W        W67780  28.427  31.066  12.917
96110W        W67781  18.707   2.549   0.433
96111W        W67782  33.999  24.461  12.528
96112W        W67783   0.801  10.967  11.156
96113W        W67784  24.455  23.173  14.822
96114W        W67785  20.017  25.667  11.541
96115W        W67786  27.413  39.776  13.040
96116W        W67787  34.546  37.338   0.476
96117W        W67788  20.701  12.304   0.534
96118W        W67789   7.925   6.322   3.145
96119W        W67790  23.640  14.305  14.879
96120W        W67791  23.706   4.291   0.717
96121W        W67792  27.442  11.729  10.870
96122W        W67793   2.409  20.634  11.761
96123W        W67794  12.161  39.153  10.797
96124W        W67795   7.222  43.036   2.648
96125W        W67796  42.376  16.049  11.639
96126W        W67797  44.720   9.778   2.883
96127W        W67798   0.946  31.921  13.700
96128W        W67799  11.655  26.188  11.998
96129W        W67800   0.057  15.331  11.030
96130W        W67801  14.346  42.888  13.930
96131W        W67802   6.494   9.772   4.312
96132W        W67803  44.304   4.692   2.460
96133W        W67804  26.503   0.226  11.180
96134W        W67805  15.189   7.943   4.507
96135W        W67806  10.964  21.198   4.488
96136W        W67807  30.693  21.497   2.169
96137W        W67808   6.435  19.581   4.692
96138W        W67809  23.197   1.399  13.270
96139W        W67810  36.526  20.289   2.847
96140W        W67811   5.363  11.457  11.928
96141W        W67812  25.522  35.975  12.833
96142W        W67813  33.989  24.389   4.534
96143W        W67814   0.906  27.704   4.306
96144W        W67815  38.268   7.123   4.584
96145W        W67816  44.936  32.969  13.466
96146W        W67817  11.831  18.129  13.308
96147W        W67818  11.611  17.462   1.535
96148W        W67819  31.411   6.177   3.087
96149W        W67820  15.870   7.714   0.280
96150W        W67821   4.818  33.671  11.469
96151W        W67822  13.045   7.153  12.595
96152W        W67823  35.486  17.086   2.041
96153W        W67824  41.855  19.783   5.111
96154W        W67825  23.140   5.424  12.378
96155W        W67826  36.092  15.158   4.682
96156W        W67827   4.324  27.785   3.404
96157W        W67828   5.471  17.021   1.864
96158W        W67829  26.914  24.573   0.039
96159W        W67830  15.163  41.021   3.718
96160W        W67831  43.878  32.436   2.280
96161W        W67832   2.013   1.882   4.184
96162W        W67833  11.172  31.031   2.536
96163W        W67834   7.248   1.472   3.262
96164W        W67835  22.185   1.905  11.126
96165W        W67836  20.173  23.218  11.802
96166W        W67837  28.734  34.166   3.865
96167W        W67838  18.822  31.629  13.538
96168W        W67839  27.272  29.513  12.400
96169W        W67840  41.077   9.899   1.538
96170W        W67841  21.354  30.019  13.319
96171W        W67842  44.243  36.820   1.030
96172W        W67843  32.096  30.115   4.707
96173W        W67844  28.566   5.727  10.801
96174W        W67845   9.934  36.953  12.129
96175W        W67846  23.596   5.404  11.559
96176W        W67847  35.031  44.509   1.486
96177W        W67848  17.289  15.125   1.892
96178W        W67849   1.432   9.978  12.624
96179W        W67850   3.018  25.984   3.374
96180W        W67851  32.399  13.705  12.604
96181W        W67852   2.500  44.024  14.814
96182W        W67853  16.153  44.699  11.969
96183W        W67854  24.767  40.981  10.691
96184W        W67855   0.314  13.485   9.735
96185W        W67856  13.627  32.711   1.497
96186W        W67857  34.165  15.153  13.322
96187W        W67858   4.199  16.355   0.181
96188W        W67859  38.098   0.199   4.254
96189W        W67860   5.963  33.186  12.625
96190W        W67861   6.768  17.110   3.865
96191W        W67862   6.866  30.506  12.615
96192W        W67863  27.671   9.407   1.663
96193W        W67864  16.374   7.488   1.387
96194W        W67865  19.740   3.326  10.745
96195W        W67866  36.950  30.914  14.896
96196W        W67867  37.621  43.465   4.562
96197W        W67868  15.381  31.035   0.534
96198W        W67869  27.268  32.516  11.162
96199W        W67870  28.126   0.712   3.872
96200W        W67871  24.585  31.651  12.522
96201W        W67872   7.413   0.318  13.533
96202W        W67873  40.080  15.148   2.176
96203W        W67874  23.369  44.199   1.917
96204W        W67875   7.982   8.212   1.930
96205W        W67876  12.312   3.719   3.673
96206W        W67877  16.594  23.021  13.009
96207W        W67878  26.016  42.464   0.967
96208W        W67879  30.111   8.918   0.949
96209W        W67880  39.865  10.246  12.119
96210W        W67881  12.722  23.673   3.076
96211W        W67882   9.719  22.465   1.841
96212W        W67883  42.249  35.645  11.955
96213W        W67884  20.073  17.803  10.621
96214W        W67885  37.598  12.521   4.545
96215W        W67886  37.808  22.702   4.100
96216W        W67887  23.061  44.610   0.690
96217W        W67888  34.506  30.428  11.693
96218W        W67889  18.124  13.520   1.834
96219W        W67890  12.583   1.828   0.053
96220W        W67891   0.032  38.784  10.600
96221W        W67892  15.680  21.710   2.792
96222W        W67893  10.593  38.324   0.416
96223W        W67894  18.336  37.840  12.000
96224W        W67895   6.609  37.142   2.157
96225W        W67896  21.473  29.930  12.824
96226W        W67897  35.079  18.893  13.003
96227W        W67898   1.053  30.645   2.304
96228W        W67899  38.125   6.591   0.842
96229W        W67900  23.192  17.506  14.570
96230W        W67901  14.747  17.160  10.732
96231W        W67902   4.756   4.283  12.174
96232W        W67903  14.404  15.887  13.535
96233W        W67904  36.971  17.962  13.829
96234W        W67905   5.692  39.862   2.174
96235W        W67906  16.241  15.536   4.169
96236W        W67907   8.805  30.651   4.089
96237W        W67908  24.784  12.940  12.442
96238W        W67909  27.860  30.442   3.145
96239W        W67910  29.647  15.590   9.898
96240W        W67911  24.689  30.198  13.033
96241W        W67912  34.931  10.189   1.830
96242W        W67913   7.843  27.723  10.777
96243W        W67914  22.628  38.616   4.675
96244W        W67915  30.675   2.321  11.195
96245W        W67916  39.369   1.260   0.315
96246W        W67917  18.561  31.574  12.489
96247W        W67918  14.856  40.466  12.430
96248W        W67919  43.788  18.726   1.355
96249W        W67920   4.327  18.360  12.936
96250W        W67921  10.017  28.987   9.890
96251W        W67922   8.171  20.719   2.264
96252W        W67923  41.008   1.244   1.342
96253W        W67924  31.389  29.572   3.754
96254W        W67925   0.780   7.919   2.360
96255W        W67926  37.741  44.898  14.854
96256W        W67927   3.747  10.545   4.517
96257W        W67928   8.683  33.981   1.866
96258W        W67929  41.909  26.318   1.413
96259W        W67930  34.866  13.900  10.554
96260W        W67931  12.847  15.661  10.124
96261W        W67932  18.595  18.321   3.636
96262W        W67933  19.542  25.315   4.256
96263W        W67934  19.728   2.272  12.069
96264W        W67935  34.515  22.729   1.553
96265W        W67936  20.021   9.086   0.359
96266W        W67937  36.895   9.922   0.384
96267W        W67938  20.528  10.144  14.915
96268W        W67939  31.122  27.756   3.364
96269W        W67940  19.609  11.512   3.814
96270W        W67941  10.696  35.839  12.416
96271W        W67942  25.237  32.516   2.683
96272W        W67943  28.257  34.478   9.925
96273W        W67944  34.725   6.837  14.836
96274W        W67945   4.356  39.568  13.483
96275W        W67946  23.509  23.536  14.947
96276W        W67947  28.450  13.113  10.465
96277W        W67948  44.372  23.722   0.296
96278W        W67949  32.563   4.152   4.336
96279W        W67950  13.283  42.428   2.017
96280W        W67951  12.731  27.342   4.636
96281W        W67952   6.363  29.039  10.474
96282W        W67953  44.331  33.015  14.859
96283W        W67954  34.126  29.410   0.885
96284W        W67955  37.088  25.225  12.514
96285W        W67956  16.733   5.837  11.580
96286W        W67957  41.233   6.599  11.086
96287W        W67958  31.047   3.478   2.917
96288W        W67959  29.602  38.915  10.617
96289W        W67960  24.516  24.103  10.369
96290W        W67961  24.660  42.897  12.483
96291W        W67962  23.542  28.878  12.540
96292W        W67963  35.177  24.715  13.850
96293W        W67964  41.380  16.510  14.373
96294W        W67965  31.639  29.412  11.544
96295W        W67966   2.733  27.947   2.827
96296W        W67967   8.628  14.828  14.894
96297W        W67968  22.756  20.552  14.871
96298W        W67969  14.872   5.238  12.623
96299W        W67970  15.130   7.095   2.387
96300W        W67971  16.965  10.057  10.088
96301W        W67972  43.403  36.894  14.833
96302W        W67973   8.111  43.484   1.261
96303W        W67974  32.638   8.224   1.270
96304W        W67975  32.486  23.555   4.522
96305W        W67976  32.894  15.229   0.200
96306W        W67977  35.429  36.784   9.973
96307W        W67978   8.765  13.684  14.452
96308W        W67979  17.670  17.219   3.201
96309W        W67980  15.181  14.631  14.985
96310W        W67981  23.273  24.055   4.340
96311W        W67982  36.637  43.728   0.046
96312W        W67983  17.098   8.366   0.090
96313W        W67984  25.618  17.246  13.382
96314W        W67985  14.335   8.735   0.010
96315W        W67986   6.978  31.494  10.708
96316W        W67987  32.426  28.683  12.927
96317W        W67988   4.872  35.347   4.211
96318W        W67989  40.224  10.367   2.768
96319W        W67990  19.606  30.440  11.224
96320W        W67991  21.088   4.826   0.256
96321W        W67992   4.461  21.118   2.164
96322W        W67993  12.291  37.329  14.712
96323W        W67994  23.953  33.882   3.598
96324W        W67995  43.480   3.017  11.436
96325W        W67996  31.007  13.650   3.151
96326W        W67997  34.005   0.542  10.677
96327W        W67998   8.530  24.397   3.163
96328W        W67999  29.910  34.411   3.667
96329W        W68000  27.413   3.707   3.294
96330W        W68001  19.882  18.168  14.945
96331W        W68002  15.149  23.526   2.513
96332W        W68003  36.446  38.275  13.109
96333W        W68004  43.440  43.622   1.363
96334W        W68005  34.899  17.592  11.215
96335W        W68006  29.436  35.596  14.370
96336W        W68007  13.696   8.791   0.333
96337W        W68008  18.417  24.973   4.866
96338W        W68009  20.385  42.037   3.657
96339W        W68010   5.455  19.204  14.268
96340W        W68011  12.806  12.255  14.061
96341W        W68012  16.335  36.341   0.350
96342W        W68013  44.488  23.101   1.122
96343W        W68014  25.693  22.654  12.553
96344W        W68015  31.266   1.172   4.069
96345W        W68016  42.595  41.371  13.810
96346W        W68017  22.207  43.418   4.487
96347W        W68018  18.941  16.020  13.663
96348W        W68019  25.212  37.453   4.159
96349W        W68020  11.873  43.952  10.559
96350W        W68021  14.262  29.092  14.364
96351W        W68022   0.081  21.210  14.849
96352W        W68023  39.030  21.861   4.095
96353W        W68024  14.593  43.868   1.865
96354W        W68025  21.013  38.522   0.290
96355W        W68026   8.770  21.854   0.811
96356W        W68027  44.935  33.616   1.853
96357W        W68028  11.083  32.543  14.781
96358W        W68029  31.428  34.332  13.448
96359W        W68030  23.651  41.517   1.426
96360W        W68031   2.525  43.170   3.169
96361W        W68032  34.194  31.894   4.130
96362W        W68033  36.866  44.195   1.425
96363W        W68034  33.431  25.623  14.384
96364W        W68035  19.362   9.747  11.097
96365W        W68036  30.742  24.611   0.244
96366W        W68037  23.570  33.987   1.694
96367W        W68038  20.995   5.638   3.571
96368W        W68039  16.144  20.149   1.891
96369W        W68040   7.135  44.081  11.624
96370W        W68041  29.922  28.090   2.798
96371W        W68042   8.868  11.247  13.474
96372W        W68043  41.361  26.595  14.406
96373W        W68044   7.809  11.585  12.804
96374W        W68045  10.606  19.191  11.257
96375W        W68046  36.923  27.973  13.890
96376W        W68047   2.210  38.535   2.408
96377W        W68048  24.082   3.975   2.854
96378W        W68049  34.030  39.443   0.018
96379W        W68050  32.640  18.703  12.022
96380W        W68051  11.555  10.839  12.069
96381W        W68052  24.998  23.568  12.015
96382W        W68053  29.091  10.744  11.517
96383W        W68054  17.874  30.357  13.009
96384W        W68055  31.307  20.004  12.400
96385W        W68056  19.909   3.886   4.950
96386W        W68057   9.451  13.754   3.178
96387W        W68058  41.041  38.705   0.872
96388W        W68059  15.140  16.650  13.855
96389W        W68060  11.457  11.962   3.760
96390W        W68061  41.329  14.651   1.311
96391W        W68062  29.807  38.610   2.861
96392W        W68063  24.724  13.544   2.976
96393W        W68064  21.963   5.623   0.843
96394W        W68065   2.924   4.171   4.826
96395W        W68066  31.855  11.278  10.687
96396W        W68067  22.254  27.999   4.141
96397W        W68068   0.897   7.204   1.274
96398W        W68069  37.579  17.133  13.974
96399W        W68070   5.182  42.570  13.657
96400W        W68071  15.791  25.146   0.451
96401W        W68072  23.736  23.149   4.270
96402W        W68073   6.706   7.331   0.340
96403W        W68074  28.958  40.091  14.825
96404W        W68075  35.169  14.083   0.351
96405W        W68076  23.499  11.010  11.955
96406W        W68077  14.756   5.224   3.199
96407W        W68078  24.173  40.766   3.650
96408W        W68079   1.554   7.620   0.841
96409W        W68080   3.721  34.865  13.452
96410W        W68081  26.445  19.125  12.016
96411W        W68082  22.515  40.923   2.019
96412W        W68083  40.389  31.077  10.691
96413W        W68084  12.883  35.558   0.080
96414W        W68085  23.769  37.942   3.794
96415W        W68086  14.856  14.815   3.137
96416W        W68087   8.792  16.451  11.144
96417W        W68088  23.957  33.961  11.976
96418W        W68089  17.570   7.253  12.311
96419W        W68090   8.619  31.569  14.095
96420W        W68091  14.085  41.881  13.066
96421W        W68092   1.532   0.921   3.247
96422W        W68093  21.293  24.203   5.078
96423W        W68094   0.214  16.697   4.608
96424W        W68095  41.692  18.310   2.738
96425W        W68096  21.184  14.150   0.654
96426W        W68097  26.064  23.757   0.817
96427W        W68098  13.770   1.553   3.083
96428W        W68099  15.384  16.522   4.069
96429W        W68100   8.800  12.360   2.952
96430W        W68101  10.948  25.154   4.952
96431W        W68102  29.470  44.389   4.097
96432W        W68103   2.473   0.667  11.657
96433W        W68104  33.016  42.794  14.999
96434W        W68105  35.814   0.232  10.756
96435W        W68106  19.003  34.625  11.621
96436W        W68107  25.531  36.906   0.791
96437W        W68108  44.888  27.241   4.672
96438W        W68109  12.079  43.652  14.249
96439W        W68110  43.942  22.684   2.619
96440W        W68111   6.317  41.490   4.574
96441W        W68112  38.338   4.187  11.377
96442W        W68113   1.413  17.739   2.847
96443W        W68114  38.094  29.489   0.515
96444W        W68115  22.094  12.795  12.084
96445W        W68116  28.402  41.000  11.677
96446W        W68117  34.169  27.857   1.306
96447W        W68118  40.326  22.575  13.950
96448W        W68119  40.320  38.362  11.581
96449W        W68120  42.519  39.433  12.049
96450W        W68121  28.206   8.007   4.038
96451W        W68122  41.001   1.128   0.502
96452W        W68123  27.947  29.115   2.434
96453W        W68124  25.041  44.958  10.700
96454W        W68125  31.975  34.120   2.949
96455W        W68126  20.235  41.369   1.933
96456W        W68127  22.941   7.441   3.791
96457W        W68128   3.429  26.648  13.067
96458W        W68129  36.045  38.463  14.258
96459W        W68130  34.927  38.545  13.497
96460W        W68131  41.496  35.322  14.123
96461W        W68132  13.739  18.208  12.506
96462W        W68133  15.042  15.090  10.524
96463W        W68134  15.139   4.887   4.703
96464W        W68135  38.763  17.700  14.221
96465W        W68136  12.643  15.367  12.277
96466W        W68137   9.822  24.209  11.084
96467W        W68138  21.300  34.773  12.078
96468W        W68139  44.641  39.785  12.124
96469W        W68140  35.060  44.997  11.005
96470W        W68141  21.280  18.924   1.333
96471W        W68142   4.024  15.137   0.763
96472W        W68143  44.242   1.474   1.755
96473W        W68144   7.102  18.737   2.543
96474W        W68145  19.492  27.029  13.455
96475W        W68146  27.954   6.346   0.804
96476W        W68147  15.614   0.761   1.482
96477W        W68148   6.458  19.428   3.696
96478W        W68149   3.140  16.296   3.238
96479W        W68150  23.602  38.494  12.933
96480W        W68151  21.147  22.760   2.267
96481W        W68152   1.408   6.905  12.102
96482W        W68153   5.140   2.730  11.530
96483W        W68154  28.625  27.570   3.709
96484W        W68155  33.899  27.634   0.458
96485W        W68156  42.683  19.061   3.597
96486W        W68157   3.970   0.298   4.096
96487W        W68158  22.403   2.435  11.595
96488W        W68159  21.322  23.399   5.493
96489W        W68160  25.572  35.967   0.265
96490W        W68161  19.190  41.580   3.144
96491W        W68162  41.487  21.972  14.434
96492W        W68163  27.950   9.712   1.982
96493W        W68164   7.215  34.839  12.536
96494W        W68165   4.988  38.518   0.878
96495W        W68166   1.690  14.627   1.795
96496W        W68167  37.402  40.228  13.021
96497W        W68168  31.021  31.686  12.657
96498W        W68169  27.397  26.980   1.845
96499W        W68170   3.620  42.872  11.995
96500W        W68171   0.826  43.392  12.703
96501W        W68172  43.542   3.806   3.808
96502W        W68173  17.380  15.655   1.956
96503W        W68174  15.013  36.465   2.294
96504W        W68175  36.431  38.364  12.592
96505W        W68176  42.077  32.437   2.638
96506W        W68177   8.765  36.177  14.258
96507W        W68178  31.919   7.101   3.268
96508W        W68179  41.429  19.012  13.991
96509W        W68180  35.113  31.422   2.625
96510W        W68181   2.022  11.269  11.669
96511W        W68182  12.851  24.187   1.642
96512W        W68183  29.462   7.608   5.015
96513W        W68184  22.975  43.144  11.844
96514W        W68185  34.695  31.781   4.229
96515W        W68186  11.866   0.811  14.390
96516W        W68187  26.594   9.820   3.239
96517W        W68188  36.336  28.245  10.272
96518W        W68189  12.734  20.161   3.109
96519W        W68190  25.121  13.752  11.561
96520W        W68191  16.160   1.520  13.468
96521W        W68192   8.823  10.674   3.177
96522W        W68193   6.131  37.894  14.855
96523W        W68194  33.540  29.403  14.016
96524W        W68195  13.620  30.587   0.300
96525W        W68196  14.711   8.448  14.097
96526W        W68197  35.975  42.522   3.615
96527W        W68198   3.364  32.899   4.625
96528W        W68199   4.483   2.521   1.268
96529W        W68200  34.911   1.798  11.730
96530W        W68201  38.751   1.009  11.652
96531W        W68202  36.940   6.715  14.366
96532W        W68203  18.774   2.729  12.948
96533W        W68204  14.194  30.887   1.412
96534W        W68205  15.620  23.801  14.496
96535W        W68206  12.796  20.835  12.283
96536W        W68207  39.057   6.192   4.173
96537W        W68208  39.934  27.037   1.995
96538W        W68209  32.469  10.558   2.146
96539W        W68210  16.196  38.001  12.280
96540W        W68211   6.779  28.630  13.290
96541W        W68212   5.324  33.828   0.927
96542W        W68213  36.077   5.589  12.067
96543W        W68214  43.236  26.342   0.445
96544W        W68215  25.519  18.608  12.883
96545W        W68216  18.733  13.396   3.306
96546W        W68217  10.897   6.888  14.877
96547W        W68218  21.549   0.398  12.922
96548W        W68219  16.799  10.609   4.184
96549W        W68220  25.133   4.626  10.738
96550W        W68221  22.578  33.044   1.325
96551W        W68222  22.947  19.624   0.325
96552W        W68223  32.747  12.316  13.735
96553W        W68224  31.986  38.906   2.470
96554W        W68225  35.488  34.558  11.414
96555W        W68226  25.515  44.055  12.570
96556W        W68227  33.130  15.878  13.829
96557W        W68228  16.689  36.799  14.465
96558W        W68229  14.618  40.416   0.893
96559W        W68230  31.912  25.003   0.038
96560W        W68231  36.050   4.951   4.563
96561W        W68232   6.792  35.913   4.860
96562W        W68233  43.342   9.838   0.443
96563W        W68234  25.542   6.714   4.311
96564W        W68235  10.696  20.716   2.324
96565W        W68236  14.075   3.003   3.157
96566W        W68237  13.443  25.623  14.720
96567W        W68238   9.833  38.303  14.976
96568W        W68239  14.926  32.864   1.913
96569W        W68240  21.114  28.326  11.914
96570W        W68241  34.943  23.726   4.348
96571W        W68242  24.541  33.475  13.127
96572W        W68243  30.739  39.529  13.109
96573W        W68244   2.032   5.214   2.219
96574W        W68245  19.919  24.031  10.130
96575W        W68246   6.391  24.740  13.425
96576W        W68247  17.312   2.830  14.295
96577W        W68248  40.021   2.566   0.440
96578W        W68249  36.506  37.620  14.561
96579W        W68250   5.467   9.896   2.443
96580W        W68251  12.330  16.103  11.917
96581W        W68252  34.052  42.039  14.888
96582W        W68253  25.945  28.195  14.525
96583W        W68254  18.816  23.042  12.809
96584W        W68255  32.392  36.915  10.641
96585W        W68256  38.774  10.672   2.744
96586W        W68257  39.374  22.713   0.755
96587W        W68258  23.977  14.568   4.389
96588W        W68259  16.769   1.861  11.927
96589W        W68260   4.344  11.128   3.264
96590W        W68261  33.600  33.985   1.430
96591W        W68262  23.671  16.310   1.268
96592W        W68263  30.582  35.249   0.186
96593W        W68264  29.394   5.476   2.692
96594W        W68265   6.687   8.898   0.977
96595W        W68266   0.963  38.685   4.924
96596W        W68267  14.809  15.619   4.140
96597W        W68268  30.460  25.734   1.048
96598W        W68269  34.336  33.650  14.929
96599W        W68270   3.401  26.101   3.033
96600W        W68271  36.438  16.615  10.526
96601W        W68272  23.028  33.121  12.926
96602W        W68273  34.642  31.305   0.771
96603W        W68274  14.250  27.657  11.464
96604W        W68275  30.993  10.586  11.911
96605W        W68276  40.134  25.017  10.678
96606W        W68277  38.603  39.337   1.223
96607W        W68278  36.069  44.395   4.004
96608W        W68279  38.501  38.038  13.059
96609W        W68280  34.494  38.058   3.634
96610W        W68281  34.071  12.265  14.943
96611W        W68282  10.829  33.840   3.781
96612W        W68283  44.245  36.966  13.807
96613W        W68284   1.120  38.505  14.015
96614W        W68285  27.025  11.844  10.579
96615W        W68286  16.878  40.528  10.870
96616W        W68287  27.613  10.899   4.444
96617W        W68288  42.425   2.715  14.865
96618W        W68289  33.115  42.689   2.523
96619W        W68290  44.023  44.529  13.864
96620W        W68291  17.223  34.340   2.701
96621W        W68292   7.694  42.730   2.597
96622W        W68293  42.792  31.642  11.223
96623W        W68294   3.077  31.959   5.083
96624W        W68295  15.547  30.268  12.839
96625W        W68296  11.689  23.704  10.663
96626W        W68297  25.928   7.538  12.934
96627W        W68298  35.561  14.684   1.145
96628W        W68299   2.020  27.707  10.374
96629W        W68300  25.189   7.523  14.376
96630W        W68301  35.999  37.050  14.013
96631W        W68302  24.125  14.581  14.764
96632W        W68303   9.842  14.549   2.659
96633W        W68304   4.367  28.619   0.331
96634W        W68305  43.073  11.850  10.628
96635W        W68306   8.152  41.376  11.745
96636W        W68307  18.888  15.066  10.274
96637W        W68308  40.305  16.836  14.323
96638W        W68309  22.532  20.353   3.287
96639W        W68310  14.260   7.684  11.664
96640W        W68311   3.798  15.626   3.392
96641W        W68312  40.343   4.075  11.488
96642W        W68313  16.164   3.132   2.768
96643W        W68314  21.723  29.180   2.690
96644W        W68315  42.965  31.116   3.845
96645W        W68316  25.661   6.973   2.852
96646W        W68317  22.462  19.663   3.357
96647W        W68318  25.698  17.058   4.599
96648W        W68319  11.459  29.469   4.226
96649W        W68320   2.836  24.241   2.709
96650W        W68321  41.330   7.140   4.512
96651W        W68322  40.418  22.304   3.347
96652W        W68323  24.445  12.505   2.272
96653W        W68324  31.590  17.126  12.015
96654W        W68325  40.504   9.723  12.383
96655W        W68326  32.492  44.887   1.400
96656W        W68327  27.975  41.304  14.297
96657W        W68328  28.299  32.551  10.712
96658W        W68329  18.222  32.622   0.810
96659W        W68330  37.039  39.163   2.574
96660W        W68331  11.635  25.922   4.589
96661W        W68332  16.060  12.345   2.208
96662W        W68333  10.721  34.333   0.259
96663W        W68334  11.067  19.916   3.224
96664W        W68335  32.333  28.509   3.787
96665W        W68336   6.977   4.105  11.140
96666W        W68337  40.238  31.767   4.167
96667W        W68338  14.097  42.529  14.549
96668W        W68339   1.717   9.536   4.724
96669W        W68340  20.919  24.127  12.336
96670W        W68341  15.245  25.720   4.838
96671W        W68342  38.028  39.267   2.690
96672W        W68343  41.510   7.382  10.682
96673W        W68344  36.485  18.163  12.034
96674W        W68345  38.762   2.653   0.759
96675W        W68346   8.736  23.571  11.099
96676W        W68347  32.187  16.599  14.456
96677W        W68348  17.691  26.429  11.493
96678W        W68349   9.658   7.342   3.704
96679W        W68350  24.602  32.028   2.788
96680W        W68351   8.936   6.634   3.887
96681W        W68352  36.694   8.580   3.685
96682W        W68353   2.462  20.817  14.351
96683W        W68354  23.972  11.886   4.537
96684W        W68355  40.346   0.972  14.183
96685W        W68356  43.381  42.378   1.700
96686W        W68357  11.803  17.414  11.787
96687W        W68358  14.698  20.196  11.374
96688W        W68359  23.151  11.556   3.601
96689W        W68360   5.811  21.583  13.909
96690W        W68361  33.104  36.901  13.533
96691W        W68362  32.605  29.496  13.963
96692W        W68363  30.515   1.220   1.926
96693W        W68364  14.263  29.714  11.487
96694W        W68365  25.099  42.468   4.460
96695W        W68366  23.949  39.752  11.011
96696W        W68367  10.426  11.387   0.503
96697W        W68368  43.393  37.511  14.535
96698W        W68369   7.267  14.330  13.028
96699W        W68370  34.698  10.975  14.387
96700W        W68371  10.255  20.190   4.532
96701W        W68372  29.427  38.889   3.101
96702W        W68373  17.362  34.818  13.569
96703W        W68374  20.687  12.345   1.483
96704W        W68375   1.906   8.006   3.203
96705W        W68376  38.525  16.886   1.791
96706W        W68377  23.560  21.800   1.237
96707W        W68378   8.047  37.374   4.764
96708W        W68379  35.464  14.575   3.263
96709W        W68380   0.415  16.844  13.049
96710W        W68381  39.929  16.503  13.634
96711W        W68382  11.866  12.778  11.181
96712W        W68383  37.303   2.512  14.659
96713W        W68384   3.850  24.945  14.265
96714W        W68385  15.719  21.270  14.820
96715W        W68386  43.291  35.845  13.441
96716W        W68387   7.728  14.764   3.034
96717W        W68388  12.287  22.747  14.871
96718W        W68389  15.112   7.744  14.709
96719W        W68390  17.194  18.173   2.198
96720W        W68391  17.569  42.412   1.179
96721W        W68392  14.792  21.538  10.816
96722W        W68393  25.363  40.037  11.119
96723W        W68394  30.929  43.379  12.675
96724W        W68395   6.728   7.597   2.305
96725W        W68396  25.537  13.525   5.328
96726W        W68397  32.373   7.389  11.514
96727W        W68398   1.633   7.392  12.215
96728W        W68399  40.196  17.070   3.673
96729W        W68400  10.790   3.494   1.377
96730W        W68401  28.032  26.807   3.532
96731W        W68402  13.163  28.225   0.367
96732W        W68403  13.232  10.094  14.489
96733W        W68404  24.953   8.269   1.341
96734W        W68405  27.128  27.246  11.036
96735W        W68406   8.607  27.113   1.663
96736W        W68407  25.049  21.151  10.242
96737W        W68408  42.956  14.199  12.610
96738W        W68409  11.278  22.166  14.882
96739W        W68410  33.312  37.779   3.377
96740W        W68411  27.954  18.617  13.814
96741W        W68412  16.604  44.932   3.050
96742W        W68413  39.383  28.945  12.270
96743W        W68414  44.780  18.840   1.188
96744W        W68415  41.097  24.163  11.163
96745W        W68416  12.320  19.520  12.555
96746W        W68417  37.025  37.517   2.352
96747W        W68418  36.286   4.833  13.149
96748W        W68419   8.462  39.937  13.109
96749W        W68420  28.783   3.874  12.410
96750W        W68421  41.858   5.814   4.056
96751W        W68422  11.505  15.992  11.482
96752W        W68423   3.713   9.158  12.179
96753W        W68424  37.598  40.827   0.785
96754W        W68425  15.892  10.397   4.554
96755W        W68426  23.078  14.362   4.896
96756W        W68427   8.352   3.837   3.896
96757W        W68428  13.099  33.012   0.763
96758W        W68429  23.169  11.219  14.230
96759W        W68430  36.002  17.465  12.131
96760W        W68431  39.516  23.251  14.767
96761W        W68432  14.784  21.608   2.801
96762W        W68433  15.923  12.490   3.236
96763W        W68434   3.724  17.493   1.798
96764W        W68435  29.274  29.498  11.458
96765W        W68436  11.119   9.774   3.943
96766W        W68437  21.066   3.899   1.464
96767W        W68438  29.121  16.065   2.170
96768W        W68439  28.589  28.732  10.740
96769W        W68440  30.705  37.112  11.128
96770W        W68441  35.866  21.494  13.743
96771W        W68442   2.779   5.629  12.038
96772W        W68443   6.118   9.850   2.297
96773W        W68444  14.282  35.021   3.166
96774W        W68445  27.243   5.010  12.971
96775W        W68446  12.168   4.199   3.162
96776W        W68447  36.935  38.111  10.589
96777W        W68448   9.895  16.570   1.665
96778W        W68449  10.727   2.738   0.488
96779W        W68450  25.339   7.380   2.806
96780W        W68451  10.839  14.612  14.733
96781W        W68452  14.064   5.731   4.007
96782W        W68453   4.263   7.228   2.870
96783W        W68454   5.022  34.794  13.781
96784W        W68455  41.257  31.820   4.188
96785W        W68456   3.538  30.994   4.806
96786W        W68457  17.966  17.017  12.469
96787W        W68458  17.444  16.723  12.112
96788W        W68459   6.178  27.268   2.262
96789W        W68460   4.653  19.653   4.510
96790W        W68461  15.665  30.960  14.742
96791W        W68462   2.424  36.670  10.818
96792W        W68463  34.569  13.798   2.580
96793W        W68464  36.601  13.599   4.164
96794W        W68465  34.548  37.977  13.866
96795W        W68466  34.098  27.231   2.268
96796W        W68467  16.627  39.045   4.553
96797W        W68468  10.222  33.786  14.871
96798W        W68469  33.695  39.010  12.948
96799W        W68470  15.699  31.169   0.952
96800W        W68471  18.509  11.397   3.326
96801W        W68472  11.813  35.469  14.063
96802W        W68473  39.973  23.568   3.436
96803W        W68474  31.113  37.230  14.256
96804W        W68475  28.947  33.091   4.387
96805W        W68476  25.425  41.869   3.098
96806W        W68477  30.769  21.054  14.064
96807W        W68478  11.839   1.523   1.127
96808W        W68479  43.041  17.074   0.129
96809W        W68480  37.838  18.702   5.029
96810W        W68481  35.815   5.427   3.632
96811W        W68482  43.825  40.362  13.555
96812W        W68483   3.218  42.595  10.770
96813W        W68484  31.001  21.062   0.494
96814W        W68485   9.586  16.905  13.081
96815W        W68486  43.035   7.825   1.483
96816W        W68487   1.402  21.252   4.468
96817W        W68488  18.827  10.448   0.826
96818W        W68489  42.530  28.910   4.177
96819W        W68490  11.237  41.212  10.793
96820W        W68491  19.589  26.224   0.979
96821W        W68492  30.404  40.353   2.387
96822W        W68493  37.810   1.985   3.239
96823W        W68494  31.924  20.151   4.440
96824W        W68495  20.209  32.997  10.473
96825W        W68496  40.342  36.473  14.930
96826W        W68497  44.376  35.922   0.004
96827W        W68498  24.264  41.869  14.777
96828W        W68499   7.647  16.694   4.047
96829W        W68500   3.204   1.362  12.487
96830W        W68501  42.286  42.261   0.304
96831W        W68502  28.919   2.315   3.281
96832W        W68503  20.019   1.002  11.421
96833W        W68504  21.904   3.604  14.451
96834W        W68505  40.267  40.498  14.950
96835W        W68506  20.013  15.913   5.017
96836W        W68507  42.812  14.586   9.983
96837W        W68508  16.785  41.425   3.778
96838W        W68509  25.667  40.927   2.662
96839W        W68510  28.152   9.431  10.128
96840W        W68511  25.947  11.276  14.130
96841W        W68512   7.289  24.189  12.530
96842W        W68513  14.040   4.212   3.594
96843W        W68514   2.706   0.947  13.753
96844W        W68515  25.124  16.344  12.036
96845W        W68516  30.687   3.409  11.590
96846W        W68517   5.831  37.576   0.216
96847W        W68518  14.975  34.981  13.738
96848W        W68519  22.503  11.879   1.908
96849W        W68520  36.876  13.326  12.838
96850W        W68521  17.252  12.345   3.689
96851W        W68522  43.831  14.868   3.433
96852W        W68523  17.035  43.309  13.771
96853W        W68524  27.613  33.780  12.583
96854W        W68525  34.082  42.440   1.652
96855W        W68526  29.404   2.840  11.074
96856W        W68527  35.135  31.628  13.466
96857W        W68528  14.498   1.612   1.173
96858W        W68529   0.308  22.652  11.014
96859W        W68530  26.652  43.397  12.943
96860W        W68531   1.359  19.286  14.925
96861W        W68532  14.895   2.070  10.515
96862W        W68533  37.055  19.173   4.623
96863W        W68534  42.504  37.185  11.536
96864W        W68535  22.875  26.424  14.720
96865W        W68536  44.588  32.195   0.052
96866W        W68537   9.185   7.567   1.446
96867W        W68538  26.770   1.216   3.613
96868W        W68539  16.980  22.518   2.733
96869W        W68540  13.752  41.064  11.260
96870W        W68541   9.167   1.334   2.407
96871W        W68542  15.692  23.770  11.648
96872W        W68543  24.048  18.276  14.997
96873W        W68544  35.849   5.653   2.006
96874W        W68545   0.096  25.537   0.239
96875W        W68546  43.184  43.930   9.976
96876W        W68547   8.445  40.869  13.872
96877W        W68548  37.670   9.029  11.907
96878W        W68549   1.224  38.102  12.142
96879W        W68550  41.204  38.955   1.317
96880W        W68551  44.285  27.982  12.483
96881W        W68552   0.223  34.962   1.450
96882W        W68553  44.996  40.520   3.757
96883W        W68554   7.306   0.332   2.906
96884W        W68555  43.292  28.467   3.188
96885W        W68556  29.293  29.001   4.188
96886W        W68557   7.406   5.206   1.490
96887W        W68558  41.936  27.107  14.091
96888W        W68559  38.458  30.462   4.751
96889W        W68560  39.278   8.393   1.251
96890W        W68561  31.666  40.409   3.822
96891W        W68562  15.642  40.341   0.780
96892W        W68563  35.747  23.228   3.217
96893W        W68564  19.562  16.704   4.823
96894W        W68565  36.321  30.191   1.389
96895W        W68566   1.247   7.427   4.723
96896W        W68567   7.020   6.741  11.570
96897W        W68568  19.001  14.216  13.601
96898W        W68569  25.763  25.850  11.498
96899W        W68570  20.076  18.934   3.078
96900W        W68571   6.111  10.338  12.059
96901W        W68572   9.442  26.160   2.636
96902W        W68573  15.572  38.804  12.466
96903W        W68574   3.047  34.584   1.703
96904W        W68575  28.559  17.320  14.648
96905W        W68576  26.916  40.210   4.245
96906W        W68577  26.994  13.002   1.295
96907W        W68578  40.203  16.130   1.237
96908W        W68579  18.068  36.900   2.746
96909W        W68580  11.787   1.416  12.966
96910W        W68581  32.921  41.034   3.234
96911W        W68582  44.441  21.221   1.249
96912W        W68583   3.684   5.742   1.928
96913W        W68584  43.842  22.201   0.290
96914W        W68585  43.585   2.062  14.338
96915W        W68586  22.680  14.690  12.538
96916W        W68587  36.023  36.767   5.438
96917W        W68588  26.924  42.152   1.753
96918W        W68589   9.311  44.989   0.294
96919W        W68590  23.271  44.807  11.152
96920W        W68591  13.055  33.984  10.712
96921W        W68592  14.405   8.639   2.248
96922W        W68593  12.362   0.939  14.562
96923W        W68594  30.078   3.570  13.422
96924W        W68595  13.758  21.944  11.184
96925W        W68596  24.001  27.187   2.798
96926W        W68597   0.826  30.627  13.324
96927W        W68598  11.785  38.188  13.353
96928W        W68599   4.481  44.913  11.600
96929W        W68600  14.215  15.790   2.336
96930W        W68601  30.485  19.318  13.140
96931W        W68602  17.340  12.739  12.489
96932W        W68603   0.032  20.669   3.679
96933W        W68604  20.197   9.337   3.912
96934W        W68605   5.111  17.707   4.092
96935W        W68606   4.867  41.384  11.876
96936W        W68607  39.041  15.434   4.844
96937W        W68608  10.949  17.673   0.274
96938W        W68609   0.483  41.749  13.442
96939W        W68610  31.786   3.397   3.258
96940W        W68611  40.568  21.131  13.110
96941W        W68612  35.914  13.219   4.685
96942W        W68613  18.648  20.788  14.318
96943W        W68614  19.551   3.935   4.001
96944W        W68615   1.852  10.877   4.260
96945W        W68616   6.504  19.178   2.754
96946W        W68617   2.890  40.567   0.343
96947W        W68618  27.010  27.436  12.455
96948W        W68619  20.235  36.875   4.663
96949W        W68620   4.551  37.500  12.690
96950W        W68621  28.730   9.853   1.370
96951W        W68622  40.768  35.546  11.252
96952W        W68623  21.109  31.388  13.511
96953W        W68624  15.839   4.117  10.474
96954W        W68625  36.026  31.270  10.425
96955W        W68626  43.595  12.633  14.492
96956W        W68627  10.234  25.177   3.215
96957W        W68628  42.864  39.441  13.414
96958W        W68629  31.894  15.537  13.103
96959W        W68630  27.948  41.871   2.026
96960W        W68631  39.764  10.420   4.667
96961W        W68632  21.563  17.716  11.089
96962W        W68633   6.157   7.404  10.720
96963W        W68634  15.835  13.430   4.229
96964W        W68635  37.317  28.066   0.594
96965W        W68636  12.947  13.510   2.524
96966W        W68637  29.014  18.527  12.382
96967W        W68638  42.415  19.727   1.356
96968W        W68639  22.737   5.405   4.293
96969W        W68640  25.695  36.615   3.406
96970W        W68641  28.239  20.249   1.340
96971W        W68642   1.881  20.072  10.238
96972W        W68643  26.978  28.604   3.170
96973W        W68644  32.139  29.358  11.367
96974W        W68645   2.276  12.262   0.863
96975W        W68646  20.244   5.462   1.398
96976W        W68647  44.839  37.065  11.523
96977W        W68648  35.968   9.973  11.570
96978W        W68649  10.641  30.117  11.596
96979W        W68650  37.330   9.629  13.061
96980W        W68651  43.937  16.227   4.769
96981W        W68652  11.893  14.829   2.923
96982W        W68653  22.562  27.911   1.850
96983W        W68654  44.799  16.525   4.856
96984W        W68655  39.458   0.482   0.964
96985W        W68656  44.546  12.130  10.789
96986W        W68657  31.858  28.443   5.044
96987W        W68658  36.970  22.920   4.964
96988W        W68659  29.190  40.525   4.665
96989W        W68660  42.358  22.508  14.747
96990W        W68661  43.369   7.106   0.243
96991W        W68662  35.893  39.625  14.822
96992W        W68663   3.369  11.411   1.214
96993W        W68664  20.585  39.770   3.724
96994W        W68665   6.182   7.665   3.396
96995W        W68666  22.139   3.977  12.793
96996W        W68667  35.087   9.882  11.331
96997W        W68668  23.261  36.106  13.346
96998W        W68669   8.705  11.171  11.994
96999W        W68670  27.052  37.798   1.374
97000W        W68671   6.168  26.585   3.649
97001W        W68672  16.110  21.084  11.223
97002W        W68673  21.745  40.099  11.465
97003W        W68674  23.533  15.088  11.613
97004W        W68675  43.521  33.263  12.176
97005W        W68676  17.120  32.097  13.926
97006W        W68677  37.843  24.202   1.733
97007W        W68678  33.988  19.678  12.080
97008W        W68679  31.654  38.609  14.419
97009W        W68680  41.724  34.971   1.322
97010W        W68681  37.986  37.905   0.366
97011W        W68682  17.893  40.427  10.965
97012W        W68683  31.547   3.701   2.669
97013W        W68684  16.110  10.229   1.874
97014W        W68685  16.593  43.572   3.199
97015W        W68686  37.646  29.220  13.985
97016W        W68687  33.753  29.740   4.853
97017W        W68688  44.391  44.408   0.690
97018W        W68689   0.427  18.639   4.634
97019W        W68690   1.765  21.771   5.106
97020W        W68691  33.081  42.807   3.643
97021W        W68692  36.351  10.637  13.074
97022W        W68693  32.477  43.034   1.355
97023W        W68694  35.131   1.446   4.107
97024W        W68695   6.930  14.887   1.315
97025W        W68696  31.504  18.619  14.334
97026W        W68697  37.467  17.335   0.256
97027W        W68698  39.960   8.822  14.557
97028W        W68699   9.498   7.278  14.728
97029W        W68700  42.038  17.453  12.349
97030W        W68701  38.905  28.925   2.949
97031W        W68702  21.656  25.427  13.019
97032W        W68703  28.193  20.816   3.235
97033W        W68704  29.984  25.651   3.302
97034W        W68705   6.411  23.527   1.383
97035W        W68706   0.301  43.687  14.125
97036W        W68707   1.715  35.625   1.159
97037W        W68708  21.713   6.867  11.392
97038W        W68709   9.018  19.725  13.544
97039W        W68710  36.973  38.855   4.084
97040W        W68711   6.853  33.355   3.416
97041W        W68712  25.932   0.679  14.042
97042W        W68713  13.051  27.650  12.086
97043W        W68714  31.236  22.556   1.185
97044W        W68715  41.065  25.647  12.044
97045W        W68716   8.515   9.271   3.319
97046W        W68717  14.160  10.903   3.067
97047W        W68718   0.312  16.849   1.912
97048W        W68719  36.873  27.880  14.754
97049W        W68720  25.153  13.283  11.368
97050W        W68721   9.360  19.178   1.801
97051W        W68722  36.872  34.869   3.287
97052W        W68723  32.891  24.505   3.633
97053W        W68724  27.618   9.220   2.662
97054W        W68725   9.421   7.299   3.247
97055W        W68726  27.931   1.743   0.258
97056W        W68727  20.759   9.371   2.729
97057W        W68728  37.345   8.773   4.673
97058W        W68729   8.195  33.818  12.127
97059W        W68730  21.541  12.088   2.316
97060W        W68731  37.831  28.199  14.787
97061W        W68732  41.850   8.749   1.949
97062W        W68733   5.517  18.443   3.797
97063W        W68734  34.791  18.233   1.009
97064W        W68735  24.792  44.776  11.130
97065W        W68736  15.347  24.430   0.354
97066W        W68737  22.104  23.878  13.247
97067W        W68738  43.802  22.000  14.794
97068W        W68739  43.077  12.263   4.709
97069W        W68740   1.343  41.430  13.851
97070W        W68741  28.943  30.848   1.492
97071W        W68742  10.934  30.369  12.904
97072W        W68743   0.047  11.524   4.101
97073W        W68744   2.231   9.083   3.730
97074W        W68745   2.669   0.262   0.394
97075W        W68746  21.424  33.874  13.909
97076W        W68747  26.073  13.898   2.712
97077W        W68748  21.871   0.930   3.192
97078W        W68749   9.272  34.750  11.098
97079W        W68750  37.123  21.009   4.701
97080W        W68751   2.922   2.690   1.772
97081W        W68752  16.902   4.343   4.182
97082W        W68753   0.524  24.100  13.063
97083W        W68754  12.160  13.092  11.935
97084W        W68755  40.940  25.802   3.189
97085W        W68756  38.815  14.418   4.019
97086W        W68757  31.889  20.096  14.817
97087W        W68758  26.225  16.274   4.542
97088W        W68759  27.610  14.214   4.964
97089W        W68760  37.069  37.854  10.164
97090W        W68761  17.346  15.762  14.891
97091W        W68762  15.846  38.575   4.366
97092W        W68763  11.269   0.811  12.499
97093W        W68764  14.215   2.749   0.385
97094W        W68765   4.244  35.404   2.010
97095W        W68766  17.137  27.698   2.656
97096W        W68767  32.500  22.154  14.599
97097W        W68768  15.038  22.728  12.539
97098W        W68769  20.974  10.285   2.476
97099W        W68770   1.469  37.326   3.579
97100W        W68771  18.485  30.442   5.171
97101W        W68772  24.718   2.960  14.344
97102W        W68773  39.565  30.147   1.900
97103W        W68774   9.021   9.400   3.327
97104W        W68775  29.331  32.438   2.384
97105W        W68776  37.590  25.109   4.661
97106W        W68777  31.582  18.090   4.675
97107W        W68778  17.330  12.887  14.993
97108W        W68779   6.905   2.646   0.964
97109W        W68780  35.301  44.374  12.383
97110W        W68781  18.344  22.202   0.331
97111W        W68782  37.304  23.734   2.722
97112W        W68783  12.078   1.812  12.791
97113W        W68784   9.020  12.628   2.587
97114W        W68785  14.918  31.175   3.331
97115W        W68786   7.369  27.112   3.902
97116W        W68787  24.741  28.578   4.231
97117W        W68788   1.185   7.568   2.237
97118W        W68789  35.819   8.693  14.675
97119W        W68790  26.255   7.783  10.142
97120W        W68791  25.857  30.310   0.750
97121W        W68792  44.867  10.115   0.402
97122W        W68793  17.757   7.488  13.793
97123W        W68794  33.546  13.869   2.422
97124W        W68795  15.833  16.223  12.617
97125W        W68796  22.363  16.301   0.424
97126W        W68797  37.927  37.102  11.509
97127W        W68798  20.026  23.116  14.156
97128W        W68799   9.238  20.301   4.571
97129W        W68800  26.234   7.380   3.811
97130W        W68801  43.509  33.993   0.839
97131W        W68802  37.353   9.661   4.626
97132W        W68803  15.717  34.123   2.236
97133W        W68804  19.607  21.305   3.002
97134W        W68805   7.322  18.194  12.482
97135W        W68806  12.778  37.735   1.675
97136W        W68807  34.338  18.213   2.833
97137W        W68808   6.894  32.159   2.386
97138W        W68809   1.727   2.793   4.863
97139W        W68810  30.606  12.874   1.694
97140W        W68811  11.236  31.986  13.569
97141W        W68812  41.564  14.894   4.579
97142W        W68813   9.120   2.236   2.464
97143W        W68814  27.155   3.858   3.788
97144W        W68815  26.780  39.052  11.146
97145W        W68816  39.426  31.927  12.013
97146W        W68817   4.657  18.858   4.045
97147W        W68818  25.585  29.244   2.193
97148W        W68819  41.396  40.714  10.220
97149W        W68820  13.331   6.276  11.760
97150W        W68821  14.875  28.444  11.619
97151W        W68822  34.859   3.175   5.046
97152W        W68823   1.675  20.853   4.643
97153W        W68824   6.597  30.670   1.354
97154W        W68825  12.944  37.598  12.548
97155W        W68826  44.820   8.287   2.764
97156W        W68827  21.612  23.757   2.688
97157W        W68828  17.168  26.484  13.633
97158W        W68829  39.722  26.421   1.772
97159W        W68830  11.782  12.677  13.397
97160W        W68831  39.543  44.083  14.768
97161W        W68832  30.217  39.599   3.065
97162W        W68833  43.338  33.059  12.602
97163W        W68834  32.158   1.417  14.015
97164W        W68835  26.179  26.990  11.125
97165W        W68836   2.303  30.273  13.003
97166W        W68837   0.480   1.689   3.616
97167W        W68838   7.897  43.899  11.889
97168W        W68839   5.114  10.339   2.411
97169W        W68840   6.970  13.718  12.413
97170W        W68841  13.338  25.482   0.558
97171W        W68842   8.383  16.175  10.924
97172W        W68843  13.207  19.656   1.518
97173W        W68844   4.449  37.381   3.289
97174W        W68845   2.885  39.860  14.870
97175W        W68846  43.427  25.234  14.373
97176W        W68847  26.807  39.313  11.944
97177W        W68848   0.478   4.786   1.221
97178W        W68849  39.448  38.378   1.439
97179W        W68850  34.612  23.626  11.891
97180W        W68851  17.959  35.498  11.680
97181W        W68852   4.133  35.802  13.240
97182W        W68853  17.244  16.059   0.349
97183W        W68854  25.389  39.954  14.645
97184W        W68855  28.578   5.896   4.601
97185W        W68856  11.102  14.637   4.523
97186W        W68857   7.762  17.767  13.468
97187W        W68858  22.548  26.704  14.254
97188W        W68859   3.628   7.749   4.621
97189W        W68860  36.749  22.658   4.098
97190W        W68861  32.951  10.939  11.127
97191W        W68862  11.579   1.827   3.097
97192W        W68863  14.225  26.068  12.967
97193W        W68864  36.026  24.958  13.286
97194W        W68865  40.176  44.777  12.038
97195W        W68866   2.282  17.511   2.279
97196W        W68867   0.879  16.729   0.795
97197W        W68868  23.783  27.948   3.270
97198W        W68869  22.169  26.743   4.514
97199W        W68870  20.154  11.431  13.055
97200W        W68871  44.254   7.285   3.050
97201W        W68872   5.706  38.917  11.579
97202W        W68873   9.139   7.825   0.510
97203W        W68874  19.809  43.367   1.756
97204W        W68875  28.982  11.584  14.593
97205W        W68876  18.645  39.103  13.837
97206W        W68877  30.933  18.691   0.669
97207W        W68878  39.559  27.691   4.612
97208W        W68879  34.408   7.845  13.544
97209W        W68880   4.399  37.096  10.913
97210W        W68881  21.073  23.185   1.444
97211W        W68882  29.405  23.192   0.240
97212W        W68883  36.450  21.713   4.617
97213W        W68884  22.218  42.884   0.659
97214W        W68885  35.044  16.026  11.997
97215W        W68886  33.821  20.026   2.828
97216W        W68887  43.330   3.914  11.431
97217W        W68888  44.834  29.660  14.251
97218W        W68889   6.716   2.509   4.724
97219W        W68890   7.889  28.812   3.960
97220W        W68891  28.418  26.899  11.173
97221W        W68892  10.318  37.089  13.011
97222W        W68893   1.361  11.653   4.103
97223W        W68894  18.763  25.727   4.311
97224W        W68895  38.552  37.826  14.013
97225W        W68896  43.907  15.138   0.914
97226W        W68897  24.986  29.012  10.849
97227W        W68898   9.667   9.806   0.255
97228W        W68899  12.238  10.127  11.681
97229W        W68900  16.559  34.683   3.250
97230W        W68901  35.883   5.801   2.509
97231W        W68902  15.037  22.526   2.272
97232W        W68903  20.628   1.313  14.751
97233W        W68904  15.060  43.146  11.600
97234W        W68905  19.313   4.809  11.229
97235W        W68906  41.818  33.668  11.193
97236W        W68907   9.312  35.371   3.118
97237W        W68908  16.727  41.418  11.932
97238W        W68909   7.591  20.991   0.334
97239W        W68910  42.290  37.303   4.644
97240W        W68911  44.869  15.868   1.212
97241W        W68912  28.600   6.508   1.835
97242W        W68913  39.371  29.626   1.928
97243W        W68914  36.381   6.283   4.468
97244W        W68915  27.524  23.215  10.697
97245W        W68916  20.252  26.549   0.872
97246W        W68917  13.825  32.062  14.833
97247W        W68918  17.148  37.986  10.615
97248W        W68919  44.035  34.300   2.368
97249W        W68920  17.791  42.141  14.826
97250W        W68921  33.651  23.982   4.568
97251W        W68922   0.825  40.975   0.657
97252W        W68923  42.882  30.777  10.710
97253W        W68924  13.928  40.257   2.296
97254W        W68925  34.015  30.198   4.854
97255W        W68926  35.354  44.867  12.443
97256W        W68927  38.792  27.147  11.216
97257W        W68928   3.394  27.680   2.090
97258W        W68929  23.020  35.044  12.558
97259W        W68930   7.823  18.183   4.716
97260W        W68931  30.897  21.595   2.640
97261W        W68932   4.586   3.925  14.358
97262W        W68933  21.739  38.955  11.427
97263W        W68934   0.021   4.309  11.555
97264W        W68935  15.647  25.735  11.023
97265W        W68936  21.790  29.951   3.269
97266W        W68937   4.946  14.174  12.441
97267W        W68938  16.799  40.513  13.840
97268W        W68939  13.609   9.616   4.250
97269W        W68940  20.557   1.864   2.732
97270W        W68941  16.573  23.641  11.245
97271W        W68942  43.563  21.250  11.691
97272W        W68943   3.113   4.717  10.616
97273W        W68944   7.816  26.231  11.639
97274W        W68945  19.196  36.478  14.432
97275W        W68946   1.204   5.127   4.154
97276W        W68947   3.412  34.371  10.648
97277W        W68948  17.725  25.168   0.817
97278W        W68949   8.242  16.233  12.934
97279W        W68950  34.786  14.079  11.893
97280W        W68951  18.803  34.389   1.885
97281W        W68952   0.710  23.653  13.298
97282W        W68953  10.982   7.359  12.986
97283W        W68954  10.685  16.290   3.628
97284W        W68955  12.239  36.914   3.107
97285W        W68956  24.663  18.651  12.164
97286W        W68957  42.472  35.791  11.515
97287W        W68958  23.708   9.893   1.668
97288W        W68959   8.391  16.809  12.504
97289W        W68960  21.682  27.470  10.709
97290W        W68961  22.609  26.985   2.090
97291W        W68962   8.325  27.469  14.351
97292W        W68963   0.424   8.347  12.558
97293W        W68964  17.660  36.640  12.015
97294W        W68965  19.512  40.875   3.569
97295W        W68966   6.641  37.816   3.232
97296W        W68967  28.966  30.577  11.078
97297W        W68968  36.910  37.158  12.393
97298W        W68969  43.069  12.153  14.109
97299W        W68970  14.816  42.011  14.766
97300W        W68971  12.795  22.724  12.630
97301W        W68972  21.706  10.228  11.056
97302W        W68973  24.838   1.315   3.301
97303W        W68974   2.753  42.519   0.816
97304W        W68975  42.474  34.384   0.041
97305W        W68976   7.411   3.273  11.657
97306W        W68977  33.161  32.558   0.957
97307W        W68978  34.377   8.923   1.905
97308W        W68979  16.090  22.801  13.988
97309W        W68980  28.490  42.459  12.420
97310W        W68981  31.086  33.097  11.734
97311W        W68982  44.743  35.834  13.787
97312W        W68983  19.543   6.100   4.072
97313W        W68984  28.612  34.416  12.000
97314W        W68985  23.332  17.821   1.269
97315W        W68986  34.185   5.413  13.054
97316W        W68987  16.834  42.443   0.807
97317W        W68988  28.879  11.141  12.801
97318W        W68989  25.618  18.692   4.949
97319W        W68990   7.493  41.372  10.760
97320W        W68991   9.730  17.908   4.610
97321W        W68992   0.194  30.130   3.882
97322W        W68993  14.609   1.887  11.280
97323W        W68994   2.535   7.823   3.646
97324W        W68995  18.818  30.165  12.814
97325W        W68996   1.388  22.525  12.773
97326W        W68997  25.999  13.429   3.591
97327W        W68998  29.326  13.756  13.034
97328W        W68999  13.757  35.113  11.236
97329W        W69000  37.097  11.618  14.977
97330W        W69001  11.892  43.838  13.394
97331W        W69002   6.779  38.917  10.664
97332W        W69003  18.520  33.429   2.777
97333W        W69004  43.875  43.064   2.381
97334W        W69005  15.278  23.286   3.390
97335W        W69006  28.085   7.106   2.344
97336W        W69007  19.121  36.084   4.125
97337W        W69008  15.797  33.852  14.263
97338W        W69009  39.546  31.458   2.663
97339W        W69010  42.665   3.307  13.522
97340W        W69011  13.276  26.348  11.485
97341W        W69012  25.742  18.999   0.189
97342W        W69013   1.349  11.550  11.003
97343W        W69014  15.221  17.073  12.010
97344W        W69015   8.809  12.265  11.921
97345W        W69016  42.279  10.142   4.141
97346W        W69017  32.418  29.059   4.684
97347W        W69018  16.000  13.346   2.371
97348W        W69019  43.849  42.187  12.888
97349W        W69020  19.261  12.849   1.272
97350W        W69021   7.518   0.349  14.467
97351W        W69022   3.729  40.803   1.846
97352W        W69023   8.324  13.404   2.104
97353W        W69024  32.303  25.509  13.402
97354W        W69025  14.541  40.924  12.487
97355W        W69026  35.081  42.775   4.393
97356W        W69027   4.250   4.761  14.324
97357W        W69028  19.657   2.842   0.097
97358W        W69029  42.557  17.804   4.803
97359W        W69030  18.112   6.314  11.801
97360W        W69031   2.348  41.113  14.688
97361W        W69032  17.265  16.822   1.546
97362W        W69033  29.725  15.035   1.731
97363W        W69034  25.629   7.863   1.943
97364W        W69035  18.838  33.474   4.226
97365W        W69036   2.596  12.858   4.513
97366W        W69037   9.332  10.365  14.374
97367W        W69038  41.379  12.176   0.944
97368W        W69039   2.980  23.012  10.543
97369W        W69040  13.650  12.319  14.290
97370W        W69041  34.582  18.313   1.497
97371W        W69042  41.788   7.896   1.732
97372W        W69043  41.819  28.212  12.511
97373W        W69044   3.228  22.815   3.833
97374W        W69045  10.304  15.335  11.110
97375W        W69046  19.162  42.734   3.762
97376W        W69047  20.290   1.192  10.393
97377W        W69048  16.112  22.723   1.114
97378W        W69049  24.877  33.846   1.593
97379W        W69050   0.347  22.201  14.636
97380W        W69051  32.402   7.111  13.565
97381W        W69052   2.322  17.319  11.150
97382W        W69053  42.058   5.977  13.029
97383W        W69054  17.175  21.748   0.384
97384W        W69055  28.083   0.271   2.919
97385W        W69056  39.012   5.633   3.608
97386W        W69057   5.712  40.032  10.694
97387W        W69058  32.538  39.922  11.327
97388W        W69059  39.322  21.055   4.108
97389W        W69060  10.256  17.277   3.330
97390W        W69061  18.568  14.655   2.776
97391W        W69062  18.454  14.791   1.374
97392W        W69063   0.560  28.522  14.419
97393W        W69064  40.834  31.705  12.911
97394W        W69065  22.292  10.967  14.009
97395W        W69066  16.114  13.775   0.170
97396W        W69067  15.800  39.859   2.144
97397W        W69068  12.436  16.494   2.648
97398W        W69069  20.039  28.578   0.809
97399W        W69070  18.857  13.796  12.868
97400W        W69071  21.578  37.986  11.285
97401W        W69072   6.969  15.191   3.316
97402W        W69073   4.500  42.966   2.017
97403W        W69074  31.613   6.217   5.021
97404W        W69075  25.356  23.597  14.090
97405W        W69076  27.514  26.231   2.386
97406W        W69077  26.997  29.181   0.270
97407W        W69078  34.903  42.158  13.519
97408W        W69079  20.738  43.902  13.581
97409W        W69080  23.103  25.064  13.593
97410W        W69081  27.573  44.951   3.740
97411W        W69082   8.790  26.654   0.854
97412W        W69083   3.889  22.599   5.101
97413W        W69084  24.457  42.943   1.154
97414W        W69085  14.085  23.567   0.211
97415W        W69086  30.453   7.352  13.588
97416W        W69087  18.188  38.027  14.292
97417W        W69088  43.937  15.626  10.492
97418W        W69089  11.632   0.494  12.896
97419W        W69090  43.456  42.334   0.366
97420W        W69091  13.852  40.412   1.455
97421W        W69092   8.216  12.591   0.458
97422W        W69093  19.563  27.182   2.455
97423W        W69094   4.618  41.999   4.451
97424W        W69095  14.764  26.688   2.884
97425W        W69096  10.681   1.973  13.951
97426W        W69097  24.134  24.131   1.803
97427W        W69098  44.407  27.701  13.410
97428W        W69099   7.257   9.862  14.504
97429W        W69100   8.047  10.278  10.497
97430W        W69101  41.539  16.571   3.622
97431W        W69102  20.772  16.194  13.891
97432W        W69103  34.315  35.863  11.070
97433W        W69104  20.052   6.755  13.281
97434W        W69105  40.985  41.080  14.029
97435W        W69106   0.574  13.278   2.678
97436W        W69107  17.177  39.514   1.723
97437W        W69108  15.835  27.247  10.875
97438W        W69109  35.666  36.064   2.410
97439W        W69110   7.228  31.690   4.696
97440W        W69111  39.116  13.985  12.068
97441W        W69112  26.303  10.576  14.737
97442W        W69113   5.815  28.142   1.683
97443W        W69114   2.285  21.583   3.838
97444W        W69115   6.347  31.902   5.032
97445W        W69116  26.966  29.235   1.782
97446W        W69117  33.315  27.125   3.483
97447W        W69118  25.513  43.774   1.426
97448W        W69119  34.674  37.217   5.346
97449W        W69120  37.355  31.182   3.295
97450W        W69121  40.262  24.970   2.703
97451W        W69122  44.187  22.412   0.670
97452W        W69123   1.267  42.032  11.067
97453W        W69124  33.699  17.616   3.150
97454W        W69125  23.783  29.505   4.681
97455W        W69126  12.420   4.622  11.421
97456W        W69127  37.482  31.440   4.911
97457W        W69128  26.952  27.545   0.729
97458W        W69129  11.300  32.679  12.907
97459W        W69130  12.145   9.728  10.728
97460W        W69131  22.095  14.668   4.159
97461W        W69132  35.033  44.089   1.140
97462W        W69133  35.256   9.911   3.022
97463W        W69134  11.655  13.771   4.479
97464W        W69135  43.666  37.774   2.690
97465W        W69136  24.157  43.022  11.163
97466W        W69137   7.595  10.183  10.718
97467W        W69138  16.225  26.735  12.112
97468W        W69139  28.234  24.053   2.763
97469W        W69140  31.244  19.432  11.606
97470W        W69141   6.703  18.725   2.901
97471W        W69142  10.224  25.182   3.832
97472W        W69143  23.155  12.637  13.482
97473W        W69144   3.934  25.363   4.759
97474W        W69145  17.959  15.735   1.424
97475W        W69146  26.496   1.306  11.651
97476W        W69147   0.932   7.671  14.842
97477W        W69148  33.106  39.981   2.206
97478W        W69149  39.503  37.627   3.291
97479W        W69150  27.712  23.722   5.042
97480W        W69151  13.057  26.367   4.534
97481W        W69152  11.205  15.273   4.223
97482W        W69153  24.512  39.383  11.626
97483W        W69154  33.581  22.318   2.392
97484W        W69155  32.069   2.441   2.519
97485W        W69156  17.238  37.412  10.472
97486W        W69157   9.556  41.028  12.374
97487W        W69158  26.512  11.706   3.412
97488W        W69159  37.854  25.044   1.957
97489W        W69160   1.293   4.250  14.761
97490W        W69161  25.412  17.353   4.245
97491W        W69162  14.367  38.136   4.587
97492W        W69163  15.226  39.866  14.699
97493W        W69164  29.531  31.696  10.649
97494W        W69165   1.150  23.364   3.614
97495W        W69166  21.299  16.496  12.568
97496W        W69167  42.325  34.041  11.596
97497W        W69168  41.524  28.492   1.649
97498W        W69169  31.645  25.958   2.257
97499W        W69170  30.962   9.340   2.293
97500W        W69171  31.264  17.251   0.345
97501W        W69172   6.490  27.510   3.784
97502W        W69173  27.419  10.164  12.395
97503W        W69174  44.150  24.095   1.273
97504W        W69175   8.215  11.620  14.212
97505W        W69176  21.381  37.567   0.420
97506W        W69177  11.215   4.883  12.942
97507W        W69178   6.673  13.338   0.257
97508W        W69179  12.097  34.813   2.905
97509W        W69180  20.542  24.444   4.988
97510W        W69181  26.075  13.528  10.632
97511W        W69182  15.069  19.547   1.737
97512W        W69183  17.926   6.332  13.177
97513W        W69184  24.243  13.659   0.684
97514W        W69185  24.464   0.779   4.521
97515W        W69186  23.643   8.205  14.946
97516W        W69187  34.621  43.380   3.669
97517W        W69188  18.327  14.238   2.239
97518W        W69189  16.266  12.658   2.874
97519W        W69190  15.080  36.800   0.384
97520W        W69191  27.925   2.892   3.342
97521W        W69192  40.474  37.298   1.848
97522W        W69193  43.350  25.233  13.391
97523W        W69194  32.558  39.107   2.603
97524W        W69195  33.076  10.140   0.904
97525W        W69196  39.780  15.260   1.734
97526W        W69197  14.465  38.000   1.146
97527W        W69198  18.739  43.774  14.765
97528W        W69199  23.623   3.991  11.173
97529W        W69200  24.989  40.643  12.340
97530W        W69201   9.781  11.860   3.173
97531W        W69202  34.625  23.524   0.423
97532W        W69203   0.537  20.922  12.847
97533W        W69204  43.053  31.546  11.674
97534W        W69205  15.784  36.285  14.407
97535W        W69206  40.788  42.311   2.670
97536W        W69207  25.959   0.923   4.765
97537W        W69208  18.638  38.989   0.763
97538W        W69209  40.291   9.190  10.966
97539W        W69210  23.033  23.537  13.044
97540W        W69211  22.212  22.711  11.496
97541W        W69212  28.965  14.851  13.446
97542W        W69213  33.915   3.851  11.523
97543W        W69214   9.596  23.743   1.423
97544W        W69215   0.597   5.666  11.026
97545W        W69216  11.426  39.251   1.741
97546W        W69217  17.112  42.333  12.216
97547W        W69218  35.077  43.494  14.056
97548W        W69219  22.630  41.829   1.502
97549W        W69220   6.363  19.412  13.835
97550W        W69221  31.319  15.625   2.027
97551W        W69222  44.960  33.618  11.850
97552W        W69223  20.506   2.294   2.278
97553W        W69224  29.431  22.500   5.078
97554W        W69225  41.780  21.187  11.072
97555W        W69226   0.392  44.208  12.574
97556W        W69227  33.841  41.196  14.532
97557W        W69228   9.310  11.664   4.867
97558W        W69229   3.328   6.406   3.106
97559W        W69230  15.250  31.222   4.181
97560W        W69231  39.860   1.128  10.753
97561W        W69232  24.724  20.567  13.862
97562W        W69233   8.066  42.220   2.329
97563W        W69234  34.612  33.123  14.931
97564W        W69235  29.163  40.345  11.767
97565W        W69236  41.458  26.397  11.542
97566W        W69237  42.513  41.531   5.393
97567W        W69238   9.748  16.219   0.287
97568W        W69239  17.319   3.599   5.036
97569W        W69240  40.314  23.002  13.020
97570W        W69241   5.780  30.573  12.018
97571W        W69242   3.332  24.955  12.081
97572W        W69243   6.434   5.227  13.591
97573W        W69244   7.737   7.631   3.215
97574W        W69245  26.753  38.609  14.515
97575W        W69246  16.532  44.154   0.216
97576W        W69247  41.772  35.465   4.357
97577W        W69248  33.540  26.506   1.404
97578W        W69249  13.550  28.108   4.118
97579W        W69250  42.543  41.808  10.509
97580W        W69251  18.356  21.407  12.355
97581W        W69252  31.628   4.777   1.703
97582W        W69253  40.014  28.901   4.265
97583W        W69254   4.426   4.286  12.577
97584W        W69255   0.496  16.853   0.409
97585W        W69256  42.805  26.580  12.154
97586W        W69257  13.241  16.561   2.630
97587W        W69258  38.021  35.022   2.876
97588W        W69259  36.728  20.786  12.454
97589W        W69260  39.087   6.932   0.846
97590W        W69261  23.504   9.843   4.058
97591W        W69262   1.752  18.035   4.123
97592W        W69263  39.060  23.408  14.232
97593W        W69264   0.046  22.649  10.566
97594W        W69265  13.338  35.100   3.349
97595W        W69266  17.059  41.432  12.454
97596W        W69267  32.742  30.647  11.497
97597W        W69268  44.312  23.593   1.706
97598W        W69269  22.572  39.050   3.404
97599W        W69270  39.378   5.270  11.886
97600W        W69271  35.082  32.435   2.810
97601W        W69272   3.460  36.852   0.798
97602W        W69273  26.058  44.020  13.325
97603W        W69274  38.824  39.118  13.104
97604W        W69275   8.907  28.706  14.023
97605W        W69276  21.535  42.938   3.328
97606W        W69277  38.452  43.993  13.495
97607W        W69278  40.012   8.712   3.595
97608W        W69279  37.806   3.162   0.973
97609W        W69280   7.967   9.296  12.458
97610W        W69281  29.147  10.552   2.336
97611W        W69282  14.622  10.358  14.534
97612W        W69283  36.500   6.891   2.261
97613W        W69284   2.160  19.618   3.621
97614W        W69285  36.049  27.033   2.278
97615W        W69286  43.454  11.117   1.170
97616W        W69287   1.955  13.794  14.855
97617W        W69288  27.093  29.945   4.156
97618W        W69289  36.779  41.056   0.433
97619W        W69290  28.160  22.347  12.359
97620W        W69291  40.778  18.068  12.635
97621W        W69292  18.801  13.146  14.489
97622W        W69293  22.336  40.014   5.256
97623W        W69294  38.880  29.437  12.468
97624W        W69295  30.554  17.343   0.788
97625W        W69296  44.971  43.520  13.783
97626W        W69297  31.012  38.834  13.570
97627W        W69298  38.318  13.854   3.331
97628W        W69299  37.339  30.171  12.455
97629W        W69300  43.120  15.360  12.664
97630W        W69301  12.163  30.522   1.329
97631W        W69302  38.044  36.554  13.109
97632W        W69303  42.509  31.555  11.650
97633W        W69304  20.054  13.594   1.345
97634W        W69305   8.779  38.683  11.198
97635W        W69306  37.870   6.684  11.848
97636W        W69307  38.036  36.992  13.404
97637W        W69308  29.908  20.843  13.932
97638W        W69309  38.906  17.145  12.499
97639W        W69310   8.206  36.949   4.158
97640W        W69311  22.334  16.985   1.356
97641W        W69312  37.297  15.290  13.486
97642W        W69313  19.290   7.076   4.124
97643W        W69314  33.425  13.187   4.218
97644W        W69315  22.760   7.902  13.191
97645W        W69316   7.924  26.336  10.075
97646W        W69317  39.461  21.133  14.450
97647W        W69318  28.230  25.534  14.896
97648W        W69319  19.142   7.809  10.754
97649W        W69320   1.751  28.090   1.401
97650W        W69321  33.369  43.014   1.541
97651W        W69322  16.767  36.844  11.094
97652W        W69323   9.592  30.727  11.647
97653W        W69324  11.686  37.792  12.471
97654W        W69325  18.762  31.990   2.592
97655W        W69326  36.657  35.485   0.474
97656W        W69327  15.550   5.308  13.820
97657W        W69328  16.556  12.063   2.281
97658W        W69329  22.557  21.664   1.834
97659W        W69330  22.746  38.444  14.115
97660W        W69331  40.906  34.174  12.889
97661W        W69332  14.257  11.648  11.174
97662W        W69333  44.389  36.819   3.704
97663W        W69334  11.258  20.674  13.302
97664W        W69335  26.761  12.246   1.822
97665W        W69336  16.776  27.297   4.028
97666W        W69337   9.355  16.137  10.710
97667W        W69338  40.586   2.916  14.946
97668W        W69339  14.883  41.970   1.449
97669W        W69340  37.318  24.169   1.792
97670W        W69341  35.458  35.368  14.783
97671W        W69342  36.444   3.103   1.899
97672W        W69343  26.757  26.639  10.542
97673W        W69344  16.374  15.712  14.098
97674W        W69345  33.977  15.040   4.338
97675W        W69346  42.602   3.741   0.769
97676W        W69347  22.236  27.969  13.631
97677W        W69348  31.762  26.147   9.932
97678W        W69349  28.384   0.986   3.332
97679W        W69350  28.571  40.130   3.870
97680W        W69351  35.181  27.580   0.709
97681W        W69352  37.516  21.662  14.541
97682W        W69353  21.216   9.179   5.040
97683W        W69354  34.277  19.372   3.484
97684W        W69355  34.664  39.032   1.663
97685W        W69356  36.856   8.332   0.452
97686W        W69357   0.688  34.204   0.024
97687W        W69358  14.819  41.594  11.193
97688W        W69359  22.094  37.629  12.401
97689W        W69360  39.967  35.809   4.395
97690W        W69361  17.412  11.218  10.704
97691W        W69362  29.042   7.890  12.697
97692W        W69363  26.438   3.821  11.500
97693W        W69364  23.196   0.396  12.860
97694W        W69365  44.875  41.837  14.824
97695W        W69366  10.032   4.762   1.542
97696W        W69367  18.163  41.494   1.589
97697W        W69368  26.460  19.069   0.966
97698W        W69369  10.704  12.537  12.908
97699W        W69370  34.512   0.889  11.469
97700W        W69371  25.238   7.544   3.697
97701W        W69372  16.505  25.049  13.342
97702W        W69373  18.509   6.363   0.528
97703W        W69374  42.330  43.195  10.677
97704W        W69375  14.203  33.705   2.537
97705W        W69376   1.113  20.993  10.604
97706W        W69377  33.160  13.266  11.155
97707W        W69378  21.750  12.668   3.154
97708W        W69379  14.837  12.136  10.385
97709W        W69380  30.002   0.636   0.641
97710W        W69381  41.499   9.659   1.319
97711W        W69382   6.974  44.448  12.502
97712W        W69383  20.808  38.587   4.095
97713W        W69384  17.262   3.358  11.904
97714W        W69385  40.287  35.130  11.990
97715W        W69386  21.718  12.732  14.505
97716W        W69387  10.297  23.226  12.531
97717W        W69388  10.453  44.938  12.545
97718W        W69389  38.417  13.789   1.092
97719W        W69390  28.068  17.491  11.013
97720W        W69391  41.788  26.283  12.971
97721W        W69392  15.085  21.169  12.460
97722W        W69393  23.027  11.638  12.491
97723W        W69394  43.262  36.603  11.466
97724W        W69395  16.721  13.586   3.488
97725W        W69396   6.800  24.196   4.135
97726W        W69397  11.369   9.203  14.414
97727W        W69398   1.284   8.809   2.152
97728W        W69399  42.299  42.324   3.650
97729W        W69400  18.557   3.246  14.177
97730W        W69401  13.638   1.173   2.727
97731W        W69402   0.714  32.023   1.326
97732W        W69403  37.335   5.215   1.388
97733W        W69404  22.047   0.253   2.399
97734W        W69405  14.311  11.186   2.186
97735W        W69406  33.042   0.691  14.717
97736W        W69407  43.944  27.070   2.702
97737W        W69408   0.346  42.309  10.496
97738W        W69409   0.908  39.222   5.034
97739W        W69410  40.427  13.116   0.222
97740W        W69411  44.189  18.135   4.282
97741W        W69412  28.520  22.008  10.692
97742W        W69413   8.433  10.891  12.931
97743W        W69414   4.648  11.863  12.298
97744W        W69415   7.725  27.392   4.611
97745W        W69416  44.218  21.958  11.646
97746W        W69417  31.970  24.069   2.160
97747W        W69418  27.704  25.689  13.253
97748W        W69419   5.515   0.957   1.178
97749W        W69420  38.844  22.090   3.660
97750W        W69421  33.541  14.626   3.234
97751W        W69422   4.381  31.250   3.150
97752W        W69423  36.751   5.320   1.963
97753W        W69424  35.988   0.593  11.987
97754W        W69425  13.758  24.928   3.254
97755W        W69426  40.537   7.689   2.223
97756W        W69427  42.504  16.043   2.389
97757W        W69428  38.077   2.442  13.392
97758W        W69429  40.295   4.681   1.820
97759W        W69430  25.440   9.346  13.146
97760W        W69431  26.393  26.161  10.762
97761W        W69432   1.037  41.388  14.317
97762W        W69433   7.162  20.535   2.631
97763W        W69434  19.667  29.933  12.655
97764W        W69435  28.758  16.159  12.532
97765W        W69436  30.137  26.994  13.081
97766W        W69437   3.689  27.936   1.330
97767W        W69438  37.808   6.272  11.250
97768W        W69439   5.956  20.779   1.035
97769W        W69440   3.832  26.710  10.548
97770W        W69441  38.557  21.742   3.938
97771W        W69442  20.149  29.944   4.131
97772W        W69443  20.575  23.359   9.889
97773W        W69444  44.496  34.136   0.664
97774W        W69445  17.559  37.004   2.564
97775W        W69446  23.141  29.938  12.092
97776W        W69447   9.168  24.945   3.154
97777W        W69448  29.362  14.567  13.616
97778W        W69449   5.937   2.027  12.441
97779W        W69450  35.560  23.682   3.273
97780W        W69451  12.040  18.961   3.576
97781W        W69452  28.059   7.448   3.206
97782W        W69453  18.726  36.458   4.027
97783W        W69454  29.378  32.444   4.355
97784W        W69455  29.686  26.532   2.049
97785W        W69456  26.446   2.872  13.051
97786W        W69457   8.273  30.964   2.200
97787W        W69458  25.157  11.759  11.268
97788W        W69459   8.197  13.255   0.766
97789W        W69460   2.292  22.132   3.677
97790W        W69461   5.680  28.163  14.514
97791W        W69462  44.719  20.052  11.519
97792W        W69463  13.274  37.750   2.574
97793W        W69464  42.336  17.523  14.570
97794W        W69465  29.662  31.096   2.129
97795W        W69466  10.867  32.690  13.835
97796W        W69467  30.012  12.870  14.309
97797W        W69468  30.146   1.669  14.963
97798W        W69469  39.774   9.085   2.878
97799W        W69470  34.726   1.259   4.865
97800W        W69471   7.693   1.022   1.949
97801W        W69472  30.220   0.353   1.890
97802W        W69473  10.352   6.483  12.891
97803W        W69474  10.052  21.615   2.763
97804W        W69475   7.706   8.486   1.475
97805W        W69476  35.599  15.917  10.458
97806W        W69477  19.493   7.764   3.546
97807W        W69478   5.496  34.922   1.757
97808W        W69479  32.490  20.822   4.701
97809W        W69480   8.714   9.032   0.118
97810W        W69481   9.311  19.289   0.461
97811W        W69482   9.452  10.162  14.849
97812W        W69483   9.616   8.485  10.763
97813W        W69484   7.606  38.462   4.030
97814W        W69485  43.216   4.743  13.436
97815W        W69486  20.608  42.917  14.416
97816W        W69487  24.223  44.648   0.677
97817W        W69488  35.976  17.201  13.577
97818W        W69489   2.337  44.257  10.551
97819W        W69490  11.563  30.459   4.620
97820W        W69491  20.276  27.859   1.288
97821W        W69492  44.950  10.299   4.567
97822W        W69493  40.258   0.978  12.905
97823W        W69494   5.292  36.441   3.360
97824W        W69495  14.354  11.330  10.751
97825W        W69496  43.836   2.284   1.746
97826W        W69497   7.933   5.184  13.489
97827W        W69498  39.544  12.368  11.243
97828W        W69499  12.293   5.172  13.574
97829W        W69500   7.951  12.547   1.823
97830W        W69501  35.305  24.448  14.831
97831W        W69502  13.568   2.233  11.093
97832W        W69503  42.044   5.954   5.009
97833W        W69504  19.710  36.365  14.404
97834W        W69505  19.044  27.012   4.332
97835W        W69506  24.718  29.003   2.271
97836W        W69507  21.648  28.441  13.871
97837W        W69508  12.366  43.768   1.312
97838W        W69509  17.050  20.518   2.732
97839W        W69510  14.733  30.028  11.499
97840W        W69511  42.495  32.551   4.115
97841W        W69512  30.959  44.478  11.966
97842W        W69513  32.259  26.050  14.022
97843W        W69514  33.611  23.195   1.016
97844W        W69515  31.083  10.679  10.710
97845W        W69516  30.303  35.522  14.852
97846W        W69517  13.369  34.609  12.016
97847W        W69518  34.478  25.544  10.820
97848W        W69519  25.791   0.567   1.811
97849W        W69520   2.932  32.663   4.866
97850W        W69521  28.534  14.127  10.397
97851W        W69522  17.690  14.615   0.277
97852W        W69523  25.584   5.394   4.113
97853W        W69524   5.846  44.048   3.830
97854W        W69525   9.662  34.203   4.342
97855W        W69526  21.560  43.659   3.600
97856W        W69527  44.190  31.327   3.172
97857W        W69528  14.834  10.272  13.500
97858W        W69529  34.168  20.230   1.003
97859W        W69530   1.551  42.434   3.400
97860W        W69531  20.789  22.767  12.542
97861W        W69532  27.483  39.350  11.217
97862W        W69533   3.448   2.245  11.138
97863W        W69534  21.113  39.241  11.059
97864W        W69535  16.339   8.811  12.542
97865W        W69536  40.862  17.241  13.043
97866W        W69537  27.706  35.502   3.594
97867W        W69538  44.883  35.432   0.930
97868W        W69539  12.263  39.438   4.774
97869W        W69540  19.671  38.399  13.046
97870W        W69541   4.189  34.481   3.910
97871W        W69542   0.004   2.707  12.106
97872W        W69543   4.823  36.705  11.928
97873W        W69544  17.364  31.474   2.468
97874W        W69545  13.777  36.312  14.481
97875W        W69546   0.490  26.257  11.947
97876W        W69547   3.894  29.877   2.170
97877W        W69548  19.217  17.251  12.049
97878W        W69549  16.955  19.134   1.694
97879W        W69550  32.563   8.294   2.306
97880W        W69551   5.034   1.472  10.326
97881W        W69552  44.667  17.153  14.424
97882W        W69553  25.648   7.170  10.801
97883W        W69554  30.743   0.291   2.869
97884W        W69555  29.227  31.913   2.250
97885W        W69556   6.285  30.884  11.170
97886W        W69557  16.815  26.457  10.297
97887W        W69558  42.813  25.970  14.380
97888W        W69559  12.169  42.352  13.876
97889W        W69560  41.939  24.707   4.893
97890W        W69561  31.893   4.452  12.039
97891W        W69562  39.481  39.081   4.630
97892W        W69563  26.701  18.097  11.120
97893W        W69564  13.822   6.058   1.701
97894W        W69565  37.580  14.861  10.656
97895W        W69566  19.369  38.933  13.397
97896W        W69567  33.600  32.963   1.913
97897W        W69568   7.787  11.882   4.116
97898W        W69569  37.950  36.285   2.386
97899W        W69570  40.481  37.846  11.513
97900W        W69571  16.156   2.770  13.963
97901W        W69572  35.845   0.947  11.041
97902W        W69573  17.667  32.066   4.352
97903W        W69574  10.838  29.106  11.605
97904W        W69575  43.975  23.580   9.961
97905W        W69576  37.509  32.390  11.136
97906W        W69577   7.426  40.042  12.050
97907W        W69578  30.480  40.078   4.807
97908W        W69579  15.873  38.783  13.350
97909W        W69580  22.226  31.962  12.506
97910W        W69581  18.994  43.561  12.372
97911W        W69582  21.550  20.342   1.129
97912W        W69583  16.730   4.374  13.152
97913W        W69584  38.186  39.871   3.337
97914W        W69585   8.706  21.179  14.408
97915W        W69586  21.717  38.414   3.199
97916W        W69587   0.822   8.964   2.301
97917W        W69588  30.579  22.617  13.077
97918W        W69589  29.712  26.549   4.129
97919W        W69590  18.901  39.964   4.580
97920W        W69591  31.226   2.760  11.745
97921W        W69592   6.020  16.197  12.559
97922W        W69593   1.708  35.695  14.048
97923W        W69594  24.010  15.125  12.366
97924W        W69595  37.562  24.996  12.840
97925W        W69596  40.866   6.826  14.279
97926W        W69597  36.463  33.898  14.094
97927W        W69598  32.010   7.369   4.165
97928W        W69599  17.848   6.140  11.019
97929W        W69600  17.762  27.437  11.591
97930W        W69601   1.240  19.596   2.298
97931W        W69602   1.765   3.490  12.076
97932W        W69603   6.263  39.335  11.103
97933W        W69604  33.393  42.848   4.521
97934W        W69605  26.983  37.793   2.716
97935W        W69606  43.377  37.814   3.128
97936W        W69607  26.219  19.192   1.437
97937W        W69608   5.668  44.693   2.295
97938W        W69609  19.655   4.796   4.621
97939W        W69610  37.160   5.846   3.168
97940W        W69611  27.003  41.738   2.222
97941W        W69612  42.055  25.464  12.000
97942W        W69613   6.538  16.909  10.651
97943W        W69614  34.611  44.375   0.920
97944W        W69615   9.297  12.122   5.127
97945W        W69616   9.394  17.971  13.143
97946W        W69617  15.470  43.703  12.560
97947W        W69618  30.884  14.215  14.679
97948W        W69619  36.862  30.477   4.137
97949W        W69620  13.123  31.201  13.853
97950W        W69621  35.464  27.173   4.425
97951W        W69622  15.855  37.467  10.085
97952W        W69623  29.712  19.727   5.152
97953W        W69624  20.075  34.719  10.985
97954W        W69625   8.259   2.890   4.856
97955W        W69626   6.962  28.455   3.573
97956W        W69627   9.197  21.537  13.432
97957W        W69628  34.538  11.338  12.015
97958W        W69629  34.529  20.308  13.575
97959W        W69630  29.084   8.322  12.386
97960W        W69631  18.681   5.468   0.779
97961W        W69632   0.570   3.511   1.475
97962W        W69633  31.107   6.146  13.380
97963W        W69634  28.870  27.443  13.970
97964W        W69635   1.930   6.465   3.139
97965W        W69636  24.933  42.987  11.278
97966W        W69637  28.669   7.825   2.064
97967W        W69638  10.627  10.307   0.887
97968W        W69639  36.474  15.781   0.837
97969W        W69640  19.119  13.394   3.684
97970W        W69641  19.514  22.478  11.996
97971W        W69642  38.104  36.040   1.317
97972W        W69643  41.754  31.875   4.212
97973W        W69644  42.710   2.431  10.456
97974W        W69645  24.836  26.686   1.818
97975W        W69646   6.812  33.919   1.038
97976W        W69647  25.094  38.314   1.320
97977W        W69648  15.336  14.819  14.008
97978W        W69649  28.493   2.755   0.700
97979W        W69650  14.997  35.527   2.689
97980W        W69651   0.073  10.306  10.823
97981W        W69652  16.343  10.778  11.590
97982W        W69653  14.995  32.936  12.732
97983W        W69654   2.263  25.104  11.242
97984W        W69655   6.481  14.170  13.471
97985W        W69656   4.905  26.237  14.854
97986W        W69657  43.365  30.729   4.590
97987W        W69658  18.701  35.636  11.979
97988W        W69659  44.471   9.309   2.422
97989W        W69660  41.869   3.624   2.748
97990W        W69661  20.723  23.841   2.528
97991W        W69662   0.858  22.257   5.123
97992W        W69663  23.447  41.964  13.436
97993W        W69664  41.658  17.586   2.264
97994W        W69665   6.389   5.138  13.084
97995W        W69666   5.209   8.434   3.415
97996W        W69667  42.760   8.944  10.691
97997W        W69668  40.747  44.339  13.510
97998W        W69669  16.680  33.951   1.820
97999W        W69670   0.752   4.598  13.316
98000W        W69671  39.949  13.044  14.447
98001W        W69672  14.772   8.760   4.581
98002W        W69673  32.390  19.627   1.200
98003W        W69674  22.717  19.413   4.553
98004W        W69675  20.573  32.510  14.846
98005W        W69676  30.139  24.080  13.941
98006W        W69677   8.976   0.335  11.512
98007W        W69678  34.831  20.055   4.623
98008W        W69679  22.066  30.677  12.033
98009W        W69680  30.524  13.299  13.505
98010W        W69681  13.448  23.012  11.945
98011W        W69682  42.269  41.027   1.338
98012W        W69683  19.816  15.771   0.268
98013W        W69684   5.322  12.830  13.437
98014W        W69685   2.981  42.849  13.957
98015W        W69686  42.869  18.513  13.509
98016W        W69687  32.431  10.921   4.251
98017W        W69688  11.851   0.882   4.141
98018W        W69689  28.687  35.821  13.764
98019W        W69690  14.064   7.341  14.763
98020W        W69691  42.565   9.361  11.574
98021W        W69692   9.002  30.532   3.317
98022W        W69693  10.418   2.366   0.268
98023W        W69694  12.099  19.171   1.243
98024W        W69695  43.625   0.685   2.824
98025W        W69696  33.699   8.831   0.892
98026W        W69697  11.722  42.908  13.554
98027W        W69698  23.168  21.490   2.788
98028W        W69699  25.081   2.648   3.140
98029W        W69700  42.413   5.215  14.951
98030W        W69701  17.290  44.379   2.810
98031W        W69702  43.583   0.466   4.017
98032W        W69703  14.669   1.142   1.276
98033W        W69704  23.775   5.625   0.056
98034W        W69705  28.108  15.264   3.285
98035W        W69706   2.219   9.307  14.027
98036W        W69707  20.202  27.596   0.844
98037W        W69708  44.457  25.536  14.805
98038W        W69709  35.442  38.883  13.813
98039W        W69710  19.301  36.200   4.619
98040W        W69711   1.762  32.222  12.185
98041W        W69712  38.989  29.173  12.017
98042W        W69713  37.105  26.050  12.663
98043W        W69714  33.866  23.662  10.892
98044W        W69715  35.568   8.582  12.358
98045W        W69716  23.065   1.376   3.654
98046W        W69717  22.512  29.592  13.886
98047W        W69718   7.921  44.758  10.967
98048W        W69719  39.925  11.098   3.795
98049W        W69720  37.005  37.598  11.481
98050W        W69721   4.110  17.276   1.390
98051W        W69722   9.219  31.495  12.408
98052W        W69723  43.478  14.934   2.639
98053W        W69724  26.668  33.070  11.518
98054W        W69725  41.111  12.453  14.889
98055W        W69726  20.809  42.287  12.907
98056W        W69727  16.010   2.541   1.660
98057W        W69728  12.260  26.587   2.435
98058W        W69729  21.728   9.348  12.115
98059W        W69730  37.646  38.068   5.142
98060W        W69731  27.962   1.001   1.206
98061W        W69732  42.609  13.538   4.746
98062W        W69733  29.631  23.602   1.854
98063W        W69734  22.045  15.577   3.739
98064W        W69735  24.096  27.551  13.482
98065W        W69736   7.274  15.248  12.993
98066W        W69737  16.918   6.999   1.678
98067W        W69738  21.133   5.358   4.580
98068W        W69739  24.939  11.672  12.632
98069W        W69740  22.943  44.257   3.311
98070W        W69741   0.967  31.995  13.180
98071W        W69742  30.936  11.731  14.340
98072W        W69743  22.459  39.438   4.159
98073W        W69744  12.876   8.546  14.905
98074W        W69745  36.869  14.754   3.823
98075W        W69746  10.673   5.799  10.893
98076W        W69747   4.404  37.164   1.179
98077W        W69748  37.012  40.939  10.741
98078W        W69749  12.421  22.724  13.841
98079W        W69750  18.207  28.447  12.082
98080W        W69751   8.690   1.356  13.507
98081W        W69752   2.657  38.538  13.052
98082W        W69753  38.589  44.040   2.235
98083W        W69754  13.896  20.673   3.305
98084W        W69755   2.953  26.779  12.048
98085W        W69756   9.133  28.491   1.861
98086W        W69757  33.498  37.596   4.980
98087W        W69758  32.209  40.238   1.857
98088W        W69759   7.210  10.392  14.476
98089W        W69760  29.403   5.442   0.911
98090W        W69761  36.128   8.726   2.860
98091W        W69762  27.174  24.992   0.793
98092W        W69763  24.980  36.082  14.600
98093W        W69764  40.793  38.009  13.143
98094W        W69765  16.487  26.514  14.876
98095W        W69766  24.477  36.976   3.025
98096W        W69767  35.844  12.607  12.055
98097W        W69768  39.968   0.315  10.427
98098W        W69769  11.533  32.194  13.962
98099W        W69770  42.046  26.996  11.398
98100W        W69771  36.101  38.982   3.186
98101W        W69772   3.655   8.639   2.430
98102W        W69773   8.485  42.514   2.232
98103W        W69774  36.867  17.557   0.527
98104W        W69775  28.681   3.697  13.723
98105W        W69776   2.311  37.567   3.742
98106W        W69777   4.740  36.276   0.005
98107W        W69778   8.601  22.498  14.814
98108W        W69779  15.059  30.989   4.617
98109W        W69780  44.394  36.368   9.974
98110W        W69781  32.029  17.819  11.480
98111W        W69782   0.206  44.416   2.292
98112W        W69783  28.935   5.423   1.662
98113W        W69784  44.130  36.027   4.091
98114W        W69785  33.009   2.400   2.628
98115W        W69786  36.627   2.937   4.621
98116W        W69787   7.928  10.358  12.479
98117W        W69788  43.289  29.610  11.026
98118W        W69789   3.391  14.318  13.703
98119W        W69790   5.749   5.341  10.732
98120W        W69791   4.405  19.142  13.970
98121W        W69792  42.778  36.636   3.153
98122W        W69793  22.475  42.300   1.266
98123W        W69794  24.463   5.421  10.672
98124W        W69795  20.688   0.203   2.053
98125W        W69796  33.424  18.524  11.170
98126W        W69797  13.300  18.305  14.055
98127W        W69798  42.239  37.346   2.341
98128W        W69799  12.624   5.765  14.080
98129W        W69800   8.370  23.707  12.606
98130W        W69801  32.782  22.735  14.388
98131W        W69802   3.718  39.632   1.381
98132W        W69803  27.204   2.826  14.266
98133W        W69804  42.812  27.997  12.592
98134W        W69805   8.512  43.033  14.144
98135W        W69806   9.214  42.263   4.898
98136W        W69807   6.132  25.054  12.169
98137W        W69808   1.448  10.760  14.321
98138W        W69809  38.127  17.855   1.423
98139W        W69810  23.519  14.104   0.777
98140W        W69811  17.347  38.476  13.373
98141W        W69812  18.673  34.894  10.413
98142W        W69813   8.849  42.949   4.796
98143W        W69814  44.417  26.604  14.854
98144W        W69815  16.068  29.707  12.514
98145W        W69816  25.099  30.115  13.410
98146W        W69817  35.813  19.582  11.158
98147W        W69818  16.705  32.585   2.245
98148W        W69819   8.595  27.172  10.620
98149W        W69820  14.900  28.951  11.460
98150W        W69821   1.171  20.513  13.446
98151W        W69822  41.023   7.811   3.710
98152W        W69823  34.868  39.807   0.297
98153W        W69824  37.105  25.795  11.908
98154W        W69825  26.020  21.317   2.240
98155W        W69826  43.534  15.533  11.422
98156W        W69827  32.481   9.000   0.366
98157W        W69828  24.309  31.092   1.720
98158W        W69829  40.786  41.513   0.469
98159W        W69830  23.050  26.537   1.199
98160W        W69831   3.322   3.057  11.917
98161W        W69832   7.332  44.668  12.166
98162W        W69833  41.707  18.609  11.199
98163W        W69834  14.269  14.544   4.355
98164W        W69835  41.604  33.985   1.960
98165W        W69836  12.342  10.216  14.497
98166W        W69837  37.997  36.945  13.946
98167W        W69838  20.720   5.149   2.828
98168W        W69839   2.138  39.933  12.465
98169W        W69840   6.841   3.700   0.956
98170W        W69841  16.789   7.948   3.318
98171W        W69842   1.017   1.768   1.296
98172W        W69843  13.550  25.228  10.791
98173W        W69844   8.230  34.219   1.794
98174W        W69845  24.198   5.905  13.385
98175W        W69846  38.864   2.655  12.799
98176W        W69847  12.433  39.018  13.346
98177W        W69848  22.510   2.330   0.908
98178W        W69849   7.753  12.183  10.677
98179W        W69850  34.230  13.083  14.615
98180W        W69851   7.185   1.943   3.040
98181W        W69852  34.956  41.326  11.155
98182W        W69853   5.257  24.476   0.026
98183W        W69854  34.241  42.076   2.033
98184W        W69855  15.896  13.163   1.481
98185W        W69856   8.398   5.277  12.132
98186W        W69857  23.622  23.820  12.086
98187W        W69858  30.457  37.464  12.211
98188W        W69859  25.082   2.530  14.938
98189W        W69860   7.788  38.721   9.996
98190W        W69861  40.531  31.629   3.084
98191W        W69862  10.576  39.090  11.244
98192W        W69863  22.012  29.476   1.437
98193W        W69864   1.473  24.075   1.425
98194W        W69865   4.752  18.193   2.201
98195W        W69866   7.361  28.076   3.711
98196W        W69867  37.508  19.604   4.221
98197W        W69868  18.351  11.088   1.835
98198W        W69869   9.709  37.700   9.873
98199W        W69870  30.472   0.014  10.531
98200W        W69871   2.442  24.924   2.389
98201W        W69872  44.729  13.876   2.750
98202W        W69873  32.807  22.619  12.042
98203W        W69874   6.226  38.524  14.861
98204W        W69875  25.559  35.666   4.167
98205W        W69876  20.551  21.963  12.244
98206W        W69877  19.568  13.440  10.990
98207W        W69878   8.466  16.126   1.918
98208W        W69879   0.872  40.627   1.598
98209W        W69880  31.144  10.718   4.364
98210W        W69881  44.058  12.765  14.336
98211W        W69882  33.522  11.641  10.859
98212W        W69883  24.044  23.564  14.671
98213W        W69884   1.928  22.900   3.364
98214W        W69885  21.622  28.101  14.287
98215W        W69886  44.489  32.477  14.489
98216W        W69887  14.043  10.260  12.165
98217W        W69888  18.651   3.518  12.844
98218W        W69889  44.860  23.702  11.736
98219W        W69890  16.216  40.513   2.392
98220W        W69891  31.619  12.592  12.581
98221W        W69892  11.814  16.778  10.263
98222W        W69893   1.820   0.942  14.718
98223W        W69894  43.776  35.098   0.740
98224W        W69895  34.348  26.025  13.653
98225W        W69896  10.876  27.146  12.505
98226W        W69897  40.916   6.790  14.797
98227W        W69898   4.012  40.016  12.521
98228W        W69899  40.270  24.984  11.194
98229W        W69900  24.095   4.339   1.056
98230W        W69901   1.442  34.876   2.154
98231W        W69902  22.402   1.126  14.789
98232W        W69903  22.247  41.338   0.393
98233W        W69904  26.917  36.996  13.827
98234W        W69905  25.763  42.897   0.385
98235W        W69906   9.640   3.974  12.975
98236W        W69907  44.734   4.758  11.576
98237W        W69908  35.748   8.394   1.337
98238W        W69909   3.427  14.346   2.672
98239W        W69910  15.594   4.401  12.481
98240W        W69911  35.532  39.006   4.837
98241W        W69912  32.088  37.573   1.579
98242W        W69913  30.079  40.511  14.064
98243W        W69914   7.826  18.661   1.178
98244W        W69915  12.174   3.738   2.392
98245W        W69916  27.398   9.663  12.459
98246W        W69917  21.150  24.549   3.826
98247W        W69918  13.055  31.915   1.352
98248W        W69919   4.893  28.418   1.129
98249W        W69920  39.903  16.971   3.236
98250W        W69921  18.001  14.748   9.680
98251W        W69922  22.482  16.103  14.532
98252W        W69923  17.102  21.519   1.392
98253W        W69924  26.255  21.983  13.342
98254W        W69925  34.720  19.163   1.275
98255W        W69926   0.347   6.337   4.094
98256W        W69927  33.326   4.033   0.967
98257W        W69928  37.089   4.627  12.081
98258W        W69929  33.605  12.119  12.467
98259W        W69930   0.521  38.946   2.329
98260W        W69931   9.488   6.844  10.923
98261W        W69932  20.578  43.543   3.711
98262W        W69933  19.613   8.616   1.336
98263W        W69934   9.335  32.309   3.750
98264W        W69935  27.539  37.176  14.405
98265W        W69936  13.828   9.992  13.965
98266W        W69937  28.817   9.626   0.903
98267W        W69938  41.103  33.365  13.369
98268W        W69939  14.431  41.043   1.954
98269W        W69940  12.166   7.144  14.297
98270W        W69941  21.041  20.546  14.326
98271W        W69942  20.800  15.261  12.568
98272W        W69943  22.123   4.915  11.490
98273W        W69944  35.114  36.848   5.400
98274W        W69945  25.046   9.346  14.535
98275W        W69946  26.123   0.442  12.913
98276W        W69947  22.917  19.189   0.903
98277W        W69948  13.051   1.853   9.872
98278W        W69949  31.776   0.170  13.439
98279W        W69950  16.110  36.346   4.776
98280W        W69951   5.203  28.684   3.756
98281W        W69952  39.255   8.323  11.161
98282W        W69953   6.895  44.272   4.433
98283W        W69954   4.805  15.269  13.402
98284W        W69955  22.028  25.899   4.136
98285W        W69956   1.279  18.318  14.725
98286W        W69957  16.799  15.146  11.113
98287W        W69958  22.450  43.966  13.364
98288W        W69959  27.994  25.112  11.636
98289W        W69960  42.022  34.687   1.904
98290W        W69961  30.900   6.805   3.538
98291W        W69962  14.813  35.717  12.627
98292W        W69963  28.185   3.514  13.021
98293W        W69964   7.664  28.078   0.445
98294W        W69965   0.162  30.100  14.969
98295W        W69966  25.549   7.830  13.129
98296W        W69967   3.246  35.108   1.602
98297W        W69968   4.013   1.827   1.151
98298W        W69969  39.980  37.479   5.020
98299W        W69970  31.086   2.950   3.033
98300W        W69971  41.110  34.729   0.435
98301W        W69972  22.734  41.811  14.833
98302W        W69973  17.249  25.036  11.735
98303W        W69974  11.253  22.256   3.341
98304W        W69975  21.653  40.439   5.025
98305W        W69976  14.505  38.606   4.311
98306W        W69977  12.598  13.193  11.015
98307W        W69978  34.269  10.627   2.340
98308W        W69979  27.432  21.038  14.069
98309W        W69980  13.870   4.377  14.328
98310W        W69981   8.152  25.185  13.424
98311W        W69982  28.676  25.160   3.897
98312W        W69983  32.864  18.416  13.749
98313W        W69984   7.851  40.469  12.874
98314W        W69985  44.921  44.889   1.229
98315W        W69986   9.380  17.712  12.074
98316W        W69987  21.795  13.814  14.930
98317W        W69988  10.776   7.651   3.208
98318W        W69989   2.913  32.563   4.329
98319W        W69990   3.602  31.725  11.174
98320W        W69991  18.973   3.566  13.349
98321W        W69992   1.967   4.187   4.551
98322W        W69993  23.394  37.394   0.384
98323W        W69994  30.737  43.322   2.151
98324W        W69995   6.345  25.181   2.442
98325W        W69996  15.550   9.921  14.220
98326W        W69997  19.594   3.740   2.738
98327W        W69998  42.688  40.113   1.239
98328W        W69999  26.234  43.876   4.111
98329W        W70000   9.314  18.532  13.109
98330W        W70001  42.988  23.643   4.973
98331W        W70002   6.305  20.211  13.490
98332W        W70003  21.780  28.039  12.387
98333W        W70004  31.998  24.502   0.328
98334W        W70005  36.200  26.428   0.511
98335W        W70006  44.197   0.651   1.311
98336W        W70007  30.806  38.602   1.697
98337W        W70008   5.231   0.480  12.094
98338W        W70009  31.285  12.099  12.119
98339W        W70010   6.295  20.795   1.884
98340W        W70011  26.819  40.036   0.224
98341W        W70012  12.513  30.662   4.432
98342W        W70013  38.770   5.317   4.438
98343W        W70014  30.986  24.760  11.586
98344W        W70015  34.593   6.456  13.407
98345W        W70016   6.736  28.841   0.554
98346W        W70017   6.224  29.011  12.805
98347W        W70018   1.321  27.478   4.515
98348W        W70019   5.658  23.054   3.786
98349W        W70020  27.172  19.118  13.548
98350W        W70021  28.662   1.080  11.581
98351W        W70022  29.523  25.821  14.151
98352W        W70023  14.703   3.769   0.008
98353W        W70024  28.376   3.694   4.041
98354W        W70025  32.562  29.181  11.114
98355W        W70026  35.051  13.650  11.053
98356W        W70027  13.377   3.892   4.755
98357W        W70028  36.405  27.619  14.975
98358W        W70029  33.401  15.156   3.299
98359W        W70030  39.837  33.351  10.744
98360W        W70031  31.563  19.202   1.691
98361W        W70032  44.910   6.294  12.015
98362W        W70033  17.977  43.530  12.391
98363W        W70034  44.762  18.594  14.240
98364W        W70035  23.853  12.697  12.389
98365W        W70036   4.291  23.555  13.365
98366W        W70037  21.587  18.760   4.244
98367W        W70038  34.434   1.617   4.605
98368W        W70039  20.828   7.282  14.148
98369W        W70040  11.761  14.560  11.441
98370W        W70041  11.147  41.903  11.983
98371W        W70042  39.079  22.311   3.247
98372W        W70043  10.654  34.392  12.603
98373W        W70044  11.011  12.199  11.362
98374W        W70045   5.591  37.937  14.831
98375W        W70046  10.230  28.994  10.902
98376W        W70047  19.528  31.833   0.989
98377W        W70048   2.235  19.675  11.607
98378W        W70049  14.271  42.737   1.067
98379W        W70050  19.242   1.227  12.858
98380W        W70051  19.514  14.513   3.336
98381W        W70052  24.476  10.851   3.193
98382W        W70053  41.999  25.527  14.039
98383W        W70054  11.131  38.501   2.734
98384W        W70055  34.889  21.634  12.904
98385W        W70056  27.541  30.572   1.620
98386W        W70057  36.448  20.167  13.315
98387W        W70058   5.768  41.150   1.263
98388W        W70059   7.678  21.821  13.631
98389W        W70060  32.423   5.544   3.703
98390W        W70061  12.604   4.137   1.943
98391W        W70062  43.577  38.880  11.462
98392W        W70063   4.947  23.872  11.844
98393W        W70064  43.401  24.053   1.011
98394W        W70065  17.775  40.909   3.108
98395W        W70066  43.474   3.463  11.151
98396W        W70067  34.700  37.420   4.657
98397W        W70068  33.798  24.469  10.676
98398W        W70069   8.260  38.560   2.284
98399W        W70070  35.903  28.056   0.759
98400W        W70071  38.417  41.780   2.332
98401W        W70072   6.447  22.015   3.215
98402W        W70073   4.832   0.367   4.586
98403W        W70074   2.970   8.060  13.624
98404W        W70075   4.686  39.404  12.036
98405W        W70076  40.479  11.789  13.377
98406W        W70077   9.774  25.262   2.366
98407W        W70078   0.224   0.324  11.112
98408W        W70079  24.612  15.523   3.674
98409W        W70080   2.470  21.184   1.708
98410W        W70081  23.074  27.468   1.204
98411W        W70082   0.024  17.509  11.476
98412W        W70083  35.607  30.453  13.154
98413W        W70084  14.103  17.661  12.326
98414W        W70085   5.261   3.590  10.535
98415W        W70086  28.372  24.138   1.394
98416W        W70087   3.931  29.547   1.770
98417W        W70088  13.711  24.692   4.231
98418W        W70089  40.531  21.219  13.620
98419W        W70090  21.028  14.223  10.638
98420W        W70091  28.221  18.763  13.397
98421W        W70092  22.277  14.125   2.893
98422W        W70093  38.544  11.157   2.674
98423W        W70094  42.990  12.648   1.351
98424W        W70095  29.506  43.363   4.847
98425W        W70096  33.932  35.909  10.730
98426W        W70097   1.794  11.125  12.126
98427W        W70098  28.281  12.730   4.128
98428W        W70099  24.443   9.779   3.980
98429W        W70100  13.633  17.173   0.932
98430W        W70101  37.788  14.533   0.348
98431W        W70102   2.306   6.934  13.954
98432W        W70103  31.305  43.042   1.716
98433W        W70104  35.802  11.740   1.183
98434W        W70105  35.610  36.176   3.270
98435W        W70106  32.875  29.037  13.020
98436W        W70107  12.533  24.692   5.026
98437W        W70108   7.339  17.557   1.807
98438W        W70109  39.539  24.580   3.686
98439W        W70110   7.737  18.471   2.177
98440W        W70111  42.399  44.228   0.932
98441W        W70112  20.775  23.663   5.559
98442W        W70113   3.015   2.459   1.247
98443W        W70114  42.873  33.840  13.297
98444W        W70115  33.495  44.538   3.238
98445W        W70116  17.841   4.237   2.636
98446W        W70117   1.724  30.830  13.457
98447W        W70118  39.947  37.865   4.190
98448W        W70119  32.364  25.290  11.125
98449W        W70120   5.791  10.333   4.750
98450W        W70121  16.707   7.125  12.890
98451W        W70122   1.430  44.220  10.464
98452W        W70123  23.791  21.729   0.002
98453W        W70124  32.487  15.094  12.576
98454W        W70125  32.668   8.330   3.419
98455W        W70126  21.149   3.237   4.684
98456W        W70127   1.869  27.895  10.823
98457W        W70128  23.735  43.844  13.892
98458W        W70129   7.738  25.488  12.407
98459W        W70130  26.721   0.831  11.678
98460W        W70131   7.642   3.240   1.241
98461W        W70132  23.337  18.120  12.987
98462W        W70133  26.517  24.113  14.316
98463W        W70134  41.522  31.390  11.179
98464W        W70135   4.256  17.592  10.878
98465W        W70136  27.845  32.554   0.333
98466W        W70137  26.039  40.103   4.647
98467W        W70138  44.317  32.703   0.828
98468W        W70139  34.736  18.591  11.753
98469W        W70140  37.133  28.691   1.141
98470W        W70141  22.068  14.602   4.678
98471W        W70142  40.854   0.394   4.943
98472W        W70143   7.689   4.808  14.465
98473W        W70144   0.240  36.315   4.502
98474W        W70145  16.702  35.062  14.966
98475W        W70146   7.631   0.282   1.385
98476W        W70147  26.571  23.196   2.417
98477W        W70148  18.127  42.561  14.439
98478W        W70149   2.498  20.737   2.280
98479W        W70150  11.301  25.000  13.597
98480W        W70151  37.438  36.177   2.672
98481W        W70152  29.604  13.508  13.916
98482W        W70153  30.120  43.201  11.647
98483W        W70154  38.421  35.607   3.219
98484W        W70155  24.514  17.146  12.024
98485W        W70156  22.933  33.170   3.758
98486W        W70157  10.377  23.700  12.299
98487W        W70158   6.450  14.182   0.686
98488W        W70159  16.175  44.760   1.806
98489W        W70160  25.298  11.766  13.742
98490W        W70161  36.463  34.058   3.676
98491W        W70162  22.204  32.597  10.887
98492W        W70163  37.893   9.353   2.589
98493W        W70164  37.034  19.222  11.409
98494W        W70165   7.640  15.155   2.171
98495W        W70166  23.880   0.956  13.695
98496W        W70167  23.905  22.636   2.354
98497W        W70168  40.554  43.492  10.335
98498W        W70169  32.112   8.846   0.968
98499W        W70170  17.332  14.347   2.413
98500W        W70171  17.542  28.060   3.342
98501W        W70172  43.368  40.960  14.858
98502W        W70173   7.875   1.322   0.949
98503W        W70174  27.866  33.972   3.422
98504W        W70175  30.521  10.415   1.050
98505W        W70176  20.476  32.507   1.253
98506W        W70177  15.485  33.532  12.582
98507W        W70178  33.058  43.912   2.659
98508W        W70179  37.122  12.272   1.203
98509W        W70180   8.262  23.113   3.749
98510W        W70181  19.733  35.529  11.169
98511W        W70182   3.168  43.920  11.635
98512W        W70183  18.069  42.578  12.513
98513W        W70184  43.845  13.198  10.947
98514W        W70185  39.481   1.962  13.795
98515W        W70186  21.475   3.517   2.325
98516W        W70187  25.205  26.584   4.393
98517W        W70188  37.176  32.515  14.552
98518W        W70189  20.703  13.417  13.620
98519W        W70190  15.738  18.343  14.378
98520W        W70191  17.947  19.228   2.665
98521W        W70192   0.671  24.973  13.084
98522W        W70193  21.299  35.371   4.348
98523W        W70194   8.844  34.488  11.006
98524W        W70195  21.690  25.157  13.492
98525W        W70196  39.969  29.009   3.275
98526W        W70197  36.443   1.079   3.732
98527W        W70198  24.215  13.713   2.823
98528W        W70199  35.405  34.929   1.709
98529W        W70200  24.028  42.297  10.726
98530W        W70201   7.778   9.592   0.236
98531W        W70202  42.819  22.925   0.937
98532W        W70203   5.489  16.218   1.892
98533W        W70204  20.252   0.155   3.081
98534W        W70205  15.836  40.646   4.773
98535W        W70206  36.427  36.862   4.283
98536W        W70207  37.698   5.906   0.383
98537W        W70208   4.758   0.261  12.145
98538W        W70209  32.894  11.300   3.636
98539W        W70210  28.658   2.011  12.750
98540W        W70211   1.784   6.964  11.732
98541W        W70212  35.831  39.817   1.237
98542W        W70213   9.824  37.821   1.375
98543W        W70214   6.241  33.217  10.576
98544W        W70215  17.285   9.212   0.657
98545W        W70216  40.382  36.430   1.845
98546W        W70217  42.949  41.027  14.008
98547W        W70218   0.312  11.197   0.871
98548W        W70219   0.265  25.989   4.590
98549W        W70220  19.207  21.991   3.294
98550W        W70221  23.465  43.661  14.293
98551W        W70222  42.946   9.586   0.247
98552W        W70223  38.016  31.207  12.051
98553W        W70224  25.437  16.636   1.485
98554W        W70225   5.413   9.657  11.078
98555W        W70226  38.001  11.816   4.172
98556W        W70227   4.845   1.651  14.373
98557W        W70228  35.320   8.178   1.119
98558W        W70229  20.847   8.907  14.404
98559W        W70230  24.184  21.835   4.941
98560W        W70231  41.111  30.764  13.894
98561W        W70232  23.579   5.934  11.559
98562W        W70233  24.981  13.304   4.119
98563W        W70234  25.145   2.128   3.180
98564W        W70235  27.426  36.446  12.855
98565W        W70236   9.974  32.608   3.134
98566W        W70237  10.671  18.747   3.735
98567W        W70238  22.446  38.340   0.876
98568W        W70239  18.875  25.310  10.225
98569W        W70240  34.899   3.397   1.708
98570W        W70241   5.249  14.852   1.941
98571W        W70242  18.282  44.318  12.064
98572W        W70243  14.055  15.249  10.670
98573W        W70244  38.998  17.785   1.201
98574W        W70245  24.222  11.515  12.078
98575W        W70246   2.760  33.947   4.289
98576W        W70247  18.434   2.557   3.890
98577W        W70248  39.067  28.568   0.851
98578W        W70249  24.603  43.959   3.681
98579W        W70250  34.075  44.972   3.521
98580W        W70251  25.940  25.516   2.713
98581W        W70252  29.420  43.448   0.812
98582W        W70253  37.048  24.457  14.249
98583W        W70254  40.610  34.358  14.477
98584W        W70255  33.575   9.640   3.656
98585W        W70256  18.034  43.431   3.389
98586W        W70257  14.609  22.833   2.240
98587W        W70258  24.448  30.961  13.857
98588W        W70259  44.748  34.955   3.203
98589W        W70260   6.720  26.824   9.741
98590W        W70261  33.685  25.506   4.869
98591W        W70262  17.234  26.697   4.031
98592W        W70263  24.023  13.873   3.681
98593W        W70264   8.587  11.664   4.606
98594W        W70265  35.858  18.590   0.239
98595W        W70266   5.582  24.584  12.949
98596W        W70267   6.238  32.158   2.854
98597W        W70268  34.995  28.907   2.421
98598W        W70269   1.443  27.603   1.241
98599W        W70270  28.721   8.212  13.359
98600W        W70271   3.183  43.107  11.910
98601W        W70272  39.890  34.838  12.733
98602W        W70273   5.732  43.055   3.847
98603W        W70274  12.245  17.957   2.256
98604W        W70275  22.230   2.668   2.194
98605W        W70276  15.639  13.428  11.894
98606W        W70277   1.856  36.028  10.747
98607W        W70278  27.327  34.074   3.829
98608W        W70279  11.857   8.484  11.167
98609W        W70280  21.923  43.435  12.855
98610W        W70281   1.314   1.777   1.839
98611W        W70282  38.567   1.854  12.221
98612W        W70283  22.841  26.528   4.176
98613W        W70284  24.530  26.425   0.865
98614W        W70285  31.101  15.144   3.725
98615W        W70286  33.601  23.169   4.886
98616W        W70287  43.580  37.115   2.294
98617W        W70288  14.144  24.980   4.165
98618W        W70289   8.845  36.063   4.592
98619W        W70290  33.808  10.330  12.497
98620W        W70291  30.074   4.254  11.675
98621W        W70292   1.849  32.001  11.283
98622W        W70293  39.379  30.592   1.656
98623W        W70294  17.374  30.503  12.950
98624W        W70295  38.341  44.321   2.630
98625W        W70296   3.678  11.910  12.917
98626W        W70297  14.842   4.821  14.962
98627W        W70298   5.589   3.908   4.692
98628W        W70299  12.767  43.455   1.167
98629W        W70300  35.440  31.423  11.033
98630W        W70301  26.410  38.049   4.477
98631W        W70302  43.328  32.935   1.698
98632W        W70303  35.170  12.188  14.805
98633W        W70304  41.845  41.435   2.695
98634W        W70305   5.760  33.923  10.592
98635W        W70306   8.120  11.337  13.127
98636W        W70307  36.424  22.663   4.535
98637W        W70308  16.203  44.259  13.564
98638W        W70309  35.428  25.099   0.280
98639W        W70310  27.689  24.197   4.543
98640W        W70311  16.039   3.784   3.315
98641W        W70312  31.399  36.341  11.459
98642W        W70313  32.466  44.425   4.157
98643W        W70314  35.936  26.970  11.066
98644W        W70315   2.162   0.928   2.682
98645W        W70316  15.595  35.289  14.253
98646W        W70317  36.584  23.545  12.201
98647W        W70318  14.105  36.514  13.806
98648W        W70319  19.797  41.502  10.660
98649W        W70320  37.005  27.185   4.675
98650W        W70321  30.757  11.801  10.779
98651W        W70322  22.673  26.208  14.280
98652W        W70323  11.676  43.434   3.185
98653W        W70324   7.255  28.036   4.286
98654W        W70325  38.358  40.519   1.792
98655W        W70326  24.982  23.002  12.200
98656W        W70327  28.047  38.555  11.012
98657W        W70328  27.913   8.706   3.642
98658W        W70329  25.765  17.682  13.154
98659W        W70330  24.224  15.162  14.769
98660W        W70331   7.793  40.333   2.880
98661W        W70332  42.361   8.629  12.942
98662W        W70333  37.561  20.594  13.391
98663W        W70334   9.143   2.017  10.791
98664W        W70335  10.892  33.178   1.362
98665W        W70336  18.240  32.091   1.704
98666W        W70337   8.670  17.730   4.304
98667W        W70338   1.148   1.218  14.180
98668W        W70339  37.494  11.422   2.382
98669W        W70340   6.856  40.835  10.757
98670W        W70341   0.819  12.146   4.640
98671W        W70342  26.431  24.291   3.227
98672W        W70343  40.111  42.213  14.920
98673W        W70344  27.192  34.034   2.799
98674W        W70345  24.397  25.620   1.765
98675W        W70346  40.473  10.560  13.078
98676W        W70347  41.042  27.610   0.833
98677W        W70348  24.157  28.137  11.083
98678W        W70349  36.060  28.529   4.171
98679W        W70350  32.006  41.966   2.404
98680W        W70351  26.590  13.661  13.345
98681W        W70352  32.811  24.993  13.978
98682W        W70353  44.373   0.296   0.574
98683W        W70354  35.156  37.607  14.138
98684W        W70355  24.082  14.040  14.805
98685W        W70356   6.229  21.179   0.844
98686W        W70357  29.401  33.126  10.516
98687W        W70358  34.078  13.758  13.355
98688W        W70359  26.665  13.045  12.487
98689W        W70360  37.101   2.846  14.998
98690W        W70361  17.259  37.937   3.228
98691W        W70362  41.322   0.278  12.005
98692W        W70363  18.540   1.483  11.522
98693W        W70364   8.707  42.948  13.131
98694W        W70365  11.868  23.039  14.706
98695W        W70366  19.231  27.171   2.863
98696W        W70367   0.173  43.572  14.975
98697W        W70368  44.038   2.433  12.044
98698W        W70369  16.704  36.982  11.936
98699W        W70370   5.237  17.334  10.579
98700W        W70371  16.997  13.426  11.195
98701W        W70372  11.782  43.965   0.455
98702W        W70373  21.502  27.995  11.912
98703W        W70374  27.910  19.807  11.109
98704W        W70375   7.801  29.809  10.749
98705W        W70376  36.990  26.251   4.536
98706W        W70377  21.719  18.613   0.321
98707W        W70378   5.419  21.789   0.822
98708W        W70379   7.424  29.064   1.672
98709W        W70380  17.851  19.603  11.597
98710W        W70381  17.687  34.859  10.577
98711W        W70382  22.873  35.461   2.804
98712W        W70383  30.666  17.641  13.827
98713W        W70384  31.610  40.960   0.730
98714W        W70385  33.082   6.829   4.709
98715W        W70386  38.018  30.174  12.037
98716W        W70387  34.457  25.160   2.378
98717W        W70388  42.715  10.873   4.201
98718W        W70389  40.972  40.394  12.208
98719W        W70390  15.063   5.748  14.374
98720W        W70391  16.248  20.104   2.860
98721W        W70392  31.914  35.019  13.788
98722W        W70393  16.812  38.931   4.065
98723W        W70394  23.839  13.224  12.027
98724W        W70395  13.191  15.300  12.173
98725W        W70396  10.143  10.412  10.198
98726W        W70397  25.058   2.006  13.393
98727W        W70398  16.541  40.087  12.113
98728W        W70399  26.953  17.090  10.539
98729W        W70400  26.483  11.143  10.673
98730W        W70401  34.994  22.019  14.001
98731W        W70402  40.946  18.890   2.043
98732W        W70403  12.549  16.244  11.486
98733W        W70404  37.557  21.186  11.928
98734W        W70405  16.956  37.902  14.826
98735W        W70406   0.693  26.997  14.817
98736W        W70407  21.702   4.799  13.827
98737W        W70408  25.710   6.194   1.464
98738W        W70409  36.800  17.911   2.070
98739W        W70410  23.235  23.307  13.463
98740W        W70411  25.333  35.873   2.804
98741W        W70412  17.245  25.158  10.671
98742W        W70413  32.945  21.815   2.804
98743W        W70414  17.575  28.498   4.492
98744W        W70415  11.324   1.725  11.178
98745W        W70416  44.387  19.678   0.938
98746W        W70417  13.704  32.768   2.339
98747W        W70418   8.669  19.763  13.186
98748W        W70419  11.629   9.670  14.402
98749W        W70420   6.675  37.322   0.221
98750W        W70421  24.134   8.130   1.775
98751W        W70422  11.107   8.560  11.582
98752W        W70423  34.109   5.351   2.310
98753W        W70424  32.029  27.469   3.145
98754W        W70425  35.397  13.272  11.566
98755W        W70426  29.743   9.933  13.602
98756W        W70427  40.553  16.000   0.373
98757W        W70428  10.054   2.853   4.255
98758W        W70429  42.845  11.919   2.608
98759W        W70430  18.928  12.866   2.707
98760W        W70431  43.142  32.928   3.779
98761W        W70432  11.203  34.622  12.862
98762W        W70433  11.639  19.243  11.401
98763W        W70434  39.412  19.231   3.416
98764W        W70435  17.518  37.601  11.986
98765W        W70436  41.358  43.472   4.573
98766W        W70437  36.520  34.863  11.347
98767W        W70438  19.040  40.811  13.559
98768W        W70439  42.819  26.176   4.228
98769W        W70440  11.716  23.717  12.994
98770W        W70441  18.339  19.190  12.143
98771W        W70442   3.206  28.095   0.529
98772W        W70443  10.398  35.439   1.664
98773W        W70444  12.130  29.195  11.882
98774W        W70445  34.370  17.709   2.631
98775W        W70446  12.410  14.782   3.036
98776W        W70447  43.023   2.532  14.034
98777W        W70448  31.857  36.431   3.138
98778W        W70449   5.782  21.605   3.630
98779W        W70450  28.639  28.046   4.285
98780W        W70451  12.047  23.632   4.803
98781W        W70452  29.976  24.466  13.031
98782W        W70453  19.366   2.792  12.913
98783W        W70454  27.577  15.245   3.182
98784W        W70455  11.764  16.173   1.240
98785W        W70456  13.138  26.844   2.205
98786W        W70457   1.262   8.064   1.473
98787W        W70458  21.273  19.390  13.777
98788W        W70459  36.594  19.689  11.678
98789W        W70460   7.801  13.322   3.939
98790W        W70461  22.416  42.280  13.498
98791W        W70462  11.229  41.577   4.523
98792W        W70463   3.413  20.476   5.730
98793W        W70464  24.124   2.659  11.144
98794W        W70465  29.121  42.345   3.411
98795W        W70466  25.463  16.664  11.016
98796W        W70467  42.895  16.545   2.854
98797W        W70468  38.447  23.073  10.894
98798W        W70469  39.063  28.683   1.381
98799W        W70470  37.824  23.181  11.534
98800W        W70471   7.894  12.088   5.006
98801W        W70472   2.026  37.793  13.468
98802W        W70473   5.828   8.730  11.623
98803W        W70474  22.056  25.266  12.339
98804W        W70475  29.666  43.602   0.247
98805W        W70476  44.907   5.226   3.656
98806W        W70477  15.775   8.446  14.792
98807W        W70478  28.068  15.474   3.752
98808W        W70479  39.324  31.373   0.808
98809W        W70480  31.716  19.148   3.344
98810W        W70481  14.563  25.275  10.258
98811W        W70482   7.316  37.044  14.478
98812W        W70483  10.235  14.606   5.056
98813W        W70484  35.138  28.426   0.530
98814W        W70485  32.023  19.595  11.212
98815W        W70486  36.365  28.626   3.707
98816W        W70487  21.603  38.714   4.506
98817W        W70488  21.826  11.570   4.186
98818W        W70489  39.677  31.991   1.792
98819W        W70490  25.146  44.274  12.916
98820W        W70491   7.190  35.355  14.841
98821W        W70492  30.938  17.140  13.921
98822W        W70493  14.257  24.758  12.487
98823W        W70494  36.663  15.645  10.461
98824W        W70495  29.748  37.984   3.247
98825W        W70496  26.070  28.359  10.936
98826W        W70497  42.245  14.697   1.774
98827W        W70498  43.048  11.780   1.783
98828W        W70499  36.064  37.934   1.383
98829W        W70500  37.461  28.470  11.683
98830W        W70501  18.891  17.217   4.766
98831W        W70502  37.455  16.063   0.373
98832W        W70503  21.070  30.036   2.651
98833W        W70504  25.221   9.179   4.406
98834W        W70505   4.651  40.334  14.882
98835W        W70506  19.414  19.111  14.872
98836W        W70507  34.447   3.821   4.862
98837W        W70508  30.491  26.682  12.869
98838W        W70509  33.539  30.745  13.546
98839W        W70510   8.234  37.597   5.202
98840W        W70511   5.950  44.838   0.032
98841W        W70512  23.487  24.251   3.700
98842W        W70513   0.897  44.254  12.434
98843W        W70514   4.260  29.046   2.317
98844W        W70515  11.645   8.882   2.850
98845W        W70516   8.722   9.438  13.705
98846W        W70517  31.824  15.663  13.585
98847W        W70518  17.346  28.264  10.324
98848W        W70519  38.761   8.258   1.349
98849W        W70520  11.846  30.689   3.621
98850W        W70521  35.996  30.019  13.811
98851W        W70522  23.650   8.888   4.189
98852W        W70523  44.544  28.534  11.698
98853W        W70524  26.702  25.461  11.503
98854W        W70525   0.770  14.278  11.897
98855W        W70526  34.382   5.436   3.747
98856W        W70527  19.126  11.109  14.356
98857W        W70528  37.462   0.528   0.714
98858W        W70529   4.835  25.198   3.790
98859W        W70530   8.450  43.880   3.772
98860W        W70531  44.973  30.547   3.623
98861W        W70532  42.861  22.550  12.477
98862W        W70533  20.214  25.253  14.308
98863W        W70534  28.799  12.394  14.759
98864W        W70535  13.865  13.212  10.465
98865W        W70536  26.892   7.773   1.418
98866W        W70537  22.421  13.666   1.960
98867W        W70538   7.889  22.977   3.160
98868W        W70539   8.610  38.376  12.480
98869W        W70540  36.318   3.886  12.132
98870W        W70541  44.831  34.679  14.307
98871W        W70542  33.887  10.842  11.968
98872W        W70543  18.172   3.861   2.781
98873W        W70544  36.005  38.080  11.443
98874W        W70545  22.441  31.153   4.062
98875W        W70546  31.921  36.821   0.908
98876W        W70547  38.842   4.287   2.248
98877W        W70548  38.346  33.147  11.454
98878W        W70549  25.080  30.533  14.410
98879W        W70550  27.683  31.582  11.964
98880W        W70551  21.908   6.824  12.959
98881W        W70552   1.851   3.011   0.725
98882W        W70553  20.542   0.188  11.615
98883W        W70554   9.315  27.840   2.338
98884W        W70555  12.739  31.600   5.000
98885W        W70556  12.749  39.879  13.521
98886W        W70557   4.964  39.021   3.338
98887W        W70558   4.365  35.886   0.823
98888W        W70559  32.557   0.177  10.910
98889W        W70560  13.845  20.562   2.195
98890W        W70561  11.287  29.014   3.770
98891W        W70562  10.731  17.995   2.912
98892W        W70563  27.061   1.629   4.313
98893W        W70564  42.847   0.808   3.403
98894W        W70565  29.043   5.248   3.682
98895W        W70566  39.746  19.555  14.193
98896W        W70567   5.657  26.464  14.522
98897W        W70568  30.643  42.381   4.807
98898W        W70569   2.906  37.582  14.304
98899W        W70570  26.109   5.299   3.302
98900W        W70571  27.822  17.270   4.082
98901W        W70572  28.005  34.415   1.305
98902W        W70573   5.933   7.206   2.622
98903W        W70574  29.056  12.295   2.396
98904W        W70575  29.072  18.180   0.653
98905W        W70576  10.457  22.197   0.871
98906W        W70577  12.688  43.358  12.134
98907W        W70578  28.162  41.149   1.351
98908W        W70579  11.385  10.716  14.824
98909W        W70580  44.864  43.750   3.112
98910W        W70581   2.818  26.107   4.889
98911W        W70582  27.357   9.892   9.618
98912W        W70583  17.055   4.840   0.157
98913W        W70584   9.927  18.061   2.275
98914W        W70585   4.171   9.718   2.010
98915W        W70586  12.594  34.897   3.804
98916W        W70587   0.799  18.623  10.945
98917W        W70588  13.278  44.375  12.565
98918W        W70589  12.289   5.955   4.558
98919W        W70590  30.563  28.082   0.407
98920W        W70591  35.558  36.688   3.199
98921W        W70592  26.110   2.431   1.913
98922W        W70593   1.337  43.768   4.189
98923W        W70594  40.477  25.958   1.293
98924W        W70595   9.368  32.617   4.784
98925W        W70596  42.815  11.309  14.341
98926W        W70597  31.109   2.197   2.899
98927W        W70598  18.369  12.494  11.335
98928W        W70599  12.573   2.435  14.233
98929W        W70600  22.205  28.975   0.337
98930W        W70601  42.270   4.384  13.295
98931W        W70602  32.783   6.760   4.269
98932W        W70603  24.637  44.945  14.442
98933W        W70604  30.064  22.169  13.385
98934W        W70605  44.321  39.498  13.367
98935W        W70606  16.332   8.559  14.950
98936W        W70607  23.738  13.325  11.529
98937W        W70608  44.003  36.523   0.270
98938W        W70609   1.800  36.167   3.616
98939W        W70610   1.750  32.881   1.141
98940W        W70611  44.295  37.634   0.571
98941W        W70612  39.859   0.093  11.237
98942W        W70613  37.185   9.195  11.925
98943W        W70614  32.994  10.116  11.659
98944W        W70615  27.620  32.673   3.392
98945W        W70616  22.562  12.136   4.685
98946W        W70617  25.678  33.153   4.112
98947W        W70618  43.446  10.389  14.167
98948W        W70619  21.576  34.472  13.008
98949W        W70620  33.010  16.885   0.573
98950W        W70621   8.531  13.353  14.009
98951W        W70622  18.585  30.912   0.303
98952W        W70623  42.397  34.079   3.912
98953W        W70624  20.623   4.827  11.570
98954W        W70625  44.503  12.533  14.422
98955W        W70626  17.535  28.152  12.095
98956W        W70627  14.352   8.401   1.784
98957W        W70628  42.155   7.399  13.064
98958W        W70629   4.503  14.276  10.793
98959W        W70630  20.731  26.281  12.990
98960W        W70631  37.236  29.514   4.212
98961W        W70632   4.133  26.338   3.694
98962W        W70633   7.919  31.335   0.400
98963W        W70634   6.014  19.718   3.565
98964W        W70635  15.648   3.879   0.497
98965W        W70636  35.132  37.986  13.529
98966W        W70637  10.856  35.003  14.467
98967W        W70638   4.266   0.711   0.963
98968W        W70639  28.435  37.904   1.467
98969W        W70640  36.016  22.994  11.284
98970W        W70641  24.267  17.090  13.392
98971W        W70642  16.383  11.721   2.849
98972W        W70643   3.848  13.194   0.997
98973W        W70644  41.957  24.771   2.190
98974W        W70645  31.761  12.267  12.219
98975W        W70646  10.265  40.950  11.695
98976W        W70647   6.096  34.677   4.145
98977W        W70648   0.817  29.143  13.435
98978W        W70649  22.104  41.538  11.864
98979W        W70650   6.345  40.828  10.698
98980W        W70651  41.440  40.017   2.614
98981W        W70652   6.304  15.978   9.972
98982W        W70653   5.873   3.499  10.587
98983W        W70654  31.099   7.299  10.818
98984W        W70655  31.793  14.028   0.788
98985W        W70656  22.629  18.214  10.203
98986W        W70657  39.465  39.164   3.202
98987W        W70658  22.486  43.332  12.769
98988W        W70659  30.640  15.639  14.402
98989W        W70660  38.074  33.558  14.066
98990W        W70661  29.841  13.891  11.174
98991W        W70662   8.897  42.325   3.107
98992W        W70663  22.817   0.118  14.048
98993W        W70664  36.479  43.409  11.583
98994W        W70665  21.157   0.342  12.563
98995W        W70666  33.037  34.603  11.814
98996W        W70667  36.105   7.197   1.883
98997W        W70668   0.427   9.744   3.803
98998W        W70669  34.650  33.531   3.710
98999W        W70670  11.811  30.577  12.020
99000W        W70671  21.311   6.356   2.932
99001W        W70672  22.934   4.669  11.530
99002W        W70673   0.484   8.133   4.527
99003W        W70674  11.310  11.500   0.750
99004W        W70675  30.434  41.748  12.050
99005W        W70676  41.521  40.796  14.566
99006W        W70677   1.343  15.281  13.782
99007W        W70678   0.914  36.116   3.707
99008W        W70679  10.441   9.991   5.136
99009W        W70680  40.358  19.407  13.320
99010W        W70681  21.427   7.774   2.342
99011W        W70682  15.823  42.449   1.816
99012W        W70683  11.807  32.074  11.511
99013W        W70684  39.411  23.306  11.046
99014W        W70685  40.324  17.331   3.217
99015W        W70686  36.758  37.186   1.462
99016W        W70687  32.809  41.481   0.809
99017W        W70688  35.747  36.533  12.970
99018W        W70689  33.158  43.680  14.647
99019W        W70690  44.447  20.103  10.189
99020W        W70691  20.717  43.049   3.619
99021W        W70692   8.072  27.001  11.317
99022W        W70693  30.855   5.160   1.980
99023W        W70694  17.177   4.021  10.961
99024W        W70695  28.747   3.353  11.738
99025W        W70696  43.903  10.585   4.723
99026W        W70697   2.407  11.817  12.974
99027W        W70698  10.474  30.989  13.950
99028W        W70699   6.303  32.835  13.854
99029W        W70700  27.477  20.227   2.581
99030W        W70701  23.772  32.519   4.138
99031W        W70702   0.013  41.270   3.317
99032W        W70703  28.215   5.745  13.588
99033W        W70704   1.173  42.759  13.428
99034W        W70705   4.808  41.236   4.260
99035W        W70706  37.530  39.323  11.455
99036W        W70707   7.156  43.580  11.566
99037W        W70708  18.667  40.472   2.796
99038W        W70709  33.111  26.224  11.533
99039W        W70710  24.056  31.600   1.953
99040W        W70711  35.589  39.335   1.226
99041W        W70712  16.363  14.613   2.372
99042W        W70713  15.523  30.706  12.568
99043W        W70714   6.707  19.222   4.968
99044W        W70715  33.129  40.025   2.728
99045W        W70716   4.150  11.640  11.032
99046W        W70717  21.614  30.357  12.024
99047W        W70718  14.823   3.283  10.272
99048W        W70719  18.386  20.480  11.164
99049W        W70720  24.973   2.138  11.217
99050W        W70721  30.981  31.988  14.812
99051W        W70722  26.775  39.375  10.547
99052W        W70723   6.917  21.344  14.604
99053W        W70724  17.595  17.369   4.219
99054W        W70725  15.094  31.762   1.388
99055W        W70726   1.987  43.862  11.941
99056W        W70727  16.351  22.205  11.182
99057W        W70728   2.748  38.142   1.586
99058W        W70729  32.695  34.234  10.657
99059W        W70730  18.581  25.041  10.608
99060W        W70731  33.344  14.280   2.218
99061W        W70732  44.836  20.662  12.814
99062W        W70733  12.251  11.751  13.099
99063W        W70734  22.124  27.190  10.727
99064W        W70735  12.134  36.323   1.179
99065W        W70736  11.409  26.378   3.902
99066W        W70737  43.531  30.639  12.290
99067W        W70738  36.274   6.245   5.021
99068W        W70739  12.829  21.702  10.590
99069W        W70740  42.403   4.210   0.804
99070W        W70741  28.935  10.788   3.682
99071W        W70742  30.495  14.113   2.636
99072W        W70743  12.570   2.192   1.644
99073W        W70744   3.916  31.190   1.589
99074W        W70745  32.414  29.509   4.395
99075W        W70746  14.899  32.049   3.584
99076W        W70747  11.249  43.766  13.979
99077W        W70748  22.582   0.632  14.759
99078W        W70749  23.731   1.492  12.348
99079W        W70750  34.914  10.275   2.816
99080W        W70751  34.711   5.549  13.005
99081W        W70752  33.183  38.983  12.865
99082W        W70753   3.400   3.913   0.901
99083W        W70754  33.380   1.467  11.649
99084W        W70755   7.345  12.074  11.465
99085W        W70756  40.754   5.716   0.745
99086W        W70757  24.089   4.613   3.127
99087W        W70758  11.684   4.174  13.782
99088W        W70759   2.415  38.291   0.470
99089W        W70760  18.137   8.144  13.849
99090W        W70761  19.934  17.147  11.111
99091W        W70762  33.865  40.572  12.786
99092W        W70763  43.386  20.976  12.127
99093W        W70764  25.655  30.130  13.061
99094W        W70765  10.325  21.492   3.204
99095W        W70766  11.741   0.280  14.836
99096W        W70767  23.317  23.220  12.503
99097W        W70768  40.618  36.428   0.374
99098W        W70769  16.532  37.424  12.093
99099W        W70770  20.074  42.010   3.230
99100W        W70771  18.237   0.458   1.897
99101W        W70772   2.319   0.880  14.935
99102W        W70773  13.795   6.136   3.151
99103W        W70774  19.302  36.935   0.862
99104W        W70775  22.438   8.174   0.531
99105W        W70776  14.341  35.319   0.766
99106W        W70777   5.591  21.454   1.644
99107W        W70778  34.508  34.103   1.633
99108W        W70779  18.569  17.794  13.132
99109W        W70780  44.988  26.597  10.717
99110W        W70781  19.688  14.678   2.867
99111W        W70782  22.746  36.336  14.741
99112W        W70783  12.604  44.403   3.554
99113W        W70784  32.692   9.706   2.419
99114W        W70785   4.325   2.685  13.107
99115W        W70786   4.607  11.184   2.732
99116W        W70787  34.052   4.959   2.668
99117W        W70788  29.193  26.440  10.434
99118W        W70789   3.524  43.295   5.379
99119W        W70790   7.527  34.903   2.687
99120W        W70791  40.240  14.029   3.053
99121W        W70792  14.046  14.795   1.822
99122W        W70793  19.337  13.671   5.103
99123W        W70794   2.497   0.980   2.304
99124W        W70795  21.926  41.897   5.082
99125W        W70796  19.896  41.885   0.304
99126W        W70797   2.946  34.107   1.947
99127W        W70798   3.525  33.509  14.864
99128W        W70799  15.312  41.313   1.855
99129W        W70800  23.987   7.824  14.786
99130W        W70801  27.111  33.287   0.587
99131W        W70802  40.960  16.570   2.055
99132W        W70803  35.398   6.745   0.204
99133W        W70804  14.528  37.217  12.246
99134W        W70805  14.575   7.264   9.770
99135W        W70806   6.302   8.236   4.237
99136W        W70807  41.517  12.023   4.248
99137W        W70808  28.247  16.501  14.568
99138W        W70809  14.557  42.735   3.349
99139W        W70810   8.735  30.165  14.736
99140W        W70811   9.823  11.191  14.223
99141W        W70812  12.780   5.281  14.265
99142W        W70813   5.613   2.331  13.878
99143W        W70814   9.528   1.606   4.183
99144W        W70815  13.639   1.192  11.583
99145W        W70816  17.253  32.420   4.548
99146W        W70817  14.182  28.417  11.013
99147W        W70818  37.187  21.451  11.696
99148W        W70819  25.040  39.762  14.275
99149W        W70820  36.971  11.220   4.696
99150W        W70821  44.922  33.331  10.639
99151W        W70822  15.277  29.473   4.700
99152W        W70823  17.099  41.091   0.230
99153W        W70824   1.050  20.246  14.784
99154W        W70825   2.385  17.785  13.868
99155W        W70826  37.127  43.983   3.742
99156W        W70827   8.282  31.923   1.200
99157W        W70828  24.142  21.522  10.947
99158W        W70829  34.383  17.641  12.586
99159W        W70830   8.812  22.735  13.482
99160W        W70831  13.693  10.746  13.024
99161W        W70832   6.715  32.024  12.998
99162W        W70833  32.981   2.985  13.460
99163W        W70834  14.564  17.415  14.426
99164W        W70835  12.561  41.397  12.837
99165W        W70836  14.464  32.679   1.847
99166W        W70837   6.267  27.391  11.116
99167W        W70838  44.182  11.670   2.735
99168W        W70839  14.089   0.734  11.137
99169W        W70840   9.137  23.657   3.385
99170W        W70841  26.461   6.777  14.380
99171W        W70842  10.195  23.030   2.494
99172W        W70843  38.344  13.259  13.679
99173W        W70844   8.852   9.010   4.535
99174W        W70845  28.107  20.989   3.738
99175W        W70846  16.366  10.846   3.963
99176W        W70847  10.446  35.866  13.107
99177W        W70848   1.955  12.741  12.449
99178W        W70849  17.241  26.043  13.928
99179W        W70850  27.482   9.342  14.800
99180W        W70851  17.910  42.267  11.559
99181W        W70852  23.056   7.093   4.194
99182W        W70853   4.685  11.847   3.261
99183W        W70854  43.294  26.251   1.440
99184W        W70855  35.900   3.735   2.296
99185W        W70856   3.321  19.718   3.660
99186W        W70857  15.913   7.630  12.699
99187W        W70858   8.689  23.987  11.942
99188W        W70859  41.151  17.201   4.941
99189W        W70860  30.406  24.268   2.811
99190W        W70861  39.282  18.523  14.325
99191W        W70862  28.009  30.174   0.467
99192W        W70863  34.239   2.922   4.143
99193W        W70864  43.534  31.013  12.633
99194W        W70865  17.157  28.445  14.746
99195W        W70866  23.121  23.338   2.164
99196W        W70867  39.356  44.026   4.498
99197W        W70868   2.547  34.949   3.372
99198W        W70869  19.290   0.294   2.700
99199W        W70870  12.572  43.452  10.786
99200W        W70871  17.866  42.975   3.109
99201W        W70872   7.452  29.382  12.072
99202W        W70873  24.201  12.797   4.131
99203W        W70874  20.292  32.602   3.654
99204W        W70875   6.633   7.596  10.575
99205W        W70876  25.649   8.442  13.518
99206W        W70877  39.960   1.365  13.629
99207W        W70878  26.634   5.673  10.661
99208W        W70879  16.421  38.536  14.473
99209W        W70880  19.341  37.168  11.466
99210W        W70881  29.619  41.189   2.245
99211W        W70882  39.640  26.309  11.415
99212W        W70883  19.433  40.663  11.026
99213W        W70884   2.305  40.360  11.105
99214W        W70885  22.417  32.900   0.379
99215W        W70886  25.344  15.334   3.206
99216W        W70887  16.206  12.174   2.675
99217W        W70888  35.450  35.715  13.783
99218W        W70889  34.611  34.568  10.928
99219W        W70890  11.078  34.966  10.548
99220W        W70891   7.946  43.224   2.073
99221W        W70892  37.799  35.542   4.582
99222W        W70893   1.886   6.078   4.555
99223W        W70894  39.874  35.973  10.807
99224W        W70895  25.599   6.422  13.919
99225W        W70896   8.351  41.936  10.495
99226W        W70897  26.122  25.031   4.505
99227W        W70898  20.965  28.607   2.248
99228W        W70899  13.379  36.045   0.411
99229W        W70900  26.086   3.853  14.907
99230W        W70901   1.025  30.465   1.662
99231W        W70902   6.809  37.084  10.662
99232W        W70903  41.608   5.266   0.493
99233W        W70904  39.805   9.427  11.002
99234W        W70905  11.333  28.756  13.358
99235W        W70906  41.762  17.178  12.008
99236W        W70907  33.280  24.042   4.228
99237W        W70908  23.527  44.494  12.397
99238W        W70909  36.314   8.950  12.914
99239W        W70910  33.648  19.467   4.863
99240W        W70911   3.953  38.046  10.637
99241W        W70912  40.322  37.818   2.377
99242W        W70913   3.198   8.424  13.343
99243W        W70914  31.611  33.377  11.079
99244W        W70915  10.041   1.476  12.989
99245W        W70916   9.480  34.312  13.407
99246W        W70917  41.594  11.188  10.985
99247W        W70918  36.150  28.521   0.764
99248W        W70919  14.325  23.266  14.248
99249W        W70920   4.807  42.580   0.372
99250W        W70921  35.588  31.508  14.781
99251W        W70922  26.963  22.781  13.102
99252W        W70923  18.369  30.252   4.346
99253W        W70924   3.718  29.100   4.206
99254W        W70925  37.404  15.280   2.587
99255W        W70926  13.089  26.494   1.366
99256W        W70927  37.995   1.272   3.651
99257W        W70928  27.035  14.179   0.404
99258W        W70929  16.943  12.933   2.233
99259W        W70930  25.842  29.008   3.599
99260W        W70931   6.373  41.572   3.179
99261W        W70932  10.628  18.884   4.868
99262W        W70933  17.870  40.912  11.706
99263W        W70934  28.773  34.625   0.930
99264W        W70935  11.113  35.311  11.743
99265W        W70936   6.436   5.535  10.139
99266W        W70937   3.279  43.576   2.336
99267W        W70938   2.881  17.683  13.737
99268W        W70939  43.833  28.077   0.307
99269W        W70940  21.467   5.793  14.524
99270W        W70941  27.500  34.227  13.917
99271W        W70942  40.958  43.238  11.118
99272W        W70943  18.756  33.205   5.127
99273W        W70944  21.455  32.988  13.818
99274W        W70945  11.771  29.811  12.501
99275W        W70946   5.517  11.837   0.165
99276W        W70947  10.885  24.072   1.355
99277W        W70948  23.057  22.600   3.418
99278W        W70949  25.582  36.595  14.987
99279W        W70950  40.543  24.722  10.467
99280W        W70951  16.499  33.482  12.348
99281W        W70952  29.627  22.174   4.607
99282W        W70953  13.203  16.153  12.475
99283W        W70954   3.810  30.537  12.068
99284W        W70955  23.547  15.533   4.646
99285W        W70956  35.336  26.126  13.252
99286W        W70957   9.512  38.016   1.025
99287W        W70958  12.824  12.136  14.953
99288W        W70959  37.652   2.163  10.840
99289W        W70960  34.492   0.240  11.231
99290W        W70961  13.078  13.511   3.019
99291W        W70962  34.893  13.898   1.266
99292W        W70963  41.422  27.417  11.573
99293W        W70964  43.877  13.686  14.036
99294W        W70965  42.023  13.259  13.485
99295W        W70966  43.428  24.173  14.710
99296W        W70967   6.721   9.060  14.550
99297W        W70968  25.862  44.699  10.608
99298W        W70969  21.691  21.595  13.089
99299W        W70970  44.561  10.340  10.699
99300W        W70971  41.723   4.943   4.939
99301W        W70972  43.814  25.615   3.390
99302W        W70973  34.463  15.148   4.108
99303W        W70974  22.484  38.131  11.622
99304W        W70975  19.777  28.602  10.633
99305W        W70976  13.334  10.583   0.404
99306W        W70977  24.472  23.256   2.358
99307W        W70978  34.776  40.837   3.367
99308W        W70979  37.577  34.897  13.577
99309W        W70980  43.902   9.389  13.424
99310W        W70981   6.247   3.103   0.413
99311W        W70982   5.693   1.258  14.962
99312W        W70983  16.373  42.807  14.442
99313W        W70984  11.400  27.923  14.007
99314W        W70985   3.865  30.122  12.492
99315W        W70986  38.320  11.629   1.388
99316W        W70987   3.432  18.776  11.605
99317W        W70988  19.910  40.861  12.410
99318W        W70989  14.844   0.940  11.976
99319W        W70990  16.057   2.712   3.807
99320W        W70991  42.834  30.066   3.782
99321W        W70992   5.759  11.726  10.866
99322W        W70993  35.985  22.911  12.685
99323W        W70994  26.499  21.519   0.835
99324W        W70995  44.299  19.236  11.514
99325W        W70996  42.067  35.084  11.114
99326W        W70997  21.971   6.845   2.279
99327W        W70998  19.650  13.284  12.804
99328W        W70999   1.737  32.819   1.679
99329W        W71000   3.457  31.978   2.938
99330W        W71001   7.972  35.243   4.973
99331W        W71002  29.091   5.401   0.265
99332W        W71003   9.272  16.601  14.548
99333W        W71004  20.059  22.109   0.963
99334W        W71005  31.148   7.191   2.754
99335W        W71006  12.685  40.899  13.503
99336W        W71007  42.907  23.395   1.469
99337W        W71008  44.231  23.430   0.710
99338W        W71009  10.891  42.744  13.764
99339W        W71010   4.849  30.895  14.363
99340W        W71011  30.231  35.052   1.849
99341W        W71012  29.233   9.349  12.572
99342W        W71013  31.032  28.885  12.969
99343W        W71014   0.178  19.791  11.599
99344W        W71015  44.098  20.104  13.829
99345W        W71016   0.062  20.733   2.327
99346W        W71017  38.323  21.751  12.218
99347W        W71018   0.880  18.819  12.750
99348W        W71019  35.776  18.319  11.079
99349W        W71020  36.339  13.725  10.733
99350W        W71021  42.311  18.550   1.653
99351W        W71022  24.087  12.333   4.340
99352W        W71023  39.438   0.447  11.293
99353W        W71024  26.945  21.626   1.852
99354W        W71025  24.100  29.873   4.456
99355W        W71026   6.412   2.710   3.084
99356W        W71027  37.485  10.191  13.907
99357W        W71028  25.095  44.467   3.734
99358W        W71029  12.825  32.625   0.378
99359W        W71030   7.873  14.240   3.827
99360W        W71031  32.118   4.107   3.860
99361W        W71032  20.580   0.267  14.830
99362W        W71033  27.939  21.607  12.999
99363W        W71034  12.713  20.097  13.990
99364W        W71035  22.040   6.370   1.317
99365W        W71036  44.828  35.534   3.295
99366W        W71037  43.698  22.253   0.859
99367W        W71038  27.420   9.575  13.473
99368W        W71039  40.927  18.720   2.525
99369W        W71040  38.462  32.577   0.257
99370W        W71041  24.210  30.469  10.434
99371W        W71042  30.197   1.213   4.085
99372W        W71043   1.186  24.604  11.062
99373W        W71044  18.375  35.125  14.260
99374W        W71045  44.705  44.524   4.555
99375W        W71046  20.355  28.562  11.601
99376W        W71047   7.832   9.753   0.743
99377W        W71048  32.449  40.365  13.985
99378W        W71049  35.928  34.571   0.985
99379W        W71050  19.199  24.859  12.052
99380W        W71051   7.182   2.049  14.910
99381W        W71052   0.680  30.503   4.219
99382W        W71053  12.154  38.500   2.751
99383W        W71054  28.097  35.555  14.959
99384W        W71055  41.011  33.130   4.848
99385W        W71056  14.920   2.105   3.162
99386W        W71057  12.531  29.105   3.227
99387W        W71058  42.921  14.741   4.929
99388W        W71059  28.400  44.719   1.817
99389W        W71060  23.507   6.693  14.550
99390W        W71061  18.322  36.031  14.287
99391W        W71062   6.940  33.451  14.499
99392W        W71063  25.629  29.711   0.428
99393W        W71064  38.909  18.531   3.152
99394W        W71065  30.579  38.464   1.245
99395W        W71066   7.748  12.586   4.869
99396W        W71067  21.675  24.262   2.669
99397W        W71068   0.745  41.082   4.844
99398W        W71069  24.183  21.497  11.861
99399W        W71070   0.204   0.004  10.719
99400W        W71071  10.809  27.042   4.602
99401W        W71072  39.316  11.162  14.474
99402W        W71073  16.732  18.770  12.695
99403W        W71074   4.815  25.535  14.413
99404W        W71075  14.334  27.968   3.648
99405W        W71076  24.250  11.835   1.308
99406W        W71077   7.016  36.148  13.959
99407W        W71078   6.785  36.588  12.683
99408W        W71079  39.989   3.636   1.690
99409W        W71080  14.205  39.791   2.100
99410W        W71081  21.279   9.202  14.274
99411W        W71082   3.854   4.111  14.864
99412W        W71083  21.587  22.454   2.481
99413W        W71084  25.336  18.970   5.313
99414W        W71085  25.596  28.209  14.019
99415W        W71086   3.317  35.781  10.660
99416W        W71087   9.846  18.085   2.978
99417W        W71088  31.151  22.201   3.278
99418W        W71089  19.208   7.322   1.713
99419W        W71090  12.293  11.296   4.778
99420W        W71091   2.421  39.951   3.874
99421W        W71092  42.347  16.425   0.795
99422W        W71093  16.808  23.014  10.665
99423W        W71094  29.971  37.173   1.718
99424W        W71095  25.672  15.185  14.346
99425W        W71096  10.356  11.202  14.321
99426W        W71097  21.305  38.926   1.296
99427W        W71098  24.040   5.896   3.214
99428W        W71099   3.357   3.872  13.938
99429W        W71100  40.970  21.931  14.886
99430W        W71101  34.291   2.103  13.422
99431W        W71102   5.827  33.391  13.078
99432W        W71103   9.749   0.291  14.590
99433W        W71104  12.309  40.096  14.878
99434W        W71105  26.218  44.551  14.999
99435W        W71106  29.951  30.130  10.291
99436W        W71107  13.413   8.851   4.099
99437W        W71108  14.063   0.401   2.648
99438W        W71109  22.527  34.236  11.379
99439W        W71110  34.889   5.210   1.814
99440W        W71111   0.313   2.266  10.734
99441W        W71112  43.982   9.100   2.188
99442W        W71113   2.635  22.116   0.888
99443W        W71114  20.264  14.695   5.097
99444W        W71115  21.711  29.362   0.297
99445W        W71116   6.857  36.356  11.717
99446W        W71117  35.346  32.602  13.350
99447W        W71118  40.596   0.842  10.909
99448W        W71119  40.792  23.944  10.813
99449W        W71120  24.091  42.459  11.567
99450W        W71121  36.558  31.305   2.844
99451W        W71122   5.199   9.305   3.650
99452W        W71123   9.242  40.917   3.629
99453W        W71124  34.537  44.080  14.401
99454W        W71125  36.492  10.638   2.365
99455W        W71126  43.352   7.964   1.970
99456W        W71127  20.900   7.851   5.114
99457W        W71128  38.066  11.192  11.772
99458W        W71129  43.287  28.469   1.420
99459W        W71130  42.907  42.577   4.364
99460W        W71131   6.031  32.095   1.834
99461W        W71132   4.763  17.329   4.121
99462W        W71133  15.375  27.515  12.098
99463W        W71134  37.707  22.930   3.614
99464W        W71135   3.542  15.682   4.208
99465W        W71136   8.166   7.829   3.697
99466W        W71137  25.416  12.905   2.343
99467W        W71138   3.375  38.512  13.548
99468W        W71139  22.069   3.883   3.987
99469W        W71140  23.196  14.547   0.022
99470W        W71141  30.538  30.674  13.484
99471W        W71142  16.147  21.518  12.867
99472W        W71143  33.923   5.289   1.742
99473W        W71144  43.027  12.159   0.501
99474W        W71145   8.572  43.931   0.525
99475W        W71146  25.201  22.721   0.742
99476W        W71147   7.693  39.435   4.088
99477W        W71148  42.067  41.881   2.711
99478W        W71149  37.062  12.682   3.678
99479W        W71150   3.836  11.814  12.459
99480W        W71151  40.453  23.040   4.095
99481W        W71152  43.364  38.326   5.570
99482W        W71153  41.537  31.864   1.453
99483W        W71154  38.062  13.702  12.253
99484W        W71155  36.978  14.868   0.798
99485W        W71156  31.454   8.413   4.638
99486W        W71157  39.279  20.979   0.886
99487W        W71158  32.141  42.497  13.784
99488W        W71159   7.334  28.523   4.511
99489W        W71160  16.028   6.566  10.605
99490W        W71161  17.438   0.472  14.825
99491W        W71162  21.004   5.975   3.982
99492W        W71163  41.793  25.620  11.519
99493W        W71164  17.639  38.963  13.282
99494W        W71165  43.038  14.837   1.259
99495W        W71166   2.247  16.296  14.011
99496W        W71167  37.275  29.670  12.285
99497W        W71168  15.178  25.943   2.872
99498W        W71169   7.198  24.938  11.925
99499W        W71170  23.990  19.218   0.910
99500W        W71171  26.389  23.414  12.420
99501W        W71172  29.358  34.531   2.395
99502W        W71173   9.219  26.415  13.688
99503W        W71174  26.783  30.401   4.092
99504W        W71175  16.923  19.461  11.112
99505W        W71176   0.914  16.983  10.187
99506W        W71177  11.672  23.249  12.783
99507W        W71178   9.750  42.429  12.428
99508W        W71179  38.600  23.090   1.304
99509W        W71180  32.695  32.824  11.147
99510W        W71181   4.609  26.433   2.184
99511W        W71182  34.110  35.359   0.435
99512W        W71183  39.903  34.446  13.930
99513W        W71184  22.058  12.325  12.858
99514W        W71185   9.416  44.786  13.759
99515W        W71186  12.689  12.069   1.029
99516W        W71187  27.554  33.709  13.970
99517W        W71188  38.881  38.894   2.260
99518W        W71189  24.003  17.316   2.749
99519W        W71190   3.198   6.422   2.547
99520W        W71191   0.161  18.081   3.267
99521W        W71192   7.699  19.786  11.994
99522W        W71193  36.780  13.291   0.736
99523W        W71194  42.804  15.530  14.285
99524W        W71195   9.798  24.110  14.975
99525W        W71196   0.305  34.436   1.805
99526W        W71197  43.356   5.284   4.624
99527W        W71198  28.900  37.318   3.243
99528W        W71199   9.845   1.181  13.430
99529W        W71200  44.276  26.569  13.911
99530W        W71201  37.669   9.228  13.084
99531W        W71202  34.785  13.875  11.427
99532W        W71203   9.186  12.805  10.590
99533W        W71204  44.477  24.069   3.308
99534W        W71205  44.318  43.514   4.594
99535W        W71206   1.156  27.055  11.874
99536W        W71207   8.555  27.267  12.133
99537W        W71208  34.083   9.406  14.038
99538W        W71209  24.625  13.753  11.741
99539W        W71210  18.212  33.019   3.254
99540W        W71211   6.874  15.335   1.738
99541W        W71212  31.293  15.070   2.843
99542W        W71213  35.945  19.584   0.454
99543W        W71214  43.790  27.632   2.064
99544W        W71215   9.772   4.754  14.812
99545W        W71216  43.029  25.879   1.664
99546W        W71217  15.060  17.393   3.893
99547W        W71218  10.366   5.116  11.941
99548W        W71219  37.944  11.730   1.732
99549W        W71220  22.081  14.699   3.600
99550W        W71221  16.648  16.199  13.417
99551W        W71222  24.090   4.964  14.572
99552W        W71223   7.512   0.851  11.659
99553W        W71224  44.421  29.080  14.777
99554W        W71225  40.086  18.160  14.330
99555W        W71226   1.346   2.350   2.787
99556W        W71227   4.932  40.488  10.685
99557W        W71228  31.183   0.847   2.315
99558W        W71229  15.431  21.125  14.427
99559W        W71230  30.206  43.877   1.160
99560W        W71231  41.349   6.870   0.067
99561W        W71232  43.083  24.257   0.247
99562W        W71233  33.281   7.277  12.047
99563W        W71234  25.022  13.629   1.893
99564W        W71235   8.646  28.515   1.760
99565W        W71236  41.682  39.000   9.890
99566W        W71237  22.044   0.330   1.879
99567W        W71238  27.328  11.218   4.161
99568W        W71239  14.277  25.656   3.301
99569W        W71240   0.047  42.550   2.992
99570W        W71241  23.018  41.339  12.862
99571W        W71242  25.054  34.909   0.592
99572W        W71243  11.828   3.840   3.700
99573W        W71244  14.156  27.131   3.353
99574W        W71245  19.695  43.188  11.103
99575W        W71246  26.461  20.282  13.442
99576W        W71247  12.364  41.919   2.045
99577W        W71248   9.587   6.463   0.507
99578W        W71249  40.326  11.736  12.516
99579W        W71250   8.268  28.564  12.857
99580W        W71251  37.915  38.627  11.584
99581W        W71252  33.508  41.833  13.224
99582W        W71253  40.553   8.808   0.243
99583W        W71254  16.481  13.836   0.553
99584W        W71255   7.415  11.683  12.429
99585W        W71256  12.929  28.621  10.989
99586W        W71257  40.414  39.290   0.946
99587W        W71258   6.847  19.121   0.349
99588W        W71259   8.539  22.464  10.774
99589W        W71260  33.758  18.583  11.555
99590W        W71261   3.695  41.938   1.725
99591W        W71262  19.823  31.884   4.137
99592W        W71263  25.440  35.040   3.589
99593W        W71264   7.019   0.289  14.352
99594W        W71265  42.012  23.275  10.642
99595W        W71266  14.341  36.377  12.071
99596W        W71267   7.437  10.327   2.120
99597W        W71268  18.634  27.519   2.868
99598W        W71269  16.236  34.913   2.608
99599W        W71270  19.027  20.523  14.063
99600W        W71271   9.489  13.848  12.022
99601W        W71272  16.344  41.827   1.394
99602W        W71273  32.203  24.525  12.647
99603W        W71274  40.035  20.677   2.616
99604W        W71275  25.487   6.953   3.676
99605W        W71276  30.472  17.542  11.511
99606W        W71277  29.103   2.546   4.213
99607W        W71278  23.402   9.491   0.757
99608W        W71279  16.556  31.488   2.699
99609W        W71280  30.032   4.184   1.965
99610W        W71281   2.125  11.672   3.228
99611W        W71282  16.227  14.804   3.681
99612W        W71283  12.263  38.461  12.266
99613W        W71284  19.654  22.787   3.811
99614W        W71285  39.964   3.643   0.866
99615W        W71286  18.121   1.605   2.312
99616W        W71287  14.364   2.515  12.537
99617W        W71288   9.057  42.471  13.642
99618W        W71289  35.028  32.603   4.178
99619W        W71290  40.463  39.569   0.254
99620W        W71291  20.811   2.998   3.286
99621W        W71292   3.842  40.757  14.707
99622W        W71293  44.227   9.715  14.199
99623W        W71294  28.776  42.221   3.778
99624W        W71295  27.936  38.347   5.026
99625W        W71296  39.369  44.757   9.964
99626W        W71297   7.262   1.462  12.459
99627W        W71298  19.518  35.537   3.538
99628W        W71299  13.307  43.988   0.989
99629W        W71300   5.727  28.039  12.171
99630W        W71301  18.036  10.359  14.370
99631W        W71302  32.941  44.919   1.651
99632W        W71303   9.644  40.349  14.597
99633W        W71304  14.154  36.583   0.366
99634W        W71305  19.073  29.383   1.428
99635W        W71306  29.159   9.682  11.961
99636W        W71307   0.480   0.684   4.440
99637W        W71308  16.222  27.446   1.636
99638W        W71309  42.911  22.131  12.908
99639W        W71310  12.459  44.829   0.427
99640W        W71311  19.086  30.402   0.003
99641W        W71312  25.815  18.498   0.415
99642W        W71313  28.422  11.614  11.016
99643W        W71314   2.666  28.385  14.056
99644W        W71315  42.008  11.646   2.625
99645W        W71316  11.943  30.525   4.999
99646W        W71317  25.483  24.385   4.926
99647W        W71318  25.181   1.478  13.464
99648W        W71319  43.918   1.938   4.085
99649W        W71320  25.301   1.268   3.508
99650W        W71321   6.875  39.451   1.366
99651W        W71322   3.559  37.458  12.949
99652W        W71323  30.597  18.133   4.559
99653W        W71324  20.082   0.040  12.918
99654W        W71325  26.490  34.063   4.471
99655W        W71326   8.806  30.984   5.020
99656W        W71327  43.392  38.841  14.888
99657W        W71328  19.806  10.408  11.550
99658W        W71329  33.912   5.836   3.830
99659W        W71330  15.393   3.888  10.384
99660W        W71331  23.169  42.462   3.486
99661W        W71332  20.070  10.407  14.897
99662W        W71333  26.428  41.542   3.894
99663W        W71334  39.961  43.634  11.006
99664W        W71335   4.469  40.033   4.343
99665W        W71336  22.332  30.966  14.312
99666W        W71337  43.212  42.035  11.080
99667W        W71338  25.963  33.959   3.763
99668W        W71339  28.094   4.708   0.481
99669W        W71340  15.332  31.666  12.940
99670W        W71341  12.482   0.736  12.078
99671W        W71342  31.043  22.581  14.723
99672W        W71343  43.022   4.900   4.251
99673W        W71344  33.462   1.164   9.983
99674W        W71345   1.751  19.921   3.805
99675W        W71346  29.612   5.373  12.754
99676W        W71347  40.998   2.737  13.752
99677W        W71348  20.893   2.372  10.712
99678W        W71349  42.784  11.170  10.194
99679W        W71350  35.999   3.052  11.926
99680W        W71351  26.508  44.728   1.914
99681W        W71352  13.011  14.927  11.206
99682W        W71353  33.895  22.319  13.454
99683W        W71354   3.871  25.708  11.708
99684W        W71355   7.652  31.517   4.410
99685W        W71356  12.266  27.019   2.139
99686W        W71357  16.722  11.206  11.706
99687W        W71358  19.815   5.688   0.396
99688W        W71359   1.449  25.198  13.967
99689W        W71360  36.332  25.641   0.467
99690W        W71361  28.049   2.989   1.556
99691W        W71362   8.834  20.452  13.868
99692W        W71363  30.529  28.205   4.041
99693W        W71364  20.789   6.846  14.808
99694W        W71365  25.606   1.456  14.469
99695W        W71366   5.283  20.749   2.955
99696W        W71367  35.572  14.611   2.704
99697W        W71368  31.030  16.354  12.459
99698W        W71369  42.270  18.455  14.295
99699W        W71370  28.959  23.560   2.330
99700W        W71371  43.860  42.036   1.464
99701W        W71372   0.176   8.156   4.108
99702W        W71373   5.187  27.150  12.142
99703W        W71374  35.079  27.105  10.695
99704W        W71375  19.464  26.393  14.278
99705W        W71376  18.827  16.179   4.607
99706W        W71377  38.865   6.358   3.181
99707W        W71378  16.216  18.134   3.721
99708W        W71379  23.578   5.210   2.752
99709W        W71380  22.809   4.063   0.250
99710W        W71381  21.155  40.734   1.027
99711W        W71382  40.494   5.021  13.776
99712W        W71383  35.839  31.961   3.693
99713W        W71384  27.856  24.570  12.277
99714W        W71385  32.114   5.466   4.231
99715W        W71386  23.992  43.501  11.132
99716W        W71387  15.842   8.258  13.109
99717W        W71388  15.170  29.233   2.320
99718W        W71389  28.488  39.134  11.449
99719W        W71390  22.141  23.612   5.170
99720W        W71391   7.311  24.092   1.542
99721W        W71392  22.223  38.505  13.864
99722W        W71393  31.385  42.894   3.774
99723W        W71394  20.099  18.577  11.068
99724W        W71395  10.602  13.211   2.225
99725W        W71396  12.475  33.448  14.251
99726W        W71397   8.252  34.565  13.967
99727W        W71398  11.365   9.745   1.368
99728W        W71399   3.522  12.817  13.366
99729W        W71400  30.688  11.535  12.590
99730W        W71401   0.830  40.764   2.857
99731W        W71402  33.081   3.979   1.960
99732W        W71403  38.806  10.610  11.948
99733W        W71404  10.852   2.422   4.323
99734W        W71405  38.790  38.424  12.484
99735W        W71406  12.676  12.173   2.949
99736W        W71407  33.956  26.678  10.864
99737W        W71408   2.309  35.247   2.996
99738W        W71409  37.381  12.072  10.734
99739W        W71410  40.328  23.002  11.546
99740W        W71411  16.594  36.754  13.482
99741W        W71412   6.650  24.121   0.914
99742W        W71413  20.995  16.204   0.247
99743W        W71414  36.388   9.727  11.856
99744W        W71415  31.040  25.256  11.513
99745W        W71416  14.341  14.709   3.810
99746W        W71417   7.354  36.294  11.607
99747W        W71418  41.046   6.775   2.276
99748W        W71419  36.079  36.824  13.537
99749W        W71420  20.074  44.835  12.013
99750W        W71421  31.128  18.731   4.896
99751W        W71422   5.364  16.861   4.609
99752W        W71423  38.868   4.000  13.849
99753W        W71424  35.482  25.984   4.630
99754W        W71425  36.700   1.981   3.672
99755W        W71426  25.981  32.181   2.962
99756W        W71427  38.369   0.914   2.707
99757W        W71428   3.351   7.211  10.331
99758W        W71429  17.436  44.727   1.355
99759W        W71430  10.799  32.119   0.987
99760W        W71431  38.821   4.980  10.054
99761W        W71432   6.367  34.639   3.241
99762W        W71433  34.094   5.019   3.621
99763W        W71434  19.675  18.190   3.173
99764W        W71435  21.831   7.798  10.668
99765W        W71436  28.426  37.405  11.032
99766W        W71437  43.932  27.507  14.214
99767W        W71438  18.718  25.530  10.667
99768W        W71439  10.835  18.170   1.208
99769W        W71440   9.146   4.261   0.169
99770W        W71441   2.789   3.722   2.661
99771W        W71442  20.958   2.721  13.830
99772W        W71443  26.793  28.528  14.549
99773W        W71444  33.005   7.015   3.056
99774W        W71445  21.250  23.365  10.542
99775W        W71446  37.994   5.827  11.075
99776W        W71447  34.397  40.473  12.760
99777W        W71448   4.467  10.333  13.390
99778W        W71449  37.316  19.351   0.319
99779W        W71450  36.028  37.027   2.051
99780W        W71451  29.415  35.539  11.621
99781W        W71452   2.998   9.839   0.832
99782W        W71453  43.704  12.333  11.926
99783W        W71454  17.356  26.424   0.958
99784W        W71455  40.306  12.330  10.504
99785W        W71456  25.579  22.040   1.245
99786W        W71457  43.615  24.302   4.607
99787W        W71458  43.793  38.216   1.782
99788W        W71459  10.339  32.310  12.973
99789W        W71460  44.249  20.206  12.966
99790W        W71461  18.450  12.873   2.425
99791W        W71462  30.539   9.576   4.079
99792W        W71463   0.703   5.270  10.412
99793W        W71464   3.293  39.650   3.819
99794W        W71465  14.700   6.253   0.309
99795W        W71466  37.063   4.445   1.747
99796W        W71467  14.184  25.361  13.494
99797W        W71468  31.687   6.791  13.954
99798W        W71469   7.379   4.348  14.207
99799W        W71470  23.977   6.397  13.377
99800W        W71471   2.855  26.620  10.623
99801W        W71472   7.088   3.621   4.987
99802W        W71473   6.400   5.736  14.213
99803W        W71474   0.346  13.864   2.907
99804W        W71475  36.542   7.622  11.707
99805W        W71476   2.457  28.034  14.983
99806W        W71477   2.694  16.221   0.757
99807W        W71478  18.630  11.299  14.379
99808W        W71479  23.717  43.552   1.179
99809W        W71480   7.282  19.251   4.223
99810W        W71481   7.633  32.701  14.503
99811W        W71482   6.465  34.492  11.651
99812W        W71483  18.292  16.703   3.803
99813W        W71484  31.107   1.206  14.864
99814W        W71485  25.477  27.452  14.899
99815W        W71486   8.570  43.053   2.748
99816W        W71487  30.914  43.759   4.325
99817W        W71488   6.280  16.367  12.999
99818W        W71489  42.278  34.364   0.935
99819W        W71490  26.182   2.552   4.384
99820W        W71491  23.488  39.902   0.761
99821W        W71492  34.531   8.859  13.391
99822W        W71493  20.398   8.964  12.806
99823W        W71494  11.635  27.440  10.823
99824W        W71495  30.943  40.723  14.510
99825W        W71496  36.427   6.112   3.140
99826W        W71497  39.919  44.536   3.640
99827W        W71498  16.991  12.403   2.262
99828W        W71499  27.033  31.047  14.513
99829W        W71500  12.611   9.909  12.829
99830W        W71501  39.615  14.061  12.169
99831W        W71502  14.339   8.835  11.943
99832W        W71503  31.437  43.361  10.789
99833W        W71504  42.456   5.836  11.182
99834W        W71505  12.505  23.200   3.849
99835W        W71506  22.073   4.711   1.857
99836W        W71507  44.305  29.375  12.636
99837W        W71508  17.653   1.119   0.340
99838W        W71509  26.334  43.579  12.555
99839W        W71510  42.071  12.051  14.000
99840W        W71511  13.558  19.533  13.992
99841W        W71512   8.819   0.775   3.660
99842W        W71513  23.799  30.664   2.693
99843W        W71514  41.161  36.363   0.459
99844W        W71515  37.250   3.786  12.792
99845W        W71516  16.223   8.789   3.709
99846W        W71517  15.578  21.006   1.397
99847W        W71518  12.604   9.741  10.968
99848W        W71519  25.698  34.644  13.966
99849W        W71520  29.193  18.770   0.011
99850W        W71521   4.682  12.707   0.384
99851W        W71522  42.837  39.332   4.109
99852W        W71523  42.296  13.078   3.843
99853W        W71524  12.581  30.530  11.587
99854W        W71525   1.602  32.110  14.419
99855W        W71526   4.067  11.020   2.380
99856W        W71527  28.977  43.590  13.563
99857W        W71528  32.233  12.322  13.487
99858W        W71529   0.203  12.315   0.871
99859W        W71530  13.714  15.378   4.958
99860W        W71531  10.453  25.478  13.857
99861W        W71532  44.340  14.683   2.201
99862W        W71533  31.436  21.593  12.715
99863W        W71534  25.270  22.655  13.947
99864W        W71535  18.090  42.449   1.165
99865W        W71536   0.165   7.621   4.183
99866W        W71537  14.284  19.592   3.285
99867W        W71538  18.537   7.641  13.541
99868W        W71539  40.545  31.927  12.509
99869W        W71540  22.646  17.970   3.606
99870W        W71541  12.004  37.736  13.470
99871W        W71542  10.144  11.095  11.040
99872W        W71543  34.409  26.949  11.405
99873W        W71544  35.023  35.662   0.525
99874W        W71545  28.984  18.536  10.491
99875W        W71546   4.422  38.338   3.605
99876W        W71547   3.884  32.587  12.492
99877W        W71548   0.884  26.447   2.019
99878W        W71549  41.544  12.953   3.407
99879W        W71550  17.315  21.406   4.456
99880W        W71551  31.999  26.906   1.720
99881W        W71552  16.162   8.335  13.495
99882W        W71553  16.853  30.174   0.337
99883W        W71554  30.435  42.054   4.184
99884W        W71555  17.119   6.619   4.239
99885W        W71556   8.713  21.740  11.563
99886W        W71557  32.525  16.081   1.420
99887W        W71558   4.927  33.654  14.190
99888W        W71559  41.864  28.366  14.466
99889W        W71560   4.875  37.242  13.383
99890W        W71561   0.740   3.499   4.155
99891W        W71562  28.531  23.183   1.006
99892W        W71563   3.866  27.333  12.448
99893W        W71564  20.735  44.467   2.707
99894W        W71565   6.377   1.263   3.287
99895W        W71566  34.406   1.260  14.522
99896W        W71567  15.831   2.090   0.901
99897W        W71568  13.505  29.177   3.216
99898W        W71569  35.038   7.329   0.898
99899W        W71570  14.025  44.788  12.840
99900W        W71571  23.952  16.747  11.069
99901W        W71572  40.383  43.246  12.837
99902W        W71573  13.810  23.480  13.047
99903W        W71574  23.196   5.105  11.536
99904W        W71575   2.531  17.562  12.464
99905W        W71576  14.174  28.920  11.017
99906W        W71577  29.671  21.935  10.676
99907W        W71578  22.241  27.543  12.119
99908W        W71579  31.031  39.589   2.312
99909W        W71580   9.692  30.994  12.920
99910W        W71581  13.325  32.424  13.536
99911W        W71582  30.410  22.135   3.928
99912W        W71583  16.706  19.005   2.145
99913W        W71584  15.340  13.489   4.309
99914W        W71585  43.782  41.947   0.283
99915W        W71586   3.619  38.458   1.895
99916W        W71587  19.991  19.704   0.466
99917W        W71588  42.859  26.089  12.440
99918W        W71589  23.902  34.470  10.704
99919W        W71590  26.587  43.831  14.018
99920W        W71591   7.389  23.136   0.128
99921W        W71592   5.740  40.800   2.274
99922W        W71593  44.888  36.627   0.373
99923W        W71594  34.431  23.765   0.831
99924W        W71595  26.062  16.075  11.577
99925W        W71596   2.217  18.973  12.523
99926W        W71597  16.116   3.717  12.392
99927W        W71598  22.752  24.758   3.568
99928W        W71599   5.194  33.990  13.073
99929W        W71600  23.412  14.691   2.632
99930W        W71601   2.211   7.786   2.212
99931W        W71602  13.206  10.859  14.841
99932W        W71603   8.849  17.641   1.753
99933W        W71604  40.492  30.730   2.875
99934W        W71605  27.542   8.237   1.874
99935W        W71606  35.698  24.490   0.177
99936W        W71607   9.312  38.811  10.520
99937W        W71608   3.674  12.564   3.139
99938W        W71609  37.952  10.285   2.592
99939W        W71610   8.740  39.607   1.267
99940W        W71611  11.264  43.203  14.808
99941W        W71612  31.858  21.729  12.992
99942W        W71613   8.344   9.598  14.905
99943W        W71614  18.290  14.528   1.812
99944W        W71615  17.240   6.458  13.804
99945W        W71616  11.585   7.698  10.008
99946W        W71617  19.623  16.566  13.657
99947W        W71618  36.273   6.994   4.189
99948W        W71619  42.221  25.868  11.750
99949W        W71620  39.075  19.573   0.453
99950W        W71621  28.805  36.986   4.887
99951W        W71622  27.498  12.364  12.700
99952W        W71623  16.306   2.169  10.607
99953W        W71624   7.395  41.408   1.633
99954W        W71625  26.017  16.108   0.312
99955W        W71626   7.350  39.831  11.554
99956W        W71627   4.368   9.418  10.741
99957W        W71628   6.619  25.599   4.212
99958W        W71629  31.161   9.236  11.605
99959W        W71630  12.118  12.388  14.265
99960W        W71631   7.899  22.806   1.460
99961W        W71632  12.705  39.003   2.365
99962W        W71633  18.634  36.105   3.656
99963W        W71634   8.292  28.546   0.513
99964W        W71635  10.434  39.941  13.932
99965W        W71636  22.082   9.063   4.156
99966W        W71637  10.018   1.824   4.181
99967W        W71638  35.433  29.510  10.722
99968W        W71639  24.563  16.515   0.726
99969W        W71640   9.301  27.713   0.483
99970W        W71641  42.220  13.885   4.943
99971W        W71642  42.043  31.975   2.317
99972W        W71643  23.994  34.619  13.101
99973W        W71644  15.357  34.166  10.914
99974W        W71645  27.066  22.470  13.532
99975W        W71646  36.553  39.885  14.970
99976W        W71647  11.620  38.268   4.742
99977W        W71648  39.604  42.224  11.091
99978W        W71649  28.075  27.175  14.465
99979W        W71650  20.640  42.843   1.767
99980W        W71651  36.352  28.939  14.482
99981W        W71652  16.185  28.291  13.876
99982W        W71653  35.887  22.168  13.249
99983W        W71654  10.398   2.898  14.078
99984W        W71655  27.442  27.534  13.757
99985W        W71656  39.394   3.002  13.870
99986W        W71657  16.183  42.414   3.214
99987W        W71658  29.532  36.912   3.787
99988W        W71659  40.057   2.812  14.974
99989W        W71660   4.233  17.093   0.899
99990W        W71661   3.862  42.946  12.466
99991W        W71662  22.436  19.844  12.545
99992W        W71663  30.954  34.419  11.795
99993W        W71664  28.023  39.368   0.215
99994W        W71665  23.198   8.859  14.214
99995W        W71666  30.367  22.429  11.265
99996W        W71667  30.426  19.765  10.726
99997W        W71668  42.586   8.176   0.768
99998W        W71669  26.919  44.567  13.379
99999W        W71670  18.025  27.618  13.863
    0W        W71671  10.731  40.949   1.491
    1W        W71672  13.517  17.595   4.640
    2W        W71673  31.488  11.899  14.382
    3W        W71674  15.223  17.582  13.106
    4W        W71675  18.616   3.231   1.865
    5W        W71676  19.686  23.402  13.837
    6W        W71677  18.846  23.175  11.171
    7W        W71678  42.825   7.687   1.038
    8W        W71679  25.078  16.042  10.725
    9W        W71680  20.181  13.220   3.299
   10W        W71681  13.220   7.786  10.718
   11W        W71682  29.579  22.841  11.639
   12W        W71683  17.779  20.292   3.729
   13W        W71684  24.584  36.454   2.798
   14W        W71685  22.159  18.731  13.948
   15W        W71686   5.863  41.479  12.613
   16W        W71687  28.900  15.133  14.352
   17W        W71688  22.427  23.636   5.593
   18W        W71689  35.270  42.034  11.554
   19W        W71690  34.104   1.904   4.879
   20W        W71691  31.321  17.981   2.119
   21W        W71692   1.956  34.823  11.490
   22W        W71693  35.551  40.713   1.471
   23W        W71694  33.334  34.451  14.237
   24W        W71695  25.628  15.486  13.932
   25W        W71696  25.221  13.196   4.570
   26W        W71697  36.912  18.612  14.757
   27W        W71698   9.297  30.553  12.059
   28W        W71699   6.891  38.602   2.244
   29W        W71700  39.938  16.724   4.388
   30W        W71701   7.643   1.407  13.855
   31W        W71702   0.030  37.571   1.801
   32W        W71703   3.230   9.242  14.855
   33W        W71704  19.728  13.230  13.305
   34W        W71705  42.335   3.338   0.960
   35W        W71706  30.141  14.103   3.340
   36W        W71707  43.138  43.415  14.021
   37W        W71708  22.681   2.304  12.453
   38W        W71709  14.650  35.945  12.105
   39W        W71710  25.173  19.856  11.198
   40W        W71711  13.184  21.079   2.171
   41W        W71712   8.438  34.962  14.717
   42W        W71713   0.779  37.610  10.589
   43W        W71714  20.538  32.598   4.122
   44W        W71715  25.632  24.585   1.249
   45W        W71716   5.800  41.737  13.068
   46W        W71717  39.882   2.539   3.728
   47W        W71718  44.287  32.481  10.584
   48W        W71719  23.891  18.520   1.567
   49W        W71720  26.047  24.605  12.768
   50W        W71721  16.096  27.504  13.091
   51W        W71722  38.456  32.632   3.554
   52W        W71723   6.613  12.894  13.922
   53W        W71724  20.090  37.802   0.773
   54W        W71725  40.762  21.614  11.945
   55W        W71726   4.734  17.600  14.527
   56W        W71727  44.476  33.967  14.410
   57W        W71728  30.474  37.632  14.882
   58W        W71729   1.927  25.007   2.318
   59W        W71730  26.597  21.077   5.143
   60W        W71731  35.602  29.452   0.973
   61W        W71732  30.553   2.821  12.466
   62W        W71733  29.498  26.354  12.317
   63W        W71734  11.027   2.356  13.993
   64W        W71735  22.524   3.077   0.251
   65W        W71736   1.060  41.338  10.341
   66W        W71737  16.312   9.242   1.516
   67W        W71738   2.281  44.790  10.608
   68W        W71739   0.002   2.635  13.970
   69W        W71740  10.632  39.478  12.093
   70W        W71741  16.636   1.552   4.243
   71W        W71742  22.217  37.985  10.656
   72W        W71743  17.300  28.582   0.836
   73W        W71744  22.574  12.330  12.870
   74W        W71745  10.943  24.610   0.494
   75W        W71746  42.769  10.891   2.639
   76W        W71747   7.229  30.982  13.254
   77W        W71748  34.143  20.974   1.370
   78W        W71749  25.072  10.900  12.006
   79W        W71750   7.735   5.050  12.002
   80W        W71751  11.812  25.471   3.732
   81W        W71752  30.341  42.832   2.739
   82W        W71753  13.209   6.673   2.041
   83W        W71754   2.127  44.240  13.001
   84W        W71755   5.935  23.715   4.036
   85W        W71756  28.178  13.722   4.385
   86W        W71757  41.737  31.547   2.292
   87W        W71758   4.457  13.591  12.241
   88W        W71759   7.044   4.816  11.003
   89W        W71760  20.500  41.334  11.116
   90W        W71761  18.315  30.459  14.489
   91W        W71762  23.520   6.122   0.961
   92W        W71763  16.607  34.306  13.360
   93W        W71764  43.581  30.808  11.807
   94W        W71765  11.955  20.034   1.614
   95W        W71766  19.590   3.403   0.920
   96W        W71767  42.087  44.510   4.644
   97W        W71768   8.810  19.040   3.495
   98W        W71769  30.900  30.227  10.783
   99W        W71770  15.196  29.132   0.806
  100W        W71771  11.162  11.415   2.508
  101W        W71772  40.762  35.328   4.170
  102W        W71773  33.960  42.082  12.438
  103W        W71774  34.692   7.249   2.816
  104W        W71775  18.388  13.270  12.621
  105W        W71776   6.312   8.667   4.514
  106W        W71777  14.189  41.017   0.446
  107W        W71778  36.683  25.898   4.320
  108W        W71779   7.245  19.263   3.271
  109W        W71780  27.647  19.244  13.994
  110W        W71781  24.999  20.314   0.599
  111W        W71782   4.375  24.374  13.953
  112W        W71783   3.350  20.796  12.791
  113W        W71784  22.264  34.398  14.247
  114W        W71785  33.533  24.315  12.349
  115W        W71786  18.529  26.973   4.218
  116W        W71787  26.678   0.375   0.725
  117W        W71788  37.378  12.554  11.892
  118W        W71789  10.756  44.730   3.354
  119W        W71790  42.471   4.938  10.634
  120W        W71791  43.960  23.582   3.810
  121W        W71792  39.352  42.144   0.952
  122W        W71793  40.919  26.124   4.498
  123W        W71794   8.853  25.196   4.864
  124W        W71795  15.815   4.408  10.889
  125W        W71796  28.007  32.344   3.510
  126W        W71797  23.499  36.108   3.184
  127W        W71798   5.882   2.765  11.113
  128W        W71799  14.262  39.836  13.358
  129W        W71800  17.642  20.130  10.709
  130W        W71801  38.202  33.541   4.514
  131W        W71802   0.449  17.050  14.856
  132W        W71803  35.788  14.627  12.439
  133W        W71804   4.311  30.741  14.412
  134W        W71805  14.242  21.981  13.130
  135W        W71806  29.211  22.783   1.845
  136W        W71807  33.032   0.915   0.688
  137W        W71808  33.572  38.109  14.005
  138W        W71809   2.357  21.113  12.688
  139W        W71810  31.099  19.105   1.428
  140W        W71811   0.255   6.424   3.600
  141W        W71812  44.343   1.980   4.952
  142W        W71813  19.524   8.826  13.289
  143W        W71814   7.272   7.550   3.476
  144W        W71815  27.066  35.122  14.255
  145W        W71816  10.110  23.242  14.066
  146W        W71817   0.725  29.875  14.473
  147W        W71818  15.188  11.011  14.984
  148W        W71819  20.263  28.377   1.274
  149W        W71820   3.154  20.657  12.313
  150W        W71821  34.341   5.430   0.435
  151W        W71822  32.043   2.785  12.484
  152W        W71823  23.162   2.398  12.627
  153W        W71824  43.416  24.406  13.860
  154W        W71825   6.035   5.987  13.222
  155W        W71826  35.095  22.024   1.467
  156W        W71827  31.609  27.300   0.431
  157W        W71828  42.996  13.118  11.109
  158W        W71829  17.560  23.424   1.260
  159W        W71830  29.722  31.330  14.947
  160W        W71831  29.545  29.485   5.050
  161W        W71832  25.688   3.271  11.736
  162W        W71833  15.061  42.767   4.270
  163W        W71834  32.410  28.524   4.783
  164W        W71835  23.306  26.625  14.958
  165W        W71836  28.474   3.873  12.815
  166W        W71837  25.487   0.341  13.265
  167W        W71838  27.605  32.024  12.483
  168W        W71839   6.919  40.562  13.355
  169W        W71840  14.568  26.591  14.892
  170W        W71841  33.036  29.931   3.916
  171W        W71842  38.408  22.497  10.626
  172W        W71843   1.898  40.709  14.744
  173W        W71844  37.796  15.777   4.727
  174W        W71845  23.136  30.186   1.985
  175W        W71846   4.012   7.292  12.938
  176W        W71847  14.329  38.552   1.848
  177W        W71848  34.328  21.194   3.235
  178W        W71849  28.607  16.083   4.883
  179W        W71850   3.266  25.066   1.795
  180W        W71851   5.665  13.190   1.807
  181W        W71852  19.754  31.604   1.410
  182W        W71853   3.913  13.322   1.492
  183W        W71854  14.783   7.645   4.508
  184W        W71855  35.609   4.469   2.489
  185W        W71856  27.554  11.104   2.326
  186W        W71857   9.982  38.706   2.257
  187W        W71858   1.560  37.879   4.217
  188W        W71859   8.309   0.769   2.648
  189W        W71860   4.875  42.315   1.335
  190W        W71861  30.133   6.687   3.398
  191W        W71862  39.284  35.817   0.856
  192W        W71863   2.368  36.443  14.275
  193W        W71864  24.175  15.660   0.028
  194W        W71865  20.167   6.160   2.289
  195W        W71866   1.259  44.836   4.099
  196W        W71867  23.437  37.007  13.028
  197W        W71868  29.637  12.548   4.836
  198W        W71869  33.303  21.522  14.376
  199W        W71870   0.079  24.946  12.533
  200W        W71871   3.300  28.565  11.138
  201W        W71872  30.400  33.473  12.363
  202W        W71873   6.702  44.374  11.164
  203W        W71874  40.933  30.852  11.634
  204W        W71875  30.558  44.975  12.430
  205W        W71876  41.927  36.090  14.010
  206W        W71877  29.684   1.077  10.789
  207W        W71878  21.522  26.258   9.774
  208W        W71879  19.269   4.430   1.267
  209W        W71880  41.331  25.789   0.433
  210W        W71881  19.825  33.556  10.565
  211W        W71882  35.013   8.086  11.664
  212W        W71883   8.305  14.556   3.761
  213W        W71884  36.650  21.671  13.483
  214W        W71885  41.470  10.400   2.344
  215W        W71886  10.653  16.890   3.642
  216W        W71887  22.095  18.549  11.563
  217W        W71888  11.087  22.669   1.225
  218W        W71889  27.479  44.932   3.194
  219W        W71890  26.170  24.457  13.795
  220W        W71891  34.406  20.812   2.070
  221W        W71892  32.053  44.172   2.900
  222W        W71893  10.922  17.284   2.308
  223W        W71894  43.950  17.000  10.566
  224W        W71895  22.570   3.171  11.161
  225W        W71896  13.108  25.079   3.714
  226W        W71897   6.474  38.425  11.710
  227W        W71898  34.561   9.945   0.707
  228W        W71899  39.022  24.618   1.808
  229W        W71900  21.085  16.226  14.304
  230W        W71901   3.233   8.287   2.206
  231W        W71902   1.672  42.005  10.594
  232W        W71903   0.782  16.038  12.956
  233W        W71904   6.637  33.705  13.548
  234W        W71905  34.479   6.618   2.354
  235W        W71906  13.676  26.470  11.170
  236W        W71907   3.718  39.997   0.998
  237W        W71908  32.817  36.553   2.329
  238W        W71909  23.615  34.907  10.715
  239W        W71910  16.245  33.362   1.353
  240W        W71911  13.317  21.713  10.826
  241W        W71912  42.021  38.428  13.094
  242W        W71913  33.358  18.908  11.585
  243W        W71914  43.245  17.286   1.588
  244W        W71915  11.289  36.135  10.911
  245W        W71916   5.283   5.141   4.123
  246W        W71917  11.877   1.903   4.114
  247W        W71918   0.339  20.560   4.129
  248W        W71919   7.924  23.167   0.776
  249W        W71920   2.441  26.657  11.995
  250W        W71921   3.951   1.848   1.647
  251W        W71922  22.050  22.116  12.353
  252W        W71923  33.390  38.547  11.207
  253W        W71924  43.318  42.351  11.635
  254W        W71925   4.925  14.001   2.753
  255W        W71926  25.972  44.381   1.905
  256W        W71927  19.583  42.550  13.382
  257W        W71928  14.639  29.959   1.382
  258W        W71929  16.335  31.945  12.693
  259W        W71930  28.639  23.099   4.827
  260W        W71931  19.896  40.918   0.471
  261W        W71932   9.901  13.541  11.979
  262W        W71933  35.947  24.861  14.415
  263W        W71934  17.050  44.592  13.462
  264W        W71935  14.013  20.683  12.919
  265W        W71936  35.846   1.433  12.475
  266W        W71937  44.458  25.332   1.757
  267W        W71938  30.139  42.481   4.739
  268W        W71939  28.812  42.758  13.528
  269W        W71940  11.608  13.613  11.550
  270W        W71941  20.155  20.780  12.485
  271W        W71942  31.642  13.246   0.189
  272W        W71943  29.662   2.665   1.409
  273W        W71944  14.088  43.107  12.481
  274W        W71945  37.975  18.635  11.910
  275W        W71946  33.479  29.710   1.274
  276W        W71947  42.944  43.273  12.302
  277W        W71948  36.026  38.327  10.974
  278W        W71949  36.506   4.900   1.238
  279W        W71950  35.251  28.120  12.575
  280W        W71951  31.859   7.661   1.464
  281W        W71952   0.665  24.197   1.265
  282W        W71953  30.194   7.845   3.574
  283W        W71954   2.323  44.373  12.527
  284W        W71955   2.814  10.210  10.708
  285W        W71956  25.958  38.903  10.726
  286W        W71957   6.219   1.237   1.876
  287W        W71958  12.710  25.478   4.389
  288W        W71959  18.114  16.908   4.808
  289W        W71960  26.613  25.991   1.924
  290W        W71961   9.571   9.389  14.887
  291W        W71962  19.109  22.699  13.125
  292W        W71963  14.269  23.940   2.546
  293W        W71964  33.991  15.320   4.824
  294W        W71965  42.745  42.459   1.041
  295W        W71966  11.197  11.873   2.747
  296W        W71967   7.416   4.904  14.890
  297W        W71968   2.790   2.140  12.551
  298W        W71969  11.765  35.797   3.674
  299W        W71970  32.331  25.462   0.630
  300W        W71971   9.877   1.435   2.945
  301W        W71972  27.028  43.080   0.425
  302W        W71973   9.123  10.717   1.930
  303W        W71974   8.317  12.728  10.289
  304W        W71975  43.197   3.402   4.582
  305W        W71976  36.683  17.962  14.259
  306W        W71977  23.466  31.462   4.608
  307W        W71978   4.314  36.357   2.360
  308W        W71979  19.116  19.048  13.489
  309W        W71980   6.326  20.609  11.091
  310W        W71981  32.003  39.462   4.211
  311W        W71982   0.822  25.672  10.520
  312W        W71983  40.860  31.052  12.093
  313W        W71984  43.751  31.076   0.888
  314W        W71985  37.095  24.094   0.481
  315W        W71986  30.409  43.528   4.265
  316W        W71987   6.700  27.192  10.886
  317W        W71988  28.039  32.551   2.083
  318W        W71989  12.946  32.709  13.357
  319W        W71990  39.943  44.264   0.805
  320W        W71991  17.221   4.334   5.085
  321W        W71992   0.123  10.010  12.991
  322W        W71993  24.641  11.891  10.828
  323W        W71994  21.966  43.904  13.137
  324W        W71995  30.209  13.070  12.521
  325W        W71996  13.368  34.452  13.609
  326W        W71997  13.726  23.302  13.528
  327W        W71998  35.587   1.161   0.654
  328W        W71999  11.816  22.087   4.029
  329W        W72000  39.963  19.406   1.353
  330W        W72001  11.919  28.867  13.986
  331W        W72002   8.655  15.974   4.634
  332W        W72003  30.560   2.925   2.450
  333W        W72004  16.544  14.126  11.138
  334W        W72005  44.887  38.031   3.915
  335W        W72006  29.041  19.549  10.515
  336W        W72007   5.678  12.337   0.420
  337W        W72008  33.605   8.450  14.403
  338W        W72009  31.590  26.653   2.916
  339W        W72010  30.566  25.059  11.506
  340W        W72011  36.186  24.965  10.661
  341W        W72012  42.363  12.139  10.719
  342W        W72013  26.722   2.235   2.766
  343W        W72014   9.149  36.529   2.268
  344W        W72015  16.291  30.587  13.902
  345W        W72016  16.469  21.254   2.243
  346W        W72017  41.885  30.805  12.119
  347W        W72018  16.761  31.818  12.937
  348W        W72019  42.917   8.380  11.067
  349W        W72020  27.645  10.374  11.889
  350W        W72021   7.602  19.055   0.735
  351W        W72022  18.527   7.969  14.227
  352W        W72023   5.200  28.138   2.595
  353W        W72024  14.264  25.437  10.692
  354W        W72025  33.775  26.188  10.978
  355W        W72026  18.241   1.505  13.920
  356W        W72027  16.653   3.011  12.409
  357W        W72028  19.772  16.032   2.933
  358W        W72029  27.528  14.676   2.906
  359W        W72030   2.512  39.219   4.115
  360W        W72031  10.809   8.179   3.191
  361W        W72032  14.782  19.564  14.439
  362W        W72033  32.653  30.509  10.978
  363W        W72034   1.423  11.285   1.420
  364W        W72035   3.908  44.213  13.891
  365W        W72036  16.809  22.952   3.633
  366W        W72037  31.168  25.153  10.115
  367W        W72038  14.649  33.934   3.772
  368W        W72039  33.155  32.082  11.658
  369W        W72040  21.020  12.667   3.654
  370W        W72041  26.644   5.984   2.704
  371W        W72042  10.198  33.776   4.326
  372W        W72043  34.633   9.378   1.973
  373W        W72044  24.371  20.396   1.774
  374W        W72045  31.544  14.636  11.154
  375W        W72046   1.896  29.642  12.581
  376W        W72047  15.344   1.973   2.851
  377W        W72048  11.886  21.612   3.809
  378W        W72049   1.379  20.272   4.541
  379W        W72050   4.197  26.241  14.448
  380W        W72051  42.333  40.183   0.515
  381W        W72052  34.526   1.965  12.885
  382W        W72053  14.208  38.012   3.550
  383W        W72054   6.004  19.196   3.538
  384W        W72055  15.862  21.200   4.919
  385W        W72056  44.482  13.657   4.055
  386W        W72057  23.784  42.369  13.531
  387W        W72058   8.798  38.923   4.309
  388W        W72059  22.992  12.866  11.174
  389W        W72060  12.840  40.786   4.651
  390W        W72061  44.354  25.017  10.485
  391W        W72062   1.510  41.960  11.508
  392W        W72063   3.527   0.003   1.349
  393W        W72064  24.038  34.229  11.156
  394W        W72065  37.375  43.534   3.274
  395W        W72066  23.429  17.627  11.082
  396W        W72067  12.728  31.767   3.756
  397W        W72068  24.767  37.630   0.074
  398W        W72069  36.429  40.374  11.232
  399W        W72070  23.597  40.072  11.679
  400W        W72071  44.770  16.067  11.697
  401W        W72072   8.656  29.358  11.586
  402W        W72073  26.647   4.210  10.676
  403W        W72074  30.125  10.831   3.218
  404W        W72075  33.914   3.019   4.586
  405W        W72076  34.405   6.738  14.389
  406W        W72077  21.341  27.623  13.977
  407W        W72078  44.904  13.416   3.816
  408W        W72079  31.879  29.421   3.589
  409W        W72080  28.825   4.067   1.941
  410W        W72081  29.578  42.426  11.954
  411W        W72082   4.326  15.100  13.590
  412W        W72083  24.257   5.352   1.816
  413W        W72084  34.877  21.241   4.134
  414W        W72085  27.976  29.566  14.498
  415W        W72086  13.594  16.819  11.159
  416W        W72087  26.121  41.020  11.125
  417W        W72088   6.707  28.952   0.022
  418W        W72089  40.014  33.518   0.488
  419W        W72090  23.214  25.059  14.089
  420W        W72091  20.857  36.959   1.826
  421W        W72092  25.704   9.372  12.419
  422W        W72093  16.172  37.472   0.065
  423W        W72094  19.639  25.236  10.708
  424W        W72095  13.123  34.630  11.141
  425W        W72096  14.409  26.295   2.244
  426W        W72097  34.471  11.655  14.849
  427W        W72098  23.024  21.113   1.009
  428W        W72099   1.689  18.220  13.510
  429W        W72100   7.383  28.237   0.876
  430W        W72101  36.386   1.671   2.531
  431W        W72102  36.395  40.058   5.055
  432W        W72103  35.059  29.231   2.809
  433W        W72104   2.326  26.797  11.338
  434W        W72105   6.834  18.211   2.327
  435W        W72106  36.846   4.273  13.939
  436W        W72107   3.356  11.838  12.274
  437W        W72108  43.403   7.879   4.745
  438W        W72109  12.216  39.465   0.993
  439W        W72110  44.859  38.214   2.936
  440W        W72111   0.853   1.262   5.156
  441W        W72112  34.751  16.215   0.522
  442W        W72113  15.936  15.827  14.964
  443W        W72114  26.626   3.043   1.501
  444W        W72115  19.561  43.752  11.403
  445W        W72116  35.492  17.262   3.613
  446W        W72117  10.891  28.098  12.874
  447W        W72118  36.599  12.275  12.127
  448W        W72119  11.617   2.042   4.551
  449W        W72120  27.187  17.222   3.590
  450W        W72121   3.938  33.960  12.305
  451W        W72122  29.528  19.827  13.344
  452W        W72123   3.660   5.306  12.944
  453W        W72124   7.137  36.829   4.630
  454W        W72125   6.808  28.119  10.693
  455W        W72126  13.121   7.396  14.847
  456W        W72127  42.535  35.006  14.752
  457W        W72128  33.046  28.456  13.604
  458W        W72129   1.246  13.481   4.630
  459W        W72130  11.209  44.798   1.231
  460W        W72131  18.762   7.678  12.106
  461W        W72132  42.521  12.786   4.278
  462W        W72133  21.800  42.522   3.516
  463W        W72134  19.130  23.692   4.732
  464W        W72135  30.312  26.993  13.576
  465W        W72136   9.271   0.276  12.875
  466W        W72137  14.051  13.096   1.234
  467W        W72138   0.073  21.673   9.736
  468W        W72139  29.639  14.214  13.379
  469W        W72140  42.977  43.041   2.869
  470W        W72141   9.895  42.710   2.189
  471W        W72142  20.511  29.969  11.018
  472W        W72143  11.449  19.707  11.612
  473W        W72144  31.166  31.566  10.783
  474W        W72145  15.613  44.614   3.739
  475W        W72146  28.478   9.164  12.074
  476W        W72147  22.552  26.445  13.792
  477W        W72148  12.224   5.406   0.969
  478W        W72149  27.488  34.533  11.103
  479W        W72150   9.212  31.546  11.447
  480W        W72151  12.313  35.552   2.183
  481W        W72152  37.274  15.727   3.818
  482W        W72153   7.198  26.713  11.008
  483W        W72154  39.659  30.477  12.085
  484W        W72155  44.482  17.568   2.179
  485W        W72156  23.972  40.020  10.588
  486W        W72157  17.231  24.485  11.975
  487W        W72158  40.387  44.053   4.868
  488W        W72159  25.984   8.654   3.345
  489W        W72160  19.124  35.322  12.056
  490W        W72161  22.644  26.801   2.570
  491W        W72162  27.535   0.781  14.514
  492W        W72163  17.032  26.775  11.513
  493W        W72164   4.880  16.271  10.186
  494W        W72165  31.617  24.257   1.207
  495W        W72166  41.418  33.462   0.795
  496W        W72167   4.167  30.985   0.317
  497W        W72168  15.248  34.546  12.870
  498W        W72169   4.965  36.087   0.736
  499W        W72170   1.036  29.004   1.819
  500W        W72171  33.581  26.134  13.386
  501W        W72172  10.799  26.547  14.931
  502W        W72173  34.382  24.086  12.696
  503W        W72174  12.637  41.122  12.419
  504W        W72175  14.121  43.628  12.387
  505W        W72176  33.822  29.607   2.302
  506W        W72177  38.633  34.465  11.995
  507W        W72178  16.128   7.825  13.264
  508W        W72179  28.234   0.613  10.828
  509W        W72180  33.452  22.794   2.252
  510W        W72181  41.258   4.784  11.060
  511W        W72182   5.164  25.942  14.432
  512W        W72183  34.832  35.999   0.179
  513W        W72184  37.358  28.442   0.247
  514W        W72185  36.059  23.028  14.089
  515W        W72186   6.723  21.609  13.959
  516W        W72187   4.945   4.089  12.618
  517W        W72188  42.785  29.568   0.278
  518W        W72189  10.618  20.288  12.902
  519W        W72190   0.374  24.257  14.926
  520W        W72191  17.439   5.684   4.230
  521W        W72192  29.014  22.548   2.260
  522W        W72193  34.871  23.470  13.967
  523W        W72194   3.856  29.017   3.708
  524W        W72195  42.156  18.072   0.778
  525W        W72196  41.836  32.996   0.473
  526W        W72197  15.364  29.057   1.827
  527W        W72198   1.958  35.689   3.710
  528W        W72199   9.563   9.741  11.242
  529W        W72200  31.174  22.938   1.528
  530W        W72201   4.651   5.471  11.637
  531W        W72202  24.217  13.583  13.424
  532W        W72203  10.295   4.432   4.030
  533W        W72204  30.683  34.530  14.823
  534W        W72205  21.696  14.166   4.599
  535W        W72206  38.394  42.972   0.293
  536W        W72207   0.335   3.397  11.022
  537W        W72208  34.653  33.602   4.585
  538W        W72209   9.224  33.345  12.056
  539W        W72210   5.298  30.100   0.259
  540W        W72211  20.723  19.348   0.048
  541W        W72212  42.376   3.979   3.152
  542W        W72213  43.515  27.928  14.181
  543W        W72214  27.640  27.482  13.270
  544W        W72215   5.261  28.494   0.563
  545W        W72216   3.037  10.808  14.369
  546W        W72217  42.076  37.619  14.013
  547W        W72218  42.467  23.608   1.233
  548W        W72219  21.842  27.712  13.350
  549W        W72220  13.663  29.738   0.876
  550W        W72221  37.952   0.239   3.741
  551W        W72222  13.868  21.130   4.503
  552W        W72223  40.501  33.151  13.939
  553W        W72224  29.361  18.033   3.352
  554W        W72225  26.132  34.888  12.483
  555W        W72226  29.042  29.113   3.730
  556W        W72227  37.612  43.491  11.478
  557W        W72228  28.708  16.559   2.843
  558W        W72229  33.847  18.649   3.619
  559W        W72230  10.787   7.418   4.574
  560W        W72231   3.630   1.523   2.940
  561W        W72232  43.673  40.038  14.281
  562W        W72233  32.295  25.705  12.490
  563W        W72234   0.962   3.871  12.193
  564W        W72235   2.843   5.690   3.189
  565W        W72236  39.786   7.272   3.427
  566W        W72237  14.586  35.167  14.029
  567W        W72238  19.456  28.522  11.057
  568W        W72239  22.333   1.959   1.413
  569W        W72240  20.557  10.348   0.797
  570W        W72241  20.245  40.037   3.288
  571W        W72242  28.178   9.786   5.448
  572W        W72243  28.373   8.658  12.198
  573W        W72244  29.900  14.788   3.766
  574W        W72245  33.080  24.991   3.413
  575W        W72246  44.394  36.068   1.405
  576W        W72247  16.133  24.580  14.577
  577W        W72248  18.023   0.864   2.722
  578W        W72249  39.373  12.474  11.820
  579W        W72250  16.205  18.889  12.604
  580W        W72251  13.949  26.190   1.340
  581W        W72252  14.237  32.440  14.812
  582W        W72253   4.126  25.757   3.996
  583W        W72254   1.315  37.816   4.838
  584W        W72255  23.266  44.763  14.069
  585W        W72256  13.721  23.282  11.586
  586W        W72257   2.410  41.398   3.925
  587W        W72258  40.865  16.706   1.558
  588W        W72259  41.556   9.666  11.141
  589W        W72260  40.465   9.213   0.570
  590W        W72261   1.013  15.160  11.266
  591W        W72262  43.823   1.010   4.642
  592W        W72263  29.349  29.494   1.220
  593W        W72264  10.374  32.812  14.025
  594W        W72265  43.777  30.424  11.480
  595W        W72266  17.630  13.270  11.749
  596W        W72267   1.379  28.040  10.720
  597W        W72268  21.061  12.378  14.331
  598W        W72269  38.422   8.280   4.158
  599W        W72270   0.834   6.178   2.717
  600W        W72271  32.474  44.358   1.414
  601W        W72272   2.831  20.090   1.773
  602W        W72273   3.368   5.346   3.167
  603W        W72274  34.022  27.116   0.327
  604W        W72275  23.182   2.915  12.613
  605W        W72276  38.313  18.264  11.136
  606W        W72277  27.079  21.743  10.728
  607W        W72278  13.131  44.952  12.807
  608W        W72279  18.145  15.430   2.866
  609W        W72280  16.180  12.051  14.073
  610W        W72281   2.334  22.068  11.650
  611W        W72282  27.382  16.183  13.807
  612W        W72283  44.100  15.331   4.675
  613W        W72284  27.060  14.658   0.640
  614W        W72285  34.136  38.079  11.042
  615W        W72286  44.022   2.991   2.314
  616W        W72287  36.078  18.750   0.806
  617W        W72288  19.630  14.833  10.729
  618W        W72289  36.383  14.830   0.614
  619W        W72290  27.080  41.956  11.398
  620W        W72291  40.715   1.513   0.332
  621W        W72292  28.119   7.368  14.925
  622W        W72293  21.179  18.719  14.985
  623W        W72294  17.674   9.369   1.940
  624W        W72295   5.728  29.577  13.795
  625W        W72296  17.649  44.699  12.148
  626W        W72297  12.051  26.817   0.608
  627W        W72298  23.123  34.563  10.673
  628W        W72299  21.498  39.999  14.517
  629W        W72300  20.227  14.252  13.961
  630W        W72301   8.738  34.734  14.321
  631W        W72302  16.969  35.350  11.438
  632W        W72303  39.580  19.779   0.427
  633W        W72304  44.988   0.844   0.791
  634W        W72305  20.719  40.314   3.282
  635W        W72306  25.001  40.088  13.387
  636W        W72307  15.323  35.063   1.296
  637W        W72308  17.317  41.938   2.796
  638W        W72309  19.101  13.201  14.928
  639W        W72310  40.387  32.706   4.558
  640W        W72311  22.953  31.036   4.083
  641W        W72312  29.368  11.725   3.327
  642W        W72313  19.063  30.138  11.558
  643W        W72314  25.571  25.170   0.378
  644W        W72315  10.810  40.889  14.806
  645W        W72316  20.513  39.960   0.302
  646W        W72317  21.294   7.654   0.735
  647W        W72318  44.375  14.268  12.043
  648W        W72319  36.622  38.981   2.323
  649W        W72320  34.076  34.443  13.770
  650W        W72321   4.978  20.264   4.196
  651W        W72322  22.342  34.066  10.503
  652W        W72323  41.010  22.243  11.736
  653W        W72324  25.719  19.303   1.469
  654W        W72325  41.399  39.539  14.846
  655W        W72326  21.272  16.115  14.805
  656W        W72327  17.303  11.808  12.510
  657W        W72328  25.880  44.027  11.865
  658W        W72329  39.852  27.963   1.448
  659W        W72330  13.379  22.062  13.153
  660W        W72331  43.541  20.411   3.737
  661W        W72332  40.602  39.110   4.649
  662W        W72333  19.051   9.809  13.829
  663W        W72334  37.122  41.404  14.858
  664W        W72335  25.664   6.294  13.414
  665W        W72336  23.715  27.009   0.820
  666W        W72337  11.868   9.650   0.767
  667W        W72338  14.060   3.292   4.587
  668W        W72339  44.843  30.185  14.259
  669W        W72340   1.024  20.115   2.199
  670W        W72341  34.585  11.308   0.702
  671W        W72342  38.349  15.381   1.685
  672W        W72343  18.561  23.182  10.723
  673W        W72344  38.101   1.112  13.191
  674W        W72345  40.927  38.058   2.135
  675W        W72346  14.347   9.038  12.414
  676W        W72347   5.256  11.560   4.096
  677W        W72348  27.586  36.618   2.693
  678W        W72349  21.208  34.532   3.894
  679W        W72350   2.044  26.461  11.625
  680W        W72351  15.732  41.075   1.548
  681W        W72352  17.799   5.682  13.529
  682W        W72353  40.338  25.395   3.762
  683W        W72354  22.046   8.260  10.721
  684W        W72355   6.505   1.524  11.135
  685W        W72356  40.574  29.024  11.116
  686W        W72357   6.228   4.412   1.237
  687W        W72358   5.353  25.005  11.619
  688W        W72359  20.665  24.494  11.080
  689W        W72360  38.310  24.640  14.033
  690W        W72361  43.591   2.263   3.206
  691W        W72362  24.605  25.382  11.203
  692W        W72363  13.381   4.147  11.049
  693W        W72364  38.373   4.507  13.854
  694W        W72365   8.247  29.724  14.904
  695W        W72366  28.126  15.219   1.745
  696W        W72367  29.019  31.001   0.509
  697W        W72368  26.594  40.862  13.136
  698W        W72369  37.400  11.771   0.376
  699W        W72370  33.480   1.752   4.213
  700W        W72371  29.354  24.717   2.134
  701W        W72372  23.444   2.774   4.525
  702W        W72373  19.631  36.329  10.509
  703W        W72374  32.303  19.684   0.665
  704W        W72375  11.268  37.698   4.186
  705W        W72376  26.349  42.869   5.067
  706W        W72377   2.379   6.626  10.646
  707W        W72378  37.113  43.479   4.450
  708W        W72379   7.767  23.480   4.781
  709W        W72380   7.985  20.002  10.712
  710W        W72381  13.734  18.006   0.826
  711W        W72382  20.979   4.510  13.079
  712W        W72383  24.740  21.027  14.799
  713W        W72384  34.065  43.487  11.001
  714W        W72385  29.955  34.673   0.204
  715W        W72386  24.007   3.237  14.326
  716W        W72387  22.762   7.173   0.459
  717W        W72388  12.886  36.880  13.913
  718W        W72389   0.824   3.690   0.383
  719W        W72390  44.913  10.843   3.884
  720W        W72391   6.638  41.462  12.337
  721W        W72392  23.572   9.102  14.573
  722W        W72393  21.651  31.152  12.443
  723W        W72394  40.861   9.618  11.530
  724W        W72395   8.451  43.452  13.839
  725W        W72396  31.887  22.561  14.396
  726W        W72397   2.280  31.987   1.417
  727W        W72398  11.810  42.552  11.682
  728W        W72399  17.831  30.142  12.519
  729W        W72400  16.603  11.312   0.307
  730W        W72401  31.065   2.775   2.150
  731W        W72402  39.037  36.968  13.774
  732W        W72403  31.448  20.257  11.439
  733W        W72404   1.168  27.122   0.799
  734W        W72405  40.019  30.822   3.107
  735W        W72406  14.055  42.048   4.266
  736W        W72407  43.755  35.603   4.124
  737W        W72408  30.493  32.130  12.035
  738W        W72409   1.781  31.134   0.694
  739W        W72410  19.985  12.653  10.166
  740W        W72411  32.420  43.943  11.490
  741W        W72412  19.748  18.758   4.251
  742W        W72413  10.940  27.644  14.015
  743W        W72414  33.235  35.068  11.655
  744W        W72415  30.365  34.011  13.528
  745W        W72416  38.439  11.736   3.651
  746W        W72417  22.608  33.670   4.166
  747W        W72418  36.845   0.442  10.795
  748W        W72419  40.220   5.024   4.139
  749W        W72420  36.393  25.751  14.397
  750W        W72421  33.595  31.832  10.708
  751W        W72422   4.289  39.814   4.799
  752W        W72423  19.115   4.261   3.337
  753W        W72424  32.692  36.474   4.194
  754W        W72425  11.712  18.024  10.549
  755W        W72426  38.329  15.721  12.050
  756W        W72427  42.820  19.610   1.063
  757W        W72428  25.162   9.690   4.302
  758W        W72429   9.197  25.700  14.694
  759W        W72430  43.234  38.076  11.149
  760W        W72431  15.300  33.183   1.793
  761W        W72432  31.889   5.162   1.950
  762W        W72433  42.894  44.432  13.811
  763W        W72434  28.923   4.697   1.317
  764W        W72435  18.219   8.814   0.851
  765W        W72436  23.106  13.770   4.506
  766W        W72437   4.756  18.347  11.127
  767W        W72438   9.316  25.177   4.565
  768W        W72439   8.415  42.469  11.029
  769W        W72440  16.275   1.312  13.939
  770W        W72441  22.773  10.795   0.442
  771W        W72442  39.800  11.910  14.994
  772W        W72443  25.757  23.070  14.350
  773W        W72444  26.994  13.931   2.624
  774W        W72445  44.439   2.914   2.746
  775W        W72446  15.180  29.125   0.291
  776W        W72447  37.507  42.941   5.059
  777W        W72448  37.354  38.359  14.541
  778W        W72449  28.156  35.245  11.123
  779W        W72450  10.005   0.775   4.302
  780W        W72451   6.990  24.167   4.618
  781W        W72452   4.759  29.616   2.738
  782W        W72453   6.903  31.644   1.226
  783W        W72454  38.503  20.205   1.351
  784W        W72455  22.363  36.019  11.512
  785W        W72456  32.156  21.156  10.257
  786W        W72457  31.615  25.879   3.687
  787W        W72458  15.835  11.251  10.672
  788W        W72459   8.604  23.281  12.325
  789W        W72460   9.352  15.394   3.205
  790W        W72461   8.301  27.500  10.905
  791W        W72462   3.661   4.282   1.135
  792W        W72463   4.402  40.439  13.962
  793W        W72464  14.654   5.021  11.670
  794W        W72465  36.833  11.254  14.333
  795W        W72466  41.863  35.797   2.289
  796W        W72467  25.331  40.157   0.676
  797W        W72468   0.713  33.032  12.838
  798W        W72469  23.239  15.312   2.397
  799W        W72470   0.899  39.996  13.323
  800W        W72471  24.403  39.816  10.731
  801W        W72472  20.098  25.205   1.745
  802W        W72473  22.504   7.109   3.698
  803W        W72474   8.747  31.422  12.585
  804W        W72475  26.134  20.837  14.989
  805W        W72476  18.261   8.220   0.457
  806W        W72477  41.886  26.825   3.357
  807W        W72478  44.027  28.720  10.947
  808W        W72479  38.049   9.532  13.746
  809W        W72480   5.972  23.437  11.165
  810W        W72481  21.076  22.260  11.418
  811W        W72482  42.462  12.725   1.387
  812W        W72483  22.426  30.561   1.757
  813W        W72484  19.448  43.455   4.991
  814W        W72485  34.651  31.841  11.376
  815W        W72486  19.872  24.023  11.106
  816W        W72487  14.322   3.227   0.565
  817W        W72488   2.264  10.744  10.700
  818W        W72489  20.450  39.690   9.823
  819W        W72490  43.415  16.749  14.730
  820W        W72491  23.541  31.189   3.257
  821W        W72492  21.304   0.779   0.833
  822W        W72493  24.764  26.404   4.613
  823W        W72494  44.233  39.061   4.021
  824W        W72495  33.423  39.894  11.374
  825W        W72496   6.377  30.600  11.599
  826W        W72497  26.524  25.268  12.476
  827W        W72498  26.039  16.550  10.702
  828W        W72499  38.112  17.015  11.105
  829W        W72500   9.855  23.276  11.901
  830W        W72501  34.813   3.495   3.680
  831W        W72502  19.972  27.437  12.575
  832W        W72503  10.526  12.293  13.300
  833W        W72504  40.037  37.583   1.897
  834W        W72505  44.696  33.645   0.421
  835W        W72506   5.473  39.552  10.724
  836W        W72507   6.415  10.903   1.315
  837W        W72508  27.159  37.860  11.961
  838W        W72509  17.962   7.150   0.758
  839W        W72510  28.927  39.551   2.942
  840W        W72511  28.477  26.232   1.436
  841W        W72512   0.486  20.317   3.705
  842W        W72513  14.921  12.022  11.627
  843W        W72514  26.614  19.534  14.831
  844W        W72515  16.260  35.831   1.604
  845W        W72516  25.078  16.981  14.431
  846W        W72517  38.410  22.095   0.931
  847W        W72518  30.906  32.989   1.815
  848W        W72519  16.582  27.634  13.253
  849W        W72520   2.484  14.328  14.121
  850W        W72521  14.763  29.417   0.201
  851W        W72522  34.655  14.251   4.422
  852W        W72523  34.163  32.865   4.864
  853W        W72524   0.356  28.288  11.453
  854W        W72525  21.733   3.469   3.882
  855W        W72526  10.336  14.717  13.381
  856W        W72527   1.672  10.524   4.586
  857W        W72528  16.010   9.138   2.629
  858W        W72529  22.272  39.574  12.367
  859W        W72530  13.641  19.701   4.580
  860W        W72531  30.748  35.095  13.436
  861W        W72532   9.916  19.498   2.779
  862W        W72533  41.710  33.424  12.432
  863W        W72534   4.484  18.462   1.366
  864W        W72535   5.461  32.229  12.651
  865W        W72536  20.348  15.308   3.328
  866W        W72537  29.043  17.348   1.237
  867W        W72538  18.046  41.136  13.396
  868W        W72539  15.225  41.899   2.467
  869W        W72540  10.767  27.712   3.746
  870W        W72541  27.422   6.290   4.767
  871W        W72542  30.465  14.492  14.514
  872W        W72543  38.622  40.998  12.908
  873W        W72544  10.762  33.036   2.874
  874W        W72545  12.806  40.389  13.082
  875W        W72546  33.694  41.696   3.154
  876W        W72547   7.217  21.487   4.067
  877W        W72548  15.324  10.658   0.371
  878W        W72549  29.718  24.918  13.796
  879W        W72550  28.315  36.222  13.733
  880W        W72551  36.453  10.392  14.756
  881W        W72552  43.372  31.223   4.190
  882W        W72553  27.257  13.899  13.896
  883W        W72554  44.616  18.750  11.962
  884W        W72555  34.857  27.207  11.556
  885W        W72556   1.199   9.707  10.736
  886W        W72557  38.817  22.128  14.837
  887W        W72558  31.045  22.596  13.334
  888W        W72559  18.384  40.921  11.696
  889W        W72560  21.715  23.517   1.227
  890W        W72561  14.751  19.748  12.675
  891W        W72562   3.836  31.900   2.595
  892W        W72563  18.282  31.653  14.024
  893W        W72564  36.856  41.527   4.859
  894W        W72565  18.766  41.832   3.256
  895W        W72566   4.252  11.918   1.297
  896W        W72567  22.096  17.185   0.733
  897W        W72568   8.684  13.827  14.947
  898W        W72569  13.657   7.485  14.467
  899W        W72570  19.449  23.707   5.121
  900W        W72571  30.353  35.560   1.873
  901W        W72572  43.814  37.516   3.107
  902W        W72573  29.653   8.468  14.363
  903W        W72574  33.495  37.507  10.058
  904W        W72575  36.651   1.235   1.351
  905W        W72576  24.495  29.537   3.646
  906W        W72577  42.523  33.798  11.189
  907W        W72578   6.193  10.141   0.377
  908W        W72579  22.768  30.205   0.012
  909W        W72580   9.868  35.510   3.729
  910W        W72581  30.700  11.588   0.371
  911W        W72582  21.497   6.634   2.168
  912W        W72583  16.109  40.946   0.452
  913W        W72584   1.234  11.216  14.558
  914W        W72585   4.318  23.110  13.048
  915W        W72586  16.232   9.972  11.145
  916W        W72587  23.298   1.021   0.753
  917W        W72588  34.106  27.509   1.792
  918W        W72589  40.678  23.820  13.272
  919W        W72590  29.417  27.039   4.197
  920W        W72591  44.383  41.487  10.657
  921W        W72592   5.665  18.085   0.350
  922W        W72593  12.805   0.547  11.654
  923W        W72594   4.250  41.733  13.072
  924W        W72595  19.080  20.924   1.824
  925W        W72596  26.945  19.635   4.073
  926W        W72597  12.217  37.257  12.006
  927W        W72598   0.813  13.189   0.902
  928W        W72599  36.901  22.753   1.353
  929W        W72600  31.582  11.198   1.964
  930W        W72601  35.356  32.146   4.998
  931W        W72602  40.438  27.075   1.479
  932W        W72603  43.222  15.365  14.028
  933W        W72604   6.886  41.492   3.269
  934W        W72605  41.612  28.804   2.842
  935W        W72606  41.816  12.842  11.189
  936W        W72607  33.451  14.790  12.614
  937W        W72608   1.389  31.848  10.577
  938W        W72609  31.174  10.701   1.910
  939W        W72610  42.287  14.464   3.719
  940W        W72611  36.362   1.602   3.761
  941W        W72612  27.631   9.192   0.784
  942W        W72613  42.319  24.076  14.384
  943W        W72614   3.203  43.360   4.129
  944W        W72615  30.398   1.461  11.031
  945W        W72616   1.440  13.122   3.679
  946W        W72617  35.223  42.118   1.698
  947W        W72618  36.381  31.875   4.146
  948W        W72619   5.402  39.616   1.807
  949W        W72620  32.023   4.261  14.238
  950W        W72621  32.541  12.328   4.275
  951W        W72622  16.767  11.736  14.353
  952W        W72623   3.901  34.555  14.896
  953W        W72624  39.867   0.208   2.804
  954W        W72625  25.911  43.424  14.377
  955W        W72626  40.825  21.034   0.879
  956W        W72627   1.027  27.174  11.022
  957W        W72628  25.102  16.220   0.026
  958W        W72629  13.074  27.544   2.860
  959W        W72630  13.374  42.373  13.009
  960W        W72631  42.398  30.599  10.638
  961W        W72632  23.264  24.592   3.342
  962W        W72633  39.963  29.393  14.730
  963W        W72634  23.720   9.977   0.247
  964W        W72635  27.927  32.095   2.393
  965W        W72636  35.350  14.732  12.828
  966W        W72637  36.874  14.942  13.816
  967W        W72638  42.322  41.420   1.924
  968W        W72639  28.631  35.532  14.202
  969W        W72640  36.623  28.032  14.315
  970W        W72641  35.607  10.542   1.236
  971W        W72642  13.078  31.358  11.773
  972W        W72643  30.123  19.079  13.464
  973W        W72644  23.302  19.943  13.209
  974W        W72645  16.965  35.579   1.226
  975W        W72646  19.814  28.737   4.101
  976W        W72647  43.936  31.185   3.644
  977W        W72648  43.083   4.389   1.927
  978W        W72649  12.009  16.180  11.518
  979W        W72650  32.534  17.126   4.424
  980W        W72651  43.420  11.792   3.313
  981W        W72652  20.340  15.032  11.396
  982W        W72653   8.464  29.619   1.301
  983W        W72654  41.582   2.617  11.611
  984W        W72655  12.641  24.753  12.063
  985W        W72656  36.558  25.930  12.032
  986W        W72657  11.759   5.123  14.850
  987W        W72658   1.924  16.282  14.429
  988W        W72659  44.202  36.405  10.457
  989W        W72660   0.847   2.862   4.697
  990W        W72661  39.474  25.100   3.816
  991W        W72662   4.604  13.562   3.812
  992W        W72663  21.661   3.287  14.114
  993W        W72664   9.688   8.524   2.267
  994W        W72665  41.956  42.936   4.575
  995W        W72666   9.969  29.549  13.837
  996W        W72667   4.934  23.087   1.392
  997W        W72668  21.607  29.064   5.009
  998W        W72669  25.365  18.473  11.107
  999W        W72670   2.876   9.595   3.730
 1000W        W72671  30.495  26.511  11.501
 1001W        W72672  33.071  31.575   3.762
 1002W        W72673  41.581  17.990  14.377
 1003W        W72674  16.231  23.512  12.502
 1004W        W72675  30.336  43.845  11.208
 1005W        W72676  26.648   0.320   4.613
 1006W        W72677  44.337  43.262  11.556
 1007W        W72678  17.311  41.858  12.109
 1008W        W72679   6.528  44.888   3.869
 1009W        W72680  10.628   8.950   1.822
 1010W        W72681  42.455  10.457  13.495
 1011W        W72682   3.423  32.980  10.569
 1012W        W72683  18.921  30.118   1.863
 1013W        W72684  21.971  44.912  14.566
 1014W        W72685  38.339   1.546  13.374
 1015W        W72686   2.996  21.190  13.889
 1016W        W72687  18.373  36.902  10.468
 1017W        W72688  16.579  13.143  12.037
 1018W        W72689  30.799  15.695   1.977
 1019W        W72690  42.538  36.796  14.497
 1020W        W72691   8.403  16.164   4.207
 1021W        W72692   8.405  30.289   0.162
 1022W        W72693  31.431  15.095   4.812
 1023W        W72694   2.514  15.765   0.232
 1024W        W72695  23.362  15.458  14.561
 1025W        W72696  11.829  10.156   5.025
 1026W        W72697   4.909  17.057  10.878
 1027W        W72698   2.663   9.217  13.035
 1028W        W72699  31.053  38.627  10.973
 1029W        W72700  15.049  15.051   3.550
 1030W        W72701  29.539  36.800  12.500
 1031W        W72702  11.814   9.255   4.541
 1032W        W72703  34.780  41.077   2.500
 1033W        W72704   3.399  36.456   1.406
 1034W        W72705  34.896  38.893  14.666
 1035W        W72706  12.265   5.801   1.338
 1036W        W72707   5.707  29.575  10.509
 1037W        W72708   8.881   5.244   2.844
 1038W        W72709   3.511   7.876   1.007
 1039W        W72710  15.787  22.132   2.291
 1040W        W72711  13.832  39.233   0.343
 1041W        W72712  29.944  37.602  12.118
 1042W        W72713  29.082  39.967   2.638
 1043W        W72714   4.042   5.884   0.161
 1044W        W72715  26.419  20.552  13.895
 1045W        W72716  40.650  17.335   4.588
 1046W        W72717   8.885   2.509   0.025
 1047W        W72718   3.396  24.975  13.954
 1048W        W72719  43.361  19.582  11.541
 1049W        W72720  11.620  10.260  14.962
 1050W        W72721  26.282   9.885  11.058
 1051W        W72722  38.353  32.050   0.276
 1052W        W72723  37.346   0.784   4.633
 1053W        W72724  14.819   9.845   3.524
 1054W        W72725   8.221   4.473  11.391
 1055W        W72726  23.357   7.725   4.729
 1056W        W72727  12.274  22.723   3.639
 1057W        W72728  22.349  29.014   1.752
 1058W        W72729  21.714  24.774   2.640
 1059W        W72730  24.030  11.119  14.269
 1060W        W72731   6.414  18.290  13.556
 1061W        W72732  18.171  10.845  13.125
 1062W        W72733  36.075  40.454   0.549
 1063W        W72734  25.072  32.253   0.777
 1064W        W72735  30.151  44.252   3.207
 1065W        W72736  14.874  12.215  10.887
 1066W        W72737  24.207  41.851  11.616
 1067W        W72738  35.501  13.305  12.930
 1068W        W72739  21.873  15.619  11.896
 1069W        W72740  32.693   6.148   0.758
 1070W        W72741  31.444  16.056  12.559
 1071W        W72742   2.478  32.632   4.627
 1072W        W72743  12.336   7.865  13.842
 1073W        W72744  29.713  13.010  13.914
 1074W        W72745  41.720  18.045   3.198
 1075W        W72746   7.401  44.024   2.792
 1076W        W72747  30.229  23.427  12.521
 1077W        W72748  29.259  37.452  14.335
 1078W        W72749   6.741  32.018  13.912
 1079W        W72750  21.910  18.923  13.392
 1080W        W72751   9.816   2.434   2.635
 1081W        W72752  35.042  37.094  13.574
 1082W        W72753   1.752  44.316   2.478
 1083W        W72754  15.661  37.456  14.360
 1084W        W72755  36.209  14.222  12.381
 1085W        W72756  25.737  27.945   1.821
 1086W        W72757  38.521   8.400   0.903
 1087W        W72758  39.955  43.272  14.819
 1088W        W72759  13.698  42.414  11.014
 1089W        W72760  41.243  31.657   0.742
 1090W        W72761  19.852  21.535  11.978
 1091W        W72762  42.100  41.856  10.251
 1092W        W72763  14.112  40.859  11.991
 1093W        W72764  31.131  35.045  10.771
 1094W        W72765  24.225   6.355  11.127
 1095W        W72766  15.451  12.382   3.047
 1096W        W72767  16.339  16.866   4.086
 1097W        W72768   0.453  40.306   0.300
 1098W        W72769  28.013  31.834  14.102
 1099W        W72770   0.832   0.841   4.837
 1100W        W72771   1.359  19.951   9.715
 1101W        W72772  35.484  28.695   2.273
 1102W        W72773  16.347   9.663   3.940
 1103W        W72774  35.098   3.814   1.959
 1104W        W72775  43.491  38.521   2.627
 1105W        W72776  31.022  41.108  11.866
 1106W        W72777  11.422   0.073   1.614
 1107W        W72778  17.813  17.878  14.205
 1108W        W72779  16.812  19.598   3.979
 1109W        W72780  24.382  35.990   4.481
 1110W        W72781  27.831  15.012   0.247
 1111W        W72782  42.141   5.447  14.593
 1112W        W72783  14.215  29.150   1.341
 1113W        W72784  44.935  40.741   3.301
 1114W        W72785  40.962  26.364   1.829
 1115W        W72786  22.696  22.510  10.607
 1116W        W72787  13.649  19.609   1.763
 1117W        W72788  34.890   3.118   4.534
 1118W        W72789  23.894  14.951   1.119
 1119W        W72790  31.965  39.530   4.710
 1120W        W72791  38.090   1.783   4.674
 1121W        W72792   2.061  30.976  13.864
 1122W        W72793  18.812  16.013  11.922
 1123W        W72794  37.772  39.541  11.061
 1124W        W72795  10.102  16.985  12.922
 1125W        W72796  35.837  18.576  12.589
 1126W        W72797  18.045   3.983   1.704
 1127W        W72798  11.199  21.292   3.199
 1128W        W72799   9.809   9.450  14.395
 1129W        W72800  30.452  31.067  10.684
 1130W        W72801  29.911  13.163   2.820
 1131W        W72802  28.406   1.316  12.911
 1132W        W72803  17.131  25.393  12.089
 1133W        W72804  26.476  36.063  13.757
 1134W        W72805  41.316  16.604   1.323
 1135W        W72806  35.905  26.996   3.185
 1136W        W72807   5.044  42.312  11.280
 1137W        W72808  16.306  27.519   3.051
 1138W        W72809   9.197  35.099  11.484
 1139W        W72810   5.216  25.630  13.065
 1140W        W72811  37.994  39.848   1.485
 1141W        W72812   3.901  20.187  12.609
 1142W        W72813   5.764  42.044   3.821
 1143W        W72814   6.435  32.459   2.287
 1144W        W72815   9.797  22.290   2.315
 1145W        W72816  17.316  30.161  12.540
 1146W        W72817  44.671  11.332  14.945
 1147W        W72818  32.897  44.875   2.186
 1148W        W72819  24.844  22.560   3.572
 1149W        W72820   2.183  12.839   0.853
 1150W        W72821  28.051  10.802   3.135
 1151W        W72822  25.526  19.333  11.526
 1152W        W72823  10.434  39.490   1.847
 1153W        W72824  23.937  39.526   2.315
 1154W        W72825  38.159   7.423   5.012
 1155W        W72826   5.890  28.006  10.188
 1156W        W72827  18.088  24.360   3.646
 1157W        W72828  32.402  33.584   1.292
 1158W        W72829  42.242  42.883  11.965
 1159W        W72830  20.984  23.182  11.823
 1160W        W72831  19.704  20.787  10.926
 1161W        W72832  39.602  33.610   3.031
 1162W        W72833  39.052  38.622  13.415
 1163W        W72834   6.319   7.869   3.882
 1164W        W72835  14.821  40.787   1.190
 1165W        W72836  19.432   9.681  12.921
 1166W        W72837  16.077  18.246  13.832
 1167W        W72838  41.809   8.013  14.899
 1168W        W72839  39.523   8.211   0.818
 1169W        W72840  21.353  10.865  13.172
 1170W        W72841  34.363  29.314  11.896
 1171W        W72842  18.611   6.973   3.163
 1172W        W72843   7.676  43.358   3.792
 1173W        W72844  22.514   5.737  14.316
 1174W        W72845  18.786   9.272   3.127
 1175W        W72846   5.973  17.751  13.051
 1176W        W72847  22.987   1.620  12.816
 1177W        W72848  10.035  13.366   0.301
 1178W        W72849  34.644  34.055   3.336
 1179W        W72850  29.910  19.899  10.756
 1180W        W72851  43.105   3.160   2.347
 1181W        W72852   1.078   5.677  13.956
 1182W        W72853  11.572  26.151  13.788
 1183W        W72854  19.737  29.886   0.961
 1184W        W72855  18.386  25.147   2.365
 1185W        W72856  27.486  31.399   4.659
 1186W        W72857   1.349  34.371   4.541
 1187W        W72858  37.472   1.687  12.992
 1188W        W72859   8.304  23.942  11.583
 1189W        W72860  22.167  27.180   1.915
 1190W        W72861  21.184  18.068  12.437
 1191W        W72862  38.476   2.876   1.240
 1192W        W72863  40.884  22.938   4.513
 1193W        W72864   1.183   8.309  13.013
 1194W        W72865  17.550  10.122   2.882
 1195W        W72866  44.464  37.106   1.456
 1196W        W72867  40.310  13.725  13.078
 1197W        W72868  26.928  16.314   1.203
 1198W        W72869  36.927  39.895  12.161
 1199W        W72870   4.455  32.896   3.247
 1200W        W72871  41.748  27.067   4.703
 1201W        W72872  27.700  35.115  11.899
 1202W        W72873   8.786  26.878   0.375
 1203W        W72874   6.177   2.014   1.348
 1204W        W72875  19.665  29.056  14.968
 1205W        W72876  31.933  39.940  12.520
 1206W        W72877   6.860  10.370  14.858
 1207W        W72878  22.420   1.772  14.859
 1208W        W72879  35.327  36.907  14.721
 1209W        W72880  27.047  16.750  10.945
 1210W        W72881   8.360  33.583  14.475
 1211W        W72882   9.312   3.401  10.350
 1212W        W72883   6.284  23.733  12.383
 1213W        W72884   3.276  24.157   1.631
 1214W        W72885   2.748  37.718   3.108
 1215W        W72886  23.890  27.005  11.202
 1216W        W72887   8.848  33.483  13.555
 1217W        W72888   4.198  28.920  11.909
 1218W        W72889   4.974  10.743   4.053
 1219W        W72890  25.265   1.446   3.002
 1220W        W72891   3.850  35.137   2.261
 1221W        W72892   4.295   8.934  13.498
 1222W        W72893  12.669  16.059   3.332
 1223W        W72894  22.154  15.701  14.852
 1224W        W72895  21.036   0.002   1.305
 1225W        W72896  14.791  25.149  14.210
 1226W        W72897  32.888  24.543  12.082
 1227W        W72898  20.289  34.882  14.392
 1228W        W72899  21.731   3.030   3.284
 1229W        W72900   7.225  10.673  10.487
 1230W        W72901  41.838  32.647  12.926
 1231W        W72902  44.225  28.913  10.390
 1232W        W72903  11.906   4.499  11.481
 1233W        W72904   0.709  11.359   1.965
 1234W        W72905  17.971  17.617   1.502
 1235W        W72906  40.558  10.242  10.238
 1236W        W72907   7.882  29.029   3.094
 1237W        W72908   0.211  31.913   1.416
 1238W        W72909  12.004  30.671   2.258
 1239W        W72910  22.302  31.988  11.525
 1240W        W72911   8.716   9.856  11.997
 1241W        W72912  14.728  13.257   2.203
 1242W        W72913  16.699  25.704  14.892
 1243W        W72914  31.765   4.006   4.874
 1244W        W72915  16.497  21.627   3.920
 1245W        W72916  10.666  27.017  11.617
 1246W        W72917  26.089  39.323  12.523
 1247W        W72918  24.832   7.695   0.210
 1248W        W72919  19.646  41.808   1.333
 1249W        W72920   8.758  37.847  11.125
 1250W        W72921   6.872  43.696  14.207
 1251W        W72922  19.741  14.592  10.284
 1252W        W72923  21.809  21.771   3.705
 1253W        W72924  42.080  40.975   1.821
 1254W        W72925  27.984  18.234  11.708
 1255W        W72926  31.956  20.602  14.987
 1256W        W72927  16.160  29.098   4.605
 1257W        W72928  11.185  34.356  11.565
 1258W        W72929  23.715  28.285   2.869
 1259W        W72930  16.572  26.170   1.651
 1260W        W72931   1.517  10.185   4.934
 1261W        W72932  38.382  33.455  11.866
 1262W        W72933  43.947  19.770   2.937
 1263W        W72934  25.658  13.083   2.791
 1264W        W72935   4.031  33.382  11.118
 1265W        W72936  11.868  41.405   1.731
 1266W        W72937  29.157  35.688  11.178
 1267W        W72938  13.934  22.039  14.111
 1268W        W72939   0.149  14.702  14.512
 1269W        W72940  13.250   3.999   0.339
 1270W        W72941  11.864  17.595  10.814
 1271W        W72942  17.505  30.594   0.639
 1272W        W72943  20.101  33.636  11.617
 1273W        W72944  24.808  10.649   0.723
 1274W        W72945   1.324   0.171   1.909
 1275W        W72946   7.638  35.407  10.460
 1276W        W72947   5.901  31.511  10.527
 1277W        W72948  41.054   1.894  12.529
 1278W        W72949  27.808  28.489  14.271
 1279W        W72950  36.815   2.367  13.916
 1280W        W72951  27.768  20.226  12.925
 1281W        W72952  21.269  25.253   4.199
 1282W        W72953   2.754  32.971   1.983
 1283W        W72954  30.953  28.912  11.985
 1284W        W72955  18.290  11.751  12.672
 1285W        W72956  33.611  21.971  11.269
 1286W        W72957   1.786  24.490  14.823
 1287W        W72958  28.653   6.089   0.608
 1288W        W72959   3.511  19.910   0.040
 1289W        W72960  27.825  20.018   1.676
 1290W        W72961  36.924  18.473  12.962
 1291W        W72962  18.594  31.348  11.290
 1292W        W72963   7.827   9.790   4.536
 1293W        W72964  21.971  24.339   4.533
 1294W        W72965  33.647  10.410   3.160
 1295W        W72966  20.389  33.487   1.854
 1296W        W72967  15.290  25.789   2.366
 1297W        W72968   1.301  22.125  11.499
 1298W        W72969  37.817   0.675  13.099
 1299W        W72970  23.137  23.165  14.361
 1300W        W72971  10.438  22.247   3.715
 1301W        W72972   9.168  31.993  11.187
 1302W        W72973  25.039  33.964  10.906
 1303W        W72974  33.649  43.223  10.328
 1304W        W72975  10.656  22.702   4.435
 1305W        W72976  38.128   9.141  14.410
 1306W        W72977  40.047  34.496   1.770
 1307W        W72978  30.450  21.035  14.463
 1308W        W72979  28.697  39.475  10.553
 1309W        W72980  21.979  25.089  12.822
 1310W        W72981  14.646  40.050  12.841
 1311W        W72982  38.447  41.163   4.327
 1312W        W72983  35.147  22.921  11.168
 1313W        W72984  23.210  33.091  13.745
 1314W        W72985  13.774   1.843  13.418
 1315W        W72986  18.008   0.462   4.209
 1316W        W72987  20.001   2.420   2.300
 1317W        W72988  19.734  41.425   3.849
 1318W        W72989  11.366  33.102   0.236
 1319W        W72990  31.156  24.823   4.248
 1320W        W72991  26.265  24.603  11.087
 1321W        W72992  16.253  27.615  11.547
 1322W        W72993   4.890  12.702  14.345
 1323W        W72994  32.691  30.712  13.926
 1324W        W72995   8.617  38.450   4.174
 1325W        W72996  34.231  31.849   2.197
 1326W        W72997   3.075   3.310   4.429
 1327W        W72998  34.682  20.775   4.004
 1328W        W72999   7.270  16.192   1.293
 1329W        W73000  36.726   7.209  12.064
 1330W        W73001   8.637  19.061  14.981
 1331W        W73002  27.998  13.151  13.460
 1332W        W73003  37.823  20.825   0.800
 1333W        W73004  10.976  14.227  11.569
 1334W        W73005  19.909  21.987   2.206
 1335W        W73006  28.851  37.091  14.327
 1336W        W73007  16.834  12.504   0.898
 1337W        W73008   9.288  23.197  11.721
 1338W        W73009   1.913  29.199  13.358
 1339W        W73010  42.090  27.974  13.837
 1340W        W73011  17.111  36.086  13.597
 1341W        W73012  39.485  43.893  10.943
 1342W        W73013  22.657  39.304   2.920
 1343W        W73014  44.309  34.556   3.207
 1344W        W73015   5.278  29.916   1.780
 1345W        W73016   8.301  29.025  10.798
 1346W        W73017  14.146  20.039  12.553
 1347W        W73018  40.104  35.924   1.394
 1348W        W73019  24.724  44.214   0.740
 1349W        W73020   9.939  30.925  13.868
 1350W        W73021  34.066  15.795  11.993
 1351W        W73022  37.643   3.403  13.599
 1352W        W73023  41.993   5.713   3.092
 1353W        W73024  34.201  29.585  12.569
 1354W        W73025  41.879  24.553   1.707
 1355W        W73026  26.763  20.018  12.983
 1356W        W73027   6.591  11.600  11.056
 1357W        W73028   0.525   8.823  12.409
 1358W        W73029  24.509  18.001   1.020
 1359W        W73030  37.467  44.036   3.184
 1360W        W73031   2.467  24.977  14.893
 1361W        W73032  29.552  30.628   1.895
 1362W        W73033  32.397  41.253  14.327
 1363W        W73034  44.492  24.229  12.054
 1364W        W73035   5.487  24.544   4.501
 1365W        W73036  37.146  40.420   2.335
 1366W        W73037   6.195  25.128  14.523
 1367W        W73038  30.878  14.953  13.669
 1368W        W73039   3.031  11.349  13.489
 1369W        W73040  31.889  15.052  14.441
 1370W        W73041  26.951  31.409  12.703
 1371W        W73042  37.977  38.629   4.512
 1372W        W73043  26.721   2.782  11.129
 1373W        W73044  26.540  39.031  13.954
 1374W        W73045  34.439  10.109   4.079
 1375W        W73046  24.188  16.291  12.013
 1376W        W73047  36.574  11.486   1.606
 1377W        W73048   7.195   9.271   3.228
 1378W        W73049  34.339  22.528   0.208
 1379W        W73050  23.274  14.953   1.357
 1380W        W73051  22.630  27.234   1.102
 1381W        W73052   8.353  20.829  11.531
 1382W        W73053  43.404  18.762   3.980
 1383W        W73054  37.497   3.796   2.730
 1384W        W73055  23.852  20.285  11.519
 1385W        W73056  16.328   4.052  11.540
 1386W        W73057  23.964  23.335   3.004
 1387W        W73058   6.619  10.521  12.091
 1388W        W73059  23.587  18.710   1.164
 1389W        W73060   1.789  22.467   1.985
 1390W        W73061  19.726   5.401  14.929
 1391W        W73062   9.927  43.883   1.799
 1392W        W73063  44.217   5.444  14.619
 1393W        W73064   1.906  28.878  14.330
 1394W        W73065  43.896  22.090  10.746
 1395W        W73066   7.714  18.818  13.810
 1396W        W73067  18.754  15.089   4.112
 1397W        W73068  38.308  25.979   0.433
 1398W        W73069  21.463   9.973  14.845
 1399W        W73070  33.083   3.195   0.828
 1400W        W73071  41.893  34.614  11.172
 1401W        W73072  44.512  28.228   3.280
 1402W        W73073  36.406   2.503  14.781
 1403W        W73074  44.735  21.645  10.969
 1404W        W73075   2.327  15.062  10.532
 1405W        W73076   8.358  15.490  13.404
 1406W        W73077  34.372   3.247   1.131
 1407W        W73078  19.335  11.155  11.019
 1408W        W73079  10.878  13.559   4.155
 1409W        W73080  17.781  33.871   1.074
 1410W        W73081  35.792  16.346  11.174
 1411W        W73082  12.775  22.172   0.890
 1412W        W73083  27.169  15.319  10.407
 1413W        W73084  11.278  31.904   2.163
 1414W        W73085  12.212  40.374   3.971
 1415W        W73086  13.289  17.493   3.623
 1416W        W73087  41.253  23.475  12.518
 1417W        W73088  21.934   9.376   3.799
 1418W        W73089  36.570  34.802  10.696
 1419W        W73090  27.039   1.616  12.951
 1420W        W73091  31.009   6.714  13.387
 1421W        W73092  40.271  25.514  12.503
 1422W        W73093  17.222  38.818   1.065
 1423W        W73094  35.390  22.577   3.829
 1424W        W73095  19.212  24.167   3.181
 1425W        W73096  43.726  41.105   9.690
 1426W        W73097   7.157  43.977  12.587
 1427W        W73098  24.025  42.324   2.746
 1428W        W73099  12.110  12.316   2.289
 1429W        W73100   5.976   6.234   1.345
 1430W        W73101  13.203   5.218  10.707
 1431W        W73102   9.284  37.810  11.292
 1432W        W73103  43.555  23.548   4.116
 1433W        W73104  43.702  20.704   2.872
 1434W        W73105  23.789  11.814  14.063
 1435W        W73106  25.338  27.052   3.107
 1436W        W73107  36.122  30.468   1.012
 1437W        W73108  30.905   1.207   3.099
 1438W        W73109  31.883  15.703   3.739
 1439W        W73110   1.081  13.766   1.251
 1440W        W73111  19.275  22.915  13.536
 1441W        W73112  37.146  12.007  14.355
 1442W        W73113   9.138  18.957   0.002
 1443W        W73114  28.212  25.106   3.657
 1444W        W73115  20.139  18.208   4.619
 1445W        W73116  40.378  11.894   0.904
 1446W        W73117  32.920  15.594  11.562
 1447W        W73118  29.422  41.822  10.739
 1448W        W73119  14.654  27.693  11.139
 1449W        W73120   2.761   8.256   3.800
 1450W        W73121  17.412  31.413   3.452
 1451W        W73122  21.517  39.709  10.559
 1452W        W73123   1.493  15.426  10.584
 1453W        W73124  20.227  34.133   2.875
 1454W        W73125   3.432  32.386   1.205
 1455W        W73126  10.193  14.571   3.627
 1456W        W73127  37.317   5.071  13.093
 1457W        W73128  31.854  25.486   3.119
 1458W        W73129   6.133  24.583   0.270
 1459W        W73130  19.903  44.768   3.178
 1460W        W73131  30.219   9.764  13.811
 1461W        W73132  25.793  17.637   2.945
 1462W        W73133  17.742   9.457  14.938
 1463W        W73134  11.028  28.849   3.335
 1464W        W73135  15.833   0.377  10.232
 1465W        W73136  11.681  35.409  12.445
 1466W        W73137  38.981   9.203   4.990
 1467W        W73138  34.545  21.657   4.203
 1468W        W73139  16.212  11.781   1.025
 1469W        W73140   7.163  10.541   3.576
 1470W        W73141   5.734  10.673  11.888
 1471W        W73142  32.830  10.915  13.947
 1472W        W73143  29.507   4.211   1.794
 1473W        W73144   0.987   7.066   3.134
 1474W        W73145   2.273  24.289  12.443
 1475W        W73146  31.552  41.575  10.627
 1476W        W73147   3.825  23.982   2.228
 1477W        W73148  43.192  23.515   5.428
 1478W        W73149  21.414  38.909   0.325
 1479W        W73150  35.237  36.362   4.923
 1480W        W73151  10.059   9.255  13.955
 1481W        W73152   8.704  15.881  14.663
 1482W        W73153  24.578  23.586   4.062
 1483W        W73154  21.656  37.876  12.569
 1484W        W73155  42.948  17.509   4.651
 1485W        W73156  44.446  37.849  12.732
 1486W        W73157  30.585  26.140   0.744
 1487W        W73158  41.178  22.689   3.564
 1488W        W73159  28.974  12.524  12.903
 1489W        W73160   2.380  24.801  11.643
 1490W        W73161  37.167  34.068   0.376
 1491W        W73162  17.846  36.157   1.848
 1492W        W73163  25.974  22.209  14.731
 1493W        W73164  39.836  40.299   0.184
 1494W        W73165  10.100  11.186   0.829
 1495W        W73166  17.808  23.056   4.259
 1496W        W73167  19.227  21.329  13.769
 1497W        W73168   1.461  30.634   1.955
 1498W        W73169  39.816  12.795   4.563
 1499W        W73170  18.143  18.381   3.232
 1500W        W73171  44.575  32.370  11.472
 1501W        W73172  37.432  19.007   2.932
 1502W        W73173  12.692  28.597   1.693
 1503W        W73174  23.712   7.348   2.296
 1504W        W73175   5.358   8.386   2.935
 1505W        W73176   0.748  42.481  13.523
 1506W        W73177  28.671  22.414  11.837
 1507W        W73178  26.077  36.102   4.790
 1508W        W73179  31.665  42.177   1.816
 1509W        W73180  30.963  17.088   2.307
 1510W        W73181  33.780   1.401  11.337
 1511W        W73182  21.102  29.221   1.049
 1512W        W73183  28.967   2.432  10.497
 1513W        W73184  27.113  39.298  14.776
 1514W        W73185  17.305  23.973   3.165
 1515W        W73186  19.716  30.460   4.944
 1516W        W73187  26.943   4.107  13.256
 1517W        W73188  44.259  42.360  11.402
 1518W        W73189   5.291   0.366  11.595
 1519W        W73190   9.251  28.219   1.423
 1520W        W73191   4.639  19.953  13.029
 1521W        W73192  23.412  27.109  11.435
 1522W        W73193  41.240  39.091  13.957
 1523W        W73194   5.909  35.423  13.829
 1524W        W73195  21.655  30.792  13.867
 1525W        W73196  42.499  23.581  10.242
 1526W        W73197  34.719  28.267   3.974
 1527W        W73198   6.011  36.066  14.929
 1528W        W73199   0.345  33.916   1.788
 1529W        W73200  40.861  34.603  14.976
 1530W        W73201  33.804  22.729  14.263
 1531W        W73202   1.769   9.139  13.114
 1532W        W73203  29.685  19.564  11.113
 1533W        W73204  10.820  14.855  13.249
 1534W        W73205  25.207  29.386   0.468
 1535W        W73206  12.138  28.988   0.381
 1536W        W73207  40.087   6.265   4.108
 1537W        W73208   5.652  26.177   2.783
 1538W        W73209  25.440   0.928   1.856
 1539W        W73210  17.121  34.850  14.037
 1540W        W73211   6.224  33.024  11.077
 1541W        W73212  38.158   3.141   2.488
 1542W        W73213  37.911   2.992   4.705
 1543W        W73214   8.221  37.865  13.555
 1544W        W73215  35.055  28.643  11.871
 1545W        W73216  22.339  27.779  12.635
 1546W        W73217  38.902  18.358   2.306
 1547W        W73218  14.738  12.713  12.629
 1548W        W73219  19.158  39.568   4.871
 1549W        W73220   9.270  22.301   4.046
 1550W        W73221  23.442  19.647   0.485
 1551W        W73222  19.144  33.699   0.322
 1552W        W73223  35.928  23.999  13.341
 1553W        W73224  31.619  40.864   1.745
 1554W        W73225   5.395   7.142   4.388
 1555W        W73226  33.512  29.210   2.155
 1556W        W73227  34.982   5.075  13.188
 1557W        W73228  44.985  20.163   3.720
 1558W        W73229  26.215  33.857  13.273
 1559W        W73230  24.757  10.878   2.771
 1560W        W73231  17.154   9.314   4.375
 1561W        W73232   1.281  29.603   2.883
 1562W        W73233  42.860  37.428  10.676
 1563W        W73234  30.124  18.756   4.579
 1564W        W73235  24.132   6.709   1.133
 1565W        W73236  41.456  24.555   3.461
 1566W        W73237  24.104   0.532   1.136
 1567W        W73238  14.007   0.495   1.172
 1568W        W73239  28.658  42.875   1.277
 1569W        W73240  24.179   3.824   3.709
 1570W        W73241  14.544  17.155   4.628
 1571W        W73242  34.592  25.952  12.172
 1572W        W73243  33.183   4.985  14.372
 1573W        W73244  22.623  37.569  14.069
 1574W        W73245  24.958  39.413   0.641
 1575W        W73246  44.644  19.375   1.745
 1576W        W73247  30.782   4.437   3.566
 1577W        W73248  25.409  42.488  11.572
 1578W        W73249  17.430   8.866   4.312
 1579W        W73250  22.657  31.312   2.630
 1580W        W73251  10.228   2.059   4.736
 1581W        W73252   7.410  43.985   3.665
 1582W        W73253  21.089  26.157   1.704
 1583W        W73254  41.130  28.449   0.442
 1584W        W73255  38.886  42.801   3.947
 1585W        W73256  18.699  37.433   4.611
 1586W        W73257   0.938  38.815  11.256
 1587W        W73258  21.570  31.564  10.680
 1588W        W73259  43.476  35.953  14.816
 1589W        W73260   1.187   9.894   0.289
 1590W        W73261   4.007  43.675  11.076
 1591W        W73262  23.693  39.305   4.166
 1592W        W73263   1.408  15.574  14.613
 1593W        W73264  10.960  11.529  11.981
 1594W        W73265  38.648  34.307  13.089
 1595W        W73266  36.999  34.070   1.362
 1596W        W73267  21.818  17.460   4.665
 1597W        W73268  15.310  22.799  12.062
 1598W        W73269   7.409  31.204   4.746
 1599W        W73270  31.184   8.558  13.342
 1600W        W73271   0.925   8.280  11.689
 1601W        W73272  13.136  29.573   1.999
 1602W        W73273  26.115  31.139  10.757
 1603W        W73274   6.105  14.751   0.038
 1604W        W73275  24.755  35.306   0.723
 1605W        W73276  40.526  25.001  12.678
 1606W        W73277  29.006  12.574  12.328
 1607W        W73278  20.207  17.932  12.447
 1608W        W73279  20.170  27.911  12.047
 1609W        W73280   2.250  36.163  11.670
 1610W        W73281  37.841  13.391  13.615
 1611W        W73282  21.809  35.822  12.467
 1612W        W73283  10.317  10.821   4.093
 1613W        W73284  38.915  34.347   2.260
 1614W        W73285   2.420  38.947  14.742
 1615W        W73286  12.605   9.119  11.562
 1616W        W73287  11.478   7.563  13.903
 1617W        W73288  20.595  20.687   3.358
 1618W        W73289  28.883   6.207   3.640
 1619W        W73290  24.609  31.613   0.804
 1620W        W73291  29.118  44.979   4.117
 1621W        W73292   2.348  34.468   0.930
 1622W        W73293  18.043  11.844  14.543
 1623W        W73294   1.434  17.319  13.841
 1624W        W73295   7.340  12.957  13.036
 1625W        W73296  21.313  15.212  12.651
 1626W        W73297   8.986  34.419  13.395
 1627W        W73298  33.429   1.995  14.896
 1628W        W73299  20.607  36.410   0.973
 1629W        W73300  25.902   9.886   2.690
 1630W        W73301  30.072  35.555  12.525
 1631W        W73302   2.239  10.734  14.786
 1632W        W73303  27.195  36.821   3.647
 1633W        W73304  22.051  36.631  13.127
 1634W        W73305   0.958  43.262   0.385
 1635W        W73306  16.198  34.146  11.290
 1636W        W73307  10.739  10.800   0.656
 1637W        W73308  28.537  32.878   4.146
 1638W        W73309   4.426  17.777   3.019
 1639W        W73310  44.246   7.723   4.360
 1640W        W73311  34.477   2.209  11.189
 1641W        W73312   4.938   7.816   1.835
 1642W        W73313   7.686  19.804   1.354
 1643W        W73314  12.517  28.095   4.229
 1644W        W73315  21.716  10.912  14.919
 1645W        W73316  14.760   7.098   4.498
 1646W        W73317  42.124  17.768  11.929
 1647W        W73318  24.388  32.096  10.834
 1648W        W73319  41.560  28.612   0.193
 1649W        W73320  37.805  42.108   4.901
 1650W        W73321  44.971   0.212   0.793
 1651W        W73322  27.952  19.531   3.659
 1652W        W73323  39.443  19.220  12.939
 1653W        W73324  20.651  12.665   0.925
 1654W        W73325  17.755  39.357   1.136
 1655W        W73326  30.407  38.485  13.782
 1656W        W73327  11.065  41.582  11.123
 1657W        W73328   8.283   6.145   1.806
 1658W        W73329  41.824  17.067  13.334
 1659W        W73330  24.462   6.569   4.097
 1660W        W73331  43.833  44.857  13.177
 1661W        W73332   4.255   3.492   3.730
 1662W        W73333  40.332  15.905  13.449
 1663W        W73334   8.883  23.436  13.837
 1664W        W73335  40.855  44.407   4.603
 1665W        W73336   2.314  31.943  11.082
 1666W        W73337   4.362  19.785   1.743
 1667W        W73338  39.810   4.721   2.698
 1668W        W73339  32.424  16.567  11.161
 1669W        W73340   1.209  36.417  11.178
 1670W        W73341  13.688   7.055   9.794
 1671W        W73342   5.213   7.191  11.473
 1672W        W73343  40.435  32.117  11.945
 1673W        W73344   2.063   0.899  12.956
 1674W        W73345   1.695  34.672  11.075
 1675W        W73346   7.249  31.169  14.192
 1676W        W73347   9.774  16.369  14.382
 1677W        W73348  44.402   2.844   1.422
 1678W        W73349  32.954  19.014   2.812
 1679W        W73350  21.330  11.700  10.082
 1680W        W73351   6.192  34.176  10.705
 1681W        W73352   8.689  37.268   2.372
 1682W        W73353  11.471  10.763  12.808
 1683W        W73354  37.510  34.880   2.176
 1684W        W73355  22.279  18.167  10.613
 1685W        W73356  30.052  27.104  14.511
 1686W        W73357  20.685   5.271  11.917
 1687W        W73358  19.890  42.268   4.274
 1688W        W73359  44.972  22.219  12.637
 1689W        W73360  18.669  40.933  12.164
 1690W        W73361  10.148  21.668  14.740
 1691W        W73362  17.044  41.525   4.530
 1692W        W73363   4.217  37.549   0.035
 1693W        W73364  32.543  32.461  13.133
 1694W        W73365  39.937  35.645  14.456
 1695W        W73366  19.189  11.731   1.382
 1696W        W73367   9.278  40.198   1.808
 1697W        W73368  44.670   5.063  13.847
 1698W        W73369  42.396  21.440   5.116
 1699W        W73370  22.539  36.566   4.686
 1700W        W73371   1.670   1.908  14.462
 1701W        W73372  28.932  40.015  11.435
 1702W        W73373  38.748  13.154  11.156
 1703W        W73374  22.210  38.576   4.065
 1704W        W73375  41.430   0.760  10.694
 1705W        W73376  35.998   8.576  13.523
 1706W        W73377  15.752   5.844  11.691
 1707W        W73378   3.804  22.105  14.736
 1708W        W73379  24.332   7.239  10.323
 1709W        W73380  12.637  18.982  13.863
 1710W        W73381  17.268  14.261   5.092
 1711W        W73382  38.364   5.409  13.973
 1712W        W73383  22.462  42.596  14.873
 1713W        W73384  29.000   1.284   2.125
 1714W        W73385  32.067  40.761  12.131
 1715W        W73386  13.318   1.778   5.347
 1716W        W73387   8.216   4.842  13.165
 1717W        W73388  32.838   5.160  13.591
 1718W        W73389  10.853  42.001   0.749
 1719W        W73390  44.290  10.739  10.885
 1720W        W73391   9.840  10.551   0.734
 1721W        W73392  34.084  22.951   0.932
 1722W        W73393  39.947  10.777  12.864
 1723W        W73394  22.582  41.278   5.071
 1724W        W73395  42.446  39.779  10.655
 1725W        W73396   3.446  37.898  11.573
 1726W        W73397  14.072  44.713  12.279
 1727W        W73398  21.458  37.590  12.123
 1728W        W73399   2.496   6.226  12.100
 1729W        W73400   0.391   7.633   0.310
 1730W        W73401  41.850   0.191   1.425
 1731W        W73402  32.897  42.009   1.053
 1732W        W73403  16.849   4.201   0.836
 1733W        W73404  12.688  16.337  12.475
 1734W        W73405  33.474  40.802   1.238
 1735W        W73406  16.705  18.103  12.077
 1736W        W73407  44.487  11.791   0.789
 1737W        W73408  33.064  34.925  13.402
 1738W        W73409  22.501  40.457   4.594
 1739W        W73410  24.635  26.524  10.269
 1740W        W73411  33.441  40.985  11.939
 1741W        W73412  34.606  28.173   1.250
 1742W        W73413  18.953   7.645   0.743
 1743W        W73414  37.881  14.370  10.542
 1744W        W73415  41.667  39.621   1.141
 1745W        W73416   7.808  28.678   1.201
 1746W        W73417  19.868   1.057  10.674
 1747W        W73418  27.288  33.525  11.155
 1748W        W73419  39.129  40.098   3.589
 1749W        W73420   3.493  20.519   3.343
 1750W        W73421  23.481  30.459  13.151
 1751W        W73422  29.560  12.571   3.803
 1752W        W73423  34.544  34.669  12.491
 1753W        W73424   5.031  24.026   0.756
 1754W        W73425  29.532  42.616  14.023
 1755W        W73426  26.202  38.789  12.533
 1756W        W73427  42.737  25.251   2.636
 1757W        W73428  29.549  39.613   0.437
 1758W        W73429  34.085  17.076   3.650
 1759W        W73430  43.380  23.576   1.247
 1760W        W73431  35.975  11.752  13.394
 1761W        W73432   6.925   8.857   3.361
 1762W        W73433  23.437  28.396  12.400
 1763W        W73434  12.773  20.907   2.470
 1764W        W73435  18.518  35.402  10.676
 1765W        W73436   9.436  40.428   0.482
 1766W        W73437   8.212  37.074   2.254
 1767W        W73438   5.912  14.886   4.165
 1768W        W73439  41.170  12.313   1.817
 1769W        W73440   4.714  17.327  13.254
 1770W        W73441  44.253  40.263   0.289
 1771W        W73442  43.249  28.590   4.709
 1772W        W73443   4.885  42.940  12.411
 1773W        W73444  25.476  25.678   0.278
 1774W        W73445  22.439  22.055   4.305
 1775W        W73446  22.487   8.908   1.125
 1776W        W73447  39.789  27.601   4.163
 1777W        W73448  16.085  15.612   9.949
 1778W        W73449  23.527  12.287   1.271
 1779W        W73450  10.194  23.527   2.350
 1780W        W73451   7.275   9.838   0.362
 1781W        W73452  10.680  15.592   1.888
 1782W        W73453   8.198  27.968   3.121
 1783W        W73454  16.730  43.286  12.979
 1784W        W73455  31.928  32.052   4.298
 1785W        W73456  23.053  21.285  13.314
 1786W        W73457  12.200  15.606  13.029
 1787W        W73458  17.565   2.887  11.656
 1788W        W73459  23.282  42.376   1.679
 1789W        W73460  10.813  26.231   2.616
 1790W        W73461  15.771  35.720  12.604
 1791W        W73462  24.600  36.078  11.569
 1792W        W73463  33.165  24.578   2.731
 1793W        W73464  18.318  38.065   2.544
 1794W        W73465  21.341  30.334  12.492
 1795W        W73466  25.738   5.266  12.509
 1796W        W73467  23.530   1.113  10.629
 1797W        W73468  12.589  10.057   4.132
 1798W        W73469  37.076  23.578  11.100
 1799W        W73470   7.838   8.243  14.687
 1800W        W73471  32.011  33.390   2.296
 1801W        W73472   8.368  16.065   0.391
 1802W        W73473  26.679  31.252   2.375
 1803W        W73474  15.595  40.410  11.998
 1804W        W73475  23.027   8.668   2.160
 1805W        W73476  15.840  22.104   0.332
 1806W        W73477   6.263  40.853  11.719
 1807W        W73478   6.267  34.404   2.779
 1808W        W73479  19.103  36.015  11.945
 1809W        W73480  29.461  35.026  10.889
 1810W        W73481   6.476  40.033  14.344
 1811W        W73482  42.066   8.110   0.716
 1812W        W73483  19.157  36.591   3.224
 1813W        W73484   4.890  21.608   0.140
 1814W        W73485   6.748  32.528   1.022
 1815W        W73486   0.009  30.752  12.841
 1816W        W73487   3.414  22.492  13.638
 1817W        W73488  25.412  41.582  13.030
 1818W        W73489  23.328  30.806  11.962
 1819W        W73490  36.274  38.352   3.890
 1820W        W73491  42.333  32.452   3.229
 1821W        W73492  36.014   8.230   1.763
 1822W        W73493  24.499  24.130   0.424
 1823W        W73494  12.856  32.754  11.902
 1824W        W73495   5.966  28.527  12.383
 1825W        W73496  43.980  26.430  10.759
 1826W        W73497  17.375  29.060   1.754
 1827W        W73498   2.102  20.653  11.327
 1828W        W73499  39.008  40.154   2.328
 1829W        W73500  40.372  25.910   3.834
 1830W        W73501  39.348  22.095   3.637
 1831W        W73502  24.869  15.505   4.225
 1832W        W73503  29.796   0.009   2.984
 1833W        W73504  40.132  37.663  11.125
 1834W        W73505  42.137  43.574  12.968
 1835W        W73506  42.910  42.392   2.056
 1836W        W73507   3.480   5.822  11.268
 1837W        W73508   5.967  11.618   1.579
 1838W        W73509  17.765  18.400   0.701
 1839W        W73510  32.618  43.422   4.147
 1840W        W73511  32.630  11.721   3.686
 1841W        W73512   7.894  24.040   0.719
 1842W        W73513  33.867  13.130  10.074
 1843W        W73514  19.086  26.694  10.641
 1844W        W73515   5.137  20.545   0.382
 1845W        W73516  40.480  27.060   1.997
 1846W        W73517  36.510  19.841   3.123
 1847W        W73518  10.840  34.486  11.935
 1848W        W73519  26.089  11.341   1.791
 1849W        W73520  21.546   6.240  12.620
 1850W        W73521   6.839  26.533   2.258
 1851W        W73522  40.809  35.976   0.528
 1852W        W73523  42.446  36.404   4.654
 1853W        W73524  22.759  21.535   0.899
 1854W        W73525  31.558  28.492   3.260
 1855W        W73526  40.479  42.656  12.916
 1856W        W73527  24.495  33.299  14.771
 1857W        W73528  39.047  43.459  10.759
 1858W        W73529  14.046  10.860   0.751
 1859W        W73530  13.958  25.746   3.704
 1860W        W73531   7.548   9.761  11.401
 1861W        W73532  37.025  19.752   2.399
 1862W        W73533  37.360  13.091   3.236
 1863W        W73534  38.759  39.532   3.312
 1864W        W73535  37.463  15.352  10.805
 1865W        W73536  22.275  16.779   4.054
 1866W        W73537  35.393   9.940   3.521
 1867W        W73538   0.405  16.061  11.413
 1868W        W73539  37.497  20.663   3.685
 1869W        W73540   7.701  42.185   0.443
 1870W        W73541  26.625   9.880   5.036
 1871W        W73542   9.872  41.428  13.306
 1872W        W73543  39.670   4.384   4.628
 1873W        W73544  35.904   8.912  13.910
 1874W        W73545  42.347  42.500   1.368
 1875W        W73546  41.458   5.208  11.415
 1876W        W73547  36.888   6.648   2.747
 1877W        W73548  10.813  39.588  13.986
 1878W        W73549  42.125  32.016  12.935
 1879W        W73550  44.723  32.413   1.724
 1880W        W73551  21.019   7.866  14.694
 1881W        W73552   8.829  32.521   1.861
 1882W        W73553  11.325  41.416  11.834
 1883W        W73554  23.529   2.361  14.333
 1884W        W73555  16.061   4.002  14.522
 1885W        W73556  33.545  38.828   0.809
 1886W        W73557   6.640  42.222  14.821
 1887W        W73558   7.767  19.254   3.235
 1888W        W73559  33.663  29.602  14.880
 1889W        W73560  25.296  31.021  12.912
 1890W        W73561  43.352  44.736  11.417
 1891W        W73562  11.211  38.896  11.930
 1892W        W73563  37.779   8.282  14.192
 1893W        W73564  31.875  21.558   3.060
 1894W        W73565  30.648  32.619   1.497
 1895W        W73566  17.635  32.838  13.971
 1896W        W73567  22.532  35.974  11.999
 1897W        W73568  15.587  23.303  14.839
 1898W        W73569   8.532  36.624  14.321
 1899W        W73570   5.660  40.922  13.396
 1900W        W73571  32.934  39.387  13.449
 1901W        W73572  24.045  38.969  10.640
 1902W        W73573  28.265  34.907  14.811
 1903W        W73574  14.174  15.300   1.800
 1904W        W73575  43.905  32.531   4.344
 1905W        W73576  17.427  12.764   2.329
 1906W        W73577   3.858   0.504   1.845
 1907W        W73578  20.686  41.999   1.359
 1908W        W73579  43.237   9.440  14.624
 1909W        W73580   5.300   6.409  14.073
 1910W        W73581  20.558  32.977  12.410
 1911W        W73582  43.833  10.090  11.108
 1912W        W73583  26.179  28.630  11.370
 1913W        W73584  35.155  15.823   1.503
 1914W        W73585  10.745  36.549  12.934
 1915W        W73586  24.189   7.688  11.965
 1916W        W73587  39.776  29.153   0.734
 1917W        W73588  42.731  17.756  11.219
 1918W        W73589  16.033  14.183  11.660
 1919W        W73590   6.843  37.587   2.655
 1920W        W73591  23.535  26.719   1.223
 1921W        W73592  41.565  25.754  13.802
 1922W        W73593  13.681  20.609   0.211
 1923W        W73594  26.503   0.070   1.508
 1924W        W73595  33.511  18.636   1.178
 1925W        W73596  27.617  11.599   2.838
 1926W        W73597  44.241  22.564  13.835
 1927W        W73598  40.555  42.114   1.796
 1928W        W73599  13.312  30.046   3.721
 1929W        W73600  44.299  35.558   3.251
 1930W        W73601  12.865  38.956   1.483
 1931W        W73602  43.882  11.135   4.920
 1932W        W73603  27.714  17.614   1.842
 1933W        W73604  44.380  13.557  14.385
 1934W        W73605  37.609   4.685  14.874
 1935W        W73606  29.151  41.806  12.566
 1936W        W73607  37.809  12.400  11.640
 1937W        W73608  13.130  35.858  12.417
 1938W        W73609  40.831  21.446  13.972
 1939W        W73610  21.582  18.886   2.873
 1940W        W73611  24.575  33.221   2.678
 1941W        W73612   7.877   1.728   3.604
 1942W        W73613  44.737  37.882  10.521
 1943W        W73614  33.615   2.446  12.964
 1944W        W73615  28.331  33.472  14.401
 1945W        W73616  42.906  19.080   1.268
 1946W        W73617  38.923   9.925  11.122
 1947W        W73618   6.800   4.756  11.862
 1948W        W73619  16.816   2.721   2.252
 1949W        W73620   1.358  20.244   3.654
 1950W        W73621  26.189   2.051   4.223
 1951W        W73622  15.877  26.986   3.885
 1952W        W73623  17.693  14.209  12.421
 1953W        W73624  39.273  27.506  11.909
 1954W        W73625  30.778   2.921   0.297
 1955W        W73626   5.815  34.574   4.550
 1956W        W73627   3.464  28.948   2.754
 1957W        W73628  28.772  44.702   0.484
 1958W        W73629  23.436  15.914  11.399
 1959W        W73630  16.943  21.879   1.760
 1960W        W73631   2.731  11.136   4.581
 1961W        W73632  19.057   2.199  10.943
 1962W        W73633   4.637  10.109  12.149
 1963W        W73634  13.637  30.559  12.432
 1964W        W73635   7.600   8.720   0.705
 1965W        W73636  37.000  15.575   5.154
 1966W        W73637  19.323   3.460  13.969
 1967W        W73638  23.630  20.808  12.612
 1968W        W73639   5.219  29.746   3.507
 1969W        W73640   4.654   4.214   1.351
 1970W        W73641   0.865  24.135  12.485
 1971W        W73642  13.067  10.498   1.775
 1972W        W73643   2.336   1.001   3.537
 1973W        W73644  37.412  36.230  14.826
 1974W        W73645   3.662   5.933  12.506
 1975W        W73646  20.151  19.250  12.432
 1976W        W73647  20.245  44.281   4.482
 1977W        W73648  10.707  41.400  10.756
 1978W        W73649  24.570   4.502   3.714
 1979W        W73650  23.560  14.412   4.653
 1980W        W73651  25.506  23.468   3.702
 1981W        W73652  25.755   1.819   2.855
 1982W        W73653  16.121  34.092  14.623
 1983W        W73654  37.982   8.299  11.618
 1984W        W73655   5.845  43.498   0.037
 1985W        W73656   1.749  14.626  12.634
 1986W        W73657  23.142  44.224   2.804
 1987W        W73658   5.726   3.801   1.198
 1988W        W73659  27.809  10.744  11.123
 1989W        W73660  43.235  11.655   0.837
 1990W        W73661  36.699  27.468   0.940
 1991W        W73662  34.535  32.555   1.734
 1992W        W73663  40.544  23.317  13.407
 1993W        W73664  24.799  37.911   0.506
 1994W        W73665  17.696   6.381   2.399
 1995W        W73666  27.753   6.122  14.236
 1996W        W73667  32.978  38.864  13.333
 1997W        W73668  33.405  16.231  13.566
 1998W        W73669   3.464  25.535   4.838
 1999W        W73670   3.159  18.112  14.966
 2000W        W73671  31.351  33.859  11.131
 2001W        W73672  10.670  17.569  12.550
 2002W        W73673  38.897  22.039   1.361
 2003W        W73674   8.114  16.859   0.445
 2004W        W73675  15.276   9.870  11.028
 2005W        W73676  29.509  33.810  14.802
 2006W        W73677  24.765  30.076   1.903
 2007W        W73678  29.118  22.293   2.769
 2008W        W73679  41.757  10.681  13.941
 2009W        W73680  33.061   5.092  10.654
 2010W        W73681  14.774  41.895  12.637
 2011W        W73682  38.971   1.895  13.920
 2012W        W73683   9.659  24.561   0.979
 2013W        W73684  31.606  27.691   4.239
 2014W        W73685  27.171  40.855   4.386
 2015W        W73686  18.362   3.838  13.994
 2016W        W73687  28.655  19.071   3.276
 2017W        W73688  21.207  43.988  14.994
 2018W        W73689  22.651  19.822  10.160
 2019W        W73690  28.624  36.525   0.814
 2020W        W73691  10.303  31.372   1.776
 2021W        W73692  20.105  22.815   0.871
 2022W        W73693  13.201  36.839   4.089
 2023W        W73694  15.274  25.626   4.287
 2024W        W73695  39.138  16.255  12.974
 2025W        W73696  12.283  26.628   3.419
 2026W        W73697  15.126  31.997  11.742
 2027W        W73698  22.661   5.728   3.018
 2028W        W73699  39.579  23.675   2.036
 2029W        W73700  13.372   5.397   4.301
 2030W        W73701   5.884  42.791  13.140
 2031W        W73702  17.043  38.749   4.487
 2032W        W73703  11.359  37.567   2.215
 2033W        W73704  28.832  23.741   4.010
 2034W        W73705   9.477   6.604   2.388
 2035W        W73706  23.571  22.614   0.919
 2036W        W73707  35.655  21.491  12.432
 2037W        W73708  29.618  42.422   2.635
 2038W        W73709  27.087  13.224  13.388
 2039W        W73710   4.219  21.242  10.695
 2040W        W73711  31.192  17.810  11.368
 2041W        W73712  44.332  43.306   1.051
 2042W        W73713  39.346  24.527  13.023
 2043W        W73714  27.722  11.960   4.895
 2044W        W73715  15.222  33.383  14.961
 2045W        W73716  30.236   2.729   1.471
 2046W        W73717  37.164   1.764  12.567
 2047W        W73718  29.103  44.195   4.411
 2048W        W73719  17.040  24.208   2.748
 2049W        W73720  41.482  42.799  14.310
 2050W        W73721   7.345  16.105  10.479
 2051W        W73722  21.041   6.135   3.332
 2052W        W73723   7.247  13.528  13.671
 2053W        W73724   2.801  32.086   0.914
 2054W        W73725   0.122  41.935   4.640
 2055W        W73726  15.363  43.420  14.848
 2056W        W73727  23.952  41.768   3.608
 2057W        W73728  14.184  13.074  10.833
 2058W        W73729  10.283  17.469   1.229
 2059W        W73730  17.712   3.806   3.086
 2060W        W73731   2.310   2.810  10.487
 2061W        W73732   9.931  41.940  12.544
 2062W        W73733  17.082  28.709   2.349
 2063W        W73734  13.299   2.763  11.385
 2064W        W73735   8.846  16.567  12.473
 2065W        W73736  15.069   2.990  14.401
 2066W        W73737  38.336  22.199  11.921
 2067W        W73738  41.272  36.001   0.819
 2068W        W73739  30.616  34.779   1.592
 2069W        W73740  42.346  29.524   3.167
 2070W        W73741  34.545  33.388   0.426
 2071W        W73742  30.545  33.319   4.059
 2072W        W73743  14.170  28.684   3.264
 2073W        W73744  12.656  10.184   0.906
 2074W        W73745   5.669   2.602  14.658
 2075W        W73746  38.090  19.235  14.955
 2076W        W73747   9.283  20.574   0.059
 2077W        W73748  38.454  43.475   4.386
 2078W        W73749  43.807  20.941   2.419
 2079W        W73750  14.431  13.221   4.148
 2080W        W73751  11.386  43.141   2.878
 2081W        W73752  12.395  33.341  13.711
 2082W        W73753  22.083  33.568   0.921
 2083W        W73754  43.316  17.520   2.902
 2084W        W73755  37.679   1.850  12.555
 2085W        W73756   9.705  19.741  14.750
 2086W        W73757  16.153  41.076   2.339
 2087W        W73758  16.841  22.836   4.465
 2088W        W73759  19.166  44.524  12.820
 2089W        W73760  28.658  12.584   1.686
 2090W        W73761  40.897  34.118  14.843
 2091W        W73762  20.575  35.779  13.582
 2092W        W73763  16.765  12.086  12.111
 2093W        W73764  35.560  44.954   2.797
 2094W        W73765  34.541  28.685   1.232
 2095W        W73766  27.700  33.302  10.949
 2096W        W73767  15.911  21.690   1.782
 2097W        W73768  29.005  17.181   3.201
 2098W        W73769  18.352  21.569   0.808
 2099W        W73770  41.056  36.865   0.421
 2100W        W73771  25.123   4.104   0.904
 2101W        W73772  34.566  40.353  10.288
 2102W        W73773  16.066  20.663   1.830
 2103W        W73774   8.291   6.626   0.381
 2104W        W73775   4.820  13.822   4.193
 2105W        W73776  25.458   6.860  13.388
 2106W        W73777  21.636  37.878   1.332
 2107W        W73778  32.178  37.987  11.635
 2108W        W73779  35.725   4.060   2.796
 2109W        W73780  42.384  18.215   3.786
 2110W        W73781  38.836  34.246   3.162
 2111W        W73782  36.280  21.074   1.425
 2112W        W73783  18.079   2.307  12.458
 2113W        W73784  24.119   2.822   3.281
 2114W        W73785  26.219  26.933  13.980
 2115W        W73786  17.734  19.522   4.067
 2116W        W73787   1.281  11.775  14.370
 2117W        W73788  44.594   2.986  13.819
 2118W        W73789  44.583  20.997   3.799
 2119W        W73790  32.521  23.335   2.317
 2120W        W73791   3.011  36.582   0.807
 2121W        W73792  19.207  34.349   3.644
 2122W        W73793  19.316  11.765  14.167
 2123W        W73794  21.327  32.684  14.212
 2124W        W73795   6.185  29.001  12.288
 2125W        W73796  21.549  27.544  14.973
 2126W        W73797   9.980  22.038   1.779
 2127W        W73798  18.010   9.631  13.960
 2128W        W73799  38.657  13.884   2.005
 2129W        W73800  21.702  34.610   1.389
 2130W        W73801   7.124  28.851  12.640
 2131W        W73802  36.165   4.149  13.393
 2132W        W73803  19.593  13.949  11.037
 2133W        W73804  28.389  39.936  10.199
 2134W        W73805   9.454   7.399   1.904
 2135W        W73806   1.016  11.784   0.753
 2136W        W73807  35.401  44.711   3.357
 2137W        W73808  34.945   7.915   3.291
 2138W        W73809  37.878   7.585   0.787
 2139W        W73810  23.565  38.034   5.505
 2140W        W73811  21.460  38.017  11.772
 2141W        W73812  30.016  34.659  12.134
 2142W        W73813  21.115   1.889   1.872
 2143W        W73814  25.546  35.193  10.792
 2144W        W73815  36.668  15.542  12.988
 2145W        W73816   7.882  11.255   4.711
 2146W        W73817  15.663  21.273   4.424
 2147W        W73818  22.289  40.006   3.821
 2148W        W73819  23.609  36.354   2.257
 2149W        W73820   4.841  25.097   4.294
 2150W        W73821  27.468  30.264  14.593
 2151W        W73822  27.744  16.680  14.454
 2152W        W73823  15.093  25.255  13.498
 2153W        W73824   3.456  29.716   4.038
 2154W        W73825  29.238  37.729   3.308
 2155W        W73826  13.185   6.715   2.572
 2156W        W73827  26.306   2.534   2.808
 2157W        W73828  27.136  43.870   4.570
 2158W        W73829  37.327  23.668  14.054
 2159W        W73830   7.333  21.853  12.770
 2160W        W73831  35.370  24.700  14.392
 2161W        W73832  41.275  27.289   4.595
 2162W        W73833  11.277   3.964  14.956
 2163W        W73834  37.703  19.590   5.168
 2164W        W73835  26.491  23.769   2.338
 2165W        W73836  29.402  32.569  14.246
 2166W        W73837  22.451  44.909  11.551
 2167W        W73838  44.836  16.395  14.925
 2168W        W73839   1.635   3.159   4.480
 2169W        W73840   0.264   4.734  14.417
 2170W        W73841  35.630  43.881  13.024
 2171W        W73842  22.740  40.407   4.138
 2172W        W73843  22.045  41.014  13.027
 2173W        W73844  36.591   3.878   0.022
 2174W        W73845  17.696   8.768   3.429
 2175W        W73846  25.166   5.860   2.203
 2176W        W73847   9.410   8.643  13.885
 2177W        W73848  41.595  15.067   1.266
 2178W        W73849  38.844  26.634  10.999
 2179W        W73850  21.730  33.340   4.163
 2180W        W73851  36.173  37.850  13.252
 2181W        W73852  13.840  41.863   1.418
 2182W        W73853  24.618  25.437   0.672
 2183W        W73854  40.334  22.758   1.739
 2184W        W73855   4.757  27.359  13.448
 2185W        W73856   0.876  29.463  14.199
 2186W        W73857  15.058  43.554   3.722
 2187W        W73858  38.107  25.561   0.808
 2188W        W73859  15.185  26.926   2.695
 2189W        W73860  31.117  43.759  11.952
 2190W        W73861   6.775  17.392  12.559
 2191W        W73862  35.993  38.439   1.783
 2192W        W73863  24.978  23.735  11.251
 2193W        W73864  19.130  16.596   4.528
 2194W        W73865  39.973  36.965  13.643
 2195W        W73866   7.702  44.986  11.969
 2196W        W73867  16.369  29.868   4.020
 2197W        W73868  25.207  34.329   2.906
 2198W        W73869   7.772  15.790  10.357
 2199W        W73870  13.832  31.988   4.609
 2200W        W73871  41.819  40.015  11.895
 2201W        W73872  44.382  20.681  13.119
 2202W        W73873  35.553  39.024   0.474
 2203W        W73874   0.932  34.114  10.755
 2204W        W73875  25.603  39.586  11.149
 2205W        W73876  19.688  22.538   1.396
 2206W        W73877   3.946   1.890  10.725
 2207W        W73878   3.600  32.024   1.582
 2208W        W73879  41.915  15.850  11.505
 2209W        W73880  22.737  36.194   5.004
 2210W        W73881  33.865  28.052   0.822
 2211W        W73882  20.935  30.676   4.133
 2212W        W73883  42.762  24.355  13.544
 2213W        W73884  28.239   6.552   5.054
 2214W        W73885  41.964  31.860   3.732
 2215W        W73886  18.089  33.626   1.807
 2216W        W73887  34.968  20.746  14.435
 2217W        W73888   1.161  21.466   4.016
 2218W        W73889  22.117  38.717  10.188
 2219W        W73890  19.186  19.173  12.594
 2220W        W73891  34.632  24.564   0.345
 2221W        W73892  29.138  29.672   0.760
 2222W        W73893  29.215  33.526   4.462
 2223W        W73894  29.868  33.034  12.880
 2224W        W73895   3.709  17.689  13.020
 2225W        W73896  31.910  31.171  11.096
 2226W        W73897  24.217  31.043  14.478
 2227W        W73898   6.298  24.697  14.278
 2228W        W73899  43.366   4.798  14.473
 2229W        W73900   7.087  43.948   1.428
 2230W        W73901  37.867   6.221  12.144
 2231W        W73902   0.965  23.514  10.619
 2232W        W73903  37.887  34.533  10.372
 2233W        W73904  30.663  18.605  11.138
 2234W        W73905  34.955  24.778  12.559
 2235W        W73906  13.417  21.589  12.923
 2236W        W73907  38.592   5.177  14.390
 2237W        W73908  20.591   5.877  14.967
 2238W        W73909  23.634  40.535  11.469
 2239W        W73910   2.253  43.223   2.214
 2240W        W73911  29.618  38.532  14.476
 2241W        W73912  14.343  24.237  14.408
 2242W        W73913   6.274  31.895  11.264
 2243W        W73914  12.872  29.999   1.226
 2244W        W73915   6.903   1.265  14.364
 2245W        W73916   3.257  44.561   4.690
 2246W        W73917  38.592  35.482  14.376
 2247W        W73918  21.732  44.927  13.128
 2248W        W73919  27.257  41.273   0.012
 2249W        W73920  22.802  23.212   1.114
 2250W        W73921   4.400  14.853  11.427
 2251W        W73922  14.559  27.204   4.625
 2252W        W73923  20.235  19.577   3.691
 2253W        W73924   8.386  24.715  13.401
 2254W        W73925  42.427  24.990  11.532
 2255W        W73926  18.178   1.851  11.430
 2256W        W73927   2.876  22.057  11.561
 2257W        W73928  43.414  39.285   3.752
 2258W        W73929  22.969  22.446  11.035
 2259W        W73930  15.214  16.616   1.225
 2260W        W73931  39.087  44.353  12.023
 2261W        W73932  27.941  26.910  12.513
 2262W        W73933  44.047  12.694  12.113
 2263W        W73934   9.642   8.327   3.608
 2264W        W73935  17.774   8.097  13.014
 2265W        W73936  31.621  21.132  13.506
 2266W        W73937   9.174  23.051   2.669
 2267W        W73938  44.796  14.617   1.919
 2268W        W73939   5.338  37.629  13.390
 2269W        W73940   2.033  10.669   0.247
 2270W        W73941  32.575  42.720   0.952
 2271W        W73942  27.552   2.846   1.720
 2272W        W73943  23.563  30.350   0.353
 2273W        W73944  24.498  20.391   0.770
 2274W        W73945  34.611  25.480  11.311
 2275W        W73946  42.457  35.519   3.790
 2276W        W73947   4.782   7.483  10.765
 2277W        W73948  32.053  31.668  11.089
 2278W        W73949   0.815  20.080  13.462
 2279W        W73950  40.037  42.824  12.743
 2280W        W73951  34.404  11.166  14.002
 2281W        W73952  11.878  31.966   4.165
 2282W        W73953  12.734  32.257   3.651
 2283W        W73954  22.553  41.248  11.997
 2284W        W73955   9.497  40.507  10.776
 2285W        W73956   4.965  44.113   3.797
 2286W        W73957  43.450  24.460   9.709
 2287W        W73958  30.009  17.489   1.889
 2288W        W73959   7.378  13.309   3.189
 2289W        W73960  23.251  17.669  12.101
 2290W        W73961  13.611   7.983  14.338
 2291W        W73962  38.593  16.885  11.151
 2292W        W73963  34.117   7.724  14.966
 2293W        W73964  15.124  26.549   3.596
 2294W        W73965  19.073   0.723   1.807
 2295W        W73966  36.964  24.064  11.937
 2296W        W73967  10.717  13.045  12.928
 2297W        W73968  17.577  29.955  12.114
 2298W        W73969  37.531  40.916  12.429
 2299W        W73970   9.698  19.616  10.402
 2300W        W73971   0.946  21.869  12.391
 2301W        W73972  38.477  12.541   1.365
 2302W        W73973   7.706   9.856  14.774
 2303W        W73974  13.840  16.415   2.062
 2304W        W73975  22.262  39.028  13.907
 2305W        W73976  41.035  31.155  14.750
 2306W        W73977  14.672   9.364   3.319
 2307W        W73978  15.835  27.895   3.801
 2308W        W73979  36.805  33.794   1.945
 2309W        W73980   6.158   9.689   0.622
 2310W        W73981  38.987  22.156   4.533
 2311W        W73982   1.625  23.111  10.254
 2312W        W73983  34.971  15.824   4.742
 2313W        W73984   9.634  15.040   4.122
 2314W        W73985   3.798  14.709   4.586
 2315W        W73986  36.993  33.530  14.547
 2316W        W73987  15.113   1.234   3.333
 2317W        W73988   9.455   3.454  11.195
 2318W        W73989  10.861   3.317  11.664
 2319W        W73990   7.340  16.549  12.063
 2320W        W73991  10.752  43.284   0.517
 2321W        W73992   8.469  42.726  12.039
 2322W        W73993  12.870  18.291   4.696
 2323W        W73994   7.986  22.456  11.439
 2324W        W73995   3.242  10.164  12.318
 2325W        W73996  25.188  18.590   1.600
 2326W        W73997  18.325   2.833  11.173
 2327W        W73998  36.196   0.898   1.983
 2328W        W73999   4.350  24.439   2.756
 2329W        W74000  22.719  28.616  10.422
 2330W        W74001  30.427  35.870   4.581
 2331W        W74002  13.681  34.178  13.947
 2332W        W74003   5.371  44.779   5.025
 2333W        W74004  18.268  27.217  11.505
 2334W        W74005   8.593   0.286  12.297
 2335W        W74006  26.148  29.883   0.754
 2336W        W74007  20.165  38.407   2.615
 2337W        W74008  41.333  39.223   0.318
 2338W        W74009  15.856  20.305  11.675
 2339W        W74010   0.651   2.462   3.483
 2340W        W74011   5.915  41.816   3.105
 2341W        W74012  35.893  16.701   0.846
 2342W        W74013  27.126   8.386   0.772
 2343W        W74014   9.841  23.632  13.488
 2344W        W74015  44.808  35.918   4.834
 2345W        W74016   9.589  18.161  14.553
 2346W        W74017  35.585  11.291   1.336
 2347W        W74018  36.131  37.733   0.382
 2348W        W74019  12.428  25.643   0.644
 2349W        W74020  36.967  20.512   4.604
 2350W        W74021  25.487   7.598   0.806
 2351W        W74022  17.747  31.880   0.858
 2352W        W74023  15.786  26.595  11.863
 2353W        W74024  29.251   7.424  12.028
 2354W        W74025   9.319  15.293   1.617
 2355W        W74026  26.013   7.410   4.953
 2356W        W74027   4.167  33.094   3.630
 2357W        W74028  26.726  17.985  13.836
 2358W        W74029  18.610  32.502   1.242
 2359W        W74030  18.843  28.025  14.107
 2360W        W74031   1.755  27.154   1.064
 2361W        W74032  25.478  27.028   0.814
 2362W        W74033  11.176  40.203  11.638
 2363W        W74034  34.404  16.325  12.910
 2364W        W74035  14.703  24.259   3.218
 2365W        W74036  25.751  29.417  12.448
 2366W        W74037  31.410   0.401  13.090
 2367W        W74038   3.966   1.235  12.044
 2368W        W74039   8.523  43.908  14.486
 2369W        W74040  43.389  22.198  11.000
 2370W        W74041  34.009   9.131   3.525
 2371W        W74042  26.871  15.273  14.971
 2372W        W74043  44.887  17.007   4.218
 2373W        W74044  31.913  24.086   0.724
 2374W        W74045  12.311  34.682  11.087
 2375W        W74046  23.706  12.336  14.420
 2376W        W74047  31.048   7.556  12.976
 2377W        W74048  22.611   7.160  13.610
 2378W        W74049   6.336  43.019  11.393
 2379W        W74050   5.187  13.682   3.125
 2380W        W74051  39.858   1.296   0.051
 2381W        W74052  36.482  17.613  10.477
 2382W        W74053  42.841  14.767  11.484
 2383W        W74054  14.677  11.749  13.022
 2384W        W74055   1.899   4.742   0.647
 2385W        W74056  40.466   8.322   2.776
 2386W        W74057  29.079  18.265   1.158
 2387W        W74058  16.963   8.097  13.621
 2388W        W74059  42.501  34.836   4.639
 2389W        W74060  27.670  15.156  12.911
 2390W        W74061   0.768  42.592  10.657
 2391W        W74062  14.297  10.867  11.450
 2392W        W74063  14.360  30.974  14.994
 2393W        W74064  44.737  38.411  11.988
 2394W        W74065  13.389   1.513   2.366
 2395W        W74066  15.405  38.878  13.538
 2396W        W74067  25.009   5.304   4.895
 2397W        W74068  38.326  42.603  14.341
 2398W        W74069  10.117   9.130   1.869
 2399W        W74070  41.861  36.340  13.540
 2400W        W74071   6.467   5.697   4.537
 2401W        W74072   7.998  44.340   1.470
 2402W        W74073  27.018  13.174  11.511
 2403W        W74074   1.750  42.471  13.048
 2404W        W74075   1.205  44.810  10.520
 2405W        W74076  21.507   7.262  11.686
 2406W        W74077   1.013  40.671   5.034
 2407W        W74078  19.454  11.166   4.175
 2408W        W74079  18.132  12.849   0.690
 2409W        W74080  28.855  29.634   0.334
 2410W        W74081  39.999   2.256   0.875
 2411W        W74082  26.032  12.919   3.640
 2412W        W74083  31.296  10.196  12.663
 2413W        W74084  35.422   2.475  12.639
 2414W        W74085  22.597   6.397   4.277
 2415W        W74086  31.898  41.468   3.873
 2416W        W74087  18.841  38.852   4.123
 2417W        W74088  12.203  35.012  12.002
 2418W        W74089  36.560   6.549   4.057
 2419W        W74090  34.257   5.678   0.922
 2420W        W74091  32.472  18.722   2.139
 2421W        W74092  12.851  25.440   3.436
 2422W        W74093  29.886  43.264  12.503
 2423W        W74094  18.688  42.460   2.862
 2424W        W74095  23.429  33.861   3.612
 2425W        W74096  33.407  40.541  14.998
 2426W        W74097  23.566  33.707   4.076
 2427W        W74098  41.303   4.867   1.754
 2428W        W74099  30.179  26.393  10.181
 2429W        W74100  10.773  40.374  14.513
 2430W        W74101  43.666  10.585   4.247
 2431W        W74102   3.021  41.570   0.186
 2432W        W74103   9.923  44.474  11.948
 2433W        W74104   9.349  39.055  13.586
 2434W        W74105  24.576  16.742   1.195
 2435W        W74106   0.273  14.155  11.812
 2436W        W74107  32.379  29.431   1.301
 2437W        W74108  35.838  23.585   4.526
 2438W        W74109  33.702  39.341   0.987
 2439W        W74110  24.016  41.978   1.819
 2440W        W74111  30.410   7.787  10.766
 2441W        W74112  35.074  11.440   3.113
 2442W        W74113  13.266  17.756   0.395
 2443W        W74114  22.561  13.392   0.149
 2444W        W74115  40.463  23.471  14.381
 2445W        W74116  24.657  12.655  11.935
 2446W        W74117  10.563  11.799   4.097
 2447W        W74118  27.417   4.188   0.772
 2448W        W74119  26.309  10.257   5.173
 2449W        W74120  13.825  15.075  14.905
 2450W        W74121  40.664  28.263  10.597
 2451W        W74122  41.836  21.507   0.770
 2452W        W74123  19.027  27.548   0.396
 2453W        W74124   4.270  40.571   2.945
 2454W        W74125  35.086  41.267   4.768
 2455W        W74126  34.085  30.083  14.357
 2456W        W74127  13.234  24.074  11.246
 2457W        W74128  24.460  22.725   2.382
 2458W        W74129  38.323  33.964  14.295
 2459W        W74130  37.549  20.335   4.142
 2460W        W74131  43.654  14.212   2.211
 2461W        W74132  10.368  19.240  14.780
 2462W        W74133  19.514  36.072   2.275
 2463W        W74134  30.491  23.244  11.903
 2464W        W74135  19.248  10.184   2.732
 2465W        W74136  33.222  14.301   0.004
 2466W        W74137  34.801  20.934   2.463
 2467W        W74138  19.986  34.974   4.094
 2468W        W74139  34.538  15.743  14.695
 2469W        W74140  10.509  28.430  13.544
 2470W        W74141  28.662  35.945   3.295
 2471W        W74142  27.901   4.330   0.900
 2472W        W74143   4.962  42.776  11.540
 2473W        W74144  19.325  32.491  14.983
 2474W        W74145  43.326   2.543  11.601
 2475W        W74146  14.522   7.325  14.527
 2476W        W74147   0.285  16.509   2.304
 2477W        W74148  38.117  35.084  12.985
 2478W        W74149  42.125   0.304   0.848
 2479W        W74150  20.704   9.301   0.759
 2480W        W74151  27.559  16.545  14.978
 2481W        W74152  35.450  15.847   0.698
 2482W        W74153  24.121  20.124  12.610
 2483W        W74154  44.015  17.174  12.502
 2484W        W74155  39.203   0.142   2.181
 2485W        W74156  42.531  42.764   2.777
 2486W        W74157   4.489  39.601   1.860
 2487W        W74158  11.648  42.377   3.626
 2488W        W74159   7.829  34.400  12.909
 2489W        W74160   7.854  29.678   4.531
 2490W        W74161   2.662  31.449   0.016
 2491W        W74162  38.118   9.537  13.241
 2492W        W74163  24.803  25.943   1.390
 2493W        W74164  20.945  10.963  13.912
 2494W        W74165  39.177  38.021   1.705
 2495W        W74166   7.698  30.446  11.567
 2496W        W74167  38.827  24.531  14.950
 2497W        W74168  37.613  30.693   1.316
 2498W        W74169   6.326  29.664  13.910
 2499W        W74170  12.640  26.073   0.823
 2500W        W74171  25.190  37.367  12.505
 2501W        W74172  40.823   7.423  11.056
 2502W        W74173  18.090  30.632  10.934
 2503W        W74174   4.938  35.986   1.845
 2504W        W74175   0.776  42.061  10.637
 2505W        W74176  11.297  19.773   2.777
 2506W        W74177  24.666  42.261  13.000
 2507W        W74178   5.478   9.536   0.891
 2508W        W74179  36.443  27.170   1.977
 2509W        W74180  33.383  21.512  11.207
 2510W        W74181  13.470  33.400  14.454
 2511W        W74182  38.340  26.551   1.599
 2512W        W74183  31.373  30.742   4.073
 2513W        W74184  18.042  42.677  11.267
 2514W        W74185  16.129   5.894   3.356
 2515W        W74186  12.369  11.676   4.131
 2516W        W74187  42.976  28.153   4.022
 2517W        W74188  32.027   7.064  12.928
 2518W        W74189  11.824  29.574   2.328
 2519W        W74190  35.984  38.036  10.552
 2520W        W74191  35.868  26.020   1.164
 2521W        W74192  10.935   6.701  12.586
 2522W        W74193  42.390  28.441  13.838
 2523W        W74194  34.918  17.137   2.742
 2524W        W74195   6.153   7.310  11.631
 2525W        W74196   7.406   7.453  12.875
 2526W        W74197  14.685  14.649   0.277
 2527W        W74198   5.046  22.449   0.253
 2528W        W74199  32.508  16.550   3.203
 2529W        W74200  16.934   6.746   2.129
 2530W        W74201  30.951  30.648   3.783
 2531W        W74202  37.933  41.592   2.343
 2532W        W74203  41.539   9.301  13.849
 2533W        W74204  16.295  12.974  14.173
 2534W        W74205   8.686  21.722  13.472
 2535W        W74206   4.472  32.429  13.671
 2536W        W74207  19.765  34.156  14.788
 2537W        W74208  30.409  31.147   2.859
 2538W        W74209   6.202  20.591   2.358
 2539W        W74210  41.943  15.133  10.663
 2540W        W74211  36.342  36.022  11.091
 2541W        W74212  25.541   7.856   1.427
 2542W        W74213  31.942  20.755  12.398
 2543W        W74214  33.421   9.810  11.795
 2544W        W74215  24.463   2.755  12.914
 2545W        W74216  37.386  29.133  12.418
 2546W        W74217  18.452  15.625   1.442
 2547W        W74218  37.980  35.308  11.198
 2548W        W74219  34.559  21.045   0.268
 2549W        W74220   1.427  39.939  13.458
 2550W        W74221  31.418  31.465   0.407
 2551W        W74222  30.946  42.031   2.198
 2552W        W74223  33.782  32.361  10.624
 2553W        W74224  41.944  24.076  12.606
 2554W        W74225   2.475  40.969  12.058
 2555W        W74226   3.209  11.133   1.647
 2556W        W74227   1.662  19.586   1.297
 2557W        W74228  38.457   9.464   1.717
 2558W        W74229  44.874   8.431   2.230
 2559W        W74230  32.615  11.196   4.647
 2560W        W74231  28.652   3.405  11.246
 2561W        W74232  39.067   7.676   2.567
 2562W        W74233  42.357  32.540  11.684
 2563W        W74234  13.819   4.527  13.835
 2564W        W74235  21.756  26.220  14.320
 2565W        W74236  40.960  44.581  13.119
 2566W        W74237  20.946  11.660   2.812
 2567W        W74238  32.903  44.886  12.534
 2568W        W74239  22.252  39.053   3.841
 2569W        W74240  17.661  13.172   3.805
 2570W        W74241   2.696   3.715   0.513
 2571W        W74242  32.609   3.934   0.148
 2572W        W74243   7.783  18.695  11.652
 2573W        W74244  17.107   9.696   2.190
 2574W        W74245  14.455  13.984  13.399
 2575W        W74246   6.379   2.019  12.172
 2576W        W74247   4.491  34.066   4.663
 2577W        W74248   5.322  33.874   3.277
 2578W        W74249  13.408   6.379  13.105
 2579W        W74250   1.506  26.923   0.461
 2580W        W74251  18.658  39.521  11.944
 2581W        W74252  21.817  39.321   0.282
 2582W        W74253  31.320  15.637   3.696
 2583W        W74254   4.188  34.119  12.765
 2584W        W74255   4.438  40.335  12.458
 2585W        W74256   5.276  43.952   1.966
 2586W        W74257  21.978  18.341  12.023
 2587W        W74258   1.915  36.026  14.910
 2588W        W74259  25.707  26.544   4.618
 2589W        W74260  38.503  31.466  10.954
 2590W        W74261  28.538  37.605   0.793
 2591W        W74262  15.569  26.955   4.754
 2592W        W74263  44.725  37.953   1.564
 2593W        W74264  12.305  16.214   0.471
 2594W        W74265  36.151   1.883   0.942
 2595W        W74266  33.269  29.453   3.293
 2596W        W74267  33.210  30.385   9.929
 2597W        W74268  34.217  42.980  12.594
 2598W        W74269  19.533   9.119  12.848
 2599W        W74270  26.849   5.223   0.786
 2600W        W74271  40.952  22.075   0.862
 2601W        W74272  34.845  43.266   2.726
 2602W        W74273   1.731   1.106  13.304
 2603W        W74274  11.688  31.005   1.724
 2604W        W74275  14.709  27.675   4.384
 2605W        W74276  23.229  41.156  12.422
 2606W        W74277   7.334   0.940   3.202
 2607W        W74278  32.006   0.047   0.758
 2608W        W74279  20.052  22.511   4.569
 2609W        W74280  27.439  31.180  11.169
 2610W        W74281  23.554  10.889  13.712
 2611W        W74282  23.082  37.591   0.757
 2612W        W74283  26.353  43.903  12.062
 2613W        W74284  14.886  16.790  11.169
 2614W        W74285  12.212  36.493   2.806
 2615W        W74286  27.416  43.770  14.447
 2616W        W74287  38.706  42.517  12.443
 2617W        W74288  23.756  13.826  13.318
 2618W        W74289  27.074  28.488  12.611
 2619W        W74290  31.189  35.051  13.001
 2620W        W74291  31.733  42.634  12.951
 2621W        W74292   8.159  42.022  12.465
 2622W        W74293   7.975  16.557  10.768
 2623W        W74294  44.163   6.878  14.694
 2624W        W74295  39.617  19.114  11.988
 2625W        W74296  10.850  28.423  10.616
 2626W        W74297  35.577  29.489   2.847
 2627W        W74298  37.400   2.720  12.268
 2628W        W74299   4.474   9.384  12.553
 2629W        W74300  15.566  18.859   1.481
 2630W        W74301   2.987  14.202   0.891
 2631W        W74302  44.085  13.407   0.455
 2632W        W74303  35.776  41.646  10.997
 2633W        W74304  16.558  20.725   4.547
 2634W        W74305  15.259  40.487   1.352
 2635W        W74306  27.562  29.382  13.389
 2636W        W74307  12.433  18.122  14.036
 2637W        W74308  42.000   2.410   3.282
 2638W        W74309  29.191  35.849  13.005
 2639W        W74310  17.117  43.779   4.170
 2640W        W74311   8.608   6.496  11.104
 2641W        W74312   2.926  30.141   2.301
 2642W        W74313   8.246   2.802  14.732
 2643W        W74314  44.868  16.575   1.991
 2644W        W74315  27.321  27.334   3.156
 2645W        W74316  39.244   1.863  12.927
 2646W        W74317   6.729  16.252  11.137
 2647W        W74318  38.423   0.487  14.468
 2648W        W74319  42.850  11.386   9.732
 2649W        W74320  22.142  37.599  13.892
 2650W        W74321  44.210  35.136  13.792
 2651W        W74322  43.403  26.787  13.116
 2652W        W74323  18.201  26.468  11.137
 2653W        W74324   6.998  34.515  12.936
 2654W        W74325   4.687  21.778  13.444
 2655W        W74326  40.617  39.662   5.124
 2656W        W74327   5.196   3.366  10.987
 2657W        W74328  11.701  41.446  10.726
 2658W        W74329  32.185  14.057  12.902
 2659W        W74330  22.838  17.675   1.241
 2660W        W74331   3.245  21.009   1.352
 2661W        W74332  35.958  34.442   4.690
 2662W        W74333  32.443   3.425   5.040
 2663W        W74334  18.536  32.375  11.153
 2664W        W74335   9.789  10.370  12.570
 2665W        W74336  13.196  17.482  12.415
 2666W        W74337  10.857   9.424  14.379
 2667W        W74338   6.248   3.069   1.305
 2668W        W74339  39.017  33.461   0.440
 2669W        W74340  11.426  40.935   3.963
 2670W        W74341  25.036  43.867  12.606
 2671W        W74342  39.505   3.302   3.798
 2672W        W74343  21.756  31.516   1.483
 2673W        W74344  32.378  25.632   2.466
 2674W        W74345   7.908  21.134  10.794
 2675W        W74346  38.730  27.651  11.678
 2676W        W74347  22.534  18.595  10.737
 2677W        W74348  24.492  44.932   3.607
 2678W        W74349  18.097  24.123  11.602
 2679W        W74350   1.351  43.257  10.906
 2680W        W74351  23.536  44.745  10.615
 2681W        W74352  35.379  19.788   3.947
 2682W        W74353  16.280  25.078  14.291
 2683W        W74354  44.262   5.837   2.934
 2684W        W74355  31.832  43.058  10.889
 2685W        W74356  36.340  19.642  11.175
 2686W        W74357  15.215  34.763  13.342
 2687W        W74358  35.633   7.439  11.159
 2688W        W74359  17.773  17.113   1.132
 2689W        W74360  14.497  38.796   3.717
 2690W        W74361   5.839  31.761   2.665
 2691W        W74362  35.650  19.668  13.604
 2692W        W74363  25.614   1.396   1.196
 2693W        W74364  22.053  16.843   2.273
 2694W        W74365  13.324  28.614  12.001
 2695W        W74366  39.001  22.589  12.474
 2696W        W74367  44.250  15.271  12.796
 2697W        W74368   9.382  14.638  10.969
 2698W        W74369   3.714  10.177  10.690
 2699W        W74370  21.608  33.395   0.804
 2700W        W74371   0.437   9.088  10.775
 2701W        W74372   8.211  33.564  14.981
 2702W        W74373  29.657  19.216  12.461
 2703W        W74374  32.001  27.984   4.049
 2704W        W74375   7.242  18.511   1.392
 2705W        W74376  36.817  12.692   2.805
 2706W        W74377  11.350   5.714   4.831
 2707W        W74378  12.710  11.864  10.717
 2708W        W74379   1.849  26.691   4.192
 2709W        W74380  21.164  26.836  10.065
 2710W        W74381  36.895  35.926   1.884
 2711W        W74382  30.048  21.602   3.573
 2712W        W74383  37.427   7.344  11.615
 2713W        W74384   4.977   9.372   0.833
 2714W        W74385  13.822  33.190  12.163
 2715W        W74386  10.864   0.471  12.487
 2716W        W74387  31.538  28.550  12.475
 2717W        W74388  36.545  26.852   2.381
 2718W        W74389   0.604  28.557  12.602
 2719W        W74390   8.148  37.471  12.832
 2720W        W74391   5.533   1.017   3.618
 2721W        W74392  41.957  33.663  13.009
 2722W        W74393  10.191   0.219  14.917
 2723W        W74394  33.339  23.697  10.245
 2724W        W74395  24.690  17.754  12.169
 2725W        W74396  38.078   7.185  13.600
 2726W        W74397  32.096   2.864  11.987
 2727W        W74398  44.004  28.809   4.196
 2728W        W74399  37.944   5.434   3.826
 2729W        W74400  38.587   9.339  11.528
 2730W        W74401  27.484   9.878   1.767
 2731W        W74402  11.961  38.274  11.863
 2732W        W74403   9.900  36.431  13.358
 2733W        W74404  18.816  28.482   2.183
 2734W        W74405  22.186  38.495   2.673
 2735W        W74406  15.124  33.027  13.210
 2736W        W74407  29.994  18.279   2.352
 2737W        W74408  15.812  26.172   0.343
 2738W        W74409  13.335  37.934  12.581
 2739W        W74410  29.849  13.587  12.502
 2740W        W74411  15.380  32.146  12.746
 2741W        W74412  18.350  34.621   1.886
 2742W        W74413  14.497  34.339  14.393
 2743W        W74414  15.728  38.613  13.847
 2744W        W74415  21.159  37.543   4.971
 2745W        W74416  37.509  41.274   4.852
 2746W        W74417  17.742  11.914  13.766
 2747W        W74418  39.224  12.355   3.863
 2748W        W74419  38.304  14.158  14.875
 2749W        W74420  23.630  15.772   0.128
 2750W        W74421  16.015   3.173  10.806
 2751W        W74422   4.295   0.451   4.635
 2752W        W74423   4.362  20.522   1.276
 2753W        W74424   6.480  31.169   1.765
 2754W        W74425  30.636  20.473   4.150
 2755W        W74426  39.392   3.715   4.808
 2756W        W74427  13.662   9.185  11.077
 2757W        W74428  20.343  17.241  14.387
 2758W        W74429   5.217  43.079  13.751
 2759W        W74430  15.322  26.326   2.561
 2760W        W74431  11.210  17.861   1.456
 2761W        W74432   2.254  33.346  11.113
 2762W        W74433  34.432  16.156  10.954
 2763W        W74434  11.704  30.969   4.831
 2764W        W74435  10.385  38.450  13.092
 2765W        W74436  38.575   6.398   4.097
 2766W        W74437  34.943  25.492   2.452
 2767W        W74438  27.069  35.857  13.673
 2768W        W74439   2.758  14.691   1.845
 2769W        W74440   2.250  35.033   4.327
 2770W        W74441  41.371  38.944   3.863
 2771W        W74442  17.608  35.351   4.383
 2772W        W74443  29.106  26.656  12.143
 2773W        W74444  15.066  42.426   1.311
 2774W        W74445  22.211  35.105  12.023
 2775W        W74446   1.412  33.510   1.575
 2776W        W74447  14.820  30.108   3.321
 2777W        W74448  28.183  14.176   9.975
 2778W        W74449  42.247  13.349   0.990
 2779W        W74450  43.043  11.073  11.041
 2780W        W74451  43.017  29.044   4.233
 2781W        W74452   3.653  43.456   2.701
 2782W        W74453  43.216  28.241  11.515
 2783W        W74454  26.535  42.936  14.599
 2784W        W74455  28.356  34.857  13.499
 2785W        W74456  28.480   9.204  14.805
 2786W        W74457  43.817  37.360   1.381
 2787W        W74458   7.827  13.319   2.932
 2788W        W74459  16.005   6.190   0.960
 2789W        W74460   2.251  41.804  11.027
 2790W        W74461  43.535  36.351   0.471
 2791W        W74462  25.688   0.312   3.630
 2792W        W74463  18.212  35.684  11.206
 2793W        W74464   1.204  40.981  12.497
 2794W        W74465   3.185  44.013   0.367
 2795W        W74466  33.105  29.139   2.874
 2796W        W74467  15.301  36.585   3.602
 2797W        W74468  27.042  43.548  11.586
 2798W        W74469   4.214  11.598  12.180
 2799W        W74470  36.250   7.371  14.571
 2800W        W74471  40.541  13.607   2.672
 2801W        W74472  12.607  42.832  12.073
 2802W        W74473   0.504   5.840   0.670
 2803W        W74474  16.584  31.538  12.501
 2804W        W74475  29.420  28.675   3.320
 2805W        W74476  17.667  12.238   5.501
 2806W        W74477  15.593   1.370  13.374
 2807W        W74478  18.571  38.997  12.637
 2808W        W74479   3.153   3.519  10.785
 2809W        W74480  44.796   4.718  12.434
 2810W        W74481  33.577   7.960  11.759
 2811W        W74482  25.726  28.623   0.418
 2812W        W74483  37.353  21.571  12.181
 2813W        W74484  13.325  11.246   2.135
 2814W        W74485   2.613  14.298  10.214
 2815W        W74486   0.398   2.598   1.501
 2816W        W74487  14.843   7.813   1.354
 2817W        W74488  24.458  22.603  13.067
 2818W        W74489  34.470  29.068   3.600
 2819W        W74490  18.654  33.011  10.694
 2820W        W74491  16.652  10.813   0.531
 2821W        W74492  29.927   4.820   3.330
 2822W        W74493   0.784  23.411   0.827
 2823W        W74494  23.664   2.367  11.911
 2824W        W74495  32.599   0.516   3.295
 2825W        W74496   6.674   3.169  12.809
 2826W        W74497  14.771  38.349  13.811
 2827W        W74498  30.588  26.059  10.294
 2828W        W74499  14.276  23.083  11.559
 2829W        W74500   9.540  18.281  12.447
 2830W        W74501   4.844  38.794   5.038
 2831W        W74502  22.184   6.438   2.648
 2832W        W74503  17.620  28.863  14.036
 2833W        W74504  11.134  44.186  11.537
 2834W        W74505  26.604  35.173   4.153
 2835W        W74506  29.055  37.373  14.808
 2836W        W74507  11.195   2.918   1.810
 2837W        W74508  36.058  30.789   1.398
 2838W        W74509   0.004  12.170  14.849
 2839W        W74510   0.303  40.957   4.540
 2840W        W74511   9.368   1.818   0.260
 2841W        W74512  24.604   9.860  10.420
 2842W        W74513  31.278  24.400   1.571
 2843W        W74514  24.856  43.214   3.143
 2844W        W74515  30.980  32.185  13.605
 2845W        W74516  39.561  15.811  11.425
 2846W        W74517   0.921   6.194  13.918
 2847W        W74518  18.545  11.290  11.992
 2848W        W74519   9.623   1.015  14.827
 2849W        W74520  13.532  28.241  13.118
 2850W        W74521  31.528  14.173   2.857
 2851W        W74522  35.700  41.304   3.480
 2852W        W74523  39.469  36.395   4.526
 2853W        W74524  35.415  24.535   3.132
 2854W        W74525  32.888  39.574   2.611
 2855W        W74526  21.051  36.118  13.575
 2856W        W74527   6.178  35.208  10.793
 2857W        W74528  16.625  11.232   2.883
 2858W        W74529  36.710  13.865  14.561
 2859W        W74530   3.942  42.694   2.347
 2860W        W74531  21.714  20.048  13.039
 2861W        W74532  19.968  44.435  14.911
 2862W        W74533  16.664  34.439   0.732
 2863W        W74534   5.336  31.355  12.107
 2864W        W74535  39.465  16.605  13.826
 2865W        W74536  17.249  11.340   0.982
 2866W        W74537   4.190  25.704  12.175
 2867W        W74538   7.828  30.033  12.452
 2868W        W74539  13.483  22.073   3.083
 2869W        W74540   8.359  22.110  13.681
 2870W        W74541  39.765  11.163  13.526
 2871W        W74542  34.581  30.376   0.986
 2872W        W74543  35.618  42.184   3.433
 2873W        W74544  29.011  28.425  10.643
 2874W        W74545   0.308  22.217  10.686
 2875W        W74546  44.429   8.312  13.992
 2876W        W74547  28.878  11.822   0.655
 2877W        W74548  34.107  17.286  12.864
 2878W        W74549  28.049  18.001  10.946
 2879W        W74550  16.814  12.870   0.362
 2880W        W74551  32.104  19.892  14.394
 2881W        W74552  24.518  20.602   1.307
 2882W        W74553  11.708  34.982   0.796
 2883W        W74554   8.356   0.404   2.286
 2884W        W74555  14.169  27.262  13.859
 2885W        W74556  36.512  25.552   0.939
 2886W        W74557  36.564  16.336   4.853
 2887W        W74558  13.354  43.035  12.718
 2888W        W74559   5.247  17.349   0.875
 2889W        W74560  26.929  44.295  11.013
 2890W        W74561  25.628  31.860   0.072
 2891W        W74562  25.573  40.497   1.362
 2892W        W74563  25.865  43.392   1.444
 2893W        W74564  27.616   5.488   0.407
 2894W        W74565  12.127  31.461  14.897
 2895W        W74566  22.644  16.200   4.798
 2896W        W74567   2.175   9.189   1.964
 2897W        W74568  41.524  28.590  12.254
 2898W        W74569  25.021  18.188   1.086
 2899W        W74570  21.139  34.416  11.678
 2900W        W74571  35.870  44.939   2.361
 2901W        W74572  25.048  17.703  13.925
 2902W        W74573  14.039  20.573   3.795
 2903W        W74574  23.747  41.989  14.939
 2904W        W74575  29.579  21.986  13.280
 2905W        W74576  33.076  15.748   5.035
 2906W        W74577  15.932  41.928  12.080
 2907W        W74578   5.917  17.288   1.814
 2908W        W74579  18.999   5.800  14.516
 2909W        W74580   6.335   0.977   2.348
 2910W        W74581  25.699  11.704   4.579
 2911W        W74582  31.121   3.971   2.833
 2912W        W74583   9.752  30.611   2.017
 2913W        W74584  17.575  29.928   4.220
 2914W        W74585  40.823   9.821  11.987
 2915W        W74586   8.186  20.621  13.486
 2916W        W74587  22.526  22.809  11.013
 2917W        W74588  40.919  12.606  12.618
 2918W        W74589  32.619   7.458   1.287
 2919W        W74590  17.232  13.580   4.340
 2920W        W74591  33.442  34.541   2.146
 2921W        W74592  31.679   7.282   2.797
 2922W        W74593  16.773  13.087  14.897
 2923W        W74594   7.683  20.644   2.490
 2924W        W74595  39.218  10.351  14.571
 2925W        W74596   7.710  22.356  13.532
 2926W        W74597  31.564  34.097  12.993
 2927W        W74598  14.639   4.371   2.645
 2928W        W74599  16.223  13.306   4.505
 2929W        W74600  23.768  21.512   2.516
 2930W        W74601   9.841   2.412  14.553
 2931W        W74602  13.095  23.796   2.217
 2932W        W74603   8.458  18.000   1.724
 2933W        W74604  16.711  37.265  13.427
 2934W        W74605  32.771  38.365  14.984
 2935W        W74606  32.303  41.410   0.996
 2936W        W74607  15.561  44.383   4.633
 2937W        W74608  12.415   6.460   3.366
 2938W        W74609  39.925  15.255   5.247
 2939W        W74610  19.115   3.110   1.790
 2940W        W74611  29.099  32.107  14.264
 2941W        W74612  22.480   0.519   3.813
 2942W        W74613  24.610   7.966   4.264
 2943W        W74614  43.084  35.453   0.821
 2944W        W74615  35.416   4.280  12.026
 2945W        W74616   2.620  20.245   3.652
 2946W        W74617  10.222  15.072  10.652
 2947W        W74618  42.874   2.294  11.484
 2948W        W74619  12.668   0.540   1.434
 2949W        W74620  22.533  19.997  10.677
 2950W        W74621  38.271  31.716   3.747
 2951W        W74622   2.973  32.296  14.230
 2952W        W74623  29.032  40.932  13.588
 2953W        W74624  44.813  30.535   0.199
 2954W        W74625  17.816  16.154   0.996
 2955W        W74626  36.025  14.550   3.795
 2956W        W74627  11.800  26.479   0.969
 2957W        W74628  26.355  19.549  11.124
 2958W        W74629   4.409  19.734  14.723
 2959W        W74630  14.321   3.790  13.373
 2960W        W74631  35.529  30.119   3.663
 2961W        W74632  43.815  40.761   0.525
 2962W        W74633   5.245  23.960  13.483
 2963W        W74634  10.813  35.127   1.708
 2964W        W74635  38.809  13.937  13.420
 2965W        W74636  12.422   0.058  10.838
 2966W        W74637  20.940  18.517   3.472
 2967W        W74638   8.634   3.226   1.740
 2968W        W74639  15.062  11.388   2.743
 2969W        W74640  12.189   8.678  12.823
 2970W        W74641  15.175  18.766  12.455
 2971W        W74642  25.771  12.345   0.720
 2972W        W74643  37.452   0.419   3.678
 2973W        W74644  27.089  26.577   4.316
 2974W        W74645  28.193   5.363   2.139
 2975W        W74646  32.255  15.365   5.056
 2976W        W74647  22.412  27.905   5.018
 2977W        W74648  25.558  10.242   1.793
 2978W        W74649  14.138  20.617   4.682
 2979W        W74650   5.990   4.789   2.515
 2980W        W74651  38.926   0.443   1.842
 2981W        W74652  44.850   5.919  11.187
 2982W        W74653   1.783  21.269  14.245
 2983W        W74654  33.231  30.658  14.021
 2984W        W74655  30.152  18.322   3.722
 2985W        W74656  43.946   1.804  14.586
 2986W        W74657  34.650  14.836  14.981
 2987W        W74658  32.543  25.229  13.047
 2988W        W74659  11.648  40.199  12.043
 2989W        W74660  30.736  13.131  12.474
 2990W        W74661  14.660   8.557   4.108
 2991W        W74662   0.383  10.162   1.409
 2992W        W74663   3.225  26.466   3.424
 2993W        W74664  22.525  12.502   3.662
 2994W        W74665   6.307  40.078   4.243
 2995W        W74666  39.385  23.216  13.343
 2996W        W74667  38.884  34.375  12.430
 2997W        W74668  18.989  26.867  13.434
 2998W        W74669  28.894  25.964  11.181
 2999W        W74670  29.919   6.355   2.561
 3000W        W74671  31.983  19.975  12.827
 3001W        W74672  30.366  34.960   3.318
 3002W        W74673  39.542  12.202  13.439
 3003W        W74674  26.613  13.299   1.031
 3004W        W74675  12.285   7.067  13.744
 3005W        W74676  41.270  24.961   3.732
 3006W        W74677  22.748  19.024  12.045
 3007W        W74678  36.475  37.067   4.767
 3008W        W74679   1.430  18.642  10.477
 3009W        W74680  31.100   0.461   0.965
 3010W        W74681  20.555  14.732  10.637
 3011W        W74682  44.456  19.009  14.388
 3012W        W74683  14.588  26.266   0.961
 3013W        W74684  15.111  38.891   2.314
 3014W        W74685  33.968  17.672   1.213
 3015W        W74686   2.749  30.101   4.434
 3016W        W74687  11.244  12.390   2.305
 3017W        W74688  17.838  27.043  13.071
 3018W        W74689   2.529  41.261  12.488
 3019W        W74690   1.836  13.438   0.192
 3020W        W74691   9.799  22.794   2.237
 3021W        W74692  33.381   8.181   1.790
 3022W        W74693   6.947  39.114  14.926
 3023W        W74694  14.247  18.718   1.370
 3024W        W74695  43.464  28.433  14.129
 3025W        W74696  33.961  41.588   2.708
 3026W        W74697  26.419  32.121   3.832
 3027W        W74698   8.724   7.608   1.191
 3028W        W74699  35.900  17.928   1.928
 3029W        W74700  44.853   4.732   4.559
 3030W        W74701  37.418  19.111  10.630
 3031W        W74702  43.942  23.778  11.491
 3032W        W74703  32.098  26.669   3.685
 3033W        W74704   5.288  27.479   1.952
 3034W        W74705  36.925  21.896   2.383
 3035W        W74706  13.263  11.081   3.589
 3036W        W74707  23.161  37.032  12.448
 3037W        W74708  31.885  19.591  14.017
 3038W        W74709   6.480   1.470  12.082
 3039W        W74710  26.984  36.303  14.829
 3040W        W74711  44.875  17.745   2.481
 3041W        W74712  19.242  29.993   0.329
 3042W        W74713  21.413  13.319  11.586
 3043W        W74714  38.631  41.283  11.538
 3044W        W74715  10.929  32.509  12.110
 3045W        W74716   8.264  29.554  10.753
 3046W        W74717  29.936   5.035   3.797
 3047W        W74718  37.929  13.135   3.433
 3048W        W74719  19.520  40.282   2.799
 3049W        W74720   7.553  39.161  12.522
 3050W        W74721  19.610  26.808  14.543
 3051W        W74722   9.281  39.582  14.416
 3052W        W74723  22.080   1.774   2.833
 3053W        W74724  44.236   4.434  11.193
 3054W        W74725  35.642  34.926  11.070
 3055W        W74726  39.705  31.846  11.532
 3056W        W74727  10.018  31.415  12.985
 3057W        W74728  42.291  12.545   4.669
 3058W        W74729  37.099  13.422  11.912
 3059W        W74730   0.419  12.474   4.703
 3060W        W74731  39.860  36.015  12.088
 3061W        W74732  33.076  10.185   4.297
 3062W        W74733  26.698  29.473   4.523
 3063W        W74734  33.672   9.582   1.739
 3064W        W74735   2.951  24.698   3.898
 3065W        W74736  16.308  30.542   0.751
 3066W        W74737   3.093   2.942   3.716
 3067W        W74738  17.929  13.343   4.605
 3068W        W74739   2.235   8.828  10.663
 3069W        W74740  44.267  29.745  12.012
 3070W        W74741   9.853  32.495   0.759
 3071W        W74742   5.500  22.815  12.444
 3072W        W74743  16.154  16.836   2.747
 3073W        W74744  18.065  33.288   3.775
 3074W        W74745   4.842  14.029   3.723
 3075W        W74746  15.739  11.569   0.314
 3076W        W74747   2.761  34.074  12.972
 3077W        W74748  18.028  14.290  14.984
 3078W        W74749  31.949  17.077  10.630
 3079W        W74750   4.140  28.645  10.476
 3080W        W74751  29.691  44.037   3.312
 3081W        W74752  44.188   6.401   4.056
 3082W        W74753  13.276  16.070   2.730
 3083W        W74754   9.082   4.907  11.708
 3084W        W74755  38.385  34.994  14.315
 3085W        W74756  10.611  15.063  11.897
 3086W        W74757  40.712   5.934   1.214
 3087W        W74758  25.754  44.444   0.941
 3088W        W74759  37.210  21.244   4.264
 3089W        W74760   4.476   0.524  12.869
 3090W        W74761   1.081  11.724  12.519
 3091W        W74762  11.859  39.678  11.952
 3092W        W74763  10.543  27.954  13.840
 3093W        W74764  12.334  26.503   0.918
 3094W        W74765  37.763  38.115   3.809
 3095W        W74766  25.592  23.834   4.890
 3096W        W74767  17.678   1.671  12.146
 3097W        W74768  42.907  22.573  11.558
 3098W        W74769  38.037  12.566   0.295
 3099W        W74770  41.722  36.650  12.884
 3100W        W74771   5.255   2.328  10.736
 3101W        W74772  18.581  37.550  13.025
 3102W        W74773  20.060   2.727  11.670
 3103W        W74774  36.338  30.461  11.366
 3104W        W74775  38.039  30.241   2.798
 3105W        W74776  21.562   5.703   2.196
 3106W        W74777  23.372  17.336  13.350
 3107W        W74778  23.494  30.319  12.136
 3108W        W74779  17.490   8.267   3.670
 3109W        W74780   3.721  29.497   2.877
 3110W        W74781  38.783  28.131   0.881
 3111W        W74782   6.117  27.868  11.026
 3112W        W74783  27.645   9.214  12.501
 3113W        W74784  20.035  43.371  10.553
 3114W        W74785  36.570   5.144   0.722
 3115W        W74786  20.961  26.777   4.947
 3116W        W74787  40.508  21.007  14.096
 3117W        W74788  35.514  29.989  10.573
 3118W        W74789  41.748  38.299   5.064
 3119W        W74790   1.989  40.256   0.752
 3120W        W74791  34.280  27.658   2.623
 3121W        W74792  11.432   1.262   0.785
 3122W        W74793  41.962   4.907   2.725
 3123W        W74794  43.094  43.673  12.593
 3124W        W74795  25.184   0.569   4.290
 3125W        W74796  22.480   4.390   1.415
 3126W        W74797  38.065  34.881  12.501
 3127W        W74798   5.706  41.697   1.264
 3128W        W74799  20.991  29.915  14.763
 3129W        W74800   4.189  20.274  13.082
 3130W        W74801  20.460  20.647  13.093
 3131W        W74802  20.051  11.180  10.237
 3132W        W74803   6.343  23.064   0.144
 3133W        W74804  37.130  35.371   3.865
 3134W        W74805  38.432  20.403  13.885
 3135W        W74806  18.975  35.099  12.491
 3136W        W74807  27.878  20.119  13.854
 3137W        W74808  18.152  21.221   3.860
 3138W        W74809  40.311  31.205   2.862
 3139W        W74810   0.485  23.191  13.548
 3140W        W74811  10.772  28.488   3.034
 3141W        W74812  37.864  37.642  10.628
 3142W        W74813  13.666  32.036   2.743
 3143W        W74814  41.491  14.513   3.865
 3144W        W74815   2.642  36.573   3.783
 3145W        W74816  30.018  32.064  13.800
 3146W        W74817  38.597   5.753   1.891
 3147W        W74818  30.745   9.608   1.429
 3148W        W74819  20.838  34.374   3.279
 3149W        W74820  30.351  37.453  13.510
 3150W        W74821  35.375   5.706   1.740
 3151W        W74822  21.871  43.611  13.561
 3152W        W74823  32.054  12.169  10.550
 3153W        W74824  25.766  20.891  10.622
 3154W        W74825  39.896  22.022   2.240
 3155W        W74826  14.827   1.910   3.626
 3156W        W74827  42.421  29.229  14.234
 3157W        W74828  12.799  44.822   2.255
 3158W        W74829  19.124  33.118   1.020
 3159W        W74830  19.985  17.005   4.989
 3160W        W74831   3.349  31.077   2.991
 3161W        W74832  25.132  23.753   2.294
 3162W        W74833  31.141  38.416   2.262
 3163W        W74834  32.439  18.516   4.162
 3164W        W74835   8.746  27.700  14.123
 3165W        W74836  37.416  39.596   2.692
 3166W        W74837   3.841  24.142   1.192
 3167W        W74838   1.410  21.098   0.029
 3168W        W74839  33.891  10.619   3.822
 3169W        W74840  31.520  36.872  11.506
 3170W        W74841  33.375  26.733  10.150
 3171W        W74842  29.462  43.497  13.761
 3172W        W74843  35.126  41.248  12.928
 3173W        W74844  20.296  24.227  11.407
 3174W        W74845   1.237  24.551   3.137
 3175W        W74846  32.691  38.116  11.595
 3176W        W74847  37.005  36.089   3.331
 3177W        W74848  11.735  38.454   1.756
 3178W        W74849  16.737  10.172  13.502
 3179W        W74850  19.725  18.563   5.118
 3180W        W74851  18.214   8.253  11.045
 3181W        W74852   1.906  33.811   0.455
 3182W        W74853  28.681  32.171   1.129
 3183W        W74854  39.467   9.933  12.204
 3184W        W74855   2.809  21.199  14.404
 3185W        W74856   8.119  10.756  14.744
 3186W        W74857  18.715   8.734   1.255
 3187W        W74858   1.969  39.232   4.073
 3188W        W74859  21.265   0.468   0.401
 3189W        W74860   2.656  10.718   3.885
 3190W        W74861  15.194  38.528   1.048
 3191W        W74862  27.437  37.561  11.082
 3192W        W74863  25.980  38.253  14.290
 3193W        W74864   8.204  21.228  13.796
 3194W        W74865  10.541  35.425   1.175
 3195W        W74866  37.060  43.985  13.350
 3196W        W74867  39.087  38.092  11.749
 3197W        W74868  12.421  25.501   3.058
 3198W        W74869   1.514  10.492  10.229
 3199W        W74870  37.448  16.784  13.583
 3200W        W74871  30.856  37.887   4.189
 3201W        W74872  41.232  25.211   1.932
 3202W        W74873   3.896  13.166  14.438
 3203W        W74874  33.370  39.459  13.004
 3204W        W74875  44.453  32.871   2.332
 3205W        W74876  12.140   0.315   0.406
 3206W        W74877  11.827  33.122  13.068
 3207W        W74878  23.180  11.696  14.561
 3208W        W74879   0.465  20.702   0.684
 3209W        W74880  30.043  33.388   0.874
 3210W        W74881  41.237   7.834  11.542
 3211W        W74882  41.293  20.673  13.558
 3212W        W74883  42.720   6.607   0.193
 3213W        W74884  20.963  39.475   2.122
 3214W        W74885   8.682   2.142   3.383
 3215W        W74886  39.059  38.017  12.273
 3216W        W74887  25.579  23.336  10.618
 3217W        W74888  24.669  37.134  13.563
 3218W        W74889  41.418  32.512   0.404
 3219W        W74890   5.321  29.199   0.017
 3220W        W74891  33.021  42.529  12.606
 3221W        W74892  40.491   1.357   3.240
 3222W        W74893  35.835   1.760  11.675
 3223W        W74894  21.269   0.479  13.553
 3224W        W74895   1.495  24.686  13.933
 3225W        W74896   8.381  43.269   0.876
 3226W        W74897  42.980  17.016   2.433
 3227W        W74898   8.473  16.275  13.842
 3228W        W74899  25.277  30.066   1.886
 3229W        W74900  42.701   8.716  14.054
 3230W        W74901  23.600  38.353  11.081
 3231W        W74902  23.115  43.806   0.385
 3232W        W74903  21.085  43.217  10.610
 3233W        W74904  42.911  41.508   3.678
 3234W        W74905  36.360  36.986   5.792
 3235W        W74906  33.478  30.108  13.991
 3236W        W74907  21.494   2.517   4.163
 3237W        W74908  22.574  22.708   4.134
 3238W        W74909  33.876  36.489   1.358
 3239W        W74910  13.067  36.774   2.813
 3240W        W74911  25.443  20.511  10.988
 3241W        W74912  38.659   5.916   3.328
 3242W        W74913  23.206   0.751   4.836
 3243W        W74914  14.590  25.740   0.811
 3244W        W74915  43.492  39.545  14.331
 3245W        W74916  12.270  16.227  13.767
 3246W        W74917   2.983  38.822   2.333
 3247W        W74918  22.442   8.713   2.476
 3248W        W74919  23.445  11.203  12.432
 3249W        W74920   2.977   7.796   0.994
 3250W        W74921  35.456  22.267  13.991
 3251W        W74922  36.624  32.179   0.031
 3252W        W74923  35.910  17.183  14.933
 3253W        W74924  17.215  29.249   0.321
 3254W        W74925  42.409  28.690   0.677
 3255W        W74926  36.187  21.781   3.332
 3256W        W74927  19.502  29.620   0.573
 3257W        W74928  12.787  19.427  11.482
 3258W        W74929   3.649  15.532  12.911
 3259W        W74930  23.570  34.816  13.360
 3260W        W74931  18.596  18.587   0.797
 3261W        W74932   1.391  24.180  13.907
 3262W        W74933  35.543  39.719  14.444
 3263W        W74934  17.791  18.230  13.447
 3264W        W74935  42.331  13.829  10.127
 3265W        W74936  18.968  37.096  14.745
 3266W        W74937  43.221  16.090   1.311
 3267W        W74938  11.658  19.821   4.862
 3268W        W74939  27.818   0.169  13.088
 3269W        W74940   1.347  19.216  14.395
 3270W        W74941  11.897   0.183  12.560
 3271W        W74942   7.143  32.763   1.246
 3272W        W74943  29.672  34.082  10.961
 3273W        W74944  36.997   9.215   1.969
 3274W        W74945  34.415   9.243  11.655
 3275W        W74946  32.465  32.572   4.857
 3276W        W74947  36.634  12.757   4.669
 3277W        W74948  15.568  23.648   1.642
 3278W        W74949  37.554   5.985   1.302
 3279W        W74950  43.182  30.485  11.937
 3280W        W74951  31.639   9.824   0.962
 3281W        W74952  42.473   9.415   1.783
 3282W        W74953  27.168   3.921  14.992
 3283W        W74954  39.065   2.692  14.238
 3284W        W74955   5.317  30.853  11.987
 3285W        W74956   9.319  38.059  12.277
 3286W        W74957  30.047  40.718  11.116
 3287W        W74958  30.540  34.637   2.950
 3288W        W74959  32.966   2.681  11.428
 3289W        W74960  37.005  15.224  11.022
 3290W        W74961  44.014  30.189  12.923
 3291W        W74962  38.423  22.038  13.282
 3292W        W74963   4.720  36.494  11.466
 3293W        W74964  33.442  39.532  10.565
 3294W        W74965  12.437  24.178   4.270
 3295W        W74966  38.091  28.553  13.432
 3296W        W74967  21.784  42.451  10.554
 3297W        W74968  22.087  37.207  13.374
 3298W        W74969  13.786  33.633  14.832
 3299W        W74970  34.373   3.236   3.619
 3300W        W74971  43.744   7.603   4.487
 3301W        W74972  25.515  17.678  13.676
 3302W        W74973  25.246  40.498   3.353
 3303W        W74974  43.730   1.488   4.885
 3304W        W74975   2.966  25.575  11.220
 3305W        W74976  14.275  24.937  14.358
 3306W        W74977  26.577  36.334   0.920
 3307W        W74978  20.063  16.672  14.957
 3308W        W74979  25.490  31.499   1.393
 3309W        W74980  38.412  33.865  13.779
 3310W        W74981  44.015  10.346   3.336
 3311W        W74982  25.187  16.141   3.645
 3312W        W74983  33.891  38.870  10.585
 3313W        W74984  16.893  40.595   4.662
 3314W        W74985  25.695  21.551  11.596
 3315W        W74986  31.055  26.847  12.880
 3316W        W74987  27.643  40.189  10.549
 3317W        W74988  37.871  25.066  11.967
 3318W        W74989  17.915   6.823   2.174
 3319W        W74990  40.998   7.291  14.532
 3320W        W74991  13.856   5.038  13.676
 3321W        W74992  40.849  30.385   1.742
 3322W        W74993  43.271  32.512  13.899
 3323W        W74994  38.359   1.240  14.974
 3324W        W74995  16.618  25.227   0.101
 3325W        W74996  11.074  18.106  14.423
 3326W        W74997  44.670  10.638   4.283
 3327W        W74998  40.039  25.604  12.001
 3328W        W74999  25.762  14.380   0.078
 3329W        W75000   1.945  21.479   1.693
 3330W        W75001  40.499   1.332  11.459
 3331W        W75002  10.642  12.543  11.625
 3332W        W75003   7.167  21.058   0.706
 3333W        W75004   6.511  35.376   4.579
 3334W        W75005  38.417  14.362  11.573
 3335W        W75006   4.021  16.292   3.693
 3336W        W75007   7.270  12.675   4.632
 3337W        W75008  10.081  32.615   2.251
 3338W        W75009  22.488  24.938   3.158
 3339W        W75010  29.702  39.964   1.096
 3340W        W75011  32.614  24.583   2.680
 3341W        W75012  36.841  43.241  14.990
 3342W        W75013  22.729  24.417   4.485
 3343W        W75014   6.974  34.564   3.819
 3344W        W75015  24.998  11.100  10.687
 3345W        W75016  41.878  21.195   0.366
 3346W        W75017  35.084  33.875  11.527
 3347W        W75018  37.302  38.988  14.899
 3348W        W75019   2.266  15.544  14.815
 3349W        W75020  41.349  12.804  12.433
 3350W        W75021  37.814  11.886  10.528
 3351W        W75022  25.217  18.061   1.593
 3352W        W75023  44.434  14.248   5.425
 3353W        W75024  23.126  40.629  12.511
 3354W        W75025  15.046   2.202  11.683
 3355W        W75026  40.184   1.193   2.832
 3356W        W75027  43.297  34.069   4.407
 3357W        W75028   9.188  30.179  13.923
 3358W        W75029   3.318  43.320   3.632
 3359W        W75030  14.895   9.195   1.401
 3360W        W75031  15.791  24.135   0.371
 3361W        W75032  14.621  13.314  12.959
 3362W        W75033   6.686  17.663  11.203
 3363W        W75034   2.457  29.087   3.647
 3364W        W75035   7.026  28.048  12.509
 3365W        W75036   1.264  32.794   0.991
 3366W        W75037  41.454  36.425   0.035
 3367W        W75038  25.068  19.351   4.728
 3368W        W75039   4.270   6.310   2.566
 3369W        W75040  43.323   3.258  13.141
 3370W        W75041  30.273  11.658  10.626
 3371W        W75042  34.980  11.289  11.329
 3372W        W75043   7.256  42.095   1.225
 3373W        W75044  26.970  12.473   1.375
 3374W        W75045   8.200  21.080   0.895
 3375W        W75046  22.504  20.732   1.806
 3376W        W75047  34.361  21.542   0.238
 3377W        W75048  29.479   8.794   3.732
 3378W        W75049  39.497   5.427   3.810
 3379W        W75050  42.929  10.113   2.185
 3380W        W75051  25.186  16.320   4.509
 3381W        W75052  23.540  37.834   2.656
 3382W        W75053  23.664  41.155  14.420
 3383W        W75054  19.472  31.813   3.229
 3384W        W75055  38.613  22.531  13.378
 3385W        W75056   9.757  44.009  14.045
 3386W        W75057  12.755  30.366   2.716
 3387W        W75058  42.712  19.624   3.375
 3388W        W75059  11.167  36.052   1.792
 3389W        W75060  34.589  39.622  12.561
 3390W        W75061  17.817  13.274  10.834
 3391W        W75062  36.620  10.244  12.890
 3392W        W75063  27.576  39.024  12.113
 3393W        W75064  40.572  20.477  12.488
 3394W        W75065  18.757   7.941   4.279
 3395W        W75066  22.030  14.800  11.140
 3396W        W75067  15.708  26.407   1.266
 3397W        W75068  11.190   7.746  12.201
 3398W        W75069   8.174  32.747  14.428
 3399W        W75070   1.793   6.934  11.228
 3400W        W75071  22.440   1.462   2.060
 3401W        W75072  39.054  41.553   1.729
 3402W        W75073  26.080  43.455  10.982
 3403W        W75074  39.086   6.601  14.352
 3404W        W75075   6.743  25.672  14.862
 3405W        W75076  38.754  14.291   4.962
 3406W        W75077  29.586  23.281  14.774
 3407W        W75078  35.790   2.794   4.199
 3408W        W75079   2.872  44.257  12.426
 3409W        W75080  28.810  15.353   0.478
 3410W        W75081  19.369  10.996   5.637
 3411W        W75082  32.623  29.135   0.273
 3412W        W75083  13.136  37.032  14.789
 3413W        W75084  34.062   3.754  12.575
 3414W        W75085  20.523  18.704   3.242
 3415W        W75086  28.132  42.026   0.688
 3416W        W75087  26.286  43.072   1.478
 3417W        W75088   1.752  24.558   3.130
 3418W        W75089  11.337  10.272  14.533
 3419W        W75090   8.125  17.944   2.880
 3420W        W75091   7.995  12.018   3.186
 3421W        W75092  24.809   6.342  11.977
 3422W        W75093  24.486  23.687  11.142
 3423W        W75094  40.630  15.825   1.853
 3424W        W75095   1.287  35.529   0.800
 3425W        W75096  35.571   8.708   0.124
 3426W        W75097   3.259  13.516   2.814
 3427W        W75098   1.744  13.720   3.759
 3428W        W75099  44.966  43.946   2.307
 3429W        W75100  20.042  21.311  10.727
 3430W        W75101  15.226  37.252   1.821
 3431W        W75102  22.401  27.230  14.330
 3432W        W75103   8.795  16.310  12.022
 3433W        W75104  39.901  38.483  13.849
 3434W        W75105  14.818  21.584  12.429
 3435W        W75106   4.810  30.434   2.349
 3436W        W75107  39.389  18.341  11.059
 3437W        W75108  27.428  18.994   0.016
 3438W        W75109  36.769   4.420  11.637
 3439W        W75110  35.792  39.391   2.118
 3440W        W75111  34.882  44.371  12.094
 3441W        W75112  34.065  39.827   1.928
 3442W        W75113  23.633   3.272   4.245
 3443W        W75114  15.790  29.640   2.296
 3444W        W75115  15.746  17.021   4.478
 3445W        W75116   4.164   5.904   4.148
 3446W        W75117   7.576  11.065   0.858
 3447W        W75118   8.813   4.310  12.671
 3448W        W75119  37.550  38.796  14.369
 3449W        W75120  18.508  40.001  11.702
 3450W        W75121  34.692  28.560  13.203
 3451W        W75122  39.057  44.872  14.373
 3452W        W75123  43.956   1.963   4.624
 3453W        W75124   8.214  17.583   4.069
 3454W        W75125  38.752  25.625  12.537
 3455W        W75126  33.399  10.711  14.672
 3456W        W75127  15.797   6.701   0.373
 3457W        W75128  21.587  39.046  13.309
 3458W        W75129  36.349  36.626   4.987
 3459W        W75130  10.929  31.759   1.351
 3460W        W75131  39.824  38.912   0.416
 3461W        W75132  44.440  25.082  10.984
 3462W        W75133  15.193   9.233  14.772
 3463W        W75134  20.050   9.249  13.990
 3464W        W75135  21.081  35.107  14.796
 3465W        W75136  43.850  16.769   2.791
 3466W        W75137  24.742  31.607   3.101
 3467W        W75138  24.121  35.427   4.035
 3468W        W75139   2.167  22.192  14.876
 3469W        W75140  24.748  25.039   3.579
 3470W        W75141  15.744  39.931   4.036
 3471W        W75142   8.289  18.684  11.876
 3472W        W75143  10.638  29.859   1.025
 3473W        W75144  30.604  19.875  12.927
 3474W        W75145  26.262  33.637   1.364
 3475W        W75146  27.411  29.117   0.570
 3476W        W75147  20.261  34.941  11.870
 3477W        W75148  16.062   1.665   5.031
 3478W        W75149  43.051  31.545   2.729
 3479W        W75150  12.396  10.814   3.548
 3480W        W75151  14.756  35.109   2.888
 3481W        W75152  29.455  17.566   3.601
 3482W        W75153  27.694  25.683  10.672
 3483W        W75154  23.085   9.791  11.572
 3484W        W75155  24.549  13.825  14.906
 3485W        W75156  20.968  39.545   2.687
 3486W        W75157  37.726  25.742  14.857
 3487W        W75158  30.253   6.385  10.663
 3488W        W75159   1.856  19.808   9.768
 3489W        W75160  34.463  18.650   1.111
 3490W        W75161  41.538  31.547   3.816
 3491W        W75162  35.079  15.813   4.251
 3492W        W75163   0.844  13.113  12.550
 3493W        W75164  22.146  13.266  13.423
 3494W        W75165   0.864  27.281  13.648
 3495W        W75166  29.947  12.327   1.463
 3496W        W75167  19.188  34.119  11.635
 3497W        W75168  29.995  35.836  13.206
 3498W        W75169  24.111   3.349   2.187
 3499W        W75170  24.844   9.330  10.647
 3500W        W75171  10.550   0.389  13.039
 3501W        W75172   7.398   5.457  12.134
 3502W        W75173  24.486  24.611  13.987
 3503W        W75174  27.052  31.547  11.242
 3504W        W75175  17.128  44.433   3.757
 3505W        W75176  41.016  12.273  12.191
 3506W        W75177  44.830   9.482   1.638
 3507W        W75178   9.636  27.165   4.400
 3508W        W75179  34.208  37.329   4.569
 3509W        W75180  11.585  21.074   1.408
 3510W        W75181  31.045  29.904  11.173
 3511W        W75182   2.531  42.393   0.334
 3512W        W75183  16.665  23.750   1.182
 3513W        W75184   9.767  16.836  14.019
 3514W        W75185  24.196  22.259   1.719
 3515W        W75186  36.538   5.010  10.704
 3516W        W75187   4.808   7.129  12.096
 3517W        W75188  22.064  36.456   1.262
 3518W        W75189  15.634  41.217  10.484
 3519W        W75190  36.512  44.991   4.598
 3520W        W75191  32.487  43.014  11.967
 3521W        W75192   0.341   4.880  13.510
 3522W        W75193  11.768   0.663  12.427
 3523W        W75194  20.077  14.121   1.357
 3524W        W75195  31.387  35.021  11.215
 3525W        W75196  28.169   7.456   2.697
 3526W        W75197  33.595  38.623  13.931
 3527W        W75198  30.486  44.276   1.884
 3528W        W75199  35.742   6.331   4.936
 3529W        W75200   7.878  17.505   1.646
 3530W        W75201  37.864  38.948   4.134
 3531W        W75202  19.198  42.660  11.690
 3532W        W75203   3.477  42.232  11.083
 3533W        W75204  23.514  17.973   2.950
 3534W        W75205  30.448  25.781   1.564
 3535W        W75206  10.100  33.044   3.644
 3536W        W75207  44.232  43.513  10.727
 3537W        W75208  40.177  39.631  14.452
 3538W        W75209   9.580  12.480  10.597
 3539W        W75210  16.841   6.868   0.534
 3540W        W75211  15.194  35.348   1.718
 3541W        W75212  26.000  34.799   0.267
 3542W        W75213  29.594  37.822  10.559
 3543W        W75214  11.379  39.717   4.608
 3544W        W75215  44.224  16.691   3.794
 3545W        W75216  20.707  12.634  14.584
 3546W        W75217  10.077  27.152  12.296
 3547W        W75218  35.664  30.142   0.309
 3548W        W75219  33.692  10.314  13.781
 3549W        W75220   2.240   2.510  11.770
 3550W        W75221  20.504  39.004   0.537
 3551W        W75222  25.410  22.540   3.554
 3552W        W75223  21.255  35.065  10.660
 3553W        W75224  13.249  32.469  14.059
 3554W        W75225  32.983  29.737  11.029
 3555W        W75226  26.463  13.835   2.305
 3556W        W75227  23.536   4.378   1.205
 3557W        W75228  32.584   2.822   1.855
 3558W        W75229  42.500   1.445  11.583
 3559W        W75230   9.646  22.642   1.344
 3560W        W75231   6.121   1.277  12.416
 3561W        W75232   7.661  21.357   3.838
 3562W        W75233  13.355  23.631  13.318
 3563W        W75234  32.164  39.640   5.174
 3564W        W75235  21.708   3.347  10.239
 3565W        W75236  30.372  16.112  11.177
 3566W        W75237   8.156  24.549  10.764
 3567W        W75238  10.243  29.083  13.925
 3568W        W75239   7.177  16.279  14.917
 3569W        W75240  38.508   8.978   1.884
 3570W        W75241  23.725  26.961   4.138
 3571W        W75242  15.975   0.751   3.670
 3572W        W75243  22.885  39.879  12.967
 3573W        W75244   1.392  31.653  13.213
 3574W        W75245  31.503  10.704   0.600
 3575W        W75246  13.808  20.073  11.011
 3576W        W75247  36.827  30.206  13.454
 3577W        W75248  42.458  18.596  13.820
 3578W        W75249   3.827  18.714   3.305
 3579W        W75250  21.020  21.079   4.642
 3580W        W75251  40.466  34.737  10.705
 3581W        W75252  24.819   6.671  12.426
 3582W        W75253  25.250  17.724   1.209
 3583W        W75254  31.553  42.412   3.625
 3584W        W75255  33.078   2.947   3.505
 3585W        W75256   3.691  17.547   4.089
 3586W        W75257  23.143  38.868  10.566
 3587W        W75258  11.270  25.012  14.431
 3588W        W75259  32.082  42.392   4.846
 3589W        W75260   9.414  34.151  14.925
 3590W        W75261   6.321   5.043  10.260
 3591W        W75262  30.376  25.531  11.562
 3592W        W75263  21.875  39.299  10.505
 3593W        W75264  35.112  44.398   2.008
 3594W        W75265  38.950  30.705  11.893
 3595W        W75266   0.173   3.365  14.414
 3596W        W75267  21.046  21.753  11.481
 3597W        W75268  39.143  18.843   2.790
 3598W        W75269   7.510   2.218  11.623
 3599W        W75270  43.782  21.932  11.225
 3600W        W75271   4.871  20.273  12.418
 3601W        W75272  28.659  36.080   2.019
 3602W        W75273  31.603  26.095  11.265
 3603W        W75274  37.348   2.232   4.744
 3604W        W75275  15.032   1.278   0.344
 3605W        W75276   7.010   0.932  11.561
 3606W        W75277  36.063  42.625   2.909
 3607W        W75278   1.378  34.350  10.829
 3608W        W75279  15.826  14.525   2.319
 3609W        W75280  37.558  43.852  13.499
 3610W        W75281   3.446  26.131   4.574
 3611W        W75282  44.874  24.211  11.598
 3612W        W75283  34.384  13.816   1.072
 3613W        W75284  10.681  41.200   3.661
 3614W        W75285   4.885  32.043  10.296
 3615W        W75286  26.560  42.313   4.238
 3616W        W75287  32.423  26.410   1.006
 3617W        W75288   7.048  18.046  11.229
 3618W        W75289  11.969  22.125   9.898
 3619W        W75290  21.575  11.309   1.878
 3620W        W75291  15.312  28.664   0.595
 3621W        W75292  12.315  21.653  10.662
 3622W        W75293  15.552  33.784   1.841
 3623W        W75294  36.302  14.843  11.111
 3624W        W75295  22.272  17.183   0.235
 3625W        W75296   8.337  16.052  11.965
 3626W        W75297  13.415  11.322  13.846
 3627W        W75298   1.982  16.773   1.518
 3628W        W75299  31.662   7.258   4.581
 3629W        W75300  14.760  23.979  12.478
 3630W        W75301  22.294  33.922  14.939
 3631W        W75302  21.687  10.138  14.389
 3632W        W75303  22.694  25.686  14.303
 3633W        W75304  14.625  43.497  11.037
 3634W        W75305  40.326   9.643   2.314
 3635W        W75306   3.976  39.857   1.786
 3636W        W75307  34.999  13.993  14.014
 3637W        W75308  15.256  43.930  14.759
 3638W        W75309  33.024  44.994   3.847
 3639W        W75310   8.730  29.323  10.749
 3640W        W75311  36.410  21.038  11.626
 3641W        W75312  26.963  43.801   2.357
 3642W        W75313  19.074  19.677  11.241
 3643W        W75314   7.299  35.828   1.412
 3644W        W75315  28.973  28.900   3.236
 3645W        W75316  36.862  26.915  12.965
 3646W        W75317  25.038  42.322  14.409
 3647W        W75318   5.754   1.526  11.620
 3648W        W75319  23.188  23.964  12.382
 3649W        W75320  23.229  30.727   1.337
 3650W        W75321  13.385  18.322   3.437
 3651W        W75322  41.013  23.445   4.585
 3652W        W75323  39.900  10.639   1.786
 3653W        W75324  38.858  31.964  14.265
 3654W        W75325  21.949  39.935   1.714
 3655W        W75326  15.069  20.581  12.896
 3656W        W75327  36.786   5.741  14.675
 3657W        W75328  16.831  40.992   2.744
 3658W        W75329   9.288  36.314   0.504
 3659W        W75330  29.166  21.460  11.061
 3660W        W75331  26.157  41.827   4.678
 3661W        W75332   8.719  42.565   2.699
 3662W        W75333  19.663   5.958   0.867
 3663W        W75334  35.244   0.999   3.645
 3664W        W75335  25.262  29.656   2.198
 3665W        W75336   0.852  28.045  10.606
 3666W        W75337  18.357  35.944   1.183
 3667W        W75338  42.746  23.424   4.568
 3668W        W75339  39.076   9.591  12.080
 3669W        W75340  26.659  43.229   1.787
 3670W        W75341   2.433  25.991  14.760
 3671W        W75342  26.669  43.228   2.743
 3672W        W75343  17.741  38.663  10.718
 3673W        W75344  34.678  34.875  14.487
 3674W        W75345  38.469  33.082   3.810
 3675W        W75346   8.841  24.930  11.390
 3676W        W75347   2.191  33.433  14.443
 3677W        W75348  32.147  18.988   2.419
 3678W        W75349  29.153  44.335   2.575
 3679W        W75350  10.101   9.778   3.727
 3680W        W75351  28.896  20.363   4.154
 3681W        W75352  10.820  15.173  14.658
 3682W        W75353   3.854  20.686   3.680
 3683W        W75354  24.277  25.993  11.664
 3684W        W75355  34.825  30.521   3.877
 3685W        W75356  44.287  44.912  10.383
 3686W        W75357  38.810   0.267   3.341
 3687W        W75358  25.379  30.715   0.304
 3688W        W75359  18.206  41.683  11.213
 3689W        W75360  23.113  15.254   4.440
 3690W        W75361  10.755  22.374  11.598
 3691W        W75362   2.773  40.567   4.198
 3692W        W75363  24.109  21.610  12.560
 3693W        W75364   9.636  13.328   0.693
 3694W        W75365  32.927  31.885   2.215
 3695W        W75366  34.836  31.420   3.906
 3696W        W75367  14.159  35.224   1.248
 3697W        W75368  14.365  20.207  12.999
 3698W        W75369   4.204  10.636  11.092
 3699W        W75370  21.729  37.315  14.032
 3700W        W75371  22.596  34.346  14.906
 3701W        W75372  33.321  13.440   0.076
 3702W        W75373  44.987  26.367   4.410
 3703W        W75374  42.534  33.648  14.340
 3704W        W75375  13.617  44.967  12.139
 3705W        W75376  44.059  16.831   1.898
 3706W        W75377   6.904  23.731   2.373
 3707W        W75378  25.612  39.998   2.677
 3708W        W75379  35.964  40.031  10.153
 3709W        W75380   2.193   1.843   2.764
 3710W        W75381  42.303  23.317   4.034
 3711W        W75382  30.557   6.246  11.933
 3712W        W75383  44.902  25.114  14.335
 3713W        W75384  17.220  16.625  13.093
 3714W        W75385  17.079  42.918   0.870
 3715W        W75386   7.840  16.852   1.534
 3716W        W75387  37.906   3.242  10.767
 3717W        W75388  34.884  22.483  11.191
 3718W        W75389  13.735  33.559   0.733
 3719W        W75390   0.304   2.853  12.770
 3720W        W75391   0.092  17.800  13.931
 3721W        W75392  33.349   4.356   0.130
 3722W        W75393  40.933  20.656   2.203
 3723W        W75394  38.986  27.070  10.712
 3724W        W75395  32.548  27.962  14.784
 3725W        W75396  43.030  36.059  13.010
 3726W        W75397  40.534  16.837   4.624
 3727W        W75398  35.337   0.651   4.479
 3728W        W75399  43.867  27.268   0.695
 3729W        W75400  38.041  32.593   1.528
 3730W        W75401  30.302  38.445   1.703
 3731W        W75402  12.161  38.679  10.613
 3732W        W75403  23.435   2.396   1.909
 3733W        W75404   0.769  16.217   0.926
 3734W        W75405   9.907  12.368   0.406
 3735W        W75406  20.825  23.038   1.900
 3736W        W75407  30.751  32.078  14.361
 3737W        W75408  35.071  38.080   4.029
 3738W        W75409  31.310  16.150   3.740
 3739W        W75410  27.904  26.047   1.644
 3740W        W75411   2.186  37.537   4.723
 3741W        W75412  13.578  15.040  11.964
 3742W        W75413  26.667  29.845  12.877
 3743W        W75414  44.230  19.181   0.791
 3744W        W75415  10.655  10.915   0.174
 3745W        W75416  17.202  24.616  11.466
 3746W        W75417  18.663  26.484  10.437
 3747W        W75418   7.069  39.372  10.700
 3748W        W75419   3.818   4.542   0.167
 3749W        W75420   1.447  20.466   3.196
 3750W        W75421   7.789  22.690   0.961
 3751W        W75422  15.236  44.298   1.555
 3752W        W75423   0.267  21.684  14.760
 3753W        W75424  35.759  24.139   3.249
 3754W        W75425  21.541  31.572   0.206
 3755W        W75426  30.608   3.756   0.823
 3756W        W75427  36.344  10.673   3.653
 3757W        W75428  18.529  25.467  12.905
 3758W        W75429  35.560  14.137   2.932
 3759W        W75430  18.317  35.852  13.254
 3760W        W75431  18.202   0.592   0.734
 3761W        W75432  26.102  10.789   3.694
 3762W        W75433  13.926  41.403  10.927
 3763W        W75434  23.181  43.082  12.306
 3764W        W75435  24.966  10.151  10.668
 3765W        W75436   7.015  28.164  13.376
 3766W        W75437  37.559   4.394  14.431
 3767W        W75438  25.708  30.673   2.331
 3768W        W75439  19.038  10.169  11.086
 3769W        W75440  43.466   9.802   1.818
 3770W        W75441  28.501  10.716   2.877
 3771W        W75442   8.616  28.912  12.665
 3772W        W75443  25.436   3.984   4.071
 3773W        W75444  25.545  33.977  14.471
 3774W        W75445   9.969  31.095   0.834
 3775W        W75446   2.426   9.784  12.413
 3776W        W75447   2.228  35.026  12.669
 3777W        W75448  26.779   5.129   2.172
 3778W        W75449   4.036  31.136   0.791
 3779W        W75450  41.003   0.467  13.745
 3780W        W75451   2.047  42.383   1.779
 3781W        W75452  30.197  31.366  13.144
 3782W        W75453   9.684   4.908   4.661
 3783W        W75454  34.918  37.116   2.707
 3784W        W75455  23.897  15.615  14.567
 3785W        W75456  31.684  13.310   4.337
 3786W        W75457  20.659   4.335   1.669
 3787W        W75458  32.818  19.522   2.071
 3788W        W75459  14.318  28.948   1.846
 3789W        W75460  34.669  41.440  11.594
 3790W        W75461  18.743  24.449   2.109
 3791W        W75462  35.016  30.504   9.854
 3792W        W75463  12.402  13.031   4.099
 3793W        W75464  29.586   2.301  12.445
 3794W        W75465   4.310  23.604   4.652
 3795W        W75466   8.356  32.112   4.072
 3796W        W75467  38.491  16.360  11.232
 3797W        W75468  15.125  36.109   3.859
 3798W        W75469  41.094  20.650  11.274
 3799W        W75470  12.117  35.896   3.271
 3800W        W75471  14.313  25.588   0.004
 3801W        W75472  15.567  32.939  10.713
 3802W        W75473  36.284  36.455  12.812
 3803W        W75474  16.281  21.594   0.787
 3804W        W75475   4.522   8.607  11.124
 3805W        W75476   3.998   7.382  14.936
 3806W        W75477   7.078  31.586  11.764
 3807W        W75478  30.496  23.755   2.603
 3808W        W75479  13.614  35.103   1.242
 3809W        W75480   0.053  16.347   1.143
 3810W        W75481  15.188  40.844   3.215
 3811W        W75482  14.132  32.433  10.550
 3812W        W75483   1.000  19.571   4.257
 3813W        W75484  17.687  38.537   4.291
 3814W        W75485  10.623  39.554  10.642
 3815W        W75486  28.595   1.112  12.154
 3816W        W75487   3.519  27.107   0.430
 3817W        W75488  31.628  32.415   2.798
 3818W        W75489  10.311   7.042  11.489
 3819W        W75490  11.781  43.152   1.045
 3820W        W75491  33.496  32.885  14.662
 3821W        W75492  34.805   3.914  14.470
 3822W        W75493  20.660   7.148  13.136
 3823W        W75494  44.000  32.881  10.791
 3824W        W75495   4.776  19.486  12.140
 3825W        W75496  40.311  15.416   0.279
 3826W        W75497  19.305   5.133   0.062
 3827W        W75498  37.630  43.892  12.991
 3828W        W75499  26.232  42.898   2.797
 3829W        W75500  16.894   7.357  11.612
 3830W        W75501  13.641  14.273   3.343
 3831W        W75502  26.247   4.757  14.437
 3832W        W75503  24.732  32.098  12.963
 3833W        W75504  39.230   7.249   2.239
 3834W        W75505  34.781   5.710  11.157
 3835W        W75506  13.989  30.484  11.010
 3836W        W75507  38.295  27.120  11.223
 3837W        W75508  13.004   0.765   0.937
 3838W        W75509   9.262   9.814   1.998
 3839W        W75510  36.009  23.961   0.414
 3840W        W75511   5.200  19.170   3.169
 3841W        W75512   0.040  21.243  12.646
 3842W        W75513  23.588  28.090   3.744
 3843W        W75514  20.186  38.246  12.368
 3844W        W75515  42.840  23.162   3.211
 3845W        W75516  23.453  19.768  12.418
 3846W        W75517  22.070  24.387  14.152
 3847W        W75518   8.710  40.648   5.124
 3848W        W75519   9.873   6.001  12.101
 3849W        W75520   9.601  18.812  14.851
 3850W        W75521  33.843  42.081   1.344
 3851W        W75522  26.543   8.337  13.261
 3852W        W75523  34.014  41.845  14.050
 3853W        W75524  32.090  28.686  12.502
 3854W        W75525  42.721  26.738  11.121
 3855W        W75526  30.641  43.924   0.257
 3856W        W75527  20.614  40.304  14.921
 3857W        W75528  20.213  24.967  12.939
 3858W        W75529  20.332  18.073  11.045
 3859W        W75530   7.174   4.808  13.099
 3860W        W75531   4.166  34.884   1.263
 3861W        W75532   5.772  26.468  12.213
 3862W        W75533  44.723   0.139  11.156
 3863W        W75534   1.648  26.660   3.667
 3864W        W75535  33.114  37.491  12.931
 3865W        W75536  16.849  41.429  10.990
 3866W        W75537  19.751  34.776  13.504
 3867W        W75538  39.357  11.681   2.256
 3868W        W75539   8.830  18.167  14.418
 3869W        W75540  12.784   8.743  14.014
 3870W        W75541  20.501  23.047   4.005
 3871W        W75542  24.973  10.282  14.788
 3872W        W75543  33.971  40.197   1.570
 3873W        W75544  37.315  28.679  12.639
 3874W        W75545  15.095   9.972   1.757
 3875W        W75546  35.970  40.419  12.476
 3876W        W75547  20.560  42.422  14.251
 3877W        W75548   1.265  23.008  14.544
 3878W        W75549  41.164  31.844  12.521
 3879W        W75550  25.397  34.900  12.074
 3880W        W75551  35.587  35.568  11.446
 3881W        W75552  13.761  43.164   3.579
 3882W        W75553  40.995  21.739   2.739
 3883W        W75554  40.107  17.398   2.167
 3884W        W75555  41.834  34.241  14.712
 3885W        W75556  30.429  10.371  11.056
 3886W        W75557  29.818  15.513   1.851
 3887W        W75558  32.916  21.483   0.871
 3888W        W75559  43.968  44.352   4.296
 3889W        W75560  41.015   7.996  11.063
 3890W        W75561  40.981   0.576  14.530
 3891W        W75562  12.941  29.465  11.478
 3892W        W75563  14.938  15.900  13.463
 3893W        W75564  15.048  21.480  12.890
 3894W        W75565  38.878   6.395  12.000
 3895W        W75566  40.397  11.231   3.226
 3896W        W75567   9.714  44.821   4.010
 3897W        W75568  35.377  10.851   0.392
 3898W        W75569  19.692  26.680  11.031
 3899W        W75570   8.263  29.108  13.582
 3900W        W75571  20.528  26.717  12.257
 3901W        W75572  31.129   4.741   3.229
 3902W        W75573  44.306  30.789  12.099
 3903W        W75574   8.774  22.819  12.977
 3904W        W75575   5.210  35.954   3.175
 3905W        W75576  43.823  30.671  14.384
 3906W        W75577  24.465  32.810   2.214
 3907W        W75578  16.686   6.383   0.383
 3908W        W75579  17.888   5.194   2.996
 3909W        W75580   3.874  30.896  11.026
 3910W        W75581  33.082   1.746  10.864
 3911W        W75582  26.560   6.101  12.123
 3912W        W75583  17.464   5.504   2.998
 3913W        W75584  39.344  38.066  10.762
 3914W        W75585  20.370   5.267  12.806
 3915W        W75586  41.559   6.302   2.874
 3916W        W75587  42.440  27.288   1.676
 3917W        W75588  14.738  16.837   1.309
 3918W        W75589  44.823  21.219   9.660
 3919W        W75590  24.120   8.320  14.817
 3920W        W75591   6.267   9.349   2.406
 3921W        W75592  20.819  15.849   4.101
 3922W        W75593  38.799  37.028   3.396
 3923W        W75594  43.079  43.240   1.386
 3924W        W75595  25.639  30.335   1.264
 3925W        W75596  24.605  39.489  13.009
 3926W        W75597   4.789  11.858  14.850
 3927W        W75598  13.052  28.204  12.934
 3928W        W75599  36.565  26.501   0.892
 3929W        W75600   3.490  41.483  10.681
 3930W        W75601  13.599  20.608  14.241
 3931W        W75602  28.084   6.878   0.943
 3932W        W75603  42.863  23.607   2.925
 3933W        W75604  44.695  38.313  12.699
 3934W        W75605  25.488  44.676   0.542
 3935W        W75606  20.608  13.436  10.252
 3936W        W75607  17.746  44.062  14.876
 3937W        W75608  16.298  36.783   2.454
 3938W        W75609  10.224  26.294   1.747
 3939W        W75610  39.107  10.932  11.005
 3940W        W75611   9.309  22.003   0.187
 3941W        W75612  43.092   9.905   3.583
 3942W        W75613  29.241   7.081   4.596
 3943W        W75614  21.316   2.431   2.571
 3944W        W75615  41.657  31.960  12.554
 3945W        W75616  35.662  40.193  12.128
 3946W        W75617  25.253  44.981  14.873
 3947W        W75618  24.696  18.194   3.201
 3948W        W75619  41.801   2.364   4.805
 3949W        W75620  25.564  12.188   2.842
 3950W        W75621   5.954   2.563  12.584
 3951W        W75622   7.027  21.902   3.210
 3952W        W75623  16.631   5.781   4.227
 3953W        W75624  25.606  12.690   1.685
 3954W        W75625   6.973  31.915   3.858
 3955W        W75626   1.960  34.470  10.682
 3956W        W75627  10.429  20.100  13.335
 3957W        W75628  26.672  25.710   3.311
 3958W        W75629  28.720  24.675  11.619
 3959W        W75630  17.181  18.603   2.850
 3960W        W75631  39.984  29.627   0.767
 3961W        W75632   3.165  25.198  13.295
 3962W        W75633  25.265  40.810  13.798
 3963W        W75634  36.436  40.420  10.727
 3964W        W75635  22.990  32.999   4.626
 3965W        W75636  12.676   6.407   0.576
 3966W        W75637  12.156   9.845   3.745
 3967W        W75638  13.141  39.754   4.624
 3968W        W75639   3.795  18.201  13.133
 3969W        W75640  17.228  28.871  14.415
 3970W        W75641  27.145  21.712  14.032
 3971W        W75642  36.022  31.120  13.005
 3972W        W75643  28.200  31.435  13.823
 3973W        W75644  12.575   1.928  12.847
 3974W        W75645   8.384  37.049  12.998
 3975W        W75646  20.309  11.907  10.595
 3976W        W75647  19.383  18.513   1.461
 3977W        W75648  41.773  30.694   0.930
 3978W        W75649  28.101   5.177   0.298
 3979W        W75650  31.923  39.778  12.023
 3980W        W75651   9.320   9.918   4.183
 3981W        W75652  14.003  25.455  11.142
 3982W        W75653  29.747  38.543   1.599
 3983W        W75654  10.623  44.537   0.855
 3984W        W75655   2.414  26.331  13.750
 3985W        W75656  40.484  23.573   3.353
 3986W        W75657  31.377  21.532  14.776
 3987W        W75658  29.617   1.305   3.431
 3988W        W75659   1.241  15.193   0.767
 3989W        W75660  38.169  34.522   2.694
 3990W        W75661  24.851  20.359   4.307
 3991W        W75662   0.844  39.568  12.408
 3992W        W75663  16.806   2.151   0.610
 3993W        W75664  28.711  16.594  13.921
 3994W        W75665  15.862  30.056  11.420
 3995W        W75666  25.763   5.363  13.972
 3996W        W75667  27.877  17.109  11.960
 3997W        W75668   0.612  22.525   9.716
 3998W        W75669  13.222  23.276  13.972
 3999W        W75670  37.388  33.636  11.930
 4000W        W75671  11.190  32.117   1.646
 4001W        W75672  41.311  13.093  14.398
 4002W        W75673  44.982  22.677  12.865
 4003W        W75674  43.459  28.325  12.698
 4004W        W75675  14.258  38.969   3.120
 4005W        W75676  38.607  18.671   1.507
 4006W        W75677  18.754  43.162  11.172
 4007W        W75678  18.210  44.379  12.894
 4008W        W75679   3.965   2.358   4.346
 4009W        W75680   1.322  31.163  13.404
 4010W        W75681  26.017  28.141   4.908
 4011W        W75682  22.164  21.901  11.907
 4012W        W75683  37.933   1.943  13.411
 4013W        W75684   2.803  21.277   1.271
 4014W        W75685  36.915  39.561  14.686
 4015W        W75686  14.587   3.976   1.406
 4016W        W75687   3.218  39.948   2.928
 4017W        W75688  33.467  26.616   3.360
 4018W        W75689   4.658  18.465   0.443
 4019W        W75690  12.629  32.270   1.409
 4020W        W75691  13.184  12.566   3.507
 4021W        W75692  10.289   4.184   3.588
 4022W        W75693  18.167  30.149  11.086
 4023W        W75694   8.220   8.839  14.360
 4024W        W75695   8.488  37.976   4.031
 4025W        W75696  12.345  27.030  10.579
 4026W        W75697  34.666  36.843  11.077
 4027W        W75698   2.760   0.276   3.660
 4028W        W75699  33.032  35.038   4.123
 4029W        W75700  14.377   0.357  10.530
 4030W        W75701  21.084  32.997   0.543
 4031W        W75702  42.265   3.479  14.349
 4032W        W75703  43.703  22.535  14.876
 4033W        W75704  20.195  43.627   2.020
 4034W        W75705  21.557  10.235  13.854
 4035W        W75706  28.340  18.319   2.340
 4036W        W75707  31.497  37.405   1.717
 4037W        W75708  41.288  20.368  12.074
 4038W        W75709  23.709  22.678   4.620
 4039W        W75710  35.555  28.924  10.972
 4040W        W75711  30.996  20.834   4.145
 4041W        W75712  24.072  41.821   2.721
 4042W        W75713  25.787  21.703  13.403
 4043W        W75714  36.380  30.541  10.861
 4044W        W75715  18.782  14.677   1.789
 4045W        W75716  31.407  33.155  12.983
 4046W        W75717  14.701  29.998  10.976
 4047W        W75718  42.015  34.163   2.675
 4048W        W75719  31.606   8.834   0.779
 4049W        W75720  42.289  42.802   0.949
 4050W        W75721  14.149  31.676   4.885
 4051W        W75722  41.543   8.823  12.476
 4052W        W75723  43.114   2.207   1.362
 4053W        W75724  33.399  12.131   0.388
 4054W        W75725   7.862  26.726   1.865
 4055W        W75726   0.541   4.384  11.556
 4056W        W75727  42.826  39.205   1.714
 4057W        W75728  42.504  25.240  14.867
 4058W        W75729   1.596   0.835  12.053
 4059W        W75730  17.171  14.195   1.254
 4060W        W75731  12.903  15.538  13.864
 4061W        W75732   2.979  32.505  11.238
 4062W        W75733  13.704  40.221  12.631
 4063W        W75734  28.964  37.763  11.612
 4064W        W75735  44.783  21.128  13.707
 4065W        W75736   5.029  24.587  11.537
 4066W        W75737  44.936   8.906   2.428
 4067W        W75738  39.335  32.069   4.229
 4068W        W75739  20.570  21.666  13.972
 4069W        W75740  10.812   3.097  14.889
 4070W        W75741  10.316   1.394  13.415
 4071W        W75742  13.141  43.028   5.126
 4072W        W75743  43.234   5.379   4.137
 4073W        W75744  22.166  37.446   0.888
 4074W        W75745   6.374  19.628   2.549
 4075W        W75746  28.937   2.275   0.912
 4076W        W75747  33.104  26.773   1.400
 4077W        W75748  22.279  24.412   4.149
 4078W        W75749  39.797   2.404   4.853
 4079W        W75750  28.676  17.525   1.900
 4080W        W75751  32.146  28.042   0.192
 4081W        W75752  18.273  35.361   0.006
 4082W        W75753  29.239  31.673   4.349
 4083W        W75754  42.852  38.463  12.449
 4084W        W75755   6.810  32.182   5.095
 4085W        W75756  37.150  30.052  11.114
 4086W        W75757  14.638  13.315  12.444
 4087W        W75758  41.227   8.690  12.875
 4088W        W75759   2.466   4.425  10.746
 4089W        W75760  13.193  11.925  13.474
 4090W        W75761  14.809  18.253  11.156
 4091W        W75762  35.938   2.861   2.008
 4092W        W75763  16.646   0.308  13.005
 4093W        W75764   8.375  33.696   4.559
 4094W        W75765  41.453  16.628   2.233
 4095W        W75766  10.084   0.996  11.172
 4096W        W75767  44.652  30.462  13.870
 4097W        W75768   3.467  27.883  13.949
 4098W        W75769  36.355  29.186  13.507
 4099W        W75770  43.986   7.416   1.354
 4100W        W75771   3.734  37.570  10.568
 4101W        W75772   7.729  33.851  13.344
 4102W        W75773  16.968   2.989   1.802
 4103W        W75774  33.953   5.889  13.691
 4104W        W75775  28.349  13.062   1.218
 4105W        W75776   1.217  18.053  12.390
 4106W        W75777   1.744  21.571   0.802
 4107W        W75778  22.612  22.180   0.408
 4108W        W75779   7.360  33.567  10.611
 4109W        W75780  34.796  11.692   4.630
 4110W        W75781  32.380   1.466  10.957
 4111W        W75782  12.401  41.299   4.204
 4112W        W75783  29.972  29.508  14.785
 4113W        W75784  30.112  24.978   4.587
 4114W        W75785   3.325  30.596   1.847
 4115W        W75786  14.946   4.770   1.773
 4116W        W75787  41.868  22.446  14.033
 4117W        W75788  16.584   4.793  13.843
 4118W        W75789  29.234  24.936  13.421
 4119W        W75790  21.069  27.479   2.216
 4120W        W75791  42.871  13.230   3.065
 4121W        W75792  27.077  13.525   1.178
 4122W        W75793  14.524  22.127  14.821
 4123W        W75794  39.209  31.842   2.517
 4124W        W75795  28.734  13.578   0.362
 4125W        W75796  22.952  29.012   3.100
 4126W        W75797   1.019  42.446   3.362
 4127W        W75798  38.492  38.053   3.283
 4128W        W75799  33.526   9.330   1.241
 4129W        W75800  30.038   8.043   5.388
 4130W        W75801   4.699  39.966  10.639
 4131W        W75802  16.304  41.538  14.526
 4132W        W75803  36.586   4.700  14.076
 4133W        W75804   2.877  43.983   3.157
 4134W        W75805  35.055   3.362   4.127
 4135W        W75806  33.832  32.881  10.654
 4136W        W75807  26.969  25.608   1.444
 4137W        W75808  29.407  10.236  10.325
 4138W        W75809  14.533  13.401  13.978
 4139W        W75810   5.867  29.025  13.143
 4140W        W75811  36.744   4.658  11.193
 4141W        W75812  23.147  31.153  11.057
 4142W        W75813  21.953  16.518  10.883
 4143W        W75814  32.614  39.471  11.552
 4144W        W75815  44.416  22.742   0.288
 4145W        W75816  23.682  43.350   1.684
 4146W        W75817  42.943  13.417  10.691
 4147W        W75818   1.674  32.612  11.211
 4148W        W75819  10.698  35.506   3.143
 4149W        W75820  18.265  21.135   2.405
 4150W        W75821  13.393  42.040  12.576
 4151W        W75822  23.242  21.180  14.381
 4152W        W75823  40.117  14.138  11.355
 4153W        W75824  12.288  44.899   2.326
 4154W        W75825  31.325   6.345  14.603
 4155W        W75826  23.495  18.872  11.570
 4156W        W75827   1.948  26.139  12.969
 4157W        W75828   3.803  44.793  13.092
 4158W        W75829  12.099  44.813   3.681
 4159W        W75830   0.919  36.485  12.348
 4160W        W75831  43.980  24.674   4.990
 4161W        W75832  43.564  36.068  13.037
 4162W        W75833  31.953  21.740  11.522
 4163W        W75834  18.078   1.305  13.488
 4164W        W75835  19.573  38.916   3.732
 4165W        W75836   2.437  26.171   3.536
 4166W        W75837  44.713  27.885  11.085
 4167W        W75838  17.848  32.142   0.412
 4168W        W75839  36.146   7.714   0.708
 4169W        W75840   5.825  36.538   0.714
 4170W        W75841  12.963  28.132   2.019
 4171W        W75842  36.778  39.512  11.062
 4172W        W75843  12.651  43.476  13.409
 4173W        W75844  31.549  31.520   4.758
 4174W        W75845   5.650  39.701  14.797
 4175W        W75846   4.956   3.847   4.772
 4176W        W75847  27.093  13.925   3.130
 4177W        W75848  22.510  26.111   4.204
 4178W        W75849   4.388   3.547   2.092
 4179W        W75850   9.842  32.537   1.808
 4180W        W75851  32.064  24.480   2.642
 4181W        W75852  11.758  36.306   3.725
 4182W        W75853   2.425  11.837  14.023
 4183W        W75854  31.383  44.809  13.602
 4184W        W75855  23.682   3.163   4.780
 4185W        W75856   8.756  33.163  11.963
 4186W        W75857  13.227  21.625   0.302
 4187W        W75858  11.649  42.309  13.857
 4188W        W75859  26.599  19.234  14.276
 4189W        W75860  26.319  27.916  11.509
 4190W        W75861  34.945  11.916  14.016
 4191W        W75862  44.377  12.030   1.403
 4192W        W75863   1.862  20.430   1.603
 4193W        W75864   1.370  21.151  14.502
 4194W        W75865   5.178  25.408  14.985
 4195W        W75866  24.869  26.174  14.609
 4196W        W75867  31.664  27.591  10.430
 4197W        W75868  31.164   9.189   2.853
 4198W        W75869  12.124  41.732  10.702
 4199W        W75870  25.960   5.981  12.979
 4200W        W75871  24.043  22.521   0.624
 4201W        W75872  10.190   2.422  12.091
 4202W        W75873  43.748  14.773  10.936
 4203W        W75874  37.117   4.745  14.969
 4204W        W75875   0.251  40.315   3.332
 4205W        W75876  10.788  30.695   0.780
 4206W        W75877  19.881  12.253  10.550
 4207W        W75878  17.595  12.899   2.823
 4208W        W75879  14.662  28.203  11.074
 4209W        W75880  37.473  33.050  13.145
 4210W        W75881  15.517   2.483   2.699
 4211W        W75882  44.585   6.939   4.738
 4212W        W75883  32.385  14.920  14.427
 4213W        W75884  16.841   5.190   1.003
 4214W        W75885   7.179   3.367   3.426
 4215W        W75886  27.521  19.183  11.629
 4216W        W75887  11.785  14.320   1.361
 4217W        W75888  29.111  15.719   0.267
 4218W        W75889  17.176   6.014  14.100
 4219W        W75890  25.371   0.923  10.982
 4220W        W75891  31.903  13.741  10.741
 4221W        W75892   1.776  22.422   3.406
 4222W        W75893  39.831  19.748   5.040
 4223W        W75894  35.738  39.354  11.185
 4224W        W75895   2.437  13.689   4.537
 4225W        W75896  35.460  23.498   2.723
 4226W        W75897  13.391  18.713   1.273
 4227W        W75898  36.576  27.458  11.821
 4228W        W75899  35.476  30.892  12.212
 4229W        W75900  32.547  40.025   0.859
 4230W        W75901  34.605  17.732  10.772
 4231W        W75902   4.303  26.252   3.183
 4232W        W75903  43.822  26.181   4.655
 4233W        W75904  40.497  12.036   3.604
 4234W        W75905  33.139   0.916  10.957
 4235W        W75906  22.796  41.115   3.368
 4236W        W75907  26.767  29.031  14.396
 4237W        W75908  41.779  14.854   2.580
 4238W        W75909  31.953  12.471   3.937
 4239W        W75910  30.341   2.118  13.108
 4240W        W75911  39.963  31.798   3.381
 4241W        W75912  36.642  20.698   1.388
 4242W        W75913   9.802  43.546  12.235
 4243W        W75914   0.447  41.427   3.615
 4244W        W75915  29.664  32.974  12.097
 4245W        W75916  21.280   9.718  14.416
 4246W        W75917   5.276  41.276   2.840
 4247W        W75918   9.415  15.704   0.756
 4248W        W75919  16.742   5.281  13.099
 4249W        W75920  30.430  17.057  11.190
 4250W        W75921  28.622  14.283  10.882
 4251W        W75922   3.261  14.602  12.245
 4252W        W75923   6.716  18.570   1.436
 4253W        W75924  42.252  13.776  11.435
 4254W        W75925  14.223  20.045  10.674
 4255W        W75926  16.618  22.739   1.337
 4256W        W75927   9.240  33.655   4.739
 4257W        W75928   2.222  20.754   0.802
 4258W        W75929  32.513  17.173   3.152
 4259W        W75930  15.202  38.984  10.400
 4260W        W75931  40.336  12.473  10.997
 4261W        W75932   8.151  14.300   0.741
 4262W        W75933  40.352  22.933  14.362
 4263W        W75934  29.379  22.066  11.094
 4264W        W75935   0.886  43.352   1.775
 4265W        W75936  29.924  21.617  12.175
 4266W        W75937  37.207  26.493   3.458
 4267W        W75938   2.054  19.088   3.372
 4268W        W75939  44.759  39.350  14.808
 4269W        W75940   4.314  43.507  10.674
 4270W        W75941  35.637  15.091   3.288
 4271W        W75942   2.681   2.200   1.886
 4272W        W75943   7.260  19.751  12.552
 4273W        W75944   5.862  22.073   0.876
 4274W        W75945  39.551  16.094   4.634
 4275W        W75946  11.714  25.546   1.279
 4276W        W75947   5.643  20.851   4.221
 4277W        W75948  14.740  26.761   3.901
 4278W        W75949  38.657  20.348   3.258
 4279W        W75950  21.784   6.434   0.525
 4280W        W75951  23.132  38.957  11.585
 4281W        W75952  10.283   3.439   1.883
 4282W        W75953  34.555  12.251  11.975
 4283W        W75954  39.042  15.972   2.035
 4284W        W75955  27.624  11.630  13.827
 4285W        W75956  43.551  37.318   1.818
 4286W        W75957  24.361  28.599   2.327
 4287W        W75958  38.957  39.181   4.625
 4288W        W75959  11.874  16.327   4.519
 4289W        W75960   4.286  11.720  12.747
 4290W        W75961  31.955   1.776   1.221
 4291W        W75962   0.775  38.017   3.332
 4292W        W75963   5.312  15.802   0.726
 4293W        W75964  29.921  21.143  10.018
 4294W        W75965  41.848  35.934  12.152
 4295W        W75966  28.772   3.249   0.409
 4296W        W75967  21.938  20.877  11.269
 4297W        W75968  30.543  21.532  10.396
 4298W        W75969  35.295  20.183  10.477
 4299W        W75970  13.394  38.835  13.173
 4300W        W75971   6.094  19.562   2.114
 4301W        W75972  32.482  12.123  14.983
 4302W        W75973  42.460  32.420  11.198
 4303W        W75974   7.298  17.364  14.489
 4304W        W75975  14.683  30.228   4.694
 4305W        W75976  43.800   8.853   2.656
 4306W        W75977  32.445  24.168   0.718
 4307W        W75978  32.484  42.507  13.386
 4308W        W75979  23.677   9.783   2.162
 4309W        W75980  32.002  32.839   2.754
 4310W        W75981  26.963   6.827   1.361
 4311W        W75982   2.746  22.012  12.461
 4312W        W75983  38.299  42.094   3.543
 4313W        W75984   1.641  28.937  11.078
 4314W        W75985   9.118   1.500   3.223
 4315W        W75986   1.800  22.222  12.783
 4316W        W75987  11.658  21.231   2.293
 4317W        W75988  39.106  33.524  12.106
 4318W        W75989  25.080  31.708  13.455
 4319W        W75990   7.061  14.517  14.585
 4320W        W75991   3.816  29.608  13.539
 4321W        W75992  25.966   2.425  12.026
 4322W        W75993   3.813  11.656   1.177
 4323W        W75994  24.646  21.421   2.793
 4324W        W75995  36.371   8.499   4.095
 4325W        W75996   5.832  35.504   4.634
 4326W        W75997   5.628   6.324   4.712
 4327W        W75998   7.356  31.476  13.360
 4328W        W75999   7.356  22.445   0.786
 4329W        W76000  31.867  37.267   3.572
 4330W        W76001  38.003   8.777  14.754
 4331W        W76002  33.232  43.917  11.775
 4332W        W76003  12.814   8.792   1.709
 4333W        W76004  37.730  10.677   1.774
 4334W        W76005  43.324  44.936   4.729
 4335W        W76006  17.119  38.870   4.970
 4336W        W76007  19.094  16.581  10.724
 4337W        W76008   4.786   5.087   3.226
 4338W        W76009  10.162  42.487  11.563
 4339W        W76010  33.412  25.578   2.454
 4340W        W76011  41.055  30.661   2.155
 4341W        W76012  22.812  41.839   1.025
 4342W        W76013  10.598  24.282   0.976
 4343W        W76014   8.870   6.620   2.901
 4344W        W76015  36.958  33.458   4.697
 4345W        W76016  16.039   9.241   4.035
 4346W        W76017   8.610  27.925  11.073
 4347W        W76018  30.084   8.475  12.116
 4348W        W76019  43.261  28.083   3.594
 4349W        W76020  44.424  29.682   3.345
 4350W        W76021  41.878  30.733   0.024
 4351W        W76022  39.908   5.946   4.506
 4352W        W76023  26.678  37.823   0.777
 4353W        W76024   8.353  43.731  12.095
 4354W        W76025  19.759  34.532   0.282
 4355W        W76026  30.386  29.674  12.138
 4356W        W76027  35.164  40.247  11.967
 4357W        W76028   1.969  28.888   3.723
 4358W        W76029   7.586  44.483   3.753
 4359W        W76030  23.728  44.256   3.654
 4360W        W76031  19.312  25.673  12.520
 4361W        W76032  40.748  33.362  10.678
 4362W        W76033  30.939  23.182   1.143
 4363W        W76034   0.456  11.162   4.102
 4364W        W76035  34.507   2.912  12.290
 4365W        W76036   2.669   5.448   4.158
 4366W        W76037  27.107   2.286  14.037
 4367W        W76038  16.700  23.562   2.251
 4368W        W76039  11.095  29.240  13.412
 4369W        W76040  17.648  32.271  10.980
 4370W        W76041  25.538  20.526  13.786
 4371W        W76042  39.192  21.812   0.007
 4372W        W76043   8.714  28.377   1.270
 4373W        W76044  23.215  29.860  13.597
 4374W        W76045  32.430   2.987  11.158
 4375W        W76046  27.209  16.744  14.310
 4376W        W76047  24.421   6.842   2.846
 4377W        W76048  24.757  11.034  12.795
 4378W        W76049  18.825  29.115  14.998
 4379W        W76050  12.308  14.645  10.680
 4380W        W76051  23.195  13.238   0.775
 4381W        W76052   3.947   4.933   0.484
 4382W        W76053   1.314  42.590   2.968
 4383W        W76054  13.599  17.154  12.548
 4384W        W76055  40.485  41.973  12.502
 4385W        W76056  36.033   9.318  12.589
 4386W        W76057   9.885  29.860   3.200
 4387W        W76058  25.638  10.345   2.673
 4388W        W76059  10.924   8.930  13.846
 4389W        W76060  44.733  43.513  10.664
 4390W        W76061  29.684   9.755  11.920
 4391W        W76062  31.440  38.783   3.354
 4392W        W76063  41.074   9.881  11.138
 4393W        W76064   7.582  42.541   4.354
 4394W        W76065   3.459  40.611   4.142
 4395W        W76066  12.671   5.384  13.246
 4396W        W76067  36.110  28.136   3.829
 4397W        W76068  35.487  38.944  11.368
 4398W        W76069  15.586  29.614  10.336
 4399W        W76070  44.942   0.479   4.181
 4400W        W76071  13.785  23.346   4.612
 4401W        W76072  34.013  22.999   4.072
 4402W        W76073  30.182  40.397   0.491
 4403W        W76074  33.115   2.820  14.936
 4404W        W76075  40.004  12.124  12.567
 4405W        W76076   0.232  36.133  14.422
 4406W        W76077  39.548  44.430   1.522
 4407W        W76078   4.832  44.272  13.782
 4408W        W76079   7.792  23.663   2.032
 4409W        W76080  28.217  26.491   3.160
 4410W        W76081   7.101  35.998   3.422
 4411W        W76082  34.483  32.446  11.078
 4412W        W76083   8.334  26.169  11.507
 4413W        W76084   0.338  34.563  14.843
 4414W        W76085  24.108  16.403   0.503
 4415W        W76086  24.113  14.660  10.329
 4416W        W76087  33.434  31.643   4.588
 4417W        W76088  21.880   2.627  10.778
 4418W        W76089  44.712   1.424   4.106
 4419W        W76090   4.925  36.753  13.545
 4420W        W76091  19.545  33.918  13.001
 4421W        W76092  29.052  16.210   3.099
 4422W        W76093  13.404  14.772  14.970
 4423W        W76094   9.068  38.267   1.197
 4424W        W76095  28.379  26.718   2.275
 4425W        W76096  15.340  41.972   2.961
 4426W        W76097  30.550  24.470   1.924
 4427W        W76098  16.211  35.233   1.170
 4428W        W76099  15.295   5.055  12.847
 4429W        W76100  40.688  18.986  13.421
 4430W        W76101  27.065  43.502  12.554
 4431W        W76102  13.126  38.545   0.432
 4432W        W76103  13.631   5.522  13.738
 4433W        W76104  29.493  32.610   3.871
 4434W        W76105  44.490   1.216   3.192
 4435W        W76106   0.943   4.481  13.943
 4436W        W76107  30.597   8.464  12.111
 4437W        W76108   6.168  12.828   3.305
 4438W        W76109  14.602  26.782   3.395
 4439W        W76110  37.541   8.301   0.935
 4440W        W76111  13.327  29.622   2.971
 4441W        W76112  20.283  41.022  13.098
 4442W        W76113  42.764  28.031   4.473
 4443W        W76114  27.996  37.774  12.414
 4444W        W76115  42.959  27.257  10.458
 4445W        W76116  34.022  34.412  11.529
 4446W        W76117   1.033   9.739   1.713
 4447W        W76118  20.061  13.224  10.939
 4448W        W76119  11.854  13.092   4.147
 4449W        W76120  41.735   9.173   2.909
 4450W        W76121  36.205  10.752  14.110
 4451W        W76122  23.913  29.714  12.892
 4452W        W76123  39.586   0.791   0.503
 4453W        W76124  21.691  24.438  12.865
 4454W        W76125   6.916   5.281  13.085
 4455W        W76126  30.890  44.290  12.479
 4456W        W76127   5.456   4.208   0.735
 4457W        W76128   4.973  35.069  11.567
 4458W        W76129  23.039  33.867  13.275
 4459W        W76130  41.288  30.566  10.797
 4460W        W76131  33.681  21.975   1.762
 4461W        W76132  39.553   2.953  14.387
 4462W        W76133  44.378  19.282  10.650
 4463W        W76134   8.627  26.777   3.695
 4464W        W76135  19.120  32.269   1.291
 4465W        W76136   7.985  15.475   3.669
 4466W        W76137  10.850  38.047   2.837
 4467W        W76138  34.974   5.429  12.571
 4468W        W76139  32.916   7.412  14.923
 4469W        W76140  10.686  39.300   0.563
 4470W        W76141  37.078  40.728  12.696
 4471W        W76142  25.636  13.546  10.924
 4472W        W76143   4.064  35.066   4.667
 4473W        W76144  10.698   4.944   3.841
 4474W        W76145  23.959  34.489   1.467
 4475W        W76146  23.156  42.830  14.871
 4476W        W76147  20.483  12.856  13.624
 4477W        W76148   6.839  30.371  11.594
 4478W        W76149  32.429  12.734   4.788
 4479W        W76150  23.116  20.065  11.314
 4480W        W76151   0.839  24.328   3.926
 4481W        W76152  28.187  35.991   4.666
 4482W        W76153   0.729   9.698  11.906
 4483W        W76154  27.979   4.295  13.298
 4484W        W76155   9.333  31.145  13.860
 4485W        W76156   6.679  31.700   2.250
 4486W        W76157  36.172  26.585  11.291
 4487W        W76158  13.624  36.154  14.960
 4488W        W76159  11.642  18.530  10.646
 4489W        W76160  38.057  33.305   1.712
 4490W        W76161  28.284  17.794  13.405
 4491W        W76162   4.879  35.337   0.344
 4492W        W76163  18.078  43.916   0.870
 4493W        W76164   6.842  11.890  13.991
 4494W        W76165  23.565   0.221  11.037
 4495W        W76166   8.266  22.259  12.766
 4496W        W76167  19.138  28.045  13.148
 4497W        W76168  33.847   8.999  12.058
 4498W        W76169  27.632  17.551  13.943
 4499W        W76170  28.021  10.624   4.659
 4500W        W76171  44.784  13.647  13.893
 4501W        W76172   4.916  36.060  13.067
 4502W        W76173  37.981  40.819  12.678
 4503W        W76174  38.119  16.977  14.730
 4504W        W76175   5.016  43.839  14.924
 4505W        W76176   8.322   6.402  12.984
 4506W        W76177  21.275  30.325  10.090
 4507W        W76178   2.972   6.277  14.690
 4508W        W76179  13.161   8.811  12.388
 4509W        W76180   6.540  16.261  12.550
 4510W        W76181  28.173  39.091   0.824
 4511W        W76182  24.086   8.117  12.976
 4512W        W76183  35.491   8.963   0.557
 4513W        W76184   8.397  17.048  11.471
 4514W        W76185   1.333   2.612   1.221
 4515W        W76186  12.874  37.237   1.717
 4516W        W76187   9.592   5.399  11.289
 4517W        W76188  15.598  15.278  13.986
 4518W        W76189   1.865  35.203   1.482
 4519W        W76190  29.093  13.808  11.599
 4520W        W76191   6.193  38.115   3.255
 4521W        W76192  30.512   2.299   3.617
 4522W        W76193  21.300  22.755  12.523
 4523W        W76194  10.586  14.866   3.766
 4524W        W76195   2.800  42.000  12.358
 4525W        W76196  21.325  41.973  14.782
 4526W        W76197  33.512  38.315   2.130
 4527W        W76198  15.043  35.912  10.902
 4528W        W76199  36.879   2.239  13.407
 4529W        W76200  31.537  32.157  13.961
 4530W        W76201  24.048  39.994  11.444
 4531W        W76202  39.274  35.873  10.901
 4532W        W76203  12.695  24.148  12.893
 4533W        W76204   4.904  41.500  13.481
 4534W        W76205  34.360  43.567   0.206
 4535W        W76206  37.475  31.036   2.446
 4536W        W76207  28.083  11.365   0.904
 4537W        W76208  41.108  19.270  11.188
 4538W        W76209  18.653   5.446   2.260
 4539W        W76210   3.900   3.203   2.346
 4540W        W76211  44.780   9.859   4.841
 4541W        W76212  18.825  39.678   0.230
 4542W        W76213  25.452  15.246   1.692
 4543W        W76214  22.775  43.400   3.789
 4544W        W76215   1.109  18.297   0.195
 4545W        W76216   5.393   4.304  11.337
 4546W        W76217  33.057  43.132   2.234
 4547W        W76218   8.946  33.351   0.443
 4548W        W76219   3.953  28.078   4.116
 4549W        W76220  10.760   8.404   0.371
 4550W        W76221  19.559  44.822  11.851
 4551W        W76222  36.390  29.866  14.326
 4552W        W76223  21.795   6.161   2.880
 4553W        W76224  11.695   2.835   0.843
 4554W        W76225  21.215  41.134  12.932
 4555W        W76226  11.867  44.408   0.781
 4556W        W76227  44.338  28.656  13.531
 4557W        W76228  23.498   0.070   2.355
 4558W        W76229  16.317   2.264   3.553
 4559W        W76230  16.931  27.809   4.068
 4560W        W76231  38.093  40.914  14.095
 4561W        W76232  44.079  25.751   0.913
 4562W        W76233   4.679  42.436   2.543
 4563W        W76234  20.268  17.234  10.702
 4564W        W76235  10.217  37.530  10.025
 4565W        W76236  27.876   9.385  13.795
 4566W        W76237   5.235   7.975  13.078
 4567W        W76238  14.585  42.396   2.643
 4568W        W76239  18.358   9.690   0.738
 4569W        W76240   2.318  20.645   3.551
 4570W        W76241  38.014  16.496  11.061
 4571W        W76242   5.574  40.341  13.268
 4572W        W76243  41.859  39.587   2.956
 4573W        W76244   5.765   1.226  12.033
 4574W        W76245  12.088  39.736   3.876
 4575W        W76246   4.988  40.933  14.256
 4576W        W76247  44.287  28.009   3.701
 4577W        W76248  14.718   4.420   4.990
 4578W        W76249   8.329  10.222   4.138
 4579W        W76250  24.821  40.248   1.344
 4580W        W76251   8.826  21.636  12.045
 4581W        W76252   9.914   2.941  12.903
 4582W        W76253  28.135  31.323   1.476
 4583W        W76254  29.459   8.122  12.953
 4584W        W76255  26.073  11.863  12.681
 4585W        W76256  20.637  14.008   4.669
 4586W        W76257  40.329  15.157  13.925
 4587W        W76258  23.159   3.673   0.333
 4588W        W76259  28.158  41.991   9.923
 4589W        W76260  36.478  21.502   2.277
 4590W        W76261  26.894  18.741   3.653
 4591W        W76262  10.608  27.205  12.929
 4592W        W76263  28.975  32.762   2.109
 4593W        W76264  19.641  38.111  14.357
 4594W        W76265  28.526  16.862   0.594
 4595W        W76266  32.986  13.680  10.815
 4596W        W76267  27.485  21.179  12.507
 4597W        W76268  28.669  37.440   2.162
 4598W        W76269   6.435  21.076   2.295
 4599W        W76270  21.036  20.550  11.250
 4600W        W76271   5.511  19.190  11.119
 4601W        W76272  27.943  16.704  13.553
 4602W        W76273  26.098   1.743   2.404
 4603W        W76274  23.460  32.533  11.682
 4604W        W76275  20.503  18.929   0.987
 4605W        W76276  20.022  36.371   1.008
 4606W        W76277  43.505  14.070   4.497
 4607W        W76278   3.311  20.831   2.994
 4608W        W76279  24.007  13.507  14.719
 4609W        W76280  17.515  35.951  11.407
 4610W        W76281  35.769  19.708   3.183
 4611W        W76282  19.846  44.962   1.593
 4612W        W76283  19.096   8.402   2.830
 4613W        W76284  26.777  12.302  14.410
 4614W        W76285  39.927  21.689   1.834
 4615W        W76286   1.347  38.595   3.665
 4616W        W76287  26.099  35.750   2.861
 4617W        W76288  38.923   4.419   1.744
 4618W        W76289  15.402  21.597  13.697
 4619W        W76290   6.755  26.586  13.612
 4620W        W76291  11.240   3.951   1.927
 4621W        W76292  28.707  11.160  12.089
 4622W        W76293  31.170  34.035   3.687
 4623W        W76294  44.340  31.347  11.542
 4624W        W76295   0.030  13.753   4.762
 4625W        W76296  12.266  28.506   4.017
 4626W        W76297  33.483  39.462  11.641
 4627W        W76298  11.319   3.311   4.214
 4628W        W76299  22.061  34.876  12.471
 4629W        W76300  13.360  24.993   2.810
 4630W        W76301  31.128  20.326   4.121
 4631W        W76302  23.959   5.552   2.776
 4632W        W76303  37.441  12.583  10.811
 4633W        W76304   1.501  33.783  13.171
 4634W        W76305  34.913  32.658   3.264
 4635W        W76306  14.386  29.562  13.051
 4636W        W76307  29.470  17.771   0.175
 4637W        W76308  30.151  30.975   1.958
 4638W        W76309   3.432   7.317   1.183
 4639W        W76310   9.813   4.113  13.536
 4640W        W76311   2.494   6.856   2.435
 4641W        W76312  36.990   1.053   2.933
 4642W        W76313   7.144  11.594   1.459
 4643W        W76314  12.829  41.929   1.172
 4644W        W76315  14.419   3.780   3.579
 4645W        W76316  16.351  39.773  14.058
 4646W        W76317  14.200   2.906  14.372
 4647W        W76318   1.143  16.741   4.138
 4648W        W76319  18.645   3.822  14.461
 4649W        W76320  22.219  17.717  13.362
 4650W        W76321  21.811  43.956   0.940
 4651W        W76322  34.046  19.133  12.169
 4652W        W76323  20.751  28.114  12.592
 4653W        W76324  31.635  41.467   2.426
 4654W        W76325   7.752  16.783   4.996
 4655W        W76326  39.530  40.303   1.317
 4656W        W76327   3.140  25.568   3.768
 4657W        W76328  21.582   3.374   4.385
 4658W        W76329  16.239  12.775   4.559
 4659W        W76330  29.572  34.222  13.315
 4660W        W76331  27.735   1.877  11.939
 4661W        W76332  22.250  17.210   2.828
 4662W        W76333  10.150  39.979  13.362
 4663W        W76334  27.536  30.090   1.411
 4664W        W76335   0.818  40.456   3.539
 4665W        W76336   2.570  11.161  10.717
 4666W        W76337  44.340   9.192   0.027
 4667W        W76338  33.806  36.311  13.954
 4668W        W76339  27.714  39.750   2.385
 4669W        W76340  12.822  14.883   1.385
 4670W        W76341  27.482  32.342   1.183
 4671W        W76342  15.744   7.187  12.464
 4672W        W76343  40.347  11.002  10.732
 4673W        W76344  13.674  20.251  12.517
 4674W        W76345   9.268  30.615  10.745
 4675W        W76346   0.430  43.286   0.395
 4676W        W76347  18.271  16.349   0.764
 4677W        W76348  24.933  28.052  14.505
 4678W        W76349  24.201  39.874   3.089
 4679W        W76350   7.415  10.224   3.112
 4680W        W76351  10.703  31.492  13.988
 4681W        W76352  24.563  27.912   1.275
 4682W        W76353   8.146  41.385   2.833
 4683W        W76354   7.428  24.276   2.021
 4684W        W76355  33.674   6.707   0.701
 4685W        W76356  13.652   9.072   1.864
 4686W        W76357  22.384  18.986  13.098
 4687W        W76358  42.327   2.528   0.338
 4688W        W76359  16.486  27.702   3.809
 4689W        W76360  30.891   8.431  12.951
 4690W        W76361   4.309  23.768   4.143
 4691W        W76362  15.770  27.975  13.848
 4692W        W76363  21.522  29.065  12.569
 4693W        W76364   1.940  15.196   3.775
 4694W        W76365  36.873  32.541  13.207
 4695W        W76366  16.128  27.383  14.409
 4696W        W76367  14.798  20.107   0.385
 4697W        W76368   2.242  14.115   1.331
 4698W        W76369  34.513  17.049  10.930
 4699W        W76370  34.408   5.751  14.233
 4700W        W76371   4.501  28.311   4.620
 4701W        W76372  15.060  32.112  13.149
 4702W        W76373  40.360  16.221   2.791
 4703W        W76374  38.973  40.212   0.558
 4704W        W76375  23.083  32.188   2.270
 4705W        W76376   1.183  16.643   1.919
 4706W        W76377   4.516  40.737  12.905
 4707W        W76378   6.675  36.116  12.539
 4708W        W76379  28.363  17.019  13.812
 4709W        W76380   2.829  25.545   3.161
 4710W        W76381  41.888  34.840  14.534
 4711W        W76382  11.202  14.268  11.077
 4712W        W76383  11.215  17.255  14.062
 4713W        W76384  37.078  34.448  10.644
 4714W        W76385  40.150   7.543  14.536
 4715W        W76386  23.112   8.291  11.574
 4716W        W76387   4.433  29.410   4.155
 4717W        W76388  39.271  13.643  13.458
 4718W        W76389   8.183  29.658   3.851
 4719W        W76390  40.694  17.314   0.472
 4720W        W76391  27.705  19.106  12.591
 4721W        W76392   8.451  24.945   3.189
 4722W        W76393   6.152  26.095  10.756
 4723W        W76394  16.118  38.567   2.061
 4724W        W76395  27.418  41.288   4.209
 4725W        W76396   8.778   0.965  12.879
 4726W        W76397   1.228  17.636   1.766
 4727W        W76398   7.256  21.262  13.429
 4728W        W76399   0.385  16.526   0.793
 4729W        W76400  32.204  11.332   2.814
 4730W        W76401  29.947  14.907  12.972
 4731W        W76402  14.558  32.139  13.042
 4732W        W76403  16.524  18.247   0.340
 4733W        W76404   5.282   1.459   3.677
 4734W        W76405  11.770  20.595  12.035
 4735W        W76406  15.255  11.874   1.318
 4736W        W76407  12.818  19.141   4.603
 4737W        W76408  38.154   6.266  12.600
 4738W        W76409  36.359  42.014   1.491
 4739W        W76410   8.861   6.576  11.564
 4740W        W76411  34.744  30.959   4.095
 4741W        W76412  12.599  22.812   1.532
 4742W        W76413  37.508   3.986   4.850
 4743W        W76414  32.110  23.727  12.413
 4744W        W76415  17.286   7.489  14.792
 4745W        W76416  21.524   5.171  10.976
 4746W        W76417  40.634   3.122  11.572
 4747W        W76418  20.124   7.457   2.793
 4748W        W76419  36.096   6.251  11.438
 4749W        W76420   0.439  40.828   0.330
 4750W        W76421  32.365   6.210  13.294
 4751W        W76422  35.526  20.059  12.839
 4752W        W76423  19.024  33.904  14.813
 4753W        W76424  12.781  38.034  10.711
 4754W        W76425  29.829   8.727  10.188
 4755W        W76426   8.934  10.623   3.694
 4756W        W76427  19.554   0.026   4.652
 4757W        W76428  43.437  30.846   1.304
 4758W        W76429   9.143  18.211  11.139
 4759W        W76430  18.774  12.287   1.829
 4760W        W76431  35.303  25.655  12.561
 4761W        W76432  39.655  14.080   4.450
 4762W        W76433   0.809  32.035   0.405
 4763W        W76434  29.471  23.810  11.436
 4764W        W76435  29.112  37.666   1.933
 4765W        W76436  38.586  28.556  13.591
 4766W        W76437  23.942  19.531   2.238
 4767W        W76438   5.973   9.138  14.023
 4768W        W76439   2.917  33.638   0.740
 4769W        W76440  17.037   0.157   4.120
 4770W        W76441  28.608   5.133   0.288
 4771W        W76442  36.610   2.200  11.475
 4772W        W76443  25.601  18.778   1.920
 4773W        W76444  34.513  12.736  13.595
 4774W        W76445  22.226   1.807   4.862
 4775W        W76446   4.415   9.690   5.046
 4776W        W76447  36.431  25.502   2.458
 4777W        W76448   3.290  18.451  14.552
 4778W        W76449  39.126   0.815  11.112
 4779W        W76450   6.481  15.270   1.360
 4780W        W76451  23.207  43.013   3.660
 4781W        W76452   0.786   8.636  12.014
 4782W        W76453  15.533  18.626  12.084
 4783W        W76454  43.678  22.490   2.217
 4784W        W76455  41.127  18.661   4.125
 4785W        W76456  33.894  37.605   0.920
 4786W        W76457  28.708   9.401   4.943
 4787W        W76458  19.362  15.147  11.617
 4788W        W76459   6.876  12.297   2.340
 4789W        W76460  23.064  37.417  14.291
 4790W        W76461   8.344  33.185   4.594
 4791W        W76462  23.402   5.505   0.405
 4792W        W76463  16.669  43.055   1.790
 4793W        W76464  28.305  29.395   4.618
 4794W        W76465   3.496  36.874  12.469
 4795W        W76466  33.977  18.535   4.575
 4796W        W76467  32.600  13.066   0.400
 4797W        W76468  20.262   7.788   4.641
 4798W        W76469  36.324  32.149   0.496
 4799W        W76470  24.577  18.279  14.278
 4800W        W76471  27.008  41.634   1.709
 4801W        W76472  26.587  27.987   3.143
 4802W        W76473  34.961  20.625  13.520
 4803W        W76474  31.359   7.543  13.394
 4804W        W76475  11.928  39.156  13.371
 4805W        W76476  43.317  33.367   0.332
 4806W        W76477  26.161   3.035   2.743
 4807W        W76478  36.550  41.092   2.763
 4808W        W76479  31.425  26.492  11.588
 4809W        W76480  30.160  16.277  10.735
 4810W        W76481  10.931  31.539  14.452
 4811W        W76482  18.054  26.947   3.584
 4812W        W76483  29.640  23.777  10.583
 4813W        W76484  19.599   7.870  11.673
 4814W        W76485  44.928  14.078  10.457
 4815W        W76486  20.843  39.578  11.323
 4816W        W76487  24.611  39.589   4.347
 4817W        W76488  27.405   3.207   0.910
 4818W        W76489  22.105  26.981   4.053
 4819W        W76490  13.720   6.453   1.381
 4820W        W76491  12.389  12.714  11.140
 4821W        W76492  38.441  32.209  12.627
 4822W        W76493  28.410  44.350  13.278
 4823W        W76494  18.443  30.079  13.717
 4824W        W76495  37.363  41.342  10.780
 4825W        W76496   3.497   2.238   3.429
 4826W        W76497   7.826  16.829   0.011
 4827W        W76498  23.032   9.928   4.268
 4828W        W76499  20.372  13.059   4.993
 4829W        W76500  31.736   8.876  14.207
 4830W        W76501  12.446  12.708   4.600
 4831W        W76502  26.130  10.356   4.011
 4832W        W76503  30.912   4.941   2.815
 4833W        W76504  10.839  11.876  12.355
 4834W        W76505   8.584  16.580  11.599
 4835W        W76506   9.210  24.201   3.708
 4836W        W76507  16.688  27.513  11.859
 4837W        W76508  23.546  34.832   0.738
 4838W        W76509  34.365  13.611  11.477
 4839W        W76510  38.388   6.194  12.081
 4840W        W76511  44.034  40.304  13.068
 4841W        W76512  22.681   3.421   4.539
 4842W        W76513   0.010   6.068   3.276
 4843W        W76514  29.406  10.180  12.043
 4844W        W76515  16.897  10.985   3.854
 4845W        W76516  37.618  41.879   1.436
 4846W        W76517  15.754  36.244   0.807
 4847W        W76518   0.014   0.925  10.715
 4848W        W76519   8.138   1.242  13.945
 4849W        W76520  17.273   1.979  12.006
 4850W        W76521   0.864  38.834  10.224
 4851W        W76522  19.739  35.036   4.906
 4852W        W76523   4.028  33.159   4.816
 4853W        W76524  25.213  21.335  13.871
 4854W        W76525   4.197  32.628   2.857
 4855W        W76526  24.575  38.437  11.108
 4856W        W76527  16.150  17.294   4.292
 4857W        W76528  20.465   9.345   0.278
 4858W        W76529   5.690  11.196   1.289
 4859W        W76530   1.947  36.992   4.198
 4860W        W76531  22.901  12.245   4.276
 4861W        W76532   7.163  23.619   0.225
 4862W        W76533  25.746  12.231   1.930
 4863W        W76534  16.828  13.281  13.415
 4864W        W76535  28.827  33.810   4.250
 4865W        W76536  23.101  35.311  12.105
 4866W        W76537  15.097  21.816  13.355
 4867W        W76538  14.138  12.666  10.447
 4868W        W76539  34.901  36.964   4.953
 4869W        W76540  21.746  32.563  13.824
 4870W        W76541  15.352  12.749   3.822
 4871W        W76542  21.273   8.935   0.590
 4872W        W76543  38.865  36.296  14.287
 4873W        W76544  42.390   0.023   4.744
 4874W        W76545  18.509  12.351   1.312
 4875W        W76546   6.370   1.696   5.124
 4876W        W76547  29.437   2.891   1.810
 4877W        W76548   0.584  17.545  14.729
 4878W        W76549  22.314  44.882   0.818
 4879W        W76550   6.146  12.206  14.026
 4880W        W76551  20.220  28.029  14.490
 4881W        W76552  36.392   3.578  11.228
 4882W        W76553  28.653  23.872   1.012
 4883W        W76554  39.510  18.299   4.183
 4884W        W76555  32.223  29.975   4.221
 4885W        W76556   7.828  16.838  11.194
 4886W        W76557  39.494  18.375   1.932
 4887W        W76558  20.512  40.912   1.826
 4888W        W76559   6.462  36.966   1.259
 4889W        W76560  42.276  19.590  11.251
 4890W        W76561   0.391  29.075   2.416
 4891W        W76562  36.055  11.332   4.435
 4892W        W76563  40.747  24.777  11.185
 4893W        W76564  13.234   5.899  12.970
 4894W        W76565   6.809  22.378   0.486
 4895W        W76566  17.281  31.854   2.142
 4896W        W76567  30.833  34.699   3.375
 4897W        W76568  36.046  11.848  12.515
 4898W        W76569   6.543  28.572  10.618
 4899W        W76570  39.567  20.993  12.073
 4900W        W76571   4.623  26.092   0.283
 4901W        W76572  20.707   0.364   1.562
 4902W        W76573  16.627  26.625  11.790
 4903W        W76574  13.335   8.777  14.955
 4904W        W76575  10.370   9.603  12.526
 4905W        W76576  39.449  41.121  12.614
 4906W        W76577  22.393  39.527  13.846
 4907W        W76578  44.870  23.703   0.417
 4908W        W76579  27.942   2.209  14.421
 4909W        W76580  12.199  33.939  11.547
 4910W        W76581  44.236  33.840   2.231
 4911W        W76582   3.658  31.428  13.356
 4912W        W76583  10.362  13.551  14.917
 4913W        W76584  22.225  44.767   3.126
 4914W        W76585  28.144  37.581   0.152
 4915W        W76586  34.979  22.973  14.524
 4916W        W76587   3.808  17.377  13.443
 4917W        W76588  24.476  15.122  13.021
 4918W        W76589  16.341  12.209  13.018
 4919W        W76590  20.750  24.489  11.575
 4920W        W76591   0.793  18.620   3.589
 4921W        W76592  25.143  13.835   2.882
 4922W        W76593   6.922  41.722   2.818
 4923W        W76594   2.748  14.673   2.812
 4924W        W76595  43.887  24.122   3.292
 4925W        W76596  38.365   2.280   2.067
 4926W        W76597  24.689  15.684  11.453
 4927W        W76598  37.878  22.093   4.553
 4928W        W76599  41.202   0.744   4.195
 4929W        W76600  24.012   6.757  10.612
 4930W        W76601  43.913   0.695  12.426
 4931W        W76602  37.556  29.362   0.299
 4932W        W76603  15.892  18.973   2.475
 4933W        W76604  22.196  34.698   0.640
 4934W        W76605  34.305  12.269   3.706
 4935W        W76606  36.852   1.439   3.792
 4936W        W76607  25.715  19.448  13.490
 4937W        W76608  27.126  11.436   3.738
 4938W        W76609  17.737  41.349   4.680
 4939W        W76610  26.051   3.396  14.258
 4940W        W76611   2.459  20.944   0.354
 4941W        W76612  17.783  13.692   0.873
 4942W        W76613  44.000  34.858   2.767
 4943W        W76614  20.199   4.375   1.376
 4944W        W76615  29.513   4.682   0.396
 4945W        W76616  20.530  14.159  10.675
 4946W        W76617  11.890  23.559   1.877
 4947W        W76618  28.700  18.704  11.977
 4948W        W76619  33.562   6.447   1.228
 4949W        W76620  36.108  35.842  13.443
 4950W        W76621  28.553   6.955  11.518
 4951W        W76622  30.160   6.304   0.820
 4952W        W76623  20.860  14.578   0.853
 4953W        W76624   9.702  14.071   4.223
 4954W        W76625   3.264  36.376   2.327
 4955W        W76626   3.431   1.987  14.494
 4956W        W76627  33.534  26.586   2.821
 4957W        W76628  40.959  41.414  13.621
 4958W        W76629  37.967  22.592  11.427
 4959W        W76630   5.291   7.021   1.779
 4960W        W76631  40.421  38.383  13.977
 4961W        W76632  33.274  13.730   1.999
 4962W        W76633  22.214  22.088   0.875
 4963W        W76634   5.714  43.820   3.355
 4964W        W76635  21.190   1.297  12.916
 4965W        W76636  32.675  30.521   4.549
 4966W        W76637   8.115  44.320   3.718
 4967W        W76638  29.098  14.699  14.575
 4968W        W76639   6.622   2.712  10.712
 4969W        W76640  40.596  27.050   3.321
 4970W        W76641  44.438  15.861  10.535
 4971W        W76642  33.632  11.345   2.174
 4972W        W76643  36.198  37.894  14.905
 4973W        W76644   6.135  20.107  11.081
 4974W        W76645  14.091  34.007  10.657
 4975W        W76646  16.463  21.134   4.170
 4976W        W76647  34.936   9.394  12.533
 4977W        W76648  30.515  12.611  14.392
 4978W        W76649  33.139  31.070   1.406
 4979W        W76650  17.292  26.594   4.549
 4980W        W76651  30.218  18.759   0.097
 4981W        W76652  14.174  17.073  14.341
 4982W        W76653   7.752  44.338  12.103
 4983W        W76654  40.063  16.787   4.886
 4984W        W76655  41.337  17.279  13.319
 4985W        W76656   2.502  35.383   1.010
 4986W        W76657  17.396   0.820  11.858
 4987W        W76658  17.752  40.977  13.876
 4988W        W76659  12.510  39.447  13.070
 4989W        W76660  30.018  38.086   1.448
 4990W        W76661   5.719   2.256   1.414
 4991W        W76662   4.965  34.061   2.936
 4992W        W76663  22.141  38.098  14.814
 4993W        W76664  18.486  16.765  12.014
 4994W        W76665  12.359  15.563   2.082
 4995W        W76666  28.169  10.107   4.977
 4996W        W76667   6.756  32.540  13.959
 4997W        W76668  38.448  36.299  14.981
 4998W        W76669  28.023  25.686  14.053
 4999W        W76670  40.752   4.673  10.815
 5000W        W76671  39.236  30.316   3.024
 5001W        W76672  25.098  44.754   3.292
 5002W        W76673  22.298  42.605   3.510
 5003W        W76674   1.640  27.220  13.881
 5004W        W76675   9.854  33.720   2.838
 5005W        W76676   0.752  43.344  12.191
 5006W        W76677  18.876  36.432  13.505
 5007W        W76678  32.168  34.113   3.971
 5008W        W76679  30.839  43.313   4.099
 5009W        W76680  28.424   9.672  13.387
 5010W        W76681  22.634  15.274  12.984
 5011W        W76682  43.302  29.895   3.693
 5012W        W76683  30.491   9.240   4.478
 5013W        W76684  31.225  19.033   0.933
 5014W        W76685  40.390   9.195  12.342
 5015W        W76686   9.765  43.223   2.281
 5016W        W76687  31.305  15.625  13.472
 5017W        W76688  35.591   1.436  12.923
 5018W        W76689  40.341   5.250  14.985
 5019W        W76690  32.558  16.757   4.066
 5020W        W76691  24.414  14.143  11.004
 5021W        W76692  31.216  27.047  13.399
 5022W        W76693  24.152  41.992   0.807
 5023W        W76694  21.377  18.076  13.315
 5024W        W76695  27.763  23.735   0.793
 5025W        W76696  20.828  11.549  13.791
 5026W        W76697  40.227  23.729  11.991
 5027W        W76698   0.655  24.480   2.118
 5028W        W76699  16.226  31.583   2.303
 5029W        W76700  12.432   8.458   1.647
 5030W        W76701  28.103  23.133  13.776
 5031W        W76702  28.484  22.490   4.213
 5032W        W76703  42.076   9.805  12.393
 5033W        W76704   1.150  20.908   3.208
 5034W        W76705  20.300   5.303  10.631
 5035W        W76706  26.480  24.932  13.971
 5036W        W76707  42.404  17.507  12.722
 5037W        W76708   7.238  34.432   1.476
 5038W        W76709   2.632  27.091  11.773
 5039W        W76710  13.526   8.432  12.421
 5040W        W76711  15.482  25.248  10.993
 5041W        W76712  32.459  40.822  11.591
 5042W        W76713  16.351  36.925   4.207
 5043W        W76714  22.290  38.324  14.355
 5044W        W76715  41.905  33.433  11.629
 5045W        W76716  33.054  32.404   1.835
 5046W        W76717  40.860   1.489  12.243
 5047W        W76718   0.958  11.736   3.682
 5048W        W76719  13.691  10.105   1.090
 5049W        W76720  37.477  11.494  12.454
 5050W        W76721   7.160   9.040   1.408
 5051W        W76722  13.614  15.187   3.342
 5052W        W76723  20.947  24.612   0.487
 5053W        W76724  18.664  24.442  12.746
 5054W        W76725  44.760  13.591   0.003
 5055W        W76726  12.595  10.738   2.678
 5056W        W76727  33.553  41.960   4.080
 5057W        W76728  27.111  13.116  14.864
 5058W        W76729  11.121  22.447  12.007
 5059W        W76730  41.284  22.433  10.757
 5060W        W76731  14.010   3.812   3.912
 5061W        W76732  15.198  23.704  11.938
 5062W        W76733  38.229  21.699   2.020
 5063W        W76734   3.924  19.222   0.426
 5064W        W76735  23.206  35.907  14.352
 5065W        W76736  29.746  28.958  11.656
 5066W        W76737  12.221   8.775   1.288
 5067W        W76738  12.209  20.230  14.784
 5068W        W76739  43.791  35.554  14.994
 5069W        W76740  29.102  25.973   3.630
 5070W        W76741  33.837  35.868   1.826
 5071W        W76742  15.227  30.171  13.645
 5072W        W76743  40.795  34.590  14.048
 5073W        W76744  17.172  13.845  14.717
 5074W        W76745   5.461  12.609   2.779
 5075W        W76746  20.194  10.572   4.194
 5076W        W76747  39.854  16.159   0.838
 5077W        W76748  34.933  13.074   0.717
 5078W        W76749   1.627  12.885  11.118
 5079W        W76750  40.446  18.046  13.111
 5080W        W76751   2.390  26.174  12.154
 5081W        W76752  18.290  44.015  14.034
 5082W        W76753  13.709  43.399   0.505
 5083W        W76754  28.211  28.489   1.251
 5084W        W76755  36.860  19.678   1.911
 5085W        W76756  18.110  21.607  14.250
 5086W        W76757  23.166  36.307  12.065
 5087W        W76758  17.338  19.486   3.281
 5088W        W76759  12.982  30.764   0.421
 5089W        W76760   8.880   4.201   1.893
 5090W        W76761  39.103   5.535   4.787
 5091W        W76762   7.849  36.069  11.115
 5092W        W76763  44.093  15.780   4.973
 5093W        W76764  44.252  26.060  14.030
 5094W        W76765  22.649  13.853  11.200
 5095W        W76766  21.477  11.341  12.448
 5096W        W76767  44.947  40.911   1.276
 5097W        W76768  13.482  44.843  10.980
 5098W        W76769  39.592  30.155   0.285
 5099W        W76770   5.839   0.894   3.229
 5100W        W76771  28.411  35.700  10.719
 5101W        W76772  26.249   8.054   1.737
 5102W        W76773  21.614  20.858  12.382
 5103W        W76774  40.401  18.318   0.349
 5104W        W76775  40.994  12.167   4.292
 5105W        W76776  36.877  23.465  14.944
 5106W        W76777  18.200  24.620   5.182
 5107W        W76778   9.834  25.387   4.527
 5108W        W76779   1.087  44.977   1.422
 5109W        W76780  16.570   8.295  10.621
 5110W        W76781  44.396  34.589  10.195
 5111W        W76782   1.422  40.006   3.742
 5112W        W76783  37.951  18.320  11.506
 5113W        W76784  39.750  26.721  14.072
 5114W        W76785  27.535  31.390  13.591
 5115W        W76786   8.851  22.051  14.955
 5116W        W76787  18.504  39.520  11.462
 5117W        W76788  44.885  28.128  11.501
 5118W        W76789  40.650  38.944  13.119
 5119W        W76790  23.270  20.828   2.333
 5120W        W76791  32.551   0.593   4.627
 5121W        W76792  42.218  28.260   2.733
 5122W        W76793   9.287  15.740  12.457
 5123W        W76794   3.262  24.563   5.025
 5124W        W76795  15.467   7.642  12.419
 5125W        W76796  10.591   1.205  11.885
 5126W        W76797  14.257  20.706   1.949
 5127W        W76798  14.836  17.272  13.338
 5128W        W76799  27.261  35.907  14.549
 5129W        W76800  30.199  12.705  14.773
 5130W        W76801  22.182  15.538  12.924
 5131W        W76802  23.147  17.181  11.862
 5132W        W76803  19.711  31.380   3.366
 5133W        W76804  30.353  32.421  11.153
 5134W        W76805   9.556   6.769   3.251
 5135W        W76806   7.820  31.755  13.433
 5136W        W76807  22.284  25.684  12.131
 5137W        W76808  41.392   8.309  12.546
 5138W        W76809  38.987  35.272   3.905
 5139W        W76810  12.236  26.161   3.153
 5140W        W76811  23.914  42.874  13.976
 5141W        W76812  24.433  23.210   0.813
 5142W        W76813  35.052   0.868   1.026
 5143W        W76814  38.711  27.874   1.328
 5144W        W76815  18.713  34.726  14.365
 5145W        W76816  42.027   9.313  11.583
 5146W        W76817  43.994  28.262   3.182
 5147W        W76818  21.014   9.208  13.800
 5148W        W76819  23.349   9.594   4.494
 5149W        W76820  21.449  38.515   0.972
 5150W        W76821  14.584  15.167   3.983
 5151W        W76822  27.604   4.763   0.832
 5152W        W76823  15.613  40.815   4.050
 5153W        W76824  24.149  39.471   2.784
 5154W        W76825  21.777   9.468   2.530
 5155W        W76826  22.766  32.026   1.914
 5156W        W76827  16.164  16.328   0.363
 5157W        W76828   4.867  22.577   4.161
 5158W        W76829  34.003  39.035   2.383
 5159W        W76830  32.555  40.238   3.335
 5160W        W76831  29.098   0.431   3.207
 5161W        W76832   3.568  17.801  11.494
 5162W        W76833  32.867   8.732  11.216
 5163W        W76834  41.735  16.115   3.313
 5164W        W76835  19.239  15.204   1.416
 5165W        W76836  20.148  30.404   1.246
 5166W        W76837  44.884  19.973   2.855
 5167W        W76838  35.715  20.588  12.441
 5168W        W76839  34.874  19.060  11.535
 5169W        W76840  10.291  23.130   2.983
 5170W        W76841  18.981   4.652  10.408
 5171W        W76842  12.380   7.113  13.201
 5172W        W76843   0.634   1.550   0.692
 5173W        W76844  33.924  11.375  11.189
 5174W        W76845  33.515  31.105  14.091
 5175W        W76846   5.727  16.369  14.303
 5176W        W76847  41.771  28.933  11.982
 5177W        W76848  41.765   3.226   3.076
 5178W        W76849  39.765   2.879   4.131
 5179W        W76850  12.634  11.888   0.444
 5180W        W76851  14.753  38.482   4.747
 5181W        W76852  12.266  44.278   1.707
 5182W        W76853  19.074   2.414  14.586
 5183W        W76854  34.879  38.586   9.696
 5184W        W76855  21.639  15.503   1.677
 5185W        W76856  40.514  16.829   0.727
 5186W        W76857  28.109  27.012   4.240
 5187W        W76858   3.272  21.545   1.935
 5188W        W76859  24.602  41.602   0.234
 5189W        W76860  11.081  33.645  12.985
 5190W        W76861  14.703  26.206  14.492
 5191W        W76862  18.660  12.560  12.425
 5192W        W76863  15.671  19.722  14.443
 5193W        W76864   9.884  39.963   4.140
 5194W        W76865  41.735  38.466  12.125
 5195W        W76866  10.855  31.950  12.295
 5196W        W76867  31.536  10.594  10.953
 5197W        W76868  39.639  15.874  14.244
 5198W        W76869  11.130   0.482  12.991
 5199W        W76870   8.841   8.910   1.061
 5200W        W76871  12.940  22.445   2.946
 5201W        W76872  33.938  33.547   0.275
 5202W        W76873  30.086  26.080  12.121
 5203W        W76874   6.323  32.710  10.673
 5204W        W76875  22.589  16.534   1.409
 5205W        W76876   5.052   3.670  13.519
 5206W        W76877  38.884  29.962   3.746
 5207W        W76878   2.155  21.056   3.206
 5208W        W76879  15.772  24.019   1.334
 5209W        W76880  14.285  13.703  11.711
 5210W        W76881   7.943  24.933  14.023
 5211W        W76882  33.562  36.308   4.190
 5212W        W76883  26.913  35.760   1.364
 5213W        W76884   3.839  17.832   3.634
 5214W        W76885  42.572  43.351  13.147
 5215W        W76886  27.705  31.615   2.425
 5216W        W76887  12.225  32.530   4.878
 5217W        W76888  19.622  22.852  12.988
 5218W        W76889  44.046  13.292   9.927
 5219W        W76890   9.675  21.311  13.551
 5220W        W76891  10.709  38.583  14.019
 5221W        W76892  20.954   4.988  14.790
 5222W        W76893   6.237  33.655  12.477
 5223W        W76894  10.287   7.144  12.260
 5224W        W76895  26.125   3.296   2.275
 5225W        W76896   0.830  12.185  11.116
 5226W        W76897  16.191  10.209   3.832
 5227W        W76898  33.085  19.160   3.657
 5228W        W76899  29.692  40.549  11.932
 5229W        W76900  35.955  14.820   2.343
 5230W        W76901  44.248   1.173  12.441
 5231W        W76902  16.191   7.202   3.357
 5232W        W76903   3.834   2.088   5.398
 5233W        W76904  40.065  21.789   2.681
 5234W        W76905   3.995   7.787   2.789
 5235W        W76906  29.884   5.453  10.874
 5236W        W76907  13.391  34.909   1.681
 5237W        W76908  21.733  18.802  12.230
 5238W        W76909  25.780  32.055  10.324
 5239W        W76910  19.516   4.262  11.053
 5240W        W76911  14.168  35.873  11.961
 5241W        W76912  33.298  35.357   0.677
 5242W        W76913  34.548  19.987   0.306
 5243W        W76914  13.896  11.103  13.829
 5244W        W76915  38.773   3.873  12.876
 5245W        W76916   2.340  39.380   1.867
 5246W        W76917  10.111  31.074  11.550
 5247W        W76918  42.616  35.534   2.024
 5248W        W76919  39.765   8.308   2.228
 5249W        W76920  17.764  41.525   0.611
 5250W        W76921  33.994  32.598  11.040
 5251W        W76922  16.708  41.948   1.929
 5252W        W76923  34.913  10.674   3.721
 5253W        W76924  40.021  17.949   0.432
 5254W        W76925  35.345  17.128  10.533
 5255W        W76926   6.100   3.756   4.671
 5256W        W76927  15.807  36.583  13.005
 5257W        W76928  30.230   4.719  14.923
 5258W        W76929  44.619  12.894  12.897
 5259W        W76930  12.944  43.760   4.068
 5260W        W76931  10.005   9.256   4.118
 5261W        W76932  31.145   2.892   1.217
 5262W        W76933  25.279  41.399   3.284
 5263W        W76934  27.830   0.671  11.118
 5264W        W76935   6.180  36.320  11.503
 5265W        W76936   5.964  12.775  12.971
 5266W        W76937  11.920  18.594  13.537
 5267W        W76938  31.493  43.712  11.585
 5268W        W76939   1.893  23.656   1.447
 5269W        W76940  22.249  39.530   3.694
 5270W        W76941   6.311   6.383  12.977
 5271W        W76942  28.058   6.917  13.593
 5272W        W76943  14.586  28.685  14.437
 5273W        W76944  21.940  44.959  11.428
 5274W        W76945  30.894   7.201  12.586
 5275W        W76946  20.426  21.956  13.495
 5276W        W76947  18.006  44.503  12.449
 5277W        W76948   0.062  37.948   0.536
 5278W        W76949   2.356  31.100   4.580
 5279W        W76950  20.261   9.686  13.776
 5280W        W76951   5.663  37.917   2.304
 5281W        W76952  29.630  28.372   0.428
 5282W        W76953  15.177  42.431  12.096
 5283W        W76954  28.974  29.184   2.807
 5284W        W76955  18.620  11.899   4.728
 5285W        W76956  20.628   1.925  12.521
 5286W        W76957  37.482  44.585   3.139
 5287W        W76958  14.521  27.486  13.532
 5288W        W76959  39.993  28.450   3.575
 5289W        W76960  38.327  25.151   1.794
 5290W        W76961  22.760   0.713  12.068
 5291W        W76962  44.690  14.990   3.720
 5292W        W76963   0.491  14.904   4.171
 5293W        W76964  23.950  33.428  13.993
 5294W        W76965  26.033  27.155   2.707
 5295W        W76966  44.893  22.066   4.314
 5296W        W76967   1.733   5.472  13.356
 5297W        W76968  42.249  10.338   2.690
 5298W        W76969  29.455  24.520   0.787
 5299W        W76970   8.362   4.234   1.852
 5300W        W76971   9.923  41.755   0.811
 5301W        W76972   2.853  27.549  12.537
 5302W        W76973  28.588  18.253   1.350
 5303W        W76974   1.205  43.446  14.977
 5304W        W76975  11.177   6.778   1.097
 5305W        W76976  42.032  36.398  11.974
 5306W        W76977  35.683  33.468  10.976
 5307W        W76978  26.640  20.933  11.041
 5308W        W76979  18.512  29.667  11.104
 5309W        W76980  27.757  28.410   1.019
 5310W        W76981   8.067  12.516   3.095
 5311W        W76982  11.727  37.706  10.655
 5312W        W76983  21.558  27.911  10.977
 5313W        W76984  14.295  18.299  14.057
 5314W        W76985  17.743  21.291  11.707
 5315W        W76986  43.630  19.870   0.495
 5316W        W76987   2.322  32.062  10.589
 5317W        W76988  17.910  30.504   4.143
 5318W        W76989  27.692  14.197  10.815
 5319W        W76990  42.442  14.852  11.032
 5320W        W76991  27.738  44.871  13.520
 5321W        W76992  28.526  30.544   4.544
 5322W        W76993  13.794  13.907   2.296
 5323W        W76994  28.290  31.470   3.990
 5324W        W76995  12.057  31.556  11.560
 5325W        W76996  41.296  27.475   2.569
 5326W        W76997  11.874  38.110   1.391
 5327W        W76998   6.488   8.211   0.471
 5328W        W76999  44.770   9.802   2.358
 5329W        W77000  43.048  21.800  11.165
 5330W        W77001  13.586   3.470  14.004
 5331W        W77002  41.450  19.520   3.967
 5332W        W77003  33.395   5.180   2.832
 5333W        W77004  22.600  23.768  11.032
 5334W        W77005  37.076  22.710  11.564
 5335W        W77006   4.459   5.499  12.489
 5336W        W77007  34.299   8.483  11.243
 5337W        W77008  44.785  41.105   4.552
 5338W        W77009  16.072  40.903  13.401
 5339W        W77010   8.307  25.427   2.210
 5340W        W77011  39.240  26.362   4.115
 5341W        W77012  28.140  34.108  14.498
 5342W        W77013  36.773  21.557   0.296
 5343W        W77014   9.538   7.831   3.613
 5344W        W77015  28.006  13.313   3.364
 5345W        W77016  42.374  30.955   0.791
 5346W        W77017  43.738  22.752   1.780
 5347W        W77018  27.505  32.849  14.373
 5348W        W77019  25.127  14.589   3.630
 5349W        W77020   7.542  38.503  10.916
 5350W        W77021  14.002   7.632   4.185
 5351W        W77022   9.334  36.943   1.332
 5352W        W77023  20.594  20.768   2.245
 5353W        W77024  20.136   1.875   4.094
 5354W        W77025  14.399  36.458   1.030
 5355W        W77026  22.594  31.600   1.656
 5356W        W77027  44.769  41.147  10.582
 5357W        W77028  23.443  18.701   3.118
 5358W        W77029  26.102  15.637   2.169
 5359W        W77030   1.853  44.961   2.913
 5360W        W77031   6.971   3.576  12.718
 5361W        W77032  20.052   6.728   3.192
 5362W        W77033   5.513  43.367   4.209
 5363W        W77034  33.545  14.882  13.451
 5364W        W77035   6.320  17.189  12.659
 5365W        W77036   7.619  24.949   1.179
 5366W        W77037  21.999  23.554   3.193
 5367W        W77038  25.242  23.743   3.208
 5368W        W77039  20.162  34.629   3.002
 5369W        W77040  41.988   6.324   0.837
 5370W        W77041   4.166  34.147  11.879
 5371W        W77042   7.775  43.024  12.991
 5372W        W77043  20.805   4.356  11.685
 5373W        W77044  33.351   7.076   9.893
 5374W        W77045   1.789  19.351   4.544
 5375W        W77046  20.597  35.850  10.512
 5376W        W77047  19.255  27.635   2.612
 5377W        W77048   4.876  43.961   1.194
 5378W        W77049  12.685  35.253   4.525
 5379W        W77050   2.565  36.330   0.644
 5380W        W77051  16.534   3.949   4.191
 5381W        W77052  38.089  25.864  13.891
 5382W        W77053   8.328  36.756   4.652
 5383W        W77054  35.445  43.826   1.396
 5384W        W77055  35.497  35.417  10.422
 5385W        W77056  23.425  28.956  13.418
 5386W        W77057  19.116   3.180  11.531
 5387W        W77058  31.639   0.743   2.073
 5388W        W77059   6.602  21.767   1.768
 5389W        W77060  44.312  28.163  13.588
 5390W        W77061  30.044  27.962   3.304
 5391W        W77062   8.671  19.328  12.422
 5392W        W77063  11.704  35.292  11.111
 5393W        W77064   8.022  31.848  12.938
 5394W        W77065  17.690   3.356   3.866
 5395W        W77066  13.108  42.753  14.339
 5396W        W77067  44.351  23.651   3.032
 5397W        W77068  41.371   2.924  12.005
 5398W        W77069  29.034  42.022  14.984
 5399W        W77070  28.987  40.603  14.802
 5400W        W77071  19.618  39.011   3.227
 5401W        W77072  38.366  31.571   0.003
 5402W        W77073   5.459  30.473  11.607
 5403W        W77074  25.380   5.357  11.635
 5404W        W77075   4.877  37.981   1.932
 5405W        W77076  34.368  24.967  12.020
 5406W        W77077  14.525  14.153  12.033
 5407W        W77078  44.474   3.858   1.075
 5408W        W77079  16.209  20.690   3.212
 5409W        W77080  41.917  20.089   2.961
 5410W        W77081  13.731  17.756  14.038
 5411W        W77082  25.148   0.553  13.618
 5412W        W77083  11.823   5.028  10.822
 5413W        W77084   4.753   8.013  10.697
 5414W        W77085  41.048  32.479   1.366
 5415W        W77086   6.968  19.036   1.470
 5416W        W77087  10.699  31.768  11.534
 5417W        W77088  23.569  25.729  14.527
 5418W        W77089  44.486  20.146  14.976
 5419W        W77090  28.208   7.761   4.488
 5420W        W77091  22.575  36.021   3.158
 5421W        W77092  32.625  14.601  12.645
 5422W        W77093  40.888   4.543   4.531
 5423W        W77094  38.478   4.437   3.350
 5424W        W77095  42.356  15.543   2.310
 5425W        W77096   4.485  22.088  12.857
 5426W        W77097  22.760  37.046  13.877
 5427W        W77098  13.848  25.867  12.143
 5428W        W77099  44.313  19.227   4.197
 5429W        W77100  23.431  31.596  11.537
 5430W        W77101   8.219   7.885   0.881
 5431W        W77102  23.888   7.666   3.789
 5432W        W77103   8.315  41.068   4.661
 5433W        W77104  25.482  10.275  14.834
 5434W        W77105   8.418  18.869  13.080
 5435W        W77106  22.625  35.425   2.348
 5436W        W77107  10.514   1.094  14.047
 5437W        W77108  19.345  12.456   0.897
 5438W        W77109  16.287   8.820  11.608
 5439W        W77110  13.468  44.223   2.348
 5440W        W77111  21.546  36.250  13.801
 5441W        W77112  29.682  43.875   4.872
 5442W        W77113  25.609  33.413   3.686
 5443W        W77114  27.573  13.195  10.487
 5444W        W77115  15.839  27.945   4.682
 5445W        W77116  18.713  19.304  14.403
 5446W        W77117   2.199  17.116  13.439
 5447W        W77118  22.690  15.328   3.192
 5448W        W77119   4.414  15.041   3.174
 5449W        W77120  41.068  22.699  11.994
 5450W        W77121   2.849   0.231   1.800
 5451W        W77122   0.229  15.804  11.838
 5452W        W77123  22.051   0.435   3.339
 5453W        W77124   7.434  42.906  14.941
 5454W        W77125   5.269  11.619  14.749
 5455W        W77126  29.221  32.144  12.409
 5456W        W77127  26.909  17.648   0.344
 5457W        W77128  37.977  41.125   4.609
 5458W        W77129  33.630  22.213  13.034
 5459W        W77130   5.733   3.235  11.872
 5460W        W77131  28.427  16.006  11.363
 5461W        W77132  39.549  35.490  10.681
 5462W        W77133  29.507  20.346  13.388
 5463W        W77134  24.440  35.365  14.848
 5464W        W77135   3.514  28.624  12.931
 5465W        W77136   4.665  13.686   0.360
 5466W        W77137  26.213  30.980   0.604
 5467W        W77138  39.526  38.810  12.104
 5468W        W77139  35.832  28.580  10.696
 5469W        W77140  41.368  24.945  13.338
 5470W        W77141  41.370  23.499   0.331
 5471W        W77142  33.495  10.833  10.305
 5472W        W77143  16.537   9.235   4.242
 5473W        W77144   9.705   8.459   4.505
 5474W        W77145   2.500  40.447  13.764
 5475W        W77146  39.357   8.823   3.506
 5476W        W77147  31.659  43.890   1.346
 5477W        W77148  10.727  29.638   3.429
 5478W        W77149  44.783   7.595  11.465
 5479W        W77150  10.233   4.124  12.097
 5480W        W77151   6.925  30.981   1.083
 5481W        W77152  24.961   4.806  12.962
 5482W        W77153  16.202  11.264  14.897
 5483W        W77154   2.291  17.831   1.382
 5484W        W77155  30.071  43.317  10.585
 5485W        W77156  41.404  41.723   0.263
 5486W        W77157  13.168   1.421  11.664
 5487W        W77158  42.944  29.877   4.258
 5488W        W77159   7.482  24.417   0.697
 5489W        W77160  44.426   7.238  13.012
 5490W        W77161  17.239  10.230  10.598
 5491W        W77162  42.195  17.323   0.046
 5492W        W77163   7.776  27.941   4.814
 5493W        W77164   7.945   1.556  12.068
 5494W        W77165  24.215  22.463   2.750
 5495W        W77166  43.241  11.089   9.897
 5496W        W77167  16.715   7.292  14.865
 5497W        W77168  25.075  21.033   1.912
 5498W        W77169  12.806  19.512   4.978
 5499W        W77170  34.095  19.110  14.834
 5500W        W77171  43.786  11.312  13.358
 5501W        W77172  15.957  42.823  12.460
 5502W        W77173  42.212  43.758  14.899
 5503W        W77174  33.446  12.079   2.596
 5504W        W77175  39.233   4.850  12.199
 5505W        W77176  33.378  21.536   9.945
 5506W        W77177  21.586  36.551  12.887
 5507W        W77178  38.882  24.859   2.253
 5508W        W77179  18.769  13.877   0.626
 5509W        W77180  23.088  27.440   4.327
 5510W        W77181   6.497  15.117  13.315
 5511W        W77182  36.508  15.723  10.951
 5512W        W77183  44.492  35.399   4.626
 5513W        W77184  29.980  23.281  13.508
 5514W        W77185   6.964  13.078  14.712
 5515W        W77186  29.369   1.806   0.252
 5516W        W77187   4.733  14.997   2.761
 5517W        W77188  39.188   1.982  14.760
 5518W        W77189   2.739  17.573   0.313
 5519W        W77190  23.991  31.285  11.900
 5520W        W77191  23.760   7.806  10.719
 5521W        W77192   4.895  13.629  11.504
 5522W        W77193  38.053  39.121   4.644
 5523W        W77194  27.672  21.967   0.878
 5524W        W77195  43.305  37.760  12.108
 5525W        W77196  28.940   4.651   3.134
 5526W        W77197  23.483  44.698  13.590
 5527W        W77198  27.152   6.386  12.356
 5528W        W77199   6.126   3.938  10.786
 5529W        W77200  37.063  37.853   0.427
 5530W        W77201  36.034  19.265   1.883
 5531W        W77202  20.944  37.494  11.249
 5532W        W77203  22.626   0.277  13.578
 5533W        W77204   7.692  11.553   0.790
 5534W        W77205  17.738  33.925   4.574
 5535W        W77206  13.312  30.825   4.513
 5536W        W77207  44.589   7.361  10.242
 5537W        W77208  44.388  16.767   0.661
 5538W        W77209  15.946  13.439  12.515
 5539W        W77210  12.873   5.376   4.392
 5540W        W77211  15.761  32.900  11.952
 5541W        W77212   3.710  10.163  13.975
 5542W        W77213   2.963  10.394  11.722
 5543W        W77214  44.604   4.988  12.864
 5544W        W77215  25.748  24.674  11.131
 5545W        W77216  40.508  25.248  13.129
 5546W        W77217   6.551  40.385  14.994
 5547W        W77218   5.756   0.442  10.472
 5548W        W77219   2.900  39.232   3.316
 5549W        W77220  29.426  44.765  11.229
 5550W        W77221  32.997  44.512   0.686
 5551W        W77222  15.883  32.667   1.887
 5552W        W77223  30.863  39.060  11.414
 5553W        W77224  19.488  36.444   0.922
 5554W        W77225  22.290  41.930   0.965
 5555W        W77226  44.030  26.038  12.123
 5556W        W77227   8.641  44.023   4.256
 5557W        W77228  41.726  13.088   5.063
 5558W        W77229  26.603   2.717  10.632
 5559W        W77230   5.693  31.552   3.651
 5560W        W77231  31.096  28.034   1.687
 5561W        W77232   9.188  27.742   2.826
 5562W        W77233  16.340  25.015   4.763
 5563W        W77234   6.813  33.369  11.730
 5564W        W77235  14.082  20.995  13.528
 5565W        W77236  26.715  23.021   3.663
 5566W        W77237  20.688  39.895  13.899
 5567W        W77238  23.146   8.170   1.949
 5568W        W77239  16.599  44.653   0.388
 5569W        W77240   8.139  17.226  11.069
 5570W        W77241  33.553   3.750   3.768
 5571W        W77242  23.730  37.057   1.363
 5572W        W77243   1.511  18.206  11.989
 5573W        W77244  39.856  28.277   0.515
 5574W        W77245  41.399  19.683   4.484
 5575W        W77246   3.835   8.323  12.793
 5576W        W77247  23.106  33.286  12.112
 5577W        W77248  28.391  18.079   3.350
 5578W        W77249  35.974  25.659  12.073
 5579W        W77250   7.787  29.340   3.679
 5580W        W77251   7.605  35.551   0.629
 5581W        W77252  20.005   7.651  13.292
 5582W        W77253  25.433  44.564  12.630
 5583W        W77254  23.963  38.486   0.407
 5584W        W77255  37.633  32.623   0.753
 5585W        W77256  37.870  14.883  14.459
 5586W        W77257   5.358  32.978   3.396
 5587W        W77258   6.195  34.610  12.598
 5588W        W77259  20.755  23.540   4.648
 5589W        W77260  14.948  19.785  13.447
 5590W        W77261  35.844  31.869   0.418
 5591W        W77262   4.771  32.913   0.404
 5592W        W77263  15.754  29.250   3.581
 5593W        W77264  21.070  43.890   3.125
 5594W        W77265  26.099  32.446  10.461
 5595W        W77266   8.189  27.203   3.535
 5596W        W77267  42.918  36.594   2.109
 5597W        W77268  24.000   5.322   2.300
 5598W        W77269  10.084  36.514  14.253
 5599W        W77270  33.473  12.027  11.596
 5600W        W77271   2.696   0.352  12.612
 5601W        W77272  10.204  30.447   4.228
 5602W        W77273  25.079  12.249  13.940
 5603W        W77274  14.077  21.604   4.638
 5604W        W77275   0.252  15.402   0.776
 5605W        W77276  24.413  37.202  10.814
 5606W        W77277  19.935   1.872  11.847
 5607W        W77278  11.965  17.839  14.308
 5608W        W77279  31.421  41.278   3.934
 5609W        W77280   4.905  38.080  12.963
 5610W        W77281   8.304  13.781   0.775
 5611W        W77282   3.756  43.451  12.610
 5612W        W77283  22.288  19.062  10.598
 5613W        W77284  41.753  27.122  13.311
 5614W        W77285   0.788  14.096  13.803
 5615W        W77286   1.375  40.011   1.467
 5616W        W77287  25.220  25.382   1.323
 5617W        W77288  19.041   4.793   2.395
 5618W        W77289  35.324  36.653   0.283
 5619W        W77290   1.526  31.430  12.349
 5620W        W77291   5.726  34.849   2.219
 5621W        W77292  11.315  37.853   4.686
 5622W        W77293  10.638  42.361   0.023
 5623W        W77294  33.997  14.214  12.433
 5624W        W77295  10.633  22.806  14.873
 5625W        W77296   4.410   9.179   0.879
 5626W        W77297  26.141  38.634   1.948
 5627W        W77298  13.190  17.988   1.919
 5628W        W77299  42.923  12.782  13.427
 5629W        W77300  41.044  40.515   3.131
 5630W        W77301  22.480  23.022  13.832
 5631W        W77302  32.255   3.192   4.336
 5632W        W77303  39.777  23.460   1.100
 5633W        W77304  16.885  15.920  11.533
 5634W        W77305  44.102  18.042  14.367
 5635W        W77306   8.620  11.404  13.915
 5636W        W77307   0.472   2.511   4.802
 5637W        W77308   7.965  13.212  11.781
 5638W        W77309  35.532  44.768  10.960
 5639W        W77310  44.963   8.919   0.332
 5640W        W77311   6.807   1.422  11.628
 5641W        W77312   6.600  18.154  11.048
 5642W        W77313  36.456  19.760  12.966
 5643W        W77314  43.755  14.252   4.058
 5644W        W77315  38.008  30.689  12.049
 5645W        W77316  11.672  32.336   1.448
 5646W        W77317  29.443  44.276  12.111
 5647W        W77318  41.288  17.110   1.287
 5648W        W77319   2.447   1.592   3.152
 5649W        W77320  42.268  27.496  13.980
 5650W        W77321  11.658  31.805   1.332
 5651W        W77322  19.166  27.110   0.666
 5652W        W77323   1.497   9.648  13.847
 5653W        W77324  36.409  15.226   2.285
 5654W        W77325  38.052   8.063  10.758
 5655W        W77326  22.200  33.609  10.694
 5656W        W77327  24.704  10.196  12.127
 5657W        W77328   4.383  19.053  11.378
 5658W        W77329  25.777   8.478  11.195
 5659W        W77330  23.764   3.063   3.615
 5660W        W77331  42.048  11.534  12.984
 5661W        W77332  30.478  37.970   0.261
 5662W        W77333  11.083   4.147   4.605
 5663W        W77334  15.139  36.484  11.561
 5664W        W77335  25.509  32.472   4.594
 5665W        W77336  43.752  41.935   3.289
 5666W        W77337   4.988  32.837  10.544
 5667W        W77338  26.541  19.650  12.039
 5668W        W77339  26.548  30.298   4.580
 5669W        W77340   2.638   1.673  12.720
 5670W        W77341  10.330   5.802  14.538
 5671W        W77342  32.536   7.946   0.368
 5672W        W77343  10.592  41.778  11.185
 5673W        W77344  22.599  40.227  11.142
 5674W        W77345  38.436  19.157   2.315
 5675W        W77346  18.795  27.149  13.820
 5676W        W77347   7.344  13.381   1.855
 5677W        W77348  15.669  43.210  14.023
 5678W        W77349  43.248  27.119  12.224
 5679W        W77350  10.183  19.979   1.382
 5680W        W77351  27.171  24.998   2.150
 5681W        W77352  26.558  40.747  11.183
 5682W        W77353   6.934  44.544  11.648
 5683W        W77354  39.342  12.846   1.610
 5684W        W77355   8.421  43.022   0.133
 5685W        W77356  32.717   5.742   2.960
 5686W        W77357  44.223   3.933  10.434
 5687W        W77358  31.096   1.461  12.648
 5688W        W77359  35.291  30.466   2.594
 5689W        W77360  43.761  40.858  12.667
 5690W        W77361   8.162  13.112   4.285
 5691W        W77362  24.800  11.684   0.439
 5692W        W77363  13.361  18.043  10.209
 5693W        W77364  24.697  34.481   4.557
 5694W        W77365   5.918  17.206  12.973
 5695W        W77366   0.499   0.720  14.524
 5696W        W77367  13.273  41.561  13.459
 5697W        W77368  19.681  38.036   1.429
 5698W        W77369   7.857  11.138  10.831
 5699W        W77370  36.494  16.385   1.779
 5700W        W77371  38.423  18.105   2.354
 5701W        W77372  29.102  34.914  14.719
 5702W        W77373   7.287  27.733  13.513
 5703W        W77374  25.875  40.515   0.908
 5704W        W77375  37.794   6.673   1.775
 5705W        W77376   1.235  31.980   1.251
 5706W        W77377   4.052   6.260  12.947
 5707W        W77378  25.703  18.531   3.343
 5708W        W77379   2.669  17.185   1.060
 5709W        W77380  15.561  36.984  12.075
 5710W        W77381  29.122  19.025   0.461
 5711W        W77382  19.559   6.763  13.095
 5712W        W77383  10.453  17.679   0.332
 5713W        W77384  42.296  41.807   0.022
 5714W        W77385   7.764  25.996   2.378
 5715W        W77386  27.546  28.181  12.600
 5716W        W77387  44.165  37.971  14.733
 5717W        W77388  33.463  16.517   0.743
 5718W        W77389   6.590   9.787  11.597
 5719W        W77390   9.702  12.755  11.381
 5720W        W77391  34.890  13.711   3.352
 5721W        W77392  22.567  10.213  11.497
 5722W        W77393   5.527  28.574   3.375
 5723W        W77394  27.789  12.711  12.945
 5724W        W77395   2.666   8.902   1.986
 5725W        W77396   4.795   9.028   0.221
 5726W        W77397  33.620  15.704  13.733
 5727W        W77398  34.480   7.247  14.570
 5728W        W77399  17.320   6.309  11.079
 5729W        W77400  32.313  29.600   4.886
 5730W        W77401   7.435  20.137   4.216
 5731W        W77402  20.208   1.600  14.740
 5732W        W77403  30.567   2.817   2.956
 5733W        W77404  41.802  37.385  12.129
 5734W        W77405   1.453  37.382   0.250
 5735W        W77406  39.749  31.542  11.113
 5736W        W77407  18.301  25.763   4.557
 5737W        W77408  10.373  16.111  13.850
 5738W        W77409  38.034  34.075  10.611
 5739W        W77410  31.918  42.518  14.268
 5740W        W77411  14.802  20.239   4.729
 5741W        W77412  14.390  32.032   3.139
 5742W        W77413  12.534   6.622   1.356
 5743W        W77414  44.405  10.573   0.335
 5744W        W77415   6.046  39.644  12.862
 5745W        W77416  39.543  20.169   4.172
 5746W        W77417  42.054  13.162   3.350
 5747W        W77418  20.133  17.298   1.917
 5748W        W77419  21.412  14.210  14.431
 5749W        W77420  40.800   5.863  13.364
 5750W        W77421  17.896  21.941   1.267
 5751W        W77422  38.138   8.653  14.264
 5752W        W77423  30.619  12.238  10.999
 5753W        W77424   0.783  37.517  12.012
 5754W        W77425  16.861   1.225  13.099
 5755W        W77426   4.877   9.361   4.171
 5756W        W77427  30.954  11.737   2.564
 5757W        W77428  13.616  38.121   4.228
 5758W        W77429   0.692  22.617  13.483
 5759W        W77430  17.571  16.670   4.816
 5760W        W77431  41.299   3.981   2.312
 5761W        W77432  19.065  21.775  11.587
 5762W        W77433  41.378   0.565  12.425
 5763W        W77434  13.293  15.792  12.017
 5764W        W77435  25.242  28.075  11.013
 5765W        W77436   7.229  37.785   3.726
 5766W        W77437  30.508  36.905  11.570
 5767W        W77438   3.811  16.635  11.422
 5768W        W77439  40.333  43.015  10.482
 5769W        W77440  42.542  10.226  13.054
 5770W        W77441  11.242  35.359   4.873
 5771W        W77442  36.174  34.012   0.291
 5772W        W77443  20.059  11.129  13.490
 5773W        W77444  42.254  41.344  10.487
 5774W        W77445  41.606  21.239   4.714
 5775W        W77446  32.078  23.600   2.304
 5776W        W77447  23.524  40.913  11.892
 5777W        W77448  22.276  40.441  10.244
 5778W        W77449   1.714  26.421   0.399
 5779W        W77450  16.353  20.604  14.848
 5780W        W77451   0.986  18.008  14.118
 5781W        W77452   7.695  16.647  13.923
 5782W        W77453  43.533   8.336   0.282
 5783W        W77454   9.739  22.344  13.957
 5784W        W77455  19.928  20.194   4.640
 5785W        W77456  32.957  40.563   3.435
 5786W        W77457  22.526  14.112  11.690
 5787W        W77458  32.700  24.679   0.339
 5788W        W77459  42.933  27.094   2.207
 5789W        W77460  24.757  37.711   4.130
 5790W        W77461   1.921  26.774   0.713
 5791W        W77462  38.421   0.009   3.781
 5792W        W77463  13.518  37.424   0.337
 5793W        W77464  36.428  16.703  12.346
 5794W        W77465  20.923   1.963   3.403
 5795W        W77466  15.692  20.185   3.781
 5796W        W77467  15.827  13.668   3.780
 5797W        W77468  35.908  22.260   0.969
 5798W        W77469   0.064   1.008   4.330
 5799W        W77470  42.855  24.189   4.117
 5800W        W77471  13.147  44.407  13.882
 5801W        W77472  31.343  40.058   4.053
 5802W        W77473  26.914  20.282   0.608
 5803W        W77474  32.297  18.445  12.562
 5804W        W77475  21.064  13.114  11.929
 5805W        W77476  39.903  25.662   2.325
 5806W        W77477  22.909  34.513  11.606
 5807W        W77478  20.026  26.678  10.617
 5808W        W77479  26.687  30.436   2.653
 5809W        W77480   7.835  40.724   1.328
 5810W        W77481   9.654   0.149  11.133
 5811W        W77482  17.605  12.839  10.578
 5812W        W77483  26.605  12.594  10.246
 5813W        W77484   2.630  32.129   4.184
 5814W        W77485  24.320  17.342  13.932
 5815W        W77486   7.095   6.671  10.794
 5816W        W77487   3.630  29.397  13.124
 5817W        W77488  18.691  29.656   1.908
 5818W        W77489  43.092  17.965   4.924
 5819W        W77490   8.671  16.292   2.911
 5820W        W77491   2.910  33.835  11.502
 5821W        W77492  23.514   0.013  12.483
 5822W        W77493  44.275  38.051   1.758
 5823W        W77494  14.880  14.237   4.935
 5824W        W77495  32.375  11.045  13.290
 5825W        W77496  43.760  26.582   3.373
 5826W        W77497   5.698  25.208  11.234
 5827W        W77498  44.356  17.288  10.343
 5828W        W77499  17.240  42.899  14.008
 5829W        W77500  40.985  32.991   2.299
 5830W        W77501  41.593  23.396  11.608
 5831W        W77502  37.266  16.928  11.656
 5832W        W77503  15.761  18.040   3.435
 5833W        W77504   2.372   6.209  13.128
 5834W        W77505  10.172  43.484  10.947
 5835W        W77506  20.108  21.588   3.099
 5836W        W77507  43.499  21.736  10.808
 5837W        W77508   3.783  15.290   1.448
 5838W        W77509   3.997  11.800  14.317
 5839W        W77510   4.761  22.604   3.651
 5840W        W77511  37.042  12.647  14.996
 5841W        W77512  42.100  37.987   3.344
 5842W        W77513  35.566  44.383   4.854
 5843W        W77514   1.224   6.239  13.475
 5844W        W77515  40.112  16.464  12.704
 5845W        W77516  34.601  24.925   3.196
 5846W        W77517  36.039  43.189  13.864
 5847W        W77518  18.358  26.123   3.244
 5848W        W77519  23.777  42.696  14.454
 5849W        W77520  14.323  16.687  12.835
 5850W        W77521  12.919  35.490   0.968
 5851W        W77522   2.850  26.414  11.126
 5852W        W77523  32.482  21.063   4.239
 5853W        W77524  40.409  20.621   1.434
 5854W        W77525  42.316  21.904  11.498
 5855W        W77526  25.102  14.278   4.839
 5856W        W77527  22.168  33.795  11.940
 5857W        W77528  16.714  15.684   3.322
 5858W        W77529   3.579  15.277   2.817
 5859W        W77530  29.759  43.035   1.784
 5860W        W77531  39.267  36.016   3.183
 5861W        W77532  14.562  18.855  13.173
 5862W        W77533  33.749  28.581  11.882
 5863W        W77534  23.995  17.590  11.404
 5864W        W77535   4.097  38.509   1.725
 5865W        W77536  12.172   2.988  12.009
 5866W        W77537  11.358  40.925  13.877
 5867W        W77538  27.503  20.418  14.941
 5868W        W77539   5.260   0.321   1.914
 5869W        W77540   3.170  24.042  14.113
 5870W        W77541  29.908   3.420  10.488
 5871W        W77542  22.994   4.878   1.685
 5872W        W77543  30.013  14.214   2.851
 5873W        W77544  16.628  40.026  11.603
 5874W        W77545  24.235  41.796  10.779
 5875W        W77546  35.767  40.092   9.687
 5876W        W77547  19.023  13.251  11.710
 5877W        W77548  24.232  25.929  13.282
 5878W        W77549  38.562  42.920   1.465
 5879W        W77550  42.971  22.851  13.543
 5880W        W77551   7.354   5.298   4.347
 5881W        W77552   5.378  43.793   1.230
 5882W        W77553  38.871  40.889   2.265
 5883W        W77554  36.752   9.466  13.799
 5884W        W77555  33.413  39.574   2.807
 5885W        W77556   3.321  20.115   4.866
 5886W        W77557  36.910  38.663   2.702
 5887W        W77558  41.657  19.962   3.425
 5888W        W77559  38.301   8.185  11.178
 5889W        W77560  41.803   1.683   2.310
 5890W        W77561   1.165  29.040  12.114
 5891W        W77562  21.276  17.003  12.544
 5892W        W77563  21.598  37.608   3.653
 5893W        W77564   7.159  16.248   2.682
 5894W        W77565  43.588  41.387  12.658
 5895W        W77566  10.883  35.268  13.787
 5896W        W77567   1.309  31.207  14.456
 5897W        W77568   3.717   6.770   1.763
 5898W        W77569  42.055  39.370  14.119
 5899W        W77570   7.861  14.588  14.411
 5900W        W77571   8.401  26.640  13.241
 5901W        W77572   8.151  24.224  13.338
 5902W        W77573  41.580  42.747   2.481
 5903W        W77574  29.735  34.890   1.815
 5904W        W77575   3.051  37.859  13.384
 5905W        W77576  42.879  18.680   0.949
 5906W        W77577   5.176  34.517  14.993
 5907W        W77578  30.619   1.022  10.853
 5908W        W77579  43.077  11.589  11.067
 5909W        W77580  26.551  35.105   3.229
 5910W        W77581  37.341  34.234  11.534
 5911W        W77582  39.018  19.008   4.734
 5912W        W77583  26.965  25.340   3.563
 5913W        W77584  43.631  13.605   5.485
 5914W        W77585  20.995  22.023   4.493
 5915W        W77586  10.229  16.278   1.963
 5916W        W77587  38.523   1.245  12.931
 5917W        W77588   2.212  14.869  14.226
 5918W        W77589  39.320  40.506   0.894
 5919W        W77590   3.791  31.381  11.503
 5920W        W77591   0.940   2.250   3.112
 5921W        W77592  41.859  22.605  11.180
 5922W        W77593  21.761  29.531  12.623
 5923W        W77594  12.787  38.213   1.865
 5924W        W77595   6.383  28.556   4.551
 5925W        W77596  37.901  21.803   4.120
 5926W        W77597  31.161  19.591   4.614
 5927W        W77598  12.815  14.781  10.741
 5928W        W77599  40.309   9.714   3.223
 5929W        W77600  44.925  34.257  12.991
 5930W        W77601  35.152  38.836   2.704
 5931W        W77602  42.265   9.165  11.154
 5932W        W77603   8.677   6.643   3.430
 5933W        W77604   4.598  21.731   4.061
 5934W        W77605  42.189  34.763   5.070
 5935W        W77606  25.277  34.794   4.035
 5936W        W77607  24.259  21.022   3.118
 5937W        W77608  32.519  24.274   1.217
 5938W        W77609  22.481  14.827   3.226
 5939W        W77610  19.006  32.048  14.829
 5940W        W77611  15.239  13.304   2.090
 5941W        W77612   2.112  26.969  11.774
 5942W        W77613  13.262  13.064   3.245
 5943W        W77614  22.636  31.929  14.763
 5944W        W77615   4.815   7.524   3.139
 5945W        W77616  31.005  19.515   0.051
 5946W        W77617  44.941  15.079  13.900
 5947W        W77618  17.111   1.923   1.827
 5948W        W77619   3.480   5.485   4.585
 5949W        W77620  30.653  42.324   3.808
 5950W        W77621  16.800  11.570  12.095
 5951W        W77622  18.287  14.630   0.900
 5952W        W77623  30.697  39.709   0.745
 5953W        W77624   7.326  18.315   4.628
 5954W        W77625  17.656  21.895  12.391
 5955W        W77626  10.222  44.862   3.124
 5956W        W77627  40.273  23.696   0.445
 5957W        W77628  37.257  20.691  12.555
 5958W        W77629  13.368  28.055  12.566
 5959W        W77630  41.890   6.663   0.214
 5960W        W77631  23.128  43.549   0.838
 5961W        W77632  20.984   7.376  12.359
 5962W        W77633  13.062  22.172  11.583
 5963W        W77634  16.954   8.110   1.804
 5964W        W77635  13.445  17.534   2.815
 5965W        W77636   3.767  23.780   0.820
 5966W        W77637  11.889  27.987  12.356
 5967W        W77638   3.926  34.792  14.435
 5968W        W77639  11.573  17.792   4.666
 5969W        W77640  43.446  41.203  10.163
 5970W        W77641  23.953  29.393   0.796
 5971W        W77642  10.109   5.420   4.191
 5972W        W77643   1.564   7.361  13.033
 5973W        W77644  37.674  26.155  14.092
 5974W        W77645  39.366  34.579   2.309
 5975W        W77646  16.192  43.263   1.741
 5976W        W77647   2.705  37.492  13.401
 5977W        W77648  18.735  30.025   0.212
 5978W        W77649  15.869   5.791  13.951
 5979W        W77650  26.988   7.123   0.925
 5980W        W77651   6.964  32.104  14.405
 5981W        W77652   4.193  16.360   4.547
 5982W        W77653  40.123  40.041   3.721
 5983W        W77654  27.105  21.059  11.206
 5984W        W77655  23.742  16.285  13.804
 5985W        W77656  41.873  23.780  10.874
 5986W        W77657   0.262  32.826   4.312
 5987W        W77658  28.114  10.575  12.093
 5988W        W77659   8.787  33.600  10.967
 5989W        W77660  38.131  11.211   9.787
 5990W        W77661  23.143  17.483   3.681
 5991W        W77662   7.944  20.615   0.249
 5992W        W77663  13.782  12.886   2.339
 5993W        W77664  19.925  27.158  10.403
 5994W        W77665  11.823  34.777  11.197
 5995W        W77666  37.740   5.830  11.514
 5996W        W77667  29.698  18.189   0.451
 5997W        W77668  14.641  39.832   2.861
 5998W        W77669  32.469  34.633   2.375
 5999W        W77670  16.074  32.371  13.920
 6000W        W77671  18.636   4.648  12.552
 6001W        W77672  27.386  42.518   4.166
 6002W        W77673  43.944  21.020   1.232
 6003W        W77674  17.593  44.022  13.573
 6004W        W77675  20.455   9.176   4.941
 6005W        W77676  26.676  12.380   0.290
 6006W        W77677  22.864  34.097  10.594
 6007W        W77678  41.776  32.454   2.217
 6008W        W77679  31.415  42.927   0.672
 6009W        W77680   1.960  41.437  13.965
 6010W        W77681   4.930  25.679   0.384
 6011W        W77682  42.110  26.875  10.911
 6012W        W77683  26.155   3.856  12.494
 6013W        W77684  27.011  15.863  14.511
 6014W        W77685  14.863   5.970  13.805
 6015W        W77686  18.471  12.621  11.838
 6016W        W77687  23.257  10.462   1.284
 6017W        W77688  15.437  29.628  14.568
 6018W        W77689   2.030   0.012  14.223
 6019W        W77690  44.807  13.109  11.884
 6020W        W77691   6.728   5.870   1.389
 6021W        W77692  15.754  43.066  10.332
 6022W        W77693  36.017   5.161   0.859
 6023W        W77694  24.831  31.974   1.640
 6024W        W77695   7.375  10.920   2.682
 6025W        W77696  11.606  38.870  12.887
 6026W        W77697  36.437   2.060   0.017
 6027W        W77698  43.356  39.936   2.204
 6028W        W77699  22.475  40.464   3.691
 6029W        W77700  11.867   2.984   3.635
 6030W        W77701   5.891   0.837  14.431
 6031W        W77702  34.610  11.594  11.575
 6032W        W77703  25.112  34.312   1.557
 6033W        W77704  25.586  10.709  11.707
 6034W        W77705  21.456  35.776  13.992
 6035W        W77706  31.420  43.808   3.990
 6036W        W77707   0.675  11.286   3.652
 6037W        W77708  21.708  27.578  12.122
 6038W        W77709  36.096  14.747  11.577
 6039W        W77710  43.520  20.088  14.472
 6040W        W77711  31.814  12.045  13.981
 6041W        W77712  10.937  27.109   2.021
 6042W        W77713   5.769  33.347   2.227
 6043W        W77714   2.491   2.177  13.095
 6044W        W77715  26.666  41.343   1.956
 6045W        W77716  35.430  26.585  13.508
 6046W        W77717  18.762  20.236  13.080
 6047W        W77718  26.145  14.048  10.638
 6048W        W77719  44.868  34.872  10.730
 6049W        W77720   0.395  19.492  12.007
 6050W        W77721  34.752  26.928  14.878
 6051W        W77722  40.107  28.452  13.440
 6052W        W77723   2.892   5.120  14.388
 6053W        W77724  28.346  14.746   1.673
 6054W        W77725   3.360  32.049  14.431
 6055W        W77726   8.363  37.642   2.279
 6056W        W77727   3.944  20.217  14.963
 6057W        W77728  34.066  41.911   3.890
 6058W        W77729  43.028  14.156  13.556
 6059W        W77730   1.432  31.133   4.666
 6060W        W77731   2.788  27.539   0.203
 6061W        W77732  36.847  25.461  12.892
 6062W        W77733   1.815  25.197   3.669
 6063W        W77734   6.594  27.095   4.997
 6064W        W77735   3.351  11.449   3.579
 6065W        W77736  25.506  12.714   4.576
 6066W        W77737  30.855  29.146  10.832
 6067W        W77738  13.762  28.715  10.793
 6068W        W77739  34.508  11.857   0.998
 6069W        W77740   1.420  20.767   3.633
 6070W        W77741  10.927  36.216   2.231
 6071W        W77742   8.636   0.325   1.237
 6072W        W77743   6.099  30.973   4.139
 6073W        W77744   2.888   3.744   1.012
 6074W        W77745  42.546  44.736   0.898
 6075W        W77746  22.541  17.103  11.952
 6076W        W77747  32.934  38.512   4.547
 6077W        W77748  31.690   0.402  11.211
 6078W        W77749  18.263  42.444   4.725
 6079W        W77750  40.423   4.485  11.170
 6080W        W77751  26.306  24.232   4.032
 6081W        W77752  38.312  13.283   4.204
 6082W        W77753  12.594  41.475   1.583
 6083W        W77754   9.383  30.473   4.825
 6084W        W77755  22.190  41.277   2.185
 6085W        W77756  20.281   8.624   4.133
 6086W        W77757  30.544   1.877   0.234
 6087W        W77758  18.052  44.712   0.374
 6088W        W77759  34.033  12.757  11.363
 6089W        W77760  10.796  33.188  10.916
 6090W        W77761  31.471  21.131  14.476
 6091W        W77762  35.336  41.739  14.389
 6092W        W77763  43.554  18.152  11.124
 6093W        W77764  20.810  14.326   2.771
 6094W        W77765  23.532  34.124   4.385
 6095W        W77766  17.787  32.471  14.301
 6096W        W77767  29.477  40.952   4.346
 6097W        W77768  11.525   0.761  13.939
 6098W        W77769   2.509  19.453  13.509
 6099W        W77770  35.094  19.369   4.102
 6100W        W77771  43.063  21.170  11.723
 6101W        W77772  42.978  38.963   0.809
 6102W        W77773  39.262  18.080  14.913
 6103W        W77774  25.957  33.394  12.556
 6104W        W77775  32.652   1.358  12.552
 6105W        W77776   3.255   5.697  10.803
 6106W        W77777   8.111   8.754   0.734
 6107W        W77778  28.559  39.976  14.443
 6108W        W77779  15.577   4.343   1.214
 6109W        W77780  23.632  16.878  11.468
 6110W        W77781   8.690   0.665   1.661
 6111W        W77782  30.091  32.565  14.056
 6112W        W77783   7.254  32.821   2.914
 6113W        W77784  15.737  44.246   2.252
 6114W        W77785  24.086  13.305   2.310
 6115W        W77786  11.059  42.848  12.927
 6116W        W77787  10.115  41.728  11.983
 6117W        W77788  34.439  27.407  11.752
 6118W        W77789  29.036  12.640   3.706
 6119W        W77790  30.425  10.582  12.309
 6120W        W77791  17.855   1.186  12.158
 6121W        W77792   6.867  25.959  14.348
 6122W        W77793   8.716  26.688  10.753
 6123W        W77794   8.200  12.132  11.115
 6124W        W77795  37.929   3.724  12.947
 6125W        W77796  15.780  44.234  11.151
 6126W        W77797  31.022   4.687   2.200
 6127W        W77798   9.683  29.619   1.742
 6128W        W77799  22.234  31.504   1.298
 6129W        W77800  38.825   4.965   1.799
 6130W        W77801  19.845  26.628  13.409
 6131W        W77802   7.440  24.688   3.858
 6132W        W77803  18.624  44.471  14.099
 6133W        W77804  42.543   4.856   4.445
 6134W        W77805   5.685   9.712  12.824
 6135W        W77806  21.688  26.764   4.254
 6136W        W77807  29.005  38.416  13.815
 6137W        W77808  19.720   3.169   1.396
 6138W        W77809  20.583  16.308   1.897
 6139W        W77810  31.478   3.397  10.661
 6140W        W77811  14.300   6.508  12.501
 6141W        W77812   8.213  39.279  10.749
 6142W        W77813  41.546  37.166  10.875
 6143W        W77814  30.930  38.924   3.405
 6144W        W77815   1.822  37.638  12.499
 6145W        W77816  33.282  30.679   5.326
 6146W        W77817   8.267   1.507  12.553
 6147W        W77818   7.229  14.754  12.682
 6148W        W77819  27.394  34.771   3.655
 6149W        W77820   7.225   7.102  14.443
 6150W        W77821  40.996  14.165  14.588
 6151W        W77822  39.263   8.150   2.310
 6152W        W77823   9.288  19.491  10.700
 6153W        W77824  30.960  26.684   4.647
 6154W        W77825  27.025   3.488   0.217
 6155W        W77826  30.149  18.067  13.603
 6156W        W77827  11.107  28.370  12.444
 6157W        W77828  21.152   6.220  14.510
 6158W        W77829  10.083  12.653   0.832
 6159W        W77830  18.746  23.511  12.098
 6160W        W77831  12.534   0.946   0.066
 6161W        W77832  11.651  37.642  11.583
 6162W        W77833  24.129  15.749  13.598
 6163W        W77834   3.245   9.235   3.708
 6164W        W77835  14.856  21.018  13.063
 6165W        W77836   8.757  41.514   1.976
 6166W        W77837  30.968  14.623  11.589
 6167W        W77838  20.484  40.555   1.369
 6168W        W77839   6.069   4.778  14.407
 6169W        W77840  27.990  40.076   4.690
 6170W        W77841  24.066  25.070  11.143
 6171W        W77842   2.358  14.067  12.129
 6172W        W77843  40.276  12.483   1.601
 6173W        W77844   2.274  20.087   4.463
 6174W        W77845  24.024  42.849   0.436
 6175W        W77846   2.457  31.172   3.627
 6176W        W77847   1.387  26.210   1.874
 6177W        W77848  12.053  35.574   2.729
 6178W        W77849  30.176  23.228   4.325
 6179W        W77850  44.989  16.524  13.026
 6180W        W77851  25.892  31.017  12.052
 6181W        W77852  32.103  11.871  11.017
 6182W        W77853  43.444  44.486   1.746
 6183W        W77854  12.891  21.450  14.787
 6184W        W77855  11.623  28.402  12.500
 6185W        W77856  30.892  31.255  10.441
 6186W        W77857  37.019   1.381   1.033
 6187W        W77858  38.971  21.703  13.422
 6188W        W77859  19.243  22.326  12.432
 6189W        W77860  27.058  30.812   2.688
 6190W        W77861  38.033  40.942  11.149
 6191W        W77862   3.036  22.039  13.879
 6192W        W77863  14.393  11.796   0.431
 6193W        W77864  32.516   3.860  10.976
 6194W        W77865  42.304   9.142   4.128
 6195W        W77866  38.206  39.024   0.182
 6196W        W77867   9.152   7.477   3.689
 6197W        W77868  28.052  11.094  14.932
 6198W        W77869   8.429  20.137   4.216
 6199W        W77870   6.571  18.331  11.952
 6200W        W77871  34.022  42.465   4.611
 6201W        W77872   4.977  27.484  10.140
 6202W        W77873  18.860  17.734  11.925
 6203W        W77874   9.125   5.412  11.506
 6204W        W77875  27.690  14.955  13.816
 6205W        W77876  16.218  12.658  12.789
 6206W        W77877  29.911  40.481   2.607
 6207W        W77878   7.785  42.001   3.311
 6208W        W77879   7.821   2.292  14.207
 6209W        W77880  29.055   7.875  10.815
 6210W        W77881  36.941  41.376   2.225
 6211W        W77882  18.314  31.585   4.686
 6212W        W77883  30.973  18.776  12.515
 6213W        W77884  27.711  41.435   3.344
 6214W        W77885  32.552   5.183   4.089
 6215W        W77886  25.185  31.913  11.170
 6216W        W77887  25.773  16.593   0.373
 6217W        W77888  32.466  17.166  14.064
 6218W        W77889   6.732   1.342   4.517
 6219W        W77890  35.761   5.805  11.493
 6220W        W77891  41.921  21.762   2.467
 6221W        W77892  29.982  37.399  14.913
 6222W        W77893  30.033  25.641  10.671
 6223W        W77894  33.893  35.058  14.904
 6224W        W77895  28.173   3.494  13.574
 6225W        W77896  43.172  21.579   9.874
 6226W        W77897   6.876  10.803   2.619
 6227W        W77898  25.213  27.109  13.455
 6228W        W77899  35.019  38.402   4.482
 6229W        W77900  36.437   5.015   2.229
 6230W        W77901  16.544  14.285   2.827
 6231W        W77902  31.317  15.405  10.016
 6232W        W77903  23.105  31.543   0.223
 6233W        W77904  35.725  37.916   2.308
 6234W        W77905   1.546   2.268  13.133
 6235W        W77906  43.795  20.944   5.237
 6236W        W77907   9.688  20.147  12.560
 6237W        W77908  27.716  39.332  10.751
 6238W        W77909  31.051  34.377   4.650
 6239W        W77910  19.602  25.961  14.564
 6240W        W77911   2.842  24.833  13.098
 6241W        W77912  28.146  38.766  11.474
 6242W        W77913  16.104   7.351   2.419
 6243W        W77914  36.086  11.555  10.666
 6244W        W77915  32.072   3.257  14.497
 6245W        W77916  38.938  44.272   3.744
 6246W        W77917  20.736  12.187   3.511
 6247W        W77918  15.294  31.864   2.857
 6248W        W77919  12.077   3.563   4.885
 6249W        W77920  13.537  37.941  11.688
 6250W        W77921   6.673  21.638   2.932
 6251W        W77922  11.439  26.293   1.330
 6252W        W77923  19.226  13.573   2.389
 6253W        W77924  35.039  41.633  12.620
 6254W        W77925  36.481  40.461   1.315
 6255W        W77926   5.509  33.994  12.123
 6256W        W77927  17.879  23.575  13.314
 6257W        W77928  13.128  40.029  11.616
 6258W        W77929  44.873  31.075   0.362
 6259W        W77930  20.017  34.835  12.331
 6260W        W77931  43.971  10.316   3.881
 6261W        W77932  35.117   2.912  13.967
 6262W        W77933   2.778  30.037   0.843
 6263W        W77934  13.742   5.982   2.555
 6264W        W77935   9.429  26.272  12.935
 6265W        W77936  11.052   0.048  13.273
 6266W        W77937   3.620   1.925  11.523
 6267W        W77938  44.719  33.811   3.376
 6268W        W77939  14.309  20.211  13.931
 6269W        W77940  33.696   2.025   4.591
 6270W        W77941  32.596  44.182  11.003
 6271W        W77942  39.422  37.878  13.473
 6272W        W77943  40.255  27.934   2.354
 6273W        W77944  43.746  15.756  14.318
 6274W        W77945  24.162  34.491   4.670
 6275W        W77946   4.545  44.818  13.792
 6276W        W77947  44.844  24.612   0.570
 6277W        W77948  12.318  38.907  14.328
 6278W        W77949  39.794  33.348  11.569
 6279W        W77950  11.190  29.445  14.382
 6280W        W77951   6.733   1.427  10.690
 6281W        W77952  32.904  32.115   4.049
 6282W        W77953  23.488  29.725  14.915
 6283W        W77954   6.960   5.724   3.640
 6284W        W77955  11.702  22.701  10.609
 6285W        W77956   6.232   6.434   2.938
 6286W        W77957  29.976  15.702  13.343
 6287W        W77958  22.624   7.883   0.931
 6288W        W77959  15.121  27.525  12.551
 6289W        W77960  40.628  14.150   0.267
 6290W        W77961  11.626  35.798  11.165
 6291W        W77962   6.517  35.415  11.654
 6292W        W77963  28.370   6.372   2.686
 6293W        W77964   9.270   5.187   0.501
 6294W        W77965  23.943  32.424  13.926
 6295W        W77966  32.602  31.032   4.141
 6296W        W77967  34.152  41.531  14.943
 6297W        W77968  40.480  19.584  12.847
 6298W        W77969   8.163   9.713  11.734
 6299W        W77970  27.353  17.052  13.042
 6300W        W77971  29.445  33.145   3.192
 6301W        W77972  19.712   5.663  13.339
 6302W        W77973  22.200  13.853   1.451
 6303W        W77974  39.982  38.071   1.739
 6304W        W77975  26.969  25.500  12.123
 6305W        W77976  18.252  29.170   1.117
 6306W        W77977   1.082  17.665  11.171
 6307W        W77978  23.870  40.070   1.692
 6308W        W77979   5.416   0.110  10.685
 6309W        W77980  41.247  17.489  12.828
 6310W        W77981  11.144  28.048   2.117
 6311W        W77982   0.912  17.195   3.129
 6312W        W77983  22.985  23.655   4.166
 6313W        W77984  17.874  44.639  10.395
 6314W        W77985  24.018  10.370   0.885
 6315W        W77986   1.246  42.500  12.980
 6316W        W77987  14.186  14.356  13.620
 6317W        W77988  16.799  23.134   0.201
 6318W        W77989   6.932  26.539  11.610
 6319W        W77990  23.995   3.424  11.512
 6320W        W77991   6.037  14.376   4.178
 6321W        W77992  33.012  34.603  12.312
 6322W        W77993  25.572  21.074  14.283
 6323W        W77994   0.199  44.365   4.617
 6324W        W77995  30.099  27.707   4.589
 6325W        W77996  10.702  27.195  11.111
 6326W        W77997  30.594  15.622   1.484
 6327W        W77998  24.313  14.211  10.106
 6328W        W77999  40.866  29.675  14.924
 6329W        W78000  22.500  28.687   3.114
 6330W        W78001  25.928  23.781   3.711
 6331W        W78002  17.170  32.369  13.481
 6332W        W78003  17.516   1.333  11.792
 6333W        W78004  17.790  41.752   3.704
 6334W        W78005  41.564  22.961   1.278
 6335W        W78006   3.405  39.043  12.034
 6336W        W78007   8.161   4.612   0.317
 6337W        W78008  36.861   6.936   3.160
 6338W        W78009  21.684  16.129  11.083
 6339W        W78010  14.445  41.707   4.173
 6340W        W78011   6.878  42.070  10.600
 6341W        W78012  32.759  35.936   0.971
 6342W        W78013   8.870  38.036   4.393
 6343W        W78014  23.846  31.208   2.832
 6344W        W78015  13.746  44.342   4.119
 6345W        W78016  20.593  19.086   2.382
 6346W        W78017  39.998  26.502  13.378
 6347W        W78018   9.309  38.873   3.915
 6348W        W78019   5.815  20.992  14.929
 6349W        W78020  26.402  28.901   0.906
 6350W        W78021  36.623  21.725   3.607
 6351W        W78022  24.168   1.437   2.720
 6352W        W78023   2.407  27.933  10.714
 6353W        W78024  35.012  30.096   1.780
 6354W        W78025   2.366  20.354  10.999
 6355W        W78026   4.630  10.083   1.159
 6356W        W78027  40.258  22.055  14.151
 6357W        W78028   7.141  39.307   2.744
 6358W        W78029   6.249  36.893   0.739
 6359W        W78030  17.585  40.882  13.423
 6360W        W78031  16.364  26.009  14.591
 6361W        W78032   5.778  30.604   1.218
 6362W        W78033  10.807   3.294   4.099
 6363W        W78034   2.284  44.009   4.492
 6364W        W78035  31.530  15.583  10.927
 6365W        W78036  35.426  16.095   2.253
 6366W        W78037  38.476   1.704  13.930
 6367W        W78038  44.023  41.749   2.844
 6368W        W78039  32.051  23.494  13.414
 6369W        W78040  33.929  16.745  11.591
 6370W        W78041  19.698   3.871   4.489
 6371W        W78042  18.631  28.133  13.363
 6372W        W78043  27.698  40.892   1.686
 6373W        W78044  31.372  11.297  11.690
 6374W        W78045   9.298  14.568   4.905
 6375W        W78046   5.882  31.947   1.260
 6376W        W78047  22.584   9.893   4.048
 6377W        W78048   0.709  19.838  11.567
 6378W        W78049  28.675  38.077  14.592
 6379W        W78050  30.476  25.746  12.026
 6380W        W78051  40.262  33.291  14.838
 6381W        W78052   7.642   5.404  13.886
 6382W        W78053  15.578  18.232   2.933
 6383W        W78054  31.572  35.957   0.921
 6384W        W78055   4.748   4.311   4.567
 6385W        W78056  43.015   2.897  13.375
 6386W        W78057  40.513  39.557   1.372
 6387W        W78058   7.462  18.675   0.362
 6388W        W78059  24.761  34.132  12.566
 6389W        W78060  35.114  36.115  10.569
 6390W        W78061  24.712  22.690  14.867
 6391W        W78062   8.212  28.343  14.764
 6392W        W78063  40.052   4.539   4.273
 6393W        W78064  25.757   5.867  11.704
 6394W        W78065  16.643  17.273   3.152
 6395W        W78066  43.978  33.642   1.815
 6396W        W78067   5.462  42.955  14.623
 6397W        W78068  27.482  12.870  14.589
 6398W        W78069  33.858  28.251   2.268
 6399W        W78070  40.878  31.107   1.276
 6400W        W78071  17.797  18.128  14.854
 6401W        W78072  28.511  11.358   4.731
 6402W        W78073  38.945   6.398  13.843
 6403W        W78074   7.390   5.244  11.669
 6404W        W78075  24.969  36.456  10.730
 6405W        W78076  25.767  35.480  11.182
 6406W        W78077   5.878  24.576   0.859
 6407W        W78078  36.521  11.133  11.520
 6408W        W78079  26.644  31.898   1.736
 6409W        W78080  31.899   1.046   3.903
 6410W        W78081  28.850  32.261   2.255
 6411W        W78082  39.185  31.250  13.986
 6412W        W78083  21.591   0.228   2.127
 6413W        W78084   9.262  10.583  12.431
 6414W        W78085  42.473  14.248  11.535
 6415W        W78086   4.341  31.447   1.741
 6416W        W78087  19.029   2.567  12.506
 6417W        W78088  15.278  19.576   2.241
 6418W        W78089  43.125  16.058   0.268
 6419W        W78090  14.561   6.129   4.814
 6420W        W78091  18.328  19.302   1.754
 6421W        W78092  34.722  15.581   3.933
 6422W        W78093  31.014  29.196  11.545
 6423W        W78094  41.001  41.832   3.534
 6424W        W78095  33.050  23.116  12.026
 6425W        W78096  43.287  42.529  11.157
 6426W        W78097  30.993   8.100   1.743
 6427W        W78098   0.408  41.498   4.535
 6428W        W78099  22.177  10.211   0.883
 6429W        W78100  24.189  16.624   4.355
 6430W        W78101  13.670  17.874  10.622
 6431W        W78102  41.554  11.651   2.892
 6432W        W78103  10.137   3.792  14.131
 6433W        W78104  43.285  19.710   4.223
 6434W        W78105  17.716   5.264   4.004
 6435W        W78106  31.905  24.182  12.436
 6436W        W78107  25.372  10.732   1.783
 6437W        W78108  25.147  28.583  13.358
 6438W        W78109   0.953  23.867  11.044
 6439W        W78110   1.904  34.131  13.106
 6440W        W78111  35.034  13.169   2.272
 6441W        W78112  23.512  26.135  12.968
 6442W        W78113  12.301  35.843  12.117
 6443W        W78114  13.472  20.203   2.229
 6444W        W78115  13.861   7.184   4.746
 6445W        W78116  41.984  31.448   0.550
 6446W        W78117  42.055  17.681   1.905
 6447W        W78118  37.068  15.648  14.489
 6448W        W78119  38.151  26.358  13.745
 6449W        W78120  24.690  27.566   0.252
 6450W        W78121  40.458  12.866  13.397
 6451W        W78122  18.168   7.480   4.094
 6452W        W78123  10.724  22.947  12.395
 6453W        W78124  17.811  28.497  12.957
 6454W        W78125  23.988  29.025   3.196
 6455W        W78126  32.925   7.264   4.981
 6456W        W78127   2.342  42.061   1.224
 6457W        W78128  23.254   5.913  12.512
 6458W        W78129  16.081   2.821   0.329
 6459W        W78130  37.830  19.773   0.894
 6460W        W78131  21.612   1.915   2.018
 6461W        W78132   6.396  43.689   4.647
 6462W        W78133  40.061  34.999  11.208
 6463W        W78134  38.760  28.057  11.042
 6464W        W78135  25.431   9.734   1.688
 6465W        W78136  25.707  12.380  13.328
 6466W        W78137  19.077  28.433   2.757
 6467W        W78138  14.552  11.598  13.525
 6468W        W78139  41.358  11.373  13.442
 6469W        W78140   4.660  27.886   0.295
 6470W        W78141  17.057  42.551   1.290
 6471W        W78142  14.446  37.877   1.645
 6472W        W78143  18.755  40.792   3.310
 6473W        W78144  36.188   9.659   1.873
 6474W        W78145   6.919  13.052   0.676
 6475W        W78146  29.574  33.857   1.846
 6476W        W78147  24.878   3.350  11.180
 6477W        W78148  33.251  25.258   4.131
 6478W        W78149  19.476   0.006  11.384
 6479W        W78150  32.897  32.427  11.953
 6480W        W78151  17.078  41.314  11.460
 6481W        W78152  23.149  12.787  11.659
 6482W        W78153  11.254  24.190   4.592
 6483W        W78154   1.219  37.291   2.098
 6484W        W78155   6.938   2.672  12.033
 6485W        W78156  20.196  37.413   4.875
 6486W        W78157   0.953  10.021  14.544
 6487W        W78158  13.236  44.746  11.811
 6488W        W78159   3.826  18.044   0.910
 6489W        W78160  26.757  30.699   0.912
 6490W        W78161  13.511   4.248   1.808
 6491W        W78162   8.268  32.196  11.339
 6492W        W78163  42.614   0.973  10.916
 6493W        W78164   3.865  30.015  10.926
 6494W        W78165   6.200  41.536  10.209
 6495W        W78166   6.595  20.831  10.683
 6496W        W78167  36.890  18.102   2.846
 6497W        W78168  16.095  27.627  14.887
 6498W        W78169  13.345  16.712   4.741
 6499W        W78170  42.072   0.455   4.227
 6500W        W78171  37.080  43.910  10.677
 6501W        W78172  40.693  32.336  10.446
 6502W        W78173   5.012  24.612   4.211
 6503W        W78174  11.612  13.450   2.374
 6504W        W78175  41.390  42.367  10.892
 6505W        W78176  33.502  14.191   1.356
 6506W        W78177  37.976   0.538   0.484
 6507W        W78178  11.391   6.698  14.013
 6508W        W78179  11.296  30.899   4.510
 6509W        W78180  25.756  43.817  14.657
 6510W        W78181  24.142   1.707   4.596
 6511W        W78182  26.522  19.409  10.670
 6512W        W78183  17.574  32.165  13.219
 6513W        W78184  21.579  23.980  11.047
 6514W        W78185   6.620  39.092  14.456
 6515W        W78186  28.783  32.089   3.138
 6516W        W78187  43.526  33.423  12.899
 6517W        W78188  18.603  24.203  13.444
 6518W        W78189  36.613  24.058  12.780
 6519W        W78190  32.392   1.929   3.703
 6520W        W78191   7.312   3.437  12.122
 6521W        W78192  36.178  36.686   0.270
 6522W        W78193  30.673   0.528  12.561
 6523W        W78194  35.463  32.559   4.681
 6524W        W78195  18.519   2.399   1.376
 6525W        W78196  35.293  26.995  11.685
 6526W        W78197   1.175  12.763   4.103
 6527W        W78198  35.915  38.648   4.137
 6528W        W78199  20.806  32.560   3.684
 6529W        W78200  23.130   3.756   4.550
 6530W        W78201  28.028   3.402  14.922
 6531W        W78202  30.114  27.732   1.175
 6532W        W78203  36.556  12.323   1.140
 6533W        W78204  32.121   7.195   4.813
 6534W        W78205  38.931  36.877   0.168
 6535W        W78206  31.984  18.167  11.927
 6536W        W78207   3.751   0.748  13.376
 6537W        W78208  12.776  41.009   3.607
 6538W        W78209   5.247  25.730  13.967
 6539W        W78210  36.094  12.777  13.348
 6540W        W78211  21.435  39.316   3.983
 6541W        W78212  17.780  22.606   3.653
 6542W        W78213  29.475  39.416  14.544
 6543W        W78214   0.539  14.368   0.488
 6544W        W78215   4.885  33.034  11.023
 6545W        W78216  43.241  31.690   3.186
 6546W        W78217  19.215   0.225   1.707
 6547W        W78218  17.610  44.302   1.106
 6548W        W78219  15.648  39.103  11.626
 6549W        W78220   4.173  22.072   3.333
 6550W        W78221   6.461  28.100   0.838
 6551W        W78222  36.430  36.529  11.055
 6552W        W78223  35.134  26.925   2.284
 6553W        W78224  35.366  17.787   0.498
 6554W        W78225  23.980  16.578   0.031
 6555W        W78226  39.916   5.604   1.804
 6556W        W78227   7.125   0.788   2.748
 6557W        W78228  31.165  44.110   2.206
 6558W        W78229   5.374  29.676   1.331
 6559W        W78230  38.596  29.194   4.076
 6560W        W78231  38.414  13.321   3.243
 6561W        W78232   4.014  44.713  11.115
 6562W        W78233  25.749   2.453   0.401
 6563W        W78234  13.939  22.088   1.223
 6564W        W78235  37.411  19.000   2.421
 6565W        W78236  44.144  23.250  11.064
 6566W        W78237   2.908  39.601  10.694
 6567W        W78238  26.585  20.514  12.986
 6568W        W78239  27.985  23.604  12.805
 6569W        W78240   5.111  44.760  13.655
 6570W        W78241  40.380  20.278   1.051
 6571W        W78242  34.612  14.348  11.467
 6572W        W78243   4.481  35.499   0.033
 6573W        W78244   4.307  36.375   4.690
 6574W        W78245  30.951   0.431   4.678
 6575W        W78246  13.547  28.917   5.006
 6576W        W78247  27.618  31.615   3.457
 6577W        W78248  21.491  34.172  13.492
 6578W        W78249   7.962   6.259  10.731
 6579W        W78250   0.312  35.063  12.079
 6580W        W78251   4.723  23.483  12.111
 6581W        W78252  29.078  26.903  11.701
 6582W        W78253  13.688   3.982  14.970
 6583W        W78254  19.538  37.037   3.227
 6584W        W78255  39.283  41.951  13.865
 6585W        W78256   6.031  40.395   0.092
 6586W        W78257  26.289  28.342  11.797
 6587W        W78258  40.024  14.410  14.314
 6588W        W78259   6.430  39.511   0.420
 6589W        W78260  34.079   7.427   1.890
 6590W        W78261   6.735  14.239   2.498
 6591W        W78262  38.111  21.668   3.680
 6592W        W78263  15.773   8.815   1.086
 6593W        W78264  37.865  24.476   1.118
 6594W        W78265  39.070   3.224   4.669
 6595W        W78266  26.135   8.231  10.351
 6596W        W78267  22.154  10.792  10.717
 6597W        W78268  20.750  41.800  13.069
 6598W        W78269  43.745  32.798   2.675
 6599W        W78270   7.931  23.570   3.814
 6600W        W78271   4.833  38.191   0.495
 6601W        W78272  21.980   5.368   2.499
 6602W        W78273  18.252  31.994  12.557
 6603W        W78274  29.557  26.321   2.924
 6604W        W78275  24.912   2.260   0.936
 6605W        W78276   8.643  27.097   4.673
 6606W        W78277  33.055  10.775  12.529
 6607W        W78278   2.772  19.655  12.505
 6608W        W78279   0.818  21.655   3.631
 6609W        W78280  42.466  33.125  13.651
 6610W        W78281   7.591  22.787   4.340
 6611W        W78282   0.557   4.312   4.822
 6612W        W78283  30.102  43.909   0.257
 6613W        W78284  42.810   0.520  11.679
 6614W        W78285   5.410  17.337  12.483
 6615W        W78286   2.993   7.699  14.923
 6616W        W78287   4.873  30.088  10.664
 6617W        W78288  18.542  41.414  11.562
 6618W        W78289  40.606  39.770  14.232
 6619W        W78290  27.233  23.753   2.812
 6620W        W78291  41.446  32.953  13.599
 6621W        W78292  19.201   9.858   4.706
 6622W        W78293   8.409  39.172  11.235
 6623W        W78294   6.463  10.868   0.395
 6624W        W78295   6.370  16.963  13.942
 6625W        W78296  36.087  10.945  11.703
 6626W        W78297  20.141   9.204   4.423
 6627W        W78298  27.949  13.826   1.671
 6628W        W78299  11.765   1.160   0.391
 6629W        W78300   0.886   8.424   4.709
 6630W        W78301   0.311  36.528   1.196
 6631W        W78302   1.670  33.705  11.959
 6632W        W78303  44.473  33.081  10.704
 6633W        W78304  40.420  37.871   0.984
 6634W        W78305  29.042  22.841  12.618
 6635W        W78306  39.478  27.138  14.315
 6636W        W78307   6.158  44.442  11.922
 6637W        W78308   0.476  42.664  11.848
 6638W        W78309   8.154  12.043   1.491
 6639W        W78310  42.487   1.296   4.117
 6640W        W78311  17.367   7.820   1.846
 6641W        W78312  44.635  25.659   2.765
 6642W        W78313  19.149  30.955  11.930
 6643W        W78314  16.426  18.007  14.834
 6644W        W78315  17.264   1.490   0.432
 6645W        W78316  22.446  27.293  12.518
 6646W        W78317  22.812  13.712  10.728
 6647W        W78318  36.830   2.264   1.953
 6648W        W78319  31.978  41.830   0.998
 6649W        W78320   7.482   1.897   0.445
 6650W        W78321  24.717  20.742  10.176
 6651W        W78322   3.534  18.981   1.446
 6652W        W78323  25.049  37.959   3.160
 6653W        W78324  11.212  15.663  13.058
 6654W        W78325  43.498  27.018   0.927
 6655W        W78326  13.849  42.145  12.291
 6656W        W78327  29.071  44.070  13.408
 6657W        W78328  41.473   6.312   0.785
 6658W        W78329  43.210  44.857  13.909
 6659W        W78330  44.951  23.975  14.335
 6660W        W78331  44.737  20.722   9.797
 6661W        W78332  31.897  20.242   0.782
 6662W        W78333  35.954  27.238   1.812
 6663W        W78334  33.585  32.520   4.044
 6664W        W78335   2.911  42.215  13.468
 6665W        W78336  11.571  17.196   3.588
 6666W        W78337  12.188  10.413  13.495
 6667W        W78338  14.766  13.755   2.368
 6668W        W78339  24.158  11.867  10.611
 6669W        W78340   2.424  17.818  11.157
 6670W        W78341   4.513   3.395   2.845
 6671W        W78342  26.508  37.471   4.492
 6672W        W78343  17.457  22.003   1.877
 6673W        W78344   4.479  26.131   4.080
 6674W        W78345  40.524  44.414   2.790
 6675W        W78346  41.097  31.874   0.290
 6676W        W78347  33.113  14.771  11.944
 6677W        W78348   1.690  29.216  14.677
 6678W        W78349  17.265  32.181   4.052
 6679W        W78350  42.510  11.738  11.722
 6680W        W78351   3.794  17.880  13.531
 6681W        W78352   4.391  24.133   3.180
 6682W        W78353   6.264  38.293   0.814
 6683W        W78354  24.420  10.260  13.935
 6684W        W78355  42.739  42.284   3.936
 6685W        W78356  18.312  30.656  13.043
 6686W        W78357   6.638  21.139  12.321
 6687W        W78358   8.676   4.607  14.402
 6688W        W78359  15.558  11.627  13.283
 6689W        W78360  37.130  21.048   1.999
 6690W        W78361  23.153   3.372  11.722
 6691W        W78362   0.475   2.855  13.795
 6692W        W78363  27.241  38.552   3.428
 6693W        W78364  20.073  32.019   3.655
 6694W        W78365  33.662   6.332  10.467
 6695W        W78366  23.436  13.128  11.068
 6696W        W78367   6.201  34.693  10.760
 6697W        W78368  11.396  38.943   2.807
 6698W        W78369  31.075  37.527   3.027
 6699W        W78370   8.699   4.453  14.908
 6700W        W78371  11.438  12.157  11.637
 6701W        W78372  24.321   8.614   2.735
 6702W        W78373  15.713  44.751   2.411
 6703W        W78374  29.359  41.973   2.582
 6704W        W78375  26.933  24.061  10.822
 6705W        W78376  25.167  28.377   2.239
 6706W        W78377  36.192  21.213  12.895
 6707W        W78378   3.399  15.538  14.493
 6708W        W78379  11.032  39.583  13.494
 6709W        W78380  11.321  21.789   3.150
 6710W        W78381   7.886  22.500  13.065
 6711W        W78382   7.161   7.240  11.565
 6712W        W78383  29.673  43.255   1.239
 6713W        W78384  23.125   5.477   2.768
 6714W        W78385  34.931  29.133  10.156
 6715W        W78386  43.219   1.532   0.177
 6716W        W78387  44.364   8.797  14.211
 6717W        W78388  12.162   4.653  13.258
 6718W        W78389  14.715  14.695  12.712
 6719W        W78390   2.251  34.911  12.181
 6720W        W78391  20.521  22.647   4.814
 6721W        W78392  14.145   2.283   3.660
 6722W        W78393  22.961  43.945  13.431
 6723W        W78394   6.621  33.101   2.534
 6724W        W78395   0.499   3.419  11.523
 6725W        W78396   7.880  38.310   1.413
 6726W        W78397  10.422  31.564   3.775
 6727W        W78398  27.950  38.345   4.145
 6728W        W78399  42.543  31.167  14.533
 6729W        W78400  38.869  37.330  11.478
 6730W        W78401  21.536  12.155  14.327
 6731W        W78402  28.759  28.413  12.512
 6732W        W78403  34.093   0.320  12.457
 6733W        W78404  31.034   9.604  13.444
 6734W        W78405  31.133  29.599  12.929
 6735W        W78406   8.180   7.141  13.391
 6736W        W78407  26.690  28.939  13.774
 6737W        W78408   9.115  34.540   0.047
 6738W        W78409  29.562  41.514   5.087
 6739W        W78410  30.850  28.656   1.748
 6740W        W78411  30.924  22.214  12.078
 6741W        W78412   1.018  10.814   0.425
 6742W        W78413  28.639  40.438  11.641
 6743W        W78414  19.979   0.786  13.784
 6744W        W78415  19.168  23.406  13.528
 6745W        W78416  32.888   3.169  12.521
 6746W        W78417  20.246   2.240   0.983
 6747W        W78418  20.533  29.597   0.408
 6748W        W78419  24.033  28.789  14.009
 6749W        W78420  35.619  39.268   9.896
 6750W        W78421  22.567  19.833   4.278
 6751W        W78422  27.646  22.841  11.061
 6752W        W78423   3.422  36.510   0.396
 6753W        W78424  23.080   4.555   4.089
 6754W        W78425  41.431  29.044  14.903
 6755W        W78426   3.641  12.885   1.350
 6756W        W78427  22.099   5.325  13.460
 6757W        W78428   7.232  32.473   0.794
 6758W        W78429  31.454  42.790  11.935
 6759W        W78430  36.372  27.765  10.976
 6760W        W78431  23.050   2.317   3.650
 6761W        W78432  25.116  20.484  12.090
 6762W        W78433  13.257   3.065  13.843
 6763W        W78434   8.872  15.281   0.337
 6764W        W78435   6.407  32.689   3.281
 6765W        W78436  13.256  17.214   2.178
 6766W        W78437  43.047  26.982  13.889
 6767W        W78438   3.012  16.009   2.831
 6768W        W78439   7.200   5.217   0.435
 6769W        W78440  28.510  43.452  14.239
 6770W        W78441  32.152  18.637  12.077
 6771W        W78442  15.976  44.849   1.340
 6772W        W78443  17.659   6.878   3.733
 6773W        W78444  33.487   2.949  12.032
 6774W        W78445  42.366   3.841   4.600
 6775W        W78446   0.956   6.711   3.538
 6776W        W78447   3.648   9.113   2.184
 6777W        W78448  28.207  15.617  10.993
 6778W        W78449  36.573  26.090   0.390
 6779W        W78450  11.724   6.799  13.086
 6780W        W78451  17.684  33.341  14.051
 6781W        W78452  42.947   2.932   4.406
 6782W        W78453  35.367  44.769  10.455
 6783W        W78454  16.808   5.274   0.364
 6784W        W78455   2.824   8.549  14.476
 6785W        W78456  40.732   0.278  14.142
 6786W        W78457   2.954  17.544  11.928
 6787W        W78458  33.940  18.161  12.068
 6788W        W78459  18.107  37.306  13.769
 6789W        W78460  31.333  11.897   3.292
 6790W        W78461  37.139  15.216   3.546
 6791W        W78462  32.407  18.366  11.628
 6792W        W78463  37.159  16.274   0.782
 6793W        W78464  22.160  28.197   1.979
 6794W        W78465   4.954   5.265  12.029
 6795W        W78466  18.070   6.203   4.275
 6796W        W78467  40.292   6.785   2.921
 6797W        W78468  11.481   7.898   3.602
 6798W        W78469  18.695   0.758   0.847
 6799W        W78470  21.289   3.158  12.481
 6800W        W78471  30.625  36.014  14.760
 6801W        W78472  12.318  39.325  14.645
 6802W        W78473  39.943  13.701   3.718
 6803W        W78474  20.684  17.526   0.796
 6804W        W78475  36.768   8.521  14.259
 6805W        W78476   6.236  36.132   3.310
 6806W        W78477  15.677  20.801   5.203
 6807W        W78478  25.452   4.363   2.551
 6808W        W78479   1.900   0.408  13.910
 6809W        W78480  15.863   9.823   3.814
 6810W        W78481  36.942   1.092  14.525
 6811W        W78482  10.581  22.105  11.995
 6812W        W78483   6.139  30.123   2.618
 6813W        W78484   3.711  38.472   3.965
 6814W        W78485  25.986  16.110   4.088
 6815W        W78486  30.148   3.585   2.790
 6816W        W78487  32.599  25.698   0.241
 6817W        W78488  28.960  27.938  12.476
 6818W        W78489  35.406   7.721  11.546
 6819W        W78490  24.599  18.280   2.350
 6820W        W78491   4.291  41.822  13.989
 6821W        W78492  38.055   4.737   1.446
 6822W        W78493  24.448   1.258   0.684
 6823W        W78494  34.593  19.002  11.040
 6824W        W78495  39.060  25.626   5.358
 6825W        W78496  27.266   5.303  13.999
 6826W        W78497  13.323  32.938  14.249
 6827W        W78498  32.932  21.747  11.395
 6828W        W78499  44.383  19.014  12.341
 6829W        W78500  44.761  27.799  12.469
 6830W        W78501  22.231  36.570  11.173
 6831W        W78502  15.119  24.195   2.047
 6832W        W78503  35.620  39.088   3.361
 6833W        W78504   7.737  10.825  12.363
 6834W        W78505   6.708  36.090   0.302
 6835W        W78506   6.472  10.203  12.478
 6836W        W78507   2.492  42.218   4.081
 6837W        W78508  38.892  21.805  11.484
 6838W        W78509   8.271  35.899   2.727
 6839W        W78510  36.112   4.804  11.613
 6840W        W78511   3.442  38.967  14.752
 6841W        W78512   4.781  13.454  13.083
 6842W        W78513   6.428  14.257   1.195
 6843W        W78514  42.325  12.595  14.219
 6844W        W78515  11.625  17.064   0.307
 6845W        W78516  36.794  30.581  14.068
 6846W        W78517  30.316  11.013   4.138
 6847W        W78518   5.401  23.299   2.201
 6848W        W78519  27.961  43.871   2.299
 6849W        W78520  33.276  28.496   3.658
 6850W        W78521  31.606  30.511   4.649
 6851W        W78522  26.763   0.298  11.622
 6852W        W78523   4.215  18.655  11.051
 6853W        W78524  26.005  37.390   4.423
 6854W        W78525  15.708   5.774   1.220
 6855W        W78526  34.109  30.376  12.900
 6856W        W78527  18.166  34.921   0.269
 6857W        W78528  13.677   0.291  14.778
 6858W        W78529  12.920  13.266  14.554
 6859W        W78530  22.037   4.369   4.771
 6860W        W78531   4.052  27.575   4.611
 6861W        W78532  42.255  26.723  14.302
 6862W        W78533  23.956  23.421   0.171
 6863W        W78534   3.211   4.830  12.513
 6864W        W78535  33.590  11.196  12.202
 6865W        W78536   0.546  28.211  13.750
 6866W        W78537  18.151  13.354  12.118
 6867W        W78538  23.632  36.476  14.775
 6868W        W78539  41.917  43.226   3.598
 6869W        W78540  37.387   1.227   0.249
 6870W        W78541  24.190  21.771  11.411
 6871W        W78542  30.977  44.613   4.465
 6872W        W78543  16.827  20.709   3.727
 6873W        W78544  42.555  40.706   4.980
 6874W        W78545  15.679  12.772  13.050
 6875W        W78546  17.362   6.475  14.323
 6876W        W78547  25.895  31.026  14.300
 6877W        W78548   1.886   0.745  12.500
 6878W        W78549  21.037   6.776  12.494
 6879W        W78550  13.803  22.772  13.579
 6880W        W78551  16.853  31.280  12.039
 6881W        W78552  44.266  22.096   9.932
 6882W        W78553   5.932  12.339   3.321
 6883W        W78554  26.092   1.944  14.464
 6884W        W78555   6.360   3.314  13.485
 6885W        W78556   3.990  19.696  13.788
 6886W        W78557  23.585  17.158   3.012
 6887W        W78558  35.200  16.713   2.728
 6888W        W78559   0.030  14.062   9.956
 6889W        W78560   6.375  37.497   2.453
 6890W        W78561   9.936  43.991   3.614
 6891W        W78562  34.614  20.329  14.465
 6892W        W78563  28.997  21.312   0.861
 6893W        W78564  44.294   8.204   4.091
 6894W        W78565  14.819  33.383  13.470
 6895W        W78566  31.735  18.752   2.615
 6896W        W78567   5.154   2.402   0.735
 6897W        W78568  14.846   3.715  14.081
 6898W        W78569   1.789  40.547   1.593
 6899W        W78570  43.394  36.783  10.982
 6900W        W78571  43.842  20.517  13.018
 6901W        W78572   6.661  18.221   0.351
 6902W        W78573  36.546   2.024   4.621
 6903W        W78574   7.990  11.817  13.270
 6904W        W78575  35.359  13.888  10.733
 6905W        W78576  24.185  23.464  11.879
 6906W        W78577  36.536  16.959   1.755
 6907W        W78578  30.908  24.637   4.788
 6908W        W78579  28.735  36.047   4.650
 6909W        W78580  20.198  17.338   0.901
 6910W        W78581  18.897  28.176   1.775
 6911W        W78582  22.331  39.912  10.227
 6912W        W78583  11.143  31.123  13.108
 6913W        W78584   2.218   9.440  12.776
 6914W        W78585  26.394   3.114  10.323
 6915W        W78586  30.531  11.397  12.049
 6916W        W78587  24.545  20.556   4.698
 6917W        W78588  36.909   0.825  11.513
 6918W        W78589  39.318   0.828  13.100
 6919W        W78590   6.447  35.875   3.725
 6920W        W78591   9.700  24.079  13.737
 6921W        W78592  11.563   2.745   3.249
 6922W        W78593  37.018  40.684   4.688
 6923W        W78594   1.925  31.031  14.782
 6924W        W78595   0.785   2.197  14.403
 6925W        W78596  14.913  30.836   0.860
 6926W        W78597  17.556  13.259   0.694
 6927W        W78598   4.322  33.594   4.883
 6928W        W78599   9.595   1.234   3.839
 6929W        W78600  21.216  23.701   2.356
 6930W        W78601   8.787  31.410   4.736
 6931W        W78602  41.376  35.487  13.408
 6932W        W78603   1.967   4.431  14.375
 6933W        W78604  27.869  24.085  13.561
 6934W        W78605  15.550  39.463  14.769
 6935W        W78606  19.163  11.827  10.940
 6936W        W78607   1.143  31.497  11.368
 6937W        W78608   7.211  15.266  12.493
 6938W        W78609  22.237  40.808   0.331
 6939W        W78610  26.899  25.062   0.351
 6940W        W78611  43.307  18.091   3.653
 6941W        W78612  15.082  24.720  14.404
 6942W        W78613  15.873  24.219  14.302
 6943W        W78614  44.685  31.550  13.115
 6944W        W78615   4.818   9.645   4.725
 6945W        W78616   9.561  35.568   1.388
 6946W        W78617  36.821  19.084   0.353
 6947W        W78618  17.144  31.830  14.378
 6948W        W78619  13.692  28.395  11.179
 6949W        W78620  38.006  14.738   0.818
 6950W        W78621   0.844   1.237  12.843
 6951W        W78622  15.665  30.039   4.595
 6952W        W78623  42.526  34.341  11.211
 6953W        W78624  20.650  34.945  11.518
 6954W        W78625  28.921   3.250  13.988
 6955W        W78626  24.676   5.505  13.317
 6956W        W78627  38.022  28.199  13.040
 6957W        W78628  29.944  20.266  11.133
 6958W        W78629  44.012  36.656  11.981
 6959W        W78630  44.244  24.627   2.736
 6960W        W78631  15.194  24.266  12.528
 6961W        W78632  23.104   1.370   1.777
 6962W        W78633  39.170  42.712   3.533
 6963W        W78634  21.157  20.084  11.112
 6964W        W78635  38.537  21.862   2.878
 6965W        W78636   2.649  29.863   2.612
 6966W        W78637  34.887   2.326   3.120
 6967W        W78638  44.760  26.128   3.738
 6968W        W78639  14.312  10.172  14.048
 6969W        W78640  35.460  36.474   2.664
 6970W        W78641  29.601   3.851   0.783
 6971W        W78642  41.317   6.762   2.745
 6972W        W78643  34.405   3.244   2.148
 6973W        W78644  44.471  35.033   4.076
 6974W        W78645   9.184  30.462   0.772
 6975W        W78646  25.588   8.409  12.519
 6976W        W78647  40.294  13.157   2.805
 6977W        W78648  27.093  10.823  11.861
 6978W        W78649  41.432  25.621   3.198
 6979W        W78650  36.021  12.940  14.812
 6980W        W78651   6.215   3.272   4.511
 6981W        W78652  18.545   9.132  12.951
 6982W        W78653  32.513  15.778   4.330
 6983W        W78654  21.059   6.661   3.323
 6984W        W78655   1.432  44.896   3.251
 6985W        W78656  22.276  23.061  12.469
 6986W        W78657   4.787   7.959  13.404
 6987W        W78658  24.175   6.389   1.737
 6988W        W78659   8.888  43.402   2.514
 6989W        W78660   1.008  31.332   1.799
 6990W        W78661  28.726  28.048   2.133
 6991W        W78662  24.190  27.676  12.356
 6992W        W78663  13.352  18.128  14.539
 6993W        W78664  41.189  25.475   0.823
 6994W        W78665  35.933  35.644   2.274
 6995W        W78666  17.691   9.453  11.027
 6996W        W78667  24.603  21.465  14.269
 6997W        W78668  11.161  10.697   1.825
 6998W        W78669  14.592   1.043  10.253
 6999W        W78670  14.272   2.926  12.859
 7000W        W78671  13.260  13.718  11.340
 7001W        W78672  10.020  13.665   0.749
 7002W        W78673  38.767  28.482   2.738
 7003W        W78674  43.343  13.849  10.099
 7004W        W78675   5.976  42.073   2.667
 7005W        W78676   8.178  40.868  13.030
 7006W        W78677  39.795  40.426   0.677
 7007W        W78678  41.994  33.663  12.078
 7008W        W78679  37.947  11.605   3.695
 7009W        W78680  15.176  38.732  13.109
 7010W        W78681   5.814   5.275  12.898
 7011W        W78682  17.142  24.598   2.341
 7012W        W78683  25.543  36.336  13.228
 7013W        W78684  21.545  12.679   3.697
 7014W        W78685  39.311  15.988   3.246
 7015W        W78686  38.502   3.116   3.638
 7016W        W78687   8.839   4.744  10.404
 7017W        W78688   1.196  11.393   4.559
 7018W        W78689  31.917  25.375  12.386
 7019W        W78690  25.077  33.428  12.404
 7020W        W78691  30.650  29.967  11.509
 7021W        W78692  39.317  12.086  14.785
 7022W        W78693  20.024   9.602   0.403
 7023W        W78694  43.504  16.622  13.879
 7024W        W78695  42.569  26.642   4.335
 7025W        W78696   6.706  27.169   2.238
 7026W        W78697  32.910  29.684   4.352
 7027W        W78698   8.430  21.673   0.417
 7028W        W78699  16.803  28.493   3.353
 7029W        W78700  16.310   6.456   2.640
 7030W        W78701  39.048  41.279   4.088
 7031W        W78702  24.477   9.376  13.541
 7032W        W78703   4.860  27.445   0.144
 7033W        W78704  38.388  18.296  13.270
 7034W        W78705  10.267  40.237  14.334
 7035W        W78706  16.264  39.836   4.509
 7036W        W78707  10.278   2.449  14.274
 7037W        W78708  39.269  23.550   4.759
 7038W        W78709  35.416  35.920   1.969
 7039W        W78710  22.161  37.044  14.863
 7040W        W78711  31.459  38.836   0.384
 7041W        W78712  41.527  37.598  11.658
 7042W        W78713  18.741   0.357   1.906
 7043W        W78714  40.029  12.164  11.290
 7044W        W78715   4.401  29.088   0.542
 7045W        W78716  20.178   6.243   0.937
 7046W        W78717  18.736  18.743   2.735
 7047W        W78718  35.830   3.698   4.136
 7048W        W78719   2.806   8.403   1.011
 7049W        W78720  33.110  35.445   1.904
 7050W        W78721   7.073   2.268  10.886
 7051W        W78722  43.262  15.711   2.255
 7052W        W78723  25.213   3.423  12.093
 7053W        W78724  19.835  42.290  12.984
 7054W        W78725  40.227  33.066  11.620
 7055W        W78726  33.469  31.369  14.542
 7056W        W78727  23.201  38.178  14.352
 7057W        W78728   7.351   6.701   1.866
 7058W        W78729  29.709  19.068  13.905
 7059W        W78730  32.829  27.950  11.215
 7060W        W78731  27.390  31.988   2.247
 7061W        W78732  20.559  26.470   5.008
 7062W        W78733  33.906  40.517  13.309
 7063W        W78734  11.560  15.643   1.303
 7064W        W78735  37.010   6.573  14.865
 7065W        W78736  34.096  33.795   2.314
 7066W        W78737  37.415  43.090   4.220
 7067W        W78738   2.275  31.688   1.863
 7068W        W78739  24.054  44.536   0.193
 7069W        W78740   1.019  42.301   0.421
 7070W        W78741  35.471   1.274  14.300
 7071W        W78742  19.653  36.438  12.924
 7072W        W78743  18.152  38.713   3.698
 7073W        W78744  27.975  13.664  14.315
 7074W        W78745  31.910  33.436   4.625
 7075W        W78746  11.706   4.316   3.543
 7076W        W78747  25.752  23.772   0.368
 7077W        W78748  11.676  39.376   2.905
 7078W        W78749   7.184  42.815   1.760
 7079W        W78750  10.123  25.923  14.488
 7080W        W78751  43.257  29.358  13.857
 7081W        W78752  31.592   3.535   1.645
 7082W        W78753  36.254  11.801   4.602
 7083W        W78754   1.617  34.874   3.676
 7084W        W78755  40.789  20.286  12.070
 7085W        W78756   8.852  40.753  11.549
 7086W        W78757  29.632  39.374  13.028
 7087W        W78758   8.357  25.549  12.202
 7088W        W78759  25.685  25.699   2.299
 7089W        W78760  35.376  30.608  13.592
 7090W        W78761  40.909   7.531   4.139
 7091W        W78762   0.542  16.826   3.154
 7092W        W78763  28.034  30.647   1.847
 7093W        W78764  24.545  17.137  14.399
 7094W        W78765  38.599  37.509  11.060
 7095W        W78766  42.462  35.372  11.190
 7096W        W78767  18.358  35.024   3.277
 7097W        W78768  34.268  38.111   0.317
 7098W        W78769  29.930  10.272  10.165
 7099W        W78770   3.717  14.154  11.139
 7100W        W78771  33.499   0.955  11.328
 7101W        W78772  20.221  12.345  13.367
 7102W        W78773  21.995  12.779  14.064
 7103W        W78774  35.508  29.849   3.230
 7104W        W78775   5.035  39.350  14.040
 7105W        W78776  40.047  21.163   4.663
 7106W        W78777   6.492  40.954  12.165
 7107W        W78778  24.374  22.132  12.866
 7108W        W78779  43.861  30.996  10.834
 7109W        W78780  21.669  22.584   1.144
 7110W        W78781  32.352  39.461  11.975
 7111W        W78782  19.043   6.757  13.065
 7112W        W78783  14.045  25.216   3.689
 7113W        W78784   9.091   1.244   3.669
 7114W        W78785  26.356  29.230   3.690
 7115W        W78786  41.380  30.294   1.953
 7116W        W78787  15.403   3.217   1.383
 7117W        W78788  32.316  42.971  10.708
 7118W        W78789  30.273   4.050  13.375
 7119W        W78790  27.974  33.535   0.758
 7120W        W78791  15.575   9.490  11.465
 7121W        W78792  28.661  27.410  14.463
 7122W        W78793   2.920  21.494  11.589
 7123W        W78794   4.004  24.622  11.584
 7124W        W78795  21.329  16.979  11.648
 7125W        W78796  42.337  17.396   4.278
 7126W        W78797  38.071  39.041   0.699
 7127W        W78798   3.903  35.311   4.235
 7128W        W78799  28.424   1.510  11.905
 7129W        W78800  27.083   5.422   0.376
 7130W        W78801  37.771   9.870   3.915
 7131W        W78802  23.090   0.660   0.372
 7132W        W78803  39.059  24.442  10.966
 7133W        W78804   4.561  29.645  11.024
 7134W        W78805  23.768   2.751   0.923
 7135W        W78806  11.825   2.697  14.254
 7136W        W78807  30.034   4.140   1.436
 7137W        W78808   0.772   4.296  12.014
 7138W        W78809  20.213  25.168   2.882
 7139W        W78810  16.857   4.228  14.537
 7140W        W78811  15.780  19.175  13.484
 7141W        W78812  40.555  22.779  12.049
 7142W        W78813  21.744  12.665  10.678
 7143W        W78814  22.085   6.131   0.838
 7144W        W78815  16.193  43.273  10.693
 7145W        W78816   3.768  21.954  12.518
 7146W        W78817   5.816  29.150   1.895
 7147W        W78818  31.913  15.082   0.889
 7148W        W78819  37.756  12.607   4.056
 7149W        W78820  18.110  41.063   1.313
 7150W        W78821  35.622  34.874  13.363
 7151W        W78822  12.102  36.390   0.260
 7152W        W78823  28.096  24.753  10.962
 7153W        W78824   9.407  25.366   1.603
 7154W        W78825  13.695  31.996   0.762
 7155W        W78826  14.020   2.392   4.559
 7156W        W78827   3.893   0.663  10.977
 7157W        W78828  15.479  21.109   2.306
 7158W        W78829  40.618  28.031   3.722
 7159W        W78830  11.851  37.409   0.894
 7160W        W78831  43.290  40.763  12.875
 7161W        W78832  35.052  40.852   2.880
 7162W        W78833  37.435  42.489   3.297
 7163W        W78834  25.517  15.954  14.880
 7164W        W78835  19.120  15.784   2.166
 7165W        W78836  30.499   8.745  10.453
 7166W        W78837  13.961  19.488  13.477
 7167W        W78838  42.034  29.568   4.556
 7168W        W78839   5.601  15.029   4.594
 7169W        W78840  32.467  17.804   2.541
 7170W        W78841   4.497  24.077   4.535
 7171W        W78842  36.875  13.307   0.235
 7172W        W78843  14.149  14.760  12.028
 7173W        W78844   1.248  35.426   1.357
 7174W        W78845  38.139  30.444  11.624
 7175W        W78846  42.332  22.178   0.772
 7176W        W78847  32.667  36.357  14.392
 7177W        W78848  29.497  40.731  13.466
 7178W        W78849  23.538  22.580   3.195
 7179W        W78850  17.775   4.252  11.568
 7180W        W78851  20.703  19.198   3.359
 7181W        W78852  36.509  44.289  11.954
 7182W        W78853  17.359  33.717   0.782
 7183W        W78854  30.506  15.322   4.498
 7184W        W78855  18.290  30.429   2.243
 7185W        W78856  10.540   1.663  13.043
 7186W        W78857  39.457  13.920   2.243
 7187W        W78858  27.669  32.190   4.315
 7188W        W78859  12.213  36.299  12.402
 7189W        W78860   9.528  12.198  12.473
 7190W        W78861  15.120  41.702  14.443
 7191W        W78862   5.732  27.050   1.504
 7192W        W78863  14.493  20.752   2.903
 7193W        W78864  31.914  32.036  12.235
 7194W        W78865  37.387  21.746   4.154
 7195W        W78866  40.978  21.226  10.670
 7196W        W78867  28.083   1.954  13.986
 7197W        W78868  31.041  20.351   3.190
 7198W        W78869  23.870  32.974  12.538
 7199W        W78870  34.265  35.467  12.297
 7200W        W78871  42.952  34.345  11.566
 7201W        W78872  32.203   1.880  11.895
 7202W        W78873  11.223   4.533   0.392
 7203W        W78874  30.413  38.583  14.881
 7204W        W78875  31.178  30.237   2.837
 7205W        W78876  19.037  23.767  11.777
 7206W        W78877  19.080   7.288  11.962
 7207W        W78878   8.257  26.676   0.185
 7208W        W78879  23.404  22.547   2.232
 7209W        W78880  37.114  40.528   0.159
 7210W        W78881   4.213   0.447  12.402
 7211W        W78882  13.861   0.940  12.035
 7212W        W78883  43.845  44.601   3.619
 7213W        W78884  44.784  32.023  12.016
 7214W        W78885  29.664  14.744   2.390
 7215W        W78886  22.026  40.400  12.431
 7216W        W78887  35.595  19.493  10.670
 7217W        W78888  36.341  43.826   4.153
 7218W        W78889   1.247  19.245   3.960
 7219W        W78890   3.435  15.104  11.587
 7220W        W78891  40.566  21.027  12.431
 7221W        W78892  44.165   5.785  12.076
 7222W        W78893  22.752  40.729   2.863
 7223W        W78894  25.112  44.185  10.377
 7224W        W78895  21.269  34.397   0.344
 7225W        W78896   1.892  20.163  11.129
 7226W        W78897  33.332  25.653  12.510
 7227W        W78898  44.722  29.092  10.528
 7228W        W78899  10.639  23.347   0.679
 7229W        W78900   4.471   8.474   4.124
 7230W        W78901  25.671   6.621  12.114
 7231W        W78902  16.683  43.781   2.311
 7232W        W78903   2.987  42.984   3.276
 7233W        W78904   9.521  14.022   5.039
 7234W        W78905  37.664  32.507   3.755
 7235W        W78906  31.037   8.918  14.050
 7236W        W78907   0.013  17.947  12.063
 7237W        W78908  33.433  16.049   1.008
 7238W        W78909   2.522  30.564  14.516
 7239W        W78910  27.881  19.493  11.973
 7240W        W78911  32.076  21.019  11.102
 7241W        W78912  21.001  21.014  11.065
 7242W        W78913   3.382  24.805   2.236
 7243W        W78914   4.502  22.111  11.072
 7244W        W78915  21.288  26.474  14.642
 7245W        W78916   6.883  26.950  14.598
 7246W        W78917  38.710  10.046  10.117
 7247W        W78918  31.871  13.994   4.677
 7248W        W78919  14.200  15.388  13.583
 7249W        W78920   1.416  33.659   0.679
 7250W        W78921   8.409  34.882  10.447
 7251W        W78922   2.297  16.113  12.123
 7252W        W78923  42.101  14.199   4.549
 7253W        W78924  22.309  37.884  12.014
 7254W        W78925   8.295  14.066   0.296
 7255W        W78926  17.178  27.448  11.147
 7256W        W78927  31.455  20.506   0.837
 7257W        W78928   8.142  28.963   0.894
 7258W        W78929   8.325  44.784   4.545
 7259W        W78930  39.342  34.888   4.081
 7260W        W78931   1.903   4.791  11.611
 7261W        W78932   8.437  17.073   3.280
 7262W        W78933  43.077  14.738  12.943
 7263W        W78934   3.456  31.450  12.402
 7264W        W78935  29.581  35.356  12.416
 7265W        W78936  34.942  18.837   3.245
 7266W        W78937  22.100  33.807   2.258
 7267W        W78938  37.351  42.181   4.661
 7268W        W78939  30.675   7.521  14.927
 7269W        W78940  23.621  28.987   4.842
 7270W        W78941  37.095   2.127  11.233
 7271W        W78942  31.556  22.597  13.449
 7272W        W78943  25.736  36.279   1.880
 7273W        W78944   2.442  37.447  11.930
 7274W        W78945  26.072   5.630   0.259
 7275W        W78946  39.708  18.531  13.394
 7276W        W78947  38.767   1.442   3.969
 7277W        W78948  19.739   7.154  12.806
 7278W        W78949  26.171  14.293  11.112
 7279W        W78950  19.369  14.214   5.001
 7280W        W78951  41.227  11.595   4.216
 7281W        W78952   1.730  11.092  13.066
 7282W        W78953  14.273  14.828   0.004
 7283W        W78954  41.280  38.717   0.422
 7284W        W78955  34.992   9.325  10.793
 7285W        W78956  21.204  18.973   2.192
 7286W        W78957  11.772   0.530   4.512
 7287W        W78958   2.777   3.017  10.635
 7288W        W78959  12.398  15.153  10.750
 7289W        W78960  39.994  42.449   2.452
 7290W        W78961  13.261   0.960   4.180
 7291W        W78962  36.582   6.919   0.748
 7292W        W78963   3.864  17.317   3.622
 7293W        W78964  37.584  11.055  10.650
 7294W        W78965   5.317   3.179   0.377
 7295W        W78966  20.337  13.694  13.291
 7296W        W78967   7.359   3.622  13.454
 7297W        W78968  35.622  36.869  10.965
 7298W        W78969  18.112  10.636  11.628
 7299W        W78970  41.852  34.909  10.691
 7300W        W78971  17.127   7.736  11.871
 7301W        W78972  43.373  18.558  12.254
 7302W        W78973  42.316  10.685   3.095
 7303W        W78974  35.337  24.536  12.815
 7304W        W78975  19.562  34.635  12.542
 7305W        W78976  26.585  25.710   4.730
 7306W        W78977   9.533  26.785  10.859
 7307W        W78978  36.101   3.212   4.144
 7308W        W78979   3.306  22.054   0.297
 7309W        W78980  44.345  26.947   0.259
 7310W        W78981   3.729  33.045  13.915
 7311W        W78982  15.927  24.628  11.181
 7312W        W78983  12.283  22.259   3.874
 7313W        W78984   9.626  29.133  12.450
 7314W        W78985   5.411   7.434  14.941
 7315W        W78986  40.581  19.225   1.921
 7316W        W78987  44.258  32.064  12.009
 7317W        W78988  30.424  35.824  13.904
 7318W        W78989   1.251  36.992  11.046
 7319W        W78990  34.669  39.029  10.955
 7320W        W78991  20.328  13.701  12.789
 7321W        W78992   6.771   6.800  14.329
 7322W        W78993  10.296  40.021  11.766
 7323W        W78994   6.262  31.457   2.459
 7324W        W78995  36.012  41.788  13.557
 7325W        W78996  22.581  28.602  11.597
 7326W        W78997  35.864  13.294   0.172
 7327W        W78998  37.040  37.074  11.462
 7328W        W78999  14.191  34.518  13.897
 7329W        W79000  38.893  18.991   4.204
 7330W        W79001   3.454  35.488  12.143
 7331W        W79002  23.219  41.886  10.741
 7332W        W79003  34.603  38.362  13.134
 7333W        W79004   4.423  36.177  13.088
 7334W        W79005   4.422  19.502   1.280
 7335W        W79006  40.785  25.777   0.412
 7336W        W79007  15.160  10.175   1.245
 7337W        W79008  22.678   0.377   0.207
 7338W        W79009  19.551  17.679   3.243
 7339W        W79010  29.117  28.415   2.279
 7340W        W79011  36.460  13.603   2.811
 7341W        W79012  37.933  40.285   2.673
 7342W        W79013  38.313   5.109   4.600
 7343W        W79014  23.982  14.205   2.238
 7344W        W79015  17.246  44.275   4.244
 7345W        W79016  16.205  18.161  11.975
 7346W        W79017  11.901  10.467  13.939
 7347W        W79018   2.912  27.634   2.346
 7348W        W79019   7.539  37.158   0.003
 7349W        W79020  20.273  38.953   1.503
 7350W        W79021  40.619   8.705   1.350
 7351W        W79022   4.884  28.357  11.525
 7352W        W79023   4.715   5.286  12.906
 7353W        W79024  17.392   3.801   3.858
 7354W        W79025  20.243  32.943   1.821
 7355W        W79026   7.014   2.117   2.579
 7356W        W79027   4.781  13.440   5.156
 7357W        W79028  18.981  34.574  10.731
 7358W        W79029  33.390  10.162  12.743
 7359W        W79030  13.720  31.732   1.414
 7360W        W79031   8.942  20.727   1.766
 7361W        W79032   6.956  25.664   2.824
 7362W        W79033  17.081  42.408   0.278
 7363W        W79034  28.189   0.989  11.878
 7364W        W79035   8.915   3.952  14.830
 7365W        W79036  30.947  35.326  14.364
 7366W        W79037  18.803   3.095   2.714
 7367W        W79038   5.113  27.136  14.796
 7368W        W79039  29.431  21.465  10.601
 7369W        W79040  44.197  35.643  13.637
 7370W        W79041  28.568  34.702   1.985
 7371W        W79042  39.410  29.934  10.596
 7372W        W79043  18.531   8.236  10.469
 7373W        W79044  36.532  21.043  14.406
 7374W        W79045   5.917   0.322  13.473
 7375W        W79046   6.682  34.486   2.268
 7376W        W79047  10.346  20.315   5.033
 7377W        W79048  22.213   3.738   1.959
 7378W        W79049  27.172  23.797  11.208
 7379W        W79050  25.224  15.602  11.595
 7380W        W79051  12.861  33.576   3.570
 7381W        W79052  13.145   5.792  14.042
 7382W        W79053   5.027   5.231  13.320
 7383W        W79054  35.923  41.740   3.322
 7384W        W79055  15.156  23.927  14.847
 7385W        W79056   7.014  19.700  13.278
 7386W        W79057  34.494  23.182   4.864
 7387W        W79058  22.762  15.163   2.204
 7388W        W79059  33.466  39.470  11.079
 7389W        W79060  12.653  29.714  12.393
 7390W        W79061  36.009  12.860  11.125
 7391W        W79062  25.907  20.217  13.986
 7392W        W79063  30.938  35.854  14.382
 7393W        W79064  33.916  43.923   4.141
 7394W        W79065  36.940  15.557   1.802
 7395W        W79066  18.759  44.376   2.744
 7396W        W79067  10.362   9.239   0.537
 7397W        W79068   2.884  28.402   2.622
 7398W        W79069  23.063  14.081  10.443
 7399W        W79070  29.567  11.659   1.836
 7400W        W79071  27.290  44.859   4.212
 7401W        W79072   0.792  14.404   4.447
 7402W        W79073  21.593   6.289   3.346
 7403W        W79074  16.764   4.552  10.549
 7404W        W79075  33.442  22.468   4.530
 7405W        W79076  39.278  42.011   2.435
 7406W        W79077  28.236   0.760  11.428
 7407W        W79078   2.444   5.888  14.919
 7408W        W79079  30.480  38.107  14.715
 7409W        W79080  36.450  39.001   4.179
 7410W        W79081  31.856  41.938   3.634
 7411W        W79082   3.067  22.565  11.811
 7412W        W79083  16.113  37.526   3.438
 7413W        W79084  43.312  26.536  14.065
 7414W        W79085  37.358  15.075  11.911
 7415W        W79086  11.624  12.741   3.683
 7416W        W79087  17.818  28.100   4.255
 7417W        W79088  43.039  38.548  10.638
 7418W        W79089  17.448   8.362   1.730
 7419W        W79090  21.293  10.068  12.190
 7420W        W79091  13.643  31.228  13.561
 7421W        W79092  24.056  25.952   4.093
 7422W        W79093   2.963  25.112   4.210
 7423W        W79094   9.633  38.654   1.860
 7424W        W79095   7.199   5.978  11.144
 7425W        W79096  10.343  25.554   1.293
 7426W        W79097  15.784   2.426  12.563
 7427W        W79098  39.494  41.179  10.806
 7428W        W79099  27.938   8.799  12.438
 7429W        W79100  36.265  40.194   1.901
 7430W        W79101  40.297  32.743  14.869
 7431W        W79102  29.948   3.168  14.019
 7432W        W79103  31.534  23.486  10.383
 7433W        W79104  20.035  20.999  10.302
 7434W        W79105  21.078  18.007   3.430
 7435W        W79106  14.113  43.987   3.716
 7436W        W79107  35.979  30.258  10.607
 7437W        W79108  11.398  44.429  14.418
 7438W        W79109  21.269  42.007   0.796
 7439W        W79110  43.008   2.287  12.436
 7440W        W79111  19.837  42.161   3.717
 7441W        W79112  39.913  32.103  11.946
 7442W        W79113  24.201   7.710  10.956
 7443W        W79114  41.566  34.445   2.680
 7444W        W79115  34.478  23.743  14.542
 7445W        W79116  36.955   8.382  12.295
 7446W        W79117   8.350  29.423   1.941
 7447W        W79118  38.600   7.177  11.081
 7448W        W79119  22.346  17.352  10.907
 7449W        W79120   2.109   7.289  13.121
 7450W        W79121  17.707  25.611  12.533
 7451W        W79122  24.415  16.323   3.418
 7452W        W79123  16.541  24.674  12.885
 7453W        W79124  37.623  44.015  14.958
 7454W        W79125  20.048  34.174   4.225
 7455W        W79126  39.051  12.176  14.336
 7456W        W79127  36.050  19.778  14.403
 7457W        W79128   9.152  23.976   2.242
 7458W        W79129  16.605  17.013  13.840
 7459W        W79130  19.478  30.458   0.421
 7460W        W79131  23.496   5.899  12.059
 7461W        W79132   9.341  40.442   1.356
 7462W        W79133  34.085   6.376   0.662
 7463W        W79134  38.818  14.362  10.746
 7464W        W79135  34.928  35.560   2.321
 7465W        W79136  39.277   3.424  14.635
 7466W        W79137  17.831  39.099   4.222
 7467W        W79138  11.134   7.814   0.018
 7468W        W79139  34.967  39.332   2.783
 7469W        W79140  41.012   8.918  12.462
 7470W        W79141  33.290   6.908   4.234
 7471W        W79142   5.271  32.478  14.404
 7472W        W79143  42.252  30.731   4.769
 7473W        W79144  23.652  35.665  14.371
 7474W        W79145  25.550  29.678  12.829
 7475W        W79146  35.053  43.930  12.284
 7476W        W79147   6.644  23.172   0.947
 7477W        W79148  20.298  37.484  13.490
 7478W        W79149   8.391  22.192   0.272
 7479W        W79150  29.005  34.864   2.231
 7480W        W79151   4.005  32.425   0.294
 7481W        W79152  23.768   5.405   3.641
 7482W        W79153  27.968  16.542  11.284
 7483W        W79154  30.553  43.962   3.350
 7484W        W79155  25.371  29.528  14.999
 7485W        W79156   0.347  41.635  13.948
 7486W        W79157  19.171  18.792   4.164
 7487W        W79158  12.914  31.321  11.247
 7488W        W79159  26.340  10.586  12.444
 7489W        W79160   6.675  40.794   0.781
 7490W        W79161  39.223   5.304   2.281
 7491W        W79162  12.694  43.048  14.073
 7492W        W79163  12.081  19.973   0.534
 7493W        W79164  40.460  26.676   4.521
 7494W        W79165  18.967   9.707   1.941
 7495W        W79166  24.192  33.012   1.690
 7496W        W79167   3.679   3.315   3.211
 7497W        W79168  30.943  36.331   4.224
 7498W        W79169   7.398  28.364  14.418
 7499W        W79170  18.447  37.936   3.922
 7500W        W79171   3.152  41.035   4.222
 7501W        W79172  36.276  39.286   3.617
 7502W        W79173  41.245  32.237   5.306
 7503W        W79174   5.812  20.626  14.226
 7504W        W79175  18.320  18.231  14.755
 7505W        W79176   1.710   5.937   2.566
 7506W        W79177  27.025  42.311   4.484
 7507W        W79178  40.754   9.015  11.135
 7508W        W79179  33.933   3.086   2.365
 7509W        W79180  26.968  34.726  12.717
 7510W        W79181  24.849  43.940  12.109
 7511W        W79182  29.391   7.185   1.797
 7512W        W79183  33.604  25.701  11.144
 7513W        W79184  14.722  16.830  13.575
 7514W        W79185  13.788  17.799  13.458
 7515W        W79186  41.512  35.877   1.264
 7516W        W79187  27.571  11.725   3.891
 7517W        W79188   2.191   1.190   4.981
 7518W        W79189  31.164  39.141  11.003
 7519W        W79190  37.392  20.238   3.411
 7520W        W79191   6.223  11.933  11.000
 7521W        W79192   7.657   2.777  12.510
 7522W        W79193  32.625   2.783   3.262
 7523W        W79194  27.228   2.459   2.814
 7524W        W79195  22.891   6.189   2.253
 7525W        W79196   2.765  41.250  11.158
 7526W        W79197  42.937  24.074  13.000
 7527W        W79198  38.993   5.087  12.611
 7528W        W79199  17.014  19.102   3.109
 7529W        W79200  42.577  13.771   1.233
 7530W        W79201  33.498  31.873  14.414
 7531W        W79202  17.777  34.544   1.956
 7532W        W79203  29.660  38.626  11.037
 7533W        W79204  13.480   9.814  10.751
 7534W        W79205  28.444   0.769  12.913
 7535W        W79206   4.830   6.668  13.020
 7536W        W79207  18.295  18.518  14.314
 7537W        W79208  36.513  12.071  12.598
 7538W        W79209   1.897  33.065   3.606
 7539W        W79210  14.741  43.829  13.897
 7540W        W79211  36.442  35.872   4.006
 7541W        W79212  25.318  23.580   4.537
 7542W        W79213  26.127   2.192   1.441
 7543W        W79214   6.408  15.617  13.475
 7544W        W79215  12.265  27.218  14.349
 7545W        W79216  19.802  42.474  12.092
 7546W        W79217  27.247  21.456   1.447
 7547W        W79218  10.944  29.595   2.981
 7548W        W79219  40.023   2.149  10.739
 7549W        W79220  36.815   8.014   2.947
 7550W        W79221  21.726  38.989  13.824
 7551W        W79222  11.528  42.775   4.411
 7552W        W79223  37.681  34.588   2.587
 7553W        W79224  23.921  37.020   0.878
 7554W        W79225   3.461  19.262  14.234
 7555W        W79226   4.020  14.650   3.187
 7556W        W79227  17.389   1.718   1.287
 7557W        W79228  14.167   5.240   3.708
 7558W        W79229  22.683  18.478   3.612
 7559W        W79230  18.635  32.458   4.386
 7560W        W79231  11.762  43.738  12.918
 7561W        W79232  14.878  13.218   1.691
 7562W        W79233  35.053   5.967   1.342
 7563W        W79234  38.431   1.378   0.991
 7564W        W79235  21.970  38.312   5.359
 7565W        W79236  21.231  10.838   3.695
 7566W        W79237  19.526  39.802  10.731
 7567W        W79238  12.784   1.027  10.777
 7568W        W79239  37.727  22.741   0.246
 7569W        W79240  22.779   5.638   4.792
 7570W        W79241  38.049  44.331   0.907
 7571W        W79242  29.568  28.978   3.737
 7572W        W79243  23.700  42.052  12.988
 7573W        W79244  24.803  35.943   2.806
 7574W        W79245  28.218  19.264   2.972
 7575W        W79246  41.409  25.558   1.296
 7576W        W79247  35.182  37.638   0.442
 7577W        W79248   6.349  17.818   0.317
 7578W        W79249  37.958  12.908   4.432
 7579W        W79250  43.355  33.582   2.638
 7580W        W79251  40.061  12.742   2.616
 7581W        W79252  32.920   9.720  13.964
 7582W        W79253  22.478  35.892  14.702
 7583W        W79254  26.559  20.194  11.658
 7584W        W79255   4.952  10.415  14.427
 7585W        W79256  21.002  20.266  14.857
 7586W        W79257  24.261  39.925   2.556
 7587W        W79258   5.024  14.318   4.176
 7588W        W79259  38.404  23.029   4.668
 7589W        W79260  19.214  21.752   4.144
 7590W        W79261   2.812  29.220  10.620
 7591W        W79262  36.113  33.503  11.258
 7592W        W79263   6.705  39.512   0.871
 7593W        W79264  10.191  44.501   3.851
 7594W        W79265  26.958  18.722   2.807
 7595W        W79266  36.850  12.290   3.940
 7596W        W79267  32.578  13.708   0.402
 7597W        W79268  19.894   7.895   2.603
 7598W        W79269  42.369   3.524   0.357
 7599W        W79270  18.582   1.340   2.300
 7600W        W79271   5.299   4.958  13.734
 7601W        W79272  27.419  26.609  14.981
 7602W        W79273  32.925  44.752  11.579
 7603W        W79274  33.808  37.109  11.864
 7604W        W79275   2.778  29.736  10.765
 7605W        W79276  24.646  21.565  13.279
 7606W        W79277  37.453  26.948  11.916
 7607W        W79278  20.989   3.430   0.244
 7608W        W79279  40.001  19.967  10.725
 7609W        W79280  35.548  13.226   3.368
 7610W        W79281  21.999  43.581  11.930
 7611W        W79282  31.065   8.911   1.924
 7612W        W79283  39.745  14.061  11.014
 7613W        W79284  30.870   7.384   4.192
 7614W        W79285   8.663  44.322   3.618
 7615W        W79286   1.249  27.631  11.099
 7616W        W79287  18.302  35.174  11.144
 7617W        W79288  29.017   2.534  10.998
 7618W        W79289  42.435  40.799  13.057
 7619W        W79290  26.767  31.239   5.221
 7620W        W79291  20.366  16.705  12.186
 7621W        W79292  26.018  12.603   4.514
 7622W        W79293  33.818  44.304   2.896
 7623W        W79294  33.763  34.306  12.768
 7624W        W79295  33.640  13.192   2.878
 7625W        W79296  41.804  14.656  11.741
 7626W        W79297  18.851  12.360   0.805
 7627W        W79298  22.955  13.801   3.995
 7628W        W79299  12.694  13.542  14.973
 7629W        W79300  10.817  24.559  14.447
 7630W        W79301   5.430  42.498   3.136
 7631W        W79302  13.097  21.318   1.315
 7632W        W79303  41.392  43.344   4.089
 7633W        W79304   8.186  15.348   0.848
 7634W        W79305  15.722  43.802  14.913
 7635W        W79306   8.791  15.797   0.164
 7636W        W79307   0.208  37.445  14.602
 7637W        W79308  29.128  27.288  12.943
 7638W        W79309  20.791  42.363  13.792
 7639W        W79310  15.131  43.019   0.070
 7640W        W79311  17.294  23.662   4.455
 7641W        W79312  29.390  40.431   4.200
 7642W        W79313  23.428  10.385   0.281
 7643W        W79314  40.868   6.870  12.522
 7644W        W79315  38.024   8.894   2.924
 7645W        W79316   7.619  16.300   3.687
 7646W        W79317   2.153  35.954  14.384
 7647W        W79318  43.000  44.221  11.149
 7648W        W79319  23.500  32.481  11.182
 7649W        W79320  10.368  10.783  14.779
 7650W        W79321  34.854  25.004  10.167
 7651W        W79322   1.906  37.631   2.664
 7652W        W79323  44.240  26.145  12.577
 7653W        W79324  25.175  40.054   3.002
 7654W        W79325  13.778  17.844  11.127
 7655W        W79326   6.878  23.247   0.000
 7656W        W79327  36.895  33.429  12.056
 7657W        W79328  18.334  33.115  11.149
 7658W        W79329  38.734   2.957  10.666
 7659W        W79330   6.364  25.900  11.203
 7660W        W79331  36.345  33.073  13.883
 7661W        W79332  25.633  14.381   1.910
 7662W        W79333  20.245   3.209  12.379
 7663W        W79334   8.313  18.711   2.345
 7664W        W79335  24.728  40.092   3.656
 7665W        W79336  27.435  28.005   4.675
 7666W        W79337  20.778  43.188   2.312
 7667W        W79338  24.752  23.074   0.256
 7668W        W79339   1.504  42.360   4.482
 7669W        W79340  11.380  21.952   2.673
 7670W        W79341  25.823   7.794   9.823
 7671W        W79342  36.915  41.078   4.001
 7672W        W79343  36.500  27.921   0.459
 7673W        W79344  26.219   3.353   4.064
 7674W        W79345   0.125  27.763   3.201
 7675W        W79346  27.683  21.491   3.811
 7676W        W79347  25.049  12.202   0.366
 7677W        W79348  43.499  33.456   1.793
 7678W        W79349  21.309   6.393   4.265
 7679W        W79350  17.743  36.491   2.273
 7680W        W79351  10.298   1.957   0.535
 7681W        W79352  20.310  42.100  13.818
 7682W        W79353  25.564  41.832  11.171
 7683W        W79354  27.247  42.352  14.028
 7684W        W79355  19.925  37.871  10.950
 7685W        W79356  16.977  17.762  12.533
 7686W        W79357  10.038  11.425   3.256
 7687W        W79358  24.084   0.157  11.038
 7688W        W79359   4.208   3.324  10.748
 7689W        W79360   7.861  14.662  13.432
 7690W        W79361  38.330  11.940  13.848
 7691W        W79362  20.299  37.072  11.354
 7692W        W79363  37.281  26.223  14.532
 7693W        W79364  38.034  32.980  12.488
 7694W        W79365   7.790  23.739  11.590
 7695W        W79366   6.810  32.338  13.470
 7696W        W79367  35.107  34.080  14.319
 7697W        W79368  41.038  43.378   3.722
 7698W        W79369  28.219  15.280   2.765
 7699W        W79370   5.666   2.936   4.669
 7700W        W79371   7.804  33.281  10.586
 7701W        W79372  22.763  28.069   3.206
 7702W        W79373  10.823  29.884  12.074
 7703W        W79374  30.413   6.901  10.556
 7704W        W79375   0.542  43.289  11.153
 7705W        W79376  35.781   5.480   0.250
 7706W        W79377  42.484   6.841  11.691
 7707W        W79378   4.592  42.961   4.819
 7708W        W79379  13.264  23.080  13.439
 7709W        W79380  37.793   1.783  14.898
 7710W        W79381  37.934  30.242   1.450
 7711W        W79382  24.923  32.401  11.127
 7712W        W79383  12.652  42.564  13.872
 7713W        W79384  42.605  32.910   3.213
 7714W        W79385   5.450  14.804   2.437
 7715W        W79386  28.557   6.956   1.150
 7716W        W79387  39.019  10.716  13.368
 7717W        W79388  42.729  30.652  14.586
 7718W        W79389  37.809  19.225  14.204
 7719W        W79390  29.098  29.028   1.401
 7720W        W79391  26.635  41.081  14.430
 7721W        W79392   3.723  11.340  12.267
 7722W        W79393  18.159  37.546   0.863
 7723W        W79394  24.644  14.614  11.208
 7724W        W79395  36.203  31.921  11.244
 7725W        W79396  43.787   8.851  12.155
 7726W        W79397  37.558   2.972   0.205
 7727W        W79398   0.321  42.892  12.268
 7728W        W79399  29.074   1.874  11.754
 7729W        W79400  38.326  17.458  14.393
 7730W        W79401  18.328  44.442   0.921
 7731W        W79402   8.295  39.323   1.401
 7732W        W79403  15.033   8.747  14.625
 7733W        W79404  16.124  38.254  11.730
 7734W        W79405  27.154   4.820  14.987
 7735W        W79406   2.199  21.820   0.908
 7736W        W79407  43.598  20.184   2.702
 7737W        W79408  33.021  38.700   0.899
 7738W        W79409  29.531  20.711   2.222
 7739W        W79410  39.335  21.016  12.923
 7740W        W79411  39.985   8.206   5.043
 7741W        W79412  25.031   2.736   1.188
 7742W        W79413  17.631  30.858  12.010
 7743W        W79414  37.495  25.658   2.445
 7744W        W79415  42.010   7.832   3.532
 7745W        W79416  20.227  21.663   0.759
 7746W        W79417  19.346  35.862  11.110
 7747W        W79418   5.774  32.860  13.843
 7748W        W79419  36.016  22.945   1.568
 7749W        W79420  28.428  19.015  12.949
 7750W        W79421  17.105  18.054  13.117
 7751W        W79422   3.653  28.315   2.257
 7752W        W79423  33.935  17.232   1.774
 7753W        W79424  36.415   0.747  11.684
 7754W        W79425  11.251  29.080   0.217
 7755W        W79426   4.519  35.129  12.886
 7756W        W79427  39.426  14.373  11.811
 7757W        W79428  43.596  41.894   1.895
 7758W        W79429  17.134   3.156   3.270
 7759W        W79430  20.678  38.709  11.627
 7760W        W79431  44.283  21.943   0.436
 7761W        W79432  34.840   1.805  11.194
 7762W        W79433  14.669  11.492  11.696
 7763W        W79434   1.348  10.634   4.150
 7764W        W79435  40.540   9.459   1.888
 7765W        W79436  44.523  29.565  10.629
 7766W        W79437  41.487   2.898  13.906
 7767W        W79438  29.461  17.489  14.191
 7768W        W79439  37.522  16.153   3.743
 7769W        W79440  35.974  21.315   0.600
 7770W        W79441  15.801   3.252  11.828
 7771W        W79442  16.239  11.763   0.031
 7772W        W79443  11.535  12.822  13.875
 7773W        W79444  23.545  23.533   0.856
 7774W        W79445  37.307  41.395   3.479
 7775W        W79446  29.912  40.495   3.118
 7776W        W79447  41.042  44.989  12.430
 7777W        W79448  40.273  23.626   1.328
 7778W        W79449  15.210  42.711  12.529
 7779W        W79450  42.518   8.755   1.183
 7780W        W79451  17.170  32.127  12.116
 7781W        W79452  11.175   8.336  11.056
 7782W        W79453  29.915  18.535   1.910
 7783W        W79454  13.749  26.254   4.988
 7784W        W79455   7.700   9.355   3.121
 7785W        W79456  38.736  40.644   1.462
 7786W        W79457  22.227  13.034   0.892
 7787W        W79458   3.191  29.921  14.353
 7788W        W79459  19.379  23.624   1.167
 7789W        W79460  29.174  19.523   0.432
 7790W        W79461  39.351  28.186   3.780
 7791W        W79462  25.538  19.764   1.637
 7792W        W79463  40.388  38.853   1.767
 7793W        W79464  16.738  37.544  13.885
 7794W        W79465  27.261  12.684   3.113
 7795W        W79466   5.508  35.029  12.901
 7796W        W79467  36.457  37.012   5.294
 7797W        W79468   7.848  32.059   4.178
 7798W        W79469   5.710  44.299   1.909
 7799W        W79470  25.983  14.650   0.719
 7800W        W79471  38.960   2.197  14.343
 7801W        W79472  22.103  11.087  11.142
 7802W        W79473   2.397  30.869   4.088
 7803W        W79474   8.211   3.938   2.260
 7804W        W79475  21.053  17.478   4.188
 7805W        W79476  36.942  38.344   0.303
 7806W        W79477  13.657  13.104  12.329
 7807W        W79478  40.092  22.474  14.401
 7808W        W79479  22.343  33.048  11.932
 7809W        W79480  22.454   6.097  10.673
 7810W        W79481  41.526   3.163   0.371
 7811W        W79482  32.436  19.702   1.728
 7812W        W79483  42.819  21.454   0.395
 7813W        W79484  38.848  27.601  12.179
 7814W        W79485   2.960  10.791   4.272
 7815W        W79486   1.829  10.809   3.370
 7816W        W79487  21.438   5.764  12.006
 7817W        W79488   1.327  43.243  13.367
 7818W        W79489  29.204  14.729   0.517
 7819W        W79490  19.635  11.936   0.261
 7820W        W79491  32.415  26.932   1.014
 7821W        W79492  24.637  21.726   4.130
 7822W        W79493  19.533  39.326   0.914
 7823W        W79494  21.335  13.849  10.826
 7824W        W79495  37.545  20.287   0.464
 7825W        W79496  19.589  15.077  12.065
 7826W        W79497  37.630   1.205  13.032
 7827W        W79498  36.039   6.321   3.451
 7828W        W79499  43.576  16.811   1.733
 7829W        W79500   6.155  19.049   4.000
 7830W        W79501  28.483   6.814  11.040
 7831W        W79502   5.220   0.384   3.740
 7832W        W79503   1.135  14.383   2.257
 7833W        W79504  12.675   8.748   0.360
 7834W        W79505  36.734   5.594   0.167
 7835W        W79506  39.607  26.736   4.130
 7836W        W79507   0.961   0.699  14.804
 7837W        W79508  44.079  26.314   5.116
 7838W        W79509  13.320  26.117   4.176
 7839W        W79510  27.466  23.337   4.207
 7840W        W79511   6.364  20.561  12.036
 7841W        W79512  35.082  38.276  11.912
 7842W        W79513  42.848  20.541   3.153
 7843W        W79514  29.974  16.217   1.058
 7844W        W79515   6.618  18.687  14.245
 7845W        W79516  43.504   9.713   3.855
 7846W        W79517  37.608  32.899  14.410
 7847W        W79518   0.943   1.539   3.789
 7848W        W79519  12.344  33.467   0.877
 7849W        W79520  12.146  37.799   1.705
 7850W        W79521  18.302  17.966   1.709
 7851W        W79522  23.579  32.890   3.810
 7852W        W79523  43.287   7.490   1.793
 7853W        W79524  41.683  25.246   5.105
 7854W        W79525  24.749  16.313   2.472
 7855W        W79526  33.131  37.320   3.640
 7856W        W79527   3.116  41.728   0.792
 7857W        W79528  31.063  27.209   4.675
 7858W        W79529   6.443  43.199  14.859
 7859W        W79530  28.247  18.076   0.295
 7860W        W79531  37.605  25.701  10.669
 7861W        W79532  15.020   3.103  11.421
 7862W        W79533  33.003  26.410  12.908
 7863W        W79534   7.861  34.827  12.167
 7864W        W79535   2.961  16.040  11.554
 7865W        W79536   6.304   7.782  12.867
 7866W        W79537  35.710   9.224   2.885
 7867W        W79538  24.908  27.248   3.644
 7868W        W79539  23.934  31.528  11.453
 7869W        W79540  20.714   8.382  13.515
 7870W        W79541  44.243  18.698  12.702
 7871W        W79542  15.930  28.922   1.781
 7872W        W79543  23.432  13.451   4.219
 7873W        W79544  15.837  37.474   0.659
 7874W        W79545  44.811  12.696   9.506
 7875W        W79546  25.693  38.314   4.882
 7876W        W79547  41.360  34.038  14.574
 7877W        W79548  18.049   5.056   1.618
 7878W        W79549  13.183   1.058   2.166
 7879W        W79550  22.326  20.976  11.611
 7880W        W79551  35.907  15.959  12.092
 7881W        W79552  15.689  10.227   0.464
 7882W        W79553  42.270  32.742   3.668
 7883W        W79554   6.692  31.582   0.769
 7884W        W79555  29.894  23.921  12.549
 7885W        W79556  30.555  18.044  12.441
 7886W        W79557  30.566   2.849  14.794
 7887W        W79558   8.310  23.839   0.957
 7888W        W79559  18.766  38.594   0.462
 7889W        W79560   7.432  32.398   3.178
 7890W        W79561   8.720  26.265  13.619
 7891W        W79562  32.472  38.825   4.138
 7892W        W79563  15.839   8.021   5.033
 7893W        W79564  30.684  37.395  14.479
 7894W        W79565   3.060  11.169   2.145
 7895W        W79566  29.501  25.517  11.715
 7896W        W79567  41.855  29.542  12.500
 7897W        W79568   8.783  13.938   2.373
 7898W        W79569  10.920  30.366  14.812
 7899W        W79570  36.852  18.571   0.272
 7900W        W79571  14.069  28.170   3.232
 7901W        W79572  39.547   4.886   3.123
 7902W        W79573  30.062  39.909   3.805
 7903W        W79574  40.769  21.690   2.268
 7904W        W79575  36.088   1.082  11.967
 7905W        W79576   5.616   3.459  12.902
 7906W        W79577  11.047  30.350   0.334
 7907W        W79578  37.241  18.732   1.670
 7908W        W79579  30.015  14.195   4.362
 7909W        W79580  25.232   8.292   0.813
 7910W        W79581  43.946  40.765  10.649
 7911W        W79582  32.013  39.338  10.350
 7912W        W79583  40.827  21.906   3.987
 7913W        W79584  18.197   5.179   4.174
 7914W        W79585   8.348  35.356   3.589
 7915W        W79586  22.184   2.414  11.138
 7916W        W79587   7.693  43.358  11.624
 7917W        W79588  16.038  24.047  10.568
 7918W        W79589  40.827  34.048  13.934
 7919W        W79590  31.625  42.192  13.961
 7920W        W79591  24.281  18.295  13.856
 7921W        W79592  39.395  19.227  11.101
 7922W        W79593  38.299  20.085   3.705
 7923W        W79594  11.483  44.407   2.293
 7924W        W79595  41.590  12.437  10.417
 7925W        W79596   2.837  23.674   0.857
 7926W        W79597  13.157  20.298   2.849
 7927W        W79598  32.535  15.516  14.848
 7928W        W79599  41.938  17.021  10.325
 7929W        W79600  40.883  19.751  12.011
 7930W        W79601   9.181  40.622  14.440
 7931W        W79602  26.161  38.426  12.947
 7932W        W79603  14.001   0.312  12.008
 7933W        W79604  41.212  22.628  13.561
 7934W        W79605  13.458  44.270  13.486
 7935W        W79606  18.630  13.551  10.678
 7936W        W79607   1.218  36.398  11.946
 7937W        W79608   0.405  20.037  11.189
 7938W        W79609  25.079  40.994   3.907
 7939W        W79610  38.865  40.823  14.613
 7940W        W79611  29.894  12.804   0.666
 7941W        W79612  21.335  19.441   1.245
 7942W        W79613  29.178   3.453  13.602
 7943W        W79614  20.110  31.067   3.412
 7944W        W79615  28.928   9.750  12.443
 7945W        W79616  26.255  27.322  14.345
 7946W        W79617  39.880  29.623  13.306
 7947W        W79618  32.372  28.059   0.668
 7948W        W79619  15.330  27.904   3.672
 7949W        W79620  33.090   3.340   4.280
 7950W        W79621   3.514  39.092   3.197
 7951W        W79622  16.251  29.346   3.238
 7952W        W79623  43.335  29.110   4.686
 7953W        W79624  23.909  11.733   4.072
 7954W        W79625  41.290  24.123   3.722
 7955W        W79626  33.633  44.139   3.641
 7956W        W79627  34.936  25.966   2.216
 7957W        W79628  33.778  18.566  13.432
 7958W        W79629  25.179  14.138   1.683
 7959W        W79630  42.281  19.683  12.655
 7960W        W79631  27.243  13.884   3.638
 7961W        W79632   9.860   3.497   0.209
 7962W        W79633  28.785  41.313   3.086
 7963W        W79634  36.876   8.926  11.577
 7964W        W79635   6.608  12.181  12.383
 7965W        W79636  43.366  23.601   2.802
 7966W        W79637  12.805  17.498  14.153
 7967W        W79638  18.097  12.635   1.147
 7968W        W79639   5.298  40.024  14.473
 7969W        W79640  37.281  31.848  13.916
 7970W        W79641   7.159  24.257   2.454
 7971W        W79642   1.955  27.996   4.021
 7972W        W79643   5.263  29.192   3.610
 7973W        W79644  21.706   2.721   3.712
 7974W        W79645  34.050  16.150   4.188
 7975W        W79646  25.942  36.800   3.852
 7976W        W79647   3.410  27.990  14.947
 7977W        W79648   5.483  21.125  13.210
 7978W        W79649  28.459  30.105   1.361
 7979W        W79650  25.151  34.928   0.079
 7980W        W79651  44.417   9.727   0.059
 7981W        W79652  36.291  12.344  12.979
 7982W        W79653  10.207  16.823   3.873
 7983W        W79654  43.300   3.841   4.272
 7984W        W79655  35.178  31.675   3.098
 7985W        W79656  10.684  18.142   0.344
 7986W        W79657  17.464  41.397   1.017
 7987W        W79658  34.385  38.407  13.611
 7988W        W79659   6.719  17.738  13.536
 7989W        W79660  15.795  16.868  14.401
 7990W        W79661  22.695  34.729  11.186
 7991W        W79662   0.236  15.136  12.941
 7992W        W79663  39.006  33.589   5.013
 7993W        W79664  40.507  20.033   2.604
 7994W        W79665  24.862  11.315   4.815
 7995W        W79666  41.449  38.540   4.196
 7996W        W79667  40.939  40.068   4.473
 7997W        W79668  15.759   2.438   2.225
 7998W        W79669  37.792  39.579   2.333
 7999W        W79670  39.923  14.303   1.714
 8000W        W79671  23.277  10.354   4.118
 8001W        W79672  10.622  11.718   0.174
 8002W        W79673  44.180  15.029  11.009
 8003W        W79674  30.056  18.661   1.436
 8004W        W79675  13.315  39.821  12.063
 8005W        W79676  21.574  26.097   2.314
 8006W        W79677  24.653   3.057  13.372
 8007W        W79678  32.469  42.713   1.741
 8008W        W79679  11.385   5.688  11.557
 8009W        W79680  40.483  41.011   3.674
 8010W        W79681   3.678   3.176   1.894
 8011W        W79682  31.198   3.224  11.519
 8012W        W79683  14.517  19.735  13.156
 8013W        W79684  36.417  27.106   3.375
 8014W        W79685   3.104   0.025   0.435
 8015W        W79686  24.507  21.514   3.687
 8016W        W79687  40.521  15.720   2.877
 8017W        W79688  35.987   7.287  12.654
 8018W        W79689  33.095  29.445   0.710
 8019W        W79690  20.989  15.272  14.489
 8020W        W79691  11.858  40.837  13.901
 8021W        W79692  19.173  16.517   0.236
 8022W        W79693  12.895   1.505   2.196
 8023W        W79694   8.188  43.800  10.822
 8024W        W79695   4.000   3.437   1.558
 8025W        W79696  37.547  30.808  13.704
 8026W        W79697  20.742  23.147   4.966
 8027W        W79698  36.330   5.120   1.706
 8028W        W79699  36.427  26.005  14.867
 8029W        W79700   2.381  24.260   4.335
 8030W        W79701  13.786  17.332   1.420
 8031W        W79702  24.615  44.292  11.110
 8032W        W79703  17.327  43.818   4.636
 8033W        W79704  36.588  42.480  12.353
 8034W        W79705  26.065  14.682   1.927
 8035W        W79706  33.623  18.327  12.494
 8036W        W79707  38.594  22.680  14.299
 8037W        W79708   4.464   5.686   3.784
 8038W        W79709  15.261  37.579  10.774
 8039W        W79710   2.570  38.210   3.259
 8040W        W79711  44.353   1.895  13.775
 8041W        W79712  35.378  41.438   1.169
 8042W        W79713  26.135   5.488  10.722
 8043W        W79714  11.889  25.639   0.692
 8044W        W79715  11.070  16.814   0.253
 8045W        W79716  44.897  41.593  12.811
 8046W        W79717  44.845  14.868  11.083
 8047W        W79718  24.453  42.886  13.305
 8048W        W79719  28.043  39.505  14.167
 8049W        W79720   5.166  31.047   0.492
 8050W        W79721   2.455  33.373  14.896
 8051W        W79722  43.595   3.294   2.398
 8052W        W79723  24.411  37.790   0.863
 8053W        W79724  37.059  11.294   4.171
 8054W        W79725  25.909  29.457  13.780
 8055W        W79726   1.775  34.138   4.690
 8056W        W79727  27.008  27.861   4.940
 8057W        W79728   8.446  39.328  12.755
 8058W        W79729  26.980  16.256  11.082
 8059W        W79730  44.423  24.023  14.862
 8060W        W79731  27.074  12.695   1.830
 8061W        W79732  43.099  12.137   1.007
 8062W        W79733  18.081  15.580  10.414
 8063W        W79734  10.318  24.064   0.073
 8064W        W79735  27.682  23.361  14.358
 8065W        W79736   8.910   9.260   4.988
 8066W        W79737  23.744  20.025   2.261
 8067W        W79738  28.235  43.439  13.266
 8068W        W79739   6.228  19.966   0.955
 8069W        W79740  18.145  24.517   1.266
 8070W        W79741  22.250  16.898  10.658
 8071W        W79742   2.899  11.745  11.945
 8072W        W79743  18.614  12.317   5.021
 8073W        W79744  11.684  17.756  13.878
 8074W        W79745   8.441  43.030   2.145
 8075W        W79746  40.739  37.587   2.190
 8076W        W79747  36.308  10.918  10.674
 8077W        W79748  11.608  22.643  12.031
 8078W        W79749   6.791  24.693  11.643
 8079W        W79750  25.161   9.332  12.413
 8080W        W79751   6.944  33.851   4.494
 8081W        W79752  10.603  18.497   1.932
 8082W        W79753   9.925  30.916  12.017
 8083W        W79754  43.066   4.197  12.911
 8084W        W79755  19.788  14.829   3.651
 8085W        W79756  41.874  11.415  11.723
 8086W        W79757  39.341  29.695   2.778
 8087W        W79758  42.013  18.575   0.912
 8088W        W79759  12.146   4.844  11.770
 8089W        W79760  33.385   3.595   1.352
 8090W        W79761  22.625   3.960   4.576
 8091W        W79762  38.163  16.138   4.621
 8092W        W79763  13.163  31.558   3.542
 8093W        W79764   3.684   0.137  14.230
 8094W        W79765  24.225  44.133   4.564
 8095W        W79766  38.189  12.584   4.761
 8096W        W79767  37.598  20.930   2.870
 8097W        W79768  41.244  14.168   2.746
 8098W        W79769  29.082  33.596  10.504
 8099W        W79770  26.551  14.512   1.830
 8100W        W79771  41.845  27.118   4.202
 8101W        W79772  21.007  21.248  11.563
 8102W        W79773  22.660   5.225  12.491
 8103W        W79774   6.337  23.934  11.779
 8104W        W79775  13.373  34.849   4.230
 8105W        W79776   2.448  28.379  11.507
 8106W        W79777   0.449  30.498  13.003
 8107W        W79778  19.210  32.469  12.122
 8108W        W79779  34.742  31.946   0.970
 8109W        W79780   2.282   2.329  10.811
 8110W        W79781  36.955  12.403  14.005
 8111W        W79782  26.733  16.701   3.196
 8112W        W79783   7.876  29.205   4.775
 8113W        W79784  20.152   7.220   0.563
 8114W        W79785  16.080   7.823   2.230
 8115W        W79786  28.469  35.616   1.291
 8116W        W79787  15.482  30.054  10.047
 8117W        W79788   0.656  30.027   3.419
 8118W        W79789   0.962   2.990  14.008
 8119W        W79790   9.432  30.063   0.430
 8120W        W79791   1.794  43.476  13.119
 8121W        W79792  37.925  43.597   2.369
 8122W        W79793  33.137  22.182  11.215
 8123W        W79794   0.720  12.689  11.212
 8124W        W79795  12.203   8.275  11.627
 8125W        W79796  23.731  44.754  12.869
 8126W        W79797  21.508   9.680  12.465
 8127W        W79798  32.968  12.605   2.144
 8128W        W79799  24.778   8.975  13.459
 8129W        W79800  43.352   1.051  11.232
 8130W        W79801  39.963  30.789   1.258
 8131W        W79802  19.883   9.737   3.905
 8132W        W79803  13.030  19.267  13.669
 8133W        W79804  23.258  21.505  11.967
 8134W        W79805  32.822   5.348  14.330
 8135W        W79806  12.285  31.487   3.725
 8136W        W79807   1.792  33.115  11.098
 8137W        W79808  32.632  27.493  12.413
 8138W        W79809  12.734  37.154   2.641
 8139W        W79810  18.967  22.216  13.089
 8140W        W79811  37.896   2.968   4.195
 8141W        W79812  17.070  37.844   4.128
 8142W        W79813   7.211  22.447  10.606
 8143W        W79814   6.722  34.581   0.721
 8144W        W79815   9.239  41.401   1.183
 8145W        W79816  34.914  31.174  10.741
 8146W        W79817  22.680  10.656   3.619
 8147W        W79818  20.158  13.310  11.938
 8148W        W79819  13.517   1.993  12.959
 8149W        W79820  30.934  38.856   1.256
 8150W        W79821  10.854  36.966   0.373
 8151W        W79822  14.699  17.147   2.653
 8152W        W79823   2.352  39.109  13.764
 8153W        W79824  11.142  29.049  12.938
 8154W        W79825  36.544   8.277   1.820
 8155W        W79826  18.198  27.115  10.436
 8156W        W79827  24.509  12.818  14.901
 8157W        W79828   4.095  28.171   2.542
 8158W        W79829  26.702   1.960   4.108
 8159W        W79830  25.736  17.857   1.335
 8160W        W79831   8.587  36.661  12.755
 8161W        W79832  16.591  11.845  10.796
 8162W        W79833  40.728  40.262   0.015
 8163W        W79834  36.769  14.314  12.340
 8164W        W79835  38.047  26.945   4.606
 8165W        W79836  31.928  37.274   0.679
 8166W        W79837  29.494  31.587   1.470
 8167W        W79838  12.908  13.321   4.149
 8168W        W79839  42.245  35.989   3.642
 8169W        W79840  15.182   4.703   2.302
 8170W        W79841  18.044  24.790  14.928
 8171W        W79842  21.225  17.528  12.534
 8172W        W79843  28.064  22.479  11.496
 8173W        W79844   3.446  33.468  14.025
 8174W        W79845   5.341  25.704  11.039
 8175W        W79846   2.957  15.187   4.941
 8176W        W79847  14.477  18.443  12.874
 8177W        W79848  22.151  23.703   1.429
 8178W        W79849  21.194  24.083  11.431
 8179W        W79850   7.918  31.566   1.308
 8180W        W79851   7.444  35.311   2.957
 8181W        W79852  14.712  27.152   2.602
 8182W        W79853   1.789  41.673   5.046
 8183W        W79854  33.921   2.454  12.533
 8184W        W79855  34.980  14.181  10.045
 8185W        W79856  24.015   2.835  13.946
 8186W        W79857   0.641  23.058  11.168
 8187W        W79858  32.288  12.901  12.954
 8188W        W79859  37.841  14.990   2.599
 8189W        W79860  10.707  34.912   1.212
 8190W        W79861  19.155  32.840  14.107
 8191W        W79862  26.168  35.048   1.403
 8192W        W79863   1.700  39.574   3.758
 8193W        W79864  11.070   6.474   0.247
 8194W        W79865  24.972   9.947   4.746
 8195W        W79866  43.912   8.895  14.454
 8196W        W79867  40.035  35.771  12.568
 8197W        W79868  16.529  41.889   2.405
 8198W        W79869  19.018  17.267  12.534
 8199W        W79870  40.530   0.796   2.687
 8200W        W79871  21.353  28.358   2.494
 8201W        W79872  36.091  15.066   1.888
 8202W        W79873  28.432  14.149   4.597
 8203W        W79874   0.268  31.545  11.174
 8204W        W79875  10.306  12.783  13.119
 8205W        W79876  40.414  34.370   1.409
 8206W        W79877  18.194  18.725   2.803
 8207W        W79878  39.800  14.384   3.635
 8208W        W79879  27.923  31.349   4.387
 8209W        W79880  21.965  40.390   4.579
 8210W        W79881  24.707  30.418   2.319
 8211W        W79882  36.106  10.682  13.545
 8212W        W79883  15.110  16.873   3.768
 8213W        W79884  41.086  39.807   4.897
 8214W        W79885   6.585  14.032  12.546
 8215W        W79886  16.822  10.732  11.357
 8216W        W79887  17.854   6.313  12.666
 8217W        W79888  33.962  21.116   2.276
 8218W        W79889  43.814  44.679   2.630
 8219W        W79890  28.128  24.117  14.013
 8220W        W79891  13.338   1.855  11.925
 8221W        W79892  26.100  34.504   3.683
 8222W        W79893   3.338   7.093   0.320
 8223W        W79894  36.217  11.865  11.679
 8224W        W79895  11.903  20.229   4.675
 8225W        W79896   6.257  28.582   0.824
 8226W        W79897  29.696   7.250  14.898
 8227W        W79898   7.742  16.062  10.809
 8228W        W79899  14.284   8.450   4.455
 8229W        W79900  19.603  22.638  11.098
 8230W        W79901   3.868  22.108   2.907
 8231W        W79902  31.902  23.974  13.410
 8232W        W79903   3.421  29.952   4.524
 8233W        W79904  43.534  15.780  11.863
 8234W        W79905  13.138   5.157   0.020
 8235W        W79906   6.340  21.312  13.798
 8236W        W79907  26.011  35.790  14.395
 8237W        W79908  39.437   7.453   1.272
 8238W        W79909  43.538  34.399   4.702
 8239W        W79910   0.334  10.152  13.898
 8240W        W79911  41.932  13.037  14.934
 8241W        W79912  13.156  19.216  14.148
 8242W        W79913  28.203   7.996   1.863
 8243W        W79914  12.161  17.980   3.289
 8244W        W79915  44.997  14.399  11.294
 8245W        W79916  40.470   0.432  11.561
 8246W        W79917   3.042  39.313   2.430
 8247W        W79918  23.134  18.549  11.349
 8248W        W79919  18.146  34.455   2.331
 8249W        W79920  32.637  21.283   2.348
 8250W        W79921   7.203  24.398   0.257
 8251W        W79922  34.409  10.895   4.601
 8252W        W79923  12.078  41.005  11.632
 8253W        W79924  11.058  30.644  13.332
 8254W        W79925  44.940  13.815  12.603
 8255W        W79926  44.775  36.745   0.926
 8256W        W79927  20.994  38.018  11.963
 8257W        W79928  33.533  25.449  10.706
 8258W        W79929  34.104  37.330  10.577
 8259W        W79930  31.488  40.310   1.327
 8260W        W79931  11.258  27.497  11.839
 8261W        W79932  31.141  34.106  14.904
 8262W        W79933  28.864  43.254  11.095
 8263W        W79934  38.957  22.959   4.845
 8264W        W79935   5.988  38.863  11.993
 8265W        W79936  40.283  36.669   3.646
 8266W        W79937  39.325   4.207   1.132
 8267W        W79938   2.833  10.748   2.386
 8268W        W79939  25.300   1.007   4.026
 8269W        W79940  12.253  22.194  13.621
 8270W        W79941  25.896  15.525   4.133
 8271W        W79942  35.479  40.374  12.635
 8272W        W79943  25.463  29.593  14.497
 8273W        W79944  11.606   3.527   2.326
 8274W        W79945  32.086   2.355   0.082
 8275W        W79946  23.118  27.941  11.840
 8276W        W79947  30.824   4.276   0.304
 8277W        W79948  17.925   3.195  13.516
 8278W        W79949  43.381  37.362   0.036
 8279W        W79950  35.407  16.234  10.809
 8280W        W79951  36.120  22.690  11.759
 8281W        W79952  34.180  13.346   1.190
 8282W        W79953  18.618   8.382  14.542
 8283W        W79954  29.436  15.857  14.884
 8284W        W79955   2.895  42.102  11.506
 8285W        W79956  11.167  14.086   3.664
 8286W        W79957  37.081   3.010   1.419
 8287W        W79958  19.163  13.169   4.937
 8288W        W79959  41.670  39.065   5.331
 8289W        W79960   0.978  18.722   2.600
 8290W        W79961  42.014  23.183  13.535
 8291W        W79962   9.460  29.529   0.070
 8292W        W79963  19.721  35.258   4.435
 8293W        W79964  34.571  10.428  14.304
 8294W        W79965  43.361   7.303  12.576
 8295W        W79966  12.101  44.700   2.789
 8296W        W79967  21.036  24.018   3.804
 8297W        W79968  36.016   8.374   3.232
 8298W        W79969   7.412   1.504   0.818
 8299W        W79970  10.801  27.515  12.142
 8300W        W79971   2.704   6.426   4.285
 8301W        W79972   1.802  43.456   2.272
 8302W        W79973  33.154  13.338   2.899
 8303W        W79974  29.477   0.403   4.801
 8304W        W79975  34.495  25.284  14.190
 8305W        W79976  21.522  27.609  14.460
 8306W        W79977  41.305  44.799   2.177
 8307W        W79978  13.146  13.231  13.142
 8308W        W79979  41.235  19.801  12.424
 8309W        W79980  44.368  27.434   4.177
 8310W        W79981  22.006  11.248  10.461
 8311W        W79982  11.721  35.405   4.086
 8312W        W79983  21.978  19.560   3.292
 8313W        W79984  37.038  30.081  13.934
 8314W        W79985  32.472   1.985  14.904
 8315W        W79986  28.143  35.746  11.166
 8316W        W79987  24.368  34.474  11.506
 8317W        W79988  29.332  25.219  12.973
 8318W        W79989  38.446  21.027   2.610
 8319W        W79990  28.083  42.257   3.688
 8320W        W79991  36.033  36.312   4.572
 8321W        W79992   8.993  37.409  11.049
 8322W        W79993  37.099  41.982   0.726
 8323W        W79994  28.431  23.564   2.296
 8324W        W79995  26.139  27.712   3.221
 8325W        W79996  12.250   0.834  12.525
 8326W        W79997  24.036   2.909  12.479
 8327W        W79998  19.475   3.362  11.194
 8328W        W79999  43.789  39.441  12.557
 8329W        W80000  28.552  14.313   2.413
 8330W        W80001   0.263  22.808  13.267
 8331W        W80002  14.562  14.220   3.882
 8332W        W80003  28.604  33.916  11.744
 8333W        W80004  17.680  12.372   5.000
 8334W        W80005   7.247  31.578   3.571
 8335W        W80006  30.895  14.094   0.844
 8336W        W80007  17.787  37.965   3.872
 8337W        W80008  32.262  17.585  12.958
 8338W        W80009  43.981  36.946   0.588
 8339W        W80010  16.687   7.165   5.682
 8340W        W80011   2.518  24.702   0.339
 8341W        W80012  27.073   3.471   5.051
 8342W        W80013  36.956  30.843  10.801
 8343W        W80014  18.416  17.055   2.742
 8344W        W80015  27.003  11.155   2.340
 8345W        W80016   6.249  27.214  10.630
 8346W        W80017  10.206   8.647   2.783
 8347W        W80018  37.570   1.291   1.644
 8348W        W80019  17.584  24.042  13.480
 8349W        W80020  24.101  18.060  10.661
 8350W        W80021  37.490   9.251   2.891
 8351W        W80022  14.275  28.351  12.951
 8352W        W80023  27.534  41.267  11.324
 8353W        W80024   5.902  28.936   4.251
 8354W        W80025  11.637   4.699   0.804
 8355W        W80026  44.971  24.052  12.077
 8356W        W80027  41.438  12.750  11.525
 8357W        W80028  31.183  22.464  12.477
 8358W        W80029  30.391  33.891  12.704
 8359W        W80030  28.975  25.081  10.598
 8360W        W80031  34.093  27.491  14.986
 8361W        W80032   1.869   2.242   4.539
 8362W        W80033  20.974  16.667   1.956
 8363W        W80034  31.937  38.328  11.974
 8364W        W80035  28.092  44.769   3.625
 8365W        W80036  42.019  44.679   3.092
 8366W        W80037  32.277   2.811  13.920
 8367W        W80038   9.303   6.965   3.690
 8368W        W80039   9.446  38.780  14.035
 8369W        W80040   6.814   4.422  10.785
 8370W        W80041  38.848  27.120   3.098
 8371W        W80042  34.152   2.421   3.767
 8372W        W80043   0.316  12.717   4.092
 8373W        W80044  39.549  42.745   3.206
 8374W        W80045   6.685   0.557  13.835
 8375W        W80046   6.686  21.511   4.893
 8376W        W80047  19.033  43.086   3.363
 8377W        W80048  31.002  40.944  14.990
 8378W        W80049   4.153  39.414  13.008
 8379W        W80050  34.629   0.413  14.388
 8380W        W80051  14.914  24.647   0.658
 8381W        W80052  13.744   1.868   2.170
 8382W        W80053  18.005  10.239   1.423
 8383W        W80054  13.693   1.838  14.264
 8384W        W80055  29.442  35.849   1.597
 8385W        W80056   5.246  42.396   0.047
 8386W        W80057  39.521  43.545   4.636
 8387W        W80058  42.522  13.753   2.625
 8388W        W80059  17.851  22.637   4.552
 8389W        W80060  26.790  41.349  12.085
 8390W        W80061  41.275  27.701  10.586
 8391W        W80062  18.651  25.584   1.736
 8392W        W80063   2.744  41.752  11.144
 8393W        W80064  26.313  28.190   1.781
 8394W        W80065  22.254  25.167  11.879
 8395W        W80066  28.049  26.384  12.507
 8396W        W80067  11.678   8.466  14.031
 8397W        W80068  12.245   2.264   3.895
 8398W        W80069  24.756  15.530  11.923
 8399W        W80070  20.571  19.275  13.319
 8400W        W80071  18.607  36.150  12.022
 8401W        W80072  33.157  38.498  14.287
 8402W        W80073  38.532   1.462  11.565
 8403W        W80074  31.545  17.131  13.982
 8404W        W80075  22.801  34.927   3.518
 8405W        W80076  38.035  26.546  14.219
 8406W        W80077  39.591   9.736  14.715
 8407W        W80078  11.906   5.238   3.681
 8408W        W80079  15.176  43.995  12.947
 8409W        W80080  32.008  22.067  14.345
 8410W        W80081   4.898  10.306   0.766
 8411W        W80082  38.550  10.647   2.283
 8412W        W80083   3.122  25.546   0.857
 8413W        W80084   8.416  24.235  11.134
 8414W        W80085  13.252   2.807  11.927
 8415W        W80086   7.863  35.236  14.551
 8416W        W80087  39.129  24.642   0.386
 8417W        W80088  42.464  10.372   2.230
 8418W        W80089  18.590   2.251   0.883
 8419W        W80090  39.317  31.475  11.365
 8420W        W80091  20.076  32.102  14.856
 8421W        W80092  44.461  22.440  11.488
 8422W        W80093  23.287  41.847   5.554
 8423W        W80094  43.568  24.235  10.159
 8424W        W80095   4.277   6.559   2.114
 8425W        W80096  15.596  24.729  14.996
 8426W        W80097  15.136  25.704  12.631
 8427W        W80098  32.615  31.570  12.049
 8428W        W80099  44.220   3.336   4.579
 8429W        W80100  15.067  32.506  13.980
 8430W        W80101  12.107  41.589  12.810
 8431W        W80102  10.266  40.533  11.974
 8432W        W80103   2.346  11.376   0.415
 8433W        W80104  20.629   3.725  14.475
 8434W        W80105  35.562   1.488   2.187
 8435W        W80106  40.284   2.685   0.891
 8436W        W80107  20.698  13.733   2.422
 8437W        W80108  15.401  32.995   3.170
 8438W        W80109  24.619  31.325  14.575
 8439W        W80110  29.915  39.964   3.294
 8440W        W80111  21.210   0.094  13.997
 8441W        W80112  29.379  23.016   4.140
 8442W        W80113  40.910  17.520  13.479
 8443W        W80114  32.479   6.828  13.115
 8444W        W80115  29.671  39.674  11.152
 8445W        W80116   7.566  24.592   3.354
 8446W        W80117  36.296  15.668   4.604
 8447W        W80118   7.953  42.979   0.752
 8448W        W80119   6.620  11.330   4.835
 8449W        W80120   7.366  11.356  11.995
 8450W        W80121  28.084   2.363  11.155
 8451W        W80122   1.842  32.708   3.970
 8452W        W80123  17.735  39.563  13.936
 8453W        W80124  34.931  16.449   3.529
 8454W        W80125  16.821  25.033  10.394
 8455W        W80126  40.911  22.781   0.748
 8456W        W80127  28.450   1.262   4.280
 8457W        W80128  28.358  15.324  12.045
 8458W        W80129   2.971  20.613   4.799
 8459W        W80130  32.155  42.466  14.751
 8460W        W80131  16.758  43.850  13.972
 8461W        W80132  22.538   8.877   5.047
 8462W        W80133   5.602   3.943  10.684
 8463W        W80134   6.992  34.487  11.671
 8464W        W80135  12.911  24.660   0.405
 8465W        W80136  37.589  30.616   2.171
 8466W        W80137  39.074  30.027   1.762
 8467W        W80138  42.322  19.466  14.031
 8468W        W80139  18.451   5.845   3.141
 8469W        W80140   2.424   6.942   0.846
 8470W        W80141  16.635   3.889   2.642
 8471W        W80142  14.238  28.043  11.976
 8472W        W80143  41.277  40.946   0.003
 8473W        W80144  23.695   9.918   0.780
 8474W        W80145  32.579  28.477  13.868
 8475W        W80146   1.436  24.130   3.379
 8476W        W80147  14.553  41.443  13.931
 8477W        W80148  33.636  22.769  13.324
 8478W        W80149  31.090   2.350   3.703
 8479W        W80150  32.391  17.301   2.667
 8480W        W80151  41.807  43.128  13.073
 8481W        W80152  37.890  22.856  13.922
 8482W        W80153  39.873   5.442   2.784
 8483W        W80154  14.133  24.936  11.856
 8484W        W80155  20.874  43.430  13.772
 8485W        W80156  31.532   8.880   2.154
 8486W        W80157  18.997  44.555   1.221
 8487W        W80158   6.691   8.170  10.739
 8488W        W80159  38.084  44.802  10.658
 8489W        W80160  23.073   2.070   3.191
 8490W        W80161  32.123  28.735  13.898
 8491W        W80162  14.109  21.960  13.620
 8492W        W80163  36.891  12.826  12.662
 8493W        W80164  19.074  11.720   4.624
 8494W        W80165   8.313  26.056  14.445
 8495W        W80166  23.761  42.361  14.040
 8496W        W80167  22.153  13.952  12.381
 8497W        W80168  20.493  16.525  14.242
 8498W        W80169  33.367  36.597  13.065
 8499W        W80170  22.387  31.073   1.546
 8500W        W80171  37.822  37.906  11.062
 8501W        W80172  41.004   3.450  11.561
 8502W        W80173  42.094  22.747  13.215
 8503W        W80174  35.992  10.211   1.002
 8504W        W80175  15.000  18.981  12.906
 8505W        W80176  32.615  27.093  11.271
 8506W        W80177   0.585  37.881   2.854
 8507W        W80178  16.717  22.224  12.548
 8508W        W80179  29.959  40.024  13.926
 8509W        W80180  11.706  24.726  13.400
 8510W        W80181  27.160  19.216   4.295
 8511W        W80182  13.571  41.296  12.538
 8512W        W80183  41.569   6.147  12.898
 8513W        W80184  39.658  40.887  13.045
 8514W        W80185  14.690  16.682   2.872
 8515W        W80186   2.963  12.219   2.940
 8516W        W80187  32.698  16.061  11.629
 8517W        W80188   2.661  32.937  11.071
 8518W        W80189  35.988  22.253  10.808
 8519W        W80190  29.985  44.391  12.879
 8520W        W80191  14.230   4.389   2.164
 8521W        W80192  17.686  36.335  11.032
 8522W        W80193  33.646  22.026   0.449
 8523W        W80194  34.902  37.531  12.746
 8524W        W80195  18.905  14.010   2.330
 8525W        W80196   0.904   5.947  13.160
 8526W        W80197   3.752  32.018   4.689
 8527W        W80198  21.019  18.200   2.424
 8528W        W80199  38.371  17.417   3.719
 8529W        W80200  38.013  39.573  14.011
 8530W        W80201  36.169  12.134   4.040
 8531W        W80202  36.039   8.220   0.936
 8532W        W80203  37.142  41.082   0.815
 8533W        W80204  27.165  25.464   4.098
 8534W        W80205  39.903   2.769   3.186
 8535W        W80206   8.611   9.345  11.850
 8536W        W80207  28.999  31.215  14.484
 8537W        W80208  39.050   8.949  14.459
 8538W        W80209  20.515  29.718  13.092
 8539W        W80210  26.234  27.756  14.624
 8540W        W80211  38.783  19.974   4.570
 8541W        W80212   9.965  21.528   1.862
 8542W        W80213  17.803  33.925   0.552
 8543W        W80214   8.200  10.305   0.446
 8544W        W80215  26.414  12.671   2.299
 8545W        W80216  15.366  24.297  13.525
 8546W        W80217  30.084  14.720  11.635
 8547W        W80218   6.336   8.501  13.120
 8548W        W80219  25.910  16.419   1.463
 8549W        W80220  42.930   0.457  10.281
 8550W        W80221  30.005  20.216   3.297
 8551W        W80222  13.735  12.447  11.136
 8552W        W80223  43.310   1.266   4.612
 8553W        W80224  22.151  25.428  13.257
 8554W        W80225  12.352  20.470  11.129
 8555W        W80226  11.118  41.883   4.106
 8556W        W80227  19.925   4.581  12.091
 8557W        W80228  37.551  12.774   0.208
 8558W        W80229  42.302   9.648  13.889
 8559W        W80230  33.245  15.610   0.311
 8560W        W80231  17.227   5.052   1.777
 8561W        W80232  42.673   2.938   3.418
 8562W        W80233  27.421  10.447   4.613
 8563W        W80234  44.679  12.639  10.634
 8564W        W80235  22.986  26.011   0.020
 8565W        W80236  40.222   1.941   1.216
 8566W        W80237  22.556  23.384   3.444
 8567W        W80238  15.638   6.322  12.021
 8568W        W80239  10.124  32.644   1.377
 8569W        W80240   2.861   4.467   2.208
 8570W        W80241  15.324   7.376  13.918
 8571W        W80242   0.411  33.461  10.738
 8572W        W80243  39.469  34.334  11.547
 8573W        W80244   8.946  35.700  12.139
 8574W        W80245   7.369  15.680   1.289
 8575W        W80246  41.437  22.785   0.787
 8576W        W80247  34.025  22.184  12.031
 8577W        W80248  42.376   8.413   3.272
 8578W        W80249  44.555  36.271  13.554
 8579W        W80250  32.167   9.297   4.654
 8580W        W80251  17.599   1.733   3.127
 8581W        W80252  28.064  37.949  10.621
 8582W        W80253  32.989  27.994   0.438
 8583W        W80254  32.053  34.364   1.893
 8584W        W80255   3.267  24.660   3.487
 8585W        W80256  44.704   6.345   4.080
 8586W        W80257   8.301   1.001  13.519
 8587W        W80258   8.255  23.618   4.663
 8588W        W80259  33.430  39.941  10.866
 8589W        W80260  27.605   4.334  10.678
 8590W        W80261  15.948  28.471  11.307
 8591W        W80262   5.610   5.729   2.134
 8592W        W80263  38.753  11.082  10.665
 8593W        W80264  44.207  32.591   2.717
 8594W        W80265   7.366  29.011  10.753
 8595W        W80266   6.440   9.256   0.695
 8596W        W80267  17.041   8.223  12.400
 8597W        W80268  19.786  33.050  10.772
 8598W        W80269  38.273  20.118   4.595
 8599W        W80270   4.397  34.603  14.983
 8600W        W80271   8.243  16.012   2.884
 8601W        W80272  39.391  28.096  12.770
 8602W        W80273  13.845  42.408   0.763
 8603W        W80274  35.574  12.839   4.751
 8604W        W80275  27.646  43.393   2.203
 8605W        W80276  39.023  16.736   0.307
 8606W        W80277  44.455  43.246  12.457
 8607W        W80278  19.059  43.177  10.755
 8608W        W80279  34.832  25.068   2.728
 8609W        W80280  36.832  13.425  11.457
 8610W        W80281   2.207  44.037   2.737
 8611W        W80282  24.069  17.087   9.777
 8612W        W80283  24.593  19.664   3.630
 8613W        W80284  21.952   1.299  13.424
 8614W        W80285  27.372   9.345  12.921
 8615W        W80286  41.113   2.295  10.678
 8616W        W80287  29.344  33.469   3.585
 8617W        W80288  21.013  22.823   4.110
 8618W        W80289  11.956  23.063   3.857
 8619W        W80290  22.178  11.444  12.768
 8620W        W80291  44.526  10.835   1.709
 8621W        W80292  21.640  14.890  11.467
 8622W        W80293  32.435  24.254   0.193
 8623W        W80294  38.819  17.994  13.239
 8624W        W80295  36.854  10.145   2.260
 8625W        W80296  27.968  38.150   1.536
 8626W        W80297  44.815  42.231  13.468
 8627W        W80298  24.164  41.394  12.474
 8628W        W80299  12.179  44.371  10.458
 8629W        W80300  39.544   2.345   0.572
 8630W        W80301   9.510  16.633  10.804
 8631W        W80302  38.280  43.363   1.121
 8632W        W80303  36.723  37.850  13.128
 8633W        W80304  36.013  40.500   9.950
 8634W        W80305  35.613  31.974  10.640
 8635W        W80306  17.144   6.938   3.811
 8636W        W80307  19.667  15.506  14.303
 8637W        W80308  36.691  26.210  14.126
 8638W        W80309  38.512  32.323   0.732
 8639W        W80310  28.530  35.181  10.788
 8640W        W80311   7.260  34.258  13.917
 8641W        W80312  23.467  27.147   4.558
 8642W        W80313  17.273  33.888   4.797
 8643W        W80314  42.125  18.981   3.173
 8644W        W80315  14.970  24.183  12.050
 8645W        W80316  29.474   7.883  12.401
 8646W        W80317   3.206  41.072  11.593
 8647W        W80318  13.182  27.560  12.568
 8648W        W80319  16.502  27.277  14.039
 8649W        W80320  21.253   3.214   3.117
 8650W        W80321  15.750  39.080   4.579
 8651W        W80322   4.301   0.970  12.677
 8652W        W80323  20.668  12.377  13.633
 8653W        W80324  44.488  16.725  14.707
 8654W        W80325  36.779  17.720  12.020
 8655W        W80326  16.154  31.358  11.592
 8656W        W80327  18.296  29.020  12.878
 8657W        W80328  20.593  24.987   0.036
 8658W        W80329  43.330  44.131   5.054
 8659W        W80330   8.881  30.927  13.363
 8660W        W80331  31.441  11.386   3.291
 8661W        W80332  18.572  30.530  14.954
 8662W        W80333  23.283  13.498  12.660
 8663W        W80334  14.588  22.433   1.778
 8664W        W80335  35.988  11.235  13.438
 8665W        W80336  20.740  35.540   2.753
 8666W        W80337  33.395   2.683  13.364
 8667W        W80338  19.411   8.666   4.075
 8668W        W80339  36.048  39.890  14.392
 8669W        W80340   3.765  35.429  11.639
 8670W        W80341   9.769  28.436  13.384
 8671W        W80342  40.412  15.390  13.463
 8672W        W80343  35.208  11.868   0.494
 8673W        W80344  14.659  30.269  12.926
 8674W        W80345   1.543  12.253   2.321
 8675W        W80346   1.296  33.442  11.758
 8676W        W80347  34.562  29.570  11.483
 8677W        W80348  34.393  23.106  12.570
 8678W        W80349  33.684  31.475   1.874
 8679W        W80350   7.444  27.863   5.332
 8680W        W80351   8.472  27.701  12.878
 8681W        W80352  32.361   3.539   3.168
 8682W        W80353  19.137  30.598   1.868
 8683W        W80354  17.285  21.513  12.474
 8684W        W80355  30.649  19.876  11.275
 8685W        W80356  20.158  20.820  13.697
 8686W        W80357  34.017  38.883  12.466
 8687W        W80358  36.859   0.774  14.910
 8688W        W80359  14.715   7.372   4.923
 8689W        W80360  22.252  31.326   4.547
 8690W        W80361  29.180  10.754  13.084
 8691W        W80362  12.664  11.169   0.932
 8692W        W80363  24.107  41.745   1.299
 8693W        W80364  27.756   3.797   0.889
 8694W        W80365   4.671  15.331  12.900
 8695W        W80366   0.018  20.458  14.113
 8696W        W80367   7.441   8.540  13.976
 8697W        W80368  24.115  20.727  11.437
 8698W        W80369   8.994  23.807   4.264
 8699W        W80370  22.171  27.153  11.239
 8700W        W80371  23.988   6.877  14.557
 8701W        W80372   7.662  35.465   4.615
 8702W        W80373  16.678   5.678   3.714
 8703W        W80374   6.438  36.860   3.760
 8704W        W80375  25.997  15.193   1.864
 8705W        W80376  43.722  22.240   3.364
 8706W        W80377  32.340  26.593  12.705
 8707W        W80378   9.833  26.989   2.200
 8708W        W80379  14.562  44.316   3.744
 8709W        W80380  30.509  17.619   4.464
 8710W        W80381  37.016  38.607   4.553
 8711W        W80382   9.197   8.834  11.638
 8712W        W80383  20.106  33.126  13.116
 8713W        W80384  11.693  41.738   1.340
 8714W        W80385  27.543  16.207   3.288
 8715W        W80386  22.954   4.216   3.691
 8716W        W80387  39.291  33.879  11.726
 8717W        W80388  32.653  27.637   3.436
 8718W        W80389  17.316  25.924   0.891
 8719W        W80390  22.345  36.085   9.637
 8720W        W80391  16.052  38.375  13.077
 8721W        W80392  13.964  23.722   4.299
 8722W        W80393  35.992  30.543  14.633
 8723W        W80394  23.861  35.064   2.820
 8724W        W80395  36.803  32.108   1.356
 8725W        W80396  28.102  12.188   0.521
 8726W        W80397  10.314   6.281   3.020
 8727W        W80398  34.283   9.013  11.201
 8728W        W80399  38.326  25.106   2.711
 8729W        W80400   8.911  25.423   1.410
 8730W        W80401  39.963  31.295   4.800
 8731W        W80402  14.820  42.264   3.588
 8732W        W80403  40.043  44.448  11.648
 8733W        W80404  13.865  43.953  13.541
 8734W        W80405  22.544  23.336   1.558
 8735W        W80406  11.629  21.577   1.265
 8736W        W80407  39.447  22.510  12.751
 8737W        W80408  33.733  19.792  13.870
 8738W        W80409  38.282  22.205  14.266
 8739W        W80410  37.106  42.800   0.006
 8740W        W80411  33.625   7.988   1.141
 8741W        W80412  29.640  10.791  12.852
 8742W        W80413  31.704  19.636   3.706
 8743W        W80414  22.245   6.674  14.997
 8744W        W80415   0.968  41.878   1.160
 8745W        W80416   4.034   6.273  13.686
 8746W        W80417   0.261  19.596   0.068
 8747W        W80418   4.619   3.316   0.714
 8748W        W80419  40.100   1.659   1.968
 8749W        W80420  32.381  14.720  13.564
 8750W        W80421  16.106   6.321   1.834
 8751W        W80422  22.069   4.271  11.185
 8752W        W80423   9.303  34.854  14.379
 8753W        W80424  25.174  15.719   0.194
 8754W        W80425  32.367   0.943  12.587
 8755W        W80426   4.832  29.921   0.305
 8756W        W80427  34.151   4.397  10.668
 8757W        W80428  30.890  27.858   2.916
 8758W        W80429  39.661  31.740   2.243
 8759W        W80430  17.298  20.812   2.345
 8760W        W80431   2.740   5.680   0.956
 8761W        W80432  34.559  15.542  13.353
 8762W        W80433  16.972   5.022  10.648
 8763W        W80434  22.152  26.853  14.558
 8764W        W80435  31.570  14.597   1.273
 8765W        W80436  36.561   2.724   0.731
 8766W        W80437  10.855   1.266   0.351
 8767W        W80438   5.276  16.863   2.831
 8768W        W80439  44.407  12.588   5.404
 8769W        W80440  18.753   7.428   2.937
 8770W        W80441   4.763  29.901   2.288
 8771W        W80442  12.628   2.631  14.702
 8772W        W80443   6.932  16.701  10.915
 8773W        W80444  18.326  23.492   4.509
 8774W        W80445  38.521  39.067   3.156
 8775W        W80446   5.057  33.521  11.038
 8776W        W80447  10.723  15.797   3.784
 8777W        W80448   3.869  31.453   2.347
 8778W        W80449  33.418  22.995   4.425
 8779W        W80450   3.447  28.075   3.430
 8780W        W80451  27.491   0.947   2.250
 8781W        W80452  37.644   2.147  14.520
 8782W        W80453  32.908  16.145   2.336
 8783W        W80454  15.514  38.370  10.425
 8784W        W80455  44.355   8.623   3.763
 8785W        W80456   9.404  35.323   1.815
 8786W        W80457  19.228  39.782   2.315
 8787W        W80458  12.538  17.216  13.787
 8788W        W80459  24.504  32.196  11.655
 8789W        W80460  37.043  11.669   1.741
 8790W        W80461   8.508  26.675   4.921
 8791W        W80462  18.697  12.269  14.719
 8792W        W80463  37.693  15.879  10.135
 8793W        W80464  37.314  10.358  11.193
 8794W        W80465  27.151  37.895  13.900
 8795W        W80466  42.383  43.258   4.509
 8796W        W80467   6.259   5.668   0.395
 8797W        W80468  11.089  22.004  13.436
 8798W        W80469  36.534  30.299   2.640
 8799W        W80470  39.796  15.425   0.323
 8800W        W80471  13.272  21.978   0.714
 8801W        W80472   2.131  33.326  13.628
 8802W        W80473   6.762  43.843  11.375
 8803W        W80474  15.561   7.228   1.241
 8804W        W80475  36.315  39.607  11.720
 8805W        W80476  15.107  24.401   2.522
 8806W        W80477  31.663  37.844  12.511
 8807W        W80478  21.571   1.841  14.229
 8808W        W80479   2.327  30.567   4.563
 8809W        W80480  28.153  42.480  11.116
 8810W        W80481  14.280   0.856   1.436
 8811W        W80482  27.223  30.913  10.768
 8812W        W80483   1.439  15.085  11.535
 8813W        W80484  27.149  42.879  13.951
 8814W        W80485  20.592  39.042  14.379
 8815W        W80486  15.702  39.387  11.055
 8816W        W80487  13.857  38.374   2.358
 8817W        W80488  29.920  30.636   2.271
 8818W        W80489  15.226  26.476   3.021
 8819W        W80490  27.380  37.223  12.420
 8820W        W80491  32.529   1.044  12.110
 8821W        W80492  36.492  13.110   2.928
 8822W        W80493  31.661  28.409  13.369
 8823W        W80494   8.860   2.232  14.393
 8824W        W80495   6.316  19.834  10.650
 8825W        W80496  11.210  13.818   2.357
 8826W        W80497  21.001   9.667  14.865
 8827W        W80498  31.975  42.766  10.394
 8828W        W80499  19.675  19.084  12.517
 8829W        W80500  24.199  37.345  13.710
 8830W        W80501  30.158  10.276   3.114
 8831W        W80502  40.973  14.799  13.972
 8832W        W80503   6.165  37.438  13.929
 8833W        W80504  17.542  42.792  10.563
 8834W        W80505  23.635  41.139   2.854
 8835W        W80506  17.752  29.127   0.257
 8836W        W80507  22.598  38.328  12.586
 8837W        W80508  31.711   8.439   3.337
 8838W        W80509  30.045  10.582  14.062
 8839W        W80510  30.842  16.360   3.621
 8840W        W80511  38.529  36.075   4.935
 8841W        W80512  30.523  35.468   2.360
 8842W        W80513  16.334  36.579  13.052
 8843W        W80514  32.225  41.439  14.855
 8844W        W80515  10.925  24.623  11.405
 8845W        W80516   1.384  33.397  10.776
 8846W        W80517  28.551  33.612  14.849
 8847W        W80518  22.093   9.851   3.789
 8848W        W80519  38.939  22.482  10.436
 8849W        W80520   3.541  28.872  14.574
 8850W        W80521  26.100  24.184   1.153
 8851W        W80522  10.695  42.930  10.430
 8852W        W80523   3.974  21.600  14.846
 8853W        W80524  37.368  40.415  11.188
 8854W        W80525   2.707  42.880   0.423
 8855W        W80526  41.063   3.963  14.449
 8856W        W80527  21.029  43.950  11.861
 8857W        W80528  29.054   5.751  10.602
 8858W        W80529  38.259  39.433  14.444
 8859W        W80530  20.141  42.692  14.417
 8860W        W80531  15.803  14.814   0.824
 8861W        W80532  38.825  33.100  13.367
 8862W        W80533  32.484  28.477  14.787
 8863W        W80534  23.755   8.737  11.082
 8864W        W80535  35.186  19.672  13.868
 8865W        W80536  16.807  35.809  11.069
 8866W        W80537   1.948  33.457  14.903
 8867W        W80538  11.393  43.240  12.964
 8868W        W80539  20.266  15.852   4.051
 8869W        W80540   8.765  43.389   3.784
 8870W        W80541  10.532   0.570  10.160
 8871W        W80542  22.943  34.014   3.563
 8872W        W80543  12.862   7.458  10.939
 8873W        W80544  28.658  30.444   2.702
 8874W        W80545  25.686   8.934   0.307
 8875W        W80546  15.274   0.545  13.128
 8876W        W80547  44.067  19.601   0.521
 8877W        W80548  29.723  10.052  12.668
 8878W        W80549   8.884  44.246   0.271
 8879W        W80550   3.348  12.392   0.946
 8880W        W80551   1.365  40.312   4.191
 8881W        W80552  31.177  12.313  12.605
 8882W        W80553  36.613  27.971   5.035
 8883W        W80554  16.343  39.121  11.948
 8884W        W80555  15.645  42.929   3.639
 8885W        W80556  32.025  14.299   5.113
 8886W        W80557   1.687  22.902   1.727
 8887W        W80558  29.503  17.211   0.008
 8888W        W80559   0.202  40.013  10.919
 8889W        W80560  30.521  43.817   4.699
 8890W        W80561  12.099   3.785   1.538
 8891W        W80562  44.492  28.920   2.803
 8892W        W80563  25.679  35.520   2.644
 8893W        W80564  11.470  35.553   1.410
 8894W        W80565  20.061   9.950  11.587
 8895W        W80566  17.305  33.838   1.276
 8896W        W80567  39.194  24.726   4.068
 8897W        W80568  15.783  38.313  12.422
 8898W        W80569  12.562  24.828  10.686
 8899W        W80570  42.029   2.479   2.039
 8900W        W80571  39.485  32.007  11.068
 8901W        W80572  17.071   8.825  11.000
 8902W        W80573   1.916  34.210   1.101
 8903W        W80574   5.425  32.607  10.739
 8904W        W80575  40.556  12.790  10.647
 8905W        W80576  43.513  14.041   1.196
 8906W        W80577  26.214  42.855  11.612
 8907W        W80578  13.761  38.368  13.408
 8908W        W80579  42.831  19.683  12.310
 8909W        W80580  36.398  41.306   0.838
 8910W        W80581   4.862  23.045  12.995
 8911W        W80582  35.187  15.788   3.751
 8912W        W80583  39.922  42.865  12.238
 8913W        W80584  26.120  30.676   3.636
 8914W        W80585  15.608  14.904   4.154
 8915W        W80586  39.674  28.489   0.060
 8916W        W80587   2.495   7.379   1.889
 8917W        W80588  37.749  32.270   2.409
 8918W        W80589  12.710   5.194  10.961
 8919W        W80590   1.960  27.234   0.475
 8920W        W80591   1.439  32.701   3.590
 8921W        W80592   7.380   6.716   0.307
 8922W        W80593  30.803  19.379  10.685
 8923W        W80594  34.165  21.988   1.291
 8924W        W80595  13.191  15.138  13.097
 8925W        W80596  15.551  10.365  12.919
 8926W        W80597  43.978  32.618   3.747
 8927W        W80598  33.555  34.602   2.648
 8928W        W80599  13.446   8.308   4.535
 8929W        W80600  16.570  42.287  13.809
 8930W        W80601   6.406  26.712   4.110
 8931W        W80602  41.327  15.104   1.707
 8932W        W80603   3.271  20.751   2.488
 8933W        W80604  24.208  14.650  12.811
 8934W        W80605  35.324   2.439   2.343
 8935W        W80606  11.501  22.276   1.249
 8936W        W80607  36.093   5.277  13.340
 8937W        W80608  13.889  30.606   2.000
 8938W        W80609   3.038  34.047   2.450
 8939W        W80610   8.111  43.002  13.814
 8940W        W80611   5.018   8.377  11.611
 8941W        W80612  35.020  21.831   1.958
 8942W        W80613  17.734  43.292  13.188
 8943W        W80614  41.580  30.889  12.538
 8944W        W80615  31.532  15.828   3.253
 8945W        W80616  36.642  32.174  13.622
 8946W        W80617   0.402   6.418  12.055
 8947W        W80618   0.144  27.053   3.882
 8948W        W80619  38.025  14.384  14.493
 8949W        W80620   3.779  21.728  13.013
 8950W        W80621  34.344   7.227  11.208
 8951W        W80622  12.576   3.015   0.593
 8952W        W80623  41.183   6.870  13.507
 8953W        W80624  38.355   4.738  14.309
 8954W        W80625  40.840  37.542  14.789
 8955W        W80626  28.014  32.682  14.452
 8956W        W80627  15.307  12.993   4.291
 8957W        W80628  17.630  36.578   2.816
 8958W        W80629  25.048   1.741   3.506
 8959W        W80630  36.121  19.998   3.416
 8960W        W80631  40.477  40.551   1.013
 8961W        W80632  16.530  33.385   3.586
 8962W        W80633  31.026  30.613   5.006
 8963W        W80634  29.288  15.396   4.163
 8964W        W80635  33.346  39.224   0.220
 8965W        W80636  25.069  41.769   0.412
 8966W        W80637  34.110  39.389  12.525
 8967W        W80638  10.621  31.971   4.505
 8968W        W80639  29.768  12.637   3.311
 8969W        W80640  17.815   8.730  14.505
 8970W        W80641  12.100  26.622   2.932
 8971W        W80642  32.090  33.996   1.209
 8972W        W80643  17.152  22.735  10.941
 8973W        W80644  36.608  20.471   2.277
 8974W        W80645  14.765  21.007  10.738
 8975W        W80646  32.203  13.243  14.399
 8976W        W80647  17.050  28.931   4.236
 8977W        W80648  18.371  25.586  11.163
 8978W        W80649  37.521  35.883  13.329
 8979W        W80650  10.228  21.683   3.668
 8980W        W80651   5.822  19.757   1.275
 8981W        W80652  17.846  43.647   4.649
 8982W        W80653  26.160  33.114   0.053
 8983W        W80654  33.092  36.460   3.864
 8984W        W80655   5.258  43.970  11.668
 8985W        W80656  38.817  29.991   2.202
 8986W        W80657  35.172   2.334   1.696
 8987W        W80658   2.731  11.260   1.754
 8988W        W80659  20.499  20.374  14.981
 8989W        W80660  35.790  14.160  10.777
 8990W        W80661  12.364  42.211   4.727
 8991W        W80662  41.255  40.229   0.245
 8992W        W80663  25.969  26.501  14.874
 8993W        W80664  40.385  22.753  11.115
 8994W        W80665  42.028  22.308  12.025
 8995W        W80666  27.577  44.485   4.023
 8996W        W80667  12.225  32.967  14.021
 8997W        W80668  34.734  35.047   3.150
 8998W        W80669   6.363  23.371   3.133
 8999W        W80670  39.497  32.390  11.782
 9000W        W80671  19.263   5.465   0.456
 9001W        W80672  17.303  35.542   5.132
 9002W        W80673  20.327  39.007   0.051
 9003W        W80674  28.063   4.510   4.201
 9004W        W80675  12.515   9.352  10.633
 9005W        W80676  39.247  39.736  14.307
 9006W        W80677  29.334  21.327   2.564
 9007W        W80678  14.308  19.687   4.357
 9008W        W80679  20.685  31.526   4.597
 9009W        W80680   5.979  17.487   0.225
 9010W        W80681   3.365  43.016   1.283
 9011W        W80682   9.568  37.563  14.299
 9012W        W80683  38.311  39.777   4.842
 9013W        W80684  41.077  17.647   0.444
 9014W        W80685   0.195  17.668   3.584
 9015W        W80686  21.192  34.010   1.337
 9016W        W80687  34.131  12.322  11.072
 9017W        W80688  35.540  24.803   2.694
 9018W        W80689   5.196  13.973   2.194
 9019W        W80690  19.840  43.466   0.883
 9020W        W80691   9.808   0.992  10.716
 9021W        W80692  16.453   8.105   0.754
 9022W        W80693  36.090  16.037   3.384
 9023W        W80694  35.844   9.420  13.864
 9024W        W80695   9.988  41.789   4.824
 9025W        W80696  14.163   9.405   1.906
 9026W        W80697  16.881  31.890   0.193
 9027W        W80698  41.855  42.543  11.114
 9028W        W80699  20.503  28.659   1.691
 9029W        W80700  40.616  18.175   1.803
 9030W        W80701  11.000  13.922   2.839
 9031W        W80702  26.812  43.793  10.856
 9032W        W80703  32.464  28.341  12.496
 9033W        W80704   1.535  10.722   0.338
 9034W        W80705  22.238  33.021  14.811
 9035W        W80706  21.644  31.244   1.920
 9036W        W80707   9.333  21.003  11.820
 9037W        W80708  21.800  38.775   1.290
 9038W        W80709  32.799  19.148  11.763
 9039W        W80710  41.535  31.395   4.336
 9040W        W80711  14.186  24.581   4.516
 9041W        W80712  28.901  19.297   0.840
 9042W        W80713  40.491  26.847   2.468
 9043W        W80714  41.045  19.462   1.229
 9044W        W80715  19.549   5.998   3.557
 9045W        W80716   8.032  15.441   4.958
 9046W        W80717  14.718   0.821  12.478
 9047W        W80718  31.449  38.134  14.435
 9048W        W80719  41.575   3.522   2.277
 9049W        W80720   1.238  33.115   3.371
 9050W        W80721  16.967  25.170  14.705
 9051W        W80722  20.471   3.719  12.339
 9052W        W80723  19.412  21.055  14.721
 9053W        W80724  39.329  11.700   2.815
 9054W        W80725  25.025  29.628   0.900
 9055W        W80726   4.130   1.944  11.660
 9056W        W80727   6.671  24.466   0.297
 9057W        W80728  11.851  44.961  11.452
 9058W        W80729  28.062  31.164   0.438
 9059W        W80730   9.022  31.613   3.286
 9060W        W80731  12.144  29.610  12.165
 9061W        W80732  30.663  10.855   1.885
 9062W        W80733  14.930  29.689  14.470
 9063W        W80734  20.081  34.011   2.293
 9064W        W80735  29.633  43.973  12.687
 9065W        W80736  42.832   5.310   1.419
 9066W        W80737  22.450  34.672  11.730
 9067W        W80738  24.213  37.652   4.122
 9068W        W80739   6.155  33.567  14.906
 9069W        W80740   6.373  26.489   0.418
 9070W        W80741  27.455  25.060  11.573
 9071W        W80742  31.821  44.711  10.637
 9072W        W80743   6.352   3.688  11.194
 9073W        W80744  20.683  27.297   2.929
 9074W        W80745   6.863  41.883  13.100
 9075W        W80746  11.837  33.529   2.697
 9076W        W80747  15.359  35.062   4.231
 9077W        W80748   5.347   5.135   3.615
 9078W        W80749  30.184  16.643  14.881
 9079W        W80750  42.307   2.340   0.835
 9080W        W80751  21.264  18.638  12.039
 9081W        W80752  30.270  23.040   4.818
 9082W        W80753  12.425  25.002   2.908
 9083W        W80754  30.135  41.329  10.711
 9084W        W80755  35.343  24.952   1.568
 9085W        W80756  42.271  32.647   0.410
 9086W        W80757  40.937  43.428  13.964
 9087W        W80758  21.000  11.255   3.972
 9088W        W80759  35.335  16.976   3.173
 9089W        W80760  41.561   0.894   3.836
 9090W        W80761  38.098  35.086   3.818
 9091W        W80762  38.532  13.188  10.690
 9092W        W80763  28.670  16.656  12.164
 9093W        W80764  43.084  22.527   4.737
 9094W        W80765  34.826  22.677   0.266
 9095W        W80766   8.205   2.859   2.835
 9096W        W80767   5.730   5.796  13.588
 9097W        W80768  18.665  23.651  10.976
 9098W        W80769  35.491  22.226   1.717
 9099W        W80770  35.547  43.979  13.890
 9100W        W80771  31.028  24.119  13.426
 9101W        W80772   5.399  32.349  11.182
 9102W        W80773  23.618   7.200   2.815
 9103W        W80774   9.743  42.847  11.087
 9104W        W80775  27.298  11.918  13.012
 9105W        W80776  18.985  33.332   2.584
 9106W        W80777  43.823  32.129   1.836
 9107W        W80778  25.941   1.057   1.906
 9108W        W80779   0.772  44.320   3.104
 9109W        W80780  16.685  13.558   2.019
 9110W        W80781  14.966  43.746  12.506
 9111W        W80782  16.351  34.608   3.736
 9112W        W80783   0.406  33.383   1.799
 9113W        W80784  16.510  35.629  11.451
 9114W        W80785  20.742   6.337  14.838
 9115W        W80786   5.175  37.813   1.371
 9116W        W80787  30.046  41.204   4.347
 9117W        W80788   6.452  17.969   0.805
 9118W        W80789  37.488   6.367   0.500
 9119W        W80790   2.489  16.163   1.698
 9120W        W80791  40.082   2.169   1.839
 9121W        W80792   0.926   3.903   2.364
 9122W        W80793  26.491  32.566  11.643
 9123W        W80794  36.277  38.599   2.426
 9124W        W80795  12.045  21.935  11.914
 9125W        W80796  17.752  42.406   2.713
 9126W        W80797   4.417  30.217  12.551
 9127W        W80798  20.844  28.977   3.181
 9128W        W80799  31.085  25.508   1.889
 9129W        W80800   6.678  35.065   3.343
 9130W        W80801  11.132  11.305  11.072
 9131W        W80802  29.904   9.111   4.626
 9132W        W80803  35.439  25.039  13.056
 9133W        W80804  22.890   5.639   0.411
 9134W        W80805  40.293   6.229  14.641
 9135W        W80806  28.137  29.259  11.134
 9136W        W80807  44.733   5.435   2.265
 9137W        W80808  33.599  21.212  11.898
 9138W        W80809  15.657  20.279   1.900
 9139W        W80810  15.583  23.152  12.804
 9140W        W80811  43.844  44.919   4.695
 9141W        W80812  37.806  36.117  12.970
 9142W        W80813   7.672  44.926  14.860
 9143W        W80814  41.935  32.388  13.368
 9144W        W80815  17.160  31.620  10.734
 9145W        W80816  32.830   1.617  12.952
 9146W        W80817  41.733  40.042   1.457
 9147W        W80818  24.964  20.305   3.123
 9148W        W80819   3.236  43.745   2.855
 9149W        W80820  43.140  31.874  13.038
 9150W        W80821  26.684  22.407   2.595
 9151W        W80822   4.294   0.242   1.948
 9152W        W80823  19.157  24.016   4.153
 9153W        W80824  23.456  37.862  10.213
 9154W        W80825  37.411  18.613  14.881
 9155W        W80826  44.075  16.164  14.374
 9156W        W80827  20.810  22.718  10.592
 9157W        W80828   4.819  35.584   0.805
 9158W        W80829  17.389  26.011   2.865
 9159W        W80830   3.805  34.563   9.660
 9160W        W80831  15.116   9.429   1.805
 9161W        W80832  26.955   4.343   4.100
 9162W        W80833  20.166  30.155   5.025
 9163W        W80834  30.106  28.040  11.980
 9164W        W80835   9.887  38.060   4.124
 9165W        W80836  30.673  28.911  13.361
 9166W        W80837  25.589  25.396  12.558
 9167W        W80838  43.237   1.162  12.057
 9168W        W80839  42.382   5.436  11.896
 9169W        W80840   2.497  19.772   5.121
 9170W        W80841  16.282  38.738   9.964
 9171W        W80842  24.930   9.804  14.284
 9172W        W80843  33.779  39.385   0.474
 9173W        W80844  21.294   9.784   4.284
 9174W        W80845  31.819  39.490   2.628
 9175W        W80846  42.347  16.515  10.706
 9176W        W80847  16.659  19.758  12.324
 9177W        W80848  14.826  37.581   1.846
 9178W        W80849   3.620  15.172  10.589
 9179W        W80850  23.174  31.094  13.958
 9180W        W80851  27.907  18.492   2.089
 9181W        W80852  35.473  39.309   1.727
 9182W        W80853  11.228   4.463   3.695
 9183W        W80854  43.407  13.617  12.531
 9184W        W80855  40.870  17.307  11.076
 9185W        W80856  23.210  39.956   2.679
 9186W        W80857  22.106  12.259   0.307
 9187W        W80858  29.021  15.790  12.839
 9188W        W80859   6.147   8.943  14.485
 9189W        W80860  31.668   0.218   0.166
 9190W        W80861   3.151  19.752  11.710
 9191W        W80862  28.565  23.992   0.520
 9192W        W80863  29.871   4.725  11.048
 9193W        W80864  16.786  34.066   4.654
 9194W        W80865   2.329  21.551  12.382
 9195W        W80866  24.620   5.523   3.869
 9196W        W80867  25.007  25.465  12.925
 9197W        W80868  10.205  22.865   5.309
 9198W        W80869  41.935   7.745  13.402
 9199W        W80870  33.953  19.955   4.145
 9200W        W80871  31.966  28.758   4.655
 9201W        W80872   0.600  17.632  10.954
 9202W        W80873  37.357  23.175  14.424
 9203W        W80874  37.294  16.168   2.727
 9204W        W80875  10.080   4.270  13.939
 9205W        W80876   9.348  12.482  14.694
 9206W        W80877   6.470  21.033  12.798
 9207W        W80878  31.407  41.820   2.770
 9208W        W80879   2.322  38.065   1.309
 9209W        W80880  34.211  17.500   3.079
 9210W        W80881  29.374   9.807   2.726
 9211W        W80882  23.380  28.584   5.027
 9212W        W80883  15.702  34.714   4.496
 9213W        W80884   9.847  42.262   0.849
 9214W        W80885  25.978  42.308   2.719
 9215W        W80886   4.077  42.525  14.358
 9216W        W80887   3.140  16.824  13.742
 9217W        W80888  33.465  41.721  10.704
 9218W        W80889  14.947  38.912   4.275
 9219W        W80890  32.331  30.609   4.180
 9220W        W80891  44.526  31.485   1.675
 9221W        W80892  25.590  17.691   0.814
 9222W        W80893  12.772  28.613   4.226
 9223W        W80894   1.760   8.762  13.500
 9224W        W80895  31.083   5.687  11.588
 9225W        W80896  13.926  20.588  13.830
 9226W        W80897  23.241  43.952   3.633
 9227W        W80898  17.731  13.142   3.274
 9228W        W80899  27.620  37.582  13.562
 9229W        W80900  30.649  43.521  13.526
 9230W        W80901  42.769  33.052   1.665
 9231W        W80902  12.742  11.738  11.220
 9232W        W80903  14.407  36.560   3.900
 9233W        W80904   0.440  17.254  12.690
 9234W        W80905   7.880  28.235  10.786
 9235W        W80906  22.743  37.795  11.273
 9236W        W80907  16.077   5.060   4.794
 9237W        W80908   8.195   2.821   0.250
 9238W        W80909  17.451  40.713   0.243
 9239W        W80910  23.034  17.307   0.920
 9240W        W80911  37.375  23.809   0.807
 9241W        W80912   9.728  16.119  11.481
 9242W        W80913  32.985  34.196   4.142
 9243W        W80914  43.054  35.451  10.765
 9244W        W80915   8.774  25.404  14.914
 9245W        W80916  25.468  25.673  11.109
 9246W        W80917  33.935  27.371   1.325
 9247W        W80918   4.636  43.923  14.578
 9248W        W80919  27.810  40.030  13.277
 9249W        W80920   5.417  28.568   2.834
 9250W        W80921   5.702  36.194  11.653
 9251W        W80922  33.422  31.331   0.519
 9252W        W80923  39.510   7.349   2.660
 9253W        W80924  18.288   1.186   3.626
 9254W        W80925  37.498  25.678  11.525
 9255W        W80926  23.758  38.016  12.827
 9256W        W80927  32.580  20.100  12.066
 9257W        W80928  10.205  40.957   3.761
 9258W        W80929  39.708  30.576  13.535
 9259W        W80930  36.314  11.110   0.257
 9260W        W80931  10.704  12.088  14.100
 9261W        W80932  27.875  27.015  13.362
 9262W        W80933  18.661  31.077  10.558
 9263W        W80934  19.216  41.460  10.954
 9264W        W80935  17.187  33.124  13.959
 9265W        W80936  22.108  22.050  13.743
 9266W        W80937  17.078  26.074  12.844
 9267W        W80938  27.348  14.355  14.077
 9268W        W80939  39.519  20.592  13.152
 9269W        W80940  39.496  43.788  11.458
 9270W        W80941  19.501  20.098   3.471
 9271W        W80942  43.582  23.240   4.552
 9272W        W80943  37.526  14.081  13.565
 9273W        W80944   8.386  29.137   0.425
 9274W        W80945  11.133  32.333  12.550
 9275W        W80946  28.189  41.134  13.844
 9276W        W80947   1.937  16.637   2.353
 9277W        W80948  41.393   8.286   2.807
 9278W        W80949  30.907  31.042  13.769
 9279W        W80950  17.872  26.490   4.581
 9280W        W80951  16.638   7.638  13.635
 9281W        W80952  12.830  11.183  10.514
 9282W        W80953  17.201  27.472  14.494
 9283W        W80954  37.547  25.057  14.169
 9284W        W80955  37.577  37.084  11.115
 9285W        W80956  32.839   4.360   0.317
 9286W        W80957  11.936  40.027   3.107
 9287W        W80958  37.078  10.880  12.594
 9288W        W80959  18.693  24.034  12.370
 9289W        W80960  38.596  20.725  10.596
 9290W        W80961  31.895  25.955   2.728
 9291W        W80962   8.529  37.889  13.131
 9292W        W80963  29.069  40.540  10.785
 9293W        W80964  20.685  12.309   4.607
 9294W        W80965  28.469   9.378   5.400
 9295W        W80966  31.013  27.073   0.394
 9296W        W80967  17.601   1.955   3.616
 9297W        W80968  23.407  29.148   1.179
 9298W        W80969  10.576  12.333  12.450
 9299W        W80970  26.887   2.879  13.316
 9300W        W80971   9.837  31.176   1.728
 9301W        W80972  40.954   6.290  14.012
 9302W        W80973  14.918  17.543   1.711
 9303W        W80974  32.668  20.784  11.692
 9304W        W80975   0.942  31.370   4.648
 9305W        W80976  12.303  13.276   0.220
 9306W        W80977  32.905   4.112   2.662
 9307W        W80978  41.295  23.988  10.694
 9308W        W80979   6.628  36.860   4.556
 9309W        W80980  19.639  18.505  11.313
 9310W        W80981   9.269  12.834   4.793
 9311W        W80982  16.341  37.565   0.593
 9312W        W80983  14.290  25.035  13.868
 9313W        W80984  44.442  15.709   4.581
 9314W        W80985  25.038  25.691   0.961
 9315W        W80986  21.212   6.599  12.034
 9316W        W80987  32.103  30.779   2.927
 9317W        W80988  16.212  37.005  14.319
 9318W        W80989  30.952  12.874   0.375
 9319W        W80990  41.394  18.129   4.620
 9320W        W80991  14.255  38.448  13.098
 9321W        W80992  12.162  34.329   2.757
 9322W        W80993  35.002  32.304   4.612
 9323W        W80994  18.194  14.314   1.355
 9324W        W80995  43.521  16.275   3.500
 9325W        W80996  28.165  26.199  10.481
 9326W        W80997  17.851  12.976   1.458
 9327W        W80998  23.222  35.801  12.109
 9328W        W80999  32.317  23.478   0.002
 9329W        W81000  33.935   5.802   0.512
 9330W        W81001  24.663  29.638  11.608
 9331W        W81002  36.450  26.447   1.400
 9332W        W81003  30.961  18.307   1.916
 9333W        W81004  27.881   1.732  13.537
 9334W        W81005  12.239   4.278   3.670
 9335W        W81006  14.712  29.423   0.710
 9336W        W81007  27.583  29.425   2.963
 9337W        W81008  26.342  11.115   0.329
 9338W        W81009  26.172  12.018  12.182
 9339W        W81010  14.286  17.284   2.901
 9340W        W81011   1.452  41.027  14.465
 9341W        W81012  18.326  44.613  10.128
 9342W        W81013   7.160  34.379   2.481
 9343W        W81014  36.046   6.941  14.337
 9344W        W81015   9.855  26.674  13.900
 9345W        W81016  35.556  43.106  11.146
 9346W        W81017  15.715  35.329   0.972
 9347W        W81018   6.899  43.810   2.775
 9348W        W81019  40.411  27.602   1.978
 9349W        W81020   8.332  24.248  12.535
 9350W        W81021   0.708  34.106  12.262
 9351W        W81022  25.950  17.386   1.301
 9352W        W81023   2.708  33.637   3.207
 9353W        W81024  34.074  43.189  11.420
 9354W        W81025  30.575  36.305   3.391
 9355W        W81026   9.108   0.423  12.396
 9356W        W81027   4.964  43.214   1.866
 9357W        W81028  25.591  21.018   2.262
 9358W        W81029  14.230  11.784  14.926
 9359W        W81030  41.421  42.036  14.838
 9360W        W81031  24.713  40.602   4.625
 9361W        W81032  41.880  42.292   2.326
 9362W        W81033  17.037  31.561   2.860
 9363W        W81034   7.819  19.007   2.120
 9364W        W81035  35.946  38.747  12.619
 9365W        W81036  40.927  41.776  14.951
 9366W        W81037  13.775  14.561   4.507
 9367W        W81038  42.502   7.193  13.415
 9368W        W81039   1.406  38.298   1.851
 9369W        W81040  41.869  43.682  14.374
 9370W        W81041   9.489  30.075  14.351
 9371W        W81042  16.976   9.901   1.725
 9372W        W81043   5.682  12.784   2.192
 9373W        W81044  18.654  41.324   1.636
 9374W        W81045  40.958  21.781  11.509
 9375W        W81046  38.040  11.272  12.297
 9376W        W81047  29.019  13.116   4.860
 9377W        W81048  22.750  32.140   3.059
 9378W        W81049  17.738  37.013   3.136
 9379W        W81050  42.748  41.558   3.165
 9380W        W81051  34.037  31.193  11.168
 9381W        W81052  16.237  20.243   4.744
 9382W        W81053  11.875   6.295   2.701
 9383W        W81054  20.417  11.372   0.762
 9384W        W81055  27.042  41.842   4.701
 9385W        W81056  33.665  24.718   0.939
 9386W        W81057  21.073  32.821  10.662
 9387W        W81058  21.492  15.110  14.469
 9388W        W81059  41.337  26.780  13.874
 9389W        W81060  39.803  17.720  14.137
 9390W        W81061  10.530   1.281   2.309
 9391W        W81062  44.591  24.720  14.234
 9392W        W81063  16.528  32.747  11.945
 9393W        W81064  34.147  17.661   4.540
 9394W        W81065  19.759  19.585  12.562
 9395W        W81066  42.889  20.799  13.953
 9396W        W81067   5.688  36.081  12.564
 9397W        W81068   8.336  15.069   3.651
 9398W        W81069  27.616  14.702   1.458
 9399W        W81070   4.909  11.590   2.824
 9400W        W81071  41.362   5.478  13.516
 9401W        W81072  15.363  11.748   4.615
 9402W        W81073   8.843  31.699  12.049
 9403W        W81074  34.655  12.286  14.337
 9404W        W81075  17.238  33.422  13.505
 9405W        W81076  17.065  41.754   4.055
 9406W        W81077  28.630  20.392   1.872
 9407W        W81078   8.713  13.784  11.217
 9408W        W81079  26.135  34.298   4.171
 9409W        W81080   8.382  32.166  13.918
 9410W        W81081   3.724   3.186  13.538
 9411W        W81082  21.722  19.278   0.458
 9412W        W81083  39.082  20.587   3.065
 9413W        W81084   3.933  40.351   4.098
 9414W        W81085   2.852  30.077  12.448
 9415W        W81086  10.280  37.327  11.134
 9416W        W81087  42.243  24.624  11.239
 9417W        W81088  38.425  39.401  12.594
 9418W        W81089  39.754  13.618   3.201
 9419W        W81090  11.942  41.508  11.699
 9420W        W81091  40.761   7.221   3.264
 9421W        W81092  30.763  30.696   0.045
 9422W        W81093  12.937  29.551   1.528
 9423W        W81094  43.806  37.416   0.393
 9424W        W81095  10.113  24.133  11.502
 9425W        W81096  24.537  20.011   4.552
 9426W        W81097  33.930  44.003  11.165
 9427W        W81098  12.149  28.918  13.392
 9428W        W81099   1.830  41.036   0.334
 9429W        W81100  23.165   6.286   1.799
 9430W        W81101  31.684   6.729   1.227
 9431W        W81102  23.643  36.329  12.263
 9432W        W81103  19.832  19.748   3.166
 9433W        W81104  31.428  11.328   4.166
 9434W        W81105  30.697  22.560   5.227
 9435W        W81106  11.745  14.123  14.812
 9436W        W81107  17.597   9.135  12.072
 9437W        W81108  16.046  38.839  12.848
 9438W        W81109   7.444  23.290   9.837
 9439W        W81110  18.569   3.356   3.427
 9440W        W81111  17.634   3.490  14.473
 9441W        W81112  43.647  21.518   3.076
 9442W        W81113  37.326  28.132   3.272
 9443W        W81114  17.763  37.583  11.551
 9444W        W81115   7.269  21.427   1.090
 9445W        W81116   9.873  41.809  14.985
 9446W        W81117  15.180  15.553  11.779
 9447W        W81118  36.958  10.650  14.597
 9448W        W81119  41.788  41.845   4.014
 9449W        W81120  44.929  19.987  14.295
 9450W        W81121  21.009  36.077  14.919
 9451W        W81122   5.942  38.013  13.869
 9452W        W81123  39.253  14.756   1.659
 9453W        W81124  39.831  37.651   2.376
 9454W        W81125   7.897  15.108  14.487
 9455W        W81126  38.872  43.304  13.030
 9456W        W81127  16.957   2.464   1.748
 9457W        W81128   5.261  23.142   0.686
 9458W        W81129  24.454  33.886  13.425
 9459W        W81130   3.450  39.906  11.134
 9460W        W81131  25.494  17.742  14.200
 9461W        W81132  25.033  26.572   2.406
 9462W        W81133  34.469  23.723  11.416
 9463W        W81134  23.264  23.035   0.930
 9464W        W81135  39.489   3.230   2.877
 9465W        W81136  42.717  12.561   4.992
 9466W        W81137   2.943  35.874  12.943
 9467W        W81138   5.394  18.512  11.836
 9468W        W81139  21.637   3.988  11.580
 9469W        W81140  18.724  42.951  12.491
 9470W        W81141  44.463  26.401   2.097
 9471W        W81142  30.213   9.432   2.799
 9472W        W81143   8.054  13.841   2.179
 9473W        W81144  40.087   8.870   0.487
 9474W        W81145  44.916  27.700   4.922
 9475W        W81146  39.511  35.596  12.645
 9476W        W81147  35.770  32.019   1.292
 9477W        W81148  11.624  43.456  12.514
 9478W        W81149  31.405  36.845  14.062
 9479W        W81150  10.171  39.575   1.385
 9480W        W81151  21.316  21.022   5.111
 9481W        W81152  37.345   7.671  10.656
 9482W        W81153  33.430  41.537   1.746
 9483W        W81154  37.307  31.206   1.363
 9484W        W81155  11.322   1.247   2.548
 9485W        W81156   6.152  21.591   3.085
 9486W        W81157  35.947  44.596   1.549
 9487W        W81158  16.724  18.970  11.095
 9488W        W81159   4.426  40.140   2.667
 9489W        W81160   4.907  34.529   0.710
 9490W        W81161  18.940  41.417  10.027
 9491W        W81162  31.033  37.583  13.876
 9492W        W81163   6.832  32.362  11.682
 9493W        W81164  41.516  17.033  12.880
 9494W        W81165  24.059  38.337   1.363
 9495W        W81166  10.472  42.422   1.379
 9496W        W81167  27.100  17.633   2.682
 9497W        W81168   3.645  18.188  14.860
 9498W        W81169  21.572  25.328   4.626
 9499W        W81170  18.079   2.913   3.679
 9500W        W81171  24.212   0.229   1.893
 9501W        W81172  41.666   2.730   3.042
 9502W        W81173   4.713  23.491   4.348
 9503W        W81174   9.204  42.379   3.822
 9504W        W81175  31.472  40.345  12.573
 9505W        W81176  35.384  28.190   2.219
 9506W        W81177  43.031   3.906   4.716
 9507W        W81178  18.733  27.748  10.996
 9508W        W81179  17.850  33.454  12.358
 9509W        W81180  28.136   0.257  11.212
 9510W        W81181  11.373  22.996  11.170
 9511W        W81182  24.470  39.293   0.499
 9512W        W81183  44.042   8.063   2.264
 9513W        W81184  13.590  33.675  13.927
 9514W        W81185  32.525  32.439   1.712
 9515W        W81186  40.371  41.519   0.786
 9516W        W81187  13.118  24.546   2.940
 9517W        W81188  38.297  41.248   2.444
 9518W        W81189  10.137  27.586  14.997
 9519W        W81190  31.034  21.759  11.087
 9520W        W81191   3.785  43.465  10.652
 9521W        W81192  39.029   4.782   4.190
 9522W        W81193  34.655  22.406  13.834
 9523W        W81194  20.599   8.133   2.603
 9524W        W81195  29.504   6.679   0.324
 9525W        W81196  20.743  43.197   5.061
 9526W        W81197  23.162  34.330  14.507
 9527W        W81198  10.743   4.007  11.173
 9528W        W81199  44.571  33.032   2.809
 9529W        W81200  38.376  35.301   0.795
 9530W        W81201  18.435   9.350  11.567
 9531W        W81202  27.382  20.957   2.453
 9532W        W81203   5.205  39.999  10.681
 9533W        W81204  13.270  36.886  14.307
 9534W        W81205  29.526  33.800   0.813
 9535W        W81206  23.979  26.500   2.111
 9536W        W81207  16.278   5.193  12.870
 9537W        W81208   6.173  41.898   1.420
 9538W        W81209   7.647   7.761  10.762
 9539W        W81210   7.966  43.439  11.186
 9540W        W81211   4.708  37.483  13.806
 9541W        W81212  14.065  41.432   0.174
 9542W        W81213  33.552  39.796   2.375
 9543W        W81214  31.997  38.643  10.406
 9544W        W81215  19.707  10.234  10.625
 9545W        W81216  43.867   9.202   0.225
 9546W        W81217  43.513  35.419   1.805
 9547W        W81218  34.597  15.169   1.378
 9548W        W81219   1.584  44.908   1.221
 9549W        W81220  35.425  25.166  13.920
 9550W        W81221   6.392   6.015  12.023
 9551W        W81222  31.935  12.104   0.900
 9552W        W81223  26.463  29.919   4.235
 9553W        W81224  14.759  32.384  14.391
 9554W        W81225  41.871   4.347   4.275
 9555W        W81226   7.171  35.332   1.440
 9556W        W81227   7.411  34.219  13.148
 9557W        W81228  11.465  17.626   0.295
 9558W        W81229  14.612  39.537   0.360
 9559W        W81230  15.102   3.755   5.482
 9560W        W81231   4.095  21.239   4.785
 9561W        W81232   3.053  31.230   1.193
 9562W        W81233  31.615  41.743   3.228
 9563W        W81234  16.713   2.767  12.906
 9564W        W81235  38.078  27.680   0.978
 9565W        W81236  26.968  20.181   2.397
 9566W        W81237  23.592  17.362  11.621
 9567W        W81238  24.541   0.337  12.810
 9568W        W81239  22.101  32.915  13.469
 9569W        W81240  40.986  36.035  12.225
 9570W        W81241  19.614  22.302   1.864
 9571W        W81242  25.490  22.240  12.107
 9572W        W81243  14.862   8.953   2.323
 9573W        W81244  19.777   4.947   0.862
 9574W        W81245  12.836  29.611   0.474
 9575W        W81246  27.957  27.404  12.340
 9576W        W81247   0.443  28.600   0.515
 9577W        W81248  43.975  39.728  10.614
 9578W        W81249  14.516  36.864  11.898
 9579W        W81250  13.233   0.994  14.343
 9580W        W81251  39.708  12.728   5.069
 9581W        W81252  35.918  40.143  13.929
 9582W        W81253  18.675  15.401   0.171
 9583W        W81254  36.214   5.372   3.268
 9584W        W81255   3.269   7.396  12.575
 9585W        W81256  17.224   7.327   1.919
 9586W        W81257  11.856  19.537  11.037
 9587W        W81258  25.311  12.649   2.784
 9588W        W81259   1.694  11.212   4.623
 9589W        W81260  30.227   9.079  14.563
 9590W        W81261  28.616  13.716  11.744
 9591W        W81262  15.014  10.497   2.586
 9592W        W81263  38.990   0.309  11.079
 9593W        W81264  22.086  17.392   1.582
 9594W        W81265   9.572   8.770   9.955
 9595W        W81266   0.866  38.597  10.780
 9596W        W81267  12.222  14.151   1.131
 9597W        W81268  23.589   6.393  13.728
 9598W        W81269   9.858  41.560   3.265
 9599W        W81270  27.027   4.885   3.453
 9600W        W81271  10.931  14.569  12.807
 9601W        W81272  32.616  14.613   3.117
 9602W        W81273   5.827   8.185  13.909
 9603W        W81274  26.465  43.912   2.349
 9604W        W81275  34.850  37.872   0.962
 9605W        W81276  23.831  22.080  11.222
 9606W        W81277  19.425  22.792   1.759
 9607W        W81278  16.548  38.456   0.790
 9608W        W81279  28.547   8.631  11.183
 9609W        W81280  26.405  30.494   3.121
 9610W        W81281   0.465  16.179   3.872
 9611W        W81282  38.591   7.333   3.075
 9612W        W81283  21.942  29.862   4.430
 9613W        W81284  15.222  24.594   1.731
 9614W        W81285  27.017  13.136   3.160
 9615W        W81286   8.717  37.906   3.156
 9616W        W81287  17.714   5.934  14.000
 9617W        W81288   9.656  42.890  13.383
 9618W        W81289  17.444  29.584  10.427
 9619W        W81290  17.330  28.188   1.320
 9620W        W81291  43.029   0.748   2.420
 9621W        W81292  28.816  16.173  11.068
 9622W        W81293  16.155   0.363  13.247
 9623W        W81294  33.830  32.109   3.797
 9624W        W81295  32.197  23.684   0.941
 9625W        W81296  16.238  25.900   0.090
 9626W        W81297  25.489   2.851  13.032
 9627W        W81298   7.909  17.163  13.870
 9628W        W81299  34.927   6.670  14.371
 9629W        W81300   4.794  35.470   1.840
 9630W        W81301   7.910  14.231  14.811
 9631W        W81302  44.308  11.090  12.414
 9632W        W81303  39.370   6.137  10.739
 9633W        W81304  37.753  13.680  14.449
 9634W        W81305  29.396   6.770  13.110
 9635W        W81306  34.851   7.592  14.451
 9636W        W81307  44.834   0.387   3.124
 9637W        W81308  34.563  33.097   4.599
 9638W        W81309  12.649  25.900   3.318
 9639W        W81310  28.261  24.502   1.783
 9640W        W81311  24.475  21.066  12.381
 9641W        W81312   7.885  32.258  11.010
 9642W        W81313   3.982   6.622  14.082
 9643W        W81314  28.497  29.872  13.412
 9644W        W81315  24.002   8.784   9.528
 9645W        W81316  42.770  21.145   3.253
 9646W        W81317   2.634  33.376  12.240
 9647W        W81318  15.888  44.924   4.653
 9648W        W81319  29.503  15.579  10.659
 9649W        W81320   5.619  20.334   1.719
 9650W        W81321  35.286  31.663  12.553
 9651W        W81322  32.669  35.364  11.455
 9652W        W81323  30.061  37.324   2.206
 9653W        W81324  25.090  17.470  11.490
 9654W        W81325  11.376  11.800  13.050
 9655W        W81326  43.407  22.374  14.448
 9656W        W81327   3.688  30.093   1.743
 9657W        W81328  35.066  11.415   1.357
 9658W        W81329  11.256  15.912  12.551
 9659W        W81330   6.309  33.044   1.552
 9660W        W81331   8.118  11.600  13.713
 9661W        W81332  35.590  20.858   1.376
 9662W        W81333  14.869  16.593   0.847
 9663W        W81334  28.571   8.209   0.255
 9664W        W81335  35.531  16.860  12.015
 9665W        W81336  17.243   4.440   0.456
 9666W        W81337  24.476  36.995   2.509
 9667W        W81338  37.430  36.813  14.162
 9668W        W81339  22.546   1.876  14.265
 9669W        W81340  19.685  19.255  10.699
 9670W        W81341  38.316  40.238   4.634
 9671W        W81342  20.279  37.517   2.589
 9672W        W81343  15.697  41.096  14.663
 9673W        W81344  29.600  29.942  11.470
 9674W        W81345   1.791   4.623  11.145
 9675W        W81346  30.637  23.682   0.422
 9676W        W81347   0.051  12.285  10.759
 9677W        W81348  11.448  21.664   4.612
 9678W        W81349  22.010  26.445  10.489
 9679W        W81350  35.448  15.129   1.407
 9680W        W81351   7.053   8.646   0.719
 9681W        W81352  20.278   8.116   4.005
 9682W        W81353   6.890  42.718   3.787
 9683W        W81354  16.102  14.185   2.594
 9684W        W81355  27.530   2.862   2.237
 9685W        W81356  26.940   1.507   0.923
 9686W        W81357  37.158  33.475  10.698
 9687W        W81358  33.992  15.050   2.344
 9688W        W81359  14.059  10.810  13.419
 9689W        W81360   2.218   9.977   0.425
 9690W        W81361  12.164  15.811   3.538
 9691W        W81362  29.441  38.852  12.327
 9692W        W81363  42.315  34.993   4.141
 9693W        W81364  14.697  38.423  11.501
 9694W        W81365   5.969  14.130  14.330
 9695W        W81366  31.106  28.547  14.537
 9696W        W81367   4.320   7.829  13.584
 9697W        W81368  38.542  24.700   3.508
 9698W        W81369  39.842  36.639   1.675
 9699W        W81370  39.112   5.625  12.606
 9700W        W81371  24.143  11.585  14.500
 9701W        W81372  30.053   2.815  14.408
 9702W        W81373  29.115  14.385   3.223
 9703W        W81374   3.307  41.340   2.307
 9704W        W81375   0.481  15.836   1.839
 9705W        W81376  42.572  16.123   2.896
 9706W        W81377  26.202  38.053  14.880
 9707W        W81378  38.273   0.674   4.096
 9708W        W81379   6.201  27.302  13.864
 9709W        W81380  26.212   3.624   4.537
 9710W        W81381   9.941  23.281  11.102
 9711W        W81382   0.249  16.042  14.974
 9712W        W81383  34.580  20.796  10.468
 9713W        W81384  23.908  14.649   1.822
 9714W        W81385   5.444  35.650  14.105
 9715W        W81386  44.840  12.795   4.639
 9716W        W81387  31.078  24.071  10.952
 9717W        W81388  26.133   8.429  14.082
 9718W        W81389   2.325  22.542  10.911
 9719W        W81390  35.900  20.409  12.004
 9720W        W81391  12.547  25.806  11.026
 9721W        W81392   0.927  24.775  11.483
 9722W        W81393  21.652  30.689   2.673
 9723W        W81394  14.452   3.983  10.340
 9724W        W81395  26.595  10.317   2.722
 9725W        W81396  23.088  36.074  13.850
 9726W        W81397  13.799  31.474  12.146
 9727W        W81398   4.655  11.885   2.439
 9728W        W81399  35.261   9.459   2.765
 9729W        W81400   8.904   6.823  14.243
 9730W        W81401  32.009  13.375  11.162
 9731W        W81402  38.717  19.071   1.860
 9732W        W81403   3.523  14.811   3.217
 9733W        W81404  29.530  26.950  12.018
 9734W        W81405   6.118  12.842  12.017
 9735W        W81406  35.429  26.719  10.701
 9736W        W81407  19.249  23.205  13.985
 9737W        W81408  18.809   3.146   1.384
 9738W        W81409  38.956  44.406   2.390
 9739W        W81410   9.584  14.740  12.994
 9740W        W81411  43.027   6.768   0.580
 9741W        W81412  42.470   8.030  14.505
 9742W        W81413  18.592   1.865  14.087
 9743W        W81414  18.016  20.079   3.296
 9744W        W81415  36.856  32.524   4.851
 9745W        W81416  44.282  37.641   2.448
 9746W        W81417  34.873  12.785  12.305
 9747W        W81418  32.976  13.413   0.508
 9748W        W81419  16.147  44.672   3.805
 9749W        W81420  13.710  10.091  14.711
 9750W        W81421  40.998  29.031  13.629
 9751W        W81422  31.041  37.535   2.508
 9752W        W81423   3.827   9.606  12.442
 9753W        W81424  40.503  38.459  13.017
 9754W        W81425   5.233  40.313  11.090
 9755W        W81426  25.934  25.397   1.976
 9756W        W81427   3.258  39.855  11.607
 9757W        W81428  42.986   6.695   4.271
 9758W        W81429  28.775  21.585  11.481
 9759W        W81430  13.248   6.345   0.685
 9760W        W81431  36.523  19.182   1.819
 9761W        W81432   0.286  22.072   4.707
 9762W        W81433  29.870  42.399  11.529
 9763W        W81434  36.930  11.767   3.100
 9764W        W81435  37.496  17.897   4.859
 9765W        W81436  26.094  14.387  14.376
 9766W        W81437  11.918  41.085   4.131
 9767W        W81438  13.589  31.088  12.469
 9768W        W81439   5.932  37.030   1.337
 9769W        W81440  29.350  36.954  14.296
 9770W        W81441   6.995  30.211  12.118
 9771W        W81442   8.230  41.947   3.575
 9772W        W81443  36.313  17.730  11.817
 9773W        W81444  31.567  17.562   4.595
 9774W        W81445   2.766  12.195  12.949
 9775W        W81446  23.329   1.077  14.531
 9776W        W81447  24.986  29.193  14.962
 9777W        W81448   2.774  43.998  14.361
 9778W        W81449  36.534  30.155   4.518
 9779W        W81450  12.594  17.132   3.390
 9780W        W81451   6.716   6.576  13.445
 9781W        W81452  26.044  36.355  11.506
 9782W        W81453   7.921  31.253  13.599
 9783W        W81454  33.386  25.073  14.836
 9784W        W81455  13.485  42.017   1.758
 9785W        W81456  40.328  39.339  13.001
 9786W        W81457  17.093  27.030   4.375
 9787W        W81458  40.778  35.083  12.734
 9788W        W81459  34.560   1.402   3.255
 9789W        W81460  23.242   7.809  10.700
 9790W        W81461   2.998  42.839  12.902
 9791W        W81462  26.464   2.289  11.122
 9792W        W81463   9.102   6.336  14.074
 9793W        W81464   1.916  31.411   4.665
 9794W        W81465  31.533  10.875  10.518
 9795W        W81466   8.316  14.244  12.593
 9796W        W81467  40.523  43.447  10.849
 9797W        W81468  19.656  14.193   3.715
 9798W        W81469  40.302   3.659   4.292
 9799W        W81470  14.550  16.255   3.261
 9800W        W81471  10.778  25.754  11.158
 9801W        W81472  33.516  19.062   2.708
 9802W        W81473   7.691  41.527  11.890
 9803W        W81474   1.722  16.477   0.668
 9804W        W81475  44.682  34.976   1.398
 9805W        W81476  32.955   3.187   2.217
 9806W        W81477  10.324  18.382   3.629
 9807W        W81478  24.199  43.322   4.235
 9808W        W81479  13.333  24.920  11.648
 9809W        W81480  31.377  37.861   4.253
 9810W        W81481  39.710   3.842  10.819
 9811W        W81482   3.003  17.745  12.400
 9812W        W81483  25.554  17.269  10.606
 9813W        W81484   0.773  19.412   5.229
 9814W        W81485  12.053  44.206   2.961
 9815W        W81486  37.515  27.833   2.632
 9816W        W81487  13.118  41.766  12.076
 9817W        W81488  26.425  32.667   1.050
 9818W        W81489  44.804   0.209  14.270
 9819W        W81490  15.245   5.955  11.661
 9820W        W81491  38.004  35.527   3.592
 9821W        W81492  17.114   9.430   4.915
 9822W        W81493  35.808  24.130   0.869
 9823W        W81494  40.952  19.730   2.708
 9824W        W81495  18.043  34.494   0.559
 9825W        W81496   1.670  15.801   1.817
 9826W        W81497  21.206  27.782  13.026
 9827W        W81498  20.744   2.736   1.390
 9828W        W81499  35.025  42.081  10.845
 9829W        W81500   7.699  18.405   1.633
 9830W        W81501   9.901  11.528  10.842
 9831W        W81502   4.731  18.241  12.447
 9832W        W81503  42.966  30.443   1.920
 9833W        W81504  34.832  37.315   1.741
 9834W        W81505  17.069  44.842   2.835
 9835W        W81506  12.127  37.774  14.019
 9836W        W81507  33.665   6.183   4.780
 9837W        W81508  11.454  21.768  11.587
 9838W        W81509   1.724  30.953  12.506
 9839W        W81510  15.992  10.353  11.451
 9840W        W81511  26.098  30.179   3.637
 9841W        W81512  39.656  21.506  12.072
 9842W        W81513  24.489  37.401   1.768
 9843W        W81514  34.663  41.456   4.529
 9844W        W81515  33.700  38.569  10.206
 9845W        W81516  21.331  35.967  14.480
 9846W        W81517  14.042  42.795   3.328
 9847W        W81518  11.633  38.846   3.804
 9848W        W81519  36.946  33.730  13.037
 9849W        W81520  19.559  26.449   2.844
 9850W        W81521   4.659  34.107   2.514
 9851W        W81522  10.708  21.048   4.053
 9852W        W81523  33.381  32.224   1.394
 9853W        W81524   6.153  26.957   1.842
 9854W        W81525   3.464  21.032   3.604
 9855W        W81526  14.812   5.780  10.503
 9856W        W81527  26.092  43.473  11.989
 9857W        W81528  26.006  24.603   2.255
 9858W        W81529   1.207   8.927  11.800
 9859W        W81530  17.087  29.046  13.018
 9860W        W81531  24.692  24.414  14.475
 9861W        W81532  24.275   7.858  14.322
 9862W        W81533   5.071  36.884   4.137
 9863W        W81534  26.608  37.141  11.612
 9864W        W81535   4.316  29.898   4.175
 9865W        W81536   0.966  17.536  13.950
 9866W        W81537   0.980   1.898   4.171
 9867W        W81538   6.289  15.830   2.251
 9868W        W81539  23.653  31.997  13.877
 9869W        W81540  26.826  40.554   4.619
 9870W        W81541   8.207  23.963   4.087
 9871W        W81542   5.853  21.950  11.040
 9872W        W81543  39.075  18.101  12.809
 9873W        W81544  31.466   6.970   2.316
 9874W        W81545  19.081   3.820  12.053
 9875W        W81546  42.866  11.409   2.632
 9876W        W81547  19.355  22.394   3.631
 9877W        W81548  13.852  42.241  10.568
 9878W        W81549   0.074  32.978   4.794
 9879W        W81550  12.103   8.554  14.558
 9880W        W81551  22.360  40.591   3.184
 9881W        W81552  42.372  40.955   0.104
 9882W        W81553  15.661  20.086  14.069
 9883W        W81554  35.306  35.653  13.273
 9884W        W81555   9.517  40.252   4.589
 9885W        W81556  23.532  38.419  13.437
 9886W        W81557  34.449  17.616   3.522
 9887W        W81558  25.570  44.706   2.701
 9888W        W81559   1.869   0.836   0.217
 9889W        W81560  19.909  27.661   2.392
 9890W        W81561  30.948  43.486  10.720
 9891W        W81562  24.125  25.420   0.847
 9892W        W81563  30.690   2.400  11.728
 9893W        W81564  29.678   8.381  11.727
 9894W        W81565   3.006  28.953   1.851
 9895W        W81566  38.362  10.162   0.310
 9896W        W81567  28.063  38.905   2.715
 9897W        W81568  37.901   7.260   0.340
 9898W        W81569  32.936  33.618   1.242
 9899W        W81570  24.667  13.904  12.216
 9900W        W81571  42.047  40.572   2.757
 9901W        W81572  37.861  27.648   4.871
 9902W        W81573   5.710  18.538  14.993
 9903W        W81574  14.299  20.720   0.900
 9904W        W81575   6.402  33.431   0.395
 9905W        W81576  38.647  17.616  11.610
 9906W        W81577   8.470  25.256  11.156
 9907W        W81578  41.842  42.496   0.142
 9908W        W81579   2.931   0.332   4.127
 9909W        W81580  33.603   0.448  12.521
 9910W        W81581  24.737  14.706   3.253
 9911W        W81582  11.884  15.624  13.851
 9912W        W81583  31.021   8.391  14.214
 9913W        W81584  36.307  22.184   4.779
 9914W        W81585  44.361   2.408  14.670
 9915W        W81586  15.108  17.011   2.375
 9916W        W81587   8.789  28.003   4.401
 9917W        W81588  36.721  22.031   1.895
 9918W        W81589   2.052  27.927   4.547
 9919W        W81590  43.452  41.882  13.829
 9920W        W81591  23.083   4.424   1.895
 9921W        W81592  20.497  25.661   4.052
 9922W        W81593  17.280  21.515   1.899
 9923W        W81594  36.130  20.123  12.386
 9924W        W81595  41.553  13.706  10.805
 9925W        W81596   3.019  43.927  14.829
 9926W        W81597   2.712  28.001  11.777
 9927W        W81598   9.323  12.637  11.059
 9928W        W81599   3.323  35.164   0.272
 9929W        W81600  21.794  22.703  13.258
 9930W        W81601  20.002  40.498   3.533
 9931W        W81602  39.302  43.035   4.167
 9932W        W81603  43.738  32.336  14.841
 9933W        W81604  30.495  12.766  13.317
 9934W        W81605   7.239  14.876   0.863
 9935W        W81606  26.248  16.834   3.698
 9936W        W81607  41.868  15.657  10.663
 9937W        W81608  25.253  41.377  14.443
 9938W        W81609  30.510  26.964   4.669
 9939W        W81610  15.614  19.034  10.432
 9940W        W81611  43.587  24.591  13.416
 9941W        W81612  17.810  15.568  11.695
 9942W        W81613  13.173  42.100   4.645
 9943W        W81614  16.539  35.858   1.188
 9944W        W81615  34.755   9.434   0.210
 9945W        W81616  33.581  32.523   3.543
 9946W        W81617  17.464  13.345  14.346
 9947W        W81618  39.202  38.412   0.979
 9948W        W81619   7.327  25.775  13.289
 9949W        W81620  26.458   7.811  13.303
 9950W        W81621  11.099  27.238  11.432
 9951W        W81622  28.327   1.433  14.475
 9952W        W81623  22.719  42.504   3.228
 9953W        W81624  25.157  21.203   0.823
 9954W        W81625  16.150   5.612   2.000
 9955W        W81626  14.623  40.862   0.182
 9956W        W81627  27.461  43.898   2.338
 9957W        W81628  17.098   9.863   3.204
 9958W        W81629   5.777   8.477   0.352
 9959W        W81630  10.430  43.761   1.742
 9960W        W81631   6.273  41.925  14.282
 9961W        W81632  32.103  10.925   2.027
 9962W        W81633  37.020  31.846  10.632
 9963W        W81634  20.911  34.173   2.804
 9964W        W81635  12.459   7.815   3.652
 9965W        W81636  41.967  44.783   1.770
 9966W        W81637  41.068  35.333   3.237
 9967W        W81638   6.617  16.274  13.388
 9968W        W81639  32.096  17.019   4.131
 9969W        W81640  19.019   1.503   1.218
 9970W        W81641  19.144  26.001   4.800
 9971W        W81642  36.840  43.202   4.098
 9972W        W81643  34.451  13.243  13.411
 9973W        W81644  11.377  16.092  11.968
 9974W        W81645  23.117   4.732   1.189
 9975W        W81646   1.788  44.026   4.279
 9976W        W81647   5.867  34.315   1.236
 9977W        W81648  20.358  28.424   2.147
 9978W        W81649  37.990   4.557   2.882
 9979W        W81650  40.124  24.942  13.043
 9980W        W81651   1.732  18.785  12.402
 9981W        W81652  31.540  32.665  13.072
 9982W        W81653  11.309   7.584   2.810
 9983W        W81654   2.277  40.790   0.116
 9984W        W81655  37.832   2.942  12.472
 9985W        W81656  26.601  26.705  14.227
 9986W        W81657  17.968   1.274   4.078
 9987W        W81658  24.170  29.905   2.917
 9988W        W81659  37.320  40.999   0.342
 9989W        W81660   0.288   7.713   2.228
 9990W        W81661  36.339  42.281   0.829
 9991W        W81662   6.193  26.872  11.124
 9992W        W81663  40.756  33.121  14.721
 9993W        W81664  24.861  34.370  13.938
 9994W        W81665  25.565  18.605  14.118
 9995W        W81666  29.413  38.049  11.927
 9996W        W81667  27.336  32.994  12.699
 9997W        W81668   0.792  21.275   2.299
 9998W        W81669  18.909  44.276   0.050
 9999W        W81670  35.088  43.394   1.279
10000W        W81671  35.481  33.651  10.529
10001W        W81672  19.948  18.034  10.175
10002W        W81673   3.866  41.038   0.126
10003W        W81674  14.272  39.961  10.843
10004W        W81675  31.657  42.958  14.292
10005W        W81676  25.181   2.389   2.339
10006W        W81677   0.363  38.381   4.138
10007W        W81678   4.016   5.718  11.605
10008W        W81679  42.492  42.264   4.914
10009W        W81680  42.318   4.396   4.551
10010W        W81681  31.902  40.035   1.517
10011W        W81682  40.886   0.037  12.927
10012W        W81683   0.497  12.256   2.276
10013W        W81684  26.118   1.960  10.563
10014W        W81685  31.981  37.476  12.355
10015W        W81686  12.155  36.443  11.416
10016W        W81687  31.046  28.334   2.135
10017W        W81688   4.855  34.909  10.720
10018W        W81689   9.748  39.520  10.640
10019W        W81690  13.071  12.070   2.580
10020W        W81691   9.287  22.763  11.442
10021W        W81692  42.324  28.185  11.151
10022W        W81693   0.088  20.566  13.625
10023W        W81694   3.837  13.692  11.409
10024W        W81695  41.031  40.115  11.720
10025W        W81696  33.272  29.460   5.099
10026W        W81697   2.475  34.137  11.538
10027W        W81698  34.951  26.738  13.922
10028W        W81699  26.950  22.758   1.140
10029W        W81700  43.480  35.056  10.517
10030W        W81701  26.455  20.617  12.129
10031W        W81702  22.152  11.419  14.269
10032W        W81703  43.862  29.984  11.786
10033W        W81704   1.027   9.816  13.996
10034W        W81705  43.908  20.111  10.687
10035W        W81706  32.130  13.561   4.259
10036W        W81707   9.228   1.005  10.735
10037W        W81708  41.525   2.943  10.939
10038W        W81709  20.211  13.117   1.453
10039W        W81710  32.401  32.537   1.188
10040W        W81711   1.704  19.274   1.808
10041W        W81712  35.596  37.055   5.406
10042W        W81713  15.029  31.413   2.888
10043W        W81714  10.650   6.745   0.381
10044W        W81715  28.938   4.970  11.183
10045W        W81716  27.638  30.941  11.588
10046W        W81717   1.323  37.613  14.280
10047W        W81718  36.423   8.311  14.584
10048W        W81719   4.515   7.226  10.393
10049W        W81720   5.874   1.396   3.355
10050W        W81721   7.500  18.312  10.356
10051W        W81722   3.987  36.124  11.660
10052W        W81723   4.833  23.078  13.904
10053W        W81724  12.758   1.822  13.554
10054W        W81725  15.753  24.639   1.856
10055W        W81726  10.179  41.316   0.821
10056W        W81727  31.186  38.936   0.817
10057W        W81728   2.887  23.509   2.198
10058W        W81729  29.214  35.705  12.528
10059W        W81730  38.036  36.594   4.939
10060W        W81731  28.796  38.569  14.477
10061W        W81732  26.042  23.984  14.028
10062W        W81733   2.190  29.079  11.938
10063W        W81734   9.644  15.282   0.989
10064W        W81735  38.195  18.142  14.925
10065W        W81736  15.809  26.153   3.655
10066W        W81737  10.326  13.225   1.770
10067W        W81738  12.388  43.454   2.226
10068W        W81739   4.096  26.074   0.311
10069W        W81740   0.552  11.164  13.770
10070W        W81741  35.897   6.449  14.350
10071W        W81742  16.763  24.484  14.467
10072W        W81743   7.324  37.907   0.348
10073W        W81744  34.440  36.325   2.847
10074W        W81745  14.531  42.768  14.415
10075W        W81746  18.860  25.064   5.654
10076W        W81747  25.125  42.869  14.464
10077W        W81748   9.837  37.860  10.631
10078W        W81749  33.938  28.167  12.173
10079W        W81750  28.018  28.021   1.355
10080W        W81751  16.629   4.801   3.320
10081W        W81752  35.852  24.579   2.307
10082W        W81753  20.346   7.004  10.926
10083W        W81754  12.651  25.531   1.332
10084W        W81755  27.438  24.087   3.168
10085W        W81756  23.016  44.436   4.184
10086W        W81757  38.985  32.568   1.464
10087W        W81758  40.413   1.667  12.476
10088W        W81759  13.351  14.640  11.443
10089W        W81760  11.852  21.605  14.093
10090W        W81761  13.071  44.509  10.231
10091W        W81762  23.197   5.734   0.835
10092W        W81763  30.646  19.457   0.411
10093W        W81764   3.528   3.213  14.631
10094W        W81765  32.433  22.025   2.788
10095W        W81766  25.184  14.308  14.258
10096W        W81767  42.503  35.940   1.283
10097W        W81768  16.826  13.924   0.963
10098W        W81769  40.597  28.589  14.751
10099W        W81770   4.996   8.760  13.878
10100W        W81771   4.495  43.918   4.617
10101W        W81772  16.440  26.159   3.098
10102W        W81773  35.127  16.702  13.258
10103W        W81774  41.997  44.389  11.251
10104W        W81775  19.924  15.531   4.254
10105W        W81776  30.871  25.574   4.630
10106W        W81777  31.800  11.812   4.986
10107W        W81778  29.192  39.022   2.134
10108W        W81779  42.476   1.693   1.834
10109W        W81780   2.014   5.833  13.134
10110W        W81781  35.905  35.507  14.499
10111W        W81782  11.284  12.368   2.887
10112W        W81783  20.738  35.954   1.873
10113W        W81784  25.663  32.714  13.994
10114W        W81785  14.196  24.527  12.952
10115W        W81786  38.017  18.129  11.974
10116W        W81787  41.219  21.036   1.268
10117W        W81788  36.905  20.813   0.976
10118W        W81789   1.847  37.973   1.126
10119W        W81790  21.184   8.811   4.284
10120W        W81791   8.795   5.395   0.411
10121W        W81792  19.076  11.921  11.427
10122W        W81793  14.435  26.271   1.481
10123W        W81794  23.506  35.898   4.132
10124W        W81795  36.015  29.365   4.756
10125W        W81796  23.095   2.298  13.130
10126W        W81797  34.061  33.090   0.518
10127W        W81798  43.322   8.934  12.867
10128W        W81799  41.782  18.912  10.762
10129W        W81800   9.469  28.999  11.947
10130W        W81801  35.365  26.881  11.185
10131W        W81802  31.469  29.593   4.307
10132W        W81803  19.494   8.739   1.872
10133W        W81804  15.142  28.067   4.141
10134W        W81805  18.616   9.332   2.122
10135W        W81806  35.711  11.563   1.832
10136W        W81807   3.750  34.376   4.132
10137W        W81808  33.126   9.778  13.505
10138W        W81809   8.944  14.730  12.050
10139W        W81810  28.197   8.290  11.883
10140W        W81811  42.178   2.927   3.196
10141W        W81812  37.332  12.851   2.776
10142W        W81813  15.655  44.927  10.498
10143W        W81814   3.355  28.465  10.627
10144W        W81815  36.481  33.565  13.225
10145W        W81816  12.914   8.797  13.515
10146W        W81817  44.123  28.539   2.766
10147W        W81818   3.721   6.699   0.405
10148W        W81819  17.239  40.090   1.390
10149W        W81820  33.863  36.409   3.107
10150W        W81821  13.473  30.950  10.446
10151W        W81822  21.706  26.465   3.793
10152W        W81823  35.521  41.663  13.433
10153W        W81824   4.237   0.346  11.384
10154W        W81825  33.851  18.180  11.151
10155W        W81826  10.061  11.810   4.997
10156W        W81827  26.334  40.581   0.698
10157W        W81828  44.461  39.447   2.630
10158W        W81829  37.206  43.931  13.865
10159W        W81830  12.599  37.289  11.656
10160W        W81831  42.901  11.754   4.581
10161W        W81832   3.564  28.270   0.932
10162W        W81833   7.263  39.747   2.498
10163W        W81834  13.238  39.751   2.951
10164W        W81835  18.684  35.653  12.895
10165W        W81836   1.427  21.608  12.395
10166W        W81837  20.684  39.608   1.609
10167W        W81838   4.729  41.643  10.153
10168W        W81839  11.585  10.619  11.588
10169W        W81840  33.375  20.103   4.142
10170W        W81841  10.275  41.077   2.499
10171W        W81842  28.057  24.754  10.454
10172W        W81843  41.012  19.561   3.656
10173W        W81844  25.239  39.983   1.230
10174W        W81845  11.059   8.157   1.037
10175W        W81846  21.056  44.770   0.380
10176W        W81847  43.184  33.031  13.985
10177W        W81848   6.326  18.564   0.061
10178W        W81849  36.541  30.398  12.986
10179W        W81850  20.051   9.313   1.367
10180W        W81851  14.591  44.369  10.433
10181W        W81852  29.984  42.690  10.373
10182W        W81853  37.912  44.180   1.405
10183W        W81854  16.532  11.327   1.415
10184W        W81855  41.338  16.914  10.747
10185W        W81856  40.792  12.373   3.858
10186W        W81857  10.893   6.846   3.690
10187W        W81858  19.367  38.058   3.195
10188W        W81859  12.283  24.064   2.837
10189W        W81860  37.599  33.173  10.734
10190W        W81861   6.783   6.623   2.836
10191W        W81862  43.258  26.021   3.903
10192W        W81863  26.802  15.806  12.565
10193W        W81864  43.320  39.822   0.578
10194W        W81865   3.262   8.384  14.215
10195W        W81866  43.956   7.385  10.872
10196W        W81867  30.070  21.505  12.647
10197W        W81868  18.715   5.955  11.141
10198W        W81869  24.654   6.728  12.970
10199W        W81870  12.278  28.550  13.769
10200W        W81871  17.071  40.233   4.332
10201W        W81872  18.165  19.979   4.229
10202W        W81873  23.736   7.895  12.621
10203W        W81874  40.876  34.084   0.772
10204W        W81875   6.691  13.180   1.647
10205W        W81876  37.775  28.748   4.364
10206W        W81877  12.127  43.368  13.441
10207W        W81878  36.903  39.461   3.395
10208W        W81879  44.275  10.605  13.303
10209W        W81880  44.772  22.522  13.865
10210W        W81881  36.619  35.059   3.700
10211W        W81882  44.722   7.798   3.600
10212W        W81883   0.406  37.786  13.842
10213W        W81884  39.854  39.992  11.939
10214W        W81885  42.364   7.700   0.778
10215W        W81886  20.743  17.588   4.587
10216W        W81887   9.297  36.339   2.723
10217W        W81888  28.507  11.643  14.373
10218W        W81889   4.110   4.333   2.701
10219W        W81890   4.313   3.396  12.458
10220W        W81891  17.077  11.784   4.903
10221W        W81892  40.574  13.749  12.450
10222W        W81893   5.496  22.014  12.924
10223W        W81894   0.701  12.299  11.609
10224W        W81895  39.756  22.930   1.089
10225W        W81896  32.018  18.019   2.668
10226W        W81897   6.100  14.345  10.519
10227W        W81898  16.145  14.664   0.028
10228W        W81899   8.154  44.760   2.721
10229W        W81900  17.700  19.699   4.546
10230W        W81901  14.336  21.068  13.090
10231W        W81902  24.775  38.199   3.993
10232W        W81903  18.947   3.524  11.125
10233W        W81904  27.628  28.447  12.078
10234W        W81905  29.884  10.139  10.672
10235W        W81906  30.616   1.447  14.914
10236W        W81907   3.882   5.822   0.634
10237W        W81908  26.569   6.603   4.000
10238W        W81909  27.645  18.566  11.046
10239W        W81910  24.117  21.479  13.071
10240W        W81911  25.119  14.838   0.468
10241W        W81912  23.415  12.352  11.624
10242W        W81913  10.752  14.116   2.417
10243W        W81914  37.537  22.275  11.578
10244W        W81915  43.096  40.810   2.805
10245W        W81916   6.816  15.016  12.914
10246W        W81917  44.483  35.040  12.874
10247W        W81918  42.320   5.625   0.843
10248W        W81919  40.250  29.610  10.568
10249W        W81920   0.298  14.380  10.288
10250W        W81921   0.376  12.345  14.514
10251W        W81922  22.274   8.905  14.024
10252W        W81923  38.012   2.559  11.142
10253W        W81924  28.800  21.806   1.784
10254W        W81925   5.733  33.678  12.540
10255W        W81926  30.568  17.986   2.023
10256W        W81927  43.014  38.246  12.909
10257W        W81928  13.275  31.387   1.973
10258W        W81929  27.022  23.056  10.652
10259W        W81930  12.268  26.517  10.491
10260W        W81931  31.053  32.407  10.438
10261W        W81932  33.964  13.317  13.586
10262W        W81933  33.892  16.229   0.887
10263W        W81934  18.259   1.325  12.584
10264W        W81935  21.294  24.593   0.097
10265W        W81936  36.466   0.844  12.200
10266W        W81937  35.482  29.635   3.893
10267W        W81938  36.318   5.802   3.600
10268W        W81939   3.315  21.605  14.017
10269W        W81940   6.968  27.485   4.215
10270W        W81941  27.924  18.986  13.048
10271W        W81942  34.717  14.806   2.734
10272W        W81943   8.784  37.553  13.906
10273W        W81944  15.467  39.092   3.722
10274W        W81945  35.572  18.122  12.810
10275W        W81946  36.436  16.097  10.598
10276W        W81947  25.631  43.823  14.105
10277W        W81948   3.536  39.509   0.923
10278W        W81949  44.418  27.508  13.954
10279W        W81950  19.102   5.220   2.117
10280W        W81951   4.004  44.186  11.126
10281W        W81952  32.492  11.180  12.236
10282W        W81953  13.080  28.179   3.132
10283W        W81954  27.998  31.042  13.515
10284W        W81955  42.028  31.617   2.723
10285W        W81956   7.619  16.172   2.355
10286W        W81957  16.616  37.538  14.788
10287W        W81958  22.330  16.192  14.046
10288W        W81959  21.545  41.789  11.139
10289W        W81960  44.279  13.806   0.850
10290W        W81961  14.722  12.734  11.076
10291W        W81962  28.983  43.286   1.706
10292W        W81963  40.426  41.784   2.199
10293W        W81964  21.118   4.009  13.884
10294W        W81965  24.588   2.037  13.593
10295W        W81966  41.020   6.602  12.087
10296W        W81967  15.672  29.236  11.981
10297W        W81968   5.156  13.112   1.877
10298W        W81969  34.796   8.250  14.888
10299W        W81970   9.115  40.462   0.890
10300W        W81971  44.195  10.731   1.331
10301W        W81972   6.369  11.210  13.928
10302W        W81973  39.155  20.691  11.951
10303W        W81974  15.733  13.244   0.968
10304W        W81975  39.007   2.909   1.146
10305W        W81976  16.782  19.690  11.544
10306W        W81977  17.321  43.413   0.981
10307W        W81978   1.385   8.080   0.964
10308W        W81979  38.556  43.842  10.427
10309W        W81980  22.535  25.930  13.861
10310W        W81981  12.392  24.529   3.107
10311W        W81982   8.755  10.921   4.140
10312W        W81983  31.993   2.838   3.985
10313W        W81984  10.260  10.083   0.553
10314W        W81985  13.242  26.433  14.749
10315W        W81986  17.505  20.065  14.444
10316W        W81987  17.785   3.919   2.205
10317W        W81988  29.150  23.768   4.403
10318W        W81989  24.456  31.625  10.595
10319W        W81990  40.901   3.268   2.796
10320W        W81991   7.892  37.364   3.412
10321W        W81992   7.256  29.617   0.983
10322W        W81993  43.989  13.623  12.612
10323W        W81994  40.918  29.081   4.183
10324W        W81995  34.575  11.769  12.412
10325W        W81996  17.760  30.111  11.656
10326W        W81997  23.509  28.039  13.425
10327W        W81998   4.835  43.458  11.043
10328W        W81999  38.332   8.234   0.427
10329W        W82000  40.457   5.098   1.523
10330W        W82001   9.815  29.196  14.637
10331W        W82002  28.334  43.277  10.823
10332W        W82003  40.757  11.805   2.452
10333W        W82004  21.458  15.857  14.201
10334W        W82005  20.267  14.797  11.840
10335W        W82006  15.857  15.355  12.465
10336W        W82007  31.305   8.183  14.591
10337W        W82008  38.125  43.216  11.526
10338W        W82009  34.054  22.652  14.760
10339W        W82010  37.541  40.466   3.890
10340W        W82011  14.693  28.480   0.186
10341W        W82012  30.160  21.102   2.795
10342W        W82013  24.197  19.983   3.743
10343W        W82014  16.915  18.739  11.508
10344W        W82015  40.541  38.905   0.057
10345W        W82016  33.323  19.141  10.610
10346W        W82017   7.757  21.647   0.917
10347W        W82018  35.489  18.153  10.653
10348W        W82019  14.125  14.578   1.336
10349W        W82020   9.765  10.033   0.717
10350W        W82021  16.634  19.121  13.902
10351W        W82022  32.608  17.259   3.914
10352W        W82023   7.804   2.006   0.849
10353W        W82024  27.503  18.668   1.286
10354W        W82025  23.039  37.428  11.029
10355W        W82026   9.781   3.195   3.238
10356W        W82027   6.692   4.370   2.825
10357W        W82028  25.618  23.709   4.143
10358W        W82029   2.036  27.569   0.889
10359W        W82030   7.839  22.741   2.338
10360W        W82031  10.076  40.953  13.341
10361W        W82032  13.933  20.159   2.495
10362W        W82033   4.195   5.291  12.925
10363W        W82034  14.182  21.642   1.395
10364W        W82035  34.090   2.936  12.603
10365W        W82036  44.781   1.329  14.344
10366W        W82037  36.454   3.856   0.595
10367W        W82038  42.337  23.132  14.893
10368W        W82039  37.429   1.567   0.673
10369W        W82040  29.168   2.999   2.241
10370W        W82041   0.403   1.908   4.123
10371W        W82042  11.794   6.279   3.701
10372W        W82043  27.786  25.134   3.981
10373W        W82044   4.767  34.307   0.200
10374W        W82045  37.316  35.712  14.951
10375W        W82046  27.847  14.821   1.894
10376W        W82047  10.264  32.308   4.963
10377W        W82048  41.062  33.163   0.140
10378W        W82049  37.930  18.042   3.113
10379W        W82050  38.451   6.968  14.929
10380W        W82051  24.111   3.386   4.557
10381W        W82052  20.613  14.220   2.320
10382W        W82053  40.674   0.788   4.128
10383W        W82054   5.761  10.555  10.153
10384W        W82055  43.712  17.882  12.969
10385W        W82056  38.290  34.287  11.175
10386W        W82057  41.036  23.064   1.170
10387W        W82058  23.750  37.524  11.575
10388W        W82059  41.495  32.327   4.252
10389W        W82060  28.637  40.073  12.585
10390W        W82061  37.919  10.932   4.683
10391W        W82062  32.623  27.215  13.338
10392W        W82063   5.626   1.891   0.772
10393W        W82064  33.620   7.269  12.499
10394W        W82065   9.985   9.753   2.799
10395W        W82066  43.752  12.264  10.944
10396W        W82067  28.458  28.465  12.084
10397W        W82068   1.714  23.192   3.747
10398W        W82069  12.364  31.462   1.728
10399W        W82070  36.453   0.773   4.124
10400W        W82071  40.465  23.103  13.894
10401W        W82072  38.947  15.587   1.690
10402W        W82073  40.174   0.852   4.078
10403W        W82074  32.865  15.634   1.169
10404W        W82075  32.188  31.851   0.493
10405W        W82076  12.648  42.963  13.449
10406W        W82077  13.504  25.492  11.246
10407W        W82078  13.636  10.592  14.783
10408W        W82079  13.102  32.358  12.095
10409W        W82080  41.567  10.698  11.740
10410W        W82081  21.787  18.689  11.183
10411W        W82082   5.355  18.814   1.053
10412W        W82083  13.969  19.825  13.888
10413W        W82084   9.418  37.058  14.566
10414W        W82085  40.840  36.659  13.142
10415W        W82086  33.580  34.103  10.754
10416W        W82087   9.892   0.483  10.575
10417W        W82088  33.092  30.656  14.926
10418W        W82089  30.846  17.902   4.171
10419W        W82090   6.812   4.376   1.374
10420W        W82091  19.107  20.105   0.894
10421W        W82092   8.108  23.253  12.471
10422W        W82093  19.745  39.382   3.585
10423W        W82094   6.708   8.681  11.528
10424W        W82095   6.072  23.673  10.659
10425W        W82096  26.464  28.503   3.205
10426W        W82097  22.999  22.072  10.688
10427W        W82098  29.453   5.413  10.603
10428W        W82099  14.227  25.145   3.203
10429W        W82100  29.434  39.616   4.600
10430W        W82101  32.340  38.961  10.166
10431W        W82102  42.849  28.940   4.723
10432W        W82103  33.032  31.309  10.917
10433W        W82104  27.491   8.889  11.891
10434W        W82105   7.925  19.689   0.898
10435W        W82106   2.839  21.538   2.734
10436W        W82107  29.949  14.397  12.987
10437W        W82108   1.019  26.784  14.382
10438W        W82109   8.505   9.407  10.511
10439W        W82110  29.893  17.470   0.260
10440W        W82111   8.755  13.591   2.904
10441W        W82112  25.628   9.725  12.816
10442W        W82113  17.533  28.700  11.936
10443W        W82114   8.801   3.332  12.334
10444W        W82115  28.979  31.148   2.884
10445W        W82116  20.475  28.026  11.628
10446W        W82117  39.980  31.041  11.912
10447W        W82118  23.642   6.613  12.863
10448W        W82119   9.261  21.093  14.465
10449W        W82120  12.850  21.485   1.735
10450W        W82121  40.923  31.270   3.535
10451W        W82122  19.772  38.960  13.741
10452W        W82123  24.605  21.571  12.395
10453W        W82124   0.213  21.954   5.711
10454W        W82125  40.285  23.147   3.615
10455W        W82126   9.727  42.502  11.900
10456W        W82127  27.557  43.381  12.690
10457W        W82128  29.127  34.998  14.207
10458W        W82129  27.418   3.853   2.219
10459W        W82130  39.080  43.165  11.230
10460W        W82131  13.330  11.176   4.084
10461W        W82132  41.856  43.514   2.251
10462W        W82133   6.023  41.368   5.008
10463W        W82134  12.328   8.346   3.209
10464W        W82135   5.492  14.140  14.568
10465W        W82136  39.863  13.327  13.088
10466W        W82137  27.693  24.663   3.178
10467W        W82138   3.988  27.562  11.945
10468W        W82139  33.658  28.721   2.381
10469W        W82140  25.190  15.095  11.559
10470W        W82141   4.733  42.418   5.271
10471W        W82142   0.793  31.087   2.407
10472W        W82143  30.840   5.112  14.378
10473W        W82144  14.589  13.837  12.670
10474W        W82145  23.018  22.126  14.237
10475W        W82146  14.710  33.290   2.108
10476W        W82147  10.732   3.223  13.594
10477W        W82148  34.458  21.469  13.982
10478W        W82149  35.124  20.527   1.334
10479W        W82150  30.716   0.930   4.668
10480W        W82151  28.927  23.212  10.818
10481W        W82152  17.657  38.147  10.671
10482W        W82153  25.027   2.648   1.729
10483W        W82154  35.643   9.836   2.711
10484W        W82155  25.921  21.518  10.774
10485W        W82156  32.143   6.446  10.988
10486W        W82157  30.996  25.534  14.337
10487W        W82158  31.886  25.459   2.606
10488W        W82159  42.930   0.608  13.991
10489W        W82160   9.470   9.261  11.501
10490W        W82161  17.076  29.698  12.583
10491W        W82162  32.489  22.338   0.973
10492W        W82163   8.950  33.593   2.784
10493W        W82164  38.633  12.456   3.116
10494W        W82165  17.074  14.195  11.076
10495W        W82166   5.082  36.441   0.358
10496W        W82167  36.395  21.566   1.215
10497W        W82168  41.049   3.431  12.500
10498W        W82169  16.496   5.958   1.801
10499W        W82170  29.200  31.369  14.017
10500W        W82171  29.917   7.311  13.858
10501W        W82172  23.225  22.305   3.829
10502W        W82173  26.436  13.415   0.548
10503W        W82174  22.053   2.328   1.194
10504W        W82175  20.128  17.541   3.063
10505W        W82176   5.334  19.678  12.057
10506W        W82177   9.965  43.992   2.678
10507W        W82178   8.711   1.157   3.297
10508W        W82179  33.143  19.216   2.365
10509W        W82180  31.433  44.411   3.731
10510W        W82181  26.552   5.598  11.963
10511W        W82182  13.765  18.512   0.733
10512W        W82183  33.473  39.832   4.148
10513W        W82184   2.001  13.373   2.920
10514W        W82185  31.025   1.363   1.127
10515W        W82186  44.249  33.190  11.163
10516W        W82187  27.020   3.181   2.555
10517W        W82188  33.447   0.975  14.937
10518W        W82189  18.845   7.045   0.981
10519W        W82190  12.293  25.101  14.278
10520W        W82191  13.276   7.916  11.208
10521W        W82192   4.977  43.401   0.873
10522W        W82193   4.656  24.210   4.069
10523W        W82194  40.160  24.585   0.372
10524W        W82195  26.143  35.903   2.325
10525W        W82196   3.264   8.290   1.201
10526W        W82197  26.304  14.857  13.511
10527W        W82198  39.532   9.357   0.979
10528W        W82199  43.819  22.524  12.039
10529W        W82200   4.988  31.095  13.537
10530W        W82201  17.091  25.949   2.465
10531W        W82202  39.860   4.188   0.875
10532W        W82203  33.357  40.126  14.051
10533W        W82204   6.503  25.689   1.215
10534W        W82205  24.667  40.738  14.419
10535W        W82206   0.501  37.158  12.923
10536W        W82207   4.137  40.836   1.490
10537W        W82208  31.129  13.849  12.940
10538W        W82209  14.719   6.783   0.210
10539W        W82210  19.856  38.783   0.020
10540W        W82211  15.052  17.700  14.518
10541W        W82212  44.055  27.373  12.060
10542W        W82213   5.735  37.886   3.193
10543W        W82214  10.870   1.278   3.212
10544W        W82215  38.355  35.575  10.961
10545W        W82216  14.321  40.040  10.329
10546W        W82217  25.160  39.287  13.790
10547W        W82218  29.562  22.549  13.057
10548W        W82219  16.529  20.186  14.575
10549W        W82220  37.425  14.660  14.297
10550W        W82221  22.542  37.122  14.324
10551W        W82222   7.119  44.901   2.635
10552W        W82223  36.557  11.067   0.736
10553W        W82224  29.091  40.910   2.930
10554W        W82225  23.962  24.046   1.287
10555W        W82226   2.951  26.751   1.327
10556W        W82227  28.945   9.415   3.291
10557W        W82228  34.149  18.646  13.807
10558W        W82229  23.589  38.568   1.287
10559W        W82230  42.249  35.390   0.498
10560W        W82231  44.758   3.381  14.771
10561W        W82232   3.363  18.673   4.492
10562W        W82233  36.835  37.344  14.274
10563W        W82234  31.623  14.315  13.331
10564W        W82235  14.107  33.878   3.032
10565W        W82236  43.311  32.562  13.365
10566W        W82237  18.619  40.486  11.893
10567W        W82238  43.137  23.203   3.698
10568W        W82239  37.381  14.865   3.876
10569W        W82240  37.092  20.625  12.063
10570W        W82241  19.282  33.351  14.948
10571W        W82242  24.698  16.353  14.761
10572W        W82243  29.446   9.274  13.063
10573W        W82244  37.015   4.828  10.636
10574W        W82245  25.611  13.115   1.218
10575W        W82246  31.013  26.687  13.720
10576W        W82247   2.430   3.457   0.092
10577W        W82248  34.706  19.317   1.942
10578W        W82249  38.458   4.996  12.588
10579W        W82250  42.577  14.610  12.851
10580W        W82251  21.202  39.130   2.445
10581W        W82252  37.745  12.316  12.962
10582W        W82253  18.126   4.391   3.595
10583W        W82254  29.660   3.937  11.701
10584W        W82255  43.262   8.181  12.567
10585W        W82256  30.499   2.730  13.752
10586W        W82257  34.011   8.231  11.577
10587W        W82258  12.303  19.956   3.755
10588W        W82259  20.784  25.173  12.082
10589W        W82260  34.846  34.379  12.153
10590W        W82261  44.796  12.277   1.539
10591W        W82262   6.674  40.449  12.381
10592W        W82263  15.306  42.941   4.692
10593W        W82264   6.805  28.746  11.901
10594W        W82265  30.281   6.817  14.814
10595W        W82266  19.566  31.071   4.737
10596W        W82267  30.091   6.725  14.334
10597W        W82268  28.920  38.705   3.005
10598W        W82269  10.334  42.841   3.108
10599W        W82270  43.121  14.624   3.935
10600W        W82271  20.861   7.122   1.800
10601W        W82272   1.051  17.570  14.983
10602W        W82273  16.214  11.761  12.679
10603W        W82274   3.537   3.823  12.531
10604W        W82275  30.148  43.343   0.997
10605W        W82276  40.783  17.215   1.408
10606W        W82277  35.639  43.821  11.605
10607W        W82278  30.131  35.402  13.002
10608W        W82279  15.796  34.503  10.216
10609W        W82280  15.246  10.179   0.174
10610W        W82281  43.452   7.205  11.584
10611W        W82282  44.246  35.875   0.950
10612W        W82283  24.385  16.820   2.197
10613W        W82284  34.981  23.705  11.488
10614W        W82285   6.228  40.002   0.414
10615W        W82286  35.659  24.115  12.912
10616W        W82287   7.015  34.857  14.796
10617W        W82288  37.919  41.774   0.490
10618W        W82289  21.861  20.973   3.181
10619W        W82290  17.036  38.567  12.989
10620W        W82291   6.810  30.065  14.743
10621W        W82292  30.780  32.112  12.500
10622W        W82293  12.575  21.215  11.985
10623W        W82294  30.436  14.714   3.827
10624W        W82295  37.724  28.334  12.619
10625W        W82296  23.629  13.822   4.562
10626W        W82297  16.164   6.853  13.340
10627W        W82298  36.474  11.380   4.804
10628W        W82299  43.995  29.325  14.950
10629W        W82300   2.929  19.981   0.865
10630W        W82301  40.270  25.625  11.506
10631W        W82302  36.347   7.144  13.710
10632W        W82303  30.454  10.158  12.906
10633W        W82304   2.952   4.430  12.340
10634W        W82305   2.194  20.962  10.680
10635W        W82306  24.992  11.898   3.104
10636W        W82307  32.739  13.443   0.001
10637W        W82308   9.438  44.276  10.217
10638W        W82309  37.969  15.846  12.918
10639W        W82310  15.611   7.157   3.290
10640W        W82311  38.385  17.627   0.612
10641W        W82312  21.108  21.856   4.017
10642W        W82313  40.944  26.758   0.403
10643W        W82314  26.428  24.970  12.919
10644W        W82315  19.645  11.364   0.260
10645W        W82316  39.912  34.415  12.446
10646W        W82317  11.312  29.259  13.887
10647W        W82318  43.838  18.157  13.398
10648W        W82319  26.228  23.187  12.897
10649W        W82320   7.018  16.464  12.477
10650W        W82321   0.839  35.894  13.771
10651W        W82322  40.520  19.627  10.637
10652W        W82323  32.203  40.370   4.580
10653W        W82324  27.513  44.923   4.692
10654W        W82325  28.246  34.150   3.710
10655W        W82326  44.555  43.988   4.581
10656W        W82327  31.645  14.270   4.104
10657W        W82328  29.629  43.841  14.150
10658W        W82329   9.789   9.703   3.273
10659W        W82330  39.020  29.483  14.254
10660W        W82331  17.799  20.637   4.157
10661W        W82332  31.039  30.634  11.108
10662W        W82333  42.244  32.853  11.023
10663W        W82334  30.080  38.607   1.220
10664W        W82335  26.169   0.441   2.776
10665W        W82336  42.014  16.874  13.806
10666W        W82337   8.364   0.725  12.086
10667W        W82338  14.289  31.720  12.050
10668W        W82339  38.736  30.020   0.882
10669W        W82340  25.409  33.157  11.140
10670W        W82341  30.098  43.843   3.585
10671W        W82342  24.556   6.168   0.095
10672W        W82343  29.802  25.019  10.985
10673W        W82344   9.204  23.974  13.595
10674W        W82345  38.862   2.423   1.878
10675W        W82346  20.749  30.561   3.670
10676W        W82347  23.500   5.205  11.090
10677W        W82348   2.175  28.929   1.166
10678W        W82349  38.412  31.073   2.240
10679W        W82350  37.999  31.911  14.873
10680W        W82351  14.382  17.268   4.105
10681W        W82352  19.118  25.732  12.066
10682W        W82353  11.632  21.517   2.834
10683W        W82354  12.267  20.226   3.318
10684W        W82355  17.640  24.665  11.231
10685W        W82356   3.206  38.267   4.071
10686W        W82357  31.487  25.482   0.883
10687W        W82358   1.403  34.875   4.520
10688W        W82359   5.219  41.657  13.105
10689W        W82360   4.162  23.387   1.733
10690W        W82361  19.613  21.764   1.831
10691W        W82362  35.669  22.486  11.583
10692W        W82363  44.757   8.288   3.786
10693W        W82364   5.902  29.496  14.778
10694W        W82365   5.648   9.677  10.624
10695W        W82366  17.064  12.818  13.456
10696W        W82367  44.954  28.616  11.379
10697W        W82368  15.050  23.724   1.849
10698W        W82369  44.820   6.437   2.270
10699W        W82370  23.393   3.080  10.858
10700W        W82371  44.398  10.355  11.209
10701W        W82372   8.546  25.175  10.170
10702W        W82373  34.925  25.312  13.791
10703W        W82374  40.516  41.974   3.705
10704W        W82375  36.929   9.215   1.467
10705W        W82376  24.812  13.032   2.851
10706W        W82377  15.061  13.604  11.070
10707W        W82378  22.127  18.091  12.475
10708W        W82379  38.751  11.598  10.692
10709W        W82380  43.914  40.977   3.246
10710W        W82381  20.987   2.303  13.454
10711W        W82382   0.651  30.256  14.831
10712W        W82383  10.050  35.956  11.651
10713W        W82384   5.687  37.335   1.667
10714W        W82385  29.533  27.339   2.702
10715W        W82386  10.733   8.060  11.062
10716W        W82387  24.535  33.771   4.992
10717W        W82388  24.611   8.508  10.706
10718W        W82389  10.687  41.836  13.287
10719W        W82390   1.714  10.603  12.068
10720W        W82391  39.111  22.613   3.649
10721W        W82392  34.863  35.966  11.003
10722W        W82393  33.501  15.180  14.489
10723W        W82394   9.891   6.783  14.272
10724W        W82395  30.917  19.701  12.543
10725W        W82396  22.942  12.162  11.607
10726W        W82397  33.065   5.315  12.017
10727W        W82398  21.435  41.901   4.302
10728W        W82399  39.495   3.440  14.186
10729W        W82400  33.634  25.572  13.887
10730W        W82401  20.681  39.376  12.111
10731W        W82402  39.537  38.415  11.111
10732W        W82403   6.874   4.569  12.416
10733W        W82404  23.552   9.713  12.077
10734W        W82405  26.903   0.476  14.390
10735W        W82406  28.549   3.120   1.738
10736W        W82407   6.897  16.156   4.169
10737W        W82408  39.310  30.697   3.385
10738W        W82409  10.331  43.299  14.011
10739W        W82410  16.344  10.413   1.449
10740W        W82411  14.779  13.563   0.852
10741W        W82412  16.750  38.086   2.544
10742W        W82413  21.325  31.030   4.122
10743W        W82414  44.262  34.082  13.920
10744W        W82415   2.402  19.577  10.722
10745W        W82416  17.300  14.656   3.729
10746W        W82417   3.803  42.826   1.861
10747W        W82418  43.360  38.992   2.474
10748W        W82419   6.880  44.299   1.018
10749W        W82420  36.437  30.639  12.484
10750W        W82421  37.753  44.690   1.347
10751W        W82422  39.159  12.207   5.000
10752W        W82423  31.994  22.802   1.926
10753W        W82424   4.210  15.249   3.622
10754W        W82425  18.168   5.480   4.891
10755W        W82426  11.261   8.311  12.383
10756W        W82427  25.652  25.904  12.417
10757W        W82428   3.909  27.845   2.170
10758W        W82429   8.458  41.306  13.161
10759W        W82430  10.773  16.986   4.643
10760W        W82431  27.239  11.246   1.898
10761W        W82432  21.983  14.420  12.478
10762W        W82433  14.342   3.720   2.721
10763W        W82434  15.505  36.887   0.067
10764W        W82435  10.430  18.607   0.398
10765W        W82436   7.908  43.833   3.695
10766W        W82437  28.462  27.577  14.914
10767W        W82438  28.934   9.146   2.407
10768W        W82439   2.007  28.404   1.749
10769W        W82440  20.204  44.680  12.535
10770W        W82441  38.204  34.771  12.036
10771W        W82442  43.905  43.257   2.843
10772W        W82443  29.570  20.303  10.731
10773W        W82444  23.756  28.954  14.408
10774W        W82445   3.303  42.472  13.236
10775W        W82446   5.568   6.957   4.828
10776W        W82447   5.937  20.306   0.210
10777W        W82448  34.496  42.965   0.748
10778W        W82449   6.472  26.564   1.351
10779W        W82450  16.187  35.159  13.098
10780W        W82451  24.481   7.472  13.474
10781W        W82452   9.614  14.981  13.968
10782W        W82453  24.195  29.572  12.475
10783W        W82454  14.985  42.717   5.143
10784W        W82455  35.319  12.266  13.801
10785W        W82456   4.314   5.462   0.001
10786W        W82457  20.786  32.204   1.961
10787W        W82458  33.437  16.750  12.433
10788W        W82459   8.129  19.803  14.584
10789W        W82460  13.828  37.279   3.334
10790W        W82461  38.314  26.667   4.255
10791W        W82462  35.093  30.668   3.032
10792W        W82463  20.652   4.934  13.966
10793W        W82464  44.510   1.875   3.844
10794W        W82465  11.502  43.982  12.536
10795W        W82466   6.300   6.355  10.666
10796W        W82467  33.722   2.922   2.857
10797W        W82468  34.846  18.149  14.445
10798W        W82469  42.821  10.024   0.504
10799W        W82470  19.374   2.422   1.498
10800W        W82471   4.292   1.591  14.883
10801W        W82472  39.028  10.912   2.340
10802W        W82473  31.864  30.036  10.666
10803W        W82474  14.333   7.624  11.157
10804W        W82475  21.965  43.925  10.704
10805W        W82476  37.558   5.446  14.461
10806W        W82477   8.640  21.947  10.780
10807W        W82478  12.931  24.280  12.113
10808W        W82479  34.337   8.175  12.169
10809W        W82480  34.040   4.871  14.744
10810W        W82481  24.008  36.535   0.947
10811W        W82482   8.769   3.410  11.818
10812W        W82483   5.146  12.546  13.865
10813W        W82484  10.248  22.122  11.600
10814W        W82485  16.002  28.886   3.205
10815W        W82486   1.708  18.273   3.655
10816W        W82487  35.991   5.133  14.918
10817W        W82488   3.926  39.274  13.439
10818W        W82489  24.473  13.937  13.929
10819W        W82490  17.632  18.488   3.119
10820W        W82491   9.009   5.001  14.152
10821W        W82492  31.594  15.200   4.282
10822W        W82493  14.125  12.118  11.104
10823W        W82494  28.420  13.784  10.913
10824W        W82495  42.692   1.387  13.742
10825W        W82496  13.380  20.047  13.110
10826W        W82497  21.777  27.443  13.785
10827W        W82498   1.645  39.780  13.021
10828W        W82499  22.526   7.496  10.078
10829W        W82500  29.355  18.969  11.156
10830W        W82501   6.190  33.637   3.193
10831W        W82502  44.018  29.798  14.758
10832W        W82503   3.724   9.179   0.345
10833W        W82504  26.518  44.745  14.595
10834W        W82505  27.105  24.513  11.580
10835W        W82506   7.007  42.337  13.300
10836W        W82507   4.593  38.483  13.017
10837W        W82508  27.252  36.518  11.170
10838W        W82509   1.489  38.865   2.089
10839W        W82510  14.700  25.055   3.796
10840W        W82511   7.926  19.652   4.636
10841W        W82512  11.747  42.456  14.848
10842W        W82513  41.573  23.656  12.929
10843W        W82514  23.704  16.091   3.653
10844W        W82515  38.356  44.912   4.650
10845W        W82516  13.587  22.128   3.573
10846W        W82517  32.296   4.320  13.414
10847W        W82518  20.823  41.871   3.156
10848W        W82519  10.674  28.654  14.308
10849W        W82520  25.804  23.956  12.836
10850W        W82521  37.413  40.348   4.870
10851W        W82522  13.267   0.750  14.790
10852W        W82523  13.604  15.860  14.396
10853W        W82524  23.163  24.900  11.372
10854W        W82525  14.776  10.021  12.493
10855W        W82526  31.003   6.195  11.538
10856W        W82527  37.347  15.054  14.874
10857W        W82528   7.239   0.891   0.337
10858W        W82529   3.403  13.176   3.763
10859W        W82530  24.567  26.172   0.423
10860W        W82531  41.842  39.792  14.500
10861W        W82532  40.490  10.677   2.392
10862W        W82533  37.442  14.021  11.956
10863W        W82534  20.966  27.377  14.262
10864W        W82535  19.222   4.832   4.346
10865W        W82536  43.781   3.786   1.643
10866W        W82537  44.422  17.517  13.470
10867W        W82538   7.323  35.879   4.789
10868W        W82539  25.991  32.763   3.120
10869W        W82540  38.927  33.153  10.892
10870W        W82541  18.593  39.034   3.654
10871W        W82542  27.485  23.660   3.797
10872W        W82543  34.854  25.618  14.363
10873W        W82544  42.867  34.959   2.880
10874W        W82545   8.177   8.310   1.415
10875W        W82546   6.373   4.823  14.833
10876W        W82547   0.498  39.235  13.841
10877W        W82548   1.265  36.061  11.566
10878W        W82549  15.858  15.181   4.539
10879W        W82550   8.842   6.203   4.433
10880W        W82551   8.447  18.072   2.469
10881W        W82552  17.592  24.003  10.787
10882W        W82553  18.790   4.875  11.191
10883W        W82554  18.031   3.259   1.031
10884W        W82555  17.224  41.817   1.932
10885W        W82556  27.560  13.454  13.410
10886W        W82557   9.378  32.222   0.002
10887W        W82558  36.531  31.045  12.111
10888W        W82559   8.329  35.052   1.225
10889W        W82560  26.653  28.778   0.435
10890W        W82561  11.385  39.852  13.820
10891W        W82562  20.420  34.053  13.913
10892W        W82563  12.198   7.875  10.598
10893W        W82564  25.751   9.977  11.048
10894W        W82565  43.947  21.169   9.749
10895W        W82566  31.189  42.049  11.545
10896W        W82567   1.147  29.602  12.083
10897W        W82568  10.774   9.107  12.096
10898W        W82569   4.907   9.920  14.509
10899W        W82570   4.402  13.604  12.756
10900W        W82571  34.052  43.431   2.018
10901W        W82572  34.380  42.934   3.659
10902W        W82573   2.165  16.732   0.466
10903W        W82574  39.488  38.116   2.394
10904W        W82575  43.476   1.790   4.527
10905W        W82576   7.226  25.483  12.868
10906W        W82577  28.662  42.574  14.348
10907W        W82578  34.206   7.462   2.814
10908W        W82579   7.225  27.126   3.402
10909W        W82580  40.998  32.210   3.978
10910W        W82581  37.280  38.936   0.891
10911W        W82582  41.884  36.596  14.005
10912W        W82583  33.434   8.376   4.095
10913W        W82584  11.014  27.126  13.841
10914W        W82585  21.155  22.327  10.489
10915W        W82586  28.049  21.760   0.546
10916W        W82587  34.942   7.889  10.701
10917W        W82588   6.546  26.010  12.047
10918W        W82589  30.137  36.464   0.856
10919W        W82590  40.630  19.660  14.694
10920W        W82591  29.909   8.366   3.605
10921W        W82592  35.347  16.301  13.978
10922W        W82593  25.655  30.115  14.412
10923W        W82594   0.005  26.960   2.617
10924W        W82595  20.110  28.703  10.246
10925W        W82596   0.261   2.788  10.850
10926W        W82597  24.976  13.300  10.902
10927W        W82598  36.599   9.999  11.029
10928W        W82599  44.284  18.991   0.295
10929W        W82600  18.198  30.551   0.846
10930W        W82601   5.919  37.645  12.167
10931W        W82602  15.327  27.003  10.746
10932W        W82603  32.657  32.519   3.173
10933W        W82604  35.546  31.252   2.290
10934W        W82605  23.611  21.619   4.079
10935W        W82606  33.352  21.604   0.313
10936W        W82607   3.378  19.973  11.106
10937W        W82608  34.749  16.656   0.825
10938W        W82609  16.195  26.025   4.088
10939W        W82610  38.907  38.979  11.409
10940W        W82611  44.476  34.530  12.970
10941W        W82612  40.037  34.874   2.746
10942W        W82613  35.551  33.073  14.446
10943W        W82614  12.582  27.605   0.230
10944W        W82615  38.412  31.444  11.474
10945W        W82616  10.825  34.847   0.333
10946W        W82617  13.817   7.098   1.787
10947W        W82618  34.298  38.979  12.004
10948W        W82619  28.089  36.457   3.175
10949W        W82620  18.274  10.147  10.571
10950W        W82621  32.127   0.774  11.901
10951W        W82622  23.148  39.403   1.213
10952W        W82623  31.439   6.410  11.671
10953W        W82624  34.986  40.174   1.473
10954W        W82625   3.770  10.825  13.438
10955W        W82626   9.268  21.333   3.149
10956W        W82627   2.958  22.187   2.736
10957W        W82628  13.682  33.336   0.252
10958W        W82629  24.132  11.175   1.860
10959W        W82630  19.606  11.902   2.163
10960W        W82631  34.514  15.094   2.340
10961W        W82632  36.519  38.621  14.500
10962W        W82633   3.195  22.176   3.225
10963W        W82634  14.208  31.402   1.371
10964W        W82635  38.129   2.199  14.773
10965W        W82636  37.644  41.510   3.853
10966W        W82637  29.768  37.464  11.599
10967W        W82638  25.702  13.080  14.538
10968W        W82639  26.567  42.598   3.814
10969W        W82640   9.798  28.283  14.224
10970W        W82641  39.535  18.131  10.620
10971W        W82642  36.487   8.142  11.629
10972W        W82643   4.347  39.494   3.188
10973W        W82644   4.213  34.447  14.105
10974W        W82645  18.618  40.535   3.730
10975W        W82646  28.611  44.872   4.560
10976W        W82647  11.829  10.447  11.160
10977W        W82648   6.575  14.845  11.959
10978W        W82649   3.939  19.503   1.833
10979W        W82650  13.236  30.050   2.155
10980W        W82651   7.339  24.686  13.447
10981W        W82652  20.727   2.271  11.967
10982W        W82653  37.825  20.281   3.692
10983W        W82654  25.752  37.854   1.741
10984W        W82655  35.859  44.310  11.663
10985W        W82656  19.932  31.161   2.486
10986W        W82657   6.376  13.712   0.489
10987W        W82658  20.514  30.030  11.537
10988W        W82659   8.630   7.345  13.549
10989W        W82660  29.699   1.445   4.694
10990W        W82661  36.141  12.326   3.168
10991W        W82662  14.072  18.808   4.077
10992W        W82663   7.644  39.315  12.999
10993W        W82664   7.151  39.621  14.951
10994W        W82665   9.288  37.834   2.977
10995W        W82666  27.714  22.523  12.577
10996W        W82667   5.282  36.978   3.267
10997W        W82668  30.153  29.907   4.583
10998W        W82669  16.268  37.426  14.021
10999W        W82670  37.550   7.511   1.467
11000W        W82671  27.295   7.634   0.373
11001W        W82672   8.802   1.391  11.613
11002W        W82673  15.191  33.558   1.445
11003W        W82674  31.491  39.019   3.806
11004W        W82675   4.406  35.593   4.354
11005W        W82676  10.146  44.305  13.810
11006W        W82677   4.746   5.177  11.222
11007W        W82678  23.461  26.669   5.010
11008W        W82679   8.383   8.126  10.813
11009W        W82680  22.028  11.113   1.769
11010W        W82681   6.666  18.648  11.203
11011W        W82682  31.931  38.228  13.091
11012W        W82683  33.746  30.568  13.982
11013W        W82684  35.909   6.815   3.301
11014W        W82685  25.895  27.237   1.763
11015W        W82686  22.758  25.554   3.192
11016W        W82687   0.232  34.959   1.970
11017W        W82688  37.984  16.379   3.769
11018W        W82689  15.786  33.588   2.283
11019W        W82690  14.910  30.471   1.706
11020W        W82691  26.487  17.602   4.283
11021W        W82692   7.774  25.133   0.728
11022W        W82693   9.816  15.845  11.985
11023W        W82694  27.144  31.063   2.197
11024W        W82695  29.586  20.009   1.815
11025W        W82696  33.456  41.475   3.932
11026W        W82697  11.313  43.801   3.287
11027W        W82698  32.695   7.158   0.818
11028W        W82699   0.432  29.477  13.523
11029W        W82700  35.516  34.352  13.409
11030W        W82701   2.934  29.054  13.341
11031W        W82702  32.102  29.177   3.191
11032W        W82703   3.622   3.631   2.355
11033W        W82704  28.301   6.812  14.604
11034W        W82705  18.574  27.719   1.837
11035W        W82706  32.786  37.758   3.623
11036W        W82707   0.493  24.016   2.249
11037W        W82708  43.399  44.322   0.894
11038W        W82709  38.094  28.628  14.942
11039W        W82710  13.651  37.627  13.871
11040W        W82711  10.648  38.040  13.328
11041W        W82712  30.681   5.661   1.261
11042W        W82713  41.291   9.756  13.872
11043W        W82714   9.349   6.413   2.881
11044W        W82715  25.092   7.782  11.010
11045W        W82716  26.746  21.672  14.839
11046W        W82717  13.837  17.390  10.790
11047W        W82718   1.471   5.397   0.476
11048W        W82719  23.765  32.950  11.596
11049W        W82720  29.693  40.568   0.434
11050W        W82721  14.796  12.304   1.952
11051W        W82722  15.338  14.354   2.245
11052W        W82723   1.409  20.502   4.091
11053W        W82724  12.907  12.629   0.236
11054W        W82725   8.651  26.143   4.811
11055W        W82726  35.108  38.481  12.906
11056W        W82727   3.917  30.736   4.271
11057W        W82728  29.227  40.649  12.167
11058W        W82729   3.392   1.291   0.856
11059W        W82730  12.094  10.889   2.561
11060W        W82731  17.972  20.643   1.055
11061W        W82732  21.058  33.693   2.811
11062W        W82733  17.349  43.524   3.759
11063W        W82734  23.723   7.406   3.288
11064W        W82735  22.609  23.749  14.629
11065W        W82736   6.171  13.308   2.690
11066W        W82737   2.216  34.847   2.652
11067W        W82738   8.838  35.435   3.398
11068W        W82739  43.717  42.516  10.830
11069W        W82740  41.928  12.859  13.144
11070W        W82741  35.122   9.031   0.166
11071W        W82742  24.013  18.161  11.529
11072W        W82743  25.415  26.093  14.564
11073W        W82744  17.097  39.560  11.080
11074W        W82745  31.178  20.610   4.582
11075W        W82746   2.444  28.398  10.926
11076W        W82747  28.466  26.658  12.614
11077W        W82748   9.751  26.665  13.000
11078W        W82749  22.467  40.753  13.146
11079W        W82750   8.316  24.600   1.321
11080W        W82751  40.027   1.330   4.305
11081W        W82752  19.331  28.961  12.949
11082W        W82753  29.564  38.136   4.592
11083W        W82754   5.425   8.484  13.905
11084W        W82755   1.322   0.374   4.214
11085W        W82756  32.787   8.309   4.784
11086W        W82757  37.619  33.643   3.639
11087W        W82758   0.014  18.720   2.243
11088W        W82759  33.962   3.985   2.133
11089W        W82760  30.512  20.220  13.702
11090W        W82761   4.131  33.773   0.441
11091W        W82762   7.135   7.580  13.869
11092W        W82763  41.973  38.774   1.665
11093W        W82764  31.078  38.355   1.326
11094W        W82765  13.568   9.813   3.711
11095W        W82766  29.637  26.215  14.554
11096W        W82767  36.917  20.030  12.942
11097W        W82768  22.745  13.765  13.484
11098W        W82769   2.981   4.745  11.907
11099W        W82770  41.554   1.546  11.546
11100W        W82771   6.963  19.096  14.379
11101W        W82772  38.790  26.065   3.127
11102W        W82773  16.771  20.216   4.668
11103W        W82774  21.255  21.083  14.321
11104W        W82775  28.562  41.525   4.072
11105W        W82776  19.352  16.625  12.464
11106W        W82777  14.723   4.650  14.013
11107W        W82778   8.509  32.552   0.431
11108W        W82779  12.254   2.529   0.439
11109W        W82780  13.770  25.088  14.412
11110W        W82781   9.755  36.114   2.743
11111W        W82782  41.472  42.562  14.788
11112W        W82783  15.284   8.870   4.810
11113W        W82784   4.843   9.280  13.845
11114W        W82785  20.533  17.574   4.107
11115W        W82786  18.345   2.940   3.198
11116W        W82787  25.228  29.909   2.789
11117W        W82788   3.654   6.617  10.693
11118W        W82789  18.976  38.354  11.464
11119W        W82790   0.319  13.346   0.871
11120W        W82791  32.086  20.709   3.593
11121W        W82792  20.575  12.029   2.768
11122W        W82793  36.384  18.048   4.267
11123W        W82794  28.006   7.916   0.891
11124W        W82795  16.204  40.042  14.486
11125W        W82796  17.700   2.358   0.684
11126W        W82797  19.005  41.464   2.641
11127W        W82798  41.955   1.387   4.122
11128W        W82799  27.893  34.054   4.466
11129W        W82800  43.786  25.223   4.322
11130W        W82801  39.334  12.584  12.365
11131W        W82802  35.915  42.572  11.967
11132W        W82803  36.039  30.136   2.691
11133W        W82804  41.830   5.721  14.290
11134W        W82805  16.036  33.542  14.585
11135W        W82806  17.346  24.619  13.266
11136W        W82807   2.815  30.187   1.354
11137W        W82808   2.208  35.974   0.377
11138W        W82809   1.223  33.661   2.066
11139W        W82810  10.722  30.231  13.380
11140W        W82811  17.586   5.930   3.293
11141W        W82812  30.475  40.640   3.641
11142W        W82813   1.239  26.691  12.645
11143W        W82814  22.247  24.561   0.751
11144W        W82815  10.797  20.466   0.341
11145W        W82816  22.567  19.508   0.715
11146W        W82817  20.670  12.795   0.395
11147W        W82818   0.194  18.473   4.183
11148W        W82819  42.618  11.704  10.800
11149W        W82820  14.703  32.661  14.878
11150W        W82821  28.488  28.493  13.535
11151W        W82822   2.829   4.711  11.415
11152W        W82823   5.215  26.166   5.150
11153W        W82824  18.117  24.031  13.547
11154W        W82825  26.713  43.259   1.248
11155W        W82826  30.025  43.559   2.023
11156W        W82827   1.707  12.226   4.425
11157W        W82828   2.395  40.374   0.426
11158W        W82829  15.666   4.840  14.605
11159W        W82830  42.334  18.096  13.902
11160W        W82831  19.732  13.095   1.230
11161W        W82832   4.435  31.019  13.611
11162W        W82833  10.750  42.304  12.039
11163W        W82834  32.288  36.507   4.490
11164W        W82835  39.117  41.029   1.832
11165W        W82836  25.938   4.385   4.215
11166W        W82837  37.437  23.823  13.574
11167W        W82838   3.637  13.856  14.474
11168W        W82839  25.017  16.552   4.068
11169W        W82840  27.038  10.905  11.362
11170W        W82841   8.288  23.621  12.078
11171W        W82842  38.033  31.003  13.804
11172W        W82843   1.363  10.711   3.619
11173W        W82844   8.724  30.920  10.704
11174W        W82845  42.471  37.874   0.318
11175W        W82846   1.864  24.935  13.065
11176W        W82847  42.077  13.243   1.716
11177W        W82848   6.390  28.520  12.068
11178W        W82849  14.499  36.256  10.062
11179W        W82850  44.371   4.527  12.978
11180W        W82851   3.360  35.585  12.680
11181W        W82852  10.878  16.539  13.538
11182W        W82853  12.350  31.655   4.598
11183W        W82854  20.186  14.249  10.163
11184W        W82855   2.696  19.522   0.092
11185W        W82856  19.624  17.474   4.302
11186W        W82857  31.432  25.528  13.049
11187W        W82858  35.015  30.281  10.945
11188W        W82859  24.775  40.024   1.804
11189W        W82860  14.594  32.372   2.272
11190W        W82861  41.908  43.182   1.855
11191W        W82862  38.271  10.215   2.204
11192W        W82863  18.735  22.184   2.886
11193W        W82864  24.890  22.327  12.837
11194W        W82865  40.420  43.952  13.542
11195W        W82866  38.502  11.636   4.174
11196W        W82867  33.400  42.019  11.157
11197W        W82868   9.664  19.080  11.206
11198W        W82869  26.560   2.547  14.702
11199W        W82870  27.650  31.115   2.288
11200W        W82871  15.324   8.395  11.905
11201W        W82872  25.674   1.905  10.293
11202W        W82873  28.975  39.271  14.424
11203W        W82874   6.359   0.250  12.573
11204W        W82875  10.684  29.420   0.761
11205W        W82876   2.947   5.363   1.314
11206W        W82877  11.851  38.464  13.805
11207W        W82878  26.683  14.230   1.393
11208W        W82879  42.516  11.933   0.297
11209W        W82880   8.791  18.581   4.608
11210W        W82881   8.218  31.407   3.723
11211W        W82882  27.890  13.732   0.748
11212W        W82883  38.212  32.067   2.383
11213W        W82884  16.375   3.638   3.733
11214W        W82885  13.686  30.104   1.856
11215W        W82886  43.856   5.769  12.491
11216W        W82887   4.046  24.291   0.685
11217W        W82888  31.361  13.798  11.656
11218W        W82889  15.844   5.081  10.240
11219W        W82890  24.098  14.881   0.182
11220W        W82891  10.819  12.126   2.995
11221W        W82892  12.761   2.428   4.573
11222W        W82893   8.258   6.029   2.319
11223W        W82894  41.414   7.391   4.067
11224W        W82895  32.961  39.150   1.135
11225W        W82896  22.410  26.115   5.328
11226W        W82897  29.171  27.720  12.038
11227W        W82898  13.052  10.386  12.044
11228W        W82899  14.903  21.708   3.639
11229W        W82900  30.983   0.012  13.902
11230W        W82901   7.136  20.616   1.613
11231W        W82902  30.462  14.390   0.883
11232W        W82903  34.850  41.200  13.342
11233W        W82904  11.378  38.486  11.646
11234W        W82905  40.526  16.920  11.054
11235W        W82906  38.631   3.321  13.357
11236W        W82907  18.650  26.178   0.489
11237W        W82908  11.274  27.444  12.361
11238W        W82909   7.290  30.553   1.856
11239W        W82910  18.023  31.787   2.282
11240W        W82911   9.844  21.637   1.172
11241W        W82912  22.580  18.320  11.577
11242W        W82913   0.844  14.111  12.381
11243W        W82914   9.598  27.159  13.020
11244W        W82915  20.193  25.034  13.842
11245W        W82916  39.915  27.052  12.441
11246W        W82917  42.862  28.545   4.359
11247W        W82918   1.996  16.076  13.534
11248W        W82919  27.739   3.910  14.232
11249W        W82920   3.276  11.703   4.039
11250W        W82921  33.476  41.856   2.716
11251W        W82922  12.699  22.458   0.014
11252W        W82923  11.628  37.914  13.775
11253W        W82924  42.735  41.091   3.362
11254W        W82925   7.574  32.983  11.441
11255W        W82926  43.066  30.050  12.733
11256W        W82927  32.037  41.994  13.703
11257W        W82928  19.533   1.364   2.169
11258W        W82929  33.395  18.791   3.789
11259W        W82930   3.870  36.163  13.967
11260W        W82931  39.342   7.759   1.712
11261W        W82932  34.558  24.038   4.515
11262W        W82933  27.878  27.064   2.156
11263W        W82934  30.647  42.906  11.524
11264W        W82935   3.831  36.355   4.125
11265W        W82936   3.515  29.692  11.126
11266W        W82937  16.105  12.722  10.837
11267W        W82938  16.647  16.218  11.927
11268W        W82939  28.671  20.579   0.373
11269W        W82940   0.823  17.107   4.611
11270W        W82941  43.794   4.575  11.408
11271W        W82942  14.030  21.012  11.287
11272W        W82943  27.759   2.794  11.945
11273W        W82944  28.475  40.365  13.031
11274W        W82945   5.927  44.927  11.163
11275W        W82946  31.728  20.698  11.357
11276W        W82947  26.559   6.199   2.193
11277W        W82948  44.260  24.613   1.296
11278W        W82949  10.793  28.085   1.087
11279W        W82950  36.957  10.870   2.361
11280W        W82951   6.103  21.762  10.640
11281W        W82952  36.072  37.462  14.337
11282W        W82953  36.743   7.493  14.333
11283W        W82954   6.448  44.285  13.455
11284W        W82955  28.040  27.016  10.590
11285W        W82956   7.935  28.319   2.387
11286W        W82957  33.052  13.348  14.609
11287W        W82958  37.870   6.874   2.269
11288W        W82959  44.438   6.245   4.513
11289W        W82960  42.881  41.672   9.732
11290W        W82961  16.276  21.205   3.707
11291W        W82962   8.845  12.424  14.837
11292W        W82963  16.346  23.755  11.720
11293W        W82964  37.581  15.978  11.644
11294W        W82965  29.555  29.855  14.821
11295W        W82966   0.370  31.984  14.439
11296W        W82967   9.204  22.797  10.636
11297W        W82968  10.191  14.148   0.865
11298W        W82969   4.848  16.714   0.515
11299W        W82970  26.810  43.953  12.402
11300W        W82971  25.328   9.309   3.212
11301W        W82972  11.096  36.536  11.199
11302W        W82973   7.209  15.373   2.401
11303W        W82974  43.414  38.942  12.285
11304W        W82975  42.223  39.588  11.078
11305W        W82976  43.044  42.404   0.050
11306W        W82977   5.187  15.291   2.705
11307W        W82978  11.819  33.514  10.659
11308W        W82979  19.462   3.774  10.813
11309W        W82980  44.462   6.204   1.545
11310W        W82981  12.858  11.654   1.370
11311W        W82982  14.751  28.415  12.121
11312W        W82983  32.983  42.368   0.311
11313W        W82984   2.387  32.150  11.550
11314W        W82985  18.747   0.778   4.045
11315W        W82986  15.105  22.423   4.103
11316W        W82987  19.340  18.247   0.831
11317W        W82988   0.934  34.362   1.828
11318W        W82989  27.613  33.184  13.079
11319W        W82990  37.842  12.915  10.658
11320W        W82991  10.104  32.975   1.798
11321W        W82992  27.220  28.746  11.201
11322W        W82993  35.272  40.507   4.276
11323W        W82994  13.224  26.511   3.854
11324W        W82995   8.505   5.737   3.649
11325W        W82996  39.489  13.256   0.661
11326W        W82997  19.618  33.405   3.747
11327W        W82998  36.911  20.701   2.775
11328W        W82999  43.361  19.877   2.359
11329W        W83000   0.418   6.363  13.918
11330W        W83001  20.699  24.125   0.277
11331W        W83002  28.257  18.284   1.753
11332W        W83003   5.907  19.851   4.273
11333W        W83004   9.171  43.307  11.538
11334W        W83005   8.699  16.168   0.907
11335W        W83006  25.537  34.970   0.410
11336W        W83007  32.951  34.486   0.412
11337W        W83008  42.481   1.085   4.852
11338W        W83009   7.112  19.002  14.867
11339W        W83010  30.113  29.014   1.385
11340W        W83011  32.411  18.860  11.569
11341W        W83012  11.664  31.732  13.781
11342W        W83013  25.601  30.879   1.330
11343W        W83014   1.740  27.558  11.205
11344W        W83015   5.897  10.255  14.029
11345W        W83016  22.464  22.268  11.731
11346W        W83017  14.579  20.144  13.492
11347W        W83018   5.238   4.975  12.465
11348W        W83019   1.314  23.008  14.035
11349W        W83020  28.375  41.082  10.880
11350W        W83021   1.619  40.296  14.899
11351W        W83022  41.365  20.099   2.643
11352W        W83023  36.114  39.379   1.258
11353W        W83024  19.053  21.962  12.111
11354W        W83025  42.887  28.582  13.877
11355W        W83026  30.192  40.712   4.312
11356W        W83027  41.942   3.376  10.441
11357W        W83028  25.545  42.247   0.937
11358W        W83029  19.716  26.231  13.093
11359W        W83030   9.215  27.940  10.660
11360W        W83031  11.398  32.767   3.319
11361W        W83032   3.611   6.801  11.166
11362W        W83033  33.721  42.690  13.058
11363W        W83034   5.009  22.158  12.840
11364W        W83035   5.320  33.593  13.874
11365W        W83036  34.519  13.104   0.401
11366W        W83037  21.473  39.601   2.684
11367W        W83038  40.569   0.344   0.882
11368W        W83039  39.761  28.040   9.871
11369W        W83040  22.486  24.187  13.056
11370W        W83041  35.039  37.458   5.045
11371W        W83042  13.640  29.033  14.395
11372W        W83043  29.031  43.276  14.541
11373W        W83044  13.040  40.020   3.794
11374W        W83045  27.442  10.392   1.792
11375W        W83046  28.240   2.425   2.777
11376W        W83047  32.338  30.930  10.913
11377W        W83048  19.049   0.279  10.598
11378W        W83049  20.692   6.236   1.267
11379W        W83050   3.832  12.647   0.930
11380W        W83051  19.395  23.129  11.111
11381W        W83052  25.988  24.566  12.262
11382W        W83053  26.450  37.177   4.036
11383W        W83054   7.252  20.356  13.107
11384W        W83055   5.280  22.421  13.542
11385W        W83056   3.429  30.140   2.193
11386W        W83057   2.411   0.808  12.535
11387W        W83058  35.341  39.902   9.904
11388W        W83059  19.780  10.757  10.376
11389W        W83060  43.346  24.922  11.918
11390W        W83061   7.869  37.088  13.026
11391W        W83062  21.612  11.639  14.224
11392W        W83063  28.960  33.562  11.968
11393W        W83064   5.096  23.529  10.956
11394W        W83065  10.145  29.421  14.316
11395W        W83066  38.724  24.221   3.266
11396W        W83067   4.791  43.685   2.474
11397W        W83068  34.131  10.210  13.512
11398W        W83069  31.477  21.543   3.933
11399W        W83070  32.947  31.589  11.617
11400W        W83071   3.686  40.073   0.493
11401W        W83072  43.491  22.644   3.644
11402W        W83073  30.598   0.344   0.814
11403W        W83074   2.286  44.284  11.619
11404W        W83075  33.743  19.253   3.599
11405W        W83076  26.227  30.863  11.651
11406W        W83077  23.438  19.460  13.325
11407W        W83078   6.312   7.909   1.021
11408W        W83079  10.754  19.026   0.426
11409W        W83080  39.885  25.276   3.540
11410W        W83081  16.532  19.477  11.938
11411W        W83082  28.120   1.081  11.047
11412W        W83083  38.800  28.102   3.088
11413W        W83084  44.675  13.379   4.576
11414W        W83085  18.074  18.287  11.972
11415W        W83086  26.479  43.084  12.008
11416W        W83087   1.331  10.180   1.842
11417W        W83088  41.900  10.350   0.822
11418W        W83089  16.631  39.552  11.365
11419W        W83090  24.146  21.260   1.895
11420W        W83091  40.547  12.582   3.447
11421W        W83092  31.128  32.974   4.587
11422W        W83093  40.526  17.859  13.593
11423W        W83094  37.515  20.742  11.679
11424W        W83095  10.120  10.637   4.532
11425W        W83096  34.667  17.034   2.293
11426W        W83097  11.738  23.080   1.948
11427W        W83098  12.337  28.950   4.229
11428W        W83099   6.151  36.448  13.999
11429W        W83100  18.297  23.063   0.599
11430W        W83101  20.654  35.815   3.175
11431W        W83102  42.279  23.734  12.383
11432W        W83103  43.971  10.766  11.468
11433W        W83104   2.436  18.792  12.993
11434W        W83105  30.459  30.528  10.713
11435W        W83106  14.275  19.579  14.970
11436W        W83107  18.024  15.773   4.890
11437W        W83108   9.909  43.567   4.454
11438W        W83109  44.119  35.530   2.562
11439W        W83110  37.825  11.383  10.989
11440W        W83111  15.897  10.852  12.927
11441W        W83112  34.687   9.188  12.960
11442W        W83113  10.412  15.379   3.752
11443W        W83114  25.990  28.223   4.392
11444W        W83115   8.921  18.118   1.997
11445W        W83116  11.188   1.876  13.940
11446W        W83117  38.072  36.627   1.973
11447W        W83118  36.457   5.436  10.406
11448W        W83119  12.385   1.250  11.021
11449W        W83120  31.519  24.539  13.959
11450W        W83121   9.215   2.703  11.902
11451W        W83122  20.478  44.368  14.838
11452W        W83123  43.736  18.756  11.491
11453W        W83124   8.460  38.765   0.834
11454W        W83125  43.599  13.781   3.906
11455W        W83126   3.883   2.771   4.692
11456W        W83127  11.198  37.357  10.388
11457W        W83128  20.618  43.713  12.023
11458W        W83129  36.215  36.971  14.847
11459W        W83130  14.443  13.771   4.215
11460W        W83131   3.802  35.500   4.716
11461W        W83132  10.696  23.179   4.153
11462W        W83133  20.539   0.723  11.737
11463W        W83134  43.031   3.237  10.960
11464W        W83135  37.584   3.372  13.084
11465W        W83136   7.493  26.509   5.023
11466W        W83137  29.821  43.866  14.806
11467W        W83138  23.140  17.627  11.606
11468W        W83139  35.500  16.227  12.184
11469W        W83140  34.742  10.794   2.203
11470W        W83141  39.060  39.958   0.056
11471W        W83142  17.728  19.170   4.449
11472W        W83143  42.927  38.633  14.992
11473W        W83144  13.747  42.147  13.402
11474W        W83145   9.208   9.280  11.965
11475W        W83146  40.254   2.277   4.109
11476W        W83147   4.411  36.578  14.752
11477W        W83148  31.875  25.057   0.851
11478W        W83149  40.994  13.007  14.867
11479W        W83150  24.380  30.612  13.031
11480W        W83151  31.402   9.257  14.315
11481W        W83152  26.885  26.331  13.987
11482W        W83153  17.064   3.874   2.937
11483W        W83154  39.411  11.617   4.159
11484W        W83155   6.896  14.104   4.404
11485W        W83156  34.545  10.150  12.126
11486W        W83157   6.857  14.789  14.189
11487W        W83158  33.295  19.975   2.766
11488W        W83159  13.779  44.797   4.396
11489W        W83160  10.552   2.429  12.469
11490W        W83161  42.531  34.388  12.183
11491W        W83162  18.092   4.820   0.129
11492W        W83163  11.825  11.586  12.844
11493W        W83164  32.542  18.789   3.177
11494W        W83165  32.848  26.554  13.387
11495W        W83166   0.262  22.439   5.500
11496W        W83167  12.656  27.724   2.195
11497W        W83168  10.145  18.743  13.395
11498W        W83169  30.689  33.047  12.491
11499W        W83170   7.536   6.335   0.874
11500W        W83171  24.898  43.091   0.415
11501W        W83172  16.505  18.566   4.947
11502W        W83173  42.334  31.456  14.955
11503W        W83174   7.236   6.506  13.165
11504W        W83175  14.244  44.490   2.863
11505W        W83176  20.171  38.316   0.702
11506W        W83177  20.116  35.278  12.559
11507W        W83178  15.349   1.381   3.773
11508W        W83179  25.439  26.660   0.440
11509W        W83180  12.706  12.645   1.716
11510W        W83181  29.915  17.804  11.373
11511W        W83182  33.722  21.327  10.294
11512W        W83183  44.815  33.846  12.670
11513W        W83184   0.156  16.577  13.833
11514W        W83185   6.772  15.721  14.139
11515W        W83186   3.989  34.029   3.767
11516W        W83187  36.311  11.197  13.849
11517W        W83188  16.502  34.162   1.140
11518W        W83189  35.476  15.750  11.900
11519W        W83190  25.017  12.188  12.599
11520W        W83191  11.328  36.987   1.310
11521W        W83192  31.921  21.214  11.546
11522W        W83193  18.821  21.254   3.365
11523W        W83194  25.128  15.602   3.789
11524W        W83195  38.546  31.013  10.699
11525W        W83196  17.107  21.113  10.229
11526W        W83197   0.504  28.976   1.880
11527W        W83198  15.250  16.134   2.573
11528W        W83199  13.556  24.697  10.781
11529W        W83200   1.884  29.874  11.422
11530W        W83201  40.784  38.570   1.291
11531W        W83202  13.910  27.497   0.747
11532W        W83203  28.055  23.132   0.145
11533W        W83204  25.454  21.679   0.863
11534W        W83205  13.968  41.534   4.305
11535W        W83206  32.917  16.558  11.359
11536W        W83207  31.500  30.000   1.956
11537W        W83208  20.282  30.028   0.312
11538W        W83209  20.498   5.717  11.481
11539W        W83210  32.746  26.438  14.497
11540W        W83211  30.003  12.166   3.152
11541W        W83212  21.234  42.603  10.658
11542W        W83213  33.164  17.994  12.489
11543W        W83214   2.958  13.541  14.794
11544W        W83215  24.649   2.691  10.685
11545W        W83216  20.075  44.551   4.062
11546W        W83217  44.351   9.462   0.929
11547W        W83218   2.291  39.185   0.361
11548W        W83219  41.119  21.572  11.066
11549W        W83220   7.759  43.870  13.365
11550W        W83221  25.892  44.392   3.688
11551W        W83222  35.068   9.237   1.690
11552W        W83223   3.790   2.244   0.058
11553W        W83224  25.080  15.752  11.143
11554W        W83225  28.923  38.946   1.702
11555W        W83226  25.423  25.080   2.351
11556W        W83227  44.538  21.743   4.089
11557W        W83228  11.350  36.933  12.061
11558W        W83229   0.967  38.530   4.418
11559W        W83230   8.109  36.636   3.295
11560W        W83231  28.417  10.885   4.929
11561W        W83232  11.874   8.407   2.787
11562W        W83233  17.206  36.356  10.561
11563W        W83234  12.606  33.101   3.802
11564W        W83235  11.484  26.048   2.222
11565W        W83236   0.912   7.373   2.657
11566W        W83237  28.407   9.867   3.770
11567W        W83238  27.342  20.025   1.934
11568W        W83239  31.657  24.539   0.780
11569W        W83240  16.664   7.009   3.581
11570W        W83241  22.480   7.639  13.517
11571W        W83242  19.333  27.497  10.502
11572W        W83243  28.849  12.672  11.796
11573W        W83244  23.322  31.259  14.427
11574W        W83245  15.804  37.765   2.882
11575W        W83246  32.509  32.013   1.273
11576W        W83247  34.045  18.584  14.961
11577W        W83248  30.917  42.710  14.356
11578W        W83249  24.000  34.852  11.558
11579W        W83250   1.236  20.546   1.448
11580W        W83251  28.097  34.429   3.264
11581W        W83252   7.111  25.647  11.580
11582W        W83253  16.624  14.118  12.546
11583W        W83254  12.739  31.255  14.303
11584W        W83255  20.116  37.268  12.664
11585W        W83256  28.188  42.347  14.404
11586W        W83257  25.417  43.322   5.028
11587W        W83258  25.272   4.815   1.242
11588W        W83259  37.870  14.070   3.078
11589W        W83260  35.920  41.597   4.736
11590W        W83261  29.574  40.437  13.939
11591W        W83262  12.042  23.130   2.685
11592W        W83263  17.307  41.605  12.890
11593W        W83264  37.350  33.816   4.054
11594W        W83265  32.350  36.980  11.958
11595W        W83266  44.965  19.788   0.997
11596W        W83267  16.647  30.047   2.568
11597W        W83268  20.111  37.090  10.391
11598W        W83269  39.506  28.213   2.895
11599W        W83270  22.776  12.797  12.989
11600W        W83271   3.925  18.817  10.572
11601W        W83272  17.369   4.431   2.775
11602W        W83273  36.992   5.155  11.996
11603W        W83274  11.806  14.837  12.138
11604W        W83275  30.562  43.828  10.719
11605W        W83276  16.464  22.634  14.317
11606W        W83277  23.272  27.592   2.179
11607W        W83278   0.367  35.884   2.430
11608W        W83279   4.757  20.501  14.024
11609W        W83280  11.761  39.331   4.667
11610W        W83281  19.467  26.371  11.377
11611W        W83282   7.613  30.194   2.599
11612W        W83283  16.573  14.922  11.537
11613W        W83284   1.024  31.982   3.222
11614W        W83285  17.365  35.073  11.176
11615W        W83286  11.624  39.549  14.682
11616W        W83287  22.158  18.027  11.597
11617W        W83288   0.066  19.025  12.820
11618W        W83289  23.011   8.770   3.346
11619W        W83290  29.010  13.153  11.151
11620W        W83291   0.188  43.918   2.770
11621W        W83292   5.801   1.766   2.367
11622W        W83293  26.772  29.372  11.550
11623W        W83294   5.433  34.864   0.915
11624W        W83295  27.130  11.295   2.818
11625W        W83296  36.934  33.963   4.894
11626W        W83297  12.359  26.546  11.483
11627W        W83298  32.155  37.680   3.669
11628W        W83299  13.338  20.119  12.144
11629W        W83300  44.719  42.514  13.959
11630W        W83301  23.043  31.054   0.372
11631W        W83302   5.862  19.230  13.906
11632W        W83303  20.687  10.218   1.695
11633W        W83304  32.876  18.706   3.831
11634W        W83305  43.242   0.354  10.685
11635W        W83306   4.147  16.049  12.034
11636W        W83307  36.201  23.008   3.852
11637W        W83308  34.821  11.867   3.266
11638W        W83309  36.331  36.477  11.816
11639W        W83310   9.585   2.639   4.093
11640W        W83311  33.249  21.950   4.563
11641W        W83312  16.995  27.502   4.506
11642W        W83313  38.402   4.218   2.860
11643W        W83314  15.385  30.731   4.113
11644W        W83315   4.430  38.204  10.773
11645W        W83316  21.542  21.568   4.101
11646W        W83317  43.823   1.264   2.840
11647W        W83318  18.470  41.439   1.168
11648W        W83319  38.969  25.200  13.941
11649W        W83320  33.491  41.916  14.247
11650W        W83321   3.576  23.557  12.957
11651W        W83322  24.585  35.721  11.158
11652W        W83323   1.578  41.830   4.455
11653W        W83324  12.528  16.606  14.587
11654W        W83325  14.164   6.198  11.568
11655W        W83326  43.113  27.638  11.204
11656W        W83327  30.677  12.001   4.142
11657W        W83328  13.874  23.220   1.867
11658W        W83329  27.059  31.502   4.350
11659W        W83330  34.702  10.630   3.243
11660W        W83331  28.938  22.479  13.880
11661W        W83332  27.842  32.050   0.772
11662W        W83333   0.261  13.657  10.216
11663W        W83334  30.047  11.029   0.435
11664W        W83335  23.936   1.918  12.537
11665W        W83336  43.482  31.340   1.859
11666W        W83337  36.551  36.340   0.296
11667W        W83338  33.085  15.496   4.050
11668W        W83339   9.299  20.072  12.923
11669W        W83340  30.487  17.823   4.988
11670W        W83341  15.678  14.409  13.955
11671W        W83342   1.303   3.310   2.877
11672W        W83343   4.390  39.067  14.962
11673W        W83344  22.952   2.869   2.810
11674W        W83345  31.634  15.800   1.069
11675W        W83346  42.437   1.730  14.891
11676W        W83347  44.667  13.601  11.977
11677W        W83348  38.277  22.682   0.204
11678W        W83349  36.841  22.902   2.300
11679W        W83350  25.702  25.684  13.339
11680W        W83351  33.655  28.256   2.741
11681W        W83352  44.974  24.015   3.162
11682W        W83353   1.763   0.010   1.698
11683W        W83354   6.152   7.229   1.727
11684W        W83355  39.972  34.388  11.545
11685W        W83356  36.036  43.930   2.373
11686W        W83357  14.274   9.185  14.757
11687W        W83358  12.149  27.494  10.703
11688W        W83359  35.641  10.603   1.772
11689W        W83360  34.005  35.289  10.322
11690W        W83361  16.277   9.218   2.044
11691W        W83362  13.384  35.565  14.933
11692W        W83363  12.217  17.620  13.894
11693W        W83364  43.868  33.555   3.387
11694W        W83365  13.386  23.607   0.844
11695W        W83366  33.019  20.834  14.349
11696W        W83367  12.688  20.047  14.900
11697W        W83368   0.764   4.366   2.505
11698W        W83369   4.470   1.986  12.069
11699W        W83370  39.076  38.434   0.031
11700W        W83371  31.839   5.907   4.649
11701W        W83372  10.137   8.213   3.674
11702W        W83373  41.776  27.606  13.026
11703W        W83374  37.892  15.777   3.826
11704W        W83375  41.213  16.193   3.397
11705W        W83376  11.371   2.857  11.393
11706W        W83377   6.840  12.267  10.888
11707W        W83378  37.385  32.663  13.480
11708W        W83379  14.128  22.242  10.999
11709W        W83380  31.525  28.605   4.424
11710W        W83381  19.387  32.814  12.481
11711W        W83382  19.102   8.087  11.669
11712W        W83383  13.813  35.432  13.568
11713W        W83384  29.665   7.096  11.236
11714W        W83385  13.965  27.906   4.992
11715W        W83386   4.187   4.928  14.961
11716W        W83387  43.800  30.261  13.430
11717W        W83388  34.358  40.230   2.763
11718W        W83389  16.122  27.823  10.585
11719W        W83390  13.016   7.200  11.617
11720W        W83391  42.114   4.095  11.995
11721W        W83392  21.227  42.791   1.375
11722W        W83393  39.718   5.821   3.528
11723W        W83394  30.501  21.193  12.557
11724W        W83395  13.403   8.249  12.890
11725W        W83396  34.389  36.225   0.367
11726W        W83397  24.925   0.314   0.551
11727W        W83398  30.511  40.064  12.491
11728W        W83399  32.643  23.468   1.768
11729W        W83400   7.341  14.008   2.682
11730W        W83401  28.701  39.187   0.820
11731W        W83402   8.765   1.874  10.478
11732W        W83403  42.089  23.205  12.515
11733W        W83404  15.900   6.604   4.602
11734W        W83405  35.440  23.515  10.683
11735W        W83406  10.244   7.768   2.275
11736W        W83407  40.432   1.153  13.477
11737W        W83408  26.315  41.870  13.011
11738W        W83409  13.880   8.132   4.304
11739W        W83410  13.757   0.723   0.061
11740W        W83411  31.947  17.665  13.367
11741W        W83412   4.833   3.623  13.981
11742W        W83413  23.140   2.667   0.301
11743W        W83414  43.876  15.669   0.898
11744W        W83415  22.550   8.540   1.972
11745W        W83416  43.560  26.043  14.840
11746W        W83417  32.086  13.300  12.648
11747W        W83418  13.268  37.891  13.489
11748W        W83419  21.333  21.803  13.904
11749W        W83420  38.544  44.791  10.403
11750W        W83421  25.291  22.980   2.817
11751W        W83422  11.323  21.039  13.657
11752W        W83423  31.940  44.086  14.319
11753W        W83424   1.359  25.451   1.180
11754W        W83425  25.499  19.115   0.654
11755W        W83426  12.860  27.162  10.436
11756W        W83427  20.775  33.756   0.648
11757W        W83428   6.102  23.480  10.169
11758W        W83429  25.215  26.400   1.448
11759W        W83430  34.160  38.903   2.870
11760W        W83431   5.715   2.397  12.152
11761W        W83432  14.781  44.919   2.151
11762W        W83433  33.374  21.007   4.222
11763W        W83434   3.955  38.618   0.716
11764W        W83435  28.313   2.345  12.947
11765W        W83436  39.836  21.628   3.117
11766W        W83437  10.740  36.264   4.960
11767W        W83438  16.575  19.847   0.993
11768W        W83439  23.009  39.893  14.354
11769W        W83440  17.004  17.263  14.849
11770W        W83441   2.281  37.400  12.431
11771W        W83442   0.404  16.555  11.617
11772W        W83443   2.901  36.043   1.926
11773W        W83444  26.528  23.780   4.159
11774W        W83445  21.498   2.571  14.276
11775W        W83446   1.809  22.845  11.091
11776W        W83447  43.025  11.891  14.540
11777W        W83448   6.724  43.172  14.306
11778W        W83449  10.432   6.025   9.944
11779W        W83450  41.453  38.891  13.470
11780W        W83451  23.780  12.751   1.321
11781W        W83452  14.882  39.598  14.022
11782W        W83453  43.915  21.449   5.119
11783W        W83454  31.077  43.630   0.250
11784W        W83455  13.241  27.176  11.946
11785W        W83456   1.338  24.595   0.778
11786W        W83457   2.454  18.814   3.618
11787W        W83458  43.680  17.974   4.141
11788W        W83459   6.535  19.114  12.964
11789W        W83460  12.265  43.272   1.199
11790W        W83461  14.952   0.402  14.402
11791W        W83462  42.059  14.626  12.773
11792W        W83463  36.555  19.977   2.412
11793W        W83464  24.947   4.798   3.141
11794W        W83465   5.710  35.470   3.147
11795W        W83466   3.418  39.845  14.847
11796W        W83467  22.369   2.810  10.798
11797W        W83468  25.908  39.645  12.148
11798W        W83469   9.264  35.343  13.242
11799W        W83470  14.716   5.719   4.516
11800W        W83471   8.341  22.181   4.577
11801W        W83472   9.247  24.807   0.745
11802W        W83473  40.283   9.122   3.690
11803W        W83474  31.072  34.978   3.797
11804W        W83475  21.134  20.470   0.777
11805W        W83476  41.360  13.609  11.690
11806W        W83477  41.531   3.879  11.144
11807W        W83478  24.015  38.963  11.631
11808W        W83479  30.501   9.302  14.174
11809W        W83480  20.280  36.592  11.544
11810W        W83481  15.698  17.749  12.593
11811W        W83482  30.833  44.712  10.759
11812W        W83483   7.756  24.183   4.201
11813W        W83484  35.612  15.602  12.887
11814W        W83485   6.517  41.576  11.835
11815W        W83486  16.730  28.710  14.527
11816W        W83487  39.890  21.176   2.839
11817W        W83488   5.329  36.709  11.097
11818W        W83489  15.778  30.911  10.432
11819W        W83490  24.773  17.257  14.858
11820W        W83491  14.702  18.179   2.634
11821W        W83492  44.045  20.972  12.864
11822W        W83493  26.355  23.450   1.166
11823W        W83494  36.069  37.188   0.315
11824W        W83495  41.104  29.886   1.812
11825W        W83496  36.078  23.163  13.160
11826W        W83497   2.362   3.383   2.745
11827W        W83498  18.825  28.500  11.380
11828W        W83499  28.533  38.668   2.634
11829W        W83500   1.127  42.033   4.581
11830W        W83501  39.717  14.094  13.466
11831W        W83502  18.102  32.652  11.134
11832W        W83503  33.017   4.010   4.561
11833W        W83504   3.525  28.802   0.992
11834W        W83505  19.308  41.250  12.982
11835W        W83506  14.590  44.822   0.332
11836W        W83507  11.186  14.083   0.328
11837W        W83508  33.296  41.918  12.203
11838W        W83509  12.547  25.571  14.293
11839W        W83510  25.026  35.379  11.469
11840W        W83511  42.126  10.700   4.850
11841W        W83512  43.357  21.710  14.785
11842W        W83513  25.288   6.107  14.216
11843W        W83514  21.453  32.352   3.212
11844W        W83515  33.455  29.881  11.120
11845W        W83516  25.730  32.841   0.989
11846W        W83517   2.641  22.098   1.880
11847W        W83518   1.120  24.593   4.588
11848W        W83519  19.435  17.197   4.897
11849W        W83520  41.951   7.389  11.926
11850W        W83521  10.639  27.072   4.107
11851W        W83522  14.152  35.363  14.322
11852W        W83523   7.915  28.739  13.738
11853W        W83524  25.674   0.828  13.318
11854W        W83525  37.084  42.611   1.800
11855W        W83526  30.018  30.628   3.355
11856W        W83527   8.371   5.897  14.844
11857W        W83528   6.137  44.876  13.298
11858W        W83529  23.710   1.215   2.822
11859W        W83530  38.309   1.755   4.161
11860W        W83531  26.724  42.667   1.623
11861W        W83532  33.431   8.169   2.735
11862W        W83533  24.425  14.214  12.974
11863W        W83534   0.251  29.671  12.381
11864W        W83535  42.931   2.849   1.957
11865W        W83536   9.319  14.967   0.242
11866W        W83537  42.464  44.511  14.502
11867W        W83538  18.775  16.396  11.146
11868W        W83539  23.033  37.627   3.927
11869W        W83540  30.613  14.857   2.222
11870W        W83541  15.662  44.203  12.974
11871W        W83542  36.869   7.322   1.427
11872W        W83543  10.931  21.966  12.329
11873W        W83544   1.710  25.753   4.179
11874W        W83545  12.770  28.690   2.194
11875W        W83546  39.970  38.393   3.082
11876W        W83547   4.765  12.319   0.742
11877W        W83548  28.233  23.006  11.519
11878W        W83549  24.488  22.004   4.537
11879W        W83550  30.422   8.279   2.218
11880W        W83551  24.195  26.837   2.425
11881W        W83552   6.818  30.453   0.932
11882W        W83553  36.063  14.350  13.460
11883W        W83554  16.563  42.940   0.827
11884W        W83555  17.670  30.822   3.753
11885W        W83556  20.989  44.362  13.607
11886W        W83557   7.236  32.468  13.728
11887W        W83558  10.611   8.387  11.587
11888W        W83559   0.714  24.368  10.950
11889W        W83560  22.131  29.919   1.968
11890W        W83561  34.086  37.500  14.410
11891W        W83562  26.700  39.001  12.522
11892W        W83563  18.204  34.125   0.884
11893W        W83564   4.937  16.199  11.517
11894W        W83565  33.753  41.268  12.645
11895W        W83566  24.535  25.304  14.494
11896W        W83567  14.058  44.890  13.866
11897W        W83568  36.315   7.136   3.240
11898W        W83569  30.391  31.517   3.649
11899W        W83570   4.336  43.271  11.132
11900W        W83571  27.053  37.469   0.922
11901W        W83572   0.876   5.160  14.850
11902W        W83573  42.900  32.014   0.073
11903W        W83574  43.954  37.288   4.022
11904W        W83575  25.286  44.486   0.100
11905W        W83576  24.614  40.349  12.580
11906W        W83577  33.889  42.946  12.194
11907W        W83578  34.689  30.683  14.151
11908W        W83579  29.065   6.077  14.701
11909W        W83580  20.925  11.634   0.853
11910W        W83581   7.691  41.921  13.457
11911W        W83582  27.033  29.913   3.309
11912W        W83583  21.098  42.860  10.221
11913W        W83584   5.191  18.307  13.291
11914W        W83585   3.609  22.551  14.519
11915W        W83586  27.948  30.391   4.635
11916W        W83587  40.863   9.409   1.472
11917W        W83588  25.525  18.669   3.890
11918W        W83589  33.013  43.830  13.272
11919W        W83590  26.946  17.845  12.391
11920W        W83591  31.918   2.771  14.354
11921W        W83592  38.795   5.918   0.316
11922W        W83593  23.079  15.093  11.889
11923W        W83594   7.212  13.076  11.163
11924W        W83595  29.881  13.615  10.739
11925W        W83596  29.701  37.534   2.562
11926W        W83597  19.816   9.353  14.433
11927W        W83598   9.355  12.893  13.451
11928W        W83599  20.265  21.120  12.874
11929W        W83600   4.870  19.696  10.208
11930W        W83601   3.975   3.304  14.374
11931W        W83602  44.568  35.598   2.804
11932W        W83603  31.136  21.169   1.004
11933W        W83604  40.058  28.927  11.087
11934W        W83605   0.474  39.808   0.178
11935W        W83606  26.530  29.368  13.016
11936W        W83607  37.757  15.370  14.367
11937W        W83608   8.143  44.170   0.756
11938W        W83609  39.816  23.001  13.158
11939W        W83610   0.315  27.762  13.843
11940W        W83611  21.024   4.286  11.205
11941W        W83612  28.236  18.010   9.992
11942W        W83613   5.867  18.196   1.350
11943W        W83614  14.072  28.902   3.727
11944W        W83615  20.543  18.563   4.917
11945W        W83616  10.128  29.828   1.926
11946W        W83617   1.512   6.428   4.683
11947W        W83618  31.600  33.164  12.477
11948W        W83619  28.418  11.770   0.320
11949W        W83620  19.036  31.860   2.124
11950W        W83621  14.679  26.190   2.741
11951W        W83622  30.194  32.385   2.575
11952W        W83623   0.021   3.148  12.369
11953W        W83624  11.756  27.500   0.811
11954W        W83625  28.020  14.263   3.143
11955W        W83626   8.065  33.693   3.296
11956W        W83627  44.141   1.429  13.762
11957W        W83628  38.935  28.741  13.934
11958W        W83629  41.759   3.835  10.666
11959W        W83630  17.298   4.705   4.165
11960W        W83631   0.848  23.914   0.806
11961W        W83632  31.477  40.852  11.787
11962W        W83633   0.328   2.530   2.508
11963W        W83634  27.724  15.532   2.320
11964W        W83635  14.800   0.269  12.886
11965W        W83636  41.727  21.736   4.604
11966W        W83637   0.391   0.889  11.089
11967W        W83638  25.141  38.797  14.039
11968W        W83639  41.284  29.561   3.155
11969W        W83640  15.555   2.792  11.945
11970W        W83641  39.392  19.127  12.441
11971W        W83642  18.816   4.220   2.915
11972W        W83643  13.654  21.345  12.543
11973W        W83644   3.097  40.388  14.692
11974W        W83645  33.097   2.695  12.450
11975W        W83646   7.290  20.625   3.459
11976W        W83647  25.869  23.499  14.074
11977W        W83648  15.851  17.255  10.746
11978W        W83649  36.653  19.881  12.496
11979W        W83650  40.057  26.608  11.493
11980W        W83651  41.532  36.603   2.480
11981W        W83652  28.413  43.005  14.450
11982W        W83653  38.481  36.628   0.447
11983W        W83654  42.511   4.247   3.709
11984W        W83655  14.649  13.522  13.493
11985W        W83656   8.124  17.644  14.745
11986W        W83657  18.563  13.125   4.211
11987W        W83658  18.687   3.965  13.604
11988W        W83659  10.359  29.120  11.892
11989W        W83660  26.100  13.301  13.465
11990W        W83661  12.161  18.848  14.494
11991W        W83662  17.608  28.442   0.004
11992W        W83663  18.497  14.189  13.569
11993W        W83664  43.856  33.408   4.412
11994W        W83665  19.149  41.502   0.369
11995W        W83666  12.566  39.058  11.594
11996W        W83667  20.756  33.539  13.727
11997W        W83668   3.475   2.299  12.752
11998W        W83669  24.701   3.870   4.775
11999W        W83670   6.742   1.665   3.192
12000W        W83671  40.969  42.789   5.082
12001W        W83672  15.820  11.291   4.583
12002W        W83673  25.776  25.745   4.178
12003W        W83674   7.120   9.009   2.318
12004W        W83675  31.749  17.513  12.909
12005W        W83676   4.333   7.596  14.576
12006W        W83677  14.522   8.543  12.337
12007W        W83678  27.089  15.045   4.390
12008W        W83679  28.427  12.233   4.221
12009W        W83680  42.069  44.322   1.351
12010W        W83681  17.778   0.372  14.371
12011W        W83682   4.648  23.171  11.512
12012W        W83683  12.542  23.127  12.848
12013W        W83684  27.559   2.414   1.442
12014W        W83685   5.982  29.655   4.642
12015W        W83686  38.674  29.542  11.628
12016W        W83687  15.838  14.319  11.139
12017W        W83688  30.382  33.870   1.854
12018W        W83689  21.338   1.257   4.506
12019W        W83690  16.379   9.590   1.129
12020W        W83691   2.415   5.951   1.888
12021W        W83692   6.887  10.983   3.384
12022W        W83693   2.424   1.609  14.796
12023W        W83694   7.363   3.263  10.744
12024W        W83695  11.233  31.010  10.736
12025W        W83696  19.159  42.842   1.961
12026W        W83697  29.654  33.044   3.646
12027W        W83698  39.103  19.666   3.608
12028W        W83699   3.437  41.518   0.459
12029W        W83700  42.215  19.015   1.877
12030W        W83701  16.771  41.394  10.476
12031W        W83702  16.696   6.822  14.533
12032W        W83703  26.000   1.654   1.499
12033W        W83704  30.798   5.803   4.362
12034W        W83705  26.913   1.584  11.451
12035W        W83706  35.335  16.242   4.509
12036W        W83707  42.939  24.115   3.189
12037W        W83708  19.167   8.360  10.682
12038W        W83709  11.593  34.510  14.465
12039W        W83710   2.327  12.393   2.707
12040W        W83711  39.278  36.557  10.769
12041W        W83712  24.427  12.333  10.599
12042W        W83713  12.006  33.228  14.420
12043W        W83714  32.209  14.824  11.883
12044W        W83715  15.750  23.066  13.284
12045W        W83716  10.959  26.986  14.714
12046W        W83717  36.319  20.193  11.339
12047W        W83718  10.090   5.404  11.135
12048W        W83719  40.827  22.153  10.732
12049W        W83720  36.351  38.818   0.912
12050W        W83721  15.680  32.178   0.847
12051W        W83722  34.519  44.908   1.837
12052W        W83723  21.557  12.368   2.770
12053W        W83724  37.884  39.547   4.970
12054W        W83725  28.249  36.111   2.349
12055W        W83726  17.372  40.256   2.262
12056W        W83727  18.625   6.727  10.700
12057W        W83728  23.467  19.301   0.897
12058W        W83729   3.324  29.772   0.734
12059W        W83730  15.909  10.606   4.051
12060W        W83731  17.655  34.843  12.445
12061W        W83732  36.737   3.326   2.757
12062W        W83733   0.399  39.915  14.428
12063W        W83734  25.619  37.174  12.711
12064W        W83735  35.032  42.362  11.262
12065W        W83736  18.204   1.039  13.007
12066W        W83737  37.957  25.426   4.376
12067W        W83738  20.769  44.882   0.846
12068W        W83739  24.296  36.835   4.849
12069W        W83740   7.336  16.992  11.242
12070W        W83741   2.475  24.772  12.533
12071W        W83742  42.977  34.419  12.463
12072W        W83743   3.349  43.870   0.847
12073W        W83744  37.164  23.837  12.802
12074W        W83745  18.712  23.344  14.176
12075W        W83746  44.106  43.839  12.491
12076W        W83747  10.243  16.394  11.149
12077W        W83748  44.384  39.845   1.259
12078W        W83749  44.022  42.846  11.594
12079W        W83750  31.105  14.514   3.139
12080W        W83751  38.456  44.732  11.440
12081W        W83752  25.602  43.373   4.369
12082W        W83753  15.166  28.416   2.706
12083W        W83754  39.815  32.884   1.301
12084W        W83755  44.817  13.590   1.831
12085W        W83756   3.988  29.971   0.304
12086W        W83757   2.783   3.232   0.855
12087W        W83758  39.044  34.967  12.243
12088W        W83759  16.536  38.506  13.006
12089W        W83760  39.278  36.972  13.027
12090W        W83761   8.406   0.705  13.104
12091W        W83762  36.966  19.803   2.910
12092W        W83763  22.411  13.141   1.409
12093W        W83764  26.112  15.387   4.880
12094W        W83765  29.886  12.892   2.373
12095W        W83766  19.251  23.202  13.043
12096W        W83767  24.575   7.016  10.718
12097W        W83768  43.182  22.612  14.004
12098W        W83769  21.602  19.353   2.650
12099W        W83770  41.483  12.801  14.822
12100W        W83771  10.626   3.821   1.003
12101W        W83772   3.482   9.316   4.275
12102W        W83773  43.069  19.749   1.944
12103W        W83774  44.847  11.288  14.349
12104W        W83775  32.462   8.712  14.901
12105W        W83776  36.564   1.522  13.775
12106W        W83777  17.795  32.287   3.894
12107W        W83778  14.336  12.955  13.458
12108W        W83779   3.414  39.044   3.694
12109W        W83780  20.202  14.402   1.837
12110W        W83781   3.044  23.147   2.963
12111W        W83782  31.003  43.138  13.490
12112W        W83783  32.671  42.967   3.345
12113W        W83784   3.777  10.123  12.490
12114W        W83785  43.720   7.636  11.687
12115W        W83786  37.298  36.472  13.803
12116W        W83787  10.639  29.952  12.953
12117W        W83788  27.539  15.433   0.373
12118W        W83789  39.613  20.684  10.662
12119W        W83790  21.134  38.012   1.202
12120W        W83791   1.027  32.450   1.357
12121W        W83792  31.965  18.599  14.579
12122W        W83793  40.477  41.297  11.185
12123W        W83794  16.328  10.140  11.850
12124W        W83795  27.895  16.237  12.107
12125W        W83796  23.246   9.943   0.537
12126W        W83797  26.111  14.727   3.248
12127W        W83798  13.920  11.475   3.252
12128W        W83799  23.667  12.838  13.444
12129W        W83800   8.222  12.655   4.598
12130W        W83801   3.810  14.250  12.123
12131W        W83802  17.016  14.389   0.802
12132W        W83803  34.366   5.930   3.621
12133W        W83804  10.845  35.520  12.842
12134W        W83805  44.912  43.240   0.260
12135W        W83806  39.715  15.425  14.490
12136W        W83807  15.111  28.953   4.807
12137W        W83808  20.084   1.821  13.322
12138W        W83809  16.731  21.446  13.085
12139W        W83810  34.491  13.053  11.370
12140W        W83811  43.463   2.974  10.930
12141W        W83812  27.594  39.738  14.812
12142W        W83813  42.288  38.455  10.248
12143W        W83814  25.030  10.838   3.206
12144W        W83815  23.256   5.207   0.909
12145W        W83816  28.370  15.700   3.100
12146W        W83817  43.876   3.349   1.945
12147W        W83818  22.266   9.892  14.339
12148W        W83819  17.731  29.114  11.660
12149W        W83820  39.321  41.962  11.877
12150W        W83821  32.607  16.896  14.489
12151W        W83822  27.000  36.770   1.459
12152W        W83823  39.584  17.823  12.227
12153W        W83824  14.677  35.444   0.371
12154W        W83825  36.419  33.984  13.574
12155W        W83826  27.149   8.878   1.007
12156W        W83827  10.908   0.468   3.191
12157W        W83828  40.403  17.171   5.007
12158W        W83829  18.785  36.224   1.304
12159W        W83830  18.309  36.373   1.549
12160W        W83831  25.970  18.992  12.229
12161W        W83832  38.820  17.120   4.100
12162W        W83833  11.881  16.488  10.690
12163W        W83834  38.464  37.014   1.644
12164W        W83835  16.635  27.093  11.542
12165W        W83836  26.981  32.591  11.594
12166W        W83837  24.189  33.366  12.757
12167W        W83838  40.042  24.231  11.209
12168W        W83839  43.419   1.913  12.288
12169W        W83840   9.078  33.811   3.357
12170W        W83841  12.277  36.062  10.731
12171W        W83842   7.382  29.999   3.752
12172W        W83843  43.893  40.200  14.916
12173W        W83844   0.144  23.351   2.803
12174W        W83845   8.296   5.395  10.672
12175W        W83846  17.783  14.346   1.684
12176W        W83847  40.245   4.273   1.282
12177W        W83848  30.017  43.364  14.926
12178W        W83849   3.585  21.250   1.015
12179W        W83850  27.200  24.520  10.689
12180W        W83851  28.512  23.629  12.884
12181W        W83852   5.380  13.291   0.873
12182W        W83853   7.545   4.883  10.740
12183W        W83854   7.041  30.799  13.865
12184W        W83855  10.772   2.314  11.614
12185W        W83856  13.551  30.585  10.801
12186W        W83857  24.811  41.223  11.422
12187W        W83858  11.858   1.314   2.227
12188W        W83859  19.725  11.110   4.596
12189W        W83860  12.690   7.559  11.848
12190W        W83861  35.118  40.773  13.464
12191W        W83862  12.904   6.234   2.809
12192W        W83863  30.669  21.202  12.054
12193W        W83864  17.685  16.142   3.184
12194W        W83865  40.703   1.311   2.758
12195W        W83866  32.325  30.023  10.408
12196W        W83867  41.460  15.793   2.471
12197W        W83868  43.587  32.654   3.153
12198W        W83869  44.006  41.776  10.449
12199W        W83870  10.712   2.271   1.320
12200W        W83871  31.668  41.379  12.458
12201W        W83872  23.877   3.535   1.415
12202W        W83873   1.943  13.731  13.385
12203W        W83874  29.263  12.559  14.881
12204W        W83875   1.008  16.000   1.325
12205W        W83876  22.471  11.473  10.288
12206W        W83877  26.645  16.799   1.221
12207W        W83878   6.390  13.682  13.634
12208W        W83879  33.083  40.521  14.276
12209W        W83880  24.307  43.894  11.105
12210W        W83881  25.645  21.968   4.484
12211W        W83882  33.345  23.255   1.510
12212W        W83883  26.594  14.618   2.974
12213W        W83884  15.632   2.810  10.725
12214W        W83885  40.123  12.653   3.111
12215W        W83886  36.331   5.282  12.860
12216W        W83887  26.266  38.516  11.559
12217W        W83888  35.236  30.545   3.541
12218W        W83889  26.595  35.116  14.015
12219W        W83890  34.013  35.559  14.896
12220W        W83891  23.403   6.414   1.366
12221W        W83892  12.619  19.831   2.699
12222W        W83893  21.189  16.690  13.038
12223W        W83894  36.707  44.406   9.806
12224W        W83895  17.662   9.676   4.586
12225W        W83896  19.198   5.718   3.831
12226W        W83897  33.843   0.532  11.159
12227W        W83898   5.025  24.901  10.797
12228W        W83899  19.813  11.055  12.938
12229W        W83900  41.418  18.787   2.759
12230W        W83901   3.532  14.553   2.205
12231W        W83902  36.961  18.772  11.148
12232W        W83903  39.928  41.281  12.823
12233W        W83904  41.975  11.633   2.118
12234W        W83905  31.063  36.427   0.848
12235W        W83906  43.543  25.356   2.635
12236W        W83907  21.265  33.857  11.534
12237W        W83908  20.979  26.882  14.501
12238W        W83909  44.295  27.128  14.323
12239W        W83910   3.139   0.526   0.467
12240W        W83911  20.676  23.547  13.023
12241W        W83912   3.367   5.334  11.150
12242W        W83913  29.211  38.920   4.451
12243W        W83914   9.691  18.683   0.957
12244W        W83915  30.838  35.554  14.822
12245W        W83916  21.088  25.045   0.216
12246W        W83917  33.511  12.710  13.078
12247W        W83918  32.117   5.193   4.677
12248W        W83919  20.081  25.758  10.659
12249W        W83920  34.480  13.059   2.879
12250W        W83921  13.856  12.780   0.898
12251W        W83922   8.642   5.758   1.721
12252W        W83923  23.190  36.191   1.463
12253W        W83924   7.508   6.924   2.429
12254W        W83925  44.319  28.494  12.598
12255W        W83926  24.113   6.202   4.993
12256W        W83927   1.164   7.675  11.469
12257W        W83928   8.776  31.990   1.358
12258W        W83929  42.237  31.459  13.623
12259W        W83930  31.500  13.794  13.399
12260W        W83931  10.304  29.158   0.320
12261W        W83932  16.490  17.585   4.567
12262W        W83933  13.355  20.563   1.395
12263W        W83934   5.397  24.039  14.775
12264W        W83935  13.311   5.604   1.232
12265W        W83936  34.538  25.023  10.642
12266W        W83937   8.958  36.878  12.438
12267W        W83938  14.738  35.100   1.867
12268W        W83939   3.648  21.191   4.510
12269W        W83940   8.709  15.686   3.177
12270W        W83941  34.984  30.388  11.447
12271W        W83942  34.341  13.301   1.775
12272W        W83943  35.563  33.563   1.965
12273W        W83944   7.368  14.446  11.626
12274W        W83945  28.610  34.045   4.633
12275W        W83946   7.742  25.782  10.737
12276W        W83947  23.927   4.555   1.513
12277W        W83948  23.049  30.643   0.048
12278W        W83949   3.918  20.597  14.392
12279W        W83950  36.597   1.518   4.630
12280W        W83951  17.824  44.351  11.826
12281W        W83952   4.954  12.749  10.961
12282W        W83953  16.126  33.854   0.082
12283W        W83954   9.686  38.140   1.794
12284W        W83955  38.952  37.934   0.256
12285W        W83956  30.567  32.506   2.963
12286W        W83957  35.412  30.991  10.738
12287W        W83958  35.461  25.437   0.708
12288W        W83959  29.577   4.713   2.264
12289W        W83960  36.503  32.310  11.032
12290W        W83961  28.503   4.830  10.554
12291W        W83962   0.921  10.462  11.389
12292W        W83963  29.558   5.309  14.748
12293W        W83964  20.806  36.348  10.506
12294W        W83965  32.332  41.975   4.564
12295W        W83966  16.942  31.466  11.188
12296W        W83967  15.686  43.533  14.458
12297W        W83968  23.642  20.690  13.389
12298W        W83969   9.834   3.961   2.685
12299W        W83970  17.150  40.814   3.205
12300W        W83971  37.141   6.433  11.501
12301W        W83972  44.376  25.201  14.282
12302W        W83973  18.246  30.627  13.937
12303W        W83974  39.351  19.208   4.410
12304W        W83975   0.971   0.755   0.842
12305W        W83976  11.050   2.394  12.576
12306W        W83977   2.478  21.996  13.945
12307W        W83978   2.086   9.554   3.733
12308W        W83979   8.595  25.585   4.159
12309W        W83980   8.397  34.506  11.244
12310W        W83981   6.419   3.599  12.988
12311W        W83982  20.678   3.381  14.855
12312W        W83983  27.066  23.074  12.366
12313W        W83984  17.178  20.675  13.134
12314W        W83985  16.719   8.856  11.945
12315W        W83986  19.764  22.793   0.459
12316W        W83987  23.339  30.089  14.064
12317W        W83988  33.660  35.497  10.629
12318W        W83989   2.542  34.916  14.432
12319W        W83990   9.673  29.659  12.449
12320W        W83991  32.722  11.328   4.130
12321W        W83992  32.302  16.028   3.787
12322W        W83993  33.085   9.785   3.388
12323W        W83994  35.401  18.116   4.192
12324W        W83995  37.850  21.266  14.725
12325W        W83996   4.140  40.324   4.608
12326W        W83997  28.050   6.238   3.334
12327W        W83998   0.404  22.488   5.000
12328W        W83999  44.798  31.312   4.244
12329W        W84000  22.569  24.215   2.464
12330W        W84001  40.466  24.437  14.240
12331W        W84002  27.267   1.203  11.445
12332W        W84003  23.148  40.930  11.121
12333W        W84004   4.903  19.293   1.419
12334W        W84005  15.096  29.182   3.417
12335W        W84006  26.479  43.456  10.670
12336W        W84007   9.129  17.540  13.360
12337W        W84008  26.009  31.170  11.252
12338W        W84009  30.968   1.391   4.453
12339W        W84010   7.351  25.578   4.639
12340W        W84011  39.384  40.322  14.911
12341W        W84012  14.021  38.397   4.352
12342W        W84013  26.935   4.884  11.029
12343W        W84014  16.749  33.883   4.153
12344W        W84015  28.885  34.398  10.803
12345W        W84016   6.170  10.946   2.345
12346W        W84017  19.005   0.096   0.445
12347W        W84018   5.650  15.588   3.050
12348W        W84019  35.513  40.201   1.414
12349W        W84020  33.933   0.734   4.335
12350W        W84021  28.192  33.999   1.028
12351W        W84022  41.353  19.501  14.181
12352W        W84023   0.919  33.096  13.671
12353W        W84024   1.481  23.474  12.479
12354W        W84025   7.221  28.139  13.864
12355W        W84026   1.663  31.316   5.109
12356W        W84027  42.983  23.100  14.020
12357W        W84028  11.692  20.088   2.630
12358W        W84029  36.719  24.594   2.067
12359W        W84030  13.027  25.590  11.057
12360W        W84031  28.618  37.934  13.315
12361W        W84032   2.822  18.135  14.562
12362W        W84033   3.306  19.650  10.257
12363W        W84034  33.899   0.978   0.397
12364W        W84035  20.592  38.565  12.551
12365W        W84036  20.433  16.036  10.580
12366W        W84037   1.249  25.537   2.363
12367W        W84038  34.983   8.363   2.022
12368W        W84039  43.139  37.801  14.882
12369W        W84040  40.075  19.761   2.564
12370W        W84041   4.757  26.190  12.030
12371W        W84042  40.267  38.343   4.098
12372W        W84043   5.970   2.345   3.160
12373W        W84044  14.318  16.392   2.317
12374W        W84045  39.076   1.220   2.998
12375W        W84046  42.959  30.331   3.355
12376W        W84047  29.223  44.745  12.329
12377W        W84048   5.192  27.238   3.150
12378W        W84049  27.496  11.620  12.388
12379W        W84050   3.920  44.487   3.138
12380W        W84051  32.272  23.867   4.126
12381W        W84052   3.929   3.153  11.144
12382W        W84053   8.763  11.082   1.787
12383W        W84054  14.207  22.598   3.095
12384W        W84055  34.192  19.083   1.209
12385W        W84056  16.807   4.936   2.852
12386W        W84057  20.143   2.321   4.359
12387W        W84058  18.481  28.705   4.501
12388W        W84059  40.260  42.283   4.264
12389W        W84060   9.753  43.585   1.373
12390W        W84061  24.021  44.311  10.975
12391W        W84062   0.024   5.695  10.761
12392W        W84063  13.204  30.001  12.866
12393W        W84064  27.220  12.206  11.479
12394W        W84065  12.296  32.455  13.812
12395W        W84066  41.949   9.953   1.203
12396W        W84067  27.285   4.370   2.332
12397W        W84068  31.704   5.279   0.460
12398W        W84069  28.819  37.005   0.658
12399W        W84070  31.561  13.210  13.762
12400W        W84071   2.035  31.010   1.329
12401W        W84072  38.553  24.508  13.085
12402W        W84073  31.085  35.455  13.295
12403W        W84074  44.216  44.552   4.724
12404W        W84075  15.241  17.318   4.371
12405W        W84076  35.279   3.776  14.361
12406W        W84077  36.614   6.052   2.542
12407W        W84078  25.626  42.978  14.346
12408W        W84079  10.780  18.852  10.917
12409W        W84080  37.182  14.385   0.762
12410W        W84081  17.124  21.725   3.420
12411W        W84082  10.345  14.829  10.192
12412W        W84083  36.831   5.947  12.487
12413W        W84084  13.734   7.777  11.650
12414W        W84085   7.914  40.473   2.379
12415W        W84086  37.982  26.419   4.581
12416W        W84087  21.609   3.875   4.202
12417W        W84088  38.344  31.969  10.690
12418W        W84089  21.165   2.957  11.805
12419W        W84090  42.429  35.151   3.132
12420W        W84091   8.019  25.135   0.287
12421W        W84092  35.530  39.941  12.959
12422W        W84093  17.070  12.141  11.594
12423W        W84094  25.049  43.860   0.899
12424W        W84095  27.369  11.479   0.194
12425W        W84096   7.417  42.267  12.920
12426W        W84097  13.320  34.421  10.703
12427W        W84098  38.935  17.327   2.091
12428W        W84099  19.807  22.323   0.230
12429W        W84100   9.626  38.770   3.237
12430W        W84101  33.139   9.397  12.129
12431W        W84102   3.797  18.284   2.282
12432W        W84103   6.781  29.460  14.899
12433W        W84104  26.178  26.528   4.891
12434W        W84105  35.797  28.461  14.933
12435W        W84106   3.633   4.729  10.794
12436W        W84107  43.468  28.564   3.673
12437W        W84108   9.647  26.304   3.700
12438W        W84109  41.078   7.667   2.186
12439W        W84110  20.140  26.423   0.385
12440W        W84111   0.667  42.374  11.488
12441W        W84112   4.758  21.597   2.072
12442W        W84113  31.633  27.826   0.403
12443W        W84114  33.683  44.581  11.164
12444W        W84115  21.576  26.416  12.956
12445W        W84116  15.087  25.155  10.445
12446W        W84117  12.641  44.900  14.077
12447W        W84118  16.322  29.149  13.882
12448W        W84119  40.818  37.843  13.657
12449W        W84120  28.040   1.316   3.102
12450W        W84121   0.965  10.499  10.352
12451W        W84122  25.731  27.293   4.035
12452W        W84123  11.596  14.994  11.684
12453W        W84124   5.919  26.347  11.194
12454W        W84125  14.734   7.979  13.887
12455W        W84126  22.473  17.978   4.969
12456W        W84127  26.986  41.944   3.243
12457W        W84128  23.130  15.148   3.439
12458W        W84129  38.906   3.355  12.888
12459W        W84130   6.931  18.635   4.272
12460W        W84131   5.363  22.493   4.686
12461W        W84132  19.333  28.484   2.270
12462W        W84133  30.137   1.783  13.446
12463W        W84134   9.256  31.546  10.948
12464W        W84135   3.513  36.536   2.752
12465W        W84136   3.808  26.564   0.696
12466W        W84137   1.282  26.749  11.207
12467W        W84138  25.931  38.623  13.367
12468W        W84139  22.132  12.553  11.003
12469W        W84140  11.421  24.166  13.517
12470W        W84141   0.007  27.632  12.038
12471W        W84142  23.469  32.092   1.375
12472W        W84143  36.705  32.633  14.772
12473W        W84144  30.965  37.384  12.141
12474W        W84145  30.171  19.284   2.338
12475W        W84146   1.425  30.670  14.438
12476W        W84147  40.867  34.616  12.552
12477W        W84148  31.562  36.821  12.852
12478W        W84149  10.830  13.579  13.816
12479W        W84150   5.832  13.335  14.910
12480W        W84151   9.823  16.128  10.965
12481W        W84152  18.320  23.030   4.215
12482W        W84153  22.140  30.966  12.496
12483W        W84154  43.521  19.972  12.467
12484W        W84155  17.701  19.211   1.363
12485W        W84156   2.438   6.432   2.738
12486W        W84157  26.167  14.377   1.516
12487W        W84158   6.648  27.289  14.985
12488W        W84159  30.192  16.810  12.028
12489W        W84160  40.730  33.118  11.466
12490W        W84161  41.307  29.937   3.809
12491W        W84162  34.999  22.558   1.415
12492W        W84163   3.843  21.546  13.935
12493W        W84164  43.464  41.445   4.491
12494W        W84165  39.996  38.313  14.818
12495W        W84166  13.328  40.488  12.370
12496W        W84167   3.143  24.931   1.303
12497W        W84168   1.837  32.473   4.511
12498W        W84169  21.548  34.933  12.511
12499W        W84170  43.074  21.222  13.023
12500W        W84171  33.408   6.390   0.373
12501W        W84172  43.825  38.769  13.752
12502W        W84173  44.020  11.729  10.213
12503W        W84174  34.814   6.884   4.087
12504W        W84175  10.808  10.293   3.961
12505W        W84176  31.056  38.571  11.523
12506W        W84177   4.732   5.433  10.775
12507W        W84178   7.634  20.583   4.430
12508W        W84179  20.025   8.303  13.851
12509W        W84180  37.608  37.056   0.484
12510W        W84181  26.668   6.398   3.543
12511W        W84182  11.739  39.049   4.247
12512W        W84183  24.574  27.526  13.725
12513W        W84184   5.574  24.741  14.085
12514W        W84185  13.540  27.399  11.204
12515W        W84186  29.727  32.499  14.987
12516W        W84187   4.292  16.076   2.221
12517W        W84188  11.706  31.578   2.252
12518W        W84189   3.693   9.641   2.202
12519W        W84190  28.064  41.054  14.847
12520W        W84191   8.689   5.649  11.416
12521W        W84192   2.685   9.106  12.016
12522W        W84193   7.166  27.595  12.313
12523W        W84194  36.906  11.880   0.424
12524W        W84195  12.524   4.291  13.415
12525W        W84196  32.367  36.987   2.681
12526W        W84197  11.230   9.322   2.248
12527W        W84198  41.767  32.083   2.873
12528W        W84199  40.446  33.693   2.731
12529W        W84200  34.990  32.356   1.885
12530W        W84201   8.836   9.380  14.209
12531W        W84202   7.225   9.929  12.785
12532W        W84203  14.798  41.570  11.989
12533W        W84204   0.205  32.431   2.664
12534W        W84205  18.748  17.989   2.313
12535W        W84206  32.133  25.285  10.631
12536W        W84207   9.328  29.853  11.227
12537W        W84208  34.850   6.607  11.161
12538W        W84209   1.368  20.189  10.186
12539W        W84210  14.762   3.814  13.077
12540W        W84211  20.566   2.836   2.805
12541W        W84212   1.017  19.791  10.115
12542W        W84213  24.437  40.834  12.537
12543W        W84214  19.928   6.186   0.482
12544W        W84215  24.646  20.828  14.322
12545W        W84216  19.770  21.571   3.470
12546W        W84217  16.915  11.460  10.703
12547W        W84218  14.654  22.639   4.025
12548W        W84219  22.613   5.418  14.697
12549W        W84220  11.432  32.664   0.777
12550W        W84221   1.454  12.721  12.553
12551W        W84222   5.906  22.013   3.288
12552W        W84223  23.321   1.210   3.178
12553W        W84224  25.127  24.433  13.066
12554W        W84225  40.259  27.956  13.301
12555W        W84226  19.825  13.091  14.334
12556W        W84227   7.472  43.608   1.348
12557W        W84228  31.608  35.230  10.791
12558W        W84229  24.557  10.263   4.676
12559W        W84230  15.776   5.289   2.714
12560W        W84231  23.283  41.478   0.198
12561W        W84232  15.204  30.112  14.510
12562W        W84233  21.736  23.500   2.255
12563W        W84234  20.139  18.731   4.593
12564W        W84235  30.299  15.656   1.916
12565W        W84236  20.500  10.896  11.594
12566W        W84237   1.723  25.738  13.556
12567W        W84238  22.747  13.688   2.412
12568W        W84239   9.625  22.319  12.065
12569W        W84240  37.891   0.346   0.957
12570W        W84241   4.713  13.012   2.869
12571W        W84242  14.825  35.919   1.503
12572W        W84243  34.666  27.037  14.362
12573W        W84244  40.397   6.831  10.562
12574W        W84245  33.899  15.159  14.842
12575W        W84246  41.003  37.777  11.487
12576W        W84247  18.653  17.824   3.372
12577W        W84248  31.855  44.766   4.241
12578W        W84249   5.348  30.248   3.487
12579W        W84250  16.813   6.146  11.145
12580W        W84251  30.485  18.668   2.746
12581W        W84252  14.355  38.523   2.878
12582W        W84253  18.731  16.321  12.329
12583W        W84254  25.544  15.313  12.975
12584W        W84255   9.084  26.235   0.795
12585W        W84256  38.469  25.542  14.095
12586W        W84257  37.434  38.844  11.516
12587W        W84258   5.413  32.911   4.284
12588W        W84259  33.450  24.564  10.291
12589W        W84260   6.866  17.706   1.643
12590W        W84261  35.228  10.904   1.371
12591W        W84262  39.514   2.989   2.345
12592W        W84263  13.602  20.701   4.697
12593W        W84264  39.660  31.150  11.529
12594W        W84265   9.816  44.059   4.533
12595W        W84266  38.598  24.939  11.923
12596W        W84267  24.098  17.063  11.445
12597W        W84268  36.398  13.177   4.854
12598W        W84269  25.261  32.552  11.983
12599W        W84270  21.528   5.342   0.837
12600W        W84271   9.914  25.685  12.111
12601W        W84272   7.642  14.130   2.281
12602W        W84273  19.383  13.725  12.800
12603W        W84274  22.061  26.604  14.112
12604W        W84275  44.514  22.817   4.768
12605W        W84276  28.582  31.206   3.211
12606W        W84277  39.037  35.401  10.775
12607W        W84278  41.899   3.826  14.137
12608W        W84279  28.621   4.832  11.580
12609W        W84280  43.406  22.133   4.684
12610W        W84281  44.321  41.842   4.347
12611W        W84282  33.149  12.076   2.123
12612W        W84283  18.242  15.755  14.911
12613W        W84284   2.211  37.871  14.329
12614W        W84285  14.044   4.693   0.380
12615W        W84286   6.748  12.996   1.151
12616W        W84287  17.339  21.624   0.913
12617W        W84288  19.159  34.673   2.188
12618W        W84289  10.253   3.409   3.212
12619W        W84290  43.044   1.930   2.764
12620W        W84291   9.503  11.339   2.171
12621W        W84292  10.188  34.130  12.579
12622W        W84293  43.948  27.508   4.474
12623W        W84294  34.553  40.828   0.284
12624W        W84295  21.472  23.215   4.206
12625W        W84296  22.296  30.126  14.102
12626W        W84297   8.896   5.854  12.340
12627W        W84298   7.672  38.576  11.531
12628W        W84299  12.375  27.378   1.403
12629W        W84300  37.990  29.664  12.909
12630W        W84301   2.708   7.969  12.661
12631W        W84302  14.706  39.792   1.463
12632W        W84303  44.428   2.268  10.709
12633W        W84304  18.693  13.851   3.097
12634W        W84305   5.586  35.650  11.280
12635W        W84306  20.571  23.788  12.518
12636W        W84307   2.721   9.272  13.960
12637W        W84308  16.647   6.722   4.006
12638W        W84309  24.868   7.058   4.129
12639W        W84310   2.330  12.717   4.075
12640W        W84311  33.478  11.416   4.834
12641W        W84312  44.837  13.689   9.659
12642W        W84313  44.349  12.272   0.689
12643W        W84314  21.649  44.964   2.571
12644W        W84315   4.975  25.679   2.802
12645W        W84316  23.129   2.581   3.196
12646W        W84317  39.537  16.669   0.410
12647W        W84318  27.175  31.642   1.532
12648W        W84319   2.856   4.887   2.531
12649W        W84320  38.851  30.650   0.431
12650W        W84321  43.040  26.502  14.520
12651W        W84322  36.967  21.338   2.439
12652W        W84323   3.098  26.532   4.657
12653W        W84324  22.242  42.775   1.168
12654W        W84325   6.237   8.728   0.419
12655W        W84326  30.050  44.507   4.738
12656W        W84327  23.140  40.554   3.848
12657W        W84328  12.136  36.303  11.900
12658W        W84329   6.249  42.948  14.432
12659W        W84330  22.762  27.592  12.009
12660W        W84331  26.433   5.286  13.328
12661W        W84332   0.086  17.529   4.228
12662W        W84333   7.380  15.095   0.397
12663W        W84334  11.211   9.415  11.147
12664W        W84335  39.863  40.792   3.254
12665W        W84336  23.906  14.627  12.387
12666W        W84337  15.154  43.479  12.933
12667W        W84338  37.334   9.751   0.720
12668W        W84339  38.017  17.198  12.956
12669W        W84340  19.740  41.367   0.997
12670W        W84341   5.344  30.410   4.320
12671W        W84342  20.706   2.923  12.473
12672W        W84343   2.264  38.374   1.903
12673W        W84344   0.764  35.004  14.031
12674W        W84345  23.648   5.804   2.437
12675W        W84346  35.411  37.996  14.440
12676W        W84347  18.049  42.958   4.929
12677W        W84348  22.661   8.763  13.338
12678W        W84349  40.977   7.198   1.953
12679W        W84350  25.240  34.417  11.935
12680W        W84351  20.108   7.201   2.269
12681W        W84352  28.295  40.107  13.432
12682W        W84353  38.016  13.501   1.289
12683W        W84354  28.076  12.850  13.904
12684W        W84355  32.991  21.832   4.128
12685W        W84356  29.589  12.006  11.906
12686W        W84357  43.950   2.485   2.245
12687W        W84358  10.620  20.647   3.313
12688W        W84359   9.388  18.246   0.792
12689W        W84360  38.836  37.950   1.294
12690W        W84361  42.347  30.948  14.946
12691W        W84362  36.855  29.845   3.328
12692W        W84363  36.548  44.559  13.746
12693W        W84364  27.287  41.332  12.202
12694W        W84365  25.448   1.462   0.721
12695W        W84366  24.924   4.222  12.502
12696W        W84367  13.340  13.683   4.124
12697W        W84368   0.852  31.042  13.641
12698W        W84369  43.911   1.894  12.066
12699W        W84370  28.157  30.875   0.006
12700W        W84371  43.052  28.297   0.556
12701W        W84372  22.956   3.975   3.204
12702W        W84373  19.251  16.055   3.258
12703W        W84374  41.550  39.969   2.086
12704W        W84375  11.256  39.106  13.365
12705W        W84376   0.693   7.731   4.253
12706W        W84377   3.852  10.012   2.990
12707W        W84378  26.255  30.585   0.939
12708W        W84379  28.847  19.241  12.061
12709W        W84380  15.176  17.989  14.983
12710W        W84381  44.712  19.298  14.924
12711W        W84382  20.730  10.867   3.706
12712W        W84383  11.705   4.398   3.028
12713W        W84384  16.793   0.930   1.506
12714W        W84385  26.023   3.835  14.006
12715W        W84386  27.690  35.030  11.113
12716W        W84387  30.454  10.383   1.967
12717W        W84388  32.226  11.672  10.565
12718W        W84389  17.397   7.348   3.578
12719W        W84390  26.435  24.836  10.671
12720W        W84391  40.400  44.403  10.851
12721W        W84392   5.373  21.635  12.038
12722W        W84393  42.806   4.456   2.384
12723W        W84394   9.726  17.412   4.731
12724W        W84395  13.892   3.444   0.738
12725W        W84396  31.566  34.365   1.674
12726W        W84397  26.184   3.971  10.726
12727W        W84398  19.149  17.602  13.542
12728W        W84399  20.658  11.766  12.013
12729W        W84400   2.723  15.804  12.016
12730W        W84401  23.638  40.582  10.139
12731W        W84402  29.029  39.429   3.790
12732W        W84403  11.246  11.733  14.355
12733W        W84404  30.519  29.960  14.263
12734W        W84405  23.820  15.464   0.906
12735W        W84406  26.583  42.396   5.131
12736W        W84407  11.140   1.214  14.905
12737W        W84408  17.738  28.197  13.406
12738W        W84409  29.363  26.220  13.787
12739W        W84410  13.659  12.626   4.826
12740W        W84411  32.826  42.342   3.644
12741W        W84412  11.042  11.183   1.995
12742W        W84413  37.759  25.829  12.638
12743W        W84414  19.654  44.156  14.237
12744W        W84415  12.228  27.604   1.856
12745W        W84416   3.119  40.505   2.232
12746W        W84417  16.858  16.796   4.212
12747W        W84418  24.494  26.890   4.624
12748W        W84419  42.961  39.433  14.421
12749W        W84420  16.096  39.895  12.263
12750W        W84421   9.440  43.259  13.924
12751W        W84422  12.902  38.791  11.179
12752W        W84423   5.910  17.568  12.574
12753W        W84424  10.894  31.039  11.187
12754W        W84425  11.138   3.739   2.387
12755W        W84426  18.764  12.643  14.297
12756W        W84427  17.223  36.370  11.479
12757W        W84428   3.063   7.480   4.194
12758W        W84429   6.729  42.857  12.094
12759W        W84430   9.656  42.008   1.760
12760W        W84431  37.615  32.184  13.307
12761W        W84432  36.554  15.722   1.476
12762W        W84433  23.608  22.953  11.299
12763W        W84434  37.423  28.364   2.823
12764W        W84435  17.222  20.758   0.059
12765W        W84436   6.682   2.705  14.535
12766W        W84437  30.899  39.884   4.607
12767W        W84438  30.891  44.689  13.499
12768W        W84439   8.361  26.599  11.101
12769W        W84440  20.812   9.443   1.747
12770W        W84441  23.665  10.678  12.324
12771W        W84442   9.222  21.060   3.822
12772W        W84443  20.285   2.375  11.124
12773W        W84444  17.989   5.837  14.447
12774W        W84445  29.116  39.162  10.538
12775W        W84446  13.354  31.654  13.722
12776W        W84447  36.956  26.712  11.986
12777W        W84448  34.079  16.749   0.002
12778W        W84449  33.564  15.110  10.870
12779W        W84450  35.546  12.298  10.697
12780W        W84451  34.141  44.332   4.343
12781W        W84452  32.498  19.180  14.077
12782W        W84453   2.515  30.457   2.426
12783W        W84454  23.264   0.723  12.040
12784W        W84455   3.994   8.495  13.538
12785W        W84456  41.008  22.195  11.214
12786W        W84457   6.877  32.052   0.883
12787W        W84458  38.254  44.445  14.465
12788W        W84459  31.885  43.266  12.512
12789W        W84460  15.040  34.699   3.971
12790W        W84461   7.944   6.652  12.483
12791W        W84462   6.706  14.504   1.614
12792W        W84463  40.449  19.281  11.037
12793W        W84464  40.372  18.269  13.917
12794W        W84465  43.209  35.301   2.673
12795W        W84466  39.044  36.495   2.180
12796W        W84467  35.311  33.155  13.978
12797W        W84468  20.291  33.451  13.491
12798W        W84469  14.984   6.588  10.750
12799W        W84470  38.947  10.697  12.764
12800W        W84471  25.532  33.138  12.399
12801W        W84472  26.118   1.287  10.903
12802W        W84473  19.144  11.221   0.044
12803W        W84474  38.910  36.856   2.907
12804W        W84475  10.776  11.371  13.310
12805W        W84476  17.128  24.707   3.690
12806W        W84477  13.299  20.541   4.322
12807W        W84478  11.014  31.198   0.818
12808W        W84479  13.883  26.638  10.739
12809W        W84480  20.229  15.218  14.874
12810W        W84481  32.568   4.682  14.349
12811W        W84482  33.145  14.785   0.262
12812W        W84483  24.633  30.031  12.525
12813W        W84484  11.440  24.309   4.105
12814W        W84485  34.515  33.861   4.140
12815W        W84486  43.239   1.333   2.115
12816W        W84487   7.895   5.871  14.077
12817W        W84488   7.675  28.159   2.813
12818W        W84489  22.510  41.383   1.760
12819W        W84490  15.239   5.725   1.445
12820W        W84491  24.512  13.005   2.402
12821W        W84492  28.143  13.644  11.946
12822W        W84493   3.944  25.179   1.856
12823W        W84494  44.273   4.760  10.726
12824W        W84495   9.293  23.801  10.423
12825W        W84496  28.062  22.215   0.301
12826W        W84497  35.018  42.499  11.753
12827W        W84498  43.485   4.467   2.803
12828W        W84499   5.725   6.678  14.829
12829W        W84500  39.911   9.720  12.470
12830W        W84501  11.069  41.833  12.899
12831W        W84502  12.926  23.080  11.934
12832W        W84503   3.703  23.528  11.548
12833W        W84504  30.625   0.199  14.924
12834W        W84505  22.553  18.830   1.795
12835W        W84506  31.549   9.605  13.965
12836W        W84507  29.070  30.505  10.586
12837W        W84508  43.734  28.451   4.478
12838W        W84509  37.648  42.280  14.718
12839W        W84510  27.182  33.018  11.378
12840W        W84511  42.222  27.746   2.868
12841W        W84512  11.689  10.950  13.929
12842W        W84513  29.906   0.467   0.152
12843W        W84514  38.707   5.322   2.169
12844W        W84515   5.989  35.236   5.100
12845W        W84516  10.696  11.228  13.911
12846W        W84517  40.981  16.758  12.037
12847W        W84518  33.092  28.458   3.171
12848W        W84519  42.941  41.931   0.806
12849W        W84520  13.109  31.589   4.061
12850W        W84521  40.843  23.443  14.043
12851W        W84522   3.005  27.087   0.368
12852W        W84523  28.657  41.351   2.220
12853W        W84524  41.509  14.507  10.773
12854W        W84525  31.007  15.918   1.292
12855W        W84526  10.199  27.943  11.239
12856W        W84527  36.836  43.708   4.065
12857W        W84528  30.374  12.199   2.179
12858W        W84529  29.216   4.036  11.061
12859W        W84530  22.644   1.574  12.368
12860W        W84531   3.017  31.128  13.684
12861W        W84532  26.252   0.354   1.875
12862W        W84533  43.871   1.015  13.077
12863W        W84534  42.261  16.258   1.290
12864W        W84535  10.348  18.343  14.960
12865W        W84536  20.556  25.895  14.942
12866W        W84537  36.331  10.611   1.103
12867W        W84538  23.227  33.377   2.825
12868W        W84539  23.527  38.281   5.048
12869W        W84540  25.914  17.163   3.216
12870W        W84541  44.418  35.976  11.371
12871W        W84542  29.365  16.665   0.269
12872W        W84543   3.203  39.470   4.683
12873W        W84544  14.129  37.040   3.729
12874W        W84545  38.769  43.791   1.787
12875W        W84546   1.139  35.865  12.455
12876W        W84547  39.539   7.912   3.794
12877W        W84548  18.729  16.102  12.819
12878W        W84549  23.248   7.938  12.812
12879W        W84550   9.641   4.665  10.747
12880W        W84551  35.823  32.148   1.781
12881W        W84552  38.372  43.768   3.165
12882W        W84553  44.282  39.420  12.343
12883W        W84554   8.352  29.063   4.574
12884W        W84555   3.955  10.076   4.617
12885W        W84556  16.356  42.320  13.328
12886W        W84557  16.923  12.577  14.895
12887W        W84558  27.550  16.366  11.756
12888W        W84559   6.270  26.696  10.622
12889W        W84560  29.605  38.349  11.474
12890W        W84561   3.874   9.658   4.280
12891W        W84562  20.824  24.661   3.026
12892W        W84563  14.644  42.981   0.824
12893W        W84564  35.785  28.501  11.211
12894W        W84565  14.693  34.931  13.293
12895W        W84566  18.296  33.441  14.898
12896W        W84567   8.212   0.892  11.226
12897W        W84568  24.028  36.706   2.379
12898W        W84569  42.967  33.607   0.057
12899W        W84570   0.923   2.772   4.199
12900W        W84571   4.679   6.093   3.998
12901W        W84572  23.061   0.836   1.750
12902W        W84573  28.520  13.525  13.598
12903W        W84574  21.471  29.452   1.395
12904W        W84575  32.472  13.880  10.724
12905W        W84576  35.385  28.563  13.098
12906W        W84577   5.331  11.433   1.013
12907W        W84578  24.498  30.886  14.896
12908W        W84579  18.303  14.801   5.422
12909W        W84580   2.400  28.685  14.389
12910W        W84581  24.768  35.131  12.577
12911W        W84582   4.359   7.120  11.821
12912W        W84583  27.306   1.858  11.117
12913W        W84584  11.062  40.265   3.769
12914W        W84585  22.054  19.329   0.964
12915W        W84586   5.117  17.098  11.649
12916W        W84587  18.027  21.415   3.382
12917W        W84588  21.518  20.475  14.513
12918W        W84589   7.706  28.465   4.856
12919W        W84590  10.928   8.151   4.038
12920W        W84591  27.896  18.767   2.873
12921W        W84592   7.996   4.311  12.361
12922W        W84593  27.958   9.918  14.336
12923W        W84594   5.239  38.671  14.045
12924W        W84595   5.823  10.222   1.420
12925W        W84596  15.214  17.801   3.571
12926W        W84597   8.367   4.753   0.790
12927W        W84598   1.834  38.429  11.736
12928W        W84599  33.528  18.555  12.965
12929W        W84600  32.722  43.810   4.742
12930W        W84601  16.440  41.986  12.121
12931W        W84602  21.679  30.411  12.909
12932W        W84603  22.997  18.668  12.348
12933W        W84604  26.457   6.943   5.020
12934W        W84605  30.998  44.982   0.780
12935W        W84606  37.354  25.292   4.227
12936W        W84607  12.863  14.644   4.027
12937W        W84608  12.904  26.023  13.460
12938W        W84609  24.669   1.307   2.804
12939W        W84610  42.246   4.838  13.529
12940W        W84611  31.959  37.113   1.771
12941W        W84612  24.924  35.445   3.313
12942W        W84613  13.343  24.977   4.592
12943W        W84614   0.990  21.719   1.395
12944W        W84615  35.770  37.682  10.198
12945W        W84616  33.206  21.439  11.679
12946W        W84617  32.315   7.676   3.157
12947W        W84618  32.664  14.516  12.142
12948W        W84619   2.462  43.929   1.223
12949W        W84620   5.707  12.472   4.147
12950W        W84621  12.933   5.970  11.054
12951W        W84622  21.089  37.941  11.439
12952W        W84623  39.476  17.794  12.732
12953W        W84624  20.068  31.610  12.608
12954W        W84625  37.188  23.582   4.070
12955W        W84626  38.865  42.895   1.988
12956W        W84627   0.501  13.352   1.774
12957W        W84628  19.663  42.034   2.225
12958W        W84629   7.084  31.587   2.562
12959W        W84630  20.349  28.088   1.740
12960W        W84631  28.607  29.403  12.468
12961W        W84632  34.487   7.919   3.618
12962W        W84633  28.103  26.231   2.667
12963W        W84634  11.842   3.525  11.887
12964W        W84635  15.989  35.627  13.058
12965W        W84636   9.620  32.495  10.703
12966W        W84637  40.789  28.168   2.677
12967W        W84638  18.069  26.758  11.524
12968W        W84639  17.440   6.246  13.006
12969W        W84640  42.973  14.674   0.440
12970W        W84641   0.275  37.346   3.689
12971W        W84642   6.356  25.079   5.040
12972W        W84643  14.763  32.173   4.424
12973W        W84644  11.335  44.818   4.334
12974W        W84645  14.071  31.586  11.562
12975W        W84646  38.374  15.235  13.518
12976W        W84647  13.861  18.872   1.082
12977W        W84648  23.229  15.975  11.874
12978W        W84649   7.386  42.982   4.575
12979W        W84650  15.002   6.962   4.968
12980W        W84651  22.722  36.550  10.737
12981W        W84652  36.606  28.544   3.216
12982W        W84653  17.333  18.089  12.666
12983W        W84654   0.985  22.516   3.350
12984W        W84655  12.752   0.874   4.684
12985W        W84656  17.535  18.280   1.160
12986W        W84657  33.454  41.885  11.720
12987W        W84658  32.912   7.732  12.745
12988W        W84659   3.393   1.945  13.531
12989W        W84660  14.418  25.519  13.068
12990W        W84661  11.124   1.734  14.871
12991W        W84662   1.624  22.098   2.311
12992W        W84663  42.822  21.569   1.975
12993W        W84664  12.315  41.404   2.029
12994W        W84665  17.792  42.978   2.243
12995W        W84666  29.579  34.346   2.853
12996W        W84667   4.239  13.321  10.878
12997W        W84668  10.151  37.990  13.366
12998W        W84669  20.361  35.940   5.172
12999W        W84670  25.882  25.331  11.727
13000W        W84671   2.999  23.604  13.888
13001W        W84672   0.531  34.066  14.545
13002W        W84673   1.744  40.491  11.739
13003W        W84674  12.698   3.272   1.460
13004W        W84675  20.467   7.828  11.063
13005W        W84676   7.589  31.107   2.883
13006W        W84677  35.427  39.601   2.648
13007W        W84678  36.522  43.340   2.736
13008W        W84679  19.731  43.689   0.078
13009W        W84680   1.676  32.980  14.854
13010W        W84681  41.740  35.512   0.431
13011W        W84682  23.501  42.859   1.711
13012W        W84683  14.262  12.616   2.211
13013W        W84684   6.621   6.667  14.800
13014W        W84685   6.913  44.730   4.199
13015W        W84686   1.962  35.060  13.500
13016W        W84687  23.906   5.127  13.819
13017W        W84688  30.049  24.334   4.434
13018W        W84689   4.916  14.144  11.562
13019W        W84690  43.390   4.807  11.607
13020W        W84691  27.282   3.176  12.981
13021W        W84692  29.007   1.377  14.736
13022W        W84693  29.825  11.904  10.488
13023W        W84694  44.782  11.294  10.645
13024W        W84695  43.720  17.201   0.792
13025W        W84696  28.153  37.451  10.599
13026W        W84697  15.083  13.767   4.882
13027W        W84698  31.841  11.916   1.808
13028W        W84699   2.323   9.129   1.414
13029W        W84700   6.693  35.366   1.219
13030W        W84701  24.629  35.572   0.288
13031W        W84702  29.993  34.596   4.834
13032W        W84703  23.429  24.842   1.558
13033W        W84704  25.011  35.793  11.796
13034W        W84705  41.642  18.548   4.334
13035W        W84706  22.536  30.539  12.256
13036W        W84707  35.051  41.914  13.955
13037W        W84708   6.851  19.130   4.489
13038W        W84709  21.198   0.041  14.941
13039W        W84710  11.884  11.090  12.961
13040W        W84711   0.676  32.232   2.588
13041W        W84712  18.510  28.569   1.735
13042W        W84713  26.572   2.493   2.344
13043W        W84714   7.386  20.223   1.834
13044W        W84715   3.924  12.861   3.874
13045W        W84716  36.608  18.463  13.461
13046W        W84717  26.730  10.729   2.450
13047W        W84718  10.247  17.284   4.137
13048W        W84719  11.046  32.992  11.937
13049W        W84720   7.291   9.432  11.047
13050W        W84721  27.509  42.936   3.251
13051W        W84722   1.805   3.385   2.989
13052W        W84723  14.151  34.930  11.497
13053W        W84724   9.018  35.973  11.693
13054W        W84725  17.064  11.682  12.968
13055W        W84726  26.141  20.185   2.103
13056W        W84727   5.811  34.391  14.498
13057W        W84728  31.095  24.995   0.329
13058W        W84729  21.989  29.993  12.768
13059W        W84730  32.812  24.606   3.147
13060W        W84731  30.496  15.848  10.564
13061W        W84732   8.089  40.479   4.258
13062W        W84733  10.187  37.832   2.774
13063W        W84734  39.749   2.723   0.886
13064W        W84735   0.763  10.821  14.993
13065W        W84736  41.060  30.010   3.369
13066W        W84737  30.453   4.461   2.134
13067W        W84738  21.316  31.304  10.289
13068W        W84739  43.181  11.636  14.088
13069W        W84740  24.292  32.914   0.817
13070W        W84741  31.878  21.620  13.489
13071W        W84742  27.410   1.641  11.618
13072W        W84743  42.688   7.626   4.116
13073W        W84744   4.145  36.094  14.802
13074W        W84745  28.621  25.953  10.403
13075W        W84746   2.009  28.711  12.261
13076W        W84747  14.785  28.937   2.488
13077W        W84748  37.645  44.791  13.005
13078W        W84749   1.310  28.549  11.080
13079W        W84750  24.386  16.851   3.537
13080W        W84751  41.507  39.054  14.862
13081W        W84752   4.645   0.655   2.769
13082W        W84753  17.219  20.787   3.165
13083W        W84754  27.448  11.871   0.828
13084W        W84755  16.259  14.259   0.328
13085W        W84756  22.096   9.412   0.474
13086W        W84757  38.995  28.547  14.453
13087W        W84758   3.340  41.929  13.491
13088W        W84759  15.609   2.400   4.343
13089W        W84760  24.470  10.327  10.662
13090W        W84761  26.623  21.696   0.352
13091W        W84762   3.735   5.906  10.821
13092W        W84763   6.738   2.942   1.444
13093W        W84764   7.092  23.151  12.553
13094W        W84765  13.028   4.457   1.907
13095W        W84766  12.549  42.132   2.914
13096W        W84767   0.798  18.735   0.271
13097W        W84768   0.758   5.626  12.129
13098W        W84769  18.675  42.383  13.319
13099W        W84770  35.093  17.865   2.206
13100W        W84771  43.151  20.946  14.468
13101W        W84772   5.797  35.383   0.323
13102W        W84773  33.307  30.039  10.661
13103W        W84774  37.573   3.845  13.881
13104W        W84775   1.704  17.159  14.286
13105W        W84776  33.194  11.945  11.148
13106W        W84777   0.325  28.216  12.884
13107W        W84778  34.521  30.417  12.202
13108W        W84779  24.948  25.713   2.608
13109W        W84780  37.041  31.920  14.865
13110W        W84781   2.995  22.255   1.264
13111W        W84782  41.943  40.767  13.258
13112W        W84783  37.343  32.333   4.130
13113W        W84784  30.901  40.975   1.937
13114W        W84785  10.877  23.066  11.014
13115W        W84786  19.863   7.403  13.771
13116W        W84787  41.095  11.152  11.062
13117W        W84788  38.109  22.632  12.484
13118W        W84789  20.297   2.292   4.836
13119W        W84790  10.909  26.962   2.523
13120W        W84791  13.229  41.849   2.954
13121W        W84792  34.106  14.132   0.047
13122W        W84793  18.250  33.912   4.843
13123W        W84794  42.910  16.115   4.700
13124W        W84795  29.578  39.852  12.515
13125W        W84796  21.786  44.011   2.752
13126W        W84797  25.680  42.360  12.768
13127W        W84798  32.167  10.790   0.382
13128W        W84799  20.685  31.398  13.818
13129W        W84800  23.574  15.403  12.603
13130W        W84801  44.293  29.387  10.192
13131W        W84802  16.349  22.209   0.422
13132W        W84803  18.763  18.752  14.238
13133W        W84804   2.995   3.991  12.631
13134W        W84805   5.366  22.229  12.439
13135W        W84806  30.827  30.582  11.588
13136W        W84807  23.211  43.319   2.903
13137W        W84808  23.224  33.626  12.499
13138W        W84809  11.367   0.317  12.425
13139W        W84810   8.680  28.186  13.128
13140W        W84811  39.453   1.492   0.779
13141W        W84812  17.630   9.896  11.632
13142W        W84813  35.948  10.893   1.403
13143W        W84814  43.937   8.371   2.709
13144W        W84815  39.952  21.956   4.154
13145W        W84816  11.388  36.977   3.115
13146W        W84817  37.977  11.892  11.022
13147W        W84818  42.441   2.498   2.350
13148W        W84819  14.068  14.086  14.653
13149W        W84820  17.146  41.496  14.906
13150W        W84821  15.383  15.677  11.327
13151W        W84822  19.969  23.342   4.316
13152W        W84823  44.055   7.413  10.379
13153W        W84824  12.595  21.125   1.459
13154W        W84825  30.423  44.753   3.716
13155W        W84826   7.153   3.150  13.515
13156W        W84827  23.151  21.059   1.503
13157W        W84828  34.297  14.303  11.086
13158W        W84829  22.048   5.333   0.415
13159W        W84830  14.266   1.378   4.780
13160W        W84831   6.370  30.044   3.660
13161W        W84832  44.344  35.344   1.743
13162W        W84833   3.433  32.624   4.173
13163W        W84834  25.425  43.157   2.635
13164W        W84835  10.272   1.193   2.729
13165W        W84836   3.831  28.589  11.724
13166W        W84837  23.619  37.832  13.308
13167W        W84838  18.127  33.931  14.487
13168W        W84839  15.610  35.924   1.193
13169W        W84840  13.676  34.022  12.489
13170W        W84841  14.956  34.388   0.302
13171W        W84842  27.566  44.697   0.898
13172W        W84843  21.006  22.726  12.081
13173W        W84844  12.699  33.323   1.357
13174W        W84845  31.148  34.823   0.839
13175W        W84846  40.515  26.888  11.568
13176W        W84847  32.168  12.309   0.389
13177W        W84848  29.541   8.281   0.953
13178W        W84849  11.115   8.737  14.292
13179W        W84850  32.411  24.721   3.618
13180W        W84851  24.735   6.222  13.029
13181W        W84852  31.136  13.391  11.860
13182W        W84853  28.224  20.609  12.601
13183W        W84854  24.609   9.742  13.885
13184W        W84855   9.325  16.280  14.162
13185W        W84856  41.967  18.759   2.727
13186W        W84857  20.474  40.059   2.816
13187W        W84858  33.820  20.195  12.925
13188W        W84859  13.801  18.134   0.339
13189W        W84860  12.056   3.402  12.344
13190W        W84861  17.796   6.317   4.690
13191W        W84862  23.731  22.498   1.844
13192W        W84863   2.315  10.339   1.812
13193W        W84864  20.866  33.706   1.743
13194W        W84865  40.784  13.886  12.905
13195W        W84866  39.083  23.264   4.176
13196W        W84867  18.816  11.784   9.739
13197W        W84868  21.034  31.134   3.712
13198W        W84869  25.294  12.437  12.977
13199W        W84870  33.714  36.420  12.658
13200W        W84871   0.800  38.437   0.976
13201W        W84872   4.859  39.732   4.101
13202W        W84873  36.134  35.076  14.262
13203W        W84874  30.157   8.321  10.294
13204W        W84875   5.254  18.671   3.054
13205W        W84876  20.232  35.635  14.726
13206W        W84877  41.609  22.488   0.371
13207W        W84878  29.589  30.015   3.726
13208W        W84879  19.606   7.647  12.967
13209W        W84880  18.577  27.580  13.551
13210W        W84881  34.071  12.859  13.336
13211W        W84882  15.312  30.574   2.481
13212W        W84883  33.146  18.306  10.441
13213W        W84884  35.248  25.650  14.015
13214W        W84885   7.389  31.976   0.897
13215W        W84886  24.285  25.929   2.211
13216W        W84887  20.150  28.869  11.265
13217W        W84888  18.492  34.486  11.643
13218W        W84889  41.322  24.567  14.407
13219W        W84890  28.376  35.043   4.714
13220W        W84891  33.572  23.504   2.755
13221W        W84892  34.350   6.313  12.030
13222W        W84893  22.671  38.717  10.878
13223W        W84894  41.326  17.783   0.922
13224W        W84895   4.150  32.007  13.813
13225W        W84896  27.856  11.134  11.511
13226W        W84897  33.392  32.701  10.442
13227W        W84898  41.120   4.561  14.415
13228W        W84899  14.688  30.225  14.911
13229W        W84900  20.582  31.690   2.657
13230W        W84901  23.219  43.815   3.122
13231W        W84902  10.046  22.152   4.561
13232W        W84903  21.077  30.442  12.053
13233W        W84904  35.615   6.798   4.756
13234W        W84905  39.920   2.557  12.511
13235W        W84906  24.219   2.551   1.081
13236W        W84907   2.475  31.851  14.758
13237W        W84908  44.744   4.339   1.291
13238W        W84909  32.525  22.823   2.331
13239W        W84910  14.387   7.112  11.231
13240W        W84911  40.324   1.340  10.972
13241W        W84912  28.401  19.685   3.866
13242W        W84913   2.470  19.285   2.276
13243W        W84914  13.377  30.766  12.837
13244W        W84915   9.505   0.772  10.353
13245W        W84916  39.163  19.282   1.742
13246W        W84917  33.619  32.382  12.550
13247W        W84918  25.923  14.086   0.976
13248W        W84919  35.885  14.299   4.207
13249W        W84920  28.979  17.732   2.283
13250W        W84921   0.288  14.331   3.169
13251W        W84922   2.259  29.077   2.698
13252W        W84923  43.454  24.701   1.645
13253W        W84924   3.451   4.287   1.606
13254W        W84925  28.573  21.636  14.763
13255W        W84926   9.413  38.609  14.917
13256W        W84927  17.152  43.604   2.366
13257W        W84928  19.768  26.713  12.891
13258W        W84929  31.414   7.517   0.651
13259W        W84930  19.707  25.069   2.988
13260W        W84931   7.876   9.149   1.716
13261W        W84932  14.459  39.902  13.876
13262W        W84933  42.090  21.636   4.113
13263W        W84934  29.516  21.659   2.944
13264W        W84935  42.487  15.105  11.658
13265W        W84936  38.433  26.840  14.428
13266W        W84937  36.569  28.631   1.858
13267W        W84938  22.411  34.085   2.787
13268W        W84939  27.223  36.948  12.873
13269W        W84940   3.763  37.128  14.335
13270W        W84941  18.297   2.844   1.269
13271W        W84942  14.669  42.739  13.051
13272W        W84943  33.026  19.130  12.610
13273W        W84944  39.073  41.777   0.740
13274W        W84945  44.732  36.300   4.376
13275W        W84946   5.624  13.573  10.974
13276W        W84947  44.398   5.962  11.653
13277W        W84948  31.827   7.777   1.986
13278W        W84949  23.933  41.990   4.072
13279W        W84950  22.206  17.100  12.654
13280W        W84951  14.421  20.084   2.144
13281W        W84952  29.703  29.945   2.831
13282W        W84953  25.004   7.089   3.605
13283W        W84954  17.133  42.490  12.721
13284W        W84955   8.445   6.399  10.625
13285W        W84956  31.082  38.003   4.654
13286W        W84957  11.767  19.582  13.572
13287W        W84958   2.917   3.608   1.872
13288W        W84959  35.108  11.337   0.486
13289W        W84960   3.515  34.401   0.757
13290W        W84961   8.902  40.354   4.713
13291W        W84962   1.854  13.324  11.857
13292W        W84963  28.160  15.697  13.875
13293W        W84964  12.163  30.042  12.951
13294W        W84965  31.199  11.904  13.918
13295W        W84966  30.995  13.582   1.770
13296W        W84967  16.688  20.960  13.311
13297W        W84968  21.209  19.327   0.237
13298W        W84969  43.905  18.623   0.407
13299W        W84970  17.248  19.606   4.285
13300W        W84971  39.921  41.319   3.333
13301W        W84972  38.415  36.417   1.544
13302W        W84973  24.854  12.597   3.749
13303W        W84974  20.208  18.595   0.047
13304W        W84975   0.057  24.229  11.127
13305W        W84976  37.041  32.611   1.398
13306W        W84977  25.201  34.855  14.028
13307W        W84978  38.793  29.979  14.498
13308W        W84979  26.285   0.296  10.694
13309W        W84980  13.632  17.411  12.091
13310W        W84981  39.685   1.335   2.891
13311W        W84982   2.344  15.581   2.480
13312W        W84983  20.222  23.009   4.618
13313W        W84984  12.364  11.680   2.292
13314W        W84985  18.727   1.352  14.015
13315W        W84986  44.341  30.578  10.009
13316W        W84987  21.200  24.071  13.262
13317W        W84988  29.738  41.683   1.307
13318W        W84989   6.499  42.036   0.781
13319W        W84990  27.728  33.393   0.264
13320W        W84991  37.793  41.878  11.568
13321W        W84992  14.108   3.381  12.653
13322W        W84993  17.798  11.084  12.010
13323W        W84994  13.903  40.952  14.083
13324W        W84995  31.936  22.533   0.322
13325W        W84996  33.706  44.499  13.437
13326W        W84997   5.392  26.785   3.303
13327W        W84998  32.622  30.675  12.647
13328W        W84999  43.506   4.716   3.291
13329W        W85000  36.355   7.830  14.333
13330W        W85001  32.549  34.869   3.659
13331W        W85002  38.175  38.563  14.899
13332W        W85003  18.265   8.829   5.056
13333W        W85004   1.964   2.861   2.109
13334W        W85005  43.896  13.695   3.033
13335W        W85006  17.751  32.425   0.809
13336W        W85007  39.246  22.320   0.066
13337W        W85008   5.716  26.685   1.866
13338W        W85009  42.782  44.871   2.966
13339W        W85010  16.328  26.800  10.324
13340W        W85011   5.329  32.064  11.612
13341W        W85012  24.566  27.902  12.003
13342W        W85013  20.889  29.557   2.732
13343W        W85014  25.559  30.947  11.067
13344W        W85015  35.078  25.039   0.665
13345W        W85016  14.637  17.085   1.755
13346W        W85017  19.738  28.669   0.369
13347W        W85018   2.073  10.749   1.569
13348W        W85019  37.909  13.118   0.414
13349W        W85020   4.719  22.660   1.161
13350W        W85021  11.312  30.549   2.737
13351W        W85022  32.173  43.926   1.354
13352W        W85023  18.882  11.884   0.020
13353W        W85024  39.873   2.224  12.116
13354W        W85025  27.710  25.674  12.397
13355W        W85026  12.063  31.494   4.178
13356W        W85027  39.263  17.268   9.988
13357W        W85028  14.313  25.414   0.496
13358W        W85029  22.855  31.439   0.687
13359W        W85030  34.303   5.753   1.857
13360W        W85031   0.480  22.622   3.469
13361W        W85032  26.867   7.688   0.033
13362W        W85033  43.986  17.081  13.442
13363W        W85034  27.620  23.429   2.994
13364W        W85035  23.129  34.379   4.610
13365W        W85036  29.541  42.278  14.427
13366W        W85037  17.060   7.859  10.878
13367W        W85038  20.724  22.204   4.066
13368W        W85039  29.169  25.497   3.243
13369W        W85040   2.726  17.464  12.921
13370W        W85041  26.255  27.461  11.754
13371W        W85042  34.253  16.310   2.718
13372W        W85043  18.316   6.339   4.797
13373W        W85044  41.885   9.319   1.450
13374W        W85045   1.505  38.479  14.381
13375W        W85046  44.958  19.648   4.379
13376W        W85047  43.632  38.461   3.782
13377W        W85048  20.095  14.837  10.964
13378W        W85049  24.315  14.930   3.517
13379W        W85050  25.119  13.038   3.695
13380W        W85051  19.978   0.810   1.996
13381W        W85052  23.221  10.005   1.048
13382W        W85053  15.363  36.093  10.534
13383W        W85054   7.670  21.139   0.841
13384W        W85055  19.615   3.418   2.321
13385W        W85056  11.229  26.522   2.423
13386W        W85057  19.924  32.511   2.790
13387W        W85058   2.978  28.420  12.100
13388W        W85059  17.242  44.756  14.381
13389W        W85060  36.918  14.753  14.288
13390W        W85061  20.060  31.961   4.836
13391W        W85062   4.330  28.479  13.767
13392W        W85063   6.203  28.098   4.070
13393W        W85064  12.097   2.234   1.881
13394W        W85065  39.061  26.788  13.085
13395W        W85066  27.751   4.038  13.733
13396W        W85067  41.466   7.306  14.820
13397W        W85068  41.051  17.736   3.452
13398W        W85069  21.682  12.157   3.710
13399W        W85070  14.266   2.881  13.358
13400W        W85071  39.974  11.017   2.406
13401W        W85072  19.208  32.411  14.501
13402W        W85073  41.116  33.960   4.501
13403W        W85074   8.453  43.256   3.334
13404W        W85075  25.492  29.063  10.765
13405W        W85076  38.269  41.830  13.956
13406W        W85077  11.361  10.395   2.193
13407W        W85078  35.469  38.110  13.027
13408W        W85079   2.219  44.515   4.699
13409W        W85080   9.189  44.481   3.398
13410W        W85081  39.379  41.376   3.242
13411W        W85082  11.103  30.523  10.621
13412W        W85083  34.607  14.548  11.944
13413W        W85084  43.505  42.835  11.596
13414W        W85085  11.738  25.954  14.224
13415W        W85086  31.219  44.270  13.568
13416W        W85087  31.201  11.835  10.488
13417W        W85088  25.468  29.958   0.876
13418W        W85089  19.631  13.395   3.378
13419W        W85090  33.860  41.038   2.129
13420W        W85091  30.381  28.888  14.310
13421W        W85092  30.406  26.472  12.405
13422W        W85093  37.781  42.710  13.528
13423W        W85094  10.287  13.137  13.506
13424W        W85095   6.088  28.131  13.615
13425W        W85096  31.504  39.459  13.129
13426W        W85097  35.682  16.844  11.169
13427W        W85098   5.345   1.836  11.571
13428W        W85099  25.202  20.141   4.631
13429W        W85100  11.002  30.373   2.365
13430W        W85101   9.208  26.208   1.381
13431W        W85102  11.785  19.618   2.880
13432W        W85103  20.338  43.291   3.303
13433W        W85104  42.611  21.677   4.292
13434W        W85105  11.954   8.117   2.353
13435W        W85106  25.173  10.868  13.947
13436W        W85107  14.309   2.991   2.268
13437W        W85108  21.224  26.944   4.099
13438W        W85109  13.149  16.373  13.825
13439W        W85110  42.413  32.940  14.983
13440W        W85111   8.277  37.765   4.472
13441W        W85112   7.438   8.460  13.459
13442W        W85113  21.853  24.122  10.602
13443W        W85114   9.328   2.216  11.680
13444W        W85115  28.616   2.891   3.945
13445W        W85116   3.701  24.602  10.687
13446W        W85117  30.942  33.386   4.864
13447W        W85118  44.910  32.936  12.036
13448W        W85119  44.050   8.311   0.732
13449W        W85120   0.997  33.144   2.527
13450W        W85121   5.945  30.317  11.612
13451W        W85122  17.538  16.012   2.320
13452W        W85123  41.856  25.806   1.381
13453W        W85124  32.628   0.806  10.597
13454W        W85125  29.537  29.110  12.538
13455W        W85126  32.009  27.186   4.616
13456W        W85127  40.992  23.595  13.593
13457W        W85128  40.940  28.465   1.826
13458W        W85129  33.965  26.851   1.283
13459W        W85130  16.187   6.872   3.773
13460W        W85131   1.019  14.950   3.895
13461W        W85132  15.039  30.864  14.041
13462W        W85133  34.409   7.882   0.395
13463W        W85134  17.508  43.875  14.445
13464W        W85135  32.931  20.787  10.787
13465W        W85136  42.477   2.226  14.916
13466W        W85137  37.553   0.966   2.213
13467W        W85138  42.753   9.617   2.196
13468W        W85139  23.746  19.811   3.541
13469W        W85140   6.213  31.964   2.333
13470W        W85141  21.985  35.793   2.349
13471W        W85142  21.604  14.649   4.403
13472W        W85143  17.526  29.579  10.944
13473W        W85144  26.700   7.569   0.914
13474W        W85145   3.009  26.229   3.839
13475W        W85146  22.675  32.537   2.671
13476W        W85147  33.901  12.307  11.582
13477W        W85148   6.400  17.718  12.702
13478W        W85149  19.805   0.308  11.133
13479W        W85150   1.058   6.182  12.355
13480W        W85151  37.131  40.513   3.118
13481W        W85152  25.924  10.185  11.575
13482W        W85153   8.216  14.712   1.648
13483W        W85154   8.513  35.919   5.005
13484W        W85155  13.098   9.179   1.921
13485W        W85156  22.193  10.746  14.891
13486W        W85157  40.265  26.901   2.924
13487W        W85158   2.948   4.256  13.551
13488W        W85159  33.426  36.828   1.708
13489W        W85160  14.875   8.606   3.245
13490W        W85161  12.090   4.004  10.657
13491W        W85162  34.588  41.877  10.667
13492W        W85163  42.801  23.888   5.391
13493W        W85164   3.674  30.986  12.369
13494W        W85165  11.886  38.857   3.009
13495W        W85166  40.098  36.974   0.734
13496W        W85167   2.899  11.677  13.871
13497W        W85168  44.185  32.136   3.720
13498W        W85169   0.864  42.391   2.389
13499W        W85170   2.325  33.073  10.685
13500W        W85171  17.823  19.442   3.126
13501W        W85172  28.628  10.952  11.612
13502W        W85173  35.143   3.465  10.707
13503W        W85174  14.336  40.253   4.096
13504W        W85175  13.631  19.457  10.523
13505W        W85176  14.446   0.174  10.014
13506W        W85177  26.131  23.731  14.478
13507W        W85178  40.600  39.789  12.945
13508W        W85179  15.499  35.469  13.002
13509W        W85180  39.776  23.972  10.738
13510W        W85181  11.294  40.904  12.025
13511W        W85182  26.213  26.630   3.315
13512W        W85183  17.225  19.001  11.127
13513W        W85184  27.085  26.061   1.684
13514W        W85185  40.632  40.737   1.865
13515W        W85186  41.593  20.216   0.016
13516W        W85187  23.065   0.116   0.485
13517W        W85188  32.184   7.266   0.757
13518W        W85189  21.110  14.754  14.259
13519W        W85190  13.080  42.197  14.390
13520W        W85191  43.342  20.775   5.059
13521W        W85192  12.223   4.922  14.992
13522W        W85193  26.918  42.576  14.371
13523W        W85194  29.159  34.689  11.140
13524W        W85195  40.039  22.286   4.581
13525W        W85196  17.950  11.314  13.254
13526W        W85197  41.726   7.372  12.763
13527W        W85198  27.427  44.993  13.930
13528W        W85199  33.167  23.716   1.740
13529W        W85200  21.172   9.819   1.228
13530W        W85201  28.067   0.464  14.779
13531W        W85202   0.037  43.923  10.661
13532W        W85203  40.444  16.356  10.669
13533W        W85204   4.247  14.440   0.076
13534W        W85205  24.725  35.558   2.318
13535W        W85206  35.944   2.351   3.341
13536W        W85207  19.013   9.697  13.329
13537W        W85208  22.428  40.982   1.072
13538W        W85209   4.752  19.637  14.281
13539W        W85210   4.856  15.839  10.625
13540W        W85211  28.318   2.587   4.258
13541W        W85212  18.741  27.928   4.233
13542W        W85213  10.314  13.051   3.818
13543W        W85214   0.243  36.363   2.663
13544W        W85215   5.454  44.837  14.060
13545W        W85216   1.375  21.792  11.904
13546W        W85217  10.619  28.638  11.580
13547W        W85218   4.673  32.419  10.573
13548W        W85219  26.129  29.644  10.745
13549W        W85220  27.520  38.355   1.737
13550W        W85221  15.252   7.857  13.655
13551W        W85222  35.962  23.505  11.294
13552W        W85223  17.370   9.640  10.160
13553W        W85224  41.933  16.195  10.682
13554W        W85225  42.452  18.744  14.683
13555W        W85226   8.688  26.596   2.830
13556W        W85227   6.805   5.719  10.947
13557W        W85228  26.560  41.252   2.849
13558W        W85229  36.495  28.213   2.836
13559W        W85230  11.076   3.143  12.122
13560W        W85231  12.000  33.536   4.611
13561W        W85232  30.977   0.786   5.100
13562W        W85233  16.786  42.919   4.476
13563W        W85234  40.669  39.066   1.360
13564W        W85235   1.128  15.323  14.248
13565W        W85236   9.246  31.371   2.893
13566W        W85237  14.590   9.341   4.600
13567W        W85238  38.057  31.609  11.144
13568W        W85239  34.247  26.011   3.757
13569W        W85240  26.527  39.843  13.934
13570W        W85241  19.711  39.078  14.253
13571W        W85242  42.672  39.145  13.022
13572W        W85243  22.516  28.195   3.648
13573W        W85244   3.702  19.787  12.377
13574W        W85245  27.356  38.403  13.863
13575W        W85246  10.482  25.521  14.472
13576W        W85247  39.953  10.713   1.221
13577W        W85248  13.750  29.971   1.347
13578W        W85249  39.795   2.406   4.313
13579W        W85250  10.690   0.757   2.240
13580W        W85251   6.763  43.311  13.269
13581W        W85252  43.483  27.388  12.573
13582W        W85253  29.190  25.462  14.818
13583W        W85254   2.094  16.990  12.021
13584W        W85255  44.266  12.763  14.819
13585W        W85256  30.551   5.456  13.368
13586W        W85257   5.359   2.913  13.977
13587W        W85258  41.241  32.773   4.111
13588W        W85259  19.100  44.480   2.187
13589W        W85260  30.429  14.247   4.695
13590W        W85261  18.829  25.252   4.045
13591W        W85262  22.546  38.838   2.157
13592W        W85263  36.930  16.065   1.617
13593W        W85264  23.721   7.102   4.723
13594W        W85265  31.204   1.772   0.863
13595W        W85266   5.146  23.249   4.166
13596W        W85267  37.437  18.109   2.892
13597W        W85268   4.118  44.875  13.509
13598W        W85269  31.921  30.135  12.997
13599W        W85270  41.405  40.584  12.464
13600W        W85271   8.586  22.650   4.523
13601W        W85272  14.301  10.233  12.605
13602W        W85273  12.173  25.061   3.836
13603W        W85274  15.653  35.523   4.183
13604W        W85275  42.851  38.270  14.622
13605W        W85276  19.001   9.307  13.858
13606W        W85277  34.821  33.144   2.273
13607W        W85278  20.143   4.842  14.056
13608W        W85279  22.034  33.480   0.013
13609W        W85280   8.712  37.327   0.770
13610W        W85281  44.437   9.296  14.014
13611W        W85282   6.231  24.153  14.021
13612W        W85283  36.270  12.051   0.344
13613W        W85284   1.741  10.607  14.772
13614W        W85285  19.097  25.571   1.422
13615W        W85286   3.472  37.165  13.819
13616W        W85287   5.201   5.188  10.636
13617W        W85288  32.612  11.654  12.429
13618W        W85289  36.808  22.687   0.283
13619W        W85290  26.506  43.448   4.082
13620W        W85291  16.589   3.521  12.370
13621W        W85292  14.039  28.657  11.442
13622W        W85293  19.695   6.476   0.903
13623W        W85294  17.655   3.339   0.000
13624W        W85295  30.847   9.192  12.021
13625W        W85296   3.841  43.235  13.062
13626W        W85297  16.319  19.988   1.419
13627W        W85298  43.293   1.802   2.327
13628W        W85299  44.879  36.681  14.220
13629W        W85300   0.714  14.027   5.393
13630W        W85301  28.443  18.229  14.832
13631W        W85302  37.916   8.399   0.109
13632W        W85303  22.609   5.539  12.938
13633W        W85304  35.544  11.384   4.339
13634W        W85305  41.421  37.650  10.652
13635W        W85306  17.467  18.992  12.992
13636W        W85307   6.461  13.266   0.736
13637W        W85308  22.344  27.127   4.847
13638W        W85309  44.997  34.837   4.083
13639W        W85310  25.946   1.917  12.975
13640W        W85311   4.307  35.665  10.742
13641W        W85312  42.359  40.996  13.523
13642W        W85313  30.557  39.336   0.380
13643W        W85314  30.859  40.231   3.306
13644W        W85315  28.102  17.804  11.434
13645W        W85316  30.157  16.602  11.154
13646W        W85317  32.596  20.076  14.492
13647W        W85318  40.423  32.801  11.239
13648W        W85319  16.106  24.054   0.783
13649W        W85320  44.805  24.615  11.944
13650W        W85321   3.563  34.948  11.705
13651W        W85322  10.268  19.148   0.340
13652W        W85323  18.592  26.567   1.397
13653W        W85324  14.269   9.229  13.731
13654W        W85325  25.684  30.484  10.270
13655W        W85326  13.084  43.276  14.369
13656W        W85327  17.644   4.748  14.867
13657W        W85328   7.700  38.636   1.910
13658W        W85329   7.851  11.129  11.338
13659W        W85330  18.352   5.933   1.331
13660W        W85331  30.040  37.827   2.303
13661W        W85332   6.507   2.680   4.170
13662W        W85333  25.785  18.161  11.063
13663W        W85334   2.195  20.237   0.737
13664W        W85335   6.039  22.549   0.969
13665W        W85336  39.612   2.339  11.666
13666W        W85337  35.911  34.932  12.412
13667W        W85338  11.255  28.425  14.338
13668W        W85339  15.206   4.472   0.046
13669W        W85340  16.282  43.477   2.227
13670W        W85341  17.520   7.867  10.627
13671W        W85342  38.520   2.329   2.895
13672W        W85343  29.050  11.857   2.118
13673W        W85344  12.363  11.689  12.574
13674W        W85345   2.640  10.351  14.251
13675W        W85346  38.793  43.737   5.208
13676W        W85347  19.028  11.582  14.556
13677W        W85348  38.647  23.682   1.762
13678W        W85349  37.541  35.090   2.670
13679W        W85350  43.696  24.021  13.285
13680W        W85351  39.356  27.397   3.272
13681W        W85352  15.607   4.868   1.041
13682W        W85353  27.209   4.115   2.792
13683W        W85354  31.095  15.363  12.678
13684W        W85355  40.957  24.103   1.329
13685W        W85356  35.108   4.755   1.777
13686W        W85357  31.452  10.355   0.986
13687W        W85358   0.955  40.239  11.125
13688W        W85359  25.427  16.221   3.183
13689W        W85360  16.640   8.618   4.759
13690W        W85361  30.645  41.402   2.311
13691W        W85362  23.081  37.241  14.796
13692W        W85363  21.976  31.082   2.321
13693W        W85364  40.335  16.001  12.487
13694W        W85365  14.348   3.352  10.576
13695W        W85366  29.098  12.734   2.671
13696W        W85367  12.323  42.391  12.866
13697W        W85368  12.144  19.844  12.919
13698W        W85369  22.359  36.553  13.928
13699W        W85370  23.190  24.641   1.161
13700W        W85371   9.571  28.601   1.237
13701W        W85372  21.316  30.512   3.839
13702W        W85373   3.916  10.286   3.428
13703W        W85374  15.256  35.119  14.760
13704W        W85375   6.991   2.318  11.451
13705W        W85376  11.084  27.912   0.249
13706W        W85377  28.214   7.306  12.017
13707W        W85378   8.630  41.478   4.641
13708W        W85379  23.911  38.412   3.648
13709W        W85380  24.283  44.269  10.535
13710W        W85381   4.719  27.029  13.857
13711W        W85382  40.791  42.878   2.584
13712W        W85383  33.888  17.617  11.258
13713W        W85384   5.389  22.709  14.881
13714W        W85385  41.763  22.801   4.583
13715W        W85386  32.054  37.638   1.050
13716W        W85387  28.443  24.716   2.262
13717W        W85388   7.493  22.469  11.539
13718W        W85389  31.469  25.028  14.042
13719W        W85390  44.328  36.398  11.648
13720W        W85391  13.857  40.031   4.154
13721W        W85392  36.516  13.779   1.136
13722W        W85393  25.994  21.826  12.927
13723W        W85394   1.267   8.782   4.624
13724W        W85395   4.720   6.863  11.602
13725W        W85396  42.483  20.925   2.749
13726W        W85397  19.701   8.650  10.745
13727W        W85398  21.025  28.730   2.749
13728W        W85399   6.339  17.324  11.095
13729W        W85400  27.825   3.477  10.094
13730W        W85401  10.713  21.265   2.300
13731W        W85402  34.938  21.102   2.000
13732W        W85403  25.639  11.869  13.352
13733W        W85404   6.500  44.527   5.217
13734W        W85405   2.260  25.971  10.772
13735W        W85406   0.447  19.658  12.493
13736W        W85407  33.449  30.222   4.046
13737W        W85408   5.347  11.615  11.167
13738W        W85409  22.265  37.680   3.148
13739W        W85410  19.008  10.782   4.909
13740W        W85411   5.407   4.952   0.013
13741W        W85412  40.273  17.789   1.798
13742W        W85413  26.560   1.460   2.342
13743W        W85414  37.372  29.971   0.741
13744W        W85415  23.077  37.040   3.290
13745W        W85416  36.070  36.058  14.468
13746W        W85417  24.498   3.425   4.922
13747W        W85418   6.489  16.403  10.706
13748W        W85419  43.059  28.616   1.865
13749W        W85420   8.080  21.998   4.143
13750W        W85421  38.398  20.037  14.816
13751W        W85422  13.775  40.992  13.146
13752W        W85423   7.966  27.644   0.334
13753W        W85424  34.619  42.022   0.850
13754W        W85425   2.195  22.422  13.992
13755W        W85426  24.520  19.518  14.866
13756W        W85427  39.390   7.422   3.731
13757W        W85428  11.723  19.210   0.347
13758W        W85429  13.186  33.817  14.294
13759W        W85430  21.175   1.050   1.262
13760W        W85431  32.156  22.053   1.276
13761W        W85432  13.943  21.002   4.972
13762W        W85433   9.849  11.575  10.340
13763W        W85434  25.946   2.265  11.136
13764W        W85435  40.835  33.927   1.282
13765W        W85436  41.224  22.173  10.320
13766W        W85437  27.204  10.231   0.889
13767W        W85438  11.166  14.595  13.547
13768W        W85439  12.319   1.358  12.997
13769W        W85440  13.292  23.933   1.701
13770W        W85441  19.862  18.829   0.406
13771W        W85442  10.982   7.823   3.636
13772W        W85443  42.743  28.196   1.915
13773W        W85444   0.781  39.905  12.832
13774W        W85445  39.897  32.415   0.170
13775W        W85446  35.717  39.975  10.608
13776W        W85447  28.374  27.008   1.755
13777W        W85448   2.158  22.748   1.412
13778W        W85449   1.801   1.721  12.511
13779W        W85450  42.247  28.468  10.641
13780W        W85451  29.736  28.622  12.625
13781W        W85452   1.394  14.141   1.044
13782W        W85453  34.133  26.155  14.493
13783W        W85454  15.715  43.552   3.396
13784W        W85455  40.103   0.346  12.544
13785W        W85456   2.446  19.329  10.257
13786W        W85457  24.430  42.711  14.642
13787W        W85458  21.536   9.719  10.652
13788W        W85459  40.883   9.289   4.601
13789W        W85460  18.894  13.743  11.561
13790W        W85461  36.475  34.598   2.709
13791W        W85462  34.014  43.095  10.657
13792W        W85463  34.067  15.195  10.801
13793W        W85464   0.770  32.434  12.922
13794W        W85465   0.279  44.458   3.270
13795W        W85466  25.361  31.477  14.872
13796W        W85467   1.894  15.781  14.520
13797W        W85468   9.201  43.517  13.522
13798W        W85469  35.077  36.418   3.897
13799W        W85470  12.183  32.561   1.446
13800W        W85471  43.012  20.069   3.359
13801W        W85472  31.999  41.388  10.820
13802W        W85473  41.812  10.885  14.832
13803W        W85474  37.886  38.102  11.562
13804W        W85475   4.888  10.824   0.758
13805W        W85476   8.841  13.748  13.099
13806W        W85477   7.187  21.818  14.554
13807W        W85478   7.397  11.349  14.425
13808W        W85479   5.952  31.198   1.791
13809W        W85480   3.186   8.011   5.070
13810W        W85481  33.639   2.231  14.248
13811W        W85482  15.684  35.542  11.832
13812W        W85483  15.678   0.472   1.038
13813W        W85484  11.874  22.822   0.585
13814W        W85485   2.452   5.528   2.246
13815W        W85486  36.859  30.332  10.777
13816W        W85487  11.765  20.238   0.217
13817W        W85488  12.398  41.746  14.000
13818W        W85489   0.962  13.146  13.984
13819W        W85490  16.049  42.926  11.605
13820W        W85491  26.390  22.027  11.150
13821W        W85492  39.968  22.495  10.530
13822W        W85493  19.445  30.160   1.895
13823W        W85494  13.110   7.818  13.031
13824W        W85495  26.668   6.626  10.135
13825W        W85496   4.540  40.882  11.205
13826W        W85497  41.440  23.599   4.336
13827W        W85498   3.341  32.441   2.740
13828W        W85499  37.115   7.565  14.711
13829W        W85500   5.251  23.586   0.946
13830W        W85501   7.996   0.889   4.299
13831W        W85502  28.192  19.305   0.279
13832W        W85503  44.730   5.010   2.550
13833W        W85504  29.110  29.164   1.896
13834W        W85505   8.905   3.203  13.763
13835W        W85506  42.646  15.142   2.227
13836W        W85507   1.286  23.093   1.369
13837W        W85508  31.523  29.450   3.218
13838W        W85509  17.769  23.437  11.035
13839W        W85510  16.319  21.802  13.872
13840W        W85511  28.182  42.838   1.898
13841W        W85512  19.580  15.658  14.809
13842W        W85513  17.761  37.345   3.657
13843W        W85514  10.186  43.258  12.447
13844W        W85515  34.185  39.257  14.022
13845W        W85516  36.229   7.398  12.087
13846W        W85517  37.576  21.403  12.847
13847W        W85518   6.270  10.723  14.087
13848W        W85519  39.876  11.667   2.886
13849W        W85520   2.275  36.587   0.262
13850W        W85521  25.101  34.500   4.897
13851W        W85522  22.528  32.611  13.356
13852W        W85523   4.420   0.765  10.639
13853W        W85524  24.726   6.515  14.746
13854W        W85525   4.244   0.929  13.186
13855W        W85526   5.230  44.888  13.187
13856W        W85527   1.654  43.475   1.395
13857W        W85528   5.434  23.668   4.011
13858W        W85529  30.204  26.168   1.328
13859W        W85530  37.083  10.909   1.210
13860W        W85531   1.278  12.430  12.943
13861W        W85532  41.465  18.287  13.313
13862W        W85533   7.859  35.712  11.938
13863W        W85534   4.729   6.003   3.484
13864W        W85535  39.463  19.213   1.338
13865W        W85536  30.867  37.051   3.796
13866W        W85537  40.488  22.803   3.283
13867W        W85538  30.898   3.248   0.864
13868W        W85539   8.451  44.988  13.628
13869W        W85540  24.894  31.095  11.976
13870W        W85541  26.231   9.783  14.800
13871W        W85542  36.403  14.742   4.140
13872W        W85543   4.952  12.577   2.793
13873W        W85544   0.451  26.747  13.051
13874W        W85545  20.145   7.744  14.266
13875W        W85546  38.382  21.561   0.892
13876W        W85547  19.186  40.813   2.124
13877W        W85548   5.796  32.070  11.932
13878W        W85549   4.053   1.626  11.158
13879W        W85550   7.234  39.802   3.551
13880W        W85551  12.064  18.234  11.501
13881W        W85552  37.355   6.430  14.491
13882W        W85553  24.922   0.873   1.807
13883W        W85554  24.922  13.819   4.101
13884W        W85555  32.063   9.861  12.114
13885W        W85556  42.324  42.522  13.581
13886W        W85557  10.856  43.838   4.601
13887W        W85558   9.469  27.687  13.045
13888W        W85559  23.027  39.395  12.058
13889W        W85560  29.611   0.335  13.897
13890W        W85561  21.045   6.070   2.183
13891W        W85562  25.502  44.544  11.571
13892W        W85563  39.040  24.906  10.727
13893W        W85564  35.087  21.646  11.583
13894W        W85565  20.969  25.672  10.552
13895W        W85566  18.585  17.474  10.264
13896W        W85567  31.958  17.556   1.754
13897W        W85568  40.939   2.495   0.497
13898W        W85569  39.524  17.297  10.968
13899W        W85570  44.057  31.500  13.987
13900W        W85571  16.856   1.733  12.902
13901W        W85572   6.449  24.569   4.906
13902W        W85573  13.612  40.780  14.471
13903W        W85574  12.427  38.355   0.963
13904W        W85575  26.355  40.765  13.572
13905W        W85576  13.441  15.718   3.343
13906W        W85577   8.154   0.424   0.453
13907W        W85578   1.830  26.256  14.351
13908W        W85579  23.093  24.312   1.508
13909W        W85580   6.766  39.034  13.131
13910W        W85581  32.430  37.860   3.252
13911W        W85582  36.867  21.482   4.839
13912W        W85583  23.262  35.152   2.121
13913W        W85584  12.963   9.851  10.625
13914W        W85585  34.614  30.407  13.096
13915W        W85586   7.681  29.576  11.194
13916W        W85587  34.224  39.391   4.591
13917W        W85588   4.484  11.164  12.963
13918W        W85589  27.517  42.057  10.677
13919W        W85590  40.522  20.816   1.926
13920W        W85591  35.477  28.439   2.724
13921W        W85592  44.803  32.183  14.161
13922W        W85593  29.863  41.376  13.899
13923W        W85594   6.489  44.777  11.717
13924W        W85595  42.907  39.052  10.522
13925W        W85596   0.415   0.506  11.547
13926W        W85597   1.327  28.983   2.425
13927W        W85598  12.233   5.159  13.061
13928W        W85599  38.386   7.474  14.915
13929W        W85600  15.569  25.453  12.746
13930W        W85601  15.052  20.816   3.637
13931W        W85602  13.648  26.899  12.098
13932W        W85603  32.868  22.254  14.164
13933W        W85604  31.581  13.653   0.503
13934W        W85605  39.485   3.497   2.442
13935W        W85606  42.274  29.538   2.221
13936W        W85607  17.125   9.053  12.226
13937W        W85608  24.019  39.437   0.912
13938W        W85609  19.087  16.055  14.379
13939W        W85610  17.624  43.506  12.004
13940W        W85611  40.317  44.029   3.738
13941W        W85612  15.809  12.080   0.266
13942W        W85613   5.939  44.899   1.886
13943W        W85614  31.409  30.272  11.189
13944W        W85615  18.296  24.674  12.466
13945W        W85616  44.461   6.316  12.953
13946W        W85617  12.678  17.111   4.788
13947W        W85618   2.988   4.169  11.398
13948W        W85619  13.239   2.306   3.420
13949W        W85620  15.351   2.383  13.090
13950W        W85621  42.889   9.168  14.928
13951W        W85622  44.038  32.149  13.580
13952W        W85623   7.296   4.197   0.280
13953W        W85624  44.334  28.091  10.255
13954W        W85625  36.973  24.996   3.970
13955W        W85626  18.819  32.026   5.180
13956W        W85627  18.566  21.718  11.484
13957W        W85628  19.030  39.325  13.546
13958W        W85629  17.514  36.390  14.141
13959W        W85630  23.751  44.278  10.526
13960W        W85631  31.599  30.470  14.760
13961W        W85632  34.662  14.813   3.710
13962W        W85633  32.946  41.521   3.065
13963W        W85634  14.216  12.589  10.954
13964W        W85635  18.619  15.198   1.691
13965W        W85636  12.401   8.772   0.802
13966W        W85637  12.160  24.113   4.677
13967W        W85638  27.678  32.898  11.276
13968W        W85639  13.138   0.228  11.927
13969W        W85640  20.189  39.555  12.914
13970W        W85641  33.076  39.750  14.889
13971W        W85642   5.217  21.164  12.197
13972W        W85643  16.233  26.935   1.659
13973W        W85644   4.515   2.799  13.946
13974W        W85645   3.616  21.580  11.923
13975W        W85646  39.430   9.668  11.717
13976W        W85647  38.589  17.102   4.568
13977W        W85648  24.566  10.785  13.295
13978W        W85649   5.719  37.360  14.232
13979W        W85650  39.017  12.812   3.825
13980W        W85651  38.498  42.598  13.488
13981W        W85652  23.280  26.527   1.649
13982W        W85653  26.417  33.337  12.343
13983W        W85654  19.222  28.874  14.785
13984W        W85655  32.772   6.278   3.506
13985W        W85656  25.553   0.054  10.846
13986W        W85657  41.363   9.897  10.726
13987W        W85658  39.065  44.374   5.230
13988W        W85659   2.965  14.546   0.488
13989W        W85660  16.274   3.177  12.073
13990W        W85661  11.612  30.817  12.459
13991W        W85662  16.696  36.112  12.351
13992W        W85663  19.548  15.652   0.693
13993W        W85664   9.892  36.008   1.424
13994W        W85665   9.625   2.942  12.050
13995W        W85666   0.858  37.040   2.855
13996W        W85667  36.065  10.786  12.528
13997W        W85668  15.852   2.335  11.995
13998W        W85669  17.715  11.926   2.783
13999W        W85670   0.900   0.727   0.329
14000W        W85671  44.944  13.677   3.204
14001W        W85672  44.560  36.050  10.359
14002W        W85673   6.316  31.396   3.416
14003W        W85674   8.758  18.173  14.951
14004W        W85675  32.877  18.989   1.966
14005W        W85676   2.653  11.952  11.094
14006W        W85677  27.089   3.426  14.378
14007W        W85678  40.956  10.848   0.850
14008W        W85679  30.369  14.351  13.863
14009W        W85680   7.696  20.284  12.019
14010W        W85681  10.359  11.605  11.057
14011W        W85682  21.216  16.224  12.026
14012W        W85683   5.658  23.227   4.273
14013W        W85684  39.781  41.521   3.802
14014W        W85685  44.416  12.073   2.401
14015W        W85686  43.211  28.837  10.372
14016W        W85687  42.559  22.704   3.273
14017W        W85688  21.082  36.340   4.536
14018W        W85689  34.832  38.492  10.682
14019W        W85690   3.215  22.587   2.371
14020W        W85691  32.598  37.350   5.432
14021W        W85692  29.641  26.028   2.207
14022W        W85693  36.973  14.461  10.347
14023W        W85694  44.546   2.365  13.862
14024W        W85695   1.959   8.661   3.742
14025W        W85696   7.719  26.024   3.387
14026W        W85697  35.917  32.311  12.575
14027W        W85698   5.673  18.215  11.147
14028W        W85699  42.963  10.282   0.064
14029W        W85700  29.723  33.956  10.465
14030W        W85701  34.303  21.628   3.640
14031W        W85702  20.033  31.974   2.352
14032W        W85703  34.533   0.821   4.130
14033W        W85704   3.630  27.400   1.259
14034W        W85705   2.039  43.944  12.453
14035W        W85706  19.042  11.306  11.882
14036W        W85707  25.073  38.243   2.194
14037W        W85708  16.993  39.802  14.904
14038W        W85709  27.993  15.653   0.483
14039W        W85710  12.679  16.421  10.995
14040W        W85711  17.186   1.079   2.426
14041W        W85712  26.581  26.936   1.401
14042W        W85713  40.020   6.373   2.791
14043W        W85714  41.419   9.201   4.597
14044W        W85715  18.108  12.699   5.039
14045W        W85716   9.861  38.005   4.661
14046W        W85717  32.378  12.653  10.750
14047W        W85718  32.863  20.514   4.879
14048W        W85719   8.639  11.347  13.001
14049W        W85720  27.896  26.547  14.814
14050W        W85721  30.031  14.186  11.723
14051W        W85722  17.307  27.756  10.750
14052W        W85723  39.042   2.123  12.532
14053W        W85724  12.944  36.727   1.688
14054W        W85725  28.241  23.672  10.271
14055W        W85726  15.349  36.349  11.077
14056W        W85727  25.260  28.518  11.555
14057W        W85728   5.800  17.196   4.501
14058W        W85729  14.787  39.288   2.440
14059W        W85730   0.407  41.942  11.399
14060W        W85731  43.302   3.887  10.917
14061W        W85732  11.646  14.390   2.859
14062W        W85733   9.722  16.214   3.803
14063W        W85734  24.025  37.734   4.732
14064W        W85735  37.292  27.060   0.053
14065W        W85736  27.464  42.910  12.931
14066W        W85737  13.731   4.538   2.738
14067W        W85738   3.012   3.725  11.767
14068W        W85739  30.608  22.528   4.187
14069W        W85740  32.638   6.609  14.892
14070W        W85741  40.237   8.193   3.666
14071W        W85742  44.442  17.250   4.142
14072W        W85743  14.609  39.001   4.658
14073W        W85744   7.865  11.653  10.686
14074W        W85745  25.286  22.349   4.343
14075W        W85746   8.176   4.452  14.832
14076W        W85747  41.674  38.349   2.041
14077W        W85748  16.627   5.658   1.248
14078W        W85749  41.952   2.571  11.066
14079W        W85750  24.572  36.152  12.494
14080W        W85751   4.631  17.836   4.151
14081W        W85752   7.183  27.872  14.310
14082W        W85753  24.227   6.378   3.046
14083W        W85754  38.460  20.781   0.402
14084W        W85755  30.953  34.313  14.450
14085W        W85756  27.789   9.704   9.833
14086W        W85757  33.916  11.120   4.620
14087W        W85758  26.080  12.623   1.018
14088W        W85759  10.763  19.784  13.841
14089W        W85760  13.624  25.180  14.924
14090W        W85761   5.050  41.502  10.568
14091W        W85762  36.483   1.978  13.568
14092W        W85763   7.498  39.625  12.344
14093W        W85764  23.628  40.387  10.614
14094W        W85765   0.268   8.131  11.153
14095W        W85766  37.472  35.797  10.618
14096W        W85767   4.774   1.206  11.581
14097W        W85768  36.134  39.698   4.296
14098W        W85769  41.545   3.509  10.133
14099W        W85770  20.387  12.960   5.505
14100W        W85771  17.501  11.748   0.758
14101W        W85772  18.179  23.777  11.200
14102W        W85773  25.490  19.824   3.702
14103W        W85774  22.157   1.934   0.860
14104W        W85775  27.944  37.442  14.248
14105W        W85776   8.190  42.420  10.555
14106W        W85777  37.893  21.136   3.710
14107W        W85778  35.966   7.160   4.636
14108W        W85779  22.695  28.929   9.997
14109W        W85780  16.805  15.119   4.829
14110W        W85781  26.755  13.562   3.255
14111W        W85782  20.080  39.300   0.471
14112W        W85783  18.572  33.451   4.689
14113W        W85784  31.865  13.116  14.759
14114W        W85785  10.915  41.573   0.996
14115W        W85786  37.928  42.612   2.220
14116W        W85787  36.072  40.843   1.410
14117W        W85788  41.854  11.595  13.895
14118W        W85789  17.147  13.838  10.033
14119W        W85790  23.596  13.705  11.913
14120W        W85791  30.353  42.503  14.937
14121W        W85792  40.535  26.166  10.598
14122W        W85793  24.246  33.508   0.520
14123W        W85794  43.959   8.912   3.578
14124W        W85795  25.102   0.180  11.151
14125W        W85796  29.949  44.226  12.390
14126W        W85797  40.479   4.197  13.055
14127W        W85798  21.916  29.627   2.886
14128W        W85799  26.663  18.156  14.475
14129W        W85800  32.872   0.567  12.970
14130W        W85801  44.470  35.581  10.513
14131W        W85802  14.622   6.028  14.317
14132W        W85803  29.999  40.641   1.434
14133W        W85804  35.654  12.310  14.219
14134W        W85805  12.721   3.597   1.922
14135W        W85806  38.401  35.264  12.389
14136W        W85807  12.256  19.633   1.439
14137W        W85808   6.471  11.628  14.231
14138W        W85809   1.229  11.332   1.903
14139W        W85810  13.119   3.818  14.336
14140W        W85811   4.892  17.856   3.261
14141W        W85812  11.674  17.073   3.101
14142W        W85813  23.953  23.049  14.815
14143W        W85814   2.512   9.229  11.550
14144W        W85815  14.812   3.542   4.297
14145W        W85816  19.249  22.900  12.163
14146W        W85817  41.503  32.126  14.048
14147W        W85818  12.795  12.271  11.040
14148W        W85819   0.956  21.115   3.654
14149W        W85820  25.389  10.396  13.935
14150W        W85821  19.906  19.658   2.373
14151W        W85822  38.246  29.964   0.738
14152W        W85823  35.045  40.416   3.234
14153W        W85824  27.026  36.865  10.423
14154W        W85825  36.407  42.815  12.018
14155W        W85826  44.028  29.352   3.467
14156W        W85827  31.777  37.081  11.094
14157W        W85828  37.617  27.500  11.618
14158W        W85829  22.935   0.538  14.368
14159W        W85830   8.325   4.365  14.010
14160W        W85831  14.867   1.058   0.798
14161W        W85832  31.145   5.016  10.820
14162W        W85833  31.522  32.840  11.168
14163W        W85834  11.165  22.724  14.950
14164W        W85835  33.989  10.175   1.174
14165W        W85836  24.070  14.151  12.546
14166W        W85837  42.863   6.483   1.075
14167W        W85838  31.007  10.461   0.732
14168W        W85839  40.443  33.486  12.915
14169W        W85840   7.806  39.404   0.872
14170W        W85841  20.155   4.122   0.785
14171W        W85842  39.593   8.485  13.404
14172W        W85843  15.471   7.374  12.858
14173W        W85844  44.510  10.395   3.154
14174W        W85845  21.069  22.280  12.320
14175W        W85846  18.950  40.044  11.420
14176W        W85847  13.141  23.591  14.386
14177W        W85848  16.604  32.605   1.309
14178W        W85849  21.494  40.399  14.179
14179W        W85850  40.528   7.699  14.126
14180W        W85851  32.052  33.154  11.918
14181W        W85852  41.430  10.821  13.478
14182W        W85853  33.037  24.198  14.762
14183W        W85854  17.967  42.770  12.018
14184W        W85855  41.465  33.121   2.447
14185W        W85856  15.779  24.983   1.369
14186W        W85857  31.082  11.390  10.763
14187W        W85858  26.390  14.491  13.970
14188W        W85859  39.426  43.002   2.769
14189W        W85860   1.354  28.911  14.957
14190W        W85861  38.506  30.146   1.794
14191W        W85862  29.104  22.738  14.368
14192W        W85863  15.687  27.106   2.684
14193W        W85864   8.639  27.821   2.819
14194W        W85865   9.375   0.934   0.814
14195W        W85866  27.781  10.214  11.039
14196W        W85867   1.215  20.976   2.235
14197W        W85868  43.764  31.906  12.084
14198W        W85869  40.412  42.496   3.823
14199W        W85870  40.833  37.796   0.685
14200W        W85871  21.014  41.276  14.235
14201W        W85872  44.506  18.172   2.889
14202W        W85873  41.110   2.263  12.932
14203W        W85874  26.542  28.113   4.802
14204W        W85875  37.288  40.012   1.753
14205W        W85876  26.493  31.227  12.898
14206W        W85877  18.075  26.475  14.097
14207W        W85878  26.139  38.309  11.108
14208W        W85879  26.124  16.885   1.343
14209W        W85880  44.699   7.862   4.113
14210W        W85881  12.457  31.100  10.503
14211W        W85882  26.314  26.106  14.838
14212W        W85883  15.716  12.570  11.506
14213W        W85884  10.200   6.983  12.740
14214W        W85885   7.158  44.362  14.336
14215W        W85886  12.478  19.847  14.408
14216W        W85887  34.930  25.073   2.143
14217W        W85888   4.336   8.225  13.259
14218W        W85889  23.763  10.926  12.754
14219W        W85890  42.520   5.112   0.933
14220W        W85891   1.383  13.677   0.258
14221W        W85892   5.073  39.904   0.863
14222W        W85893  42.515  22.025   0.257
14223W        W85894  28.842  29.991   3.995
14224W        W85895  23.839  17.274  13.133
14225W        W85896  32.641  13.214   1.800
14226W        W85897  14.324  27.066  12.482
14227W        W85898  36.564  37.280  11.535
14228W        W85899  38.471   7.269  12.392
14229W        W85900   3.042  22.121   2.225
14230W        W85901  27.008  14.257   1.808
14231W        W85902  33.970  24.088  14.492
14232W        W85903   5.327  19.642  10.988
14233W        W85904  25.398  14.432  14.729
14234W        W85905  30.911   7.768   1.351
14235W        W85906  15.578  11.356  12.334
14236W        W85907  16.363  19.546  13.783
14237W        W85908  18.833  32.312   3.411
14238W        W85909  32.640   5.175  11.671
14239W        W85910  26.221  17.202   4.511
14240W        W85911  25.411   2.219   3.804
14241W        W85912  41.928   9.320   0.932
14242W        W85913  34.854  35.499  14.472
14243W        W85914   1.319  40.923   2.762
14244W        W85915  23.790  32.015  12.432
14245W        W85916  19.076  25.762  11.573
14246W        W85917  41.999  37.375  11.597
14247W        W85918  43.209  18.282   3.148
14248W        W85919   7.169  17.548  12.046
14249W        W85920  38.615  13.416  14.110
14250W        W85921  20.885  40.390   5.383
14251W        W85922  32.132  33.993  12.151
14252W        W85923  33.408  30.597   4.447
14253W        W85924   9.437  21.980  12.410
14254W        W85925  12.723  14.216   3.719
14255W        W85926  14.158  17.750   4.149
14256W        W85927  27.506  25.980   3.665
14257W        W85928  22.229  43.971   0.626
14258W        W85929  29.315  14.244  14.772
14259W        W85930  11.192  18.786  10.577
14260W        W85931   0.460   6.653   1.839
14261W        W85932  44.541  16.777  11.145
14262W        W85933  30.528  44.332   4.657
14263W        W85934   7.341  18.416   3.706
14264W        W85935  36.661  15.850   0.003
14265W        W85936  33.396   7.944   0.209
14266W        W85937  14.578  39.972   4.897
14267W        W85938  29.898   4.782  11.978
14268W        W85939   8.206  34.338  12.089
14269W        W85940  31.482  35.010  14.057
14270W        W85941  31.975   8.551  13.159
14271W        W85942   7.855  14.378   1.343
14272W        W85943  23.718  13.320   0.797
14273W        W85944  39.584  25.153  14.799
14274W        W85945  33.202  22.198   1.486
14275W        W85946   8.270  13.542   3.097
14276W        W85947  21.081  29.619   0.702
14277W        W85948  18.803   1.298   3.647
14278W        W85949   8.497  22.631   3.662
14279W        W85950   0.028   6.721   3.966
14280W        W85951   1.317  40.092   4.666
14281W        W85952  38.852  26.495  14.461
14282W        W85953  34.560  15.671   0.823
14283W        W85954  32.968   6.117   0.316
14284W        W85955   0.335  42.881  12.802
14285W        W85956  39.662  11.951  13.005
14286W        W85957   1.479  17.614  14.258
14287W        W85958  14.698  31.848  14.385
14288W        W85959  37.936   7.749  11.215
14289W        W85960  31.341  20.637  11.751
14290W        W85961  21.430  16.222  11.524
14291W        W85962  21.758  30.935  12.889
14292W        W85963  22.948  36.267  12.935
14293W        W85964   3.050  44.808  11.652
14294W        W85965  30.183   4.606  13.545
14295W        W85966   9.017   7.437  10.371
14296W        W85967  41.540  44.249  10.493
14297W        W85968   0.986  39.232  14.469
14298W        W85969  14.237  42.941   2.801
14299W        W85970  30.152  15.643   0.304
14300W        W85971  34.328   0.419  14.807
14301W        W85972   5.382  38.057   1.892
14302W        W85973  23.766  36.156   0.279
14303W        W85974  30.317  23.934   0.724
14304W        W85975  38.201  34.355   3.777
14305W        W85976  32.034   8.127  12.854
14306W        W85977  39.468  21.867   2.002
14307W        W85978  35.805  26.281  11.681
14308W        W85979  30.877  38.519   4.590
14309W        W85980  21.322  14.288  11.090
14310W        W85981  25.653  44.216  13.049
14311W        W85982  23.191   1.513  14.314
14312W        W85983  42.337  22.083   3.521
14313W        W85984  42.904  28.846   1.419
14314W        W85985  11.787  39.838   2.665
14315W        W85986  21.602  13.121   1.584
14316W        W85987  14.176   9.411   0.205
14317W        W85988   7.824  19.935   1.841
14318W        W85989  35.368  25.855   1.926
14319W        W85990  12.935  38.484   2.301
14320W        W85991   1.436   7.487  13.896
14321W        W85992  24.542  12.831  11.451
14322W        W85993  12.209  32.448  13.296
14323W        W85994  21.793   3.483   1.843
14324W        W85995  12.680   5.032   3.556
14325W        W85996  12.194   7.762  12.992
14326W        W85997   3.433   4.885   3.769
14327W        W85998  40.382  21.253   1.077
14328W        W85999  16.999  41.370   5.008
14329W        W86000  19.544   2.848   1.762
14330W        W86001  14.278  18.235   0.482
14331W        W86002  24.811   0.881   0.499
14332W        W86003   1.449  33.878   0.208
14333W        W86004  14.150  18.121   1.510
14334W        W86005  20.145  38.508  12.821
14335W        W86006  42.265  10.358  14.331
14336W        W86007  42.485  23.494   5.011
14337W        W86008  35.271  22.129  14.462
14338W        W86009  13.264  42.548  10.742
14339W        W86010  27.334  32.714   0.770
14340W        W86011  12.356  27.566   4.949
14341W        W86012  34.018  29.098   2.214
14342W        W86013   3.132  31.426  14.754
14343W        W86014  24.688   3.980   3.623
14344W        W86015  15.626  28.561   2.497
14345W        W86016  14.279  13.729   2.856
14346W        W86017  22.948  16.622   4.645
14347W        W86018  21.154  10.705  10.636
14348W        W86019  11.425   5.779  12.517
14349W        W86020  17.025  33.066  14.862
14350W        W86021  15.763  20.954  13.813
14351W        W86022  17.069  21.165   0.977
14352W        W86023   1.504   6.730   0.905
14353W        W86024  35.560   5.905   0.674
14354W        W86025  23.693   9.887  10.777
14355W        W86026  14.750  36.647   4.692
14356W        W86027  13.585  41.818  10.415
14357W        W86028  24.097  15.018  10.726
14358W        W86029  15.141   5.411   4.665
14359W        W86030  12.842  24.970  13.427
14360W        W86031  12.844  27.030  12.512
14361W        W86032  39.869  29.224  10.681
14362W        W86033  37.477  16.566   0.476
14363W        W86034  25.080  25.390   0.444
14364W        W86035  28.782  39.755   0.759
14365W        W86036  12.286  24.596  14.134
14366W        W86037  20.854  13.721  10.637
14367W        W86038   3.451  16.961  14.170
14368W        W86039  20.554  27.080  11.453
14369W        W86040  12.308  40.319  14.397
14370W        W86041  27.934  12.135   0.004
14371W        W86042  12.138  34.555   1.386
14372W        W86043  14.605   7.580   5.376
14373W        W86044   2.245  11.585   1.288
14374W        W86045  19.652  17.702   0.028
14375W        W86046   8.352  19.267   1.243
14376W        W86047  26.642  20.052  14.807
14377W        W86048  43.787  15.081   1.789
14378W        W86049  17.346   9.456  12.451
14379W        W86050  39.989   5.021   0.359
14380W        W86051  36.077  43.213  12.508
14381W        W86052  23.996  16.013  12.406
14382W        W86053  13.873   7.235  12.100
14383W        W86054  34.991  25.599   4.024
14384W        W86055  23.220  35.594  13.395
14385W        W86056   2.235  38.526  10.978
14386W        W86057  11.325  35.864   0.377
14387W        W86058   7.199   8.459   3.169
14388W        W86059  29.066   0.564  11.179
14389W        W86060  24.728   9.784  13.358
14390W        W86061  17.242  39.027   1.948
14391W        W86062  23.077  26.783  11.657
14392W        W86063  39.414  20.701  13.646
14393W        W86064   7.739  40.469   1.777
14394W        W86065  15.838  18.322   2.053
14395W        W86066  36.363  38.117  14.477
14396W        W86067  28.003  40.390   3.407
14397W        W86068  16.661   5.268  13.611
14398W        W86069  21.000  39.363  12.574
14399W        W86070  19.943  16.116  13.496
14400W        W86071  30.938  19.280  14.588
14401W        W86072  38.756  27.599   4.316
14402W        W86073  12.547  33.988  10.712
14403W        W86074  32.861  14.172  11.646
14404W        W86075   9.670  21.745  13.914
14405W        W86076  17.461   0.752  11.347
14406W        W86077   3.321   5.612  13.218
14407W        W86078   9.776   0.529   0.062
14408W        W86079  23.014  13.801   2.838
14409W        W86080   8.291  40.876  11.701
14410W        W86081  21.798   9.119  14.249
14411W        W86082  14.856   8.871  13.825
14412W        W86083  43.532  36.679   1.431
14413W        W86084  37.054  13.217  12.379
14414W        W86085   5.880   2.531   1.835
14415W        W86086   4.789  35.845   0.307
14416W        W86087  43.326   1.658  11.842
14417W        W86088  36.022  32.587   1.939
14418W        W86089   1.705  20.570  10.330
14419W        W86090  37.479   7.031   1.966
14420W        W86091  32.893  36.028   3.587
14421W        W86092  28.975  19.598   1.278
14422W        W86093  25.393  36.464  11.998
14423W        W86094  40.872  19.219  10.745
14424W        W86095  36.071  21.226  14.545
14425W        W86096  36.492  42.286   4.400
14426W        W86097   5.164   1.888  13.133
14427W        W86098  15.134  20.071  11.145
14428W        W86099  29.221  16.777  13.038
14429W        W86100   2.699  23.139   4.629
14430W        W86101  17.489  37.109  11.928
14431W        W86102  21.793  36.870   1.490
14432W        W86103  24.973  30.408  12.471
14433W        W86104  42.860  15.534   1.970
14434W        W86105  44.776   0.451   3.670
14435W        W86106  44.241  40.551   0.760
14436W        W86107  23.848  20.711  12.155
14437W        W86108  43.515  30.600   5.042
14438W        W86109   9.384  31.920   1.750
14439W        W86110  40.117  15.645   1.929
14440W        W86111  11.149  21.377   1.354
14441W        W86112  30.963  23.331   0.610
14442W        W86113   6.868   7.586   2.799
14443W        W86114  36.973  33.052  13.366
14444W        W86115   1.834  40.138   1.250
14445W        W86116   8.171  26.906  12.033
14446W        W86117  41.955  18.793  14.027
14447W        W86118  14.556  13.795   4.730
14448W        W86119   0.415  40.887   1.997
14449W        W86120   7.492   5.738   3.628
14450W        W86121   7.038   1.603  14.728
14451W        W86122  33.119  27.616   0.923
14452W        W86123  18.180  17.779  10.455
14453W        W86124  14.762   3.401   0.363
14454W        W86125   7.978  18.236  13.460
14455W        W86126   6.333   1.980  13.584
14456W        W86127   3.395  15.001  12.574
14457W        W86128  32.478  31.189  13.797
14458W        W86129  15.726  35.884  14.762
14459W        W86130  20.080  41.061   4.691
14460W        W86131  23.253  22.076   0.811
14461W        W86132  20.865  29.834  10.662
14462W        W86133  42.946  31.546   1.790
14463W        W86134  18.222  44.014  12.503
14464W        W86135  10.086  13.656   1.664
14465W        W86136   5.422  32.841   2.872
14466W        W86137   3.521  41.579   4.289
14467W        W86138  43.689  16.271  14.720
14468W        W86139   8.701  42.800   3.190
14469W        W86140  27.198   7.777  12.479
14470W        W86141  13.258   4.537   1.443
14471W        W86142  26.738  21.485   1.340
14472W        W86143  26.081   7.829   2.594
14473W        W86144  34.603   1.693  13.389
14474W        W86145  33.415  12.702   3.854
14475W        W86146   3.245  41.933   4.009
14476W        W86147  34.495  13.590   3.041
14477W        W86148  39.801  39.429  14.724
14478W        W86149  26.192  39.424  13.900
14479W        W86150   1.945  31.950  11.768
14480W        W86151   5.134   6.694  12.223
14481W        W86152  44.845  23.430   4.320
14482W        W86153  15.606   1.743   2.324
14483W        W86154  35.395   6.332   4.546
14484W        W86155  44.355   8.146   2.959
14485W        W86156  36.553   5.226  12.363
14486W        W86157   6.794   3.897   4.104
14487W        W86158   7.918  34.208  10.769
14488W        W86159  36.096  31.410   2.627
14489W        W86160  21.989  44.763   0.344
14490W        W86161  22.084  35.651  12.884
14491W        W86162  38.016  21.082   0.367
14492W        W86163  18.294  18.585  11.540
14493W        W86164  15.815   1.111   2.695
14494W        W86165  15.038  31.676  11.129
14495W        W86166  12.937  29.389   4.628
14496W        W86167  25.870  39.150  12.095
14497W        W86168  30.150  25.265   5.024
14498W        W86169  24.508  11.942  12.499
14499W        W86170  27.310   6.785   5.388
14500W        W86171  19.578  25.329   1.651
14501W        W86172   6.891  21.061   4.206
14502W        W86173  23.108  24.760   4.332
14503W        W86174  30.075  30.917  13.407
14504W        W86175  25.578  12.577   1.167
14505W        W86176  17.986   5.653   9.602
14506W        W86177  13.042  41.807  12.954
14507W        W86178  24.986  43.785   4.271
14508W        W86179  33.049  38.041   4.333
14509W        W86180  41.368  36.619   3.516
14510W        W86181   1.525  19.544  13.560
14511W        W86182  27.995  12.630  12.145
14512W        W86183   1.024  25.172   4.583
14513W        W86184  35.615   4.924  13.794
14514W        W86185  28.489  36.836  11.644
14515W        W86186  23.915  18.083  10.173
14516W        W86187  11.834  10.161  14.474
14517W        W86188   3.704  42.381   2.695
14518W        W86189  21.496   6.151   1.948
14519W        W86190  20.773  38.791   4.574
14520W        W86191  43.017  11.891  13.266
14521W        W86192  33.037  33.419  10.502
14522W        W86193   5.930  20.790  11.939
14523W        W86194  36.122  37.307   9.835
14524W        W86195  22.622  32.096   4.566
14525W        W86196  38.380   8.892   3.354
14526W        W86197  27.173  11.139  14.813
14527W        W86198  41.337   3.847  14.025
14528W        W86199  15.622  34.663   2.253
14529W        W86200  14.034   4.238  13.027
14530W        W86201   6.642  22.435   1.968
14531W        W86202  26.860  29.059   3.854
14532W        W86203  40.502  42.480   4.699
14533W        W86204   4.379  44.457  11.382
14534W        W86205  22.133  40.268  13.527
14535W        W86206  14.272   9.295  14.251
14536W        W86207  42.927   2.682   1.467
14537W        W86208   9.421  26.732   3.864
14538W        W86209  43.028  18.734   2.735
14539W        W86210  42.825   1.375  11.173
14540W        W86211  44.792  29.812  11.033
14541W        W86212   4.322  23.108  14.085
14542W        W86213  39.438  11.621  11.242
14543W        W86214   8.601   9.817  14.489
14544W        W86215  19.239  10.584   0.540
14545W        W86216  13.833  10.957  11.646
14546W        W86217  41.013  23.454   3.498
14547W        W86218   1.770  27.691   0.269
14548W        W86219  32.901  28.426   4.018
14549W        W86220  41.060   1.496   1.794
14550W        W86221  33.493  16.769   4.233
14551W        W86222   9.236  29.169  10.614
14552W        W86223  27.046  33.092   1.560
14553W        W86224  11.128   1.735   3.311
14554W        W86225  36.915   7.725   1.137
14555W        W86226  21.128  18.241   4.751
14556W        W86227  13.971   7.223   3.844
14557W        W86228  23.183  20.448  11.676
14558W        W86229  44.554   3.264  12.525
14559W        W86230  27.327  17.084  13.884
14560W        W86231  12.413  18.816   0.939
14561W        W86232  19.762  18.253   2.248
14562W        W86233   3.502  38.513   0.957
14563W        W86234  28.136  40.109   1.531
14564W        W86235  28.006  29.921   3.169
14565W        W86236  28.619  27.952   3.152
14566W        W86237  27.521   8.668  13.982
14567W        W86238  25.122   0.815   3.159
14568W        W86239  27.219  12.347   0.507
14569W        W86240  27.134   0.981   1.778
14570W        W86241   0.207  12.246   1.837
14571W        W86242  32.983  28.733  14.031
14572W        W86243   5.813  34.546   0.769
14573W        W86244  17.913  16.781   3.445
14574W        W86245  28.939  10.288  13.002
14575W        W86246  44.416  44.479   2.871
14576W        W86247  12.898  43.444   2.156
14577W        W86248  30.464   0.914   0.636
14578W        W86249  16.450  42.949   4.893
14579W        W86250   9.295  27.115   0.343
14580W        W86251  17.089   7.972   5.061
14581W        W86252  28.875  40.105  10.578
14582W        W86253   7.253  36.329   1.321
14583W        W86254  36.101  39.161   1.733
14584W        W86255   2.935  22.612   0.030
14585W        W86256  37.555  36.016  13.831
14586W        W86257  13.100  32.140   0.404
14587W        W86258  14.585  13.777  11.239
14588W        W86259  42.757  35.172   2.399
14589W        W86260   8.471  22.215   2.038
14590W        W86261  10.693  11.953   1.753
14591W        W86262  43.271  16.890  14.242
14592W        W86263   3.404  30.615   3.346
14593W        W86264  12.657  31.437  13.822
14594W        W86265  22.474  30.084  12.541
14595W        W86266  30.448  11.744  11.672
14596W        W86267  12.639  10.652  13.573
14597W        W86268  27.595  44.182  11.997
14598W        W86269  21.766  20.719   2.635
14599W        W86270  43.663   1.308  13.955
14600W        W86271  12.359   2.840   1.427
14601W        W86272  39.791  27.066   0.988
14602W        W86273  44.213  12.052  12.573
14603W        W86274  35.159  34.437   2.557
14604W        W86275  13.187  43.938   4.503
14605W        W86276   6.967  22.771   0.814
14606W        W86277   5.815  42.762   3.389
14607W        W86278  14.700  22.577   2.702
14608W        W86279  11.785  30.737  13.855
14609W        W86280  28.680  44.571  10.762
14610W        W86281   8.730  32.024   3.226
14611W        W86282  12.195  32.379  12.770
14612W        W86283  10.888  32.497   1.863
14613W        W86284  10.789  12.401   1.980
14614W        W86285  24.538  22.267  11.854
14615W        W86286   8.739  10.691  11.654
14616W        W86287  38.963  24.466   0.861
14617W        W86288  35.471  20.009   1.786
14618W        W86289  41.838  44.879  14.658
14619W        W86290  40.838  19.477   3.175
14620W        W86291  16.586  29.101  11.069
14621W        W86292  21.715  28.567   4.671
14622W        W86293  19.995   7.710   4.209
14623W        W86294   3.350  20.281  13.860
14624W        W86295  42.409  31.603   3.724
14625W        W86296  37.245  23.229   3.616
14626W        W86297  19.265   0.293  11.885
14627W        W86298  37.423  14.695   1.514
14628W        W86299  16.594   9.173  13.398
14629W        W86300  24.268   0.444   4.020
14630W        W86301  36.036   3.626   2.788
14631W        W86302  36.630  19.569  10.738
14632W        W86303   5.835  26.984   1.004
14633W        W86304  25.228  22.304  11.599
14634W        W86305  15.619   3.757  14.486
14635W        W86306   1.568  11.224  10.702
14636W        W86307  30.863  11.228   1.310
14637W        W86308  30.639  19.630   3.827
14638W        W86309  33.524  28.418  12.351
14639W        W86310  11.298  23.267   3.295
14640W        W86311   1.889  39.290   3.366
14641W        W86312  28.460  37.411  14.060
14642W        W86313   6.625  20.069   4.563
14643W        W86314  18.203   8.452   1.225
14644W        W86315  17.352  44.235  11.946
14645W        W86316  31.467   8.851  11.492
14646W        W86317  28.381  19.212  14.772
14647W        W86318   8.619  14.687  13.154
14648W        W86319   6.096  15.679  11.537
14649W        W86320  42.567  25.574  12.941
14650W        W86321  27.552   0.259  11.218
14651W        W86322   3.861  18.565  12.776
14652W        W86323  19.562   9.462  11.483
14653W        W86324  26.692  40.335  11.441
14654W        W86325  15.542  43.987   2.636
14655W        W86326   0.430  25.600   1.138
14656W        W86327  39.768  36.564  14.019
14657W        W86328  28.226  38.913   4.981
14658W        W86329  22.039  17.628   0.456
14659W        W86330  10.410   2.993  13.073
14660W        W86331  40.398  33.073  12.101
14661W        W86332  23.578  15.114   1.824
14662W        W86333  20.241  11.348  14.420
14663W        W86334  20.737   2.875  14.744
14664W        W86335  29.838   8.199   0.539
14665W        W86336  26.737  20.733  12.536
14666W        W86337   0.981  26.658   1.008
14667W        W86338  43.267  24.105  10.559
14668W        W86339  16.119  39.874  12.826
14669W        W86340  36.388   5.439  14.770
14670W        W86341   0.538  10.852   1.842
14671W        W86342   9.053  43.923  14.422
14672W        W86343   8.312   8.997  13.078
14673W        W86344  44.866  20.832   3.205
14674W        W86345  21.704  11.277  10.879
14675W        W86346  39.295  41.314  14.972
14676W        W86347   6.710  28.891   3.385
14677W        W86348  16.771  41.961   0.157
14678W        W86349   5.787  11.175  11.959
14679W        W86350   5.321  27.022   1.177
14680W        W86351  27.937  29.701  10.878
14681W        W86352  30.578  22.279  13.461
14682W        W86353  15.353   7.311  11.054
14683W        W86354  23.551  16.536   3.851
14684W        W86355   2.356  39.459  12.542
14685W        W86356  36.472  40.742  14.775
14686W        W86357   3.927  16.550   0.789
14687W        W86358  22.349   7.714  10.747
14688W        W86359  15.634  33.578   3.589
14689W        W86360  18.982   6.593   3.247
14690W        W86361  19.303  27.949   0.583
14691W        W86362  44.878  10.834   2.456
14692W        W86363  18.226  25.228  11.594
14693W        W86364   7.848  41.835  10.593
14694W        W86365  41.995  27.518   1.835
14695W        W86366  37.426  26.098   0.050
14696W        W86367  21.160  22.232   4.972
14697W        W86368   4.213  38.530   4.045
14698W        W86369  13.807  25.463   3.284
14699W        W86370  36.522  14.130   2.854
14700W        W86371  26.559  27.482  14.930
14701W        W86372  28.422  34.002  13.270
14702W        W86373  37.535  26.624  14.306
14703W        W86374   7.584  37.607   1.950
14704W        W86375  26.215   2.333  11.565
14705W        W86376  15.056  41.933   0.926
14706W        W86377  23.483  44.159   4.080
14707W        W86378   4.733  25.129   1.450
14708W        W86379   5.910  12.693  10.405
14709W        W86380  44.839   9.344  12.451
14710W        W86381  25.598  10.187   3.179
14711W        W86382  17.167  12.398  12.038
14712W        W86383  15.768  32.146  11.059
14713W        W86384  27.773  11.349   1.878
14714W        W86385  35.259  42.613  12.644
14715W        W86386  11.825  23.779  13.511
14716W        W86387   0.220  27.331   2.962
14717W        W86388  23.088  38.411  12.850
14718W        W86389  20.687  14.136   1.807
14719W        W86390  24.089  30.616   1.623
14720W        W86391  19.222  36.486   1.383
14721W        W86392  26.105  19.957  14.395
14722W        W86393  41.432  25.362   4.565
14723W        W86394  36.077  42.581   5.127
14724W        W86395   9.357  24.064   1.764
14725W        W86396  10.743  43.747  13.872
14726W        W86397   2.298  14.607   4.161
14727W        W86398  37.760  27.025  14.871
14728W        W86399  11.413  21.734  13.128
14729W        W86400  20.218   6.484   3.619
14730W        W86401  33.358  23.763   4.974
14731W        W86402  39.435  12.803  13.830
14732W        W86403   9.814   4.954  11.197
14733W        W86404  21.814  15.320   2.238
14734W        W86405  30.447  13.129  14.368
14735W        W86406  38.858  30.277  12.796
14736W        W86407  40.522  23.124   1.225
14737W        W86408  12.902  25.724   0.388
14738W        W86409  34.990  42.562   1.563
14739W        W86410  19.151  29.629   3.778
14740W        W86411  40.245  11.387  14.406
14741W        W86412  16.258   7.193   5.205
14742W        W86413  43.346   1.554  11.286
14743W        W86414  34.040  19.528  12.571
14744W        W86415  18.812  30.096  13.325
14745W        W86416  12.182  23.494  10.667
14746W        W86417  36.688   6.395  10.773
14747W        W86418  23.325  13.652  10.727
14748W        W86419  22.103  36.949   1.072
14749W        W86420  27.186  41.782   4.204
14750W        W86421  44.083  43.761   0.904
14751W        W86422   4.758   8.834  11.660
14752W        W86423  16.634  30.648   1.165
14753W        W86424   8.888  32.186   4.111
14754W        W86425  31.587  40.856  13.769
14755W        W86426   7.190  37.117  11.910
14756W        W86427   0.231   8.469   3.693
14757W        W86428  34.496   8.446  11.754
14758W        W86429  41.051  17.649   1.333
14759W        W86430   6.896   6.608   3.728
14760W        W86431   0.701   2.648   1.936
14761W        W86432   6.322  19.597  12.941
14762W        W86433  23.587  26.676  12.566
14763W        W86434  21.416  27.645  12.541
14764W        W86435  39.500  18.056   0.383
14765W        W86436  13.604  38.298   4.703
14766W        W86437  27.833   8.628  10.598
14767W        W86438  10.911   9.363   2.679
14768W        W86439  33.405  21.966   3.667
14769W        W86440  26.163  40.398  12.905
14770W        W86441  38.343  34.513   3.173
14771W        W86442  27.688  17.805   4.051
14772W        W86443  16.734  24.580  10.668
14773W        W86444  44.721   1.252   1.635
14774W        W86445  15.732   2.885   2.917
14775W        W86446  21.140   0.907  13.256
14776W        W86447   8.904   1.557  12.080
14777W        W86448  29.165  16.763  12.126
14778W        W86449  12.304  37.646  10.708
14779W        W86450  42.689  42.296   2.520
14780W        W86451  39.092  39.486  11.754
14781W        W86452   3.872  35.371  13.403
14782W        W86453  37.148  12.837   4.554
14783W        W86454  39.040   1.464  11.569
14784W        W86455  14.696  17.083  14.807
14785W        W86456   2.063  10.321  13.049
14786W        W86457  13.775  25.678  13.480
14787W        W86458  18.569  43.931   1.773
14788W        W86459  11.863  28.363  14.056
14789W        W86460   2.517   3.037  14.808
14790W        W86461   6.930  26.166  14.838
14791W        W86462  30.799  29.107   4.449
14792W        W86463  26.589  12.392  13.292
14793W        W86464   6.788  34.434   2.842
14794W        W86465   9.623  10.338   0.308
14795W        W86466  18.880  14.047   4.927
14796W        W86467  29.116  10.944  11.030
14797W        W86468  38.996  43.349  14.048
14798W        W86469   0.777  21.267  11.566
14799W        W86470  32.442  31.088   2.154
14800W        W86471  10.083  44.732   0.907
14801W        W86472  39.812  36.432   3.687
14802W        W86473  38.903  11.144   3.456
14803W        W86474  25.881  43.238   3.412
14804W        W86475   5.168  18.608   2.558
14805W        W86476  12.697   1.700   0.546
14806W        W86477  28.729  41.503  10.799
14807W        W86478   0.254  21.254  11.529
14808W        W86479   0.725  24.765  11.960
14809W        W86480  21.818   4.743  11.083
14810W        W86481   8.658  14.332  11.150
14811W        W86482   5.272  24.905   3.614
14812W        W86483  40.094  26.044  14.784
14813W        W86484  18.253  13.566   2.982
14814W        W86485   1.406  36.974   0.936
14815W        W86486  15.340  30.603  14.565
14816W        W86487  22.541   9.326   0.210
14817W        W86488  41.409  13.417   2.268
14818W        W86489  29.408  19.104   2.134
14819W        W86490  41.177  15.081  14.354
14820W        W86491   8.952   3.528   4.629
14821W        W86492  35.444  33.586   0.172
14822W        W86493  31.640  28.100   1.640
14823W        W86494  30.456  20.677  14.850
14824W        W86495  13.818  44.238   1.750
14825W        W86496  25.713  29.161  12.019
14826W        W86497  20.051   5.617  11.182
14827W        W86498  42.269   0.916   4.404
14828W        W86499  29.901   7.140   3.262
14829W        W86500  32.935   3.741  10.614
14830W        W86501   7.702   3.968  10.675
14831W        W86502   6.561  37.166   4.147
14832W        W86503  13.621  27.910   0.877
14833W        W86504   1.131  22.109  13.486
14834W        W86505  29.969  38.566  14.049
14835W        W86506  22.812  30.172   0.540
14836W        W86507   5.682  20.678  11.489
14837W        W86508   5.246  28.662   0.036
14838W        W86509  29.854   0.498   2.811
14839W        W86510  22.094  27.197   0.978
14840W        W86511  31.585  26.674  10.584
14841W        W86512  23.086  26.986   1.480
14842W        W86513   8.393   5.959  13.925
14843W        W86514  29.124  43.728   2.877
14844W        W86515  43.061  39.367  10.918
14845W        W86516  18.357   5.086   0.956
14846W        W86517  33.120  17.245   0.191
14847W        W86518  40.700  34.569  11.999
14848W        W86519   4.293  12.762   0.725
14849W        W86520   5.826  12.644  12.432
14850W        W86521  17.026  37.094   2.518
14851W        W86522  28.578   1.312  11.103
14852W        W86523  30.111   6.200  11.623
14853W        W86524  27.769   0.062   4.221
14854W        W86525  40.412  14.808  10.724
14855W        W86526  12.530  20.423   3.760
14856W        W86527  33.692  19.629  12.975
14857W        W86528  10.139  16.796  12.429
14858W        W86529  39.121  33.986  10.690
14859W        W86530  27.015  24.183   2.150
14860W        W86531  32.822  23.558   3.556
14861W        W86532  25.192  12.830   1.435
14862W        W86533   3.885  22.491  11.636
14863W        W86534  28.233   2.991   2.915
14864W        W86535   2.478  30.090  13.448
14865W        W86536  28.578   1.809   1.670
14866W        W86537  42.214  40.768   3.615
14867W        W86538  41.518  25.010   0.490
14868W        W86539  17.702   4.678  13.408
14869W        W86540  36.450  12.379  10.784
14870W        W86541  12.428   1.329   3.960
14871W        W86542  11.776  31.446   2.879
14872W        W86543  17.161  13.131   2.673
14873W        W86544  38.911  35.849  10.541
14874W        W86545  32.927  12.415  12.962
14875W        W86546  20.251  33.057   2.693
14876W        W86547  27.148  22.259  14.018
14877W        W86548  29.550  12.344  10.513
14878W        W86549   4.157  12.972  13.989
14879W        W86550  25.441  41.431   0.325
14880W        W86551  40.181  32.290  12.347
14881W        W86552  20.587   0.802  14.812
14882W        W86553  34.245  31.474  12.375
14883W        W86554  44.863  38.562  13.677
14884W        W86555  16.914   0.052  11.136
14885W        W86556  27.413  27.822   2.321
14886W        W86557  21.611  39.058   1.705
14887W        W86558  36.797  17.435  14.228
14888W        W86559  13.393  39.876  10.767
14889W        W86560   5.714  31.338   4.211
14890W        W86561  17.595  42.950   0.851
14891W        W86562  34.193   3.725   3.394
14892W        W86563   7.630  34.146  11.185
14893W        W86564  33.099  24.536  13.539
14894W        W86565  27.864  11.912  10.653
14895W        W86566  28.951   2.817   0.974
14896W        W86567  12.938  40.044  13.997
14897W        W86568  26.547  12.872  12.024
14898W        W86569  32.063   8.248   2.123
14899W        W86570   3.814  44.963   0.922
14900W        W86571  37.914  13.094   3.943
14901W        W86572  40.255  28.436  12.353
14902W        W86573   8.247  29.086  11.694
14903W        W86574  27.488  13.677  10.735
14904W        W86575  22.791   1.847   3.593
14905W        W86576  22.005  17.487  11.266
14906W        W86577  32.615  34.850   1.228
14907W        W86578  26.881  32.472   0.715
14908W        W86579   2.080  17.194   1.821
14909W        W86580  41.926  31.079  11.201
14910W        W86581  20.154  27.492  14.485
14911W        W86582   8.343   9.346   2.480
14912W        W86583  15.137  38.367  11.214
14913W        W86584  14.070  12.024  14.315
14914W        W86585  44.551  41.102   3.171
14915W        W86586   4.727  16.307   1.241
14916W        W86587  31.282  16.240  14.446
14917W        W86588  35.979   7.115  11.338
14918W        W86589  20.475  44.719  12.999
14919W        W86590  12.074  41.952   2.953
14920W        W86591  24.169  32.613   0.430
14921W        W86592  28.514  11.623  13.845
14922W        W86593  15.496  19.962  10.769
14923W        W86594  18.010  41.546   4.269
14924W        W86595  19.727  16.058   2.412
14925W        W86596  33.770  34.265   3.323
14926W        W86597  23.167  43.478  13.566
14927W        W86598  17.298  42.341  10.496
14928W        W86599  21.709   3.388  14.893
14929W        W86600  38.847  32.396   3.308
14930W        W86601  28.960  22.611   1.396
14931W        W86602  14.136  13.403  12.593
14932W        W86603   0.745  17.623  13.050
14933W        W86604  28.450  28.056   4.888
14934W        W86605  12.579   8.219   4.311
14935W        W86606  25.697   9.348  11.570
14936W        W86607  16.132  12.010   4.158
14937W        W86608  17.742   8.944  14.960
14938W        W86609  18.322  36.962  11.683
14939W        W86610  26.347  15.179  12.111
14940W        W86611  20.232  30.920   0.328
14941W        W86612  25.255  38.602   0.879
14942W        W86613  29.705   0.036  11.617
14943W        W86614   2.789  21.186   4.060
14944W        W86615  36.304  39.331  13.283
14945W        W86616  17.949   4.402  12.432
14946W        W86617   9.550  43.711   4.102
14947W        W86618  44.801  37.632  13.831
14948W        W86619  39.607  35.446   1.833
14949W        W86620  25.518  40.089   4.610
14950W        W86621  36.630   0.467   0.253
14951W        W86622  29.498   3.436  14.013
14952W        W86623  15.180  27.998  12.332
14953W        W86624   8.373  21.152  14.806
14954W        W86625  19.040  38.579  10.472
14955W        W86626  16.179  21.510  14.753
14956W        W86627   1.450   4.118   4.493
14957W        W86628  17.451  37.978  14.922
14958W        W86629   3.352   4.913   4.636
14959W        W86630  15.134   7.085  10.654
14960W        W86631  18.572  14.345   4.607
14961W        W86632  21.987  22.851  11.038
14962W        W86633  37.096  16.438   1.289
14963W        W86634  32.788  31.973  11.298
14964W        W86635   4.044  19.149   2.582
14965W        W86636   1.858  30.079  12.810
14966W        W86637  24.987  35.032  13.570
14967W        W86638  11.815  37.844   4.495
14968W        W86639   6.813  43.518  14.686
14969W        W86640  33.323   8.170  14.745
14970W        W86641  17.766  44.408   4.090
14971W        W86642  21.966   7.709   2.320
14972W        W86643  15.870  17.771  12.083
14973W        W86644  15.206  21.692   3.086
14974W        W86645   2.407  31.279  12.865
14975W        W86646  14.585  40.412  14.916
14976W        W86647  16.278  37.531   1.746
14977W        W86648   0.389  28.675  11.122
14978W        W86649  31.423   3.876  11.544
14979W        W86650  27.341  20.501   2.173
14980W        W86651  23.519  33.002  11.140
14981W        W86652  42.765  28.425   4.858
14982W        W86653   9.317  36.473  12.450
14983W        W86654  25.082  44.511   2.835
14984W        W86655  25.638  14.602  13.401
14985W        W86656  28.885  13.656  10.767
14986W        W86657  17.965  43.339   1.406
14987W        W86658  42.515  33.609   0.325
14988W        W86659   3.504   7.386  13.052
14989W        W86660  44.315   1.535  14.234
14990W        W86661  14.342  41.927   1.428
14991W        W86662  43.867   7.936  14.154
14992W        W86663  20.475  44.403   1.771
14993W        W86664  35.569  14.540  13.430
14994W        W86665  34.997  22.350   1.894
14995W        W86666  34.352  29.908   0.949
14996W        W86667   2.491  12.559   2.138
14997W        W86668  24.595  26.521   2.686
14998W        W86669   9.017  24.030   5.116
14999W        W86670  35.630  28.073  13.532
15000W        W86671   1.675  12.976   0.971
15001W        W86672  18.182  32.395  11.562
15002W        W86673  14.618  15.565  12.581
15003W        W86674   9.817  14.698  12.181
15004W        W86675  11.788  39.825  12.429
15005W        W86676  43.411   9.822  10.948
15006W        W86677  42.540   5.190   3.958
15007W        W86678  40.847   2.885  13.272
15008W        W86679   5.118  19.923   4.560
15009W        W86680   7.194   4.642   1.172
15010W        W86681  40.400  33.871   0.742
15011W        W86682  26.461  22.513   1.219
15012W        W86683   5.386  34.611   2.763
15013W        W86684  28.220  32.758  11.165
15014W        W86685   2.776   3.183  13.861
15015W        W86686  17.538  44.931   3.723
15016W        W86687  28.448  29.964   2.827
15017W        W86688  28.618  33.048  14.292
15018W        W86689   9.073  36.533  12.903
15019W        W86690  35.494  14.060  11.207
15020W        W86691  38.707  28.437  12.578
15021W        W86692  39.044  38.010  14.750
15022W        W86693   2.297  10.373   3.842
15023W        W86694  40.318  20.255  11.010
15024W        W86695  38.557   5.443   3.069
15025W        W86696  43.577  34.475   4.175
15026W        W86697  24.986  19.301  14.821
15027W        W86698  41.872  12.596   4.975
15028W        W86699  31.863  28.220   1.163
15029W        W86700  26.450  35.488  12.966
15030W        W86701  38.480   1.894   2.532
15031W        W86702  16.513  40.638  10.466
15032W        W86703  41.336  29.494  12.573
15033W        W86704  32.449  24.996   5.229
15034W        W86705  14.593  10.652   2.884
15035W        W86706  43.715  19.421  12.781
15036W        W86707   0.798  18.593   3.065
15037W        W86708   8.576  21.543   3.702
15038W        W86709  29.490  10.150   2.335
15039W        W86710  30.884  28.657  11.569
15040W        W86711  11.765  37.480  12.056
15041W        W86712  15.848  10.710   0.307
15042W        W86713  22.669   6.092   3.858
15043W        W86714  34.179  29.068   4.470
15044W        W86715  17.371  40.892  12.974
15045W        W86716   8.762   4.734  10.924
15046W        W86717   7.400  17.673  10.765
15047W        W86718  20.131   7.055  12.510
15048W        W86719  37.050   4.664   4.069
15049W        W86720   7.420  41.118   2.306
15050W        W86721  41.468  38.111  10.919
15051W        W86722  16.347   1.861  13.078
15052W        W86723  34.927  43.548  10.491
15053W        W86724  40.919  28.167  11.455
15054W        W86725  10.888  38.986   4.246
15055W        W86726   7.214  20.819  14.927
15056W        W86727  29.898  25.974  12.939
15057W        W86728   6.711  21.568   0.019
15058W        W86729  29.149  13.002   0.210
15059W        W86730  37.392  39.911   3.670
15060W        W86731  34.035  35.023   4.063
15061W        W86732  28.654  44.866   1.385
15062W        W86733  11.875  23.654   2.704
15063W        W86734  34.955  24.019   0.634
15064W        W86735  31.319   3.779  14.629
15065W        W86736  19.254  16.301  12.048
15066W        W86737  14.371  30.793  11.110
15067W        W86738  34.672  27.568   0.621
15068W        W86739  11.328  35.512  14.981
15069W        W86740   5.724   7.438  13.457
15070W        W86741  28.503   6.967   3.694
15071W        W86742   5.896  17.529  11.533
15072W        W86743  23.698  31.590   4.170
15073W        W86744  28.622  29.845   4.690
15074W        W86745  36.037   2.346   4.153
15075W        W86746  20.215  24.784  11.047
15076W        W86747  41.416   7.872  13.406
15077W        W86748   5.958  12.100   2.829
15078W        W86749  42.616  15.689  11.037
15079W        W86750  23.448  31.121  14.916
15080W        W86751  30.268  24.405   1.181
15081W        W86752  13.370  27.924  10.738
15082W        W86753   1.645  44.395  13.117
15083W        W86754  19.523  10.491   2.337
15084W        W86755   7.680  13.256  13.772
15085W        W86756  17.777  35.389  11.210
15086W        W86757  13.066   2.680  12.908
15087W        W86758   3.426   1.346  11.763
15088W        W86759  10.529  10.334  12.934
15089W        W86760   3.751  17.169  11.392
15090W        W86761  37.063  11.263   3.181
15091W        W86762  12.913  24.990   3.132
15092W        W86763  28.356   3.305   2.204
15093W        W86764  40.676  16.394  11.137
15094W        W86765  30.666  18.644   4.650
15095W        W86766  32.008  20.262   3.304
15096W        W86767  13.264   1.790   0.718
15097W        W86768  16.067   6.497   5.161
15098W        W86769   2.432  23.257   2.178
15099W        W86770  10.690  12.753   3.638
15100W        W86771   4.491  16.502   2.435
15101W        W86772  44.334  38.563  12.419
15102W        W86773  42.658  16.563   4.498
15103W        W86774   9.474  13.589  14.819
15104W        W86775  29.903  28.048  11.460
15105W        W86776  33.982  29.987   1.930
15106W        W86777   9.006  38.025   4.891
15107W        W86778  27.665  24.688   2.642
15108W        W86779   9.676  38.553   0.403
15109W        W86780  10.150  22.402   3.263
15110W        W86781   3.408  17.741  12.003
15111W        W86782  15.163  15.549  12.300
15112W        W86783  22.986  32.414   0.734
15113W        W86784  33.630  44.598   4.975
15114W        W86785  34.867  30.557   0.444
15115W        W86786  44.284  37.487   0.080
15116W        W86787   9.543   4.125   4.113
15117W        W86788  18.277  34.090   3.258
15118W        W86789  17.622  33.126  14.535
15119W        W86790  14.244   8.262   0.867
15120W        W86791  20.201  28.430  12.065
15121W        W86792  24.659   1.078  12.406
15122W        W86793  16.035  19.192   2.929
15123W        W86794  20.932   5.728  14.610
15124W        W86795  39.925   3.499  12.613
15125W        W86796  15.208  13.609  13.437
15126W        W86797  34.824  36.995  13.030
15127W        W86798  22.464  14.237  12.677
15128W        W86799  15.871  17.261  11.552
15129W        W86800  32.224  37.600   0.398
15130W        W86801   2.325  15.445  10.963
15131W        W86802   4.330  26.554  10.596
15132W        W86803   3.319   9.901   1.364
15133W        W86804  21.776  34.655   3.769
15134W        W86805  28.373   5.229   4.093
15135W        W86806  17.945  35.387   2.436
15136W        W86807  14.676  27.629   3.849
15137W        W86808  27.464  12.148  14.026
15138W        W86809  22.916  23.045   1.762
15139W        W86810   6.480  40.843  13.041
15140W        W86811  37.062  36.082  14.049
15141W        W86812  39.342   9.299   0.513
15142W        W86813   2.513  14.738  13.818
15143W        W86814  21.408  23.554  14.438
15144W        W86815  25.263  12.318   0.820
15145W        W86816  39.631   5.685  12.609
15146W        W86817  19.735  14.389   5.468
15147W        W86818  39.580  28.130  11.076
15148W        W86819  25.423  30.220   3.188
15149W        W86820  19.897  11.645  10.399
15150W        W86821  11.328   2.756   1.244
15151W        W86822  37.928  18.259   3.586
15152W        W86823  20.584  35.036  14.762
15153W        W86824  16.402  28.880  13.434
15154W        W86825  43.349  30.866  14.796
15155W        W86826  44.310  40.800   0.304
15156W        W86827   4.369  33.616  12.837
15157W        W86828   6.122   5.745   2.215
15158W        W86829   4.117  20.701  14.862
15159W        W86830   4.479   7.974  12.441
15160W        W86831  42.838   8.681   3.399
15161W        W86832  36.440  25.003  11.111
15162W        W86833  43.361   0.345  13.813
15163W        W86834  23.723  39.986  13.790
15164W        W86835   5.141   3.214  11.701
15165W        W86836  35.270  16.726   0.763
15166W        W86837   2.447   1.880  11.099
15167W        W86838  35.671  36.888  11.967
15168W        W86839  28.442  44.324   0.339
15169W        W86840  42.351  30.951   2.167
15170W        W86841   8.422  20.807  12.460
15171W        W86842  32.568  25.473  12.032
15172W        W86843   6.781  13.367  13.844
15173W        W86844   6.748  21.227   0.981
15174W        W86845  27.397  44.322  11.258
15175W        W86846  39.594  33.540  11.995
15176W        W86847  42.703  24.857   2.976
15177W        W86848  10.731  16.782   2.345
15178W        W86849   1.823  16.861  14.710
15179W        W86850  33.492   1.527   4.682
15180W        W86851  33.609   1.213  13.967
15181W        W86852   7.274  37.424  12.321
15182W        W86853  22.741  21.812  11.677
15183W        W86854   4.953  30.125  14.817
15184W        W86855  38.719   6.828   0.364
15185W        W86856  42.367   7.461   0.293
15186W        W86857   7.872  40.202   1.309
15187W        W86858   6.266  36.499  14.912
15188W        W86859  34.140   5.903   2.809
15189W        W86860  29.154  44.769  11.661
15190W        W86861   4.232  27.262   3.498
15191W        W86862  33.669  11.628  12.451
15192W        W86863  42.122  19.128  11.971
15193W        W86864   0.673  24.696  14.277
15194W        W86865   7.930  18.618   0.179
15195W        W86866  43.858  42.430  13.380
15196W        W86867  24.727  30.409   5.067
15197W        W86868  36.379  23.593   4.560
15198W        W86869  19.253  22.910   4.470
15199W        W86870  31.410  14.162  13.782
15200W        W86871  10.376  33.457   0.914
15201W        W86872  20.467  15.543  11.178
15202W        W86873  25.869   2.212   4.620
15203W        W86874  39.401  14.728  10.482
15204W        W86875  21.058   5.675  10.290
15205W        W86876   0.973  15.275   0.266
15206W        W86877  11.259  35.758  14.474
15207W        W86878  24.600  36.469   4.575
15208W        W86879  10.817   0.146  10.363
15209W        W86880  20.600   0.795   3.683
15210W        W86881   7.477   7.460  11.914
15211W        W86882  35.951  12.756   1.490
15212W        W86883   4.007   7.832   0.808
15213W        W86884  15.247  27.377   2.959
15214W        W86885  15.392   4.302  11.159
15215W        W86886  32.760  33.127  14.222
15216W        W86887  11.132  22.808  11.627
15217W        W86888  33.477  37.837   0.546
15218W        W86889  24.777   0.850   5.097
15219W        W86890  32.064   7.562   3.660
15220W        W86891   1.853  10.720   0.753
15221W        W86892   9.043  18.765  11.942
15222W        W86893   4.244  43.327  14.846
15223W        W86894   1.011   6.788   4.560
15224W        W86895  15.771  37.526   1.584
15225W        W86896   6.470   8.419   0.997
15226W        W86897   6.395  27.256  11.589
15227W        W86898  11.229   1.834   1.729
15228W        W86899  19.627  22.318   0.725
15229W        W86900  37.763   7.068   4.939
15230W        W86901  16.650   1.947   3.326
15231W        W86902  18.950   4.241   1.684
15232W        W86903  39.539  19.766  11.571
15233W        W86904   2.553  22.100   2.389
15234W        W86905   0.456  20.203   1.422
15235W        W86906  43.839  12.957   3.635
15236W        W86907  33.046   4.452   0.874
15237W        W86908  41.302  23.276   0.784
15238W        W86909   5.145   9.808  12.942
15239W        W86910   9.174  16.268   4.688
15240W        W86911  24.201  13.401  13.897
15241W        W86912  39.858  29.844  13.792
15242W        W86913   6.168  16.585  13.486
15243W        W86914  20.738  19.738   4.412
15244W        W86915  13.700   2.595   0.561
15245W        W86916  22.462  43.751   1.650
15246W        W86917  10.697   8.351  12.986
15247W        W86918   8.712   9.964  14.976
15248W        W86919  15.091  42.766   3.425
15249W        W86920  15.360  32.927  13.927
15250W        W86921  36.486  28.210  11.188
15251W        W86922  41.779  23.134   5.026
15252W        W86923  32.865  20.085   0.905
15253W        W86924  25.492  12.381  12.450
15254W        W86925  23.820   8.870   0.840
15255W        W86926  37.459   3.657   1.663
15256W        W86927  12.160   5.285  14.550
15257W        W86928  38.009  25.340   3.852
15258W        W86929  39.912   6.838   2.557
15259W        W86930  25.501  22.509   0.370
15260W        W86931  10.874  37.406  12.320
15261W        W86932  37.047  42.408   3.628
15262W        W86933  13.244   1.991   4.309
15263W        W86934  41.795  21.229   3.388
15264W        W86935  20.736  24.872   4.562
15265W        W86936  21.133   1.923   3.904
15266W        W86937   1.797  26.513   3.098
15267W        W86938  21.161  33.157   3.415
15268W        W86939  21.155  34.607   2.920
15269W        W86940  41.907  19.329   0.342
15270W        W86941  29.722  41.412  14.804
15271W        W86942  17.333   5.764  13.194
15272W        W86943   4.227  23.315  10.717
15273W        W86944   2.229  24.997  13.460
15274W        W86945  32.610  22.997  10.430
15275W        W86946  17.511  20.662   1.906
15276W        W86947  29.389  34.640  11.607
15277W        W86948  24.545  38.594   4.233
15278W        W86949  24.000  20.850   4.107
15279W        W86950  29.459  20.363   3.523
15280W        W86951  20.634   7.176   2.271
15281W        W86952  21.493   8.613   3.393
15282W        W86953   7.339   9.695  10.597
15283W        W86954  25.578  32.622  12.398
15284W        W86955  30.992  42.347   2.947
15285W        W86956  15.279  21.148  13.906
15286W        W86957  17.721  13.080  14.723
15287W        W86958  43.155  10.344   1.761
15288W        W86959  21.592  21.713   1.659
15289W        W86960  25.141   6.973  12.955
15290W        W86961  25.897   4.938   3.571
15291W        W86962  38.818  27.247  13.098
15292W        W86963   1.077   7.050   5.092
15293W        W86964   2.770   7.401  12.496
15294W        W86965   3.687  12.402   3.688
15295W        W86966  12.402   8.247  14.882
15296W        W86967   3.965  30.371   1.415
15297W        W86968   8.846  34.423  12.577
15298W        W86969  21.779  42.333   2.762
15299W        W86970   9.314   8.313  11.149
15300W        W86971  19.125  32.125  11.706
15301W        W86972  24.821  11.996   0.897
15302W        W86973   3.340  27.013   4.663
15303W        W86974  22.604  30.058   1.851
15304W        W86975  37.406  36.403  12.467
15305W        W86976  40.583  10.806   4.602
15306W        W86977  10.616  44.230   1.295
15307W        W86978   5.746  18.722  10.997
15308W        W86979  15.435  26.450   5.064
15309W        W86980  36.831   3.698   4.236
15310W        W86981  34.212  10.804  14.332
15311W        W86982  43.512  29.191  12.936
15312W        W86983  18.231  26.241   2.749
15313W        W86984  11.367  27.043   2.705
15314W        W86985  17.251  34.708   3.632
15315W        W86986  43.585  35.083  14.850
15316W        W86987  39.761  40.495  14.189
15317W        W86988   1.289  22.536   1.162
15318W        W86989  28.835  33.583   3.477
15319W        W86990  14.598  21.182  12.661
15320W        W86991  13.276  21.929   4.868
15321W        W86992   5.913  41.471   1.670
15322W        W86993  20.634   4.278  12.163
15323W        W86994  42.236  19.631  10.741
15324W        W86995  41.971  35.963  11.642
15325W        W86996  37.447  16.072  12.156
15326W        W86997  27.385  21.098  14.571
15327W        W86998  28.726   5.074  14.784
15328W        W86999  18.308  42.943   1.322
15329W        W87000  36.745   1.239   1.864
15330W        W87001  29.071  31.634   2.686
15331W        W87002  39.756  42.822  11.745
15332W        W87003   4.378  38.104   1.880
15333W        W87004  17.168  29.749   4.493
15334W        W87005  34.602  30.432  14.581
15335W        W87006  11.367  34.929   0.343
15336W        W87007  35.977  38.864   3.671
15337W        W87008  27.195  20.270   1.464
15338W        W87009  36.377   3.472   3.730
15339W        W87010  40.380  43.020   2.968
15340W        W87011  26.069  25.068   0.651
15341W        W87012   3.487  17.622  12.511
15342W        W87013  44.494  17.076  12.743
15343W        W87014   2.998  33.564   2.137
15344W        W87015  31.310   6.902  12.520
15345W        W87016   7.259  17.311   4.595
15346W        W87017   7.404  39.304   2.292
15347W        W87018  43.363  35.677   1.386
15348W        W87019  32.836  21.719  12.936
15349W        W87020  10.700   6.320  10.751
15350W        W87021  23.198  27.808   3.974
15351W        W87022   0.648  21.272   5.163
15352W        W87023  17.304  32.151   0.954
15353W        W87024  19.692   9.809   4.825
15354W        W87025  28.896   7.347   4.260
15355W        W87026  34.936  40.716   1.484
15356W        W87027  42.439   8.474   1.641
15357W        W87028  17.109  20.014   1.824
15358W        W87029  15.830  14.063   1.236
15359W        W87030  22.505  33.572   1.247
15360W        W87031   2.825  18.565  11.535
15361W        W87032  23.707   3.561   3.719
15362W        W87033  28.203  36.454  14.433
15363W        W87034  24.274  39.372  14.369
15364W        W87035  17.120   7.758  11.363
15365W        W87036   5.677  29.100   1.022
15366W        W87037  12.018  24.953  13.804
15367W        W87038  42.844   2.158   2.317
15368W        W87039  13.664  40.573   1.920
15369W        W87040  14.681  42.411  12.499
15370W        W87041  10.713  24.608  14.988
15371W        W87042  27.481   4.373   1.817
15372W        W87043   2.308  44.579   5.228
15373W        W87044  33.352   5.250  13.483
15374W        W87045  25.165  44.685   2.341
15375W        W87046  23.021  19.567  14.390
15376W        W87047   6.179  23.773  14.704
15377W        W87048  18.891  12.469   2.367
15378W        W87049   7.362  43.762   1.868
15379W        W87050   9.818   8.236  12.592
15380W        W87051  41.193   6.118   1.307
15381W        W87052  36.680  16.788  14.953
15382W        W87053   1.234  43.160   1.434
15383W        W87054  11.358  33.542   3.600
15384W        W87055   3.822  11.144   3.322
15385W        W87056   9.765  13.128  11.713
15386W        W87057  29.952  36.364   4.570
15387W        W87058  14.674  39.363  13.042
15388W        W87059  37.866  39.400  12.204
15389W        W87060  44.929  23.563  10.395
15390W        W87061  29.517  25.741  10.599
15391W        W87062   1.749   2.364   4.027
15392W        W87063  12.522  43.026   4.209
15393W        W87064  22.256  34.513   1.135
15394W        W87065  16.208  14.031   3.111
15395W        W87066  14.039  41.917   0.913
15396W        W87067  28.933   8.126   2.398
15397W        W87068  12.192  31.452   3.232
15398W        W87069   8.822  36.532  13.802
15399W        W87070  28.190   9.903   4.237
15400W        W87071  12.098  14.803   3.451
15401W        W87072  40.010  43.779   0.532
15402W        W87073  15.581  28.339   3.822
15403W        W87074  19.049   1.344  10.625
15404W        W87075  33.200  17.714  13.141
15405W        W87076  42.414  31.124   4.087
15406W        W87077  35.600  24.272   4.539
15407W        W87078  31.439   0.964  10.573
15408W        W87079  42.696  18.937   1.733
15409W        W87080  32.264  32.043  11.378
15410W        W87081  43.257  13.149  13.838
15411W        W87082  22.002  12.771  13.517
15412W        W87083  31.604  25.000  12.180
15413W        W87084  37.639  23.778   3.173
15414W        W87085   4.327  34.407   2.021
15415W        W87086  13.317  35.278  13.410
15416W        W87087  32.340  24.473  12.136
15417W        W87088  29.960  42.844   0.846
15418W        W87089  39.260  36.505  12.660
15419W        W87090  36.601   6.917  10.796
15420W        W87091  21.031  40.565  13.779
15421W        W87092  33.263  43.512  11.185
15422W        W87093  33.834  37.284   2.789
15423W        W87094  44.881   3.375   1.734
15424W        W87095   0.423  31.480   4.535
15425W        W87096  11.411   7.784   0.811
15426W        W87097  30.069   8.212  14.550
15427W        W87098  34.659   2.438  12.190
15428W        W87099  29.006  10.663  12.603
15429W        W87100   0.586   5.123  12.151
15430W        W87101  38.112  29.994   0.233
15431W        W87102  10.348  11.880   3.182
15432W        W87103  15.469  27.711   9.972
15433W        W87104  27.975   1.531   1.185
15434W        W87105   1.719  14.835  13.544
15435W        W87106  28.637   9.685  12.010
15436W        W87107  21.293  13.814  12.379
15437W        W87108  18.801  12.543   4.071
15438W        W87109   7.634  16.284  14.328
15439W        W87110   5.180  30.090   3.947
15440W        W87111   6.164   6.393   3.739
15441W        W87112   4.096   9.309   2.295
15442W        W87113  39.634  28.557   4.521
15443W        W87114  14.350  29.653   0.399
15444W        W87115  27.412  18.997   2.816
15445W        W87116   6.487  23.732  12.987
15446W        W87117  39.131   9.450  14.429
15447W        W87118  26.857  15.878   3.274
15448W        W87119  26.533  14.065   3.201
15449W        W87120  10.797  12.624   2.838
15450W        W87121  23.437  38.222   9.786
15451W        W87122  17.990  22.030  14.989
15452W        W87123  15.721   5.285  11.045
15453W        W87124  43.053   9.672   4.641
15454W        W87125  17.283  34.636   2.199
15455W        W87126  42.839  40.226  11.161
15456W        W87127  25.097  26.124  12.713
15457W        W87128  33.155  35.670   2.739
15458W        W87129   4.743  14.530  11.176
15459W        W87130   9.248  16.216   0.723
15460W        W87131  32.519  18.055  13.885
15461W        W87132  34.044  31.858   4.633
15462W        W87133  22.023  10.493  13.111
15463W        W87134  26.332  37.698  11.907
15464W        W87135  13.755  22.227   2.681
15465W        W87136  37.557  18.579  12.492
15466W        W87137  25.261  42.738   0.242
15467W        W87138  15.796  27.044  11.584
15468W        W87139  25.676  13.812  10.453
15469W        W87140  39.472  39.876  11.188
15470W        W87141   9.336   0.901   0.278
15471W        W87142  27.194  18.316  11.191
15472W        W87143  37.458  10.924   2.197
15473W        W87144  11.363  12.875   4.100
15474W        W87145  15.829  37.638  13.907
15475W        W87146  37.850  14.032  14.062
15476W        W87147  44.389  39.159  10.168
15477W        W87148   1.925  24.099   0.112
15478W        W87149  24.653   7.517  10.717
15479W        W87150  27.865   9.470   3.166
15480W        W87151  21.056  23.602  11.544
15481W        W87152  27.924  31.393  14.390
15482W        W87153   8.475  34.891   2.077
15483W        W87154  13.997   0.266  13.461
15484W        W87155   6.231  40.837   2.534
15485W        W87156  26.623  42.025  13.445
15486W        W87157  42.357  25.006  13.013
15487W        W87158   5.059  10.975   2.266
15488W        W87159  13.643  40.481  14.017
15489W        W87160  22.498  26.491  10.628
15490W        W87161  13.545   4.751  12.380
15491W        W87162  14.997  27.886  11.801
15492W        W87163   6.696   5.686   0.897
15493W        W87164  29.906  33.725   2.231
15494W        W87165  28.615   6.448   1.320
15495W        W87166   9.126  30.984   3.748
15496W        W87167   8.635  24.528  12.959
15497W        W87168  32.336  41.543   4.813
15498W        W87169  19.187  33.336  11.282
15499W        W87170  10.681  32.200   1.487
15500W        W87171  20.554  27.557  11.934
15501W        W87172   7.898   8.100  13.253
15502W        W87173  20.716  35.835  11.561
15503W        W87174   4.823  35.580   3.222
15504W        W87175  14.894  44.171   4.106
15505W        W87176  39.099  33.483   1.312
15506W        W87177  34.051  38.152  10.123
15507W        W87178  34.169   5.008  13.537
15508W        W87179  29.823  18.278   3.300
15509W        W87180  41.591  14.895  14.612
15510W        W87181  17.302  39.293   0.307
15511W        W87182  26.449  38.081  13.525
15512W        W87183  22.162  10.211  13.957
15513W        W87184  23.218  21.452  11.091
15514W        W87185  11.846   7.385   0.083
15515W        W87186  37.899   7.642  12.813
15516W        W87187  18.991  24.148   2.726
15517W        W87188   3.395  39.425  10.618
15518W        W87189  40.736  39.480   9.664
15519W        W87190  20.834  43.064  13.361
15520W        W87191  43.802  12.346   4.209
15521W        W87192  33.767  31.692   0.718
15522W        W87193  41.038   6.199  13.008
15523W        W87194  38.788  13.204   2.399
15524W        W87195  38.376  29.548  12.579
15525W        W87196   4.459  19.252  14.473
15526W        W87197   0.939  41.040   0.150
15527W        W87198  24.243   9.390   4.257
15528W        W87199  43.298  25.843   0.271
15529W        W87200   0.517  20.766   5.013
15530W        W87201  16.777  43.226  10.766
15531W        W87202  39.472  41.399  13.056
15532W        W87203  37.594  15.856  14.342
15533W        W87204  41.866  14.703   3.586
15534W        W87205  33.356  22.643  12.914
15535W        W87206   9.873  38.462   3.614
15536W        W87207   4.798  26.530   4.076
15537W        W87208  41.810  27.987  13.360
15538W        W87209  17.472  32.579   2.610
15539W        W87210  15.211   3.401  13.581
15540W        W87211   4.877  20.554  10.547
15541W        W87212  26.588  39.813  14.794
15542W        W87213  17.843   5.796   0.399
15543W        W87214  18.601  24.889  11.464
15544W        W87215  33.845  44.889   3.976
15545W        W87216   5.797   1.804  10.808
15546W        W87217   5.218  35.865   4.603
15547W        W87218  27.029  36.931   0.972
15548W        W87219  29.498  40.118   4.608
15549W        W87220  36.014   8.335  14.970
15550W        W87221  37.813  29.993   1.019
15551W        W87222   0.444  23.536  10.466
15552W        W87223  26.516  12.213  13.860
15553W        W87224   8.285  44.598  12.432
15554W        W87225  42.424  14.781  13.712
15555W        W87226  40.253  39.528  10.895
15556W        W87227  43.781  20.492   4.187
15557W        W87228  20.243  41.302   4.253
15558W        W87229  16.503  20.737   1.267
15559W        W87230  35.909  10.755   0.270
15560W        W87231  12.796  34.549  12.497
15561W        W87232  27.504   7.547  14.172
15562W        W87233  34.928   3.824   0.825
15563W        W87234  38.954  27.636   2.852
15564W        W87235  30.885  41.309   0.626
15565W        W87236   9.647  42.387  13.572
15566W        W87237  31.401  40.747  14.727
15567W        W87238  11.725   8.914   1.299
15568W        W87239  28.681  25.704   3.226
15569W        W87240  26.683  13.297   4.651
15570W        W87241   8.695  12.394   4.322
15571W        W87242  42.868  10.890  13.490
15572W        W87243  41.504   7.232  13.730
15573W        W87244  26.909  44.415  12.544
15574W        W87245  25.479  24.980  11.697
15575W        W87246  14.339  10.689  13.909
15576W        W87247  29.730  43.031  13.789
15577W        W87248  16.792  12.646  10.293
15578W        W87249  37.915  17.699  13.631
15579W        W87250   0.842  44.445  10.730
15580W        W87251   9.665  29.917   3.668
15581W        W87252  14.196  15.304  12.689
15582W        W87253  24.641  13.311  10.527
15583W        W87254   3.189   7.114  14.407
15584W        W87255   1.249  43.421   2.386
15585W        W87256  38.407  21.230  11.431
15586W        W87257  20.714  38.769   3.248
15587W        W87258  42.570   0.746  14.980
15588W        W87259   0.767  13.306  14.430
15589W        W87260  40.510  12.796  12.353
15590W        W87261   1.359  14.269  12.469
15591W        W87262   3.419  25.509  14.031
15592W        W87263  19.509  34.509  11.597
15593W        W87264  42.410  24.847   2.531
15594W        W87265  15.766  41.549  12.850
15595W        W87266  14.852  43.635   4.746
15596W        W87267  33.597   9.310  13.920
15597W        W87268  24.015  33.923   1.476
15598W        W87269  29.150  27.784  12.981
15599W        W87270  11.490  18.612  10.141
15600W        W87271   1.237  18.511   1.471
15601W        W87272  20.555   3.688   4.117
15602W        W87273  12.127  12.343  14.774
15603W        W87274   8.216  24.731  14.874
15604W        W87275  44.676  38.394   1.850
15605W        W87276  41.546  33.302   4.170
15606W        W87277   9.211  24.787  14.852
15607W        W87278  43.874  38.606   9.767
15608W        W87279  44.483  20.091  11.075
15609W        W87280  20.147   4.377   4.885
15610W        W87281  43.498  40.989  11.417
15611W        W87282  39.933   2.871   2.670
15612W        W87283   4.861  39.507   3.235
15613W        W87284  27.219  17.294   0.083
15614W        W87285  13.239  24.237  13.580
15615W        W87286  35.751  15.056  12.962
15616W        W87287  24.318  32.007   1.717
15617W        W87288  27.620  17.591   0.858
15618W        W87289  35.818  15.433   1.603
15619W        W87290  25.683   1.910   4.215
15620W        W87291  30.950   8.964  10.268
15621W        W87292  31.016  12.681  13.431
15622W        W87293   0.198  44.826   2.600
15623W        W87294  32.433  34.681  10.562
15624W        W87295  42.970   4.127   2.811
15625W        W87296   5.400  43.510  12.867
15626W        W87297  15.550  18.702  13.528
15627W        W87298   1.665   3.505   1.538
15628W        W87299  42.300  34.034   1.357
15629W        W87300  32.318   6.405  12.821
15630W        W87301  43.079  29.501   0.705
15631W        W87302  22.149   5.173  14.818
15632W        W87303   4.553  39.818   0.849
15633W        W87304  35.131  10.265  14.954
15634W        W87305  21.105  32.874   2.033
15635W        W87306  20.092  24.411  12.926
15636W        W87307  22.276  13.723  13.246
15637W        W87308   8.597   0.877  14.823
15638W        W87309  29.593  38.902  13.296
15639W        W87310  30.642  20.724   3.215
15640W        W87311  44.471  19.817  11.903
15641W        W87312  19.808   8.399  13.391
15642W        W87313   9.651   4.389   0.333
15643W        W87314  41.460  34.369  13.398
15644W        W87315   4.476  43.016  10.670
15645W        W87316   7.350  12.582   3.711
15646W        W87317  30.250  13.284   2.410
15647W        W87318  24.935  14.169  14.689
15648W        W87319  32.621  41.000   2.789
15649W        W87320  28.975  35.334   4.613
15650W        W87321  18.555  40.537  13.718
15651W        W87322   2.142  34.671  14.811
15652W        W87323  27.137  44.435   0.686
15653W        W87324   0.546  33.543   1.337
15654W        W87325   3.162   5.846   1.256
15655W        W87326  28.188  25.477   3.280
15656W        W87327  20.669  29.890   2.339
15657W        W87328  38.916  34.531   0.036
15658W        W87329  36.109  43.754   0.003
15659W        W87330  32.135  12.549   1.075
15660W        W87331  24.154  14.237   4.023
15661W        W87332  39.548  20.190  10.834
15662W        W87333  25.501   5.558  12.892
15663W        W87334   9.858  18.868  11.818
15664W        W87335  18.126   2.830  13.803
15665W        W87336  32.004  37.297   0.032
15666W        W87337  40.072  14.641   2.374
15667W        W87338  33.501  31.721   4.068
15668W        W87339  14.344  36.052  12.982
15669W        W87340  16.652  26.168   0.714
15670W        W87341  26.002  26.972  10.642
15671W        W87342  22.643   2.520  12.931
15672W        W87343  36.925  10.364   4.122
15673W        W87344  29.017   6.492  12.402
15674W        W87345   2.800   8.353  12.989
15675W        W87346  40.581   8.484  14.474
15676W        W87347   9.462  30.539  13.033
15677W        W87348  41.395  24.126   4.773
15678W        W87349  27.543   5.418   2.697
15679W        W87350  32.854  38.522   3.208
15680W        W87351  39.917  16.079   2.220
15681W        W87352   1.669  18.377   1.735
15682W        W87353  27.248  39.983  12.600
15683W        W87354  24.963   5.565  10.677
15684W        W87355  39.713  30.375   3.272
15685W        W87356  33.426  40.819   2.364
15686W        W87357  39.999   9.679   0.100
15687W        W87358  29.408   4.377   4.535
15688W        W87359  19.799  18.613  14.037
15689W        W87360  20.622  26.629   9.782
15690W        W87361  12.798  27.109   1.249
15691W        W87362  33.866  41.798  11.444
15692W        W87363   8.870  40.029   4.076
15693W        W87364  13.116   1.054   2.689
15694W        W87365  37.945   6.363   1.316
15695W        W87366  39.841   8.796  13.088
15696W        W87367  11.667  23.482  14.528
15697W        W87368   1.237  14.692  11.240
15698W        W87369  12.846  40.857  12.816
15699W        W87370  11.436   8.187   9.886
15700W        W87371  23.002  10.883  11.997
15701W        W87372  11.203  16.817  11.569
15702W        W87373  14.371  34.374  13.420
15703W        W87374   4.309   2.169   0.929
15704W        W87375  24.033  36.065   3.230
15705W        W87376  43.097  35.909   4.139
15706W        W87377  42.812  29.976   1.843
15707W        W87378  21.718  30.655  12.436
15708W        W87379   7.952  41.940  13.917
15709W        W87380   1.845  20.760   1.205
15710W        W87381  38.511   6.896   3.990
15711W        W87382  11.783  27.728   4.134
15712W        W87383   1.273   4.186   1.107
15713W        W87384  43.373   4.237   0.925
15714W        W87385  26.604  18.490   0.311
15715W        W87386  42.854  44.501  11.534
15716W        W87387  18.549  39.835   4.200
15717W        W87388  43.380  11.823   4.773
15718W        W87389  12.661   8.673   2.769
15719W        W87390   2.822  39.005  12.886
15720W        W87391  44.382  44.506   1.993
15721W        W87392  21.798  29.122  14.320
15722W        W87393  27.537  40.877  12.179
15723W        W87394  19.576  24.592   2.380
15724W        W87395  34.512  39.621   2.139
15725W        W87396  27.559   7.648   0.831
15726W        W87397  26.646   9.196   3.690
15727W        W87398  10.745  23.536  14.021
15728W        W87399  29.585  21.807   0.524
15729W        W87400   1.057  14.536  13.984
15730W        W87401  27.113  15.831  10.227
15731W        W87402  38.261   0.451   2.349
15732W        W87403  32.668  13.792  11.237
15733W        W87404  34.872  32.905   2.783
15734W        W87405  31.000  35.753   2.324
15735W        W87406  30.031  10.237   3.651
15736W        W87407  40.796   1.984  10.400
15737W        W87408  16.681  11.836   0.325
15738W        W87409  38.038   9.209   0.789
15739W        W87410  15.086  31.157  12.084
15740W        W87411  24.549  42.486  10.649
15741W        W87412  28.612  40.510  13.565
15742W        W87413   2.306  25.974  11.676
15743W        W87414  24.973  33.438   3.028
15744W        W87415  28.518  35.137   3.349
15745W        W87416  11.803  37.061   2.830
15746W        W87417  43.873  36.552  12.454
15747W        W87418   9.515  10.691  13.263
15748W        W87419  26.225  24.794  14.407
15749W        W87420  38.757   7.397  11.958
15750W        W87421  36.095   2.229  11.558
15751W        W87422  38.977   9.542   2.206
15752W        W87423  30.264  21.224  14.009
15753W        W87424  38.400  32.374   5.010
15754W        W87425   8.166  24.442  11.530
15755W        W87426   3.853  37.502  13.949
15756W        W87427  11.167  28.507   1.353
15757W        W87428  15.404  35.053  10.962
15758W        W87429  43.775  38.826  14.247
15759W        W87430  25.565  20.542  14.300
15760W        W87431  22.748  16.861   0.960
15761W        W87432  41.194   4.744  11.577
15762W        W87433  26.210  20.319  14.832
15763W        W87434  41.795   3.144   2.571
15764W        W87435  11.142  13.356  12.126
15765W        W87436  13.185  34.719   2.140
15766W        W87437  27.061   0.958   3.093
15767W        W87438   7.180  21.562   3.563
15768W        W87439  42.429  41.801  12.970
15769W        W87440  23.515  23.123  13.921
15770W        W87441  23.690  17.256  12.646
15771W        W87442  27.033   5.368  10.808
15772W        W87443  37.487   4.659   3.741
15773W        W87444   5.857  11.246  13.859
15774W        W87445  34.071  14.762   0.831
15775W        W87446  35.091  14.885   1.975
15776W        W87447  28.658  38.789  13.802
15777W        W87448   1.737   4.639   3.630
15778W        W87449   3.389  43.001  13.280
15779W        W87450  32.068  25.620  13.844
15780W        W87451  11.505  14.249  13.951
15781W        W87452  22.166  31.999   4.318
15782W        W87453  12.897  40.310   2.345
15783W        W87454  35.832  12.003   5.144
15784W        W87455  32.533  40.748  14.353
15785W        W87456  44.488  11.593   9.457
15786W        W87457   6.538  15.341  12.084
15787W        W87458  30.176  13.520  12.904
15788W        W87459  21.742   7.766  12.965
15789W        W87460  17.256  26.950  11.105
15790W        W87461  19.634  35.623   1.381
15791W        W87462  17.521  31.348   2.956
15792W        W87463  25.973  21.550  14.455
15793W        W87464  29.329  19.099  12.079
15794W        W87465  26.069  19.147   1.939
15795W        W87466  36.823  35.878  11.103
15796W        W87467  44.270  16.340   2.806
15797W        W87468  43.381  35.342  13.255
15798W        W87469  17.453  23.568   0.721
15799W        W87470  24.212  38.228   1.857
15800W        W87471  10.184  30.979   2.787
15801W        W87472  27.953   1.501   4.169
15802W        W87473   1.312  19.761   0.950
15803W        W87474  17.823  33.099  11.069
15804W        W87475  26.803  44.307  13.826
15805W        W87476  29.949   0.480  11.206
15806W        W87477  28.546  34.542   4.809
15807W        W87478  11.567  27.072  11.967
15808W        W87479  40.481  18.694   1.665
15809W        W87480  37.349  12.147  11.574
15810W        W87481  31.679  21.815   1.314
15811W        W87482   9.715  43.708  10.858
15812W        W87483   4.769   5.898  13.436
15813W        W87484  34.523  26.899  11.894
15814W        W87485   7.845   0.783   3.281
15815W        W87486  23.661   0.282   4.047
15816W        W87487  40.488  23.743   1.800
15817W        W87488  24.533  16.096  14.314
15818W        W87489  35.888   4.665  11.181
15819W        W87490  19.053  22.817  14.886
15820W        W87491  13.805   5.176   4.547
15821W        W87492  38.909   0.464  12.972
15822W        W87493  35.660  41.077  12.493
15823W        W87494  40.990  20.024  14.816
15824W        W87495   2.815   8.640   3.424
15825W        W87496  41.536   6.528  11.998
15826W        W87497  32.986  14.929  12.427
15827W        W87498  10.643  42.742   3.544
15828W        W87499  18.762  42.571  13.795
15829W        W87500  17.322  22.608   3.074
15830W        W87501   5.363  29.929  10.668
15831W        W87502  31.108  39.479  12.770
15832W        W87503  15.075   5.980  13.092
15833W        W87504  35.526  31.795   4.070
15834W        W87505  41.002  16.263   0.258
15835W        W87506  25.878   9.715   4.829
15836W        W87507   1.822  11.429   2.838
15837W        W87508  20.639  21.697  10.705
15838W        W87509   7.437  35.808  13.965
15839W        W87510  44.990  19.472   2.909
15840W        W87511  35.145  14.327  10.544
15841W        W87512  40.863  27.294   1.238
15842W        W87513  14.726  33.167  14.885
15843W        W87514  15.042  27.331   0.332
15844W        W87515  13.276  31.141   2.635
15845W        W87516  22.461  37.038   0.706
15846W        W87517  25.173  10.333   2.873
15847W        W87518   8.685  20.027   3.308
15848W        W87519  36.670  35.536  12.917
15849W        W87520  13.832  14.116   0.258
15850W        W87521   9.397  10.893  12.814
15851W        W87522  14.603  19.307   3.614
15852W        W87523  23.537  10.131  14.793
15853W        W87524  26.175  34.132  10.996
15854W        W87525   2.818  31.160   2.324
15855W        W87526  23.782   9.730  13.368
15856W        W87527  30.017   6.192  14.396
15857W        W87528  33.152  36.550  14.385
15858W        W87529  38.033   1.293   4.504
15859W        W87530  13.701  19.590   3.679
15860W        W87531  31.590  16.576  13.797
15861W        W87532  13.755   5.157   3.123
15862W        W87533   0.352   3.397   3.471
15863W        W87534  18.618   8.608  12.897
15864W        W87535   7.362  23.489   2.690
15865W        W87536  32.355  20.102   0.945
15866W        W87537  32.611  26.886  13.739
15867W        W87538  37.842  43.454   0.807
15868W        W87539   5.994  40.000  11.101
15869W        W87540  30.151   9.856  14.809
15870W        W87541   5.845   3.590  14.173
15871W        W87542  18.648  16.741   0.782
15872W        W87543  24.612  21.764  11.923
15873W        W87544   6.392  14.770   3.901
15874W        W87545   2.705   3.949   2.210
15875W        W87546  24.049   1.140   3.658
15876W        W87547  38.430  40.583  14.418
15877W        W87548  43.591  29.622   0.721
15878W        W87549  35.628  18.473   0.835
15879W        W87550  10.288  14.595  12.432
15880W        W87551  44.851  43.040   2.850
15881W        W87552  29.570  31.084  13.806
15882W        W87553  38.020  23.722   0.214
15883W        W87554  22.200  11.768   4.512
15884W        W87555  44.250   2.036   0.909
15885W        W87556  38.470  29.053   3.188
15886W        W87557   0.999  20.158  12.129
15887W        W87558  13.619   5.487  10.561
15888W        W87559  13.500   8.708  11.979
15889W        W87560  14.448  40.296   2.358
15890W        W87561  22.073  42.332   2.332
15891W        W87562  24.281   9.632  13.132
15892W        W87563  33.599  36.344   1.785
15893W        W87564  30.444  15.016  14.451
15894W        W87565  33.872  21.762  13.026
15895W        W87566  23.898  16.039  11.652
15896W        W87567  37.376   4.945  14.489
15897W        W87568  25.763  38.082   0.176
15898W        W87569  10.813  32.049  10.267
15899W        W87570  17.249  44.966   0.891
15900W        W87571  37.560  36.897  13.646
15901W        W87572  30.942  14.609   0.872
15902W        W87573  41.221  19.962   0.271
15903W        W87574  26.082  12.321   2.875
15904W        W87575  17.488  19.640   0.507
15905W        W87576  14.149  29.167   0.329
15906W        W87577  22.323  22.585  14.081
15907W        W87578  16.767  30.898  10.658
15908W        W87579  18.514  33.111   1.864
15909W        W87580  26.029  31.985  12.211
15910W        W87581  30.302  27.192  14.046
15911W        W87582   9.189  13.301  10.447
15912W        W87583  37.398  44.476   2.269
15913W        W87584  33.003  19.273  13.975
15914W        W87585  27.491  38.825  10.676
15915W        W87586  42.504  30.345   1.622
15916W        W87587   8.307  27.623  12.399
15917W        W87588  10.586  22.730   3.902
15918W        W87589   6.213  31.597  14.923
15919W        W87590  44.500  25.697   3.877
15920W        W87591  14.220  30.791   2.855
15921W        W87592  34.941  33.418   2.727
15922W        W87593  10.660  26.822   5.097
15923W        W87594   2.957   1.169   4.423
15924W        W87595  36.815   4.410   4.502
15925W        W87596  31.834  19.392  10.775
15926W        W87597  38.776  14.637   1.970
15927W        W87598   5.648   1.398  10.523
15928W        W87599  33.683   1.341  12.753
15929W        W87600  16.402  42.596  11.462
15930W        W87601  42.580  12.123   4.741
15931W        W87602  42.594  23.780  11.968
15932W        W87603  13.350   3.726  10.750
15933W        W87604   8.815  15.517  12.463
15934W        W87605  22.594   9.592   2.203
15935W        W87606  20.441  32.559   2.723
15936W        W87607  10.644  28.077   4.370
15937W        W87608  21.484   6.801   0.302
15938W        W87609  16.386   6.946   1.736
15939W        W87610  18.782  41.354   0.754
15940W        W87611   9.413   7.300  14.236
15941W        W87612  23.646   2.254  10.863
15942W        W87613  22.303  42.852  12.407
15943W        W87614  15.128  31.461  10.655
15944W        W87615  12.335  14.078  11.999
15945W        W87616  39.128   1.871  13.423
15946W        W87617   9.938  40.754  10.687
15947W        W87618   9.471  35.622  12.862
15948W        W87619  34.628  29.465   1.825
15949W        W87620  26.213   1.598  13.843
15950W        W87621   4.114   1.477   4.608
15951W        W87622   8.756  34.423   3.392
15952W        W87623  40.077  23.222   2.621
15953W        W87624  44.483   8.136   4.593
15954W        W87625  38.812  41.464   4.542
15955W        W87626   2.684  44.722   4.529
15956W        W87627  37.064  31.411  14.894
15957W        W87628   0.558   9.357  13.428
15958W        W87629   4.768   9.866  12.586
15959W        W87630  25.206  35.510   3.734
15960W        W87631  12.094  40.547  10.411
15961W        W87632  40.408  17.165  12.830
15962W        W87633  28.678  30.134  10.887
15963W        W87634  34.589  40.459  10.806
15964W        W87635  24.172  11.691   3.647
15965W        W87636  38.153  24.253  11.442
15966W        W87637   1.244  17.596  10.694
15967W        W87638  43.283  20.308   5.384
15968W        W87639   5.692  43.561  12.443
15969W        W87640  43.931  42.088  13.800
15970W        W87641  32.131  26.174   4.539
15971W        W87642  10.477  24.798  11.200
15972W        W87643  10.150  29.889   2.711
15973W        W87644  35.332  27.134  12.180
15974W        W87645  30.648  21.968   1.489
15975W        W87646   4.923  23.674   3.914
15976W        W87647  29.087  41.020   3.437
15977W        W87648  13.765  34.846  12.723
15978W        W87649  29.720  30.494  14.376
15979W        W87650   2.604  25.782   1.448
15980W        W87651   5.576  24.027   1.758
15981W        W87652  40.159  37.546   4.541
15982W        W87653  23.985  10.793   3.283
15983W        W87654   4.696  42.330  11.652
15984W        W87655   1.102  15.691  10.391
15985W        W87656  34.992  33.200   3.212
15986W        W87657   3.362  22.652   3.380
15987W        W87658   7.491   0.894   4.233
15988W        W87659  10.792  18.432  14.716
15989W        W87660  16.258  18.192   1.729
15990W        W87661  24.742   1.286   1.163
15991W        W87662  34.505  43.408  10.755
15992W        W87663  32.637  26.613   2.794
15993W        W87664   2.575  16.197   3.072
15994W        W87665  15.386   4.974   0.095
15995W        W87666  37.805  38.502  10.274
15996W        W87667  32.723   1.470   3.799
15997W        W87668  31.111  15.012  14.922
15998W        W87669  19.733  12.338   4.146
15999W        W87670   0.424   1.537   3.090
16000W        W87671   0.773  11.868  12.094
16001W        W87672  43.624  22.665   3.068
16002W        W87673  26.725   6.664   0.878
16003W        W87674   4.215  43.561  11.551
16004W        W87675  40.538  42.612  11.661
16005W        W87676  11.708  39.364  12.944
16006W        W87677   6.961  17.763   4.527
16007W        W87678  44.516  36.267   1.881
16008W        W87679  39.992  32.004  11.097
16009W        W87680   0.253  36.947  12.495
16010W        W87681   5.709   4.841   3.838
16011W        W87682  43.699   4.835  13.674
16012W        W87683  16.114  25.509   3.522
16013W        W87684  44.060   3.310  12.437
16014W        W87685  20.650  23.582  13.917
16015W        W87686  44.724  21.695   1.208
16016W        W87687   4.738   9.893  13.400
16017W        W87688   4.035   7.153  13.970
16018W        W87689  26.965  30.617   4.527
16019W        W87690  31.584  40.882   1.237
16020W        W87691  40.513   1.014   3.660
16021W        W87692   2.901  23.620   3.212
16022W        W87693  42.487  23.534   0.198
16023W        W87694  41.339   6.460  14.735
16024W        W87695  32.817  17.241  11.121
16025W        W87696  34.479  39.452   0.296
16026W        W87697  35.179   6.866   0.665
16027W        W87698  18.082   9.852  12.395
16028W        W87699  13.666  15.228   0.868
16029W        W87700   6.887  29.629   4.128
16030W        W87701   0.894  28.535  10.792
16031W        W87702  33.283  28.648  11.697
16032W        W87703  24.492  36.674  10.783
16033W        W87704  13.510   9.705   0.823
16034W        W87705  11.923  32.432   1.903
16035W        W87706  17.499   9.189  14.556
16036W        W87707  44.520   0.377   4.964
16037W        W87708   2.047  35.169   3.757
16038W        W87709  31.517  21.820   3.340
16039W        W87710  43.279  29.948   0.006
16040W        W87711  22.066  14.348  11.383
16041W        W87712  27.574  24.196  14.741
16042W        W87713   7.426  15.159   1.244
16043W        W87714  11.288  42.688  14.787
16044W        W87715  27.852  10.162   4.546
16045W        W87716  13.812  34.226  12.973
16046W        W87717  34.396  27.918  14.799
16047W        W87718   2.004  22.843   4.344
16048W        W87719  44.490  26.463  10.610
16049W        W87720   8.561  20.012  14.865
16050W        W87721  24.820   9.337  13.109
16051W        W87722  36.576  10.413  14.255
16052W        W87723  12.751   5.925   3.686
16053W        W87724  29.518  40.817   3.212
16054W        W87725  22.634  16.265   4.297
16055W        W87726  33.659  28.036   1.325
16056W        W87727  41.938  26.432   0.526
16057W        W87728  40.511  25.213  14.781
16058W        W87729   2.929  15.274   2.190
16059W        W87730  18.734  38.297  13.467
16060W        W87731  37.583  19.322  11.090
16061W        W87732  20.511  41.457   1.167
16062W        W87733  26.002  33.605  11.905
16063W        W87734  28.025  28.327  13.810
16064W        W87735  39.617  11.227   2.068
16065W        W87736  27.020  12.714  13.337
16066W        W87737  19.630  30.586  14.075
16067W        W87738  16.258  28.945  14.415
16068W        W87739  43.958  12.295  13.604
16069W        W87740  15.865  11.805  13.732
16070W        W87741  31.189  16.685   4.547
16071W        W87742  27.026  21.457   0.898
16072W        W87743  30.899  33.816  14.532
16073W        W87744   3.842  34.636   2.107
16074W        W87745  21.726  10.053   4.133
16075W        W87746   3.351  24.178   4.706
16076W        W87747  27.870   5.302  12.012
16077W        W87748  29.938  20.367   0.897
16078W        W87749  18.181  13.013   1.916
16079W        W87750  14.001  37.343  13.517
16080W        W87751  19.196  38.891  13.876
16081W        W87752  23.889  40.124  12.895
16082W        W87753  17.035  13.094   5.028
16083W        W87754   3.760   1.461   1.963
16084W        W87755  23.611  15.333   1.355
16085W        W87756  31.396  38.314  11.195
16086W        W87757  44.481  43.946  14.794
16087W        W87758  30.676  29.970   4.552
16088W        W87759  13.409  16.332  12.025
16089W        W87760  12.595  34.743   1.279
16090W        W87761  11.701   9.636   2.386
16091W        W87762   1.085  43.787  14.400
16092W        W87763   0.729  37.925   1.144
16093W        W87764  15.327  25.229   4.631
16094W        W87765  24.021  16.082   3.223
16095W        W87766  30.711  16.995  12.495
16096W        W87767  27.861  30.054  14.338
16097W        W87768   1.021   7.310   4.182
16098W        W87769  39.913   9.818  13.676
16099W        W87770  40.204  29.415  11.049
16100W        W87771  25.472  21.771   3.864
16101W        W87772   2.307  27.335  11.473
16102W        W87773   8.166   7.155  12.510
16103W        W87774  15.837  40.376   2.081
16104W        W87775  34.559  23.143   2.757
16105W        W87776  41.301  31.069  12.942
16106W        W87777  24.394  26.441  12.029
16107W        W87778  11.114  13.282   2.340
16108W        W87779  33.299  38.267  14.928
16109W        W87780  14.020  31.170   3.682
16110W        W87781  12.894  22.372   1.362
16111W        W87782   9.531   1.455  13.086
16112W        W87783  38.407  11.908  14.774
16113W        W87784  19.173  12.653   5.078
16114W        W87785  22.083   8.272  14.020
16115W        W87786   2.003  14.247  14.256
16116W        W87787  24.260  25.047  13.415
16117W        W87788  32.072  44.676   1.161
16118W        W87789   8.352   8.928   3.679
16119W        W87790  30.936   7.213  13.448
16120W        W87791   3.830  14.139  13.489
16121W        W87792  19.108  28.154   3.908
16122W        W87793  33.632  23.545  11.720
16123W        W87794  18.854   8.131  12.897
16124W        W87795   3.653  30.607  13.816
16125W        W87796  21.525  24.938   3.833
16126W        W87797   4.827  44.727   2.256
16127W        W87798  34.574  28.123  13.464
16128W        W87799  25.263  12.862   4.150
16129W        W87800  10.756  43.413   3.784
16130W        W87801  23.144  20.586  12.622
16131W        W87802  18.022   9.662  11.403
16132W        W87803  33.512  13.662   1.506
16133W        W87804  39.797  20.118   4.619
16134W        W87805  18.524  36.360  14.615
16135W        W87806  34.536  17.578  13.600
16136W        W87807  35.572  38.539  11.067
16137W        W87808  15.033  42.402  14.419
16138W        W87809  40.363   2.173   2.652
16139W        W87810   3.509  29.588   1.460
16140W        W87811  25.466  13.929  14.002
16141W        W87812  11.398  16.208  14.296
16142W        W87813   0.727   0.897   1.784
16143W        W87814   0.575  21.498   9.736
16144W        W87815  14.974  33.391  12.488
16145W        W87816  39.582  33.045  13.866
16146W        W87817  25.495  23.126  14.810
16147W        W87818   3.825  28.570   2.703
16148W        W87819  21.508  19.096   0.891
16149W        W87820  39.859  21.454   4.278
16150W        W87821  15.143  34.811   3.443
16151W        W87822   1.736  43.474   0.010
16152W        W87823  23.311  32.557   0.358
16153W        W87824  13.191  28.752   0.358
16154W        W87825  20.633  40.476   4.173
16155W        W87826  38.925  29.743  12.889
16156W        W87827  26.382   7.738   1.289
16157W        W87828  33.080  27.497  11.146
16158W        W87829  24.514   1.365  10.793
16159W        W87830  28.131  13.599   2.960
16160W        W87831   1.966  11.772  11.570
16161W        W87832  13.308  37.624  10.766
16162W        W87833  37.337  38.113  11.114
16163W        W87834  38.011  21.117  12.150
16164W        W87835  42.390  15.003   4.809
16165W        W87836  34.896  23.539  10.569
16166W        W87837  39.291  39.390  11.296
16167W        W87838   9.628  12.121   4.123
16168W        W87839  13.226  12.887  14.920
16169W        W87840   2.045  15.149   2.472
16170W        W87841  22.848  20.541  12.086
16171W        W87842  36.781  10.582   1.946
16172W        W87843  25.540   5.016  14.295
16173W        W87844  26.971   6.203   0.849
16174W        W87845  11.424   4.045  11.996
16175W        W87846   8.838  33.859   0.427
16176W        W87847  16.740  18.433  14.907
16177W        W87848  34.411  16.163  11.461
16178W        W87849  11.240   2.488  13.547
16179W        W87850  40.854  44.539  11.061
16180W        W87851  29.177  32.311  13.806
16181W        W87852  17.051  28.086   3.166
16182W        W87853  38.953  13.227  14.495
16183W        W87854  32.222   5.343   0.418
16184W        W87855  23.253  24.420  12.151
16185W        W87856  27.549   6.619  11.973
16186W        W87857  29.096   8.292  14.970
16187W        W87858   2.447  41.966  13.075
16188W        W87859  29.797  21.918  13.780
16189W        W87860  13.182   8.723   3.644
16190W        W87861  34.930  16.576   4.866
16191W        W87862   6.282   1.740   1.842
16192W        W87863  12.012  31.192   2.507
16193W        W87864   0.033  14.691   4.371
16194W        W87865  43.336   5.778   0.078
16195W        W87866  41.820  42.347  13.444
16196W        W87867   1.056  15.038   2.260
16197W        W87868   0.726  27.094  10.619
16198W        W87869  38.568  28.923  10.615
16199W        W87870  27.152  30.924   4.894
16200W        W87871  32.155   7.865   4.095
16201W        W87872  22.787  42.856   4.916
16202W        W87873  14.227  37.137   5.066
16203W        W87874  17.836  18.656  13.156
16204W        W87875   4.391  18.191   1.836
16205W        W87876  20.222  29.422  12.814
16206W        W87877  33.971  11.802  10.686
16207W        W87878  43.708   3.298   4.567
16208W        W87879  40.101  34.495   3.899
16209W        W87880   6.329  38.841   3.783
16210W        W87881   7.905  35.185  11.270
16211W        W87882  42.265  36.628   3.184
16212W        W87883  34.532   3.882  12.805
16213W        W87884  44.800  32.538   0.851
16214W        W87885  32.987  12.687  11.870
16215W        W87886  10.840  20.960   1.877
16216W        W87887  43.582  37.421   4.890
16217W        W87888  35.434  43.262  11.617
16218W        W87889  13.072   3.535  13.909
16219W        W87890  32.142  30.942   1.515
16220W        W87891  16.165  28.533  10.832
16221W        W87892   7.046   5.288   3.926
16222W        W87893  34.239  37.868  12.407
16223W        W87894  25.985   6.797   1.130
16224W        W87895   4.831  18.494  12.002
16225W        W87896  15.290  39.353  11.369
16226W        W87897  21.675  38.388   2.264
16227W        W87898  37.596  21.571  10.509
16228W        W87899  44.760  22.502   1.755
16229W        W87900   2.410  16.553   1.318
16230W        W87901   0.530  37.613  10.136
16231W        W87902   0.905  20.664  10.989
16232W        W87903   1.511  33.845  14.161
16233W        W87904  30.169  10.511   4.090
16234W        W87905  24.712  32.931   1.788
16235W        W87906   0.205   7.304  14.269
16236W        W87907  44.167  27.725   2.410
16237W        W87908  31.465  10.108  11.108
16238W        W87909  12.254   6.473   3.861
16239W        W87910  39.090  27.276  13.982
16240W        W87911  23.396  11.140   2.336
16241W        W87912  33.658  10.349  14.954
16242W        W87913  21.249  16.450  11.019
16243W        W87914  42.467   7.475  11.844
16244W        W87915  37.851  11.639   0.177
16245W        W87916  37.089  30.572   1.970
16246W        W87917  38.490  26.684   2.441
16247W        W87918   6.441  17.762  14.356
16248W        W87919  27.584  39.240  14.953
16249W        W87920  40.104  26.128   1.959
16250W        W87921   9.602   8.417  11.559
16251W        W87922  18.326  23.568   1.770
16252W        W87923  34.525  44.288   3.552
16253W        W87924  44.628  44.004   2.734
16254W        W87925  27.041  18.358   3.947
16255W        W87926  16.184  14.274  13.995
16256W        W87927  31.699  17.737   3.122
16257W        W87928  11.556   7.800  10.637
16258W        W87929  16.807   4.386  11.063
16259W        W87930  17.563  11.625   1.798
16260W        W87931  20.108  13.261   0.007
16261W        W87932   3.755  26.753  14.723
16262W        W87933  41.030  27.343   3.228
16263W        W87934  28.848   0.214  12.960
16264W        W87935  10.206  36.854  13.449
16265W        W87936   5.934  13.599  13.420
16266W        W87937  23.004  28.118   2.713
16267W        W87938  12.349  13.776   3.680
16268W        W87939  34.714  36.140  14.017
16269W        W87940  35.788  33.194  10.553
16270W        W87941  28.507  12.968  14.406
16271W        W87942   5.301  15.176  14.763
16272W        W87943  36.784  11.915   1.374
16273W        W87944  16.765  20.747   0.795
16274W        W87945  43.816   9.888  10.593
16275W        W87946  19.818  23.527   1.409
16276W        W87947  10.274  40.953   1.221
16277W        W87948  28.566   9.111  10.255
16278W        W87949  15.780  33.895  11.066
16279W        W87950  17.484   3.911  13.036
16280W        W87951  30.362  28.589   1.213
16281W        W87952  31.135   2.249  11.969
16282W        W87953  39.660  23.290   2.356
16283W        W87954  11.576  18.702   0.939
16284W        W87955   6.615  44.223   2.948
16285W        W87956  32.518  16.046   3.324
16286W        W87957   4.851  22.498   4.690
16287W        W87958  16.307  34.011  12.330
16288W        W87959   2.622  14.218   5.045
16289W        W87960  24.490   0.856  10.390
16290W        W87961  19.614  11.354  13.308
16291W        W87962  41.439  17.648   4.834
16292W        W87963  18.812  31.937   0.319
16293W        W87964  22.544  31.383  14.641
16294W        W87965  28.606  37.026  12.540
16295W        W87966  37.928  43.134   2.082
16296W        W87967  17.791  38.708  14.232
16297W        W87968  39.775   2.354   1.328
16298W        W87969  44.465  25.565  10.516
16299W        W87970  19.672   5.196  14.193
16300W        W87971  40.338  39.119   0.472
16301W        W87972  22.624  31.845  13.859
16302W        W87973  19.863  11.467   2.933
16303W        W87974  23.032  36.966   0.269
16304W        W87975  39.791  39.554   4.707
16305W        W87976  40.748  38.411  12.324
16306W        W87977  31.242   9.349   1.716
16307W        W87978  15.604  28.583   1.985
16308W        W87979  42.319  38.091  11.084
16309W        W87980  43.820   4.230  14.433
16310W        W87981  16.556  41.451   2.727
16311W        W87982  15.099  40.316  14.924
16312W        W87983   2.297  15.809  12.826
16313W        W87984   9.329   6.945   2.816
16314W        W87985  41.941  38.639  13.545
16315W        W87986  23.543  33.889  13.400
16316W        W87987  15.399  14.820   2.428
16317W        W87988  32.869   1.216   2.296
16318W        W87989   5.063   6.817   2.216
16319W        W87990  39.409  43.062  12.092
16320W        W87991   4.445  29.137  11.016
16321W        W87992  42.726  43.312  14.649
16322W        W87993   9.197  30.902   2.679
16323W        W87994  31.158   8.303   3.246
16324W        W87995  29.691  32.453   2.760
16325W        W87996  29.899  41.907   2.463
16326W        W87997  42.038  19.963   1.587
16327W        W87998  11.718   3.715  14.733
16328W        W87999  15.398  31.891  10.763
16329W        W88000  38.501   3.273  10.984
16330W        W88001  40.148  21.768  11.206
16331W        W88002  23.620  11.162   0.575
16332W        W88003  40.352  21.610   4.044
16333W        W88004  17.878  44.972   4.118
16334W        W88005   2.333   9.222  11.067
16335W        W88006  27.993   5.245   1.668
16336W        W88007   5.268   5.948   3.402
16337W        W88008   4.563  32.553   0.084
16338W        W88009  37.147  17.181   0.761
16339W        W88010   3.604   1.905  14.015
16340W        W88011  24.618   4.278   0.902
16341W        W88012   2.706  29.213   4.114
16342W        W88013  43.822  12.234  10.327
16343W        W88014   4.997   1.502   2.826
16344W        W88015   9.340  21.548   1.337
16345W        W88016  23.759  10.769  10.490
16346W        W88017  29.297  34.026   2.252
16347W        W88018  24.161   8.362   0.344
16348W        W88019  19.028  13.637  12.409
16349W        W88020  23.946  31.855   4.923
16350W        W88021  19.729  37.535  10.238
16351W        W88022   8.250  12.638  11.299
16352W        W88023   1.393  20.078  12.566
16353W        W88024   6.314   4.465  11.569
16354W        W88025  34.549  41.852   3.074
16355W        W88026  24.996  33.994   0.617
16356W        W88027  38.159  17.651  10.871
16357W        W88028  30.613  35.980   1.224
16358W        W88029   3.705  43.841  14.339
16359W        W88030   0.944  21.550  13.276
16360W        W88031  40.809  37.916   2.602
16361W        W88032   7.657   4.520  11.985
16362W        W88033  14.089  18.684  10.627
16363W        W88034  10.172  13.595   4.676
16364W        W88035  18.634  18.516  12.408
16365W        W88036   3.657  36.500   1.867
16366W        W88037  31.761   9.948  14.928
16367W        W88038  43.659  23.991   2.315
16368W        W88039  37.301  16.096   4.207
16369W        W88040  18.201  31.364  14.459
16370W        W88041  13.244  17.806  13.833
16371W        W88042  14.836  42.499   0.814
16372W        W88043  15.587  25.242  14.980
16373W        W88044  44.893  43.966   4.061
16374W        W88045  16.902  10.592  14.869
16375W        W88046  32.640   8.566   9.945
16376W        W88047  24.641  41.554  12.337
16377W        W88048  40.880   2.370  13.379
16378W        W88049  10.273  17.313   5.241
16379W        W88050   7.851  18.611   3.701
16380W        W88051  44.466  34.383  12.092
16381W        W88052  31.349  32.470  12.255
16382W        W88053  39.050  23.081   0.044
16383W        W88054  30.004  37.906   0.491
16384W        W88055   4.910  16.719   1.507
16385W        W88056   0.555   8.199   1.973
16386W        W88057  39.116  42.878  13.866
16387W        W88058  17.447  27.409  13.046
16388W        W88059  40.856   5.633   4.136
16389W        W88060  11.215  31.365   2.137
16390W        W88061  28.130  38.553   2.249
16391W        W88062  39.618  30.629  11.549
16392W        W88063   7.849   6.893   4.700
16393W        W88064  10.407   5.363   3.786
16394W        W88065   9.889  12.346   4.940
16395W        W88066  42.370  25.529   1.465
16396W        W88067   9.815  38.420   0.875
16397W        W88068   2.336  33.233   1.815
16398W        W88069  13.311  44.369  14.362
16399W        W88070  13.560   0.235   2.685
16400W        W88071   3.636  31.078   2.060
16401W        W88072  23.794  44.997   2.846
16402W        W88073  30.428   3.317  10.619
16403W        W88074   3.212  10.247   5.167
16404W        W88075  42.404  21.946   5.005
16405W        W88076  38.846  40.975   3.174
16406W        W88077   2.814  22.546  10.653
16407W        W88078  37.606  42.718  10.054
16408W        W88079   0.864  17.184  11.033
16409W        W88080  38.296  44.429  12.631
16410W        W88081   0.785   5.246   1.327
16411W        W88082   9.228   5.346  10.457
16412W        W88083   1.415  26.197  11.925
16413W        W88084  27.357  14.544  11.536
16414W        W88085   3.817  10.682   2.103
16415W        W88086  41.893   8.389  14.009
16416W        W88087  39.026  30.255  10.756
16417W        W88088  23.720  18.279   4.389
16418W        W88089  34.964   7.410   3.214
16419W        W88090  37.043  43.224  12.599
16420W        W88091  37.053  26.712   2.235
16421W        W88092  16.754  26.397   2.730
16422W        W88093  22.009  41.524  14.022
16423W        W88094  25.400  25.079  10.255
16424W        W88095  17.882  43.812  13.170
16425W        W88096   0.070   4.447   0.901
16426W        W88097  30.365  19.138   4.845
16427W        W88098  38.016  10.802  13.569
16428W        W88099  43.499  42.845   0.274
16429W        W88100  17.666  41.772   3.195
16430W        W88101  14.164  30.629   3.328
16431W        W88102   5.308   0.218   4.247
16432W        W88103  25.821  27.680  11.567
16433W        W88104  33.385   8.739  13.978
16434W        W88105   5.904   3.365   3.937
16435W        W88106  26.475  34.983  13.525
16436W        W88107  34.606  31.589  10.606
16437W        W88108   2.439  14.247   2.795
16438W        W88109   5.696  28.978  12.109
16439W        W88110   0.798  10.878   2.443
16440W        W88111  40.809  36.520  13.650
16441W        W88112  12.692  34.554   2.214
16442W        W88113  40.485  30.533  14.513
16443W        W88114  43.805  20.409   1.222
16444W        W88115  17.716  38.579   2.433
16445W        W88116  29.942  42.276   0.793
16446W        W88117  10.828  40.536  13.512
16447W        W88118  11.371  34.072   1.450
16448W        W88119  24.730  41.679  13.792
16449W        W88120  17.106  30.848  13.311
16450W        W88121  28.381  26.178   4.094
16451W        W88122  28.063  29.956  14.967
16452W        W88123  27.538   6.804   9.809
16453W        W88124  23.694  29.949   1.289
16454W        W88125  10.420   2.894  14.596
16455W        W88126   0.490  21.731  11.574
16456W        W88127  20.600  17.995  12.073
16457W        W88128  41.152  26.169  11.177
16458W        W88129   5.387  21.287   4.228
16459W        W88130  28.509   0.912   2.828
16460W        W88131   6.719  43.069   1.814
16461W        W88132  37.778  23.192   0.939
16462W        W88133  26.989   0.636   2.135
16463W        W88134  36.876  29.924  12.479
16464W        W88135  32.019   7.403  10.945
16465W        W88136  38.103   1.673  12.041
16466W        W88137  30.473  27.250  11.125
16467W        W88138  43.227  12.645  14.054
16468W        W88139  44.996   3.785  11.094
16469W        W88140   3.703  36.263   3.216
16470W        W88141  23.736  26.167  12.502
16471W        W88142   8.262   2.088   2.335
16472W        W88143  33.433   5.753  12.785
16473W        W88144  37.984   6.343   0.398
16474W        W88145   2.733   0.220  11.705
16475W        W88146  39.881   4.658  11.646
16476W        W88147  16.378  16.691  11.070
16477W        W88148  37.862  32.955  13.476
16478W        W88149  43.069  13.217  12.409
16479W        W88150  32.966  16.350  10.817
16480W        W88151  40.105  25.144   1.382
16481W        W88152   1.705  42.410  13.922
16482W        W88153  27.249  20.071   0.971
16483W        W88154  34.508  34.629  14.020
16484W        W88155  38.778  29.683   4.187
16485W        W88156   4.038  19.645   5.035
16486W        W88157   8.348  13.865  13.908
16487W        W88158  21.313  25.468  14.453
16488W        W88159  16.493  34.783  13.232
16489W        W88160  37.076  39.117  10.707
16490W        W88161  10.228   1.137   0.904
16491W        W88162   9.603  40.310  13.890
16492W        W88163  28.051  20.097   3.983
16493W        W88164  20.359  10.820  14.571
16494W        W88165  39.628  20.200   3.254
16495W        W88166  35.376  24.607  11.611
16496W        W88167  15.287  24.779   2.185
16497W        W88168  36.999   7.150   2.666
16498W        W88169   9.614   8.915   4.113
16499W        W88170  42.143  24.258   3.599
16500W        W88171   3.203   8.794  11.558
16501W        W88172   6.352  36.316  12.892
16502W        W88173  20.286  17.209   4.634
16503W        W88174  18.134  10.734   2.633
16504W        W88175  15.176  33.797   3.037
16505W        W88176  10.795  25.898  14.653
16506W        W88177   1.215  30.997  11.576
16507W        W88178  33.384  23.551  10.739
16508W        W88179  16.755  30.128   1.208
16509W        W88180  36.271  43.581  11.156
16510W        W88181  19.241   4.402   2.681
16511W        W88182  19.580  35.789  11.823
16512W        W88183   3.463  37.002   1.302
16513W        W88184  39.615  28.597  13.530
16514W        W88185  25.444  27.695  10.721
16515W        W88186  31.808  28.714   0.395
16516W        W88187  12.044  19.079  11.153
16517W        W88188  11.415  16.614  12.004
16518W        W88189  39.805   6.597  12.167
16519W        W88190  37.394  19.298  12.963
16520W        W88191  12.117  37.786   3.197
16521W        W88192  16.157  26.468  11.106
16522W        W88193   8.193  32.477  13.554
16523W        W88194   9.331  33.634  12.462
16524W        W88195  41.909   2.632  13.778
16525W        W88196   2.868  16.327   4.054
16526W        W88197   4.141  31.434   5.048
16527W        W88198  40.011  13.157   5.074
16528W        W88199   6.753  44.136  12.909
16529W        W88200  40.859  39.049   0.451
16530W        W88201   3.155  10.307   4.182
16531W        W88202  38.791  23.266   2.044
16532W        W88203  25.286  13.688  13.577
16533W        W88204  44.088  14.052  10.525
16534W        W88205   3.875  28.591   4.083
16535W        W88206  36.158  18.731  13.439
16536W        W88207  11.572  33.078  12.052
16537W        W88208   1.774   3.922  11.740
16538W        W88209  42.214  18.635  10.981
16539W        W88210   1.598  38.407   1.325
16540W        W88211  37.888  23.839  11.561
16541W        W88212  20.457  12.177   5.532
16542W        W88213  24.049  11.161   0.288
16543W        W88214  27.997  32.893  10.158
16544W        W88215   9.047  16.777   4.836
16545W        W88216  20.693  34.954   4.569
16546W        W88217   0.987  43.970  10.476
16547W        W88218  28.157  24.054   3.649
16548W        W88219   0.410   0.074   1.114
16549W        W88220  33.682   3.451   2.654
16550W        W88221   0.712  32.040  10.216
16551W        W88222   8.117  24.920   1.657
16552W        W88223   1.987  22.632   5.535
16553W        W88224  34.925   9.380  13.899
16554W        W88225   1.245  14.721  12.667
16555W        W88226  23.105   7.273  14.778
16556W        W88227  41.472  19.197   2.168
16557W        W88228  12.730  42.538   3.196
16558W        W88229   3.355  31.531   2.208
16559W        W88230  33.866  20.677  11.998
16560W        W88231  38.461  30.918  12.886
16561W        W88232  16.136  33.461   0.442
16562W        W88233  31.580   3.403  14.353
16563W        W88234   6.996  20.034  14.034
16564W        W88235   6.817  11.430  11.951
16565W        W88236  15.280  12.162  11.199
16566W        W88237  26.223  27.704   0.284
16567W        W88238   5.714   9.721  11.515
16568W        W88239  33.126  14.612   1.257
16569W        W88240  18.383  38.311   0.250
16570W        W88241   7.800   2.836   4.493
16571W        W88242   2.557  14.181  13.135
16572W        W88243  23.212  17.189  11.334
16573W        W88244  38.916   0.050  13.855
16574W        W88245  15.315   6.273  10.153
16575W        W88246  16.348  34.115   4.385
16576W        W88247  39.793   3.926  12.067
16577W        W88248  42.486   1.775  13.994
16578W        W88249  29.952   4.937   1.297
16579W        W88250  30.992  22.647   3.881
16580W        W88251   3.668  10.350  12.036
16581W        W88252  13.247  19.427   2.427
16582W        W88253  44.899  37.871  11.950
16583W        W88254  13.260  37.027  11.596
16584W        W88255  14.397  11.870  10.265
16585W        W88256  16.722  26.931   2.650
16586W        W88257  26.957  34.869  13.717
16587W        W88258  22.745  33.452  12.464
16588W        W88259   8.187  34.430   0.000
16589W        W88260  20.237  13.249   9.934
16590W        W88261   8.076  10.609  12.012
16591W        W88262  10.186   3.558  12.900
16592W        W88263   8.796  33.285  14.555
16593W        W88264  20.559   0.358   0.757
16594W        W88265   4.544  33.285   1.346
16595W        W88266  33.035  25.111  12.404
16596W        W88267  20.708  33.635  10.745
16597W        W88268  31.910  38.926   4.104
16598W        W88269  18.789  14.728   3.725
16599W        W88270  37.410  20.016   4.532
16600W        W88271  14.730  42.812   1.356
16601W        W88272  17.148  36.726  11.860
16602W        W88273  42.515  26.197   4.662
16603W        W88274   1.700  31.288   0.188
16604W        W88275   2.443  27.571   1.697
16605W        W88276  18.117   9.814  10.924
16606W        W88277  41.302  31.103  14.283
16607W        W88278   4.935   2.804   3.483
16608W        W88279  43.807  38.435  12.797
16609W        W88280  12.922  44.579   0.483
16610W        W88281  31.628  36.578  12.391
16611W        W88282  38.076  23.044   1.368
16612W        W88283  33.530   6.655  13.849
16613W        W88284  12.127   6.262   2.268
16614W        W88285  10.356  30.384  11.227
16615W        W88286  26.683  12.985  11.172
16616W        W88287  26.144  37.332   1.237
16617W        W88288  39.383  17.549   0.919
16618W        W88289  34.510  26.466  14.876
16619W        W88290  42.535  30.313  13.930
16620W        W88291  26.942  22.174   1.980
16621W        W88292  37.923  36.854   2.982
16622W        W88293  35.365  23.367   3.638
16623W        W88294  41.784  26.629   2.398
16624W        W88295  19.835  31.683  11.356
16625W        W88296  32.152  26.046   2.270
16626W        W88297   2.108   2.928   2.833
16627W        W88298   2.430  30.404   3.159
16628W        W88299  26.543  11.614  11.413
16629W        W88300   8.176   5.651  13.446
16630W        W88301   5.852  33.032   1.817
16631W        W88302  41.631  29.073   0.879
16632W        W88303   2.205   6.891   4.909
16633W        W88304   1.756   3.654   2.364
16634W        W88305  25.164  41.445   2.771
16635W        W88306  15.641  19.575  12.991
16636W        W88307   7.289  38.851   4.527
16637W        W88308   7.489  42.861  10.705
16638W        W88309  43.378  42.292  13.153
16639W        W88310   3.299  37.399  13.392
16640W        W88311  17.049  35.386   1.716
16641W        W88312  32.515  40.461  10.043
16642W        W88313  25.529  29.563   4.851
16643W        W88314   2.133   9.956  11.970
16644W        W88315  24.095  37.862   5.235
16645W        W88316   9.235   8.274   4.501
16646W        W88317  29.508  25.110  11.420
16647W        W88318  13.863  26.214   0.326
16648W        W88319  32.125  25.965   1.312
16649W        W88320   7.457  44.270  13.512
16650W        W88321  21.543  28.056   4.674
16651W        W88322  31.028  29.404   4.097
16652W        W88323  13.807  32.507   0.719
16653W        W88324  22.297  11.789  11.987
16654W        W88325  36.243   0.828  13.154
16655W        W88326   4.449   2.647   2.205
16656W        W88327   4.669  31.962  13.786
16657W        W88328  32.890  43.735  11.445
16658W        W88329  24.123  37.115   0.400
16659W        W88330   7.130  37.743   1.216
16660W        W88331  31.136  30.174  11.620
16661W        W88332  21.239  44.953  11.067
16662W        W88333  16.290  21.376  10.166
16663W        W88334   5.976   0.320  14.403
16664W        W88335  35.213  12.578   1.790
16665W        W88336  35.576   3.211   0.951
16666W        W88337  14.788  20.749  12.409
16667W        W88338  37.369  16.298   1.773
16668W        W88339  29.485  40.405  13.020
16669W        W88340  21.300   7.024  14.828
16670W        W88341  33.580   4.449  14.215
16671W        W88342   9.694   5.968   0.397
16672W        W88343  12.068  26.196   4.534
16673W        W88344  15.045  20.003   2.477
16674W        W88345  14.190  35.656   0.403
16675W        W88346  38.007  21.306  13.102
16676W        W88347   0.221  32.035  11.089
16677W        W88348   4.028  13.836  12.388
16678W        W88349  29.208   9.276   3.752
16679W        W88350  27.577  33.172   0.804
16680W        W88351  34.422   5.263  14.922
16681W        W88352  38.924  14.250  12.921
16682W        W88353  21.496   9.162  10.643
16683W        W88354  23.016  30.173   2.485
16684W        W88355   6.281  42.957  11.892
16685W        W88356   2.825  27.461  14.363
16686W        W88357  26.905  26.695  13.231
16687W        W88358   7.141  33.387  13.564
16688W        W88359  31.886  33.949  14.295
16689W        W88360  37.964  22.439  10.354
16690W        W88361   4.842   4.075   3.332
16691W        W88362  13.687  26.699   0.483
16692W        W88363  44.502   8.991  10.575
16693W        W88364  21.561   2.314   1.345
16694W        W88365  37.755  12.767  12.658
16695W        W88366  37.061  40.835  11.238
16696W        W88367  31.394   9.672   3.595
16697W        W88368  37.937  21.933   0.044
16698W        W88369  15.233   0.364   4.271
16699W        W88370  19.578  36.274   5.098
16700W        W88371  14.279  29.567   4.963
16701W        W88372  11.277  27.150   1.186
16702W        W88373  34.098  44.977  10.992
16703W        W88374  19.974  30.146   1.821
16704W        W88375  32.621  14.208   4.566
16705W        W88376   3.800  41.419  12.923
16706W        W88377   8.433  32.422   3.143
16707W        W88378  20.572  18.246  11.626
16708W        W88379  38.350  11.235   4.576
16709W        W88380   1.866  29.599   0.948
16710W        W88381  34.815  37.517   0.074
16711W        W88382  36.484  25.841   4.787
16712W        W88383  30.423  31.986   2.178
16713W        W88384  10.544  16.088  14.862
16714W        W88385  13.067  26.805  11.635
16715W        W88386  44.925   7.812   0.436
16716W        W88387   8.999   7.179  14.851
16717W        W88388   4.441  11.699   3.695
16718W        W88389  11.523  17.317   4.879
16719W        W88390  27.446  31.160   4.199
16720W        W88391  22.812  39.620  12.483
16721W        W88392  23.157   3.958  13.927
16722W        W88393  12.102  40.870  14.369
16723W        W88394   8.037  27.503  13.096
16724W        W88395  44.569  20.165   0.907
16725W        W88396  13.932  36.467   1.486
16726W        W88397  42.764  42.343   0.518
16727W        W88398  30.569  43.262  11.900
16728W        W88399   9.680   5.505  14.661
16729W        W88400  15.329  29.421   3.837
16730W        W88401  20.135  20.035  14.876
16731W        W88402  29.573  30.162   4.586
16732W        W88403  16.709   9.248   0.363
16733W        W88404  25.749   8.537   0.815
16734W        W88405  36.005   9.432  10.764
16735W        W88406  29.824   2.349  14.314
16736W        W88407   7.699   3.964   1.587
16737W        W88408   7.833  35.957   4.708
16738W        W88409  10.197  44.371   4.360
16739W        W88410  12.625  39.816  11.234
16740W        W88411  30.692  22.936   2.280
16741W        W88412  34.131  37.036  12.295
16742W        W88413  20.070   2.909  10.781
16743W        W88414  27.386  35.881   3.973
16744W        W88415   7.994  31.851   1.741
16745W        W88416  41.094  11.343   0.742
16746W        W88417  12.062   6.042   4.110
16747W        W88418  35.025  15.373   2.156
16748W        W88419  31.137  41.041   0.992
16749W        W88420  14.275   4.766   1.370
16750W        W88421  36.696  25.960   2.566
16751W        W88422   1.735  29.227  12.850
16752W        W88423  10.201  42.877  14.319
16753W        W88424   2.553  40.171   5.139
16754W        W88425  34.736  27.481   2.847
16755W        W88426  39.887   6.500   4.519
16756W        W88427  40.594  27.921   0.039
16757W        W88428   9.488   8.314   1.839
16758W        W88429  44.225  20.592  11.079
16759W        W88430  27.695  22.666   4.872
16760W        W88431  18.904  41.047   0.355
16761W        W88432  25.498  43.291  13.552
16762W        W88433   6.600  14.225  10.427
16763W        W88434   1.012  39.427  13.994
16764W        W88435  38.608  37.747  14.889
16765W        W88436   1.513  20.026   2.349
16766W        W88437  43.833  17.605  14.245
16767W        W88438  37.246   8.480   0.125
16768W        W88439  19.809   5.515  11.614
16769W        W88440  18.167  41.741  13.029
16770W        W88441   7.205  40.989  13.503
16771W        W88442  38.053   4.719   4.346
16772W        W88443   4.924  10.882  14.255
16773W        W88444  16.387  33.011  11.090
16774W        W88445  22.616  29.843  11.099
16775W        W88446  35.532   6.881  13.409
16776W        W88447   4.876  37.323  11.201
16777W        W88448   9.175  37.354  11.549
16778W        W88449  44.863  28.607  14.218
16779W        W88450  43.059  29.574  13.453
16780W        W88451   2.016  22.952  10.585
16781W        W88452  34.858  11.164   4.611
16782W        W88453  25.356   9.591  11.990
16783W        W88454  33.101  24.534  12.553
16784W        W88455  32.187  15.805   0.337
16785W        W88456   5.718  20.087   0.821
16786W        W88457  34.534  35.911  10.610
16787W        W88458   1.832   4.192  14.851
16788W        W88459  28.129  27.699  10.066
16789W        W88460   2.795  29.283   1.251
16790W        W88461  39.084  18.566   0.014
16791W        W88462  21.132   5.467   2.729
16792W        W88463   2.888  35.050  12.924
16793W        W88464  20.511   0.683   1.926
16794W        W88465  44.308  28.460   4.476
16795W        W88466  26.594  28.237   3.755
16796W        W88467  20.194  22.537   1.325
16797W        W88468  12.390   3.794  11.033
16798W        W88469   2.729   9.707   4.629
16799W        W88470  14.116  39.652   0.246
16800W        W88471  17.300  13.383   3.495
16801W        W88472   2.193  33.683   3.049
16802W        W88473  43.435   1.766  13.342
16803W        W88474   6.407   4.443   2.407
16804W        W88475  32.413  25.972  12.057
16805W        W88476  21.286  44.213   2.770
16806W        W88477  12.668  39.733   0.852
16807W        W88478   9.000  34.539  11.491
16808W        W88479  14.152  14.448   4.873
16809W        W88480   9.171  12.204  12.858
16810W        W88481  15.160  22.169   4.550
16811W        W88482  21.067  18.687  14.487
16812W        W88483  30.406  29.381  13.422
16813W        W88484   2.423   4.296  12.145
16814W        W88485   5.301  37.871   2.879
16815W        W88486  10.555  23.080  13.861
16816W        W88487  12.455  38.057   1.394
16817W        W88488   3.748  44.475   4.523
16818W        W88489  21.992  32.487   4.253
16819W        W88490  16.056   7.419   4.245
16820W        W88491  13.337  13.747   0.809
16821W        W88492  34.979   4.674   2.291
16822W        W88493  37.852  37.923  12.432
16823W        W88494  17.994  11.887  10.114
16824W        W88495  37.142  40.118  13.495
16825W        W88496  39.095  20.662   2.549
16826W        W88497  12.785  19.629   0.713
16827W        W88498  26.429   8.933   2.192
16828W        W88499  21.112  38.813  11.323
16829W        W88500   8.541  30.581  14.427
16830W        W88501  44.360  32.318  10.068
16831W        W88502   4.390  27.184  13.099
16832W        W88503  42.027  18.795  12.494
16833W        W88504  33.194  34.879   3.176
16834W        W88505  21.009   7.868  12.475
16835W        W88506  38.373  21.255   3.534
16836W        W88507   4.744  17.961  12.019
16837W        W88508  30.923  13.440   0.008
16838W        W88509  33.918  33.373  10.724
16839W        W88510   7.722   7.725  11.517
16840W        W88511  11.125  43.132  11.941
16841W        W88512  18.130  28.370   0.008
16842W        W88513  37.481  28.857   1.909
16843W        W88514  38.136  16.859   3.729
16844W        W88515   1.788  14.367   1.298
16845W        W88516  29.035   9.268   0.536
16846W        W88517  35.313  38.298   2.408
16847W        W88518  38.035  29.189  10.450
16848W        W88519  27.130  44.909  11.553
16849W        W88520   3.090  28.003   4.581
16850W        W88521  17.554  22.580   4.106
16851W        W88522   8.391  39.633  13.984
16852W        W88523  32.193  16.858   1.371
16853W        W88524   3.938   3.779   1.967
16854W        W88525  14.654  26.617  13.531
16855W        W88526  40.557  21.807   0.193
16856W        W88527  44.997  41.100   1.771
16857W        W88528  30.577  25.996  14.760
16858W        W88529  29.482   4.030  13.997
16859W        W88530  27.123  15.741  11.153
16860W        W88531  19.241  27.722   4.157
16861W        W88532  10.287  18.272  13.962
16862W        W88533  11.039   5.949  12.005
16863W        W88534  28.033  28.918  12.584
16864W        W88535  24.679   9.958   3.334
16865W        W88536  22.243  42.734  10.655
16866W        W88537  15.257   8.396   1.858
16867W        W88538  27.561  28.042   2.781
16868W        W88539  27.747  10.553  12.444
16869W        W88540   1.861  44.469  10.595
16870W        W88541  10.623  38.459   4.535
16871W        W88542  36.108  19.552  10.718
16872W        W88543   5.929  26.715  11.633
16873W        W88544  13.828   6.668  14.208
16874W        W88545   2.183   3.403  12.648
16875W        W88546  28.641  38.873   4.409
16876W        W88547  18.093  33.918  13.025
16877W        W88548   5.172  28.494  13.598
16878W        W88549  33.565   3.686  13.492
16879W        W88550  38.956   9.895  13.433
16880W        W88551  30.158   9.723   2.364
16881W        W88552   4.229   4.848   4.945
16882W        W88553  15.092  21.897   4.102
16883W        W88554  28.246  31.651   2.261
16884W        W88555  30.627  21.560   4.484
16885W        W88556  18.475  12.633  10.844
16886W        W88557  24.102  18.684   2.570
16887W        W88558  31.422  43.819   3.403
16888W        W88559  14.736  35.479  10.804
16889W        W88560  26.415  27.611  13.926
16890W        W88561  43.498   7.225  11.076
16891W        W88562  36.769  13.083   2.142
16892W        W88563  10.638  17.115   1.384
16893W        W88564  18.184  23.518  13.776
16894W        W88565  26.754   1.886  11.088
16895W        W88566  43.866  14.122   0.826
16896W        W88567   7.423   9.177   2.742
16897W        W88568   9.391  14.902  14.436
16898W        W88569  23.026  40.035  10.809
16899W        W88570  27.978  23.511  10.703
16900W        W88571  16.077  16.270  11.776
16901W        W88572  11.839  21.197  10.755
16902W        W88573  39.831   0.375   0.305
16903W        W88574  19.620  12.019  12.283
16904W        W88575  44.863   1.915   4.229
16905W        W88576  41.298  13.272  10.655
16906W        W88577  28.952  24.714   0.774
16907W        W88578  23.107   2.841  11.227
16908W        W88579  15.683  43.853   4.757
16909W        W88580   8.985   9.881  13.578
16910W        W88581  30.543  13.820   3.927
16911W        W88582  17.216   0.937   4.559
16912W        W88583   9.914   7.745  12.342
16913W        W88584  24.148   4.383   4.932
16914W        W88585  13.702  32.471   3.330
16915W        W88586  24.014   7.607  12.957
16916W        W88587  24.863  16.632   2.061
16917W        W88588  18.993  23.086   1.839
16918W        W88589  38.641  41.907   3.158
16919W        W88590  30.333   6.421  13.586
16920W        W88591  16.787  29.513  13.869
16921W        W88592  40.078  20.710  13.898
16922W        W88593  41.676   6.736   1.039
16923W        W88594  43.424  32.490  12.852
16924W        W88595  26.980  20.313  10.444
16925W        W88596  28.330   4.019   1.713
16926W        W88597  40.508  32.115  14.005
16927W        W88598  16.638   0.193   0.306
16928W        W88599  16.099  11.212   0.409
16929W        W88600  11.592  24.122  11.491
16930W        W88601   7.623  17.110   2.800
16931W        W88602   1.653  28.513  14.050
16932W        W88603   1.657  21.758   2.713
16933W        W88604  17.322   9.784  14.887
16934W        W88605  26.729  26.770  13.732
16935W        W88606  16.138  44.445  13.075
16936W        W88607  28.671  37.931   1.929
16937W        W88608   5.936  10.288  12.546
16938W        W88609  39.825  41.265  12.316
16939W        W88610  36.582  40.403   4.647
16940W        W88611  24.192   5.374  13.423
16941W        W88612   2.730  37.869   3.629
16942W        W88613  33.136  29.089  10.433
16943W        W88614  23.199  41.064   3.716
16944W        W88615  24.302  36.956   1.241
16945W        W88616   5.694  16.209   1.238
16946W        W88617  44.395  11.987  13.559
16947W        W88618   4.219  28.669  14.799
16948W        W88619  36.068  33.861   3.377
16949W        W88620  42.974  16.524  11.116
16950W        W88621  20.793  42.311   1.796
16951W        W88622  40.967   4.273   4.069
16952W        W88623  34.083  39.077   5.016
16953W        W88624  22.857   2.322  14.413
16954W        W88625  17.087  36.931   3.892
16955W        W88626  12.220  20.034  12.439
16956W        W88627  37.997   3.853   4.634
16957W        W88628  33.892  15.584  11.100
16958W        W88629  41.851  26.472   1.918
16959W        W88630  35.121  10.118   4.742
16960W        W88631  34.343   0.684   0.428
16961W        W88632  33.968  14.320   3.204
16962W        W88633  28.560   2.740  14.700
16963W        W88634   9.406  10.783   2.948
16964W        W88635   9.060   9.634  12.692
16965W        W88636   8.695  24.510  10.675
16966W        W88637  21.276   5.367  13.094
16967W        W88638  17.318  43.734   0.336
16968W        W88639  18.211  23.988   4.579
16969W        W88640  27.603   5.392   4.526
16970W        W88641  21.068  35.606  13.532
16971W        W88642  33.363  28.166   4.045
16972W        W88643  20.164  35.486  13.441
16973W        W88644  14.722  18.497   4.714
16974W        W88645   4.175  30.646  13.883
16975W        W88646  42.078  38.067   2.176
16976W        W88647  29.847  34.042   4.120
16977W        W88648  44.271  24.250  14.325
16978W        W88649  33.071  44.328   3.013
16979W        W88650  11.380  26.977  14.294
16980W        W88651  21.129  27.294  12.879
16981W        W88652  39.832   7.608   1.655
16982W        W88653  34.928  14.898  13.791
16983W        W88654  40.897  22.938  14.890
16984W        W88655  11.593  33.402   4.955
16985W        W88656  29.390  22.168  14.020
16986W        W88657  10.438  40.487  11.040
16987W        W88658   2.164  31.736  12.914
16988W        W88659  27.103  42.243  12.235
16989W        W88660  24.188  23.595   2.625
16990W        W88661  41.746  30.482   4.024
16991W        W88662   6.913  26.309   1.777
16992W        W88663  15.466  27.396   1.201
16993W        W88664  24.640   8.012  10.801
16994W        W88665  16.894   7.127  11.140
16995W        W88666   3.426   4.306  10.556
16996W        W88667   5.344   4.704   1.356
16997W        W88668  33.523  19.314  13.898
16998W        W88669  39.007   2.250   4.580
16999W        W88670  35.468   5.923   2.226
17000W        W88671  16.260  22.361   3.793
17001W        W88672  14.020  35.397   2.912
17002W        W88673  19.292   5.539  12.294
17003W        W88674  39.669  44.699  12.224
17004W        W88675   4.375   6.431  11.464
17005W        W88676  38.793  44.393   2.885
17006W        W88677  30.391  13.211   4.583
17007W        W88678  25.514  24.146  11.925
17008W        W88679  31.877  44.031  13.020
17009W        W88680  16.525  31.401   1.871
17010W        W88681  38.838  15.526   2.193
17011W        W88682  23.646  26.763   0.351
17012W        W88683  41.575  14.363   4.476
17013W        W88684  24.351  13.058   4.838
17014W        W88685  29.997   7.236  12.468
17015W        W88686  35.477  20.144  13.744
17016W        W88687  43.549  12.157  14.330
17017W        W88688   8.199  11.552   3.326
17018W        W88689  24.972   3.928   0.451
17019W        W88690  21.109  11.874  14.388
17020W        W88691  13.217   7.581  13.472
17021W        W88692   2.813  26.985   4.592
17022W        W88693  40.098  13.182  11.490
17023W        W88694   5.449  42.399  10.984
17024W        W88695   3.475  17.159   4.937
17025W        W88696  23.513  37.129  14.502
17026W        W88697   7.319  17.014  14.989
17027W        W88698  21.951   3.895  13.294
17028W        W88699  31.846  37.901   2.405
17029W        W88700   6.685  32.447   4.628
17030W        W88701  29.261  37.385  11.481
17031W        W88702   5.434  14.816  10.787
17032W        W88703  30.410   9.520   0.108
17033W        W88704   1.469  25.017   3.289
17034W        W88705  30.638  36.822  13.039
17035W        W88706  40.969  25.050  14.888
17036W        W88707  44.327   4.811   3.722
17037W        W88708  35.131  23.610   0.359
17038W        W88709  11.104  27.925  14.444
17039W        W88710  26.568   0.938   2.352
17040W        W88711   2.877  12.160   0.023
17041W        W88712  40.906  35.497   4.662
17042W        W88713  11.646  22.996   4.272
17043W        W88714  24.017  23.607  12.885
17044W        W88715  38.249  21.815   0.470
17045W        W88716  41.852  20.967   1.309
17046W        W88717  44.271  24.881   2.265
17047W        W88718   1.721  25.434   0.467
17048W        W88719  23.662  21.440   3.066
17049W        W88720  22.298  24.061  11.893
17050W        W88721   4.693  13.180  12.638
17051W        W88722  36.809   1.398  13.327
17052W        W88723  15.264  22.323   1.248
17053W        W88724  18.565  33.932   1.767
17054W        W88725  37.368  32.522  12.968
17055W        W88726  19.222  30.659  11.529
17056W        W88727  28.192  22.735  11.070
17057W        W88728  23.029   1.447   0.764
17058W        W88729  25.566  17.793  11.339
17059W        W88730  18.861  19.145  13.933
17060W        W88731  40.836  43.324   2.904
17061W        W88732  24.789  31.109   1.940
17062W        W88733  23.631  19.137   4.180
17063W        W88734  29.414   6.008   4.538
17064W        W88735  17.279   6.325  12.484
17065W        W88736  25.523  34.772  10.458
17066W        W88737  34.498  38.956   4.681
17067W        W88738  11.797  34.018  14.707
17068W        W88739  16.771  28.508   0.914
17069W        W88740  22.166  42.518   0.314
17070W        W88741  18.981  40.809  14.412
17071W        W88742  25.934  42.502   1.859
17072W        W88743   7.672   0.623   0.426
17073W        W88744   3.470  10.964  14.071
17074W        W88745  32.230  17.315   0.092
17075W        W88746   6.441  21.334  14.332
17076W        W88747  28.431  44.940   2.744
17077W        W88748  36.043  41.993   4.371
17078W        W88749  32.103   2.337   3.792
17079W        W88750  32.182  40.586  13.585
17080W        W88751  33.365  10.795  12.020
17081W        W88752  27.458   7.844   5.200
17082W        W88753   7.874  39.580  13.925
17083W        W88754   9.505  42.251   2.206
17084W        W88755  37.041  14.232   3.712
17085W        W88756  39.416  32.973   4.605
17086W        W88757  29.912  18.592   2.785
17087W        W88758   0.447   3.824  14.801
17088W        W88759  22.939  41.906  14.356
17089W        W88760   9.905   9.152   0.818
17090W        W88761  37.942  34.190   3.366
17091W        W88762  36.763  26.576   4.889
17092W        W88763  17.442  17.231   2.724
17093W        W88764  42.324  28.003   4.156
17094W        W88765   3.638  33.760   0.340
17095W        W88766  17.594  33.146   4.230
17096W        W88767  28.090  36.266   1.862
17097W        W88768  42.176  39.202   0.491
17098W        W88769  35.499  41.731   3.663
17099W        W88770  31.153  37.766  12.518
17100W        W88771  39.613  33.377   1.336
17101W        W88772  28.085  31.723   9.835
17102W        W88773   0.133  43.163  13.468
17103W        W88774  32.171  24.599   0.843
17104W        W88775  15.549  37.041   0.597
17105W        W88776  39.008  17.604  11.230
17106W        W88777   8.084  20.733   2.813
17107W        W88778   2.602  38.486   4.886
17108W        W88779  31.529   7.527   2.352
17109W        W88780  13.264  22.526  11.912
17110W        W88781  13.997   9.834   3.985
17111W        W88782  21.173  37.961   1.723
17112W        W88783  37.989   4.843  12.351
17113W        W88784  30.585  28.582   4.398
17114W        W88785  11.059  40.418  13.062
17115W        W88786  12.674  30.864  11.202
17116W        W88787  21.263  30.867  12.624
17117W        W88788  23.138   9.575  11.085
17118W        W88789  10.838   6.147  11.219
17119W        W88790  22.389  41.122   3.037
17120W        W88791  37.864  33.659   4.142
17121W        W88792  11.237   0.120  14.760
17122W        W88793  11.755  33.150  11.585
17123W        W88794  14.912  12.539   0.978
17124W        W88795   9.267  18.739  14.447
17125W        W88796  35.098  35.607  10.700
17126W        W88797  42.377   1.115   1.852
17127W        W88798  34.044  25.007  12.493
17128W        W88799   3.275  10.634   0.930
17129W        W88800  34.284   7.401   0.573
17130W        W88801  15.242   0.792  12.307
17131W        W88802  39.817  36.502  10.822
17132W        W88803  22.811  17.147   1.387
17133W        W88804  14.599   7.819   2.739
17134W        W88805  31.404  28.026  10.648
17135W        W88806  10.912  30.084   3.171
17136W        W88807  38.849  43.282   4.144
17137W        W88808  38.808  25.121   1.624
17138W        W88809  27.785  22.890  14.178
17139W        W88810  21.162  24.526  12.988
17140W        W88811  25.542  12.562  14.211
17141W        W88812  35.108   2.692  12.294
17142W        W88813  26.213  18.544  12.800
17143W        W88814   4.982  24.330   2.762
17144W        W88815   7.356  40.590   0.356
17145W        W88816  34.320  11.246   3.762
17146W        W88817  16.048   8.424   1.460
17147W        W88818  24.676   2.339   3.245
17148W        W88819  42.447  22.220   1.705
17149W        W88820  12.480  31.133   2.959
17150W        W88821  41.957   7.774   0.334
17151W        W88822  15.572  27.685  14.811
17152W        W88823   1.537  35.056   0.780
17153W        W88824  44.246  27.027  10.401
17154W        W88825  16.207  15.551   3.251
17155W        W88826  35.096  11.168   2.238
17156W        W88827   0.954  29.585   4.069
17157W        W88828   8.966   9.331  11.484
17158W        W88829  19.938  13.162   2.428
17159W        W88830  12.168   2.408  14.555
17160W        W88831  36.536  32.199  12.979
17161W        W88832   2.823  30.860   2.759
17162W        W88833  15.617  31.028   2.441
17163W        W88834  24.997  44.151  14.858
17164W        W88835  28.652  38.573  11.605
17165W        W88836  41.317   9.437  14.281
17166W        W88837  10.125  40.119  12.246
17167W        W88838   4.246  44.222   2.819
17168W        W88839  44.593  15.259  10.833
17169W        W88840  10.164  29.289   0.810
17170W        W88841  12.989  21.978  14.326
17171W        W88842  36.705  42.961   1.777
17172W        W88843  24.601  12.693  14.390
17173W        W88844   5.763   0.665  12.876
17174W        W88845  39.749   5.957   2.689
17175W        W88846  10.684  35.902   4.583
17176W        W88847  17.804  29.931  10.675
17177W        W88848  42.866   0.272   0.338
17178W        W88849   0.265  37.789   1.004
17179W        W88850  35.862  14.859   4.172
17180W        W88851   1.328  44.202  11.874
17181W        W88852  39.675  37.328   4.477
17182W        W88853  39.503  43.565  14.813
17183W        W88854  11.686   7.016  10.792
17184W        W88855  38.397  19.303  11.660
17185W        W88856   3.408  23.348   4.390
17186W        W88857  15.494  29.904  13.259
17187W        W88858  24.705  41.713  11.304
17188W        W88859  40.538  11.491  13.915
17189W        W88860  40.356  28.563   0.614
17190W        W88861  18.398  14.127   4.155
17191W        W88862  13.611  24.413   3.122
17192W        W88863  41.324  13.036  11.107
17193W        W88864  18.252  38.541   2.355
17194W        W88865  25.452  19.571   4.173
17195W        W88866  44.339  37.783  11.897
17196W        W88867  25.712  19.568   0.571
17197W        W88868   4.981  31.593  10.995
17198W        W88869  29.571  23.213   3.109
17199W        W88870   7.415  29.678  13.026
17200W        W88871  38.801  43.449   3.263
17201W        W88872   8.703  14.130   2.826
17202W        W88873  20.702  33.917  12.929
17203W        W88874  12.755  13.181   3.229
17204W        W88875   4.738  36.606  13.040
17205W        W88876  33.606  14.700  11.217
17206W        W88877   1.798  32.974   2.172
17207W        W88878  32.820  25.705  12.434
17208W        W88879  36.691  16.836   3.177
17209W        W88880  32.068  37.924   4.107
17210W        W88881  35.915  23.608   0.783
17211W        W88882  28.732  35.960  11.431
17212W        W88883   0.537   1.999  14.794
17213W        W88884  23.243   3.976   2.737
17214W        W88885  23.200  35.280   1.625
17215W        W88886  28.125   7.234   0.455
17216W        W88887  29.421  24.076   4.074
17217W        W88888   6.926   5.995  11.971
17218W        W88889  16.856  18.242   4.552
17219W        W88890   0.944  43.304  14.546
17220W        W88891  22.449  12.740   1.725
17221W        W88892   0.589  23.146  13.048
17222W        W88893  35.421   7.637   3.203
17223W        W88894   3.742  29.918  14.346
17224W        W88895   5.233   4.620  13.351
17225W        W88896  24.814  31.633  14.918
17226W        W88897  42.376   0.512  14.556
17227W        W88898  35.386  25.021   5.151
17228W        W88899  18.950   5.522  11.908
17229W        W88900  37.682   5.233   2.059
17230W        W88901  21.655  27.119  11.899
17231W        W88902  23.499  13.813   3.861
17232W        W88903  27.033   7.661  10.646
17233W        W88904  39.369  23.784   1.166
17234W        W88905   0.387  12.407  13.604
17235W        W88906  36.939  29.598   2.140
17236W        W88907  19.979  33.088   2.253
17237W        W88908  26.447  44.926   3.912
17238W        W88909  11.828  33.354   0.263
17239W        W88910  25.026  20.850   4.205
17240W        W88911  44.306  37.927  14.238
17241W        W88912  16.072  31.195  11.124
17242W        W88913   2.530  11.186  11.551
17243W        W88914  44.854   4.890   1.731
17244W        W88915  26.408  34.877   0.973
17245W        W88916   9.673  38.591  12.359
17246W        W88917  37.368  21.651   2.336
17247W        W88918  35.988   1.298   3.597
17248W        W88919  16.486  15.266   0.508
17249W        W88920   7.382  17.073  12.082
17250W        W88921  19.509   7.924   4.083
17251W        W88922  29.809   4.173   3.333
17252W        W88923  25.421   4.614  11.692
17253W        W88924  17.275   5.642  11.693
17254W        W88925   7.439  13.582   3.626
17255W        W88926  20.494  15.525   0.816
17256W        W88927  35.079   2.174  11.456
17257W        W88928  26.717  21.029   0.848
17258W        W88929  41.798  20.992  12.444
17259W        W88930  14.323  42.187  14.869
17260W        W88931  17.009  36.404  13.977
17261W        W88932  29.022   3.828  14.587
17262W        W88933  40.314  24.662   0.989
17263W        W88934   4.534  11.482   0.415
17264W        W88935   2.243  37.870   0.222
17265W        W88936  42.395   2.682  13.953
17266W        W88937  17.701  19.722   2.695
17267W        W88938  19.249  31.613  14.855
17268W        W88939   5.290  35.367   0.978
17269W        W88940  36.367  36.355   4.175
17270W        W88941  10.977  14.773  11.030
17271W        W88942   8.434  13.219   4.745
17272W        W88943   0.882  26.968  11.460
17273W        W88944  10.764  10.724   2.150
17274W        W88945   7.876  27.604   2.334
17275W        W88946   8.767  17.603  12.465
17276W        W88947  34.043  24.442   0.764
17277W        W88948  18.692  11.542  11.034
17278W        W88949  23.591   8.457   0.398
17279W        W88950  18.553  23.902  10.514
17280W        W88951  17.068  40.935  11.122
17281W        W88952  13.141  30.568   3.246
17282W        W88953  37.941  17.865   0.400
17283W        W88954  15.651  11.298  14.527
17284W        W88955   6.849   2.509   1.743
17285W        W88956  21.286  31.520   2.208
17286W        W88957  43.942  22.783  14.467
17287W        W88958   4.280  24.628  13.514
17288W        W88959  37.096  19.186  11.932
17289W        W88960  34.549   8.107   2.209
17290W        W88961  29.539  25.682   3.609
17291W        W88962   3.797  26.952  14.266
17292W        W88963  19.638  35.033  11.094
17293W        W88964  32.423  32.900  12.887
17294W        W88965  19.434  36.181  11.506
17295W        W88966  43.792   6.576   3.213
17296W        W88967   0.018  13.877   0.381
17297W        W88968  40.249  41.875  12.043
17298W        W88969   7.438  29.180   3.321
17299W        W88970  28.518  16.897  14.306
17300W        W88971  16.555   4.873   5.337
17301W        W88972  29.430  43.997   0.893
17302W        W88973  33.471  37.972  11.777
17303W        W88974  39.543  33.371   4.293
17304W        W88975   8.459  25.947  10.546
17305W        W88976  20.029  10.387   2.265
17306W        W88977  39.515  31.968   3.205
17307W        W88978  42.886  27.004   3.179
17308W        W88979  34.748   5.869  11.668
17309W        W88980  31.633   0.809   2.595
17310W        W88981   8.374  26.981  14.511
17311W        W88982  39.431  11.332   1.577
17312W        W88983  18.646  18.843  13.294
17313W        W88984  29.014  14.812  11.568
17314W        W88985  41.032   5.032   3.317
17315W        W88986   2.651  29.463  13.123
17316W        W88987  21.113  24.537   4.729
17317W        W88988  23.275  11.633   2.251
17318W        W88989  33.057  36.398   1.827
17319W        W88990   3.917  15.167   3.185
17320W        W88991  18.652  17.373  13.450
17321W        W88992  23.124   3.948  12.484
17322W        W88993  12.109  44.432   0.334
17323W        W88994  13.360  23.436   1.852
17324W        W88995  37.873  24.045  14.302
17325W        W88996  25.510  37.986   3.403
17326W        W88997  44.838  30.642   1.180
17327W        W88998  40.364  31.555  11.893
17328W        W88999  27.246  20.722  12.471
17329W        W89000  25.142  39.792   0.348
17330W        W89001  23.669  14.912  11.133
17331W        W89002  44.971  21.606  13.385
17332W        W89003  30.517   3.696   3.182
17333W        W89004  41.724  15.265  11.114
17334W        W89005  33.651  26.931   2.337
17335W        W89006  33.149   4.672  12.417
17336W        W89007  41.094  37.337   0.651
17337W        W89008  13.762  13.395   2.335
17338W        W89009   3.902   7.439  11.594
17339W        W89010   4.274  30.243   3.780
17340W        W89011  39.142   4.495   0.227
17341W        W89012   2.993  39.948  14.375
17342W        W89013   9.666  19.758   1.405
17343W        W89014   9.855  29.425   0.400
17344W        W89015  34.904  19.664  12.500
17345W        W89016  18.595  31.694  14.468
17346W        W89017  13.290  12.936  13.530
17347W        W89018   1.504  11.651   0.729
17348W        W89019   0.946  16.496  11.471
17349W        W89020  25.140  25.170  12.027
17350W        W89021  41.965  41.452   0.243
17351W        W89022  16.267  27.114   0.756
17352W        W89023  14.406  37.970  10.639
17353W        W89024  16.843   0.384  14.814
17354W        W89025  31.160  21.053  14.963
17355W        W89026  26.484   6.727  13.369
17356W        W89027  27.068  11.794   0.504
17357W        W89028   0.929  12.186  14.501
17358W        W89029  18.699   1.290  12.927
17359W        W89030  11.803  17.286   2.123
17360W        W89031   4.978  44.875  10.858
17361W        W89032  23.217  12.453   3.923
17362W        W89033   7.602  44.760  13.492
17363W        W89034  34.810  21.987  13.529
17364W        W89035  44.427  28.668  14.484
17365W        W89036  43.856   4.683  14.689
17366W        W89037  29.331  11.898  10.670
17367W        W89038  33.758   1.466   3.894
17368W        W89039   2.042   6.214   3.699
17369W        W89040  38.708  15.418   2.705
17370W        W89041  39.564   3.926  12.576
17371W        W89042  35.589  38.504   0.460
17372W        W89043  25.933  20.282  11.057
17373W        W89044  42.788  42.270  10.441
17374W        W89045  30.873  43.819   0.771
17375W        W89046  31.843   4.381   1.375
17376W        W89047  16.211  33.937  10.790
17377W        W89048  13.123   8.876   1.306
17378W        W89049  24.564   8.041   0.488
17379W        W89050  26.821  13.693   4.990
17380W        W89051   3.569  43.293   4.490
17381W        W89052   8.845   0.263   2.178
17382W        W89053  37.435  18.258  12.972
17383W        W89054  33.892  34.076   0.019
17384W        W89055  29.130  10.408  11.106
17385W        W89056  36.970  38.564  14.815
17386W        W89057  10.945  42.051   4.576
17387W        W89058  38.821  39.842  11.992
17388W        W89059  41.797   7.700  11.127
17389W        W89060  13.127   6.909   4.128
17390W        W89061  42.746  21.568  11.612
17391W        W89062  23.542  13.380  13.088
17392W        W89063  23.596  16.758  11.944
17393W        W89064  35.553  38.401  12.089
17394W        W89065  30.713   0.315  11.567
17395W        W89066  10.171  17.811  12.581
17396W        W89067  13.383  28.890   0.825
17397W        W89068  27.369   7.477  13.298
17398W        W89069  24.614  14.557   3.740
17399W        W89070   2.506   1.803   9.569
17400W        W89071   6.154  44.092  13.829
17401W        W89072   2.704  35.361   2.642
17402W        W89073  29.053  11.871   1.607
17403W        W89074   7.789  26.214   1.916
17404W        W89075  17.615  15.214   4.422
17405W        W89076  12.598  20.955   3.739
17406W        W89077  26.478  28.952  11.647
17407W        W89078  36.668  18.154  14.754
17408W        W89079  37.944  21.543  11.857
17409W        W89080  30.689  44.951   1.395
17410W        W89081   7.453  36.649   4.263
17411W        W89082  27.077  13.174   0.785
17412W        W89083  21.605  30.468   3.377
17413W        W89084  16.109  40.851   3.274
17414W        W89085   4.173  29.548   0.052
17415W        W89086   7.189  34.381  14.887
17416W        W89087  27.474  26.110  13.444
17417W        W89088   0.348   0.794  12.012
17418W        W89089  17.113  34.229   0.943
17419W        W89090  29.684  27.737  12.046
17420W        W89091  27.335  33.978   1.921
17421W        W89092  19.996  29.452  11.982
17422W        W89093  34.441  28.184  12.278
17423W        W89094   2.763  15.674   1.471
17424W        W89095  32.297  44.183  12.692
17425W        W89096  16.659  17.173  12.050
17426W        W89097  43.758   3.446  11.999
17427W        W89098  22.752  15.672  10.683
17428W        W89099  19.350   1.248   2.662
17429W        W89100  24.280  32.065  12.505
17430W        W89101  29.005  21.613   1.311
17431W        W89102  41.278   9.584  12.042
17432W        W89103  37.889  39.419   3.190
17433W        W89104  29.885   2.659  10.960
17434W        W89105  40.106  15.666  10.792
17435W        W89106  30.404   9.898   2.833
17436W        W89107  13.266  33.715  12.519
17437W        W89108  36.672  31.067  11.186
17438W        W89109  31.024  25.602  12.260
17439W        W89110  42.017   7.547   1.426
17440W        W89111  28.587   1.947   0.641
17441W        W89112  33.725   3.878  14.986
17442W        W89113  37.211   7.234   3.606
17443W        W89114  40.393  34.349  14.953
17444W        W89115  18.815  30.410   2.279
17445W        W89116  36.627  19.103   3.331
17446W        W89117  19.230  18.708   4.673
17447W        W89118  27.591  43.254   2.711
17448W        W89119  39.063  42.681   3.011
17449W        W89120  25.941  36.293   4.288
17450W        W89121  20.792  34.056  11.488
17451W        W89122  33.994  23.677  13.222
17452W        W89123  32.531  43.245   2.263
17453W        W89124  20.104  42.490   3.424
17454W        W89125  10.587  12.783  12.096
17455W        W89126   9.765  15.534   2.404
17456W        W89127  19.610  28.465   2.716
17457W        W89128  11.561  30.728   3.197
17458W        W89129  35.489  20.038   0.918
17459W        W89130   2.282   1.357   1.188
17460W        W89131  33.208   3.490   1.849
17461W        W89132   5.163   9.906  10.661
17462W        W89133  39.519  27.203   4.356
17463W        W89134  30.462  10.691  13.791
17464W        W89135  34.893  13.401  10.610
17465W        W89136  26.449  35.496   1.411
17466W        W89137  36.803  10.762  10.724
17467W        W89138  28.020   6.322  13.851
17468W        W89139  14.686   4.644  14.521
17469W        W89140  12.595  44.891   2.785
17470W        W89141  30.554  29.100   1.914
17471W        W89142  42.334  31.721   1.472
17472W        W89143   9.360  44.223   0.959
17473W        W89144  11.150  33.531  14.509
17474W        W89145   6.953   5.439   1.633
17475W        W89146  23.759  36.006   1.874
17476W        W89147  11.630   4.811  10.391
17477W        W89148  33.926  33.669  10.258
17478W        W89149   8.769   1.996   0.030
17479W        W89150  13.216  26.479  14.242
17480W        W89151  15.757  31.172   4.103
17481W        W89152  12.800  32.258  14.244
17482W        W89153  43.872  14.857  14.493
17483W        W89154  15.777  35.267  13.392
17484W        W89155   5.417  20.711  11.952
17485W        W89156  34.102  42.894  14.805
17486W        W89157  22.936  32.918   0.302
17487W        W89158  39.490   5.728  12.113
17488W        W89159  28.194  23.783  13.283
17489W        W89160  43.347  13.249   1.755
17490W        W89161  20.806  30.081   0.233
17491W        W89162   0.925   2.843  12.047
17492W        W89163  12.079  18.683   4.899
17493W        W89164  11.678   9.137   4.057
17494W        W89165  20.463  20.676   0.384
17495W        W89166  44.596   6.902   3.744
17496W        W89167  24.621  19.169  12.384
17497W        W89168  25.387  39.340   0.308
17498W        W89169  41.442  28.936   1.359
17499W        W89170  44.779  37.782   4.364
17500W        W89171  35.000  24.157   2.593
17501W        W89172  34.546  32.580   4.571
17502W        W89173  20.027  14.329  14.435
17503W        W89174  10.036  10.431  13.067
17504W        W89175  32.054   8.326  12.370
17505W        W89176  31.464  30.535   1.898
17506W        W89177  30.716   8.180  13.417
17507W        W89178   1.351   4.503  14.290
17508W        W89179  11.120  33.844  12.163
17509W        W89180  11.690   7.642   2.324
17510W        W89181  44.221  44.291   3.347
17511W        W89182  38.316  31.423   4.549
17512W        W89183  32.195  22.191  11.550
17513W        W89184  37.908  29.460   3.779
17514W        W89185  38.453  22.252  12.416
17515W        W89186  13.849  12.262  10.670
17516W        W89187  21.958  14.592  13.893
17517W        W89188  37.384   7.876  12.848
17518W        W89189  36.416  36.163  14.843
17519W        W89190   6.355  43.977  12.072
17520W        W89191  12.157  42.869  13.279
17521W        W89192   7.883  34.370  13.428
17522W        W89193  35.062  38.626   4.020
17523W        W89194  22.245  24.871  14.219
17524W        W89195  20.015  16.263   3.779
17525W        W89196   7.498  42.154  13.893
17526W        W89197  20.089  12.175   0.399
17527W        W89198   7.155  36.544  14.365
17528W        W89199   6.607   6.084   2.832
17529W        W89200   1.422   1.856  10.425
17530W        W89201   9.403  10.155  13.899
17531W        W89202  41.693  27.651   3.981
17532W        W89203  13.857  18.787  14.869
17533W        W89204  22.529  10.995   4.010
17534W        W89205  24.223  15.922  10.280
17535W        W89206  15.676   0.387  10.718
17536W        W89207   5.735  25.649   1.697
17537W        W89208  39.069  40.753   2.759
17538W        W89209  24.252  40.880   4.548
17539W        W89210  13.192   5.241  12.086
17540W        W89211  38.417   0.660   1.766
17541W        W89212  23.046  39.157  13.375
17542W        W89213  17.197  28.703   4.785
17543W        W89214   1.714   5.389   1.822
17544W        W89215  17.265  40.765  13.911
17545W        W89216   3.850  36.760   3.179
17546W        W89217  36.932  12.820  13.170
17547W        W89218  16.885  39.579  12.699
17548W        W89219   4.646  39.378  13.059
17549W        W89220  43.722   7.211  13.448
17550W        W89221  23.474  23.350   2.828
17551W        W89222  10.785  26.715  12.887
17552W        W89223  28.755  17.957  13.510
17553W        W89224  28.446  19.340  14.270
17554W        W89225  26.754   0.291   3.686
17555W        W89226  39.734  10.671  11.836
17556W        W89227  12.929   6.268  13.959
17557W        W89228  33.898   7.286  14.851
17558W        W89229  10.842  26.540  11.879
17559W        W89230  25.597  43.559  10.735
17560W        W89231  33.561  40.427  14.466
17561W        W89232   3.435  12.738   1.791
17562W        W89233   1.772  41.950   0.480
17563W        W89234   5.390  20.533  10.686
17564W        W89235  36.318  11.629   4.114
17565W        W89236  37.708  18.693  10.584
17566W        W89237   9.114  43.316  12.460
17567W        W89238  28.192  32.085   0.337
17568W        W89239  39.020  43.742   3.646
17569W        W89240  25.145   9.739  13.011
17570W        W89241  31.070  39.343   0.460
17571W        W89242  21.799  24.843   4.553
17572W        W89243   6.312  41.353  13.142
17573W        W89244  10.069  29.424   3.786
17574W        W89245  16.831  26.185   1.194
17575W        W89246  16.935  21.711   4.701
17576W        W89247  41.018  15.199   4.396
17577W        W89248  29.337  26.467   3.772
17578W        W89249  10.112  30.056  11.603
17579W        W89250  39.571  38.577  12.935
17580W        W89251   5.471  36.526   2.617
17581W        W89252  17.239  15.633   4.205
17582W        W89253  18.101  18.435   1.898
17583W        W89254  37.627   8.869   2.579
17584W        W89255  28.513  25.122  11.596
17585W        W89256   2.469  12.013  12.039
17586W        W89257  24.795  22.065  13.282
17587W        W89258  35.348  21.707  11.155
17588W        W89259  44.258  28.726  12.099
17589W        W89260  23.540   0.607   2.336
17590W        W89261  23.492  10.287  10.432
17591W        W89262  10.349  12.777   3.155
17592W        W89263  27.577   0.203   0.919
17593W        W89264  25.878  26.310  12.090
17594W        W89265  22.076  14.839   1.699
17595W        W89266  39.619  22.548   0.321
17596W        W89267   6.481  23.574  10.950
17597W        W89268  44.499   7.322   4.048
17598W        W89269  21.834  11.409   4.681
17599W        W89270  24.781  17.711  11.157
17600W        W89271   9.665   2.625   0.601
17601W        W89272  39.802  42.008  13.881
17602W        W89273  43.882  24.999   1.885
17603W        W89274  32.099  40.426   3.192
17604W        W89275  22.339  41.296  11.460
17605W        W89276  17.030  41.798  10.249
17606W        W89277   1.282   7.225  12.576
17607W        W89278   2.589  29.177  14.374
17608W        W89279  36.981   2.333   3.927
17609W        W89280   3.824  17.577  13.955
17610W        W89281  22.100  17.825  14.963
17611W        W89282  41.759  19.210   1.733
17612W        W89283  16.665  38.800   3.590
17613W        W89284  26.465  17.148   5.191
17614W        W89285  12.564  15.301   0.471
17615W        W89286  11.225  22.261  14.367
17616W        W89287   7.842   3.247   2.758
17617W        W89288   5.372  19.216  12.922
17618W        W89289  31.336  44.889  10.643
17619W        W89290   4.930  44.765   3.216
17620W        W89291   1.348  39.053  11.929
17621W        W89292  33.576  12.374   2.169
17622W        W89293  28.871  13.071   2.988
17623W        W89294  11.137  26.673  13.313
17624W        W89295  11.648  30.933   2.736
17625W        W89296  18.528  20.661  13.319
17626W        W89297  20.511  42.935  14.933
17627W        W89298  28.915  13.866  14.635
17628W        W89299  34.668   5.796   4.505
17629W        W89300  13.511  42.724   3.414
17630W        W89301  33.184   2.106  14.425
17631W        W89302  22.006  10.831   2.446
17632W        W89303  39.944  36.833   1.195
17633W        W89304  41.380   2.516  13.468
17634W        W89305  24.432  28.422  11.914
17635W        W89306  28.804  32.581  10.588
17636W        W89307  17.643   0.084   0.137
17637W        W89308  28.119  20.474   3.642
17638W        W89309  24.954   6.378   1.288
17639W        W89310  41.717  36.989   1.817
17640W        W89311  21.220  37.362  14.088
17641W        W89312  39.364  20.181  13.776
17642W        W89313   5.666  17.426  13.382
17643W        W89314  10.661  16.445   4.529
17644W        W89315   4.453  10.847   4.064
17645W        W89316  42.766  41.284   2.225
17646W        W89317  12.677   4.188  11.286
17647W        W89318  32.916   9.264   0.714
17648W        W89319  17.016   9.344  13.119
17649W        W89320  29.048   2.498   2.261
17650W        W89321  39.012   3.885  14.732
17651W        W89322  22.931  26.078  10.691
17652W        W89323  17.753  42.643   4.651
17653W        W89324  40.827  37.500  10.618
17654W        W89325  13.998  29.383   1.768
17655W        W89326  30.746   2.304  14.083
17656W        W89327   3.681  19.747  14.198
17657W        W89328  25.002  28.955  14.032
17658W        W89329  42.787  16.726   1.784
17659W        W89330  14.724  22.407  13.989
17660W        W89331  40.154  25.586   1.889
17661W        W89332  44.805  13.280  13.261
17662W        W89333  44.719   8.978   1.681
17663W        W89334  43.448  20.185   0.901
17664W        W89335  16.751  21.985  11.482
17665W        W89336   0.714  17.349  13.510
17666W        W89337  11.846  11.769   2.290
17667W        W89338   5.315  24.450   1.787
17668W        W89339  24.124  19.479   3.540
17669W        W89340  40.885  25.175  11.475
17670W        W89341  32.508  23.782   1.370
17671W        W89342  16.923  37.540   0.546
17672W        W89343  36.084   9.231   4.650
17673W        W89344  20.106  29.895   1.318
17674W        W89345  31.951  19.594   1.518
17675W        W89346  13.161  14.334   1.922
17676W        W89347  36.047  28.901   4.533
17677W        W89348  36.253  22.575  14.368
17678W        W89349  40.918  32.109   3.272
17679W        W89350   9.231  20.573   0.563
17680W        W89351  26.037  23.027  11.513
17681W        W89352  18.693  20.016  11.172
17682W        W89353  21.117  18.976  11.644
17683W        W89354   0.782  25.975  14.805
17684W        W89355   0.857  44.868   1.868
17685W        W89356  15.644  20.909   0.213
17686W        W89357  23.935   1.508   2.258
17687W        W89358  25.058  28.508   2.734
17688W        W89359  23.031  10.151  13.664
17689W        W89360  38.835   0.777   3.169
17690W        W89361  40.882  41.717   4.015
17691W        W89362   8.101  31.208  12.297
17692W        W89363  20.227  43.835  10.675
17693W        W89364   8.373  30.860   0.268
17694W        W89365  33.636  19.255   2.196
17695W        W89366  31.547  33.182  11.550
17696W        W89367  16.264  32.855  13.906
17697W        W89368  30.908  14.346  13.801
17698W        W89369  23.163   5.758   2.212
17699W        W89370  17.415   6.966   4.478
17700W        W89371  32.853  16.749  12.930
17701W        W89372  14.402  36.566  12.821
17702W        W89373  11.759   9.423   1.223
17703W        W89374  20.632  17.542  11.210
17704W        W89375  39.921  39.966  11.432
17705W        W89376  42.381  14.087   4.088
17706W        W89377   0.817   9.462   4.586
17707W        W89378  23.388  30.968   2.790
17708W        W89379  18.588  33.073   2.383
17709W        W89380  23.752   5.705  12.475
17710W        W89381  20.635   7.140   4.081
17711W        W89382  18.164  10.833  12.604
17712W        W89383  28.754  12.187   3.824
17713W        W89384  40.329  44.364   0.290
17714W        W89385   3.754   1.045   4.554
17715W        W89386  43.734  19.983   4.175
17716W        W89387   9.904  14.732  10.994
17717W        W89388  19.154  15.202   4.448
17718W        W89389  16.134  19.651   1.790
17719W        W89390  17.107  38.592   3.761
17720W        W89391  16.580  18.602  12.206
17721W        W89392  28.579  11.402   0.692
17722W        W89393  35.521   0.890  11.836
17723W        W89394  19.583  14.073  11.838
17724W        W89395  32.024  25.406   4.127
17725W        W89396  35.611   3.371  14.482
17726W        W89397  33.031  16.811  14.784
17727W        W89398  13.297   7.946   1.167
17728W        W89399  43.054  21.713   3.939
17729W        W89400  22.494  19.595  14.389
17730W        W89401  23.541   8.575  14.500
17731W        W89402   1.130  16.352   2.427
17732W        W89403   9.760  28.387   0.324
17733W        W89404  11.419  10.273   1.269
17734W        W89405   0.019  44.686   0.668
17735W        W89406   0.352  20.084  10.292
17736W        W89407  12.397  22.477   1.217
17737W        W89408   6.729   4.071  11.596
17738W        W89409  42.879   1.209  12.413
17739W        W89410  16.758  22.025  14.409
17740W        W89411  29.275  23.338  12.697
17741W        W89412  34.341   1.460   1.787
17742W        W89413  40.533   6.297  10.625
17743W        W89414   4.170  29.809  12.236
17744W        W89415  23.666   2.008   1.637
17745W        W89416  26.787  17.759  13.346
17746W        W89417  11.191  30.038   2.741
17747W        W89418   3.293  32.611  11.676
17748W        W89419   1.353  38.891  14.907
17749W        W89420   6.109  23.230   4.026
17750W        W89421  27.683   8.329   0.004
17751W        W89422  23.282   3.266   3.696
17752W        W89423  16.876  28.444  13.704
17753W        W89424  17.355   2.486   2.658
17754W        W89425  35.702  20.170   4.110
17755W        W89426  44.550  44.476  11.135
17756W        W89427   6.576  33.990   4.094
17757W        W89428  22.040  26.776   3.592
17758W        W89429   4.415  29.231  12.420
17759W        W89430  39.496  10.817   3.766
17760W        W89431   8.709  33.570  11.467
17761W        W89432  34.795  26.722   5.000
17762W        W89433   9.184  24.578  12.947
17763W        W89434  31.658  31.664   0.843
17764W        W89435  16.863   1.297   2.787
17765W        W89436  35.029  44.952   2.728
17766W        W89437  33.316  32.087   3.733
17767W        W89438  17.733  14.878   1.711
17768W        W89439  12.785   4.805   0.737
17769W        W89440  39.582   3.736   5.302
17770W        W89441  29.680  13.252   0.439
17771W        W89442  27.726  36.621  14.383
17772W        W89443  34.567  42.882  11.484
17773W        W89444  26.152  14.902   1.444
17774W        W89445  28.230  38.850   4.091
17775W        W89446  37.150   7.404   1.857
17776W        W89447  21.242  13.185   0.289
17777W        W89448   2.263   7.730  11.039
17778W        W89449  22.242  27.442  13.556
17779W        W89450  37.288  44.660  14.236
17780W        W89451  30.931  29.650  10.748
17781W        W89452   7.274  33.652  13.136
17782W        W89453   4.175  22.531  11.068
17783W        W89454   4.849  11.430   2.330
17784W        W89455  44.554   9.924  11.462
17785W        W89456   8.896  24.241  14.378
17786W        W89457  11.453  24.579  13.851
17787W        W89458  29.081  12.112   4.461
17788W        W89459  21.478  14.823  13.877
17789W        W89460  32.369  18.036   0.269
17790W        W89461  13.703  44.821   0.004
17791W        W89462  18.647  17.752   3.871
17792W        W89463  39.111  15.516   3.049
17793W        W89464  21.038   7.402  11.853
17794W        W89465  32.790  21.237   4.664
17795W        W89466  38.464  33.513   2.162
17796W        W89467  37.808  38.619   3.626
17797W        W89468  11.160  18.595  14.355
17798W        W89469   0.224  37.980   1.478
17799W        W89470  26.044   2.336  14.807
17800W        W89471   2.938  33.296  14.094
17801W        W89472  16.187  39.543   2.319
17802W        W89473  36.962  28.307  11.009
17803W        W89474  20.192  38.108  11.855
17804W        W89475  27.585  29.698  12.060
17805W        W89476   8.112  36.615  14.615
17806W        W89477  38.159  20.570  14.292
17807W        W89478  26.136  38.598   0.663
17808W        W89479  31.136  24.073  14.419
17809W        W89480   0.661  29.560   5.247
17810W        W89481  27.560  17.186  14.327
17811W        W89482  10.907  16.148   4.122
17812W        W89483   6.452  27.983   3.643
17813W        W89484  40.223  19.163   0.936
17814W        W89485  35.284  14.291  13.077
17815W        W89486  28.499  19.743   2.933
17816W        W89487  29.124  18.538  14.221
17817W        W89488   6.973  16.573   3.075
17818W        W89489   0.181  25.153   3.729
17819W        W89490  18.276  16.593  12.456
17820W        W89491   0.514  44.308   2.670
17821W        W89492  14.284   0.051   4.279
17822W        W89493   1.267  40.581  11.544
17823W        W89494  10.712  38.952   0.131
17824W        W89495   2.796  29.595   4.675
17825W        W89496  26.943   2.969   4.256
17826W        W89497  43.470  28.671  11.714
17827W        W89498  24.111  21.778   2.150
17828W        W89499  44.290  18.808   1.391
17829W        W89500   7.246  16.289  12.909
17830W        W89501  30.959  12.183   0.956
17831W        W89502  24.191  39.760   3.593
17832W        W89503  36.116  10.038   2.907
17833W        W89504  14.646   9.649   1.772
17834W        W89505  36.636  20.546  11.788
17835W        W89506  31.108  33.596  11.622
17836W        W89507  10.846   7.119  14.319
17837W        W89508  20.986   6.893   0.292
17838W        W89509   7.936  32.347   3.233
17839W        W89510  22.291   5.514   4.671
17840W        W89511  40.831  15.241   3.470
17841W        W89512  23.029  43.889   4.113
17842W        W89513  30.635  22.085  12.488
17843W        W89514  41.931  35.053   3.174
17844W        W89515  39.548  42.376   2.177
17845W        W89516  31.014  41.582  11.671
17846W        W89517  24.116  44.186  13.075
17847W        W89518  34.547   1.948  12.062
17848W        W89519  37.319  31.810   4.020
17849W        W89520   8.180   1.464  10.811
17850W        W89521  12.019   4.099  13.380
17851W        W89522   5.676  28.061   2.762
17852W        W89523   1.499  42.326  12.555
17853W        W89524  26.983   1.405  10.460
17854W        W89525  14.743  37.641   4.130
17855W        W89526  30.607   9.050   0.954
17856W        W89527  25.816  26.598  13.909
17857W        W89528  16.575   4.837  10.942
17858W        W89529  14.525   2.279  11.910
17859W        W89530   2.167  16.036  14.905
17860W        W89531  31.423  29.444  12.512
17861W        W89532  35.921  26.528  10.668
17862W        W89533  35.989  31.457   1.242
17863W        W89534  19.117  11.761  12.652
17864W        W89535  40.411  36.970   4.047
17865W        W89536  22.545   6.377   0.861
17866W        W89537  35.802  22.014   3.658
17867W        W89538   7.454   8.006  11.180
17868W        W89539  38.447  16.912   2.651
17869W        W89540   5.956  12.350   2.369
17870W        W89541  37.591  43.282   1.656
17871W        W89542  12.030  15.611   4.531
17872W        W89543  19.718  34.013  10.787
17873W        W89544   0.275   0.157   2.984
17874W        W89545  26.026  22.665  14.476
17875W        W89546  19.596  41.698  12.507
17876W        W89547  11.548  28.085   3.172
17877W        W89548  15.969  10.963   3.187
17878W        W89549  26.176  33.593   2.169
17879W        W89550   8.947  33.296   3.196
17880W        W89551   3.978   4.526   4.148
17881W        W89552   1.957  41.496   4.205
17882W        W89553   0.948  16.982   0.217
17883W        W89554   3.352   9.645  11.490
17884W        W89555  18.678  33.379   0.960
17885W        W89556  40.894  41.321   0.944
17886W        W89557   0.417  39.148   4.764
17887W        W89558  37.881  25.475   4.926
17888W        W89559   0.022   9.414  10.670
17889W        W89560  17.789   5.609  10.978
17890W        W89561  41.951  40.030   0.957
17891W        W89562  12.873  30.549   1.851
17892W        W89563  23.509  25.587  13.071
17893W        W89564   5.156  32.114   4.643
17894W        W89565  43.258  35.477  14.982
17895W        W89566  27.873  35.078   4.850
17896W        W89567   5.770  14.307  12.758
17897W        W89568  17.559  43.079   1.800
17898W        W89569  21.947  26.703   1.915
17899W        W89570  12.555   2.300  13.751
17900W        W89571  16.199  15.374  11.048
17901W        W89572  20.643  27.876   0.939
17902W        W89573   4.651  20.653   4.361
17903W        W89574  30.828  14.394   2.335
17904W        W89575  39.055  11.047   3.940
17905W        W89576   6.253  43.343   0.322
17906W        W89577  43.956  35.435   2.076
17907W        W89578  27.471   9.439   3.903
17908W        W89579  31.404  30.095  12.902
17909W        W89580  23.642   4.678  12.442
17910W        W89581   4.710  13.363  10.662
17911W        W89582  17.714   8.291   1.264
17912W        W89583  21.049  15.681  12.773
17913W        W89584   0.384  40.997   0.964
17914W        W89585  10.010  10.319   4.929
17915W        W89586  30.989  10.247   0.265
17916W        W89587  14.081  27.994  13.786
17917W        W89588  31.654  12.036  11.237
17918W        W89589  36.113  16.220   0.820
17919W        W89590  27.546   2.536  14.627
17920W        W89591  13.916  30.442   1.511
17921W        W89592   5.811  25.268   2.482
17922W        W89593  30.066  36.782   2.344
17923W        W89594  41.542  37.430  13.818
17924W        W89595  25.422  40.476   2.864
17925W        W89596   2.955  25.116  10.990
17926W        W89597   1.234  12.254  11.603
17927W        W89598  17.605  11.356  11.590
17928W        W89599  25.463  16.319   4.073
17929W        W89600   7.141  17.045  12.531
17930W        W89601  16.041  24.146  11.551
17931W        W89602   8.308   7.232   3.895
17932W        W89603   3.220  39.183  14.327
17933W        W89604   8.105  38.343   2.760
17934W        W89605  20.044  41.428   2.931
17935W        W89606  35.543   9.637  10.622
17936W        W89607  41.042  41.061   0.461
17937W        W89608   8.188  38.283   3.697
17938W        W89609  23.514  25.497   0.851
17939W        W89610  37.573  13.589  11.031
17940W        W89611   0.780   5.851   4.640
17941W        W89612  42.076  28.535   4.237
17942W        W89613  32.138  40.096   9.994
17943W        W89614  25.253  13.088  14.764
17944W        W89615  43.809   2.393   4.368
17945W        W89616   4.669   4.906  10.784
17946W        W89617  20.003  33.133  14.123
17947W        W89618  13.105  40.806  14.453
17948W        W89619   5.776   5.420   0.339
17949W        W89620  34.199   1.233  12.785
17950W        W89621   6.346  37.468   2.959
17951W        W89622  23.990  36.627   1.480
17952W        W89623  12.760  37.018   3.142
17953W        W89624  37.604  39.274   0.710
17954W        W89625  36.075  37.322   4.577
17955W        W89626   4.044  21.300   1.521
17956W        W89627   3.373  43.487  13.032
17957W        W89628  16.136  34.477   1.363
17958W        W89629  35.441  31.865  14.438
17959W        W89630  37.631  43.037  13.152
17960W        W89631   8.607   2.277  10.790
17961W        W89632   4.429  17.089  10.732
17962W        W89633  14.407  24.502   0.552
17963W        W89634  21.555  11.649  11.490
17964W        W89635  23.507  31.683  14.900
17965W        W89636  26.596  25.017  11.173
17966W        W89637  23.352  31.577   0.709
17967W        W89638  44.448  10.690   2.701
17968W        W89639  36.975  25.056   1.966
17969W        W89640  35.925   3.229  13.467
17970W        W89641   2.455  24.988  10.762
17971W        W89642  10.051   3.975   4.064
17972W        W89643   4.261  29.978  11.257
17973W        W89644   4.122   9.415   4.683
17974W        W89645   8.831  14.016  10.774
17975W        W89646  29.187  12.013  14.813
17976W        W89647  24.871  20.540   1.757
17977W        W89648  42.446  10.320   0.247
17978W        W89649   3.624  43.411  13.516
17979W        W89650  13.147  27.057   4.758
17980W        W89651  30.469  38.564  10.608
17981W        W89652  39.995  22.580   2.095
17982W        W89653  21.362   1.907   4.786
17983W        W89654  33.422  12.911  12.120
17984W        W89655  39.935  21.126  14.788
17985W        W89656   2.590  24.707   2.839
17986W        W89657  30.049  37.871  13.543
17987W        W89658  37.587  25.147  11.521
17988W        W89659  37.360  26.358   1.849
17989W        W89660  27.496  42.294  11.417
17990W        W89661  24.341  36.921   4.314
17991W        W89662  15.637  21.525   1.371
17992W        W89663  19.273  17.102   4.412
17993W        W89664   3.229  44.530   0.450
17994W        W89665  38.545  30.465   2.743
17995W        W89666  44.940  31.790  10.723
17996W        W89667  10.939  29.872   2.283
17997W        W89668  23.948   3.656   3.258
17998W        W89669  29.992   2.300   1.259
17999W        W89670   2.058  27.184   4.124
18000W        W89671   0.890  34.169   1.327
18001W        W89672  20.818  19.429  10.850
18002W        W89673  11.196  14.600   3.625
18003W        W89674  23.356   6.783   4.958
18004W        W89675  36.063  43.750  10.705
18005W        W89676  15.967  44.923  13.420
18006W        W89677  15.805   0.274   2.428
18007W        W89678  40.287  32.530   2.526
18008W        W89679  15.516  32.332   2.832
18009W        W89680  28.558  39.274   4.756
18010W        W89681  19.811  14.195   2.153
18011W        W89682  31.147  11.790  12.539
18012W        W89683  28.749  43.830  12.498
18013W        W89684  35.671   5.988   4.231
18014W        W89685   6.891  43.408   3.142
18015W        W89686  14.262  16.671  13.336
18016W        W89687  17.100  42.322   1.971
18017W        W89688  28.120  17.282   3.642
18018W        W89689  25.213  25.540   2.168
18019W        W89690  18.721  14.122   3.653
18020W        W89691  40.498  25.464   1.534
18021W        W89692  20.001  21.642  12.817
18022W        W89693  15.555  28.746  12.084
18023W        W89694  39.303  15.968  12.588
18024W        W89695  36.491  17.746   0.192
18025W        W89696   5.375   8.401   4.636
18026W        W89697  14.736  17.658   3.392
18027W        W89698  10.667  16.669  14.423
18028W        W89699   6.753  33.587   2.400
18029W        W89700  35.269  44.530   2.901
18030W        W89701   5.685  11.795   1.955
18031W        W89702  43.310  34.018  12.457
18032W        W89703  44.975  34.613   2.259
18033W        W89704  17.185  36.614  13.130
18034W        W89705  26.088  21.267  14.018
18035W        W89706   4.393   5.927  14.789
18036W        W89707   3.488  42.069  13.978
18037W        W89708  31.284   6.502   2.106
18038W        W89709  41.152   3.211  12.961
18039W        W89710  26.109   1.790   3.268
18040W        W89711  34.676  40.365   3.603
18041W        W89712  25.259  35.415  13.356
18042W        W89713  39.296   9.916  14.308
18043W        W89714  36.409   8.238  13.549
18044W        W89715  44.808  36.560  11.383
18045W        W89716  36.328  19.534   4.052
18046W        W89717  20.141   9.453  10.749
18047W        W89718  44.874  26.586   3.454
18048W        W89719   4.412  13.287  14.294
18049W        W89720  44.735   7.100  11.584
18050W        W89721  38.588  28.393   4.594
18051W        W89722  40.991   9.116  13.989
18052W        W89723  42.287   8.396  10.429
18053W        W89724  26.471  26.195  14.335
18054W        W89725  19.971  32.625  14.076
18055W        W89726   4.753   8.484   2.174
18056W        W89727  27.970  36.548   2.314
18057W        W89728   3.281  15.848  14.066
18058W        W89729  35.028  21.177   0.547
18059W        W89730   8.832  27.695  12.228
18060W        W89731   9.935  25.702   4.999
18061W        W89732  41.446  13.728  12.168
18062W        W89733  41.609  34.433  11.997
18063W        W89734  17.494  24.239  12.951
18064W        W89735  30.020  11.380   4.338
18065W        W89736   0.693  23.318   5.379
18066W        W89737  12.891  20.054   4.627
18067W        W89738  31.809  38.076   0.900
18068W        W89739  13.275  13.920   4.657
18069W        W89740   0.002  44.722  11.109
18070W        W89741  44.697  19.383  13.007
18071W        W89742   5.469   9.855   1.317
18072W        W89743  38.586   4.551  11.080
18073W        W89744  31.711  30.631   1.176
18074W        W89745   5.205  39.074  11.571
18075W        W89746  42.406  41.159   9.761
18076W        W89747  39.312  20.209  12.867
18077W        W89748  34.528  32.048   1.825
18078W        W89749  27.959  28.460  14.768
18079W        W89750  10.751   7.221   0.636
18080W        W89751  25.133   0.799   2.274
18081W        W89752  11.859   0.914   1.681
18082W        W89753  18.297  15.067  13.462
18083W        W89754  30.666  29.492   0.902
18084W        W89755  16.078  17.533   1.865
18085W        W89756  22.264  11.871   5.026
18086W        W89757  15.403   3.100   5.329
18087W        W89758  29.504  34.537  14.503
18088W        W89759  23.521   3.385   3.253
18089W        W89760   4.269  41.584   2.747
18090W        W89761   8.256  31.406  12.753
18091W        W89762  17.698   9.283   3.324
18092W        W89763  26.559   0.107   2.853
18093W        W89764  42.643  23.398  12.620
18094W        W89765   3.035  39.880  10.261
18095W        W89766  28.491  42.937   3.164
18096W        W89767  24.739  40.622   4.105
18097W        W89768  22.774  37.977  12.933
18098W        W89769  10.335  34.031  14.382
18099W        W89770   9.454  31.036   0.865
18100W        W89771  43.860  35.048   1.737
18101W        W89772  37.801  22.147  11.158
18102W        W89773  31.363   6.825   3.841
18103W        W89774  16.776  15.561   4.487
18104W        W89775  39.861  25.612   1.385
18105W        W89776  34.818  17.433   3.144
18106W        W89777  13.832  11.881   2.279
18107W        W89778  22.127   2.252   4.101
18108W        W89779  32.863   2.256   4.185
18109W        W89780  43.691  23.105   3.823
18110W        W89781  28.194  31.517  12.009
18111W        W89782  16.244  19.393  12.520
18112W        W89783  43.310  19.149  12.959
18113W        W89784  42.849  10.702  14.747
18114W        W89785   7.345  32.400   2.656
18115W        W89786  18.571   5.892  12.036
18116W        W89787  36.119  27.591  12.602
18117W        W89788   1.018  34.538  14.119
18118W        W89789  32.880   7.350  13.118
18119W        W89790  17.180   0.658   3.285
18120W        W89791  37.428  41.477   2.986
18121W        W89792   7.694  12.626   2.344
18122W        W89793   6.408  44.246   4.615
18123W        W89794  34.434  32.876  13.436
18124W        W89795  19.722   7.482  11.359
18125W        W89796  40.515  44.834  13.275
18126W        W89797  23.837  17.881   1.274
18127W        W89798  43.407  13.112   4.295
18128W        W89799   8.442  16.101   3.346
18129W        W89800  36.376  32.558   3.318
18130W        W89801   5.702  14.035  12.328
18131W        W89802  22.517  21.115  13.989
18132W        W89803  31.496  19.723   1.769
18133W        W89804  27.436  38.370   4.130
18134W        W89805  44.899  35.421  10.769
18135W        W89806  12.152   0.799  13.433
18136W        W89807  26.900  37.507   2.273
18137W        W89808  36.943  31.434  14.021
18138W        W89809  13.178   8.592   2.713
18139W        W89810  34.574  33.971  14.325
18140W        W89811  33.476  15.875  11.074
18141W        W89812  37.314  20.661  14.220
18142W        W89813  29.841   0.864   1.099
18143W        W89814  35.847  42.337  10.673
18144W        W89815  25.456   1.740  12.633
18145W        W89816  11.360  23.876  11.956
18146W        W89817   7.411  40.097   1.623
18147W        W89818   4.750  38.472  13.935
18148W        W89819  11.365  14.194   1.648
18149W        W89820  35.540  35.256  13.027
18150W        W89821   7.339  33.628   3.577
18151W        W89822  29.363  42.923   4.512
18152W        W89823  36.402  11.511  14.257
18153W        W89824  24.232  43.303  13.542
18154W        W89825  28.792  44.592   4.173
18155W        W89826   7.847   1.223  11.591
18156W        W89827  32.246   1.570   1.632
18157W        W89828  40.209  14.710   1.880
18158W        W89829  12.665  29.380   0.010
18159W        W89830  41.202   6.109  11.953
18160W        W89831  44.337  39.049  14.845
18161W        W89832   1.713  17.296  12.217
18162W        W89833  32.517  29.683  11.228
18163W        W89834  39.313  22.098  13.045
18164W        W89835   8.397  31.365  10.970
18165W        W89836  19.198  24.164   0.774
18166W        W89837  12.096  42.846  12.782
18167W        W89838   7.669  35.925  10.574
18168W        W89839  21.699  14.565   0.333
18169W        W89840  28.710  30.714   3.132
18170W        W89841  19.937  26.567   4.651
18171W        W89842  16.689  23.150   1.697
18172W        W89843  14.879  30.460  14.328
18173W        W89844  20.221  15.656  13.419
18174W        W89845  17.120  22.846  13.016
18175W        W89846  33.523  41.094  13.777
18176W        W89847  24.590   1.433   4.769
18177W        W89848   8.357   4.333   1.152
18178W        W89849  32.299  13.484   3.763
18179W        W89850   9.181  35.813  13.433
18180W        W89851   8.715   6.338   0.344
18181W        W89852  21.300  21.513  11.038
18182W        W89853  25.052  41.810  12.121
18183W        W89854   4.767  38.071   1.001
18184W        W89855  43.450  27.679  11.573
18185W        W89856  34.754  14.124   3.653
18186W        W89857  36.864  38.882   0.189
18187W        W89858  18.611  21.024  12.095
18188W        W89859  19.957  37.664   4.451
18189W        W89860  35.149  43.987  11.485
18190W        W89861  30.440  20.703   1.556
18191W        W89862  36.004   9.204   3.682
18192W        W89863  42.205  41.352  14.783
18193W        W89864   2.034  36.950  13.605
18194W        W89865  17.300  26.639  10.217
18195W        W89866  37.539  17.670  14.237
18196W        W89867  35.564  21.859   3.212
18197W        W89868  26.979   1.996   4.689
18198W        W89869  32.111  10.542   4.169
18199W        W89870  23.788  32.127   3.115
18200W        W89871   9.246  28.071   4.632
18201W        W89872  37.974  28.939   1.854
18202W        W89873   9.256  30.757   2.187
18203W        W89874   8.866  36.876  11.416
18204W        W89875  27.750  22.791  13.607
18205W        W89876  30.935   4.804   0.290
18206W        W89877   1.509  12.260  10.353
18207W        W89878  24.005  36.892   2.853
18208W        W89879  18.361  42.397   0.719
18209W        W89880  26.633  26.655   4.526
18210W        W89881  40.319  12.338   2.085
18211W        W89882  44.892  28.408   2.372
18212W        W89883  39.653   4.291  13.402
18213W        W89884  11.328  23.649  13.372
18214W        W89885  35.038  15.276   1.150
18215W        W89886  24.009   0.078   1.418
18216W        W89887   2.286  28.165   2.699
18217W        W89888  17.203  30.262   4.443
18218W        W89889  37.621  44.995  12.518
18219W        W89890  41.809  43.042   4.076
18220W        W89891  17.481   3.813   4.531
18221W        W89892  29.082  16.222   4.131
18222W        W89893  24.506  15.522  11.008
18223W        W89894  20.209   5.750  12.675
18224W        W89895  12.662  26.687   1.959
18225W        W89896   7.499  36.375  14.725
18226W        W89897  30.656  24.395  11.612
18227W        W89898   7.869   0.659  10.747
18228W        W89899  15.597  31.451  11.562
18229W        W89900  12.683   1.861  14.088
18230W        W89901  39.249  10.856  11.835
18231W        W89902   6.612   6.587   4.149
18232W        W89903  44.856  14.173   9.431
18233W        W89904   6.109  33.972  14.352
18234W        W89905   3.443  42.054  12.966
18235W        W89906  43.444  38.338   4.693
18236W        W89907  25.053  30.403  11.514
18237W        W89908  27.569   9.196  11.131
18238W        W89909  38.827  20.174   1.748
18239W        W89910  22.816  26.900  13.869
18240W        W89911   0.749   4.983   0.836
18241W        W89912  17.551  23.569   2.731
18242W        W89913  33.401  37.262   4.116
18243W        W89914  39.305  25.059   1.733
18244W        W89915   2.346  44.999   3.630
18245W        W89916  43.916  44.240   0.843
18246W        W89917  10.855   0.424   0.940
18247W        W89918  34.937  13.598  11.919
18248W        W89919  41.902  28.959   2.363
18249W        W89920   7.737  15.079  13.162
18250W        W89921  24.583   6.812   1.426
18251W        W89922  16.094  12.267   4.765
18252W        W89923   4.461  17.961  11.580
18253W        W89924   0.267   9.661   1.369
18254W        W89925  38.294  12.069   2.285
18255W        W89926  40.996  30.315   0.342
18256W        W89927   0.233   4.796  11.504
18257W        W89928  22.098  24.977   9.491
18258W        W89929  30.222  40.449  14.577
18259W        W89930  22.200  22.598   3.694
18260W        W89931  18.839  43.893   2.853
18261W        W89932  41.563   1.121  14.756
18262W        W89933  27.080  29.747  11.408
18263W        W89934  32.210  13.114   5.055
18264W        W89935  38.031   2.148   1.268
18265W        W89936   6.758  24.061  13.992
18266W        W89937  27.780   5.358  14.039
18267W        W89938  22.959  17.298  13.748
18268W        W89939  43.010   0.352  11.156
18269W        W89940   7.311  11.866  14.329
18270W        W89941   0.068  11.092  11.054
18271W        W89942  31.708  13.768   0.017
18272W        W89943   0.346  12.343  11.182
18273W        W89944  25.003   8.251   4.067
18274W        W89945   5.293  11.843  10.700
18275W        W89946   3.483  13.244   4.643
18276W        W89947  39.338  23.196  11.961
18277W        W89948  41.996  36.539   2.735
18278W        W89949  29.808  43.471  14.471
18279W        W89950  19.797  40.930  14.912
18280W        W89951  36.604  39.059   3.287
18281W        W89952  26.560   2.969   0.872
18282W        W89953   3.721  28.883   2.306
18283W        W89954  38.404  19.729   0.291
18284W        W89955  32.861  41.971   1.583
18285W        W89956   8.009   3.609   1.286
18286W        W89957  25.206   0.168  13.978
18287W        W89958  15.575   9.335  14.037
18288W        W89959  12.712  38.536  11.562
18289W        W89960  20.486  32.126  14.012
18290W        W89961  44.332  15.022   2.672
18291W        W89962  44.429   0.704   3.261
18292W        W89963   5.643   0.198   1.475
18293W        W89964  18.281   5.662  12.463
18294W        W89965  39.998  14.217  11.862
18295W        W89966   8.770  26.542   4.489
18296W        W89967  39.027   6.440   9.954
18297W        W89968  18.692  15.823   0.513
18298W        W89969  28.987  44.506  11.188
18299W        W89970  28.488  27.215   4.509
18300W        W89971   7.178  35.978  12.637
18301W        W89972   4.382   0.517   2.368
18302W        W89973  26.844  14.219  13.982
18303W        W89974  33.059   6.351   4.466
18304W        W89975  14.745  29.561   4.692
18305W        W89976  39.494   3.588  11.799
18306W        W89977  30.369   2.637   3.982
18307W        W89978   0.304  22.336  14.080
18308W        W89979  39.690  33.305  14.751
18309W        W89980  30.804   7.318   5.067
18310W        W89981   8.249  44.271   4.570
18311W        W89982  39.541  23.438   4.318
18312W        W89983  29.651   9.670   2.300
18313W        W89984  21.784   4.888   3.670
18314W        W89985   8.331   5.179   1.778
18315W        W89986  11.389   3.263  11.745
18316W        W89987  41.503  21.175   1.700
18317W        W89988  26.771  36.373  11.146
18318W        W89989  25.463  14.570   4.023
18319W        W89990  41.376   2.013   2.373
18320W        W89991  41.846   3.957   2.320
18321W        W89992  19.839  40.779  12.916
18322W        W89993   7.526  31.891   5.155
18323W        W89994  30.353  20.227   2.877
18324W        W89995  26.402   7.200  11.440
18325W        W89996  14.693  14.251  12.993
18326W        W89997   8.303  31.196   1.255
18327W        W89998  21.752  11.158  14.032
18328W        W89999  22.329  36.036   0.768
18329W        W90000  27.188  14.124   1.281
18330W        W90001  30.614   8.240  10.626
18331W        W90002  24.522  27.024   2.768
18332W        W90003  27.085   9.260  12.418
18333W        W90004   5.721  35.992  13.420
18334W        W90005  24.899  32.073  10.736
18335W        W90006  37.859  30.489  14.036
18336W        W90007  27.642  42.536   4.629
18337W        W90008  34.012  38.566   3.286
18338W        W90009  13.808   8.662   4.389
18339W        W90010  35.180  21.653  14.818
18340W        W90011  18.564  12.581  13.767
18341W        W90012  28.574  40.441   1.111
18342W        W90013  33.849  20.268   0.035
18343W        W90014  33.995   2.820  12.108
18344W        W90015   1.167  14.083  11.537
18345W        W90016  37.330  32.053   2.170
18346W        W90017  17.090   3.005  13.867
18347W        W90018  24.331   9.460  10.636
18348W        W90019  24.779  41.978  14.922
18349W        W90020  30.173   2.885  12.810
18350W        W90021  27.373  13.750   4.981
18351W        W90022  41.065  28.262   3.600
18352W        W90023  14.817  39.448   4.159
18353W        W90024   4.948  42.203  14.489
18354W        W90025  44.275  34.671  10.706
18355W        W90026   0.284  43.005   1.404
18356W        W90027  32.166   1.891  14.461
18357W        W90028  41.978  39.001  11.927
18358W        W90029  16.393  16.208  14.902
18359W        W90030  14.779  25.027   1.349
18360W        W90031  36.247  31.122   4.354
18361W        W90032  10.057  12.867   4.218
18362W        W90033  20.399   7.144   0.050
18363W        W90034  15.638  18.981   4.587
18364W        W90035  39.003   3.807   3.609
18365W        W90036   4.453  30.468  13.457
18366W        W90037  39.882  24.022   4.836
18367W        W90038   1.382   3.946  11.403
18368W        W90039  44.355  25.602  12.369
18369W        W90040   4.984   9.377  12.540
18370W        W90041   8.913  15.743   0.663
18371W        W90042   9.744  33.970   0.307
18372W        W90043  31.843  11.624   4.523
18373W        W90044  22.422  44.665  14.518
18374W        W90045  32.191  21.918  11.107
18375W        W90046   8.160  34.034  14.281
18376W        W90047  42.727  22.809  14.990
18377W        W90048  24.772  14.980   0.828
18378W        W90049  20.665  26.111   4.218
18379W        W90050  35.152  19.122   1.640
18380W        W90051  43.032  24.615  11.608
18381W        W90052  20.789  14.900  13.295
18382W        W90053  28.026  10.213   0.366
18383W        W90054  15.011  28.579  12.960
18384W        W90055   2.047  10.206  14.984
18385W        W90056  28.581   0.421   3.664
18386W        W90057  40.202  17.449   0.483
18387W        W90058  10.711  39.732   2.308
18388W        W90059   7.362  25.125  14.579
18389W        W90060  33.553   3.723  14.357
18390W        W90061  20.063   5.806  14.916
18391W        W90062   9.666  19.775   2.269
18392W        W90063  38.064  33.438  10.659
18393W        W90064   8.817   4.287   1.387
18394W        W90065  11.465  12.336   3.390
18395W        W90066   0.186   0.309  11.978
18396W        W90067  35.911  44.883  13.320
18397W        W90068  35.654  43.510   0.218
18398W        W90069  15.821  28.906  11.614
18399W        W90070  22.640   6.785  11.726
18400W        W90071  26.639  35.778   1.833
18401W        W90072  23.564  22.548  13.417
18402W        W90073  26.616  17.465  13.770
18403W        W90074  38.995  35.361   0.564
18404W        W90075  12.657  24.243   4.758
18405W        W90076  25.453  38.591   2.159
18406W        W90077   5.826  23.241   4.771
18407W        W90078  41.440   3.286  14.868
18408W        W90079  33.835   1.232   1.713
18409W        W90080  28.183  39.579   2.257
18410W        W90081  29.803  26.083   3.867
18411W        W90082  11.551  12.160   4.223
18412W        W90083  20.636   1.782  14.996
18413W        W90084  26.113  24.104   2.203
18414W        W90085  17.986   2.294  11.601
18415W        W90086  25.262  20.411   2.729
18416W        W90087  16.687  18.347  13.025
18417W        W90088  37.592  26.705   2.191
18418W        W90089   3.172  12.526  13.034
18419W        W90090  40.280  33.606   3.587
18420W        W90091  37.065  36.176   1.442
18421W        W90092   1.159  38.440  13.093
18422W        W90093  33.093   7.197   1.262
18423W        W90094   6.967  40.762  12.071
18424W        W90095  41.400  18.057   1.355
18425W        W90096  42.003   4.724  10.529
18426W        W90097  18.731  23.558   0.064
18427W        W90098   8.259  38.276  12.941
18428W        W90099  19.242  38.430  12.252
18429W        W90100  15.562  24.935   4.259
18430W        W90101  42.929  32.086   1.859
18431W        W90102  17.679  27.196   1.859
18432W        W90103  14.623  36.231  12.514
18433W        W90104   0.438  29.567  11.540
18434W        W90105  33.055  30.962   3.687
18435W        W90106  38.105  22.432  13.424
18436W        W90107  13.063  14.170   0.740
18437W        W90108  34.158   7.843   2.432
18438W        W90109  42.606  23.700   0.671
18439W        W90110  24.601  43.958   3.157
18440W        W90111  18.665  22.866   4.859
18441W        W90112   6.069   1.693   0.553
18442W        W90113  26.666  32.833   5.017
18443W        W90114   3.327   1.791  10.602
18444W        W90115  37.381   2.183  12.835
18445W        W90116  37.832   5.303  13.100
18446W        W90117  11.251  19.674   0.008
18447W        W90118  35.409  33.568  14.669
18448W        W90119  43.118  15.505  11.106
18449W        W90120  28.995  36.930  11.557
18450W        W90121  29.981  22.546  10.952
18451W        W90122   0.539  43.784  11.914
18452W        W90123   7.420   6.458  12.011
18453W        W90124  14.306  44.255  12.123
18454W        W90125   4.228  26.155  11.887
18455W        W90126  12.912   3.317  10.499
18456W        W90127  41.063  16.771  12.959
18457W        W90128   2.160  33.960  12.288
18458W        W90129  21.052  30.552  11.406
18459W        W90130  23.389  13.623   0.494
18460W        W90131  13.903  37.004   2.895
18461W        W90132  24.186  26.801   0.730
18462W        W90133  19.474  24.189  14.831
18463W        W90134  28.452  38.483  12.081
18464W        W90135  12.061  12.102   4.153
18465W        W90136   7.602  38.230   2.844
18466W        W90137   2.936   5.710  13.581
18467W        W90138  31.397  30.262   4.247
18468W        W90139  38.949  29.708  12.053
18469W        W90140   7.429  27.200  12.514
18470W        W90141  21.981  10.125  13.484
18471W        W90142  26.161  44.390  12.985
18472W        W90143  42.019  28.753   1.527
18473W        W90144   0.022  10.300   1.079
18474W        W90145  18.018  43.998  14.456
18475W        W90146  18.167  31.145  13.049
18476W        W90147   9.686  32.735  11.526
18477W        W90148  14.790  27.210   4.155
18478W        W90149  37.113  31.665  11.143
18479W        W90150  24.420  29.902  10.779
18480W        W90151  27.098  25.487  13.610
18481W        W90152  32.543   3.055  12.141
18482W        W90153   5.160  12.324  10.802
18483W        W90154   1.767   2.457  11.559
18484W        W90155   5.953  39.984  14.458
18485W        W90156  43.596  38.970  12.783
18486W        W90157  35.073  43.276   4.515
18487W        W90158   6.411   7.092   4.235
18488W        W90159   6.156  11.119  11.545
18489W        W90160   5.890  31.423  12.950
18490W        W90161  21.784  14.760  14.822
18491W        W90162  14.677  18.020   0.212
18492W        W90163  34.131   9.490  11.203
18493W        W90164  20.722   8.203   3.108
18494W        W90165   6.769  34.449   1.742
18495W        W90166  19.672  23.479   5.535
18496W        W90167  15.327  21.247   0.497
18497W        W90168  43.567  41.013   2.838
18498W        W90169  29.690   5.908  13.917
18499W        W90170   8.149  19.244   4.231
18500W        W90171  37.102  29.757   1.121
18501W        W90172  31.686  39.449   3.135
18502W        W90173  18.046  25.727  10.223
18503W        W90174   8.321  14.184   4.328
18504W        W90175   1.207   5.273   1.913
18505W        W90176   2.938  42.456   3.313
18506W        W90177  26.654  33.301   1.299
18507W        W90178  28.064  30.559   0.945
18508W        W90179  37.125   2.075  14.436
18509W        W90180  32.527   5.769   0.243
18510W        W90181   1.698  23.411   4.241
18511W        W90182   7.722  36.433   1.106
18512W        W90183  35.507  29.104   3.804
18513W        W90184  11.809  43.795  12.140
18514W        W90185  12.708  20.693   0.170
18515W        W90186  39.382  12.696   0.622
18516W        W90187  26.074  20.481  14.392
18517W        W90188  26.132  11.112   0.807
18518W        W90189  41.376  16.869   2.676
18519W        W90190  20.865  17.601   3.711
18520W        W90191  42.440  21.702   1.582
18521W        W90192  20.245  35.353  13.929
18522W        W90193  19.851  44.605   0.944
18523W        W90194  15.741   4.390  14.340
18524W        W90195   5.315  18.347  10.829
18525W        W90196  39.002  43.949  14.735
18526W        W90197  21.612  21.982   0.274
18527W        W90198  20.541  23.543  11.609
18528W        W90199  15.030  19.519   2.701
18529W        W90200  37.025   8.741   2.248
18530W        W90201  43.291  37.547   2.385
18531W        W90202  26.485  32.193   0.498
18532W        W90203  24.158  11.079  11.208
18533W        W90204  22.993  40.840   4.241
18534W        W90205   8.358  32.297  13.091
18535W        W90206  28.444  37.474   3.060
18536W        W90207  39.789  21.631  11.574
18537W        W90208  31.920   8.096  11.919
18538W        W90209  43.006  23.544  11.644
18539W        W90210  21.270  27.956   2.137
18540W        W90211  24.259   4.753  10.197
18541W        W90212  32.853  35.382   2.353
18542W        W90213  17.603  40.842   1.663
18543W        W90214  29.622  42.523   4.735
18544W        W90215   1.174   8.170  11.264
18545W        W90216  36.465   5.746   4.517
18546W        W90217   7.873  11.172  14.437
18547W        W90218  25.192   4.974  11.950
18548W        W90219  44.123  27.664   0.197
18549W        W90220  30.313  32.445  13.610
18550W        W90221   8.142  40.075   4.579
18551W        W90222  10.714   3.111   3.222
18552W        W90223  14.683  31.356   1.595
18553W        W90224  19.520  26.888   4.562
18554W        W90225  18.220  39.587   2.399
18555W        W90226  18.808  14.252  13.106
18556W        W90227  26.682   3.202   3.828
18557W        W90228   6.515  41.552   1.229
18558W        W90229  44.337  31.650  11.116
18559W        W90230  38.219  36.468   2.786
18560W        W90231  34.642  25.082   4.608
18561W        W90232  39.518  35.586   3.352
18562W        W90233  18.221   6.680   4.423
18563W        W90234  28.654  25.486  10.657
18564W        W90235  16.620  44.685   2.057
18565W        W90236  35.783  31.712  12.374
18566W        W90237  12.405   1.827   4.150
18567W        W90238  28.982  22.319   0.691
18568W        W90239  14.250  27.139   0.601
18569W        W90240  27.055   4.386  14.229
18570W        W90241   5.298   6.921  14.978
18571W        W90242  29.922   1.084  13.809
18572W        W90243  22.293  25.958   0.998
18573W        W90244  23.795  13.734   2.388
18574W        W90245  11.734  18.784   3.202
18575W        W90246  39.885  24.940   0.953
18576W        W90247  42.755  44.009   4.118
18577W        W90248  37.476   8.475   2.861
18578W        W90249  25.828  18.139  13.958
18579W        W90250  14.619  27.577   1.482
18580W        W90251   2.856  14.670   4.903
18581W        W90252   0.737   4.946   4.048
18582W        W90253  33.674  33.551   0.738
18583W        W90254   4.991  35.793  13.859
18584W        W90255  36.401  23.181  12.556
18585W        W90256  11.156  33.229   3.197
18586W        W90257  10.182  25.705  13.319
18587W        W90258   2.736   9.098   3.737
18588W        W90259  20.731  25.129   2.739
18589W        W90260  22.212   1.191   0.254
18590W        W90261   5.410   2.914   2.652
18591W        W90262  10.924  31.427   3.404
18592W        W90263   8.627  21.448  13.990
18593W        W90264  26.707  42.240  13.985
18594W        W90265  26.436  44.591  12.601
18595W        W90266   3.646   6.451  12.690
18596W        W90267  24.013   8.872   2.379
18597W        W90268  42.357   0.542  11.976
18598W        W90269  32.165   9.826  14.458
18599W        W90270  16.085  31.060   4.510
18600W        W90271  20.653  39.850  12.965
18601W        W90272   9.961  33.189  11.178
18602W        W90273  32.082  35.455   3.643
18603W        W90274   5.786  35.892   0.367
18604W        W90275  15.416  31.218   3.238
18605W        W90276  36.852  34.594  13.097
18606W        W90277  22.259  31.722  12.971
18607W        W90278  19.715  39.944   3.274
18608W        W90279  29.536   5.662  12.329
18609W        W90280   1.251  23.179   1.882
18610W        W90281  10.949  22.683  14.480
18611W        W90282  16.149  19.267   3.451
18612W        W90283  34.452  38.300   9.833
18613W        W90284   9.862   2.859   2.294
18614W        W90285   8.068  16.630  11.602
18615W        W90286   6.382  30.477   4.931
18616W        W90287   0.255  27.654  12.508
18617W        W90288  31.972   0.049  10.250
18618W        W90289  25.505  22.370  10.871
18619W        W90290  16.039  15.135   0.249
18620W        W90291  23.556  34.355   2.391
18621W        W90292  26.462  21.034   1.311
18622W        W90293  16.753  11.267  12.980
18623W        W90294  20.261  32.346  14.434
18624W        W90295  14.015  10.811   4.460
18625W        W90296  15.652   4.937   3.680
18626W        W90297   5.744   8.412  12.685
18627W        W90298   3.451  30.401  13.394
18628W        W90299   8.863  32.183   2.748
18629W        W90300  41.296  10.849  14.864
18630W        W90301   1.330  44.185  11.358
18631W        W90302  26.932  15.078  13.482
18632W        W90303  23.279  29.546  10.613
18633W        W90304  25.959  10.240  12.461
18634W        W90305  18.723  29.692  12.142
18635W        W90306   9.339  44.888  13.245
18636W        W90307  13.141  29.469   3.954
18637W        W90308  23.378  33.348   3.600
18638W        W90309  44.844  28.539   1.247
18639W        W90310  29.696   7.664   4.208
18640W        W90311  20.230  30.668   0.807
18641W        W90312  28.095  34.331  13.015
18642W        W90313  13.564  42.942   4.243
18643W        W90314  10.922  37.309   1.510
18644W        W90315  37.354   9.624   4.110
18645W        W90316  27.433  38.540  12.007
18646W        W90317   1.888  42.840  11.946
18647W        W90318   5.362   6.183   0.502
18648W        W90319  36.271   9.096   2.518
18649W        W90320   2.113  35.889   1.402
18650W        W90321  35.246   4.754   9.908
18651W        W90322  18.266   8.410  12.130
18652W        W90323  15.626  15.319  13.461
18653W        W90324  39.941   8.414   4.041
18654W        W90325  37.661  38.728   2.115
18655W        W90326  42.564  19.843   1.843
18656W        W90327  13.537  22.059  12.062
18657W        W90328  21.489  10.212   0.306
18658W        W90329  11.125  23.013   2.774
18659W        W90330  19.772  30.033   0.452
18660W        W90331   0.357  43.882  13.331
18661W        W90332  24.714  19.942   0.913
18662W        W90333  38.089  32.878   0.756
18663W        W90334  18.088  14.431   4.449
18664W        W90335   1.046  23.680  12.319
18665W        W90336  36.382   7.138  11.676
18666W        W90337  27.730   0.902   4.714
18667W        W90338  16.677  31.536  11.624
18668W        W90339  44.545  35.989   3.116
18669W        W90340  10.293   9.370  13.014
18670W        W90341  37.841   3.273   2.858
18671W        W90342  25.561  30.008  11.597
18672W        W90343  29.490  34.081  12.827
18673W        W90344   3.980  13.660   2.398
18674W        W90345  26.468  10.072  12.501
18675W        W90346  21.033   9.569  11.528
18676W        W90347  23.262  11.848   2.717
18677W        W90348  27.727  14.326  14.989
18678W        W90349  36.377  40.017   0.511
18679W        W90350  33.521  40.304   2.382
18680W        W90351   1.491   2.753  14.786
18681W        W90352  25.729  28.099   3.702
18682W        W90353  28.501  38.831   3.430
18683W        W90354  26.330  40.068   0.422
18684W        W90355   7.382  38.471  10.428
18685W        W90356   1.727   3.157   2.531
18686W        W90357  31.064  27.965   0.245
18687W        W90358  21.078  41.922   2.218
18688W        W90359  44.796  35.181  14.421
18689W        W90360  32.807   6.341  13.040
18690W        W90361   0.856  29.648   0.717
18691W        W90362  27.596  31.158   3.195
18692W        W90363   3.330  11.779  13.571
18693W        W90364  34.554   4.789   3.763
18694W        W90365   3.509  35.280  10.738
18695W        W90366  18.004   9.164  11.360
18696W        W90367  33.591   3.397  10.602
18697W        W90368  29.395  16.551   1.193
18698W        W90369  25.004  19.104  12.058
18699W        W90370  20.906  38.157  10.690
18700W        W90371  21.734   9.994  11.512
18701W        W90372   7.288  30.137  11.666
18702W        W90373  41.593   6.888   3.186
18703W        W90374  39.795  22.019  14.412
18704W        W90375  31.919  31.409   0.378
18705W        W90376  13.162  20.133  12.644
18706W        W90377  26.555   9.963   0.552
18707W        W90378   7.226  29.319  11.178
18708W        W90379  32.209  15.540  14.423
18709W        W90380   6.705  16.525  11.575
18710W        W90381  34.326  32.207  10.617
18711W        W90382  18.311  12.081   1.763
18712W        W90383  11.371  37.203  14.476
18713W        W90384  30.099  29.633   3.357
18714W        W90385  23.932  18.196  12.062
18715W        W90386   3.390  23.532   3.084
18716W        W90387  26.403  38.486   4.106
18717W        W90388  36.179  25.968   4.259
18718W        W90389  34.455  22.311  11.409
18719W        W90390  12.178  21.446   0.320
18720W        W90391  34.991   0.942  11.032
18721W        W90392  36.559  34.199  14.952
18722W        W90393  29.404  11.716   3.858
18723W        W90394  34.638  38.294   4.146
18724W        W90395  42.863  43.716  14.344
18725W        W90396   4.862  12.656  11.450
18726W        W90397  44.406  10.903   4.623
18727W        W90398  31.805  39.030   4.872
18728W        W90399   4.849  21.134   4.631
18729W        W90400  14.783  41.422   1.943
18730W        W90401  28.663  10.732  13.042
18731W        W90402  12.645  34.091  13.606
18732W        W90403  26.771  13.635  11.556
18733W        W90404  36.269  23.681  12.598
18734W        W90405  43.433  38.164   1.433
18735W        W90406  21.170   9.112  13.297
18736W        W90407   7.601  13.318  10.892
18737W        W90408  11.201   0.296   3.610
18738W        W90409  35.855  19.700  12.458
18739W        W90410   9.797  23.976   4.542
18740W        W90411  39.336  14.858  11.978
18741W        W90412   7.812  13.804   4.540
18742W        W90413  39.913   3.120  11.086
18743W        W90414  22.276  17.590  12.473
18744W        W90415  28.106  16.584   0.799
18745W        W90416   6.040  35.915  11.930
18746W        W90417  36.386  26.418   2.684
18747W        W90418  41.997  20.113   3.793
18748W        W90419   0.088   3.087   0.828
18749W        W90420  39.392  23.812  12.317
18750W        W90421  37.414  21.146  14.438
18751W        W90422  36.162  31.142   3.865
18752W        W90423  41.265   5.363   1.455
18753W        W90424  31.942   5.729   0.657
18754W        W90425   1.201   3.504   1.790
18755W        W90426  25.754  33.513   1.285
18756W        W90427  39.293  40.573   2.325
18757W        W90428  30.443   4.693  11.122
18758W        W90429  16.659  23.659   1.693
18759W        W90430  10.699  30.664  10.913
18760W        W90431  25.146  44.856  14.377
18761W        W90432  19.476  14.790   5.682
18762W        W90433  28.556  18.870  10.779
18763W        W90434  16.584   7.761  10.658
18764W        W90435   2.945  33.119  13.341
18765W        W90436  26.454  23.927  11.017
18766W        W90437  38.866  22.461  13.900
18767W        W90438   3.408   4.356  12.633
18768W        W90439  16.753   4.045  10.663
18769W        W90440  40.054  39.438   4.162
18770W        W90441   8.105  14.727  14.854
18771W        W90442  39.310  21.499   4.334
18772W        W90443  36.565  30.367   0.737
18773W        W90444  12.895  28.143  10.735
18774W        W90445  20.988   8.655   3.230
18775W        W90446  19.582  29.671   0.058
18776W        W90447  13.880  12.823  12.695
18777W        W90448   0.521   6.804   3.279
18778W        W90449  10.670  38.117  11.111
18779W        W90450   6.140  37.317  11.059
18780W        W90451  14.838  44.977  11.638
18781W        W90452  15.716  17.584   1.250
18782W        W90453   6.148  33.643  13.399
18783W        W90454  42.709  10.874  11.511
18784W        W90455  22.405   8.649   3.197
18785W        W90456   6.590  19.485  10.358
18786W        W90457   7.305  10.613  14.004
18787W        W90458  44.338   7.350  14.492
18788W        W90459  44.113  29.854   2.561
18789W        W90460   3.779  26.326  12.374
18790W        W90461  32.323  11.676  11.529
18791W        W90462  40.101  22.489  11.936
18792W        W90463  43.455  21.759   2.622
18793W        W90464  31.908  14.836  11.439
18794W        W90465   8.384  44.944  14.665
18795W        W90466  25.826  37.868  12.163
18796W        W90467  29.851  32.364  13.303
18797W        W90468  16.543   2.541  14.484
18798W        W90469  10.355   5.722  12.520
18799W        W90470  15.568  24.369   2.302
18800W        W90471  38.528  28.258   3.845
18801W        W90472  31.565  43.726  14.449
18802W        W90473  16.012  27.296   0.310
18803W        W90474   2.406  31.019  14.903
18804W        W90475  31.411   1.919   1.306
18805W        W90476  29.265  21.157   1.298
18806W        W90477  34.994  16.618   2.242
18807W        W90478  37.881  16.093   3.362
18808W        W90479  38.284  44.696   4.181
18809W        W90480  43.240  14.272   5.184
18810W        W90481   3.882  21.370   0.526
18811W        W90482  13.645  30.679   3.457
18812W        W90483  37.134  28.714  14.383
18813W        W90484   0.254   0.036   2.132
18814W        W90485   5.914  38.240  14.535
18815W        W90486  11.317  28.513   3.599
18816W        W90487   3.611  27.904   2.578
18817W        W90488  24.645  16.681   3.115
18818W        W90489   7.989  27.200   2.654
18819W        W90490   1.134  33.450   0.286
18820W        W90491  35.579   1.242  11.456
18821W        W90492  24.093  36.098  12.094
18822W        W90493  25.440  30.208   2.357
18823W        W90494  25.244  21.167  14.805
18824W        W90495  32.111  30.641   4.630
18825W        W90496  29.339  42.860   2.672
18826W        W90497   5.824   5.388   4.450
18827W        W90498   4.921  22.125   2.921
18828W        W90499  41.855  18.241  10.314
18829W        W90500   7.100  14.688  12.018
18830W        W90501  30.074  41.831   0.558
18831W        W90502  11.225  18.897   3.103
18832W        W90503  11.402  22.123  12.361
18833W        W90504  18.221  31.882  10.753
18834W        W90505  20.736   3.918   4.628
18835W        W90506  42.501  22.005  11.964
18836W        W90507  17.870  44.512  10.907
18837W        W90508  31.681  21.081  14.986
18838W        W90509  32.588   3.823  12.825
18839W        W90510  44.734  10.825  13.082
18840W        W90511   0.323  16.984  13.549
18841W        W90512  23.912  19.668  13.311
18842W        W90513  35.531  29.873  11.087
18843W        W90514  38.415  41.039  14.730
18844W        W90515  13.336  33.999   4.153
18845W        W90516  14.143   6.198   1.200
18846W        W90517  44.888  29.641   3.139
18847W        W90518  35.304  39.251  11.970
18848W        W90519  16.785  26.959   0.035
18849W        W90520  16.300   4.390  10.692
18850W        W90521  35.075   5.926   3.091
18851W        W90522  32.680  40.073   3.818
18852W        W90523   8.228   3.329   3.686
18853W        W90524  27.083  44.668   1.165
18854W        W90525   4.641  26.057   1.220
18855W        W90526   5.776  38.370  13.519
18856W        W90527  11.553  24.999   0.941
18857W        W90528  11.303  20.237  14.928
18858W        W90529  29.677  20.929  12.292
18859W        W90530  31.204  43.393  14.793
18860W        W90531  28.283  30.651  13.349
18861W        W90532  31.175   1.068   0.347
18862W        W90533  25.735  26.596   3.596
18863W        W90534  10.364   0.816   4.651
18864W        W90535  44.841  25.377   4.086
18865W        W90536  33.440  41.342  13.029
18866W        W90537   7.449  29.926  12.117
18867W        W90538  17.382  20.138   2.636
18868W        W90539  22.328  26.063  11.562
18869W        W90540   6.812  33.671  11.321
18870W        W90541   6.209   2.170   4.939
18871W        W90542  38.356   5.874   2.897
18872W        W90543   0.699  38.267  12.982
18873W        W90544  18.734   2.207  12.768
18874W        W90545  14.104   1.879   4.665
18875W        W90546  21.031  14.238   3.663
18876W        W90547   9.398  43.372   2.599
18877W        W90548  42.588  44.020  12.548
18878W        W90549   3.637  40.225   4.503
18879W        W90550  23.555  14.615   0.879
18880W        W90551  20.029   6.284   4.077
18881W        W90552  16.505  16.409   4.245
18882W        W90553  15.073   1.926   1.959
18883W        W90554   4.260   5.977  13.333
18884W        W90555  34.125  44.397   4.844
18885W        W90556   3.639  21.067   4.993
18886W        W90557  23.515   7.147   1.398
18887W        W90558  38.317   9.188  14.900
18888W        W90559   4.252  36.635   4.258
18889W        W90560  44.408  28.401  14.037
18890W        W90561  17.985   9.731  10.388
18891W        W90562  15.662  33.465  11.344
18892W        W90563  34.582   8.304   3.254
18893W        W90564  12.137   6.319  14.453
18894W        W90565   1.464  18.310  12.900
18895W        W90566  26.741   7.258   3.243
18896W        W90567  14.201  26.550  12.638
18897W        W90568  35.315  13.826   3.717
18898W        W90569  12.919  14.577  14.001
18899W        W90570  19.664  10.293  13.375
18900W        W90571  44.580  38.379  10.654
18901W        W90572  34.950  24.673   1.813
18902W        W90573  26.959  41.757  12.374
18903W        W90574  31.297  28.805   0.482
18904W        W90575  36.303  27.832  11.532
18905W        W90576  38.860  16.209  14.444
18906W        W90577   9.828  31.157  13.403
18907W        W90578  26.682   3.223   4.786
18908W        W90579   9.651  29.710   0.791
18909W        W90580   4.762  32.031   2.910
18910W        W90581  38.940  32.736   2.765
18911W        W90582   1.720  44.932  13.800
18912W        W90583  36.862  10.741  12.152
18913W        W90584  39.532  23.914   3.089
18914W        W90585  25.554  28.070   4.634
18915W        W90586  11.738  25.038  12.438
18916W        W90587  24.518  24.947   4.955
18917W        W90588  42.950  24.521  10.679
18918W        W90589  44.770  27.337   0.918
18919W        W90590   2.429  31.609   0.479
18920W        W90591  36.419   0.312   1.243
18921W        W90592  20.995  22.496   1.785
18922W        W90593  38.824   0.502   0.733
18923W        W90594   1.313  29.102   2.944
18924W        W90595  10.170  28.195   5.106
18925W        W90596  27.321  23.808   0.450
18926W        W90597  29.342  42.883   5.025
18927W        W90598   3.660  18.548   4.099
18928W        W90599  26.082  14.172  12.048
18929W        W90600  34.196  29.447  10.647
18930W        W90601  23.355  28.108   2.242
18931W        W90602   7.411  17.337  11.629
18932W        W90603   5.108  38.516  14.884
18933W        W90604  39.822  31.572  12.882
18934W        W90605  22.691  20.643   4.803
18935W        W90606  10.418   0.369   1.331
18936W        W90607  39.453  16.596   3.601
18937W        W90608  22.414   2.291   1.860
18938W        W90609  41.600  34.466  14.279
18939W        W90610  27.570  30.524   1.113
18940W        W90611  38.027  24.607   3.795
18941W        W90612  43.262  36.470  10.598
18942W        W90613  40.732  32.087   1.041
18943W        W90614  39.627  30.431   2.362
18944W        W90615   3.697  15.559  14.954
18945W        W90616  21.692  10.320   0.773
18946W        W90617   4.249  20.376  11.667
18947W        W90618  40.524  27.947   5.017
18948W        W90619   6.910  23.380  11.271
18949W        W90620  11.767  32.213  12.007
18950W        W90621  12.397  30.495  12.895
18951W        W90622  11.245  39.999  13.288
18952W        W90623  37.403  41.834  12.536
18953W        W90624  39.250  21.741  12.321
18954W        W90625  21.937  23.931   0.980
18955W        W90626  17.538  23.025   2.789
18956W        W90627   7.671  43.385  12.555
18957W        W90628  22.264  18.113  12.965
18958W        W90629  31.905  30.168  11.164
18959W        W90630  37.791  41.850   2.765
18960W        W90631  33.696  43.065  12.677
18961W        W90632  12.175   4.033  14.017
18962W        W90633   0.862  26.819  13.403
18963W        W90634  19.162  44.833   4.386
18964W        W90635  43.068  26.011   2.172
18965W        W90636  23.130   7.709  13.784
18966W        W90637   5.478  25.635  13.509
18967W        W90638  40.566  25.021   2.306
18968W        W90639   0.712   0.017  14.083
18969W        W90640  22.213  19.814   4.673
18970W        W90641  39.312   5.974  13.528
18971W        W90642  40.456  10.793   0.048
18972W        W90643  16.679   2.759   1.341
18973W        W90644  21.275  34.478  12.577
18974W        W90645  38.432  35.982  10.659
18975W        W90646  37.773  25.331  14.564
18976W        W90647   7.839  27.975  10.338
18977W        W90648  30.444   1.348  11.983
18978W        W90649  20.145  40.890   2.191
18979W        W90650  19.158  44.444   4.061
18980W        W90651  18.081   4.518   1.647
18981W        W90652   4.324  20.821   1.723
18982W        W90653  41.067  33.729  12.095
18983W        W90654  24.752  30.875   1.477
18984W        W90655   2.271   5.679   1.308
18985W        W90656  11.612  29.434   0.893
18986W        W90657   2.975  27.606  12.035
18987W        W90658  10.269  21.323   4.971
18988W        W90659  13.889  20.184   0.465
18989W        W90660  10.216  28.099   3.280
18990W        W90661  22.746  20.254   4.016
18991W        W90662  34.057  34.191   1.390
18992W        W90663  13.254  19.280   1.877
18993W        W90664  36.536  36.783  10.623
18994W        W90665  37.519  21.859  12.637
18995W        W90666  16.159  14.870   1.450
18996W        W90667  36.935   3.905   0.424
18997W        W90668  16.840  32.469  11.641
18998W        W90669  20.620   8.181  10.723
18999W        W90670  28.290  34.971   9.748
19000W        W90671  27.600  30.613   2.133
19001W        W90672  22.749  41.356   1.284
19002W        W90673  34.662  14.612   2.225
19003W        W90674  23.357  17.002   3.801
19004W        W90675  23.307  44.989   0.947
19005W        W90676  40.148  18.724  12.656
19006W        W90677  39.134  20.960  14.030
19007W        W90678  24.241  31.584   0.398
19008W        W90679  42.597   3.860   1.717
19009W        W90680  44.977  24.451  12.405
19010W        W90681  44.090  24.750  14.362
19011W        W90682  33.142   4.204  10.722
19012W        W90683  31.455   1.788   2.637
19013W        W90684  23.309  35.603  13.939
19014W        W90685  15.334  14.112   3.114
19015W        W90686   9.141  40.434   4.257
19016W        W90687  29.019  39.886   2.115
19017W        W90688  29.713   2.874   4.793
19018W        W90689   9.927  27.103  10.943
19019W        W90690  29.442  36.017  13.835
19020W        W90691  17.111   4.906   0.667
19021W        W90692  15.452  38.651  14.823
19022W        W90693  43.835   5.407  13.844
19023W        W90694  32.700  15.240  10.564
19024W        W90695  12.270   4.232  12.946
19025W        W90696  34.592  13.174   3.363
19026W        W90697  26.057  31.322  13.900
19027W        W90698  23.142  28.549   0.061
19028W        W90699  31.340  40.715   2.161
19029W        W90700  35.917  10.119   1.892
19030W        W90701  41.578  40.455   4.015
19031W        W90702  42.902  43.303   0.545
19032W        W90703  40.477  43.915  11.639
19033W        W90704  30.308  37.493   0.352
19034W        W90705   1.230   3.077  12.839
19035W        W90706  15.091  28.188   3.209
19036W        W90707   0.362  43.436   2.705
19037W        W90708  37.582  42.349   1.717
19038W        W90709  21.450  16.603  14.048
19039W        W90710  16.293   8.822   1.212
19040W        W90711  20.701  21.629   4.702
19041W        W90712  44.495   1.642   1.312
19042W        W90713  16.556  23.494   0.727
19043W        W90714  44.881  39.557  12.554
19044W        W90715  24.068  27.631  10.396
19045W        W90716  44.456   7.645   0.291
19046W        W90717  14.393  34.825   4.238
19047W        W90718   8.419  40.863   2.167
19048W        W90719  34.518  36.861  12.607
19049W        W90720  34.913  26.935   0.417
19050W        W90721   6.271  24.234  14.514
19051W        W90722   8.291  18.796   4.468
19052W        W90723  16.824  28.209   1.371
19053W        W90724  23.605  41.297   3.358
19054W        W90725   7.974  44.880  12.856
19055W        W90726   7.830  20.173   0.500
19056W        W90727   4.780  12.900  14.821
19057W        W90728  42.310  10.201   4.893
19058W        W90729  44.106   7.842  10.730
19059W        W90730  22.539   7.385   4.161
19060W        W90731  10.415  15.904   4.179
19061W        W90732  14.338  30.506  14.621
19062W        W90733  29.182  26.589   1.950
19063W        W90734   4.846  38.855   4.050
19064W        W90735  28.000  30.532  11.907
19065W        W90736  31.212  24.004   3.177
19066W        W90737  37.136  39.348   4.198
19067W        W90738  14.896  40.425  11.088
19068W        W90739  35.862  16.322   4.345
19069W        W90740  32.086  32.850   2.224
19070W        W90741  26.448  42.945   4.217
19071W        W90742  16.652  17.875  13.331
19072W        W90743  33.593  36.444   3.682
19073W        W90744  36.125  36.368  13.292
19074W        W90745  26.568   3.387  14.333
19075W        W90746   2.284  25.885   0.674
19076W        W90747  14.753  24.091   3.703
19077W        W90748  10.475  22.010   3.219
19078W        W90749  37.289  17.251   4.602
19079W        W90750  22.291  21.414  11.874
19080W        W90751  27.057  20.301   4.939
19081W        W90752   1.643   6.844  12.593
19082W        W90753  23.533   1.047   3.628
19083W        W90754  44.353   1.748  10.733
19084W        W90755   9.775  21.672  11.289
19085W        W90756  37.078   8.127  10.517
19086W        W90757  44.221  40.401  11.557
19087W        W90758   2.234   7.060  10.980
19088W        W90759   1.229  26.997   3.776
19089W        W90760  25.169   1.885   0.694
19090W        W90761  39.820  31.850   1.286
19091W        W90762  34.517  22.420   4.570
19092W        W90763  17.775   0.379   3.750
19093W        W90764   1.310  10.997  11.098
19094W        W90765   7.126  21.520  10.579
19095W        W90766  38.766  39.827   0.844
19096W        W90767  27.545  24.664  13.424
19097W        W90768  28.126  28.007  10.523
19098W        W90769   8.645  14.777   0.825
19099W        W90770  33.537  42.197   3.190
19100W        W90771  44.825  42.020  12.032
19101W        W90772  36.836  16.019   1.121
19102W        W90773  39.059   0.037  13.305
19103W        W90774  10.140  10.244   1.037
19104W        W90775  19.388  18.784  10.461
19105W        W90776  34.963  11.235   9.970
19106W        W90777   2.557  19.261  12.274
19107W        W90778   2.864  36.766   4.549
19108W        W90779  37.826  25.720   1.351
19109W        W90780  36.989   6.561   4.757
19110W        W90781  33.185  42.270   2.827
19111W        W90782  28.716  31.202  12.491
19112W        W90783  34.141  15.791   2.815
19113W        W90784  17.641  42.397  14.366
19114W        W90785  32.464  20.725   3.234
19115W        W90786  41.310   7.921   4.117
19116W        W90787  37.510  12.395  14.855
19117W        W90788  11.591  25.975   0.955
19118W        W90789  32.320  13.102   1.273
19119W        W90790  29.440   1.424  12.074
19120W        W90791  44.905  18.196   2.235
19121W        W90792   3.327   0.529   1.357
19122W        W90793  43.976  41.925   9.964
19123W        W90794  40.353  26.195   4.295
19124W        W90795   3.939  34.397  10.570
19125W        W90796  13.704  23.211   0.021
19126W        W90797  13.340  42.681   9.790
19127W        W90798  15.505  17.034   4.040
19128W        W90799   6.233  28.613   4.026
19129W        W90800  43.918   7.395   4.062
19130W        W90801  37.630  24.628  12.107
19131W        W90802  14.274   9.552   0.679
19132W        W90803  37.931  42.817  10.758
19133W        W90804   1.838  23.134   5.512
19134W        W90805  29.596   3.075  10.011
19135W        W90806  11.123  32.897   3.749
19136W        W90807  40.007   3.797   3.009
19137W        W90808  27.617  10.544   2.907
19138W        W90809  16.368  13.091  12.517
19139W        W90810   8.425  40.003   1.769
19140W        W90811  34.355  23.201  13.436
19141W        W90812   8.018   0.711  11.661
19142W        W90813   5.502  39.130  14.114
19143W        W90814  10.430  21.260   2.751
19144W        W90815  37.111  28.194  14.339
19145W        W90816  15.071  25.078   0.899
19146W        W90817  40.104  36.330   0.390
19147W        W90818  33.909  20.515   1.358
19148W        W90819  17.333  28.977   3.803
19149W        W90820   3.694   2.457  11.561
19150W        W90821  33.392  25.754   3.460
19151W        W90822  34.906   8.847  13.878
19152W        W90823  34.625  34.801  13.530
19153W        W90824  14.356  41.920   4.675
19154W        W90825  11.826  15.834  11.840
19155W        W90826  22.271  21.729  11.427
19156W        W90827  19.832  37.623  12.414
19157W        W90828   7.864  10.178   1.779
19158W        W90829   3.148  29.059  10.998
19159W        W90830  28.637  26.394  12.028
19160W        W90831  27.578  23.958  12.021
19161W        W90832  41.429  15.360  10.696
19162W        W90833  27.571  15.653   2.797
19163W        W90834  32.092  11.797   1.311
19164W        W90835  11.616  30.977   0.755
19165W        W90836   8.489   8.246  12.485
19166W        W90837  44.911  23.196  11.627
19167W        W90838  19.060  23.831  10.630
19168W        W90839  40.054  21.224  12.251
19169W        W90840  40.230  34.880   0.545
19170W        W90841   2.895  26.164  12.521
19171W        W90842  36.467  28.150  14.966
19172W        W90843  12.922   8.887   0.824
19173W        W90844  39.968  30.628  14.453
19174W        W90845  33.044  35.939  13.111
19175W        W90846  21.600  41.540  11.582
19176W        W90847  32.419  17.556  11.255
19177W        W90848  38.220  43.811  14.083
19178W        W90849  25.057   7.592  11.500
19179W        W90850   4.680  43.391  13.503
19180W        W90851  12.191  43.160  14.300
19181W        W90852  23.258   5.724  14.948
19182W        W90853  36.938  39.548   9.944
19183W        W90854  14.623  32.013   2.662
19184W        W90855  32.360  36.186  11.361
19185W        W90856  18.995  33.504   1.345
19186W        W90857  22.464  40.034  10.700
19187W        W90858  10.288  21.782   0.460
19188W        W90859   6.081  17.126  13.507
19189W        W90860  26.682   3.828   1.898
19190W        W90861  37.993  31.676   4.200
19191W        W90862  27.815  44.829  12.641
19192W        W90863  19.145   1.756  12.840
19193W        W90864  29.851  32.363  11.076
19194W        W90865  20.889   7.867   2.275
19195W        W90866  17.155  19.236  13.904
19196W        W90867  35.486  23.666   1.685
19197W        W90868  29.609   2.176   0.885
19198W        W90869   1.793  28.046  11.689
19199W        W90870  24.088  24.975  12.510
19200W        W90871  11.103  22.068   2.272
19201W        W90872  32.246  17.137   1.804
19202W        W90873  20.436   7.647   2.429
19203W        W90874  43.594  23.928  13.800
19204W        W90875  21.129  27.356  10.076
19205W        W90876  33.586  13.552   9.896
19206W        W90877  29.731  22.586   4.287
19207W        W90878  40.125  27.256   3.288
19208W        W90879  42.300  44.986  13.124
19209W        W90880   9.344  43.666   0.823
19210W        W90881  16.876  42.728   2.274
19211W        W90882  20.325   6.911  11.905
19212W        W90883  21.090   1.560  14.866
19213W        W90884  42.770  12.347   2.873
19214W        W90885  36.539   4.846  12.693
19215W        W90886  34.196  25.021  13.855
19216W        W90887  11.630  16.285  12.485
19217W        W90888  14.472   9.818   3.146
19218W        W90889  44.545   1.990  10.282
19219W        W90890  34.969  20.557   3.199
19220W        W90891  16.837  20.425  14.939
19221W        W90892  18.586  37.856  10.748
19222W        W90893  42.638  12.448   1.782
19223W        W90894  43.917  35.926   4.551
19224W        W90895  25.109  15.803   4.586
19225W        W90896  38.281  40.804   2.209
19226W        W90897  34.478   8.204   2.735
19227W        W90898  28.157  17.644   3.202
19228W        W90899   8.899  41.045   2.219
19229W        W90900  40.979  40.579  14.165
19230W        W90901  31.522   1.694   2.132
19231W        W90902  17.639  13.764   4.589
19232W        W90903   8.741   7.948  11.569
19233W        W90904  20.135  26.232  10.847
19234W        W90905   6.279   8.694  13.783
19235W        W90906  16.318   5.501  13.293
19236W        W90907   9.188   9.145   1.368
19237W        W90908   0.865  15.737   3.989
19238W        W90909  17.564   6.002   1.738
19239W        W90910  27.959  31.752  11.179
19240W        W90911   5.664  33.022   3.810
19241W        W90912  28.348  40.963  14.351
19242W        W90913  30.209  24.378  12.530
19243W        W90914   1.308   1.093  14.965
19244W        W90915  15.723  34.432  11.150
19245W        W90916  24.031  23.589   1.055
19246W        W90917  24.011  21.834   4.445
19247W        W90918  22.955   5.203  11.107
19248W        W90919  22.489   4.183   3.911
19249W        W90920  28.629   6.691   3.045
19250W        W90921   9.158  28.002  14.011
19251W        W90922  34.157  19.672   0.441
19252W        W90923  27.032   6.672   9.769
19253W        W90924  43.176  41.812  12.446
19254W        W90925  26.147   0.526   0.513
19255W        W90926  34.986  31.398  13.910
19256W        W90927  36.562  39.534   4.959
19257W        W90928   0.224  22.506   0.025
19258W        W90929  17.028  18.165   0.264
19259W        W90930   8.861  41.025  14.154
19260W        W90931  40.386  12.614   0.343
19261W        W90932  36.237  20.610   3.139
19262W        W90933   7.691   0.288  11.544
19263W        W90934   0.954  24.133   2.914
19264W        W90935  28.154  32.043  12.603
19265W        W90936  40.945   3.398  13.408
19266W        W90937  36.766  10.359  13.372
19267W        W90938  37.364   0.842  12.249
19268W        W90939  11.312   1.967  13.446
19269W        W90940   8.676  29.690  13.933
19270W        W90941   4.925  30.549  12.766
19271W        W90942  11.344  31.408   3.742
19272W        W90943  32.540   0.936   3.010
19273W        W90944  12.211  27.569   2.873
19274W        W90945  41.851  22.465  14.902
19275W        W90946  35.428  21.383   1.344
19276W        W90947  40.372   3.288   3.896
19277W        W90948  21.980  14.529  13.059
19278W        W90949  41.024  29.112   3.202
19279W        W90950  37.980  18.988  10.970
19280W        W90951  16.171  18.611   2.688
19281W        W90952  38.569   7.728   2.727
19282W        W90953  35.166  44.465   4.216
19283W        W90954  33.463  22.506   0.558
19284W        W90955  32.628  30.948   0.349
19285W        W90956  32.635   3.255   3.505
19286W        W90957   6.745  37.535  13.705
19287W        W90958  31.195  42.895  11.507
19288W        W90959  34.584  35.996   1.088
19289W        W90960  39.562  28.659   0.785
19290W        W90961   5.362  25.160  13.356
19291W        W90962  40.524  37.132  12.312
19292W        W90963  18.944   8.473  13.845
19293W        W90964  26.490   4.157  11.954
19294W        W90965   8.123  37.473  14.383
19295W        W90966  24.612  41.430  13.309
19296W        W90967  28.329   5.746   9.842
19297W        W90968  44.443  20.201   2.653
19298W        W90969  35.840  15.800  14.493
19299W        W90970  35.551  26.821   3.649
19300W        W90971  25.549  28.323   3.247
19301W        W90972  12.152  20.611   4.421
19302W        W90973  33.599  24.695   1.951
19303W        W90974  23.796  37.038  13.882
19304W        W90975   5.216  24.862  10.328
19305W        W90976  32.762  28.526   3.536
19306W        W90977  39.870  41.789  14.752
19307W        W90978  14.462   5.974  10.164
19308W        W90979  21.790  44.886  14.062
19309W        W90980  41.984  37.070   3.214
19310W        W90981  17.037  35.146   4.187
19311W        W90982  15.675  34.543  12.078
19312W        W90983  17.803  33.028   0.485
19313W        W90984  26.775  30.437  10.560
19314W        W90985  38.569   3.765  11.574
19315W        W90986  11.690   8.717  13.068
19316W        W90987   8.682  36.052   1.683
19317W        W90988  42.791   2.747   0.460
19318W        W90989  41.947  30.634  13.317
19319W        W90990  21.624   6.264  12.067
19320W        W90991   1.941  19.145   1.359
19321W        W90992  29.317  44.839  14.247
19322W        W90993  10.312  27.460  11.950
19323W        W90994  11.922   7.470  10.765
19324W        W90995  36.670   9.326  12.925
19325W        W90996  13.146  24.513   3.837
19326W        W90997  10.178  33.291   4.594
19327W        W90998   9.342  18.234   1.689
19328W        W90999   5.137  15.918   4.635
19329W        W91000  25.702  39.457  12.968
19330W        W91001  36.224  30.507   2.275
19331W        W91002  24.788  22.978   2.718
19332W        W91003  20.438  13.987  14.549
19333W        W91004  10.846  16.721  13.000
19334W        W91005  15.158  40.898  14.330
19335W        W91006  27.195  35.856   0.914
19336W        W91007  12.741  10.917   3.924
19337W        W91008  19.724  22.974   4.608
19338W        W91009   4.353  16.851  13.900
19339W        W91010  42.593  42.003  10.024
19340W        W91011  11.730  26.300   1.779
19341W        W91012  31.180  15.710  14.412
19342W        W91013  15.204  16.708  13.354
19343W        W91014  40.563  33.827  10.332
19344W        W91015  39.237  23.632   1.644
19345W        W91016  22.106  44.454  12.146
19346W        W91017  44.539  41.279   0.470
19347W        W91018  28.467  20.619  13.433
19348W        W91019   7.343  31.259  12.795
19349W        W91020   0.326  21.188   2.056
19350W        W91021   6.833  37.360   3.142
19351W        W91022  15.545  15.301   2.633
19352W        W91023  36.148  40.516   5.056
19353W        W91024   9.172   9.047  14.857
19354W        W91025  44.638  29.377   3.692
19355W        W91026  26.098  11.348  12.774
19356W        W91027   9.295  34.916   1.107
19357W        W91028  44.293  18.522  14.480
19358W        W91029  35.074  35.567  11.240
19359W        W91030  28.714  14.355  14.688
19360W        W91031   4.969  32.537  10.984
19361W        W91032  11.259  42.456   0.715
19362W        W91033  12.718  12.570  11.531
19363W        W91034  27.763  44.017  11.468
19364W        W91035   1.613   9.510  12.785
19365W        W91036  20.971  28.247   3.830
19366W        W91037  33.667   4.724  12.586
19367W        W91038  34.325  14.205  13.338
19368W        W91039  28.073  16.839   3.873
19369W        W91040  32.164   0.473  11.014
19370W        W91041  33.614  41.539   4.428
19371W        W91042   9.031  36.483  11.983
19372W        W91043  30.089  22.734  14.348
19373W        W91044  26.962  24.281   3.148
19374W        W91045  40.539  31.988  11.111
19375W        W91046  32.311  22.182  10.678
19376W        W91047   1.618  35.540  13.161
19377W        W91048  35.387   1.903   4.622
19378W        W91049   9.118  20.994  13.919
19379W        W91050  34.387  22.236  12.391
19380W        W91051  34.502  29.045  10.855
19381W        W91052  35.377  18.206   2.812
19382W        W91053  26.387  21.462  13.005
19383W        W91054  34.021  35.291  11.283
19384W        W91055  31.376  42.321  14.862
19385W        W91056   2.361  36.575   4.604
19386W        W91057   8.294  44.377   3.222
19387W        W91058  33.933  42.381  13.419
19388W        W91059  10.358   0.978  14.511
19389W        W91060  34.809  39.473   3.250
19390W        W91061  22.060   0.944  13.868
19391W        W91062  36.793  10.421  11.242
19392W        W91063  41.052  30.590  12.956
19393W        W91064  22.786  20.941  14.432
19394W        W91065  24.162   4.217  13.901
19395W        W91066  23.588  28.128  11.984
19396W        W91067   5.349  22.753   1.849
19397W        W91068  21.301  21.579   3.631
19398W        W91069  26.555  12.349  11.981
19399W        W91070  40.373   9.092   4.596
19400W        W91071  10.854  32.985   0.307
19401W        W91072  32.356  37.119  13.335
19402W        W91073   6.287  33.079   0.027
19403W        W91074  38.828  12.086  13.857
19404W        W91075  21.531  30.595  11.567
19405W        W91076  28.543  35.886  12.456
19406W        W91077  16.650  28.220   0.451
19407W        W91078  10.500  30.251   0.684
19408W        W91079  27.249  14.283   2.287
19409W        W91080  33.032  23.475  12.515
19410W        W91081  35.650  20.623   3.882
19411W        W91082  28.553  32.644  13.107
19412W        W91083   0.203  20.855  10.853
19413W        W91084  36.451  17.251  14.990
19414W        W91085  40.249  21.573   2.241
19415W        W91086  42.016  41.410  10.012
19416W        W91087  36.672  21.170  13.142
19417W        W91088  42.349  19.560  12.157
19418W        W91089  39.726  19.538  12.495
19419W        W91090  14.706  41.889   2.370
19420W        W91091  19.980  34.374   1.482
19421W        W91092  19.356  16.883   1.911
19422W        W91093  13.820   9.234  14.496
19423W        W91094  23.575   5.895   2.942
19424W        W91095  43.514  35.529  14.529
19425W        W91096  17.578  14.813  13.912
19426W        W91097   5.216  20.370  11.155
19427W        W91098  31.126  20.642   2.322
19428W        W91099  39.470  34.965  14.886
19429W        W91100  44.942  35.134   2.377
19430W        W91101  15.361  40.302   4.115
19431W        W91102  25.160  10.036  13.470
19432W        W91103  26.999  16.767   0.867
19433W        W91104   4.500   8.743   1.734
19434W        W91105  10.422  24.531   0.408
19435W        W91106  23.681   4.723   2.795
19436W        W91107  18.755  15.713  14.184
19437W        W91108  22.449  10.202   3.649
19438W        W91109  10.842  12.308   1.413
19439W        W91110  31.211  44.828  13.112
19440W        W91111  20.790  26.652   4.122
19441W        W91112   0.282  43.771  12.820
19442W        W91113   6.664  22.810  14.272
19443W        W91114   8.690  22.715   1.836
19444W        W91115   7.662  31.131  10.518
19445W        W91116   8.868  28.419  13.566
19446W        W91117  32.318  10.942  13.829
19447W        W91118  26.661  27.042   2.954
19448W        W91119  22.597  14.750  13.066
19449W        W91120  36.707  34.361  12.059
19450W        W91121   5.321  10.906   1.013
19451W        W91122  33.554   1.793  10.643
19452W        W91123  27.048  33.031  14.547
19453W        W91124  21.029  25.321  11.232
19454W        W91125  30.380  14.183   2.146
19455W        W91126   8.774  39.791  14.573
19456W        W91127  42.081  39.275  11.500
19457W        W91128  36.590  31.234  13.356
19458W        W91129  38.270  31.331   3.113
19459W        W91130   4.389   3.768   1.236
19460W        W91131  39.982  10.876   3.313
19461W        W91132  16.156  37.397   2.741
19462W        W91133  39.519   2.857   1.347
19463W        W91134  33.213  29.952   0.897
19464W        W91135  40.318  35.962   3.255
19465W        W91136  35.508  19.130   4.423
19466W        W91137  29.887  14.296  14.777
19467W        W91138  44.466  12.249  14.856
19468W        W91139  40.722  14.699   1.800
19469W        W91140  27.168  34.516   4.087
19470W        W91141   4.526  26.428   4.531
19471W        W91142   7.447  33.384   2.287
19472W        W91143  17.585  17.781  13.183
19473W        W91144  41.919   0.254  11.766
19474W        W91145  13.264  32.376  12.574
19475W        W91146  43.950  42.820  14.997
19476W        W91147  20.073   2.997   3.803
19477W        W91148   2.984   2.818  11.081
19478W        W91149   6.039   3.692  13.325
19479W        W91150  40.885  24.904  13.048
19480W        W91151  43.869  31.644   0.308
19481W        W91152  37.541  40.067   2.383
19482W        W91153  13.198  12.413  11.307
19483W        W91154  12.329  37.941   4.620
19484W        W91155  20.856   4.021   3.192
19485W        W91156  15.875  36.133   4.350
19486W        W91157  26.459   7.828   3.927
19487W        W91158  30.406  15.860  11.636
19488W        W91159  13.889  20.035   1.969
19489W        W91160  12.646  27.496  12.521
19490W        W91161  32.117  26.842  13.651
19491W        W91162  43.346  18.292  13.575
19492W        W91163  43.934  24.308  11.528
19493W        W91164  15.643   4.892   2.416
19494W        W91165   7.674   0.947  12.938
19495W        W91166  35.280   4.822   1.292
19496W        W91167  33.052  29.894   4.846
19497W        W91168  12.590  30.136   3.327
19498W        W91169  16.594  25.724   4.288
19499W        W91170   5.746  30.628  13.358
19500W        W91171  12.431  12.508   4.130
19501W        W91172  30.967  30.415  13.315
19502W        W91173   6.222  44.642  13.737
19503W        W91174  42.081  34.668  12.056
19504W        W91175   4.163  15.315  11.298
19505W        W91176  40.041   7.473   4.396
19506W        W91177  31.479  36.078  11.024
19507W        W91178  39.562  12.718  13.297
19508W        W91179  44.896  36.539   2.314
19509W        W91180  21.107   6.518   2.490
19510W        W91181  26.352  32.870  10.218
19511W        W91182   3.273   3.783   4.523
19512W        W91183   5.612  41.594   3.629
19513W        W91184   5.939  28.569  13.380
19514W        W91185  32.380   2.300  12.818
19515W        W91186  11.748   5.218   0.822
19516W        W91187  32.448  16.418  13.570
19517W        W91188  31.401  23.232   0.330
19518W        W91189  10.855  35.110   2.318
19519W        W91190  35.655  27.943   2.618
19520W        W91191  30.591  18.330  13.569
19521W        W91192  36.292   1.395   1.687
19522W        W91193  11.755   4.920   2.931
19523W        W91194  10.915  42.855   3.105
19524W        W91195  25.059  37.888   3.684
19525W        W91196  15.212  20.002   3.851
19526W        W91197   9.050  17.674  12.883
19527W        W91198  27.709  40.776  13.870
19528W        W91199   7.049  23.212   0.534
19529W        W91200   1.245  12.226   1.894
19530W        W91201   5.372  40.897  13.823
19531W        W91202  31.400  34.055  14.434
19532W        W91203   4.579  32.950   2.620
19533W        W91204  14.778  35.570   3.157
19534W        W91205   1.955  41.903   2.027
19535W        W91206  12.964  26.158  12.100
19536W        W91207  38.762  43.024  10.879
19537W        W91208  24.001   9.630   2.848
19538W        W91209  31.855  18.056   1.747
19539W        W91210  43.312  33.727  11.965
19540W        W91211  12.689   9.108   4.239
19541W        W91212   7.710  37.931  12.079
19542W        W91213  10.911  25.646   3.291
19543W        W91214  37.893  42.355  13.931
19544W        W91215  29.333  18.192   2.387
19545W        W91216  22.778  28.101   4.081
19546W        W91217  25.613  27.945  12.421
19547W        W91218   9.279  19.579  13.113
19548W        W91219  18.537   5.354   4.506
19549W        W91220   7.237   0.467  11.189
19550W        W91221   8.321  33.453  11.764
19551W        W91222  28.527  23.055  14.929
19552W        W91223  40.251  44.096   1.821
19553W        W91224  10.611  37.508   3.376
19554W        W91225  36.365  28.977   0.949
19555W        W91226  15.313  36.982  13.860
19556W        W91227   0.805  30.866   1.910
19557W        W91228  17.803   3.671  11.219
19558W        W91229   1.263   9.406   4.333
19559W        W91230  11.398  18.810  13.403
19560W        W91231  41.445  24.267  13.974
19561W        W91232  41.585  19.099  11.215
19562W        W91233  12.422  30.398   0.906
19563W        W91234   6.456  23.334  14.687
19564W        W91235  43.656  38.709   1.723
19565W        W91236  25.266  23.084   1.418
19566W        W91237  18.518  33.481  13.576
19567W        W91238  43.294  13.823   1.811
19568W        W91239  16.568   6.100  13.239
19569W        W91240  28.933  19.712  13.574
19570W        W91241  34.025  11.492  13.865
19571W        W91242  33.097  12.764  11.381
19572W        W91243   8.452  20.219  14.401
19573W        W91244  42.719   3.389   3.679
19574W        W91245  33.641  15.605  10.654
19575W        W91246  30.006   5.001  10.641
19576W        W91247   5.637  18.098   4.140
19577W        W91248  36.240  39.980  10.560
19578W        W91249  38.367  22.681   1.093
19579W        W91250   0.424   0.984   3.101
19580W        W91251  38.118  12.663  14.329
19581W        W91252  11.683   3.684   1.838
19582W        W91253  13.717  43.923  11.742
19583W        W91254  41.880  15.099  12.570
19584W        W91255  31.415  12.951  12.919
19585W        W91256  31.917  39.576  12.874
19586W        W91257  39.220  42.739  11.693
19587W        W91258  31.664  35.457  11.276
19588W        W91259  33.854  32.044   1.284
19589W        W91260  13.811  42.641  13.180
19590W        W91261  27.548  19.120   1.018
19591W        W91262  30.134  44.811   1.342
19592W        W91263  39.573  41.006   0.308
19593W        W91264  44.150  24.288   4.573
19594W        W91265   5.787  40.333   3.801
19595W        W91266  12.125  33.106  11.924
19596W        W91267   6.626  25.871   1.718
19597W        W91268   0.882   9.689  14.929
19598W        W91269  15.787   1.857  13.497
19599W        W91270  26.014  43.830   1.180
19600W        W91271  16.371   4.603   2.922
19601W        W91272   8.580  36.741  12.067
19602W        W91273   0.345   9.258  12.579
19603W        W91274  34.585   6.453  11.584
19604W        W91275  15.719   9.534   2.402
19605W        W91276   0.882  30.218   2.572
19606W        W91277   9.282   7.217   4.698
19607W        W91278  22.605  29.422   2.315
19608W        W91279  38.111  31.935  13.445
19609W        W91280  27.740  25.145   3.434
19610W        W91281  33.569  13.908   0.005
19611W        W91282  11.143   5.931   2.782
19612W        W91283  32.938   9.797   1.957
19613W        W91284  39.569  40.422  12.071
19614W        W91285   9.256   0.730   2.792
19615W        W91286  21.323  15.539   3.251
19616W        W91287  23.956   9.836  14.513
19617W        W91288  37.742  16.990  11.449
19618W        W91289  18.312  37.418  12.384
19619W        W91290  23.120  16.098   3.036
19620W        W91291  28.951  24.826   4.625
19621W        W91292  34.926  32.034  12.571
19622W        W91293  17.781  24.155   0.780
19623W        W91294  24.745  44.446   1.213
19624W        W91295  10.676  29.946   2.725
19625W        W91296  30.283  12.901  13.820
19626W        W91297  16.721   4.547   1.631
19627W        W91298  15.246  25.284   2.248
19628W        W91299  12.563   1.820   3.189
19629W        W91300  19.844  37.608  13.763
19630W        W91301   6.735  10.364  11.597
19631W        W91302   8.359   8.583   2.571
19632W        W91303  28.046   6.798  12.077
19633W        W91304  38.543  11.246  13.995
19634W        W91305  25.403  31.187  12.101
19635W        W91306  22.763   5.221  14.212
19636W        W91307  29.552  44.487  12.620
19637W        W91308  30.679  26.203  10.914
19638W        W91309  30.406  34.493  10.368
19639W        W91310   8.951   7.377   2.370
19640W        W91311  44.060  18.284  11.081
19641W        W91312  28.157  22.973   3.722
19642W        W91313  31.120  43.354   0.680
19643W        W91314   8.302  25.665   2.674
19644W        W91315  29.933  35.306   4.151
19645W        W91316   8.423  20.720  14.491
19646W        W91317  40.839   2.357   3.898
19647W        W91318   7.131  20.672  11.573
19648W        W91319   5.179  19.201   0.081
19649W        W91320  39.995   1.403  13.119
19650W        W91321  31.429  15.771  10.411
19651W        W91322  19.668  40.050   0.194
19652W        W91323  32.665  15.346  14.317
19653W        W91324  11.372  26.731  10.599
19654W        W91325  35.431   6.242  12.858
19655W        W91326  38.884  43.969   1.305
19656W        W91327  32.068  25.492   1.077
19657W        W91328  14.540  15.233  11.415
19658W        W91329  35.853  36.551   4.995
19659W        W91330   1.662  21.742  12.857
19660W        W91331  37.739  21.848   1.949
19661W        W91332  32.041   7.667   4.594
19662W        W91333   7.396  44.451  14.824
19663W        W91334   0.922  39.464   0.853
19664W        W91335  27.055   2.273   1.388
19665W        W91336  20.578  33.178  14.896
19666W        W91337   5.283   9.714   1.863
19667W        W91338   3.460  10.292   3.192
19668W        W91339   2.978  30.667   2.284
19669W        W91340  44.791   1.434   3.582
19670W        W91341  22.637  30.608  13.291
19671W        W91342   8.017   6.935  11.674
19672W        W91343  42.432  11.172   2.932
19673W        W91344  40.043  16.277   4.640
19674W        W91345  27.280   8.735   4.171
19675W        W91346  25.474  33.060  14.358
19676W        W91347  42.832  43.216   3.758
19677W        W91348  29.976  28.554   0.046
19678W        W91349  40.707  42.589   4.222
19679W        W91350  20.267   8.283  11.137
19680W        W91351  16.557   1.464   3.182
19681W        W91352  33.845  21.227   4.157
19682W        W91353  34.343  16.832   4.036
19683W        W91354  35.478  10.773   2.281
19684W        W91355  43.063  41.474   5.121
19685W        W91356  30.077  42.298   1.912
19686W        W91357  20.290  38.910   2.519
19687W        W91358   5.482   2.396  13.147
19688W        W91359  33.639  40.035   2.821
19689W        W91360  44.141  32.981  11.606
19690W        W91361  26.107  19.563  14.039
19691W        W91362  39.786  20.645   4.671
19692W        W91363  34.441  30.054  10.709
19693W        W91364  12.552  29.904   0.816
19694W        W91365  33.006  26.580  13.872
19695W        W91366  14.233  11.895   3.366
19696W        W91367  15.370  30.462   1.457
19697W        W91368  22.991   7.402  10.520
19698W        W91369  10.681  26.513  10.573
19699W        W91370  37.447  34.565   3.982
19700W        W91371   0.040  28.511  11.873
19701W        W91372  27.908  13.749   4.838
19702W        W91373  39.087  17.145  14.938
19703W        W91374   8.420   8.610  14.773
19704W        W91375  32.491  33.311  11.188
19705W        W91376  36.225   2.762  12.294
19706W        W91377   9.646  17.739  12.569
19707W        W91378  40.812  27.129   0.751
19708W        W91379  38.307  38.670   2.857
19709W        W91380  37.874  23.554  13.415
19710W        W91381  27.384  14.282   0.825
19711W        W91382  29.491  18.989   0.841
19712W        W91383  39.073  12.524   3.412
19713W        W91384  43.806  14.625   5.244
19714W        W91385   3.347  44.059  12.109
19715W        W91386   2.631  35.887   3.291
19716W        W91387  34.137  10.803  11.498
19717W        W91388  41.874  28.607   4.738
19718W        W91389  22.234  26.996  13.336
19719W        W91390  15.646  24.536  12.613
19720W        W91391  12.616  21.629  14.385
19721W        W91392  29.452  16.320  12.070
19722W        W91393  30.436  37.796   0.758
19723W        W91394   6.737  11.829  11.519
19724W        W91395  26.271  37.910  13.028
19725W        W91396  33.432  20.518  12.963
19726W        W91397  43.431  37.381   3.423
19727W        W91398   7.656  37.699   4.867
19728W        W91399  33.410  33.119   0.601
19729W        W91400  19.751  28.030  12.869
19730W        W91401  24.429  29.561  11.170
19731W        W91402   8.322  37.209  11.922
19732W        W91403   2.705  33.439   4.227
19733W        W91404  35.161  31.942  11.174
19734W        W91405  14.581  10.378  12.145
19735W        W91406  39.242  13.114  13.444
19736W        W91407  13.061  41.425  13.914
19737W        W91408  22.126  41.255   3.452
19738W        W91409   8.096  13.544  11.370
19739W        W91410   1.830  32.727  12.085
19740W        W91411  42.806  15.263   3.657
19741W        W91412  44.987  40.383   1.475
19742W        W91413  20.190  15.620  10.355
19743W        W91414  11.563  40.361  13.059
19744W        W91415  16.035   6.706   0.850
19745W        W91416  42.977  24.693  12.175
19746W        W91417  23.783  24.009   0.807
19747W        W91418  20.742  27.794   3.001
19748W        W91419  19.502   3.495   3.190
19749W        W91420   8.616  35.960   4.140
19750W        W91421  12.747   3.519   2.799
19751W        W91422  39.440  26.835  12.414
19752W        W91423   0.215  42.950   1.931
19753W        W91424  25.788  21.764  14.919
19754W        W91425   6.195  33.632   0.840
19755W        W91426   9.692   1.538  14.808
19756W        W91427  25.574  29.708   3.107
19757W        W91428  24.413  13.681   3.354
19758W        W91429  31.472  29.202  12.987
19759W        W91430   3.009  38.811  13.333
19760W        W91431  25.682  40.027   2.152
19761W        W91432  29.165  25.981  14.705
19762W        W91433  16.942  36.009   3.269
19763W        W91434  21.334  13.249   0.783
19764W        W91435  25.672  11.898  12.011
19765W        W91436   9.289  44.130   4.272
19766W        W91437  19.073  41.492  13.911
19767W        W91438  16.200  21.722   0.237
19768W        W91439  29.962  10.898  11.012
19769W        W91440  22.279   1.694   0.360
19770W        W91441  29.648   3.805   4.642
19771W        W91442  21.521  34.065   4.596
19772W        W91443   2.404  23.776   3.074
19773W        W91444  31.137  44.104   0.419
19774W        W91445  27.918  15.187  11.143
19775W        W91446  37.360  14.159   3.262
19776W        W91447  14.850  13.769  14.775
19777W        W91448  42.926  32.489   2.357
19778W        W91449  19.886  18.703   1.775
19779W        W91450  23.933  16.475   4.795
19780W        W91451   8.800  42.571   1.829
19781W        W91452  42.341  32.335  12.144
19782W        W91453  20.987   8.922   2.803
19783W        W91454   1.908  21.680  11.099
19784W        W91455  23.737  31.414   3.696
19785W        W91456   5.978  20.784   0.378
19786W        W91457  19.645  42.366   3.219
19787W        W91458   5.939  21.746  12.984
19788W        W91459   4.008   9.419  13.513
19789W        W91460   4.104  31.976   1.785
19790W        W91461   1.839  22.824   5.073
19791W        W91462   6.057  10.854  11.078
19792W        W91463  11.669  33.651   1.423
19793W        W91464  33.712  17.269  13.822
19794W        W91465  26.937  33.953   0.006
19795W        W91466   5.144  11.158   3.751
19796W        W91467  20.803  24.041   5.180
19797W        W91468  35.926   0.836  11.534
19798W        W91469  34.541  37.791  11.421
19799W        W91470  23.260  22.790   0.448
19800W        W91471  25.942  20.662   1.020
19801W        W91472  30.120  26.144  11.596
19802W        W91473  38.508  36.764  12.217
19803W        W91474  44.914  42.259  14.419
19804W        W91475  33.888   0.937  11.634
19805W        W91476  24.464  19.669  12.477
19806W        W91477  29.539  20.778   0.276
19807W        W91478   4.090  28.562   2.161
19808W        W91479  25.290   0.391  11.583
19809W        W91480   4.147  36.461   0.195
19810W        W91481   0.684  13.759  11.934
19811W        W91482  16.573   5.568   2.737
19812W        W91483  34.164  27.142  14.359
19813W        W91484  25.179   9.916  11.177
19814W        W91485   1.490  12.124   3.948
19815W        W91486   4.263  14.212  13.760
19816W        W91487  25.026  35.624   1.032
19817W        W91488  38.857  37.385   0.642
19818W        W91489  29.483  12.193  11.447
19819W        W91490  17.137  12.587  12.973
19820W        W91491  44.848  36.358   1.281
19821W        W91492  34.915  17.326  10.751
19822W        W91493  25.612  34.184   4.104
19823W        W91494  40.016  30.758   2.251
19824W        W91495  23.276  27.635  11.463
19825W        W91496  30.899  35.568   4.737
19826W        W91497  32.399   1.211  11.405
19827W        W91498  15.978  35.317   2.855
19828W        W91499  43.967   2.198  12.488
19829W        W91500  32.153   3.518   0.971
19830W        W91501  13.565  41.055   1.292
19831W        W91502  30.568  37.869  14.243
19832W        W91503  40.957  42.555  13.046
19833W        W91504  14.097  39.608   3.577
19834W        W91505  25.533   6.343  14.991
19835W        W91506  25.993  23.230   0.766
19836W        W91507   6.148   2.969  10.688
19837W        W91508   4.350  40.666  12.058
19838W        W91509  19.633  43.963   0.927
19839W        W91510  17.343  16.270   0.821
19840W        W91511   7.473  14.208  14.518
19841W        W91512  42.802  19.194   0.772
19842W        W91513  14.762  14.895   2.329
19843W        W91514  26.142   4.967  10.641
19844W        W91515  10.055   6.629   3.287
19845W        W91516  24.427  28.681  12.348
19846W        W91517  38.012  21.301   1.777
19847W        W91518  26.007  28.740  11.947
19848W        W91519   7.623  23.006   2.711
19849W        W91520  42.785  41.391   0.819
19850W        W91521  35.596   6.294  11.549
19851W        W91522  12.392  34.555  12.146
19852W        W91523  12.522  43.837   1.810
19853W        W91524   3.344   6.284  14.322
19854W        W91525  38.031  12.744   2.082
19855W        W91526   1.295  32.587  14.772
19856W        W91527  31.120   0.756   3.297
19857W        W91528  21.919  10.842   3.117
19858W        W91529  16.096   6.868  14.340
19859W        W91530  24.507   9.935   1.693
19860W        W91531  17.537  39.594   3.076
19861W        W91532  28.978  24.472   3.322
19862W        W91533  25.712   3.660  13.256
19863W        W91534  32.139   4.315   2.599
19864W        W91535  37.289  29.080  14.931
19865W        W91536  30.772   7.124   1.695
19866W        W91537  34.361   4.006   0.649
19867W        W91538  27.413  33.657  13.045
19868W        W91539  10.522  27.912  11.912
19869W        W91540  37.090   4.973   1.792
19870W        W91541  38.989  39.148  10.933
19871W        W91542  11.927  15.501   1.754
19872W        W91543  34.953   3.076   0.341
19873W        W91544  38.022  17.697  13.072
19874W        W91545  38.878   5.219  11.393
19875W        W91546   9.211   7.933  13.222
19876W        W91547  40.048  27.651  13.824
19877W        W91548  33.494  15.527   4.769
19878W        W91549   3.526  34.674   0.220
19879W        W91550  21.652   1.296   1.314
19880W        W91551  40.339   6.170  11.546
19881W        W91552  10.714   3.088  10.723
19882W        W91553  39.052  18.798  13.479
19883W        W91554  17.628  12.541  12.872
19884W        W91555  38.613  13.671   0.612
19885W        W91556  33.626  31.816  13.494
19886W        W91557  13.824  17.885   2.284
19887W        W91558  43.562  15.232  11.857
19888W        W91559  32.675   5.253   0.178
19889W        W91560  33.146  18.573   0.022
19890W        W91561  39.615  44.545   0.004
19891W        W91562  38.951  25.548  13.012
19892W        W91563  35.882  19.072  10.592
19893W        W91564  40.834   9.437   2.345
19894W        W91565  27.644   2.909   3.792
19895W        W91566  38.036   2.404   3.040
19896W        W91567   1.884  26.371   2.192
19897W        W91568   3.332  40.023  13.387
19898W        W91569   3.277   7.916   3.262
19899W        W91570  11.868  19.595   1.902
19900W        W91571  24.373  19.189  14.022
19901W        W91572  34.595  39.910  13.442
19902W        W91573  36.000   7.449   0.043
19903W        W91574  13.706  34.617   0.795
19904W        W91575  31.533  13.801   4.307
19905W        W91576   2.687  43.895   2.687
19906W        W91577  26.186  17.317   1.783
19907W        W91578   5.937  19.928  14.830
19908W        W91579   1.201   1.028  12.492
19909W        W91580  41.325  38.545  11.186
19910W        W91581  44.933  27.650  13.411
19911W        W91582  22.064   3.923  14.809
19912W        W91583  16.649   1.740   0.937
19913W        W91584  33.940   5.190   3.146
19914W        W91585   7.796  35.938   2.922
19915W        W91586  10.167  37.471   0.161
19916W        W91587  20.697   6.430  12.675
19917W        W91588  13.160  44.966  11.349
19918W        W91589  22.310   4.894  11.025
19919W        W91590  17.204   5.211   5.091
19920W        W91591  13.228  12.300  11.805
19921W        W91592  10.860  37.046   5.103
19922W        W91593   5.293  12.392  11.518
19923W        W91594  29.095   0.885  14.851
19924W        W91595  11.904  26.015   1.369
19925W        W91596   7.701   8.591   4.096
19926W        W91597  26.640  28.864   2.868
19927W        W91598  26.063   9.492  10.285
19928W        W91599  13.064   2.808  10.561
19929W        W91600  26.240  22.157   3.346
19930W        W91601  15.237  14.182  14.714
19931W        W91602  30.132  15.586   4.765
19932W        W91603  13.353   4.660   2.269
19933W        W91604   4.406   8.178   2.728
19934W        W91605  43.865  40.914  13.582
19935W        W91606  27.926   0.522   1.471
19936W        W91607  29.921   8.311   2.333
19937W        W91608  11.222  43.435   4.553
19938W        W91609  29.160  26.793  12.984
19939W        W91610  44.233   7.874  13.758
19940W        W91611   4.959  41.871  11.686
19941W        W91612  33.911  33.972   0.939
19942W        W91613  13.198  39.240   4.514
19943W        W91614   0.247   9.834  10.914
19944W        W91615   0.870   3.250  14.476
19945W        W91616  42.916  33.919  10.632
19946W        W91617  33.867  34.925   1.835
19947W        W91618  11.472  36.696  14.453
19948W        W91619  15.171  12.651  10.811
19949W        W91620   8.726  12.764   4.742
19950W        W91621   6.680  41.032  13.476
19951W        W91622  15.733  35.356  14.791
19952W        W91623  23.575  39.927  13.274
19953W        W91624  18.290  43.769  11.187
19954W        W91625  41.311  44.037  14.981
19955W        W91626  30.379  27.851   3.692
19956W        W91627   3.700   0.755   4.065
19957W        W91628   2.908  13.669  11.107
19958W        W91629  27.595  24.540  12.913
19959W        W91630  16.767   2.227   2.167
19960W        W91631  20.057  18.955  13.388
19961W        W91632  31.834  44.623  14.382
19962W        W91633   5.955  14.506   1.277
19963W        W91634   2.976  42.185  10.989
19964W        W91635  43.328  34.075   3.906
19965W        W91636  17.142   0.444   1.251
19966W        W91637  40.002   2.047   0.409
19967W        W91638   1.457  38.556   0.313
19968W        W91639  13.123  29.096   1.785
19969W        W91640  40.597  24.728  11.907
19970W        W91641  30.523  41.288  14.326
19971W        W91642  38.828  31.792   2.881
19972W        W91643  38.096   2.951   0.258
19973W        W91644  34.849   1.512   0.413
19974W        W91645  37.449  16.767   1.481
19975W        W91646  19.140  40.289  12.905
19976W        W91647  11.207  23.511  14.276
19977W        W91648  34.912  36.528   2.718
19978W        W91649  16.647   8.332   0.324
19979W        W91650   8.138   0.374  11.202
19980W        W91651  14.803  39.900   0.000
19981W        W91652  33.273  32.230  10.656
19982W        W91653   2.184  22.249   0.630
19983W        W91654  34.941  30.368   2.229
19984W        W91655  23.489  27.911   1.784
19985W        W91656  19.033  33.538  13.450
19986W        W91657  29.889  28.397   1.958
19987W        W91658  42.112  21.965  14.900
19988W        W91659  19.844  27.285   2.014
19989W        W91660   8.884  32.009   1.866
19990W        W91661   5.384  26.019  11.451
19991W        W91662  44.188  11.307   1.685
19992W        W91663   8.309  18.441   4.830
19993W        W91664   2.430  39.880  11.147
19994W        W91665  31.024   1.612   0.193
19995W        W91666  42.459  44.464   0.444
19996W        W91667   1.037  44.762  14.404
19997W        W91668   0.493   1.000   4.031
19998W        W91669   1.479  44.495  13.946
19999W        W91670  15.322   8.108  10.598
20000W        W91671  31.486  29.484   4.879
20001W        W91672   9.265  13.057  12.546
20002W        W91673  13.913   8.289   4.796
20003W        W91674   1.293  22.256   4.530
20004W        W91675   3.774  12.654   0.236
20005W        W91676  13.465  33.095   4.099
20006W        W91677  28.976  34.902  10.693
20007W        W91678  19.814  39.461   3.093
20008W        W91679  32.489  44.939  11.391
20009W        W91680  23.535  26.239  14.465
20010W        W91681  13.256  36.976   1.347
20011W        W91682  42.935  11.168   1.207
20012W        W91683  18.889   2.697   4.154
20013W        W91684   9.938   6.909  13.762
20014W        W91685  38.556  12.086  12.663
20015W        W91686  12.163  30.144  10.676
20016W        W91687  43.885  31.718   3.724
20017W        W91688   2.427   6.262   3.229
20018W        W91689   9.760  19.760  13.004
20019W        W91690  43.772   4.735  12.438
20020W        W91691  41.467  18.359  11.605
20021W        W91692  29.845  33.186   2.234
20022W        W91693  43.973  35.403   4.576
20023W        W91694  35.453  39.870   3.615
20024W        W91695  19.870  16.616   9.909
20025W        W91696   5.326  13.724   4.087
20026W        W91697  33.848  35.144  12.118
20027W        W91698  18.119  24.539  14.476
20028W        W91699  16.107   7.064  10.613
20029W        W91700   5.679  34.647  14.918
20030W        W91701   5.314  37.592  14.511
20031W        W91702  33.621  18.589  12.042
20032W        W91703   3.419  32.531   1.712
20033W        W91704   3.769   6.237   4.152
20034W        W91705   8.630   2.938   2.545
20035W        W91706  40.290   5.813   2.696
20036W        W91707  27.965  32.532  11.537
20037W        W91708  21.031  41.820   1.716
20038W        W91709  13.658   4.092  11.500
20039W        W91710   5.734  36.891   1.907
20040W        W91711  39.992  32.142   2.303
20041W        W91712  31.041  39.465   1.362
20042W        W91713  22.002  11.345   2.350
20043W        W91714  41.055  40.037   2.223
20044W        W91715  32.368   1.487  13.503
20045W        W91716  11.156  30.856   0.410
20046W        W91717   0.541  13.066   0.457
20047W        W91718  25.652   6.927   4.899
20048W        W91719  38.561  28.531   1.410
20049W        W91720   9.164  27.680  12.633
20050W        W91721  16.881  16.852   3.398
20051W        W91722   8.461  29.590  13.463
20052W        W91723  42.254  16.293  13.546
20053W        W91724  24.160  13.064  13.478
20054W        W91725  20.765   8.396   0.676
20055W        W91726  35.485  36.753   1.370
20056W        W91727  21.175  27.580  11.146
20057W        W91728  33.165  33.589  10.973
20058W        W91729   7.598  43.858  11.480
20059W        W91730  15.302  20.983  11.459
20060W        W91731   1.399  38.978  11.098
20061W        W91732  41.585  28.075  13.814
20062W        W91733  11.614  30.247  13.836
20063W        W91734  20.756  44.975   2.819
20064W        W91735  35.694   7.924  11.926
20065W        W91736  36.753  34.898  11.944
20066W        W91737   6.713   9.758  12.631
20067W        W91738  44.845  20.875  13.274
20068W        W91739  10.195   6.817   0.658
20069W        W91740  26.531  42.067   3.792
20070W        W91741  30.961  22.965   0.231
20071W        W91742  25.575  31.972  13.423
20072W        W91743  13.540  43.892   0.437
20073W        W91744  44.238  29.986  13.451
20074W        W91745  35.957  35.315   4.749
20075W        W91746  30.986  25.089   2.649
20076W        W91747  34.017  19.219   2.559
20077W        W91748  33.356  34.401   3.075
20078W        W91749  17.385   6.784   2.463
20079W        W91750  15.772  26.051  14.296
20080W        W91751  15.616  26.065   0.835
20081W        W91752  19.770  37.078   4.743
20082W        W91753  10.461  35.970   2.309
20083W        W91754  38.563  27.179  12.076
20084W        W91755   2.383   0.004   2.728
20085W        W91756   8.879  13.316   1.297
20086W        W91757  29.971  37.853   3.695
20087W        W91758  42.813  27.084  13.398
20088W        W91759  38.756  13.195   4.001
20089W        W91760  40.896  33.577   0.913
20090W        W91761   6.763  13.199  11.365
20091W        W91762  14.417   4.871  10.681
20092W        W91763   3.693  44.219   3.520
20093W        W91764  17.713   7.436   1.821
20094W        W91765  29.205  13.890   1.892
20095W        W91766  35.040  22.511   4.696
20096W        W91767  39.890  28.878  13.922
20097W        W91768  24.577  40.763   0.585
20098W        W91769   5.592  41.328  11.324
20099W        W91770  36.598  36.981   0.239
20100W        W91771  40.934   7.696   3.217
20101W        W91772  42.028   6.177  11.253
20102W        W91773  13.326   4.903  11.694
20103W        W91774   2.211  27.432  13.741
20104W        W91775  36.083  18.204   4.680
20105W        W91776  41.023   8.654  14.281
20106W        W91777   3.780   2.793  14.427
20107W        W91778  38.213  27.747   1.460
20108W        W91779  23.433  41.699   3.620
20109W        W91780  22.727   1.928   4.709
20110W        W91781  44.220  26.420  11.213
20111W        W91782  34.490  14.172  12.302
20112W        W91783  35.011  10.238   3.328
20113W        W91784  12.947   6.915   1.225
20114W        W91785  23.247   8.495  12.029
20115W        W91786  12.565  22.044   0.379
20116W        W91787  36.309  20.024  10.554
20117W        W91788  33.284   6.243   3.542
20118W        W91789  22.570  36.402   1.352
20119W        W91790  21.320  17.094   1.215
20120W        W91791   5.160   0.247  13.964
20121W        W91792   4.642  34.040  12.998
20122W        W91793   6.898  14.756   2.607
20123W        W91794  39.836  25.053  13.454
20124W        W91795  15.539  42.022   1.791
20125W        W91796  40.532  17.702   1.339
20126W        W91797  13.854  41.960  14.890
20127W        W91798  17.308  19.763  13.967
20128W        W91799  18.762  19.763  11.644
20129W        W91800  18.162   4.014  11.166
20130W        W91801  33.346  43.041  13.546
20131W        W91802  13.849  25.030   2.321
20132W        W91803  16.595  21.571   1.372
20133W        W91804  33.663  18.870  12.475
20134W        W91805  23.032  22.192  11.474
20135W        W91806  11.803  28.569  13.573
20136W        W91807  42.421  15.569  12.907
20137W        W91808  10.828  30.571  14.320
20138W        W91809   7.414  32.009  14.996
20139W        W91810  17.772  37.882   2.684
20140W        W91811  14.220   8.908   1.821
20141W        W91812  22.048  23.434   2.700
20142W        W91813  13.044   2.266  11.113
20143W        W91814   4.725  22.082  14.906
20144W        W91815  13.794  28.865   1.196
20145W        W91816  40.807  23.770   0.387
20146W        W91817  16.279  24.991   2.277
20147W        W91818  40.080  36.939  14.875
20148W        W91819  17.217  16.026  14.463
20149W        W91820  10.726  24.580  11.875
20150W        W91821  23.571  38.846  11.348
20151W        W91822  23.746  22.253   4.318
20152W        W91823   4.748   2.393  11.955
20153W        W91824  42.032  40.004   1.886
20154W        W91825  33.454  44.908  14.991
20155W        W91826  22.675  41.288  13.308
20156W        W91827  29.899   7.999  12.067
20157W        W91828  11.847   0.261  14.305
20158W        W91829   7.687  25.018  12.619
20159W        W91830  17.053  18.655   1.905
20160W        W91831   0.445  41.241   4.096
20161W        W91832  28.011   0.289   2.377
20162W        W91833  16.502   8.630   0.718
20163W        W91834   2.728  14.347   1.328
20164W        W91835  23.943  32.456  11.514
20165W        W91836   5.856  24.505  14.437
20166W        W91837  25.735  42.075  11.603
20167W        W91838   4.721   9.305  14.748
20168W        W91839  12.755   6.717   2.852
20169W        W91840   9.017   5.709   2.701
20170W        W91841  32.999  25.441  12.863
20171W        W91842   3.160  13.009  13.869
20172W        W91843   0.464  19.943   0.950
20173W        W91844   4.185  16.766   4.206
20174W        W91845  28.913  23.928  13.590
20175W        W91846   5.255  42.474   4.702
20176W        W91847   3.269  40.139   3.997
20177W        W91848   2.237  30.804   0.885
20178W        W91849  14.128  17.506  14.686
20179W        W91850  12.851   2.946   4.582
20180W        W91851  15.208   2.924  10.984
20181W        W91852   9.111  15.885   1.428
20182W        W91853  29.448  17.580  12.545
20183W        W91854  13.319  32.583   0.562
20184W        W91855  19.507   4.363   1.742
20185W        W91856  24.245  24.058  14.715
20186W        W91857  27.186   3.892  12.494
20187W        W91858   2.064  11.268  10.766
20188W        W91859  41.902  10.915   3.832
20189W        W91860  16.032   7.721   9.883
20190W        W91861  27.145  35.511  11.122
20191W        W91862  40.490   3.432   0.829
20192W        W91863  35.938   2.370   4.648
20193W        W91864   7.360  12.648  14.980
20194W        W91865  25.432   2.337  11.131
20195W        W91866  39.431  21.565   3.418
20196W        W91867  43.995  21.684  14.357
20197W        W91868   0.243  24.791   2.147
20198W        W91869   2.950  42.764  13.451
20199W        W91870  22.218  34.969   4.684
20200W        W91871   1.202  35.801  14.160
20201W        W91872  41.198   7.964   4.979
20202W        W91873  12.953  23.178   1.458
20203W        W91874   0.715  14.278   4.943
20204W        W91875  36.139  29.872   0.190
20205W        W91876   9.425  14.134  11.601
20206W        W91877  29.541  18.244   1.412
20207W        W91878  18.164  17.679   1.025
20208W        W91879   7.186  44.934   1.198
20209W        W91880  25.688  32.127  11.203
20210W        W91881  18.990  23.872  10.105
20211W        W91882  43.313  43.012  12.898
20212W        W91883  41.388  12.389   2.416
20213W        W91884  13.229   7.543   0.678
20214W        W91885  22.447  19.769  13.473
20215W        W91886  34.397  12.618  13.026
20216W        W91887   3.759  22.987  11.486
20217W        W91888  16.356  14.667  10.484
20218W        W91889  30.490  39.092  12.866
20219W        W91890  16.175  31.737   3.326
20220W        W91891  28.078  23.520   3.742
20221W        W91892  13.224  35.142  11.210
20222W        W91893  43.475  17.392  10.338
20223W        W91894   1.405   6.664  11.508
20224W        W91895  14.780   2.221  14.354
20225W        W91896  27.003  25.821   3.748
20226W        W91897  36.821  25.932   1.776
20227W        W91898  20.129  26.385   2.241
20228W        W91899  22.617  30.902   2.328
20229W        W91900   8.292  22.050   0.779
20230W        W91901  17.642  20.521  12.375
20231W        W91902   1.297  29.749  13.418
20232W        W91903  27.970  23.210  11.126
20233W        W91904  31.987  21.660   4.082
20234W        W91905   9.297   4.741  14.998
20235W        W91906  36.257  16.812  11.329
20236W        W91907  20.721  39.305  14.807
20237W        W91908  42.298  22.896  11.303
20238W        W91909  36.091  26.659  11.916
20239W        W91910  27.078  26.933  12.358
20240W        W91911  38.897  27.511  14.442
20241W        W91912  11.374  30.971  13.587
20242W        W91913  35.836   4.639  14.984
20243W        W91914  37.274  25.148   0.868
20244W        W91915  18.793   3.340  12.022
20245W        W91916  21.042   5.437  13.556
20246W        W91917   5.314  34.375   3.219
20247W        W91918  37.586   4.447   3.281
20248W        W91919  26.250  23.216  14.420
20249W        W91920  24.073  34.523   3.745
20250W        W91921   9.837  14.798  13.434
20251W        W91922   3.260  40.992  10.712
20252W        W91923   6.851  28.583   4.341
20253W        W91924   2.115   2.571  12.247
20254W        W91925   2.851  35.562   3.674
20255W        W91926   2.258  25.686   4.142
20256W        W91927   5.028  42.505  12.638
20257W        W91928  40.883  25.353  14.448
20258W        W91929  27.468  14.271   3.213
20259W        W91930  38.420  29.079   0.671
20260W        W91931  11.207  40.734   1.744
20261W        W91932  16.983  17.248  12.545
20262W        W91933  38.915  32.592  13.424
20263W        W91934  44.264  40.563  14.837
20264W        W91935  12.649   0.339   0.947
20265W        W91936  32.308  40.555   0.738
20266W        W91937   3.191  43.792  12.533
20267W        W91938   9.386  27.648   3.295
20268W        W91939  39.657  35.416   4.148
20269W        W91940  16.676  40.270  14.488
20270W        W91941  13.325  31.860   4.636
20271W        W91942  23.899  28.544   1.109
20272W        W91943  34.159  36.130   0.837
20273W        W91944  19.539  16.809  12.002
20274W        W91945  35.631  34.519  10.569
20275W        W91946  38.593  43.894  11.459
20276W        W91947  12.019   2.391  11.016
20277W        W91948   7.586   1.551   1.880
20278W        W91949  26.194   9.386  13.801
20279W        W91950  22.675  40.040   1.179
20280W        W91951  21.264  31.900   4.277
20281W        W91952  12.128   1.329  12.526
20282W        W91953   0.327  36.931   0.298
20283W        W91954  42.354  15.565  11.484
20284W        W91955  25.236  14.103   3.795
20285W        W91956  11.851   6.720  14.286
20286W        W91957  37.290  22.536  12.987
20287W        W91958   9.517  41.664  14.239
20288W        W91959   4.391  13.803  11.593
20289W        W91960  25.070  29.911  11.636
20290W        W91961  38.863   9.655   3.230
20291W        W91962   1.013  15.859   1.842
20292W        W91963  10.176  23.540   9.607
20293W        W91964   7.200  12.813   3.267
20294W        W91965  13.801  21.223  13.063
20295W        W91966  30.715   9.846  12.062
20296W        W91967  43.910  38.481   1.322
20297W        W91968  41.981  26.350  10.799
20298W        W91969  33.647  14.241  10.513
20299W        W91970  34.095  15.672  14.994
20300W        W91971  33.715  12.377  14.004
20301W        W91972   2.710  22.316   3.186
20302W        W91973  27.496  32.106  10.677
20303W        W91974   9.823  20.256   3.781
20304W        W91975  18.769  37.779   2.377
20305W        W91976  33.421  17.004   0.918
20306W        W91977  28.551   1.269  14.923
20307W        W91978  16.278   1.555   1.577
20308W        W91979   0.274  23.517  11.962
20309W        W91980  42.747  10.400   0.872
20310W        W91981  19.867  34.002   0.270
20311W        W91982   6.317  29.215  14.841
20312W        W91983   9.596  39.525   4.230
20313W        W91984  21.097  18.553   4.300
20314W        W91985  19.443  33.116   2.315
20315W        W91986  22.171  24.469   2.767
20316W        W91987  23.085  23.697   2.704
20317W        W91988  27.140  24.714  13.928
20318W        W91989  35.094  32.561  12.509
20319W        W91990  20.520  13.800  13.961
20320W        W91991  42.626  34.481   0.553
20321W        W91992  12.855  25.543  14.704
20322W        W91993   7.175  24.462  12.991
20323W        W91994  38.855  38.817  13.973
20324W        W91995   9.331   1.859  10.346
20325W        W91996   1.584  11.355   2.304
20326W        W91997  40.804   5.831   2.794
20327W        W91998   2.954  12.709   0.794
20328W        W91999  43.431  23.965   0.496
20329W        W92000  24.407  27.525   2.890
20330W        W92001   0.011  22.091   1.401
20331W        W92002  28.213  37.561   4.998
20332W        W92003   4.730  38.324   4.581
20333W        W92004  20.146  39.084   0.927
20334W        W92005  38.387   1.372   2.323
20335W        W92006   6.334  39.148   3.375
20336W        W92007  10.304  30.528  13.792
20337W        W92008  37.293  16.098  13.905
20338W        W92009  11.206  35.598   0.819
20339W        W92010  22.758  35.977   1.107
20340W        W92011  38.120  20.204  11.168
20341W        W92012   6.235  34.448   0.057
20342W        W92013  35.878  30.858   4.595
20343W        W92014  16.787  14.672   3.080
20344W        W92015  13.691  43.716   3.596
20345W        W92016  31.803  22.484  11.362
20346W        W92017  18.695  24.197  14.376
20347W        W92018  37.138   6.236   5.122
20348W        W92019   5.683   2.417   0.915
20349W        W92020   3.694  38.035  12.048
20350W        W92021  21.282   4.731  11.102
20351W        W92022  26.206  19.347   3.569
20352W        W92023  23.214  25.947  13.441
20353W        W92024   4.792  18.946   0.339
20354W        W92025  30.841   6.128  10.337
20355W        W92026  40.931   2.787  11.784
20356W        W92027  10.683  42.856  12.043
20357W        W92028  43.896  20.534  14.786
20358W        W92029  14.058  28.932  11.884
20359W        W92030   8.498  16.616  10.674
20360W        W92031  29.412  30.086  12.961
20361W        W92032  23.677  25.302  12.642
20362W        W92033  44.247  31.821   2.346
20363W        W92034  10.624  42.109   4.168
20364W        W92035   9.726  30.897  10.742
20365W        W92036  13.962  23.216   2.709
20366W        W92037  10.164  22.284   0.463
20367W        W92038  41.775  44.422  14.423
20368W        W92039  40.900   9.416  12.575
20369W        W92040  11.147  29.924  11.581
20370W        W92041  13.126   2.587   4.878
20371W        W92042  40.303  16.941  13.282
20372W        W92043  43.618   5.960   1.525
20373W        W92044  12.783  27.231   2.000
20374W        W92045  31.816  36.690   4.422
20375W        W92046  27.989  42.926   2.915
20376W        W92047   6.368  12.709  10.137
20377W        W92048  30.553  10.691  10.653
20378W        W92049  25.050   4.823   5.087
20379W        W92050   4.069  26.451   4.830
20380W        W92051  35.117  26.687   4.576
20381W        W92052  44.122  23.199   2.587
20382W        W92053  11.501  15.293   2.369
20383W        W92054  29.246  30.138   2.688
20384W        W92055  34.442  39.066   3.763
20385W        W92056  13.299  21.470   3.096
20386W        W92057   6.787   7.126   3.089
20387W        W92058  22.341   8.092  11.132
20388W        W92059  36.298  26.608  12.499
20389W        W92060  33.372  15.098   0.998
20390W        W92061  15.348  28.632   4.147
20391W        W92062   0.478  10.886   0.469
20392W        W92063  18.238  23.998  14.517
20393W        W92064  11.585   1.054   1.231
20394W        W92065  27.924  20.683   1.378
20395W        W92066   0.299  38.157   3.196
20396W        W92067   1.216  34.249   5.044
20397W        W92068  29.753   7.500  12.076
20398W        W92069  19.935  14.251  12.390
20399W        W92070   2.785   6.749  14.781
20400W        W92071  20.901  27.045  10.507
20401W        W92072   4.853   7.179  13.009
20402W        W92073  18.495  12.021  13.755
20403W        W92074  38.980  33.589  11.188
20404W        W92075  27.566  35.970  13.489
20405W        W92076  19.004  26.632  14.444
20406W        W92077  36.968  15.090  12.495
20407W        W92078  21.030  30.426  13.456
20408W        W92079  10.692   5.513  12.014
20409W        W92080  21.531  12.047   1.393
20410W        W92081  19.652  13.587  14.050
20411W        W92082  17.971   7.214  11.915
20412W        W92083  19.783  23.780   1.922
20413W        W92084   9.173  33.139   4.773
20414W        W92085  19.717  35.603  14.821
20415W        W92086  38.831   6.862   3.064
20416W        W92087  30.857  20.631   0.222
20417W        W92088   7.220  22.214   1.412
20418W        W92089   0.804   2.235  11.116
20419W        W92090  33.503  30.312  12.630
20420W        W92091  38.441  15.078  14.932
20421W        W92092  23.446  10.413  13.863
20422W        W92093  12.366  24.686   0.478
20423W        W92094  29.420  43.284  12.339
20424W        W92095  36.102  41.687  14.087
20425W        W92096  27.299  27.888   1.820
20426W        W92097   1.327  40.530   1.324
20427W        W92098  20.239  11.431  10.723
20428W        W92099  37.921  39.072   5.147
20429W        W92100   1.649  34.576   4.948
20430W        W92101  34.373  39.493   3.516
20431W        W92102  28.717  40.734   4.691
20432W        W92103   7.858   5.176   4.253
20433W        W92104  30.582  21.188  13.583
20434W        W92105  29.981  24.053   3.983
20435W        W92106  15.388  14.640  14.502
20436W        W92107  20.960  19.596  13.382
20437W        W92108  20.200  20.239  14.377
20438W        W92109  15.511   6.787  12.248
20439W        W92110   8.805  36.374  12.422
20440W        W92111  44.632   3.778  10.718
20441W        W92112  39.515   7.385  12.565
20442W        W92113  17.852   3.417   2.741
20443W        W92114  25.034  21.197  14.340
20444W        W92115  16.243   0.512   2.270
20445W        W92116  15.364  40.986  13.837
20446W        W92117   0.464  22.210  12.487
20447W        W92118  38.936  18.681  13.975
20448W        W92119   1.243  20.201   2.758
20449W        W92120  23.922   9.423   0.850
20450W        W92121   1.884  13.847  11.963
20451W        W92122  10.860  34.007  14.291
20452W        W92123  26.204  22.177   3.856
20453W        W92124  25.258  10.420   2.289
20454W        W92125  10.130  31.897   4.698
20455W        W92126   9.402  18.128  10.671
20456W        W92127   9.275  40.899   3.119
20457W        W92128  17.614  38.467  14.956
20458W        W92129  15.389   6.815   4.677
20459W        W92130  11.938   2.644  12.461
20460W        W92131  21.159  35.567   0.794
20461W        W92132  19.240  18.414  12.874
20462W        W92133  35.555  31.465  10.527
20463W        W92134  35.875  39.643  13.930
20464W        W92135   6.227   3.948  11.612
20465W        W92136  18.470  18.062  11.717
20466W        W92137   0.213   0.986  12.470
20467W        W92138   3.544  15.115   0.927
20468W        W92139  17.181   4.702  12.117
20469W        W92140  42.380   3.198  13.951
20470W        W92141  37.479  22.545   2.829
20471W        W92142  12.071  35.978  14.946
20472W        W92143  21.581   6.771  14.430
20473W        W92144  38.587  42.479   3.698
20474W        W92145   5.905  43.727  11.974
20475W        W92146  44.074  19.306  11.079
20476W        W92147  28.757  43.408   1.252
20477W        W92148   9.304  31.981   0.838
20478W        W92149  26.701   3.382  11.638
20479W        W92150   0.138  36.214  11.142
20480W        W92151   7.144   4.406  12.031
20481W        W92152  26.436  27.506   2.876
20482W        W92153  23.658  38.603  13.934
20483W        W92154  29.124  36.518  11.847
20484W        W92155  24.886   4.696  13.514
20485W        W92156  36.139   7.411   2.826
20486W        W92157   0.385  28.556  14.951
20487W        W92158  35.359   7.658  12.545
20488W        W92159  37.939  23.179  12.047
20489W        W92160  17.160  23.306   3.698
20490W        W92161  24.789   6.201  14.336
20491W        W92162  29.323   2.011  13.306
20492W        W92163  34.410  19.672   4.256
20493W        W92164  27.449  31.503   1.963
20494W        W92165  34.161  35.362  11.791
20495W        W92166  19.809  10.198   4.139
20496W        W92167  13.122  44.954  13.313
20497W        W92168  40.321  28.375   2.645
20498W        W92169  11.637  44.087  11.538
20499W        W92170  36.570  19.901   4.335
20500W        W92171   6.421  34.843   1.811
20501W        W92172  29.388  19.995   4.813
20502W        W92173  19.822  36.441   0.520
20503W        W92174  10.671  32.710   1.418
20504W        W92175   3.378  13.029   2.661
20505W        W92176  16.332  28.718  12.558
20506W        W92177  42.821  19.280  13.929
20507W        W92178  30.914  26.020   2.674
20508W        W92179  15.771  30.532  13.812
20509W        W92180   3.159  12.024   2.482
20510W        W92181  24.970  27.050   4.471
20511W        W92182  31.114  42.103   0.258
20512W        W92183  37.831   1.524   0.342
20513W        W92184  35.846  28.607   3.720
20514W        W92185   2.262  16.129   4.346
20515W        W92186  17.033  25.574   3.334
20516W        W92187  19.598  27.344  11.663
20517W        W92188  25.110  36.495   4.497
20518W        W92189  32.117  18.461   2.410
20519W        W92190  40.965  22.970   1.666
20520W        W92191  12.628  37.907   0.758
20521W        W92192  42.256  44.402  12.541
20522W        W92193  24.092   8.516  12.012
20523W        W92194   6.447  36.017   1.799
20524W        W92195   3.272  34.189   4.311
20525W        W92196  30.958  44.421  11.429
20526W        W92197  43.439  23.872   3.220
20527W        W92198  18.794   2.180   4.096
20528W        W92199  10.684  10.978  10.648
20529W        W92200  27.389   6.283   9.786
20530W        W92201  31.397   7.308  11.674
20531W        W92202  40.817   2.411   4.731
20532W        W92203  43.030  40.133   0.018
20533W        W92204  40.262  31.845   0.873
20534W        W92205  26.707  16.518   2.322
20535W        W92206  43.707  16.805   4.673
20536W        W92207  12.739  27.050  13.463
20537W        W92208  30.699   7.236   3.738
20538W        W92209  12.716  11.882  12.934
20539W        W92210   3.076  18.599  13.425
20540W        W92211  32.410  22.606   0.530
20541W        W92212  16.745  28.251  12.460
20542W        W92213  18.507  14.610   9.755
20543W        W92214  37.885   6.707  13.342
20544W        W92215  32.647   5.552  14.777
20545W        W92216  39.477  20.041   2.323
20546W        W92217  19.544  27.573  13.900
20547W        W92218  20.739  15.325  14.961
20548W        W92219  38.959   3.419  10.739
20549W        W92220  13.476  41.417  10.714
20550W        W92221  26.143  33.907   2.654
20551W        W92222  41.383  28.318  11.272
20552W        W92223  32.859   8.265   4.278
20553W        W92224  33.545  43.238   2.051
20554W        W92225  16.197  26.720  11.553
20555W        W92226  24.778   2.000  14.424
20556W        W92227  29.403  35.512  10.723
20557W        W92228  26.475  28.630  14.137
20558W        W92229   8.169  21.706  13.989
20559W        W92230  12.231   1.193  11.524
20560W        W92231  22.367  31.568   0.802
20561W        W92232  11.738  43.725  13.865
20562W        W92233  44.343   3.647   3.276
20563W        W92234  15.600  38.729  11.263
20564W        W92235  30.027  35.473   4.632
20565W        W92236  43.255  43.627  10.453
20566W        W92237  41.587  18.839  13.329
20567W        W92238   0.432   3.526   5.028
20568W        W92239  35.562  43.641   3.639
20569W        W92240   2.762  25.397  13.019
20570W        W92241  33.877  37.622  11.048
20571W        W92242  20.372  11.588  10.172
20572W        W92243  27.642  21.508   0.276
20573W        W92244  29.109  28.944  14.816
20574W        W92245  19.697  24.184   0.496
20575W        W92246  39.678  29.636  11.699
20576W        W92247  17.632  21.752   3.492
20577W        W92248   7.825  26.085  12.474
20578W        W92249   9.412  38.017  10.850
20579W        W92250  12.967   2.365  12.039
20580W        W92251  40.800  20.003   4.531
20581W        W92252  26.160  28.907   2.279
20582W        W92253  38.375   0.150  11.714
20583W        W92254  28.905  41.065   0.055
20584W        W92255  22.490  29.623   4.221
20585W        W92256  12.127  37.500  12.451
20586W        W92257   9.628   1.948  13.061
20587W        W92258  35.141  44.230   2.506
20588W        W92259  40.111  20.623  11.554
20589W        W92260  33.020  17.996   1.676
20590W        W92261  42.015  11.409  12.478
20591W        W92262  20.870   7.170   3.300
20592W        W92263  19.969   2.392  14.310
20593W        W92264  25.366  15.748   2.924
20594W        W92265   4.447  34.364  11.502
20595W        W92266   9.834  38.240  11.119
20596W        W92267   2.023  22.398   9.739
20597W        W92268   9.043  12.056  12.373
20598W        W92269  15.291  42.474   1.784
20599W        W92270   4.301  31.174   1.234
20600W        W92271  37.595  31.656   1.229
20601W        W92272  19.264   4.212  10.596
20602W        W92273   4.237  39.351   4.553
20603W        W92274   4.290  12.362   1.030
20604W        W92275  37.845  18.367  13.774
20605W        W92276  37.493  44.293   4.600
20606W        W92277  16.248   2.785  12.632
20607W        W92278   1.311  27.894   0.365
20608W        W92279  43.546   9.441  10.622
20609W        W92280  42.971  25.669   5.070
20610W        W92281  41.450  43.043   3.680
20611W        W92282   1.496  31.847   2.436
20612W        W92283   2.813  43.522  10.718
20613W        W92284  15.372   6.868   0.092
20614W        W92285  22.608  12.809  12.028
20615W        W92286  21.147  33.654  12.879
20616W        W92287  41.388  25.154  12.113
20617W        W92288  16.208   4.766  10.041
20618W        W92289  28.013  28.682  13.419
20619W        W92290  17.307  19.592  14.461
20620W        W92291   4.152   4.860   2.678
20621W        W92292  37.263  30.113   4.114
20622W        W92293   7.712  14.147  12.717
20623W        W92294   3.518  25.492   1.899
20624W        W92295  28.633  19.300   2.666
20625W        W92296  20.562  24.867  14.506
20626W        W92297  29.655  25.139   0.335
20627W        W92298  22.327   4.358  13.510
20628W        W92299  41.769  12.464   0.762
20629W        W92300   7.861  19.323  11.141
20630W        W92301   0.536   3.803  11.896
20631W        W92302  31.396  21.994   0.928
20632W        W92303   1.198  19.790  14.986
20633W        W92304  11.208  23.956   1.788
20634W        W92305   7.221  26.121   0.481
20635W        W92306  22.066   5.126   1.469
20636W        W92307  35.453   0.753  11.310
20637W        W92308   6.944  20.116  10.693
20638W        W92309   2.537  32.266  12.955
20639W        W92310   4.249   0.510   1.499
20640W        W92311  14.157  31.269  11.160
20641W        W92312  41.592  32.436   1.323
20642W        W92313   9.485   2.397  10.516
20643W        W92314  36.831   5.328   4.658
20644W        W92315  40.524  17.781   4.351
20645W        W92316   3.203   3.910   2.238
20646W        W92317  18.558  29.183  13.577
20647W        W92318  25.760   1.594  10.701
20648W        W92319  37.453   5.482   4.194
20649W        W92320  31.411  19.498   2.234
20650W        W92321  12.724  29.905   0.042
20651W        W92322  33.942  11.980  13.739
20652W        W92323  27.460  10.087   3.184
20653W        W92324  17.215  17.233   1.218
20654W        W92325   9.916  17.455   1.613
20655W        W92326  40.751  40.865   5.055
20656W        W92327  39.052  14.479   2.867
20657W        W92328   3.245  12.287  14.460
20658W        W92329   5.702  17.068   1.385
20659W        W92330   4.732   5.643  13.900
20660W        W92331   5.669  12.824   3.188
20661W        W92332  11.389   3.360   0.960
20662W        W92333   4.242  34.820  13.544
20663W        W92334  30.750  14.327  12.913
20664W        W92335   5.804   5.934   0.390
20665W        W92336  33.932   3.452   1.982
20666W        W92337  24.701   5.881  14.727
20667W        W92338  42.355  37.637  11.322
20668W        W92339  26.154  34.383  12.368
20669W        W92340  13.586  33.976  13.470
20670W        W92341  42.092   4.929  12.539
20671W        W92342  40.303  28.110  13.788
20672W        W92343  39.948  11.150   1.648
20673W        W92344  13.681  20.535  12.100
20674W        W92345  29.528  23.102   1.127
20675W        W92346   5.009  20.052  14.055
20676W        W92347  24.591  27.114  14.058
20677W        W92348   5.855   1.242   4.648
20678W        W92349  10.814  29.862   0.460
20679W        W92350   8.207  26.459   2.156
20680W        W92351  18.524  37.276  14.433
20681W        W92352   0.224   8.890   0.851
20682W        W92353   7.444  27.544   3.634
20683W        W92354  44.961  31.895   3.385
20684W        W92355   3.272  41.282  11.129
20685W        W92356  13.332  33.269  12.252
20686W        W92357   2.964  23.663   3.726
20687W        W92358  15.283  41.773   4.239
20688W        W92359  28.171  16.677  12.243
20689W        W92360   1.810   8.780  12.486
20690W        W92361  25.983  30.230   2.330
20691W        W92362  19.681  11.831   1.662
20692W        W92363   0.472  39.197  11.952
20693W        W92364  38.585   8.800  14.668
20694W        W92365  35.576   8.494   3.495
20695W        W92366  11.701  16.242  11.091
20696W        W92367  32.909  24.091  10.863
20697W        W92368  15.922  21.088  14.304
20698W        W92369  37.339  13.118  13.428
20699W        W92370  30.828   3.733  14.496
20700W        W92371  39.860   6.422  11.099
20701W        W92372  17.556  42.550  12.446
20702W        W92373   7.835   9.069   0.239
20703W        W92374   8.815  37.860  14.877
20704W        W92375  44.318   7.472  11.613
20705W        W92376  42.405  14.221  14.964
20706W        W92377  33.444  23.453  14.486
20707W        W92378  32.064  34.956   0.256
20708W        W92379  44.555  35.678  12.319
20709W        W92380  37.236  13.422   0.941
20710W        W92381   2.360  25.780  12.970
20711W        W92382  35.823  13.688   0.798
20712W        W92383  28.981  11.134  14.837
20713W        W92384  24.787   3.346  13.845
20714W        W92385   8.888   1.774   3.717
20715W        W92386  17.859  44.346   0.677
20716W        W92387   4.504  19.373   2.699
20717W        W92388   9.644  15.592  12.852
20718W        W92389  44.028  15.898   1.380
20719W        W92390  32.480   2.495   0.854
20720W        W92391  33.588  34.582  10.607
20721W        W92392  11.938  42.313  14.353
20722W        W92393  35.590  35.901  10.591
20723W        W92394   2.005  14.618  14.997
20724W        W92395   2.519  44.948  13.371
20725W        W92396  26.029  16.315  12.029
20726W        W92397  31.893  13.887  11.624
20727W        W92398  34.822   3.864   4.051
20728W        W92399  37.927  18.757   3.626
20729W        W92400   7.735  21.037   4.661
20730W        W92401  21.649  38.006  14.435
20731W        W92402  43.586  30.230  12.611
20732W        W92403  40.553  28.712   4.162
20733W        W92404  14.669  43.972  11.217
20734W        W92405  40.390  23.024   4.625
20735W        W92406  29.210  24.670   1.226
20736W        W92407  16.904  37.748  14.332
20737W        W92408   8.504  41.377  14.924
20738W        W92409  39.428  11.601  11.741
20739W        W92410   4.910  27.929   3.735
20740W        W92411  34.126  36.812  14.454
20741W        W92412  29.104  39.670  12.374
20742W        W92413  25.992  33.964   3.148
20743W        W92414   1.347  19.689   4.639
20744W        W92415  22.011  30.868   1.838
20745W        W92416  37.323  38.504  13.519
20746W        W92417  20.603  42.186   2.255
20747W        W92418  12.277  36.561   2.296
20748W        W92419  16.592  23.414   3.641
20749W        W92420   8.306  33.600  13.947
20750W        W92421   5.289  29.187  13.787
20751W        W92422  27.617  26.300   5.089
20752W        W92423  31.682   1.760   3.118
20753W        W92424  16.164  17.788   1.397
20754W        W92425  25.675  29.468  13.293
20755W        W92426  34.094  29.004   3.954
20756W        W92427  42.882  35.591  13.219
20757W        W92428  22.011  29.756  11.215
20758W        W92429  37.392   9.049   0.383
20759W        W92430  17.080   7.274   0.235
20760W        W92431  10.406  19.271   0.864
20761W        W92432  25.595  44.364  12.145
20762W        W92433  21.510  16.019  12.420
20763W        W92434   9.374  38.184   4.577
20764W        W92435   1.846  18.070  13.979
20765W        W92436  21.302  34.163   3.168
20766W        W92437  30.983  33.909   0.373
20767W        W92438  13.870  19.105  10.816
20768W        W92439  43.902  14.569   1.908
20769W        W92440   1.046  23.147   2.348
20770W        W92441   2.331  28.538  14.885
20771W        W92442   6.626   8.966   2.430
20772W        W92443  12.356   6.005  12.643
20773W        W92444  39.802  27.207  14.745
20774W        W92445   1.935   9.256   1.090
20775W        W92446   1.116   2.732   3.160
20776W        W92447  21.769  43.780  12.447
20777W        W92448   3.925  18.836  11.425
20778W        W92449  19.960  23.036   5.517
20779W        W92450  11.645  24.252  10.693
20780W        W92451  22.162   2.281  13.592
20781W        W92452  41.265  24.867  11.667
20782W        W92453   8.152  26.979  10.817
20783W        W92454  23.316  34.512   1.279
20784W        W92455  40.196  23.194   3.114
20785W        W92456  17.815  42.379  10.729
20786W        W92457  16.769  44.328  14.788
20787W        W92458  14.763  11.856  14.784
20788W        W92459   0.714  15.166   0.783
20789W        W92460   8.595  27.046   3.260
20790W        W92461   9.109  10.220   0.251
20791W        W92462   2.856   6.900   0.279
20792W        W92463   8.734   1.552   0.869
20793W        W92464  17.383  36.401   1.841
20794W        W92465   2.833  13.618   1.811
20795W        W92466  38.464  19.715  13.411
20796W        W92467  28.609   5.906   2.691
20797W        W92468  38.086   3.320  11.667
20798W        W92469  29.932  40.147   2.222
20799W        W92470  18.476   2.410  11.476
20800W        W92471  29.736  37.510   3.073
20801W        W92472   3.651  30.517  10.737
20802W        W92473  21.458  25.524  10.584
20803W        W92474   8.576  39.235   2.690
20804W        W92475  19.805  12.818  12.948
20805W        W92476  16.515  23.541  12.927
20806W        W92477  31.140  27.455   4.221
20807W        W92478   6.853   4.416  12.905
20808W        W92479  20.562  18.886  10.757
20809W        W92480   6.442  12.404   1.177
20810W        W92481  28.372  25.951   1.875
20811W        W92482  27.121  32.503  14.436
20812W        W92483  36.037  42.682  13.918
20813W        W92484  20.274  33.140   0.847
20814W        W92485  30.662  12.720   2.678
20815W        W92486  17.339  15.177  12.600
20816W        W92487  28.658  25.197   3.379
20817W        W92488  29.424  37.523  11.963
20818W        W92489   6.836  20.253   1.247
20819W        W92490  12.245  44.915  12.277
20820W        W92491  36.563  43.815   2.935
20821W        W92492  12.174  31.005   1.524
20822W        W92493  12.888  11.640  12.499
20823W        W92494  31.089  10.427   3.909
20824W        W92495  31.424   4.409   1.991
20825W        W92496  37.110  22.735  14.368
20826W        W92497  22.676   0.773  13.435
20827W        W92498  36.398  13.124  11.352
20828W        W92499  22.146   2.210   3.131
20829W        W92500  33.501  10.437  14.246
20830W        W92501  42.042  33.644   3.252
20831W        W92502   5.365  15.631   3.871
20832W        W92503   8.475   1.348  11.220
20833W        W92504   3.449   7.603   0.184
20834W        W92505  42.966  32.638  11.083
20835W        W92506  41.573   8.394   3.267
20836W        W92507   8.138  41.814   2.016
20837W        W92508   1.940  32.951   0.291
20838W        W92509  33.441   7.219   4.696
20839W        W92510  33.044  28.547  12.162
20840W        W92511  28.753  12.987  13.021
20841W        W92512  18.036  24.884   3.617
20842W        W92513  25.138   6.659   3.937
20843W        W92514   5.100  21.315   1.714
20844W        W92515   4.364  42.997  13.699
20845W        W92516  14.822  38.349  12.029
20846W        W92517  40.211   3.886   2.115
20847W        W92518  14.238  27.759  14.780
20848W        W92519   1.284  10.386  14.640
20849W        W92520  40.574   7.290  11.678
20850W        W92521   5.298   7.172  13.565
20851W        W92522  25.620  38.611  13.816
20852W        W92523  26.933   6.871   4.287
20853W        W92524  34.438  20.866  11.380
20854W        W92525  44.880  43.176   3.664
20855W        W92526  18.155  11.773   4.535
20856W        W92527  19.108  27.970   0.105
20857W        W92528  31.520  42.053   0.869
20858W        W92529  28.675  22.583   2.861
20859W        W92530   9.023   1.286  11.155
20860W        W92531   2.192   3.510   3.290
20861W        W92532  43.583  28.677   1.840
20862W        W92533  24.592   5.399  14.585
20863W        W92534  24.918  42.571  11.609
20864W        W92535  27.652  34.940   0.349
20865W        W92536  13.939  44.026   2.266
20866W        W92537  36.529  22.542   1.650
20867W        W92538   6.615   8.209  11.250
20868W        W92539  25.210   5.163   3.411
20869W        W92540  18.714  15.222   1.187
20870W        W92541  31.002  23.222  11.941
20871W        W92542  26.174  44.780   1.211
20872W        W92543  44.980   7.138   4.251
20873W        W92544  11.225  42.831   1.625
20874W        W92545  33.494  24.155   2.657
20875W        W92546  40.768  44.961  11.370
20876W        W92547   1.408  32.139   4.435
20877W        W92548  25.430   4.458   0.455
20878W        W92549   6.601  41.732   3.636
20879W        W92550  40.581  15.537  12.491
20880W        W92551  13.429  32.817  11.961
20881W        W92552  31.520  34.989   0.030
20882W        W92553  30.883  11.751   3.589
20883W        W92554   2.325  32.714   1.784
20884W        W92555   0.500  11.703   4.410
20885W        W92556   1.721  27.185   3.716
20886W        W92557   0.400  29.419  14.433
20887W        W92558  43.370  30.362   1.179
20888W        W92559  25.165   8.427   3.258
20889W        W92560  19.213  38.395  14.280
20890W        W92561  41.037   5.640  12.110
20891W        W92562  32.048  29.466  11.856
20892W        W92563  44.268   9.750   2.660
20893W        W92564  16.167  14.739   4.539
20894W        W92565  34.678  31.063  12.415
20895W        W92566   8.497   0.990   4.099
20896W        W92567   0.160  27.223  13.047
20897W        W92568  38.891  23.042  14.553
20898W        W92569  44.554  39.473   5.752
20899W        W92570  26.456  16.818  13.137
20900W        W92571  40.393   1.342  12.035
20901W        W92572  15.611   3.438   4.180
20902W        W92573  15.158  16.603  14.838
20903W        W92574  24.997   7.947  12.933
20904W        W92575  13.688   1.023  14.001
20905W        W92576   4.953  42.319   0.816
20906W        W92577  25.412  17.075   3.252
20907W        W92578  40.922  11.627  13.611
20908W        W92579  41.314  17.541  11.575
20909W        W92580   6.764  28.194   4.000
20910W        W92581  38.819  13.264  13.131
20911W        W92582   4.492  38.758   3.189
20912W        W92583  36.400  24.187  13.256
20913W        W92584  19.841  16.283   4.708
20914W        W92585  35.582  28.708   4.161
20915W        W92586  36.152   3.247  10.755
20916W        W92587   1.333  43.977   1.208
20917W        W92588  10.082  17.361  10.886
20918W        W92589   0.336  10.991  11.983
20919W        W92590  32.538   6.360  14.434
20920W        W92591  41.467   1.361   0.755
20921W        W92592   8.622  41.990   2.196
20922W        W92593   8.251  18.811   3.957
20923W        W92594   8.251  16.123  14.370
20924W        W92595  25.036  12.853  11.648
20925W        W92596   3.647  20.167  14.545
20926W        W92597  32.239   5.853  14.742
20927W        W92598  11.134  32.962   1.782
20928W        W92599  36.572   9.736   2.849
20929W        W92600  30.064  26.710  14.042
20930W        W92601  31.156  44.230   4.169
20931W        W92602  22.265  40.799  11.543
20932W        W92603  24.116  39.958   0.312
20933W        W92604  39.785  36.574   0.726
20934W        W92605  23.752   3.729   0.511
20935W        W92606   9.270  11.608   0.061
20936W        W92607  31.854  42.458   2.431
20937W        W92608  29.613  36.583   2.205
20938W        W92609   0.470  11.683  13.872
20939W        W92610  28.940  24.569  10.755
20940W        W92611   1.290  42.803  10.681
20941W        W92612  13.836   0.178   0.776
20942W        W92613  30.086   4.928  13.036
20943W        W92614  17.532   7.226   0.467
20944W        W92615  11.223   1.006  13.471
20945W        W92616   9.277   7.208  11.223
20946W        W92617  41.716  34.590   3.248
20947W        W92618  23.181  32.954   4.142
20948W        W92619  16.811  14.225  12.078
20949W        W92620  25.263  29.482   1.325
20950W        W92621  30.453  22.547  12.072
20951W        W92622  26.498   6.668   4.504
20952W        W92623  24.802  11.816   4.988
20953W        W92624   5.907   7.309   3.127
20954W        W92625  28.111  18.267  13.451
20955W        W92626  19.104  39.349  12.581
20956W        W92627  22.300  29.914  11.689
20957W        W92628  31.452   1.437  10.362
20958W        W92629  36.972   4.732  13.622
20959W        W92630  18.855  26.945   1.647
20960W        W92631  37.461  39.319   5.155
20961W        W92632  31.800  25.541  11.576
20962W        W92633  16.635  10.333   0.233
20963W        W92634  19.086  23.057   3.313
20964W        W92635  26.628  34.800   2.814
20965W        W92636  43.312  44.285  10.401
20966W        W92637  12.376   3.875   4.599
20967W        W92638  37.468  19.120   1.931
20968W        W92639  19.059  32.903   0.143
20969W        W92640   9.930  21.116  12.582
20970W        W92641  32.969  36.754   1.473
20971W        W92642   0.556  39.717  13.995
20972W        W92643   7.759  10.351  13.305
20973W        W92644  41.919   3.303   4.065
20974W        W92645  18.786  22.577  12.513
20975W        W92646   3.932  14.280  14.405
20976W        W92647  21.761   2.596   2.378
20977W        W92648  32.389  10.897  11.158
20978W        W92649  12.350  28.197  12.119
20979W        W92650   1.231  41.303  13.350
20980W        W92651  10.183   2.293   3.540
20981W        W92652  16.931   0.694  13.232
20982W        W92653  30.923  17.631   2.290
20983W        W92654  13.972  34.402  14.341
20984W        W92655  36.472  43.502  13.892
20985W        W92656  20.046   1.399   2.342
20986W        W92657  24.755  33.790  12.138
20987W        W92658  34.098   0.726   2.788
20988W        W92659  37.886  19.767   4.566
20989W        W92660  10.304  23.612  13.767
20990W        W92661  41.752   8.639   0.725
20991W        W92662  38.420  24.608   4.432
20992W        W92663  18.970  41.814   2.240
20993W        W92664  29.415  36.309  12.579
20994W        W92665  23.242  23.225  11.512
20995W        W92666   0.532  20.962  14.922
20996W        W92667   6.877   9.707  13.127
20997W        W92668  17.645   2.275   3.201
20998W        W92669  28.039  24.683   4.977
20999W        W92670   6.166  16.227  11.070
21000W        W92671  38.664  24.571   3.983
21001W        W92672   7.631  42.049  11.160
21002W        W92673  19.722  42.272  11.171
21003W        W92674   9.233  11.155  11.436
21004W        W92675  43.690  17.137  14.429
21005W        W92676  16.190  32.031  14.518
21006W        W92677  18.555   8.422   0.855
21007W        W92678   7.292  23.612   0.741
21008W        W92679   6.182  12.322  10.654
21009W        W92680   9.770   6.095   4.185
21010W        W92681  42.284  35.315  13.854
21011W        W92682   3.849   5.224  10.714
21012W        W92683   8.454  10.563  11.156
21013W        W92684  21.610  24.680  13.307
21014W        W92685   7.868  15.165   4.256
21015W        W92686  14.309  32.370   4.257
21016W        W92687   2.008  18.203  11.206
21017W        W92688  20.075   9.127  11.998
21018W        W92689  41.458  11.128   1.025
21019W        W92690  32.374  41.146  11.984
21020W        W92691  19.136   5.736   0.870
21021W        W92692  21.244  10.070  11.673
21022W        W92693  22.036  31.177   3.729
21023W        W92694  35.605  10.695  13.465
21024W        W92695   3.699  27.233  10.518
21025W        W92696  38.062   8.724   1.867
21026W        W92697  16.776  35.794  13.320
21027W        W92698  14.587  14.130   0.960
21028W        W92699  25.713  20.356   2.977
21029W        W92700  28.026  27.490   1.254
21030W        W92701   0.541   2.408  12.639
21031W        W92702  21.222   1.472   3.268
21032W        W92703   3.773   3.438  13.042
21033W        W92704   4.695  41.573  12.356
21034W        W92705  43.362   0.545   1.583
21035W        W92706   2.224  35.587  13.999
21036W        W92707  29.160  36.401   0.760
21037W        W92708  17.875   2.453   2.752
21038W        W92709  13.256  26.918  14.925
21039W        W92710  20.413  40.681  12.452
21040W        W92711  16.794  37.931   3.039
21041W        W92712  29.416  33.593  12.662
21042W        W92713  32.458  18.094   1.692
21043W        W92714  38.131  25.874  12.037
21044W        W92715   3.465   9.713  14.002
21045W        W92716  42.717   9.401   4.323
21046W        W92717   7.373  11.116  11.512
21047W        W92718  21.666   7.660   3.754
21048W        W92719  21.500  16.708   1.808
21049W        W92720  26.215  39.132   1.791
21050W        W92721  18.076  20.716   2.702
21051W        W92722  38.559  38.906   0.775
21052W        W92723  18.600  30.565   1.805
21053W        W92724  12.627  36.955  14.874
21054W        W92725  43.344   8.871   4.185
21055W        W92726  21.611   4.136   5.016
21056W        W92727  29.906  34.507  11.656
21057W        W92728  41.271  19.608  14.730
21058W        W92729   2.340   2.193   0.052
21059W        W92730  43.386  36.317   2.708
21060W        W92731  27.986  19.569   0.738
21061W        W92732   1.453   8.243  10.769
21062W        W92733  37.026  20.237  12.473
21063W        W92734  11.794  30.009  13.414
21064W        W92735  10.707  10.607  11.922
21065W        W92736  42.287  40.395  13.349
21066W        W92737  20.339  44.815  13.961
21067W        W92738   2.838  41.478   2.151
21068W        W92739  17.561  11.144   1.374
21069W        W92740  19.761  29.613   4.146
21070W        W92741  27.146  15.027  12.444
21071W        W92742  25.072  10.608  11.582
21072W        W92743  34.018   0.915  13.573
21073W        W92744   7.466  17.796   4.684
21074W        W92745   7.785  33.894   0.981
21075W        W92746  30.831  43.906  12.849
21076W        W92747   7.436   5.739  14.292
21077W        W92748   7.860  19.641   3.589
21078W        W92749  22.913   1.842   2.307
21079W        W92750  37.900  35.509   3.068
21080W        W92751  21.529  31.641  12.397
21081W        W92752  33.871   8.611  12.855
21082W        W92753  42.147  11.122  12.050
21083W        W92754   6.871  44.912  10.430
21084W        W92755   0.160  11.242   3.687
21085W        W92756   2.662   5.265  13.500
21086W        W92757  23.135  40.950   1.280
21087W        W92758   8.144  17.284   3.651
21088W        W92759   5.769  10.487  13.386
21089W        W92760   7.102  22.762  12.897
21090W        W92761  25.946  26.211   4.048
21091W        W92762   8.855  20.199  11.955
21092W        W92763  37.556  26.928   3.404
21093W        W92764   8.325  34.544  12.952
21094W        W92765  20.524  17.527   2.154
21095W        W92766  10.630  14.579   4.263
21096W        W92767   5.267  10.609   1.987
21097W        W92768  29.770  23.130  13.060
21098W        W92769  11.401  17.025   4.046
21099W        W92770  39.095  20.638  10.669
21100W        W92771  23.518  29.399  14.256
21101W        W92772  41.880  30.662  11.558
21102W        W92773  36.465  24.127  11.039
21103W        W92774  30.557  38.343   4.187
21104W        W92775  30.525   3.700   1.331
21105W        W92776  18.499  32.041  14.867
21106W        W92777  22.730  21.814   0.025
21107W        W92778  29.401  18.992   4.093
21108W        W92779  40.761   4.198  13.528
21109W        W92780  24.278  19.002   4.330
21110W        W92781  28.936   5.829   3.304
21111W        W92782  10.313   1.716  12.574
21112W        W92783  42.317  28.517   2.268
21113W        W92784   7.704   9.286   4.572
21114W        W92785   5.715  33.916  13.031
21115W        W92786  41.113  17.771  14.314
21116W        W92787  23.123  11.916   4.583
21117W        W92788   7.139  20.567   4.331
21118W        W92789  22.102  32.976   4.112
21119W        W92790  29.351   8.775  11.859
21120W        W92791  37.823  39.978   0.467
21121W        W92792  24.157  43.264   2.992
21122W        W92793  20.697  27.075  10.019
21123W        W92794  42.410  43.787   2.425
21124W        W92795   7.184  26.433  10.578
21125W        W92796  11.060  20.606  13.776
21126W        W92797  33.847  42.797   0.245
21127W        W92798   4.334   1.479   1.349
21128W        W92799  21.086  34.603  14.912
21129W        W92800   8.434   1.366   0.469
21130W        W92801  39.515   1.408  12.924
21131W        W92802  27.108  23.229  14.003
21132W        W92803  35.865  40.075   5.077
21133W        W92804  28.372  21.102   2.713
21134W        W92805  30.838   8.747  11.762
21135W        W92806   9.797  44.872   1.770
21136W        W92807  39.785  30.084  12.400
21137W        W92808   5.172  31.267   1.442
21138W        W92809   1.877  19.300  14.516
21139W        W92810  15.951  43.828  12.702
21140W        W92811  37.303  36.102  11.996
21141W        W92812  12.747  19.347   1.761
21142W        W92813  17.618  42.035   4.116
21143W        W92814  14.168  11.618  12.926
21144W        W92815  18.011   8.045   0.893
21145W        W92816  24.962   8.937   2.302
21146W        W92817   3.429  42.924  11.505
21147W        W92818   9.294   4.937  11.241
21148W        W92819  17.791  16.020  14.975
21149W        W92820  20.750  12.792   3.229
21150W        W92821  27.787  18.128   1.735
21151W        W92822  38.285  41.751  11.492
21152W        W92823  39.218  23.265   1.070
21153W        W92824  26.613   1.437   4.094
21154W        W92825  16.722  21.681  13.575
21155W        W92826  32.033  24.401  11.166
21156W        W92827  41.874  17.212   0.443
21157W        W92828  12.234  44.665  11.805
21158W        W92829  18.695  34.099  10.978
21159W        W92830  30.444   5.751  12.891
21160W        W92831  16.140  21.058   0.027
21161W        W92832  37.441   8.885  13.416
21162W        W92833  32.208  24.113  14.744
21163W        W92834  16.448  17.038   0.869
21164W        W92835   9.712  38.081  13.638
21165W        W92836  10.958   7.299  10.536
21166W        W92837  28.918   8.367  13.830
21167W        W92838  35.286   7.242   0.316
21168W        W92839  31.117  34.309   0.720
21169W        W92840   6.714  35.546  14.720
21170W        W92841  37.822   6.356   2.239
21171W        W92842  40.588  39.846  11.636
21172W        W92843  29.079   0.652   0.794
21173W        W92844  34.005  15.241  14.299
21174W        W92845  40.503  15.855  10.531
21175W        W92846  13.131  44.083   3.701
21176W        W92847  39.687   9.799   1.193
21177W        W92848  43.968   0.184   4.263
21178W        W92849  12.884   0.715   3.306
21179W        W92850  37.290  18.759  11.551
21180W        W92851  18.865  27.958   2.726
21181W        W92852   3.831  14.652   0.772
21182W        W92853   9.656  21.061   0.458
21183W        W92854  15.373  30.002   5.016
21184W        W92855   5.007   7.418  12.551
21185W        W92856  11.899  31.892  12.386
21186W        W92857  25.838  24.489   1.723
21187W        W92858  16.031  28.541  12.185
21188W        W92859  26.148   2.391  13.016
21189W        W92860  16.601   0.823  14.949
21190W        W92861  24.613   4.365   3.221
21191W        W92862  20.669  44.154  11.475
21192W        W92863  37.120  32.909   0.037
21193W        W92864  35.939  33.892  12.570
21194W        W92865   3.842   9.269   2.782
21195W        W92866  11.231  44.411  13.520
21196W        W92867  22.474  40.492  13.916
21197W        W92868   4.439  28.118  11.632
21198W        W92869   5.395   9.216   2.731
21199W        W92870  22.640  20.751  12.525
21200W        W92871  29.749  40.066   0.588
21201W        W92872   4.893  32.678   1.705
21202W        W92873  44.251  20.617   1.463
21203W        W92874  24.237  29.024   2.061
21204W        W92875  32.913  33.703   3.354
21205W        W92876  12.190  13.911   3.197
21206W        W92877  26.568  37.391   2.659
21207W        W92878   4.484  11.792  14.432
21208W        W92879  32.380   4.396   1.278
21209W        W92880  44.347   0.513   1.804
21210W        W92881  13.335  15.469  10.003
21211W        W92882   7.494  42.950   2.177
21212W        W92883  19.549  14.781  13.792
21213W        W92884  12.110   7.320   2.320
21214W        W92885   2.303  21.652   2.439
21215W        W92886  15.757   5.331  12.858
21216W        W92887  43.148  11.561  10.146
21217W        W92888  24.399   0.767   3.604
21218W        W92889  17.022  31.000   2.242
21219W        W92890  32.108  12.357   3.433
21220W        W92891  42.902  44.229  14.295
21221W        W92892  33.394  39.735   0.320
21222W        W92893   4.997  34.465   1.763
21223W        W92894   2.208  12.535   1.337
21224W        W92895  21.940  32.638   2.924
21225W        W92896  33.031  32.656   2.832
21226W        W92897  27.362  40.405   4.169
21227W        W92898   7.660  19.334  13.842
21228W        W92899   9.546  13.856   0.799
21229W        W92900  10.631   9.813   3.793
21230W        W92901   4.837   0.219  13.062
21231W        W92902  31.044  36.111   3.292
21232W        W92903  42.064  18.550   0.019
21233W        W92904  26.064  30.584   4.579
21234W        W92905  16.686   3.445   1.803
21235W        W92906  14.821   5.983   1.260
21236W        W92907  11.644   2.349  13.262
21237W        W92908  25.685  12.859   0.712
21238W        W92909  17.274  39.675   4.968
21239W        W92910  42.792  13.872   3.251
21240W        W92911   5.540  32.397  12.191
21241W        W92912  18.259  38.928  10.559
21242W        W92913  11.401  21.157   3.658
21243W        W92914  27.438   4.444  13.867
21244W        W92915  27.468  26.041  12.948
21245W        W92916   5.163   4.652   2.746
21246W        W92917  24.779  11.810  13.894
21247W        W92918  25.595   9.825  13.314
21248W        W92919  35.788   7.066  14.765
21249W        W92920  33.461  10.213  11.473
21250W        W92921  20.739  41.114  12.361
21251W        W92922  24.681  43.424  13.312
21252W        W92923  13.105   4.028  12.642
21253W        W92924   1.507  31.177  11.162
21254W        W92925   7.266  19.505  12.089
21255W        W92926  22.134   3.571  12.470
21256W        W92927  18.116  39.549   4.220
21257W        W92928  23.502  15.457   0.506
21258W        W92929  42.883  21.110   1.397
21259W        W92930  34.034  32.253   0.018
21260W        W92931  15.046  10.387  13.000
21261W        W92932  29.033  43.615  14.941
21262W        W92933  42.842  32.481  11.572
21263W        W92934   1.705  37.352   0.687
21264W        W92935  30.916  31.549   0.374
21265W        W92936  29.574  26.646  13.274
21266W        W92937  18.132   7.156  13.703
21267W        W92938  30.623   0.976   1.457
21268W        W92939  33.082  13.423   1.631
21269W        W92940  33.650  28.915  13.892
21270W        W92941  10.410  42.936  11.607
21271W        W92942  14.472  42.323   2.123
21272W        W92943   7.330  22.782   4.801
21273W        W92944  20.290   6.247   0.123
21274W        W92945  36.447  37.312  13.943
21275W        W92946  27.637   1.517  13.987
21276W        W92947  35.961  16.869   4.282
21277W        W92948   9.940  25.208  12.931
21278W        W92949   5.184  18.785   4.060
21279W        W92950  39.021   0.907  14.201
21280W        W92951  29.871  26.194  13.914
21281W        W92952   8.808  34.698  13.018
21282W        W92953  10.902   3.193  13.098
21283W        W92954  44.565  37.211   0.953
21284W        W92955  25.986   7.217   0.786
21285W        W92956  44.249  22.202   3.566
21286W        W92957  36.851   5.762   1.732
21287W        W92958  36.446  30.050   3.089
21288W        W92959  37.746   2.284   2.218
21289W        W92960  14.789  14.383   2.248
21290W        W92961  43.148  23.981   2.136
21291W        W92962  19.599  14.926  12.933
21292W        W92963  34.125  41.392  13.818
21293W        W92964   4.681  20.461  12.973
21294W        W92965   6.001  23.799   1.566
21295W        W92966  16.134  19.704  12.921
21296W        W92967  35.722  22.047   2.151
21297W        W92968  28.232   2.804   2.409
21298W        W92969   4.012  28.498  12.199
21299W        W92970   2.146  25.977  13.420
21300W        W92971   0.915  11.917  10.204
21301W        W92972  27.072  12.089   0.073
21302W        W92973   6.285   6.750  14.093
21303W        W92974  13.516  22.535   2.151
21304W        W92975  17.645  27.135  12.601
21305W        W92976  12.824  26.407   3.272
21306W        W92977  30.178   4.448  14.110
21307W        W92978   8.294  30.264  12.437
21308W        W92979  31.521  28.794  14.344
21309W        W92980  25.792  15.150   4.518
21310W        W92981  33.365   1.364  11.034
21311W        W92982  21.232  16.994   4.218
21312W        W92983  14.611  22.351  11.109
21313W        W92984  12.148  42.475   2.837
21314W        W92985  20.718   6.368  13.873
21315W        W92986   0.766  23.260   1.323
21316W        W92987  29.718  18.470  12.759
21317W        W92988  37.908  25.572  11.222
21318W        W92989  13.245  10.865  12.151
21319W        W92990  40.001  30.335  11.345
21320W        W92991  27.526  21.437  13.724
21321W        W92992  39.883  13.645  10.730
21322W        W92993  42.301  17.904  12.410
21323W        W92994  15.210   3.877  13.371
21324W        W92995   9.279  43.195   4.494
21325W        W92996  24.212  30.602  10.936
21326W        W92997  19.785  17.042   4.502
21327W        W92998   0.847  37.323  11.048
21328W        W92999   4.309  25.245   2.303
21329W        W93000  11.224   0.763   2.350
21330W        W93001  13.856  14.493  12.714
21331W        W93002   7.054  20.179   3.241
21332W        W93003   5.807  36.423   3.540
21333W        W93004   7.804   0.269   3.152
21334W        W93005   2.767   3.332  13.380
21335W        W93006  31.998   1.750  14.932
21336W        W93007  16.181  22.695   1.627
21337W        W93008  20.225  23.174   5.099
21338W        W93009   1.931   3.728  10.709
21339W        W93010   6.494  31.087   0.796
21340W        W93011   0.268   2.972  11.324
21341W        W93012  20.494  20.371   0.829
21342W        W93013  31.901  34.916  14.698
21343W        W93014  35.846  20.817  12.882
21344W        W93015  24.975  19.767   2.312
21345W        W93016  26.128   5.732   1.672
21346W        W93017  20.958   7.944  13.439
21347W        W93018  41.457  35.019   3.388
21348W        W93019  20.286  40.548  12.945
21349W        W93020  40.721   0.838   0.861
21350W        W93021  43.802  18.768  14.455
21351W        W93022  29.921  12.544  13.924
21352W        W93023  11.738  11.661   4.968
21353W        W93024  38.504  37.659   0.376
21354W        W93025  15.773  32.132  14.846
21355W        W93026   6.699   5.716   4.077
21356W        W93027  39.003  16.359  13.934
21357W        W93028   8.242  11.268   0.050
21358W        W93029  21.483  38.025   0.806
21359W        W93030  44.783   4.464  11.136
21360W        W93031  32.639  20.062   1.380
21361W        W93032  37.591   0.937   1.269
21362W        W93033  38.332  20.053  13.001
21363W        W93034  44.979  25.656   3.647
21364W        W93035   7.151  37.495   9.833
21365W        W93036  20.184  20.783  10.741
21366W        W93037  24.628   3.221  10.732
21367W        W93038  37.284   9.657   5.130
21368W        W93039  37.786  31.755   2.338
21369W        W93040  24.570  12.686  13.463
21370W        W93041  23.238   4.789  12.993
21371W        W93042   6.242  34.303   0.561
21372W        W93043  34.042  37.469   2.332
21373W        W93044   4.200  40.576  13.432
21374W        W93045  31.922  18.115  12.431
21375W        W93046  20.844  40.530  11.131
21376W        W93047  44.191  39.102   1.780
21377W        W93048  16.223  33.945  13.338
21378W        W93049  14.646  36.716  12.359
21379W        W93050  42.284  14.996   3.774
21380W        W93051  21.113  41.373  11.613
21381W        W93052  36.389  17.255  13.953
21382W        W93053  24.124  27.919   4.135
21383W        W93054  29.188   2.854   4.741
21384W        W93055  27.619   9.827  12.910
21385W        W93056   8.106  28.045   1.648
21386W        W93057  26.847  33.425   2.880
21387W        W93058   0.803  39.925   2.185
21388W        W93059  22.486  39.336  12.765
21389W        W93060  22.596  27.739   2.776
21390W        W93061   4.358  37.255  10.418
21391W        W93062  25.974  40.302  12.443
21392W        W93063   6.507   7.143   1.367
21393W        W93064  12.233   0.305   4.506
21394W        W93065   0.209  34.153  12.467
21395W        W93066  29.939  30.948   2.965
21396W        W93067  31.191  13.326   0.422
21397W        W93068  34.573   5.292  13.417
21398W        W93069   6.137  20.993   3.776
21399W        W93070  15.171  38.759   3.377
21400W        W93071  34.432  39.284  12.923
21401W        W93072  34.637  18.093   2.362
21402W        W93073   3.964  15.035  11.660
21403W        W93074  16.358  13.637  14.736
21404W        W93075   9.001   1.473   4.128
21405W        W93076  42.456  33.840   4.906
21406W        W93077  33.668  20.032  13.393
21407W        W93078  37.912  27.928  14.041
21408W        W93079  16.126   7.266   0.342
21409W        W93080  25.691   4.863  10.910
21410W        W93081   6.310  23.438  11.947
21411W        W93082  30.035   6.783   1.258
21412W        W93083  26.484  31.493  10.613
21413W        W93084  31.540  31.235  14.389
21414W        W93085  44.333  26.956   4.555
21415W        W93086  36.579  31.405   4.068
21416W        W93087  21.040  32.528   1.208
21417W        W93088  44.381  15.817   1.007
21418W        W93089  27.650  28.505   4.719
21419W        W93090  37.984  39.862  12.981
21420W        W93091   3.793   3.695   2.865
21421W        W93092  37.426  23.144  11.174
21422W        W93093   3.927   5.480  12.478
21423W        W93094  21.691   0.746   2.121
21424W        W93095  41.014   1.317   3.197
21425W        W93096  24.315   1.977  12.876
21426W        W93097   0.017  43.451   4.081
21427W        W93098  25.094   6.840  12.013
21428W        W93099  34.344  25.587  14.610
21429W        W93100  34.835  42.287  12.188
21430W        W93101   9.710  32.176   2.940
21431W        W93102  29.541  32.028  13.579
21432W        W93103  21.000   0.584  14.001
21433W        W93104  25.866  15.361  12.124
21434W        W93105   4.386  37.547  14.553
21435W        W93106  33.152   6.379   0.844
21436W        W93107  27.271   7.753   4.253
21437W        W93108   9.385  30.858   3.187
21438W        W93109  23.012  22.963  11.915
21439W        W93110  36.907   2.723  10.683
21440W        W93111   7.127   3.925  14.453
21441W        W93112  20.876  35.013  14.307
21442W        W93113  30.971  10.976  11.093
21443W        W93114  30.225  24.658  11.605
21444W        W93115   8.653  17.201   1.914
21445W        W93116  30.152  17.181  10.712
21446W        W93117   2.004  20.101  12.035
21447W        W93118  35.211   0.598   1.954
21448W        W93119   6.436  26.415  11.024
21449W        W93120  10.307  39.405   2.362
21450W        W93121  44.344  38.527  14.908
21451W        W93122   1.828  23.159   1.296
21452W        W93123  15.065   6.515  11.536
21453W        W93124  16.746  29.037   3.790
21454W        W93125  39.430  30.922  11.938
21455W        W93126  42.373   0.882  13.318
21456W        W93127  42.738   3.680   2.883
21457W        W93128   2.760  18.027  11.556
21458W        W93129  13.319  32.401   2.988
21459W        W93130   4.395  36.126  13.826
21460W        W93131  33.812  26.479  12.625
21461W        W93132  29.902  37.701  11.169
21462W        W93133   2.997  24.857  14.497
21463W        W93134  34.168   8.696  10.776
21464W        W93135  12.599  39.571   4.090
21465W        W93136   2.130  40.343   3.267
21466W        W93137  37.138  24.729   1.143
21467W        W93138  42.210  13.714  13.251
21468W        W93139  33.001  28.443   1.778
21469W        W93140  28.208   9.230  12.519
21470W        W93141  13.822  10.026   5.092
21471W        W93142   6.499  30.411   3.284
21472W        W93143   2.873  14.245  14.448
21473W        W93144  24.295  42.846  10.184
21474W        W93145   8.425  17.970  13.557
21475W        W93146  13.097  19.689  12.871
21476W        W93147  32.511   6.899  14.443
21477W        W93148  18.235   7.246  12.841
21478W        W93149   6.738   8.673  12.860
21479W        W93150   7.533   6.256   1.400
21480W        W93151  18.578  37.850  12.472
21481W        W93152  25.147  21.859   4.249
21482W        W93153  42.303  40.075  14.564
21483W        W93154  39.783  23.061   3.454
21484W        W93155   3.773  33.914   0.827
21485W        W93156  44.311  38.505   2.250
21486W        W93157  27.104  20.487  14.243
21487W        W93158  10.340  11.836  12.173
21488W        W93159   4.982  19.283  11.155
21489W        W93160   2.681   1.252   1.904
21490W        W93161   4.463  10.652  14.321
21491W        W93162   5.833  42.564  14.770
21492W        W93163  39.538   6.574   2.792
21493W        W93164  41.544  33.888   3.349
21494W        W93165   7.435   1.436   4.753
21495W        W93166  27.831  43.992  10.530
21496W        W93167  32.903  44.181   1.107
21497W        W93168  38.494  22.160  11.414
21498W        W93169  17.076  32.418   1.321
21499W        W93170   0.784  31.209  14.310
21500W        W93171  35.014  42.643   0.757
21501W        W93172  39.780  14.491   4.145
21502W        W93173   8.970  30.590  12.971
21503W        W93174  28.470  21.266  13.596
21504W        W93175   3.320  12.565   0.450
21505W        W93176   2.685  32.975  13.764
21506W        W93177  20.743  37.308  13.869
21507W        W93178  23.192  19.158   2.355
21508W        W93179  35.503   6.636  12.514
21509W        W93180  30.452  15.140   3.110
21510W        W93181  23.204  44.933   4.207
21511W        W93182   5.067  19.303  14.584
21512W        W93183   9.643   3.164   4.148
21513W        W93184  31.484  17.975  13.538
21514W        W93185  38.440  12.333   0.910
21515W        W93186  23.136  29.144  10.908
21516W        W93187  13.665  29.870  14.776
21517W        W93188  43.048  22.650   3.977
21518W        W93189  11.338  42.499  13.453
21519W        W93190  13.351  28.212  14.513
21520W        W93191  32.737  23.985   1.923
21521W        W93192   4.556  29.021  11.528
21522W        W93193  43.891  10.440   0.383
21523W        W93194  29.154  15.514   2.300
21524W        W93195  10.352  14.530   2.732
21525W        W93196  34.132  43.983   3.679
21526W        W93197   0.657  34.360  10.375
21527W        W93198  35.438  32.956   1.467
21528W        W93199  43.361   8.468   1.868
21529W        W93200  40.811   9.105   3.666
21530W        W93201  17.210  39.029  14.554
21531W        W93202  10.039  10.619   3.690
21532W        W93203  35.470  37.931  11.869
21533W        W93204   5.620  21.108   0.821
21534W        W93205  19.659  27.406   4.665
21535W        W93206  14.037   2.306  13.569
21536W        W93207  27.599  17.014   4.528
21537W        W93208  27.091  32.339  12.942
21538W        W93209   3.788  11.692  13.353
21539W        W93210  44.026   9.923   1.819
21540W        W93211   3.832   4.508  11.276
21541W        W93212   2.239  29.596   2.740
21542W        W93213  20.050  44.342  13.489
21543W        W93214  21.089   8.334   3.617
21544W        W93215  43.929  26.751   0.709
21545W        W93216  28.481   4.458  13.421
21546W        W93217  43.888   9.392   1.167
21547W        W93218  14.667  37.630  14.510
21548W        W93219  12.309  22.146  11.543
21549W        W93220  25.191  32.853  11.539
21550W        W93221  24.123   1.181   4.524
21551W        W93222   0.216   4.994  12.517
21552W        W93223  38.018   1.904   2.770
21553W        W93224  16.632  19.678  12.807
21554W        W93225  14.766  39.905  11.021
21555W        W93226  19.432  32.348  13.368
21556W        W93227  15.466  35.365   2.807
21557W        W93228  29.834  44.891  14.256
21558W        W93229  40.340  18.273  12.440
21559W        W93230   5.162  22.863   3.826
21560W        W93231  15.450   7.270   4.952
21561W        W93232  28.360   1.005  14.159
21562W        W93233  34.130  42.822  11.754
21563W        W93234  21.700  18.293   1.718
21564W        W93235   2.621   2.937  11.489
21565W        W93236   1.586  13.386  11.228
21566W        W93237  26.025  25.095  12.592
21567W        W93238   1.357  32.997  12.017
21568W        W93239  25.055  20.982  12.118
21569W        W93240  40.966   9.673  14.553
21570W        W93241  29.451  32.918   4.537
21571W        W93242  31.728   8.066   1.176
21572W        W93243  38.112  41.927  11.965
21573W        W93244  30.423  26.761  11.938
21574W        W93245  41.930  15.406  13.004
21575W        W93246  43.953  18.720   4.668
21576W        W93247  24.779  13.657   1.402
21577W        W93248  23.619  40.926  13.396
21578W        W93249  13.030  42.962  14.892
21579W        W93250   3.828  24.258  11.912
21580W        W93251  13.817  11.650   2.735
21581W        W93252  13.940   1.082   3.160
21582W        W93253   6.989   6.325   1.369
21583W        W93254  11.962   7.826   3.643
21584W        W93255  32.839  30.478   0.333
21585W        W93256  12.811   1.377   0.145
21586W        W93257   3.270  26.102  13.253
21587W        W93258  34.947  16.795  11.622
21588W        W93259   8.681  37.478  14.421
21589W        W93260  39.280  10.830  12.365
21590W        W93261   0.245  20.704   1.829
21591W        W93262  42.989  42.086  13.753
21592W        W93263   5.762   4.599  12.125
21593W        W93264  16.210  13.104   0.772
21594W        W93265  16.457  23.671   3.202
21595W        W93266  22.050  25.746   9.841
21596W        W93267  19.772  14.719   2.355
21597W        W93268  18.884  41.944   0.456
21598W        W93269   4.128  18.121   3.278
21599W        W93270  23.549  10.844  14.230
21600W        W93271   7.291  44.197   0.340
21601W        W93272  16.787   6.659  11.934
21602W        W93273   4.836  25.708   1.875
21603W        W93274  22.705  26.424  11.619
21604W        W93275  13.972  32.008   4.107
21605W        W93276  23.327   1.218  12.819
21606W        W93277  38.511  35.435   3.721
21607W        W93278  24.294  22.669  11.617
21608W        W93279  24.080  16.218  13.384
21609W        W93280  33.444   9.344   4.147
21610W        W93281  25.251  40.004   3.525
21611W        W93282  29.435  33.999  12.338
21612W        W93283  16.175  43.054  14.019
21613W        W93284  36.946  22.104   0.699
21614W        W93285   9.240  28.608   3.902
21615W        W93286   0.679  24.652   4.295
21616W        W93287  36.809  25.303   4.813
21617W        W93288   8.901  26.130   2.657
21618W        W93289   0.477   5.205   2.368
21619W        W93290  19.727   4.177   1.321
21620W        W93291  44.460  40.713  11.921
21621W        W93292  16.409  10.888  12.902
21622W        W93293  23.141  28.975   2.600
21623W        W93294   5.491   7.961   2.708
21624W        W93295  16.071  35.003   0.720
21625W        W93296  43.415  38.601  13.088
21626W        W93297   3.607  18.104  10.480
21627W        W93298  24.517   4.711   2.839
21628W        W93299   9.364   6.806  14.493
21629W        W93300  39.540  38.393   2.813
21630W        W93301  13.716  23.759  11.764
21631W        W93302  22.286  34.965   3.338
21632W        W93303  33.393  16.706  11.557
21633W        W93304  22.289  24.374  12.355
21634W        W93305  23.666   3.651   2.802
21635W        W93306   8.696  24.467  11.576
21636W        W93307  37.966  41.411  11.950
21637W        W93308  12.347  21.622  14.854
21638W        W93309  26.349  32.451  13.473
21639W        W93310  42.966  10.868   3.740
21640W        W93311   7.313  22.777   2.226
21641W        W93312  19.544  42.045  14.333
21642W        W93313  41.975  15.659  13.852
21643W        W93314  43.935  31.734  11.595
21644W        W93315  19.721   3.792  13.752
21645W        W93316   7.562   8.809  14.413
21646W        W93317  10.872  19.184   2.217
21647W        W93318  36.314  29.819  10.328
21648W        W93319  25.719  33.169   3.253
21649W        W93320  14.218   3.421  14.581
21650W        W93321   7.805  35.935   1.380
21651W        W93322  19.726   7.398   3.863
21652W        W93323  34.426  19.609  14.964
21653W        W93324  33.686   6.795  14.803
21654W        W93325  14.213  34.067   2.159
21655W        W93326  36.855   5.391   3.786
21656W        W93327  21.102   8.490   1.868
21657W        W93328  14.243  30.979  11.573
21658W        W93329  44.071   3.874  12.046
21659W        W93330  22.988  31.420  10.655
21660W        W93331   7.460  41.058   3.934
21661W        W93332  35.011   1.504   1.317
21662W        W93333  34.084   1.797   3.187
21663W        W93334   8.093  34.911   3.432
21664W        W93335  16.829   7.655   4.745
21665W        W93336  28.165   7.784  11.065
21666W        W93337  35.351   0.805   2.407
21667W        W93338  36.947   9.933   1.293
21668W        W93339  32.672   6.737   3.344
21669W        W93340   7.749   6.476  12.945
21670W        W93341   1.019   4.773   1.247
21671W        W93342   8.873  27.366   1.222
21672W        W93343  34.965   8.688   5.057
21673W        W93344   5.944  36.092   1.768
21674W        W93345   8.698   3.895  12.969
21675W        W93346  43.868  21.822   3.655
21676W        W93347  20.638  24.585   4.062
21677W        W93348   2.325  17.816   4.104
21678W        W93349  13.833  32.970   4.866
21679W        W93350   6.160  42.435  13.452
21680W        W93351  20.280   4.985   1.965
21681W        W93352   9.356   3.960   1.851
21682W        W93353   0.676  40.129  10.680
21683W        W93354  20.682  34.335   2.360
21684W        W93355  32.605  43.223   0.767
21685W        W93356  36.901  21.017  11.770
21686W        W93357  10.992  23.060  14.142
21687W        W93358  12.778  41.564   0.784
21688W        W93359  39.578  12.316   4.671
21689W        W93360  32.618   0.890  13.458
21690W        W93361  35.427  38.409   1.894
21691W        W93362  38.498  31.442  12.859
21692W        W93363  18.874   9.550   3.777
21693W        W93364  12.448   6.119  11.085
21694W        W93365   0.382   8.207  13.419
21695W        W93366  21.039  40.449   9.744
21696W        W93367   3.656  21.443  12.412
21697W        W93368  41.356  43.677   1.422
21698W        W93369   0.505  31.689  12.504
21699W        W93370  27.676  21.113   3.432
21700W        W93371  42.339  21.212  13.907
21701W        W93372   8.072  41.486   3.762
21702W        W93373  32.728  15.696   0.301
21703W        W93374  14.771  30.733   4.956
21704W        W93375  30.415  12.393   1.700
21705W        W93376  30.862   0.795   2.799
21706W        W93377  35.489  32.164  11.517
21707W        W93378  23.656   7.862   4.241
21708W        W93379  12.848  18.392  13.231
21709W        W93380   9.801  33.430   1.815
21710W        W93381  44.915  19.262   3.562
21711W        W93382   6.121  16.019  14.308
21712W        W93383   0.989  21.721  11.476
21713W        W93384  37.522  36.893   4.338
21714W        W93385  15.098  28.498   3.683
21715W        W93386   6.940   5.041  11.447
21716W        W93387   2.853  34.310  14.008
21717W        W93388  32.847  15.418  12.442
21718W        W93389  24.680  22.751   0.666
21719W        W93390  19.589  19.602   1.410
21720W        W93391  23.274  23.814   2.233
21721W        W93392   9.553   1.016   4.290
21722W        W93393  27.221   1.854  12.040
21723W        W93394  29.404  31.486   0.401
21724W        W93395  27.429  40.742   2.119
21725W        W93396  33.056  36.009  12.541
21726W        W93397  10.908  21.741  13.021
21727W        W93398  30.948  19.322   3.580
21728W        W93399   2.444  39.976  13.559
21729W        W93400  13.851  10.720  11.186
21730W        W93401  13.029  27.512  13.387
21731W        W93402  17.760   3.940  12.583
21732W        W93403  19.039  23.687  13.950
21733W        W93404  22.787  32.149  14.281
21734W        W93405  44.495  10.621  12.330
21735W        W93406   0.579  28.521   2.810
21736W        W93407   4.610  25.289   2.792
21737W        W93408  42.670  14.309   5.068
21738W        W93409  38.941  30.035   2.696
21739W        W93410  40.113   5.520   0.395
21740W        W93411  31.787  16.252  14.612
21741W        W93412   1.737   7.161   0.704
21742W        W93413  20.033  12.308   2.167
21743W        W93414   4.804  22.909   4.999
21744W        W93415  43.428  20.299  10.575
21745W        W93416  29.663  22.725   3.792
21746W        W93417   2.902  39.734  13.482
21747W        W93418  11.582  40.283   2.796
21748W        W93419   7.727  13.565  12.557
21749W        W93420  10.509  29.166   2.287
21750W        W93421  43.338  32.658  14.777
21751W        W93422  13.090  37.563  11.647
21752W        W93423  24.169   8.282   2.342
21753W        W93424  38.985  10.021   1.784
21754W        W93425  36.075  17.997   3.324
21755W        W93426   7.258  22.621   0.291
21756W        W93427   2.378   3.867  12.587
21757W        W93428  23.086  30.381  13.581
21758W        W93429  11.276  34.459  10.691
21759W        W93430  39.434   0.756   5.019
21760W        W93431  36.587   4.582  10.402
21761W        W93432   1.953  38.837  13.566
21762W        W93433  30.064  44.205  11.502
21763W        W93434  33.831   5.377  10.982
21764W        W93435  12.219   8.135  14.279
21765W        W93436  24.812  14.560  12.144
21766W        W93437  41.730  10.211  11.892
21767W        W93438  36.930  25.243  11.118
21768W        W93439   0.204  40.980   3.687
21769W        W93440  22.494  32.932   2.353
21770W        W93441  23.145  19.328   4.274
21771W        W93442  35.255  43.320  10.809
21772W        W93443  33.733  32.164  11.094
21773W        W93444  31.407   6.737   4.878
21774W        W93445  44.016   0.446   3.076
21775W        W93446  39.715   8.654   3.165
21776W        W93447  25.016  30.603  11.993
21777W        W93448   9.762  20.553   0.291
21778W        W93449  20.825  41.764   0.891
21779W        W93450  26.589  24.598  11.485
21780W        W93451  10.111   3.089  11.986
21781W        W93452   2.532  28.599   2.302
21782W        W93453  23.776  33.865  14.832
21783W        W93454   8.897  37.933  14.259
21784W        W93455  14.529  36.058   1.940
21785W        W93456  42.819  25.205  13.547
21786W        W93457   5.154   0.804  12.499
21787W        W93458   2.078   4.764  10.750
21788W        W93459  35.920  35.422   0.007
21789W        W93460  36.378  28.055  13.847
21790W        W93461  22.466  36.860  13.475
21791W        W93462  26.699   5.761   0.778
21792W        W93463  19.339  37.498  11.869
21793W        W93464  20.315  13.083   4.078
21794W        W93465  42.894  33.082   4.688
21795W        W93466  24.736  40.313   2.230
21796W        W93467  22.266   1.369  11.479
21797W        W93468   7.631  29.559  12.548
21798W        W93469  41.812  23.328   4.547
21799W        W93470   7.416   6.285   3.198
21800W        W93471  35.741  29.750   2.399
21801W        W93472  10.166   1.836  10.773
21802W        W93473  28.600   5.587  12.666
21803W        W93474  13.621  29.056   0.343
21804W        W93475  22.319  10.568   2.777
21805W        W93476  24.022  28.228  10.148
21806W        W93477  23.586  15.804   3.230
21807W        W93478  30.135  13.200   4.134
21808W        W93479   8.529   7.059   2.347
21809W        W93480  30.157  31.526   0.856
21810W        W93481   4.252   7.638  10.646
21811W        W93482  27.387  39.525  12.076
21812W        W93483  11.380  16.266  14.805
21813W        W93484  31.914  19.749  13.503
21814W        W93485  22.938  13.446   3.189
21815W        W93486  11.366  42.262  11.635
21816W        W93487  24.014  27.911   1.391
21817W        W93488  24.542  17.790  10.714
21818W        W93489  12.096  17.590   1.318
21819W        W93490  35.466  32.640   0.753
21820W        W93491  31.078  34.287  13.069
21821W        W93492  12.727   7.331  13.535
21822W        W93493   1.547  43.310  11.395
21823W        W93494  44.708  31.985   1.435
21824W        W93495  25.106   1.659  11.091
21825W        W93496   8.019  40.148   3.689
21826W        W93497  29.649  11.760  14.763
21827W        W93498   6.509  19.860   3.321
21828W        W93499  38.821  22.660  10.891
21829W        W93500  43.331  26.208   4.374
21830W        W93501   6.666  38.999   1.268
21831W        W93502  37.959  40.946  11.663
21832W        W93503  27.489   3.458   1.869
21833W        W93504   3.050  20.494   9.941
21834W        W93505  21.305  29.579  10.646
21835W        W93506  22.611  28.909  14.049
21836W        W93507  27.302   9.753  10.124
21837W        W93508  12.643  35.104  12.450
21838W        W93509   0.742  13.696   0.859
21839W        W93510   6.667  20.605  13.456
21840W        W93511  28.203  29.370  12.816
21841W        W93512  20.473  14.267  11.536
21842W        W93513  15.611  43.745  11.045
21843W        W93514  17.744  34.949   3.585
21844W        W93515  29.409  38.639   0.048
21845W        W93516   8.883  41.419  12.044
21846W        W93517  42.751  20.693   2.216
21847W        W93518  17.170  42.660  10.056
21848W        W93519   9.536  22.304   4.553
21849W        W93520  21.312   4.405  11.615
21850W        W93521  32.445  22.165   3.858
21851W        W93522  44.454  40.861  11.405
21852W        W93523  30.117  29.014   3.764
21853W        W93524   7.253   1.981  12.451
21854W        W93525  31.678  30.948  12.573
21855W        W93526  24.535   0.585  12.373
21856W        W93527  43.971   9.163  13.887
21857W        W93528  22.693  22.393   3.754
21858W        W93529  24.478  37.419  14.125
21859W        W93530  19.709  36.958  12.889
21860W        W93531  26.429  26.382  12.990
21861W        W93532  17.591  16.351   3.651
21862W        W93533  25.977  17.586   4.123
21863W        W93534  38.440  34.592   2.258
21864W        W93535  23.497   9.123   4.611
21865W        W93536  16.707  36.551  10.682
21866W        W93537  33.589   9.858   4.144
21867W        W93538  28.045  31.959  13.619
21868W        W93539  29.871  16.729  11.602
21869W        W93540   9.497   9.910   2.882
21870W        W93541  35.874   1.863  12.944
21871W        W93542  11.680  26.998   0.915
21872W        W93543  38.455   9.308  12.431
21873W        W93544  25.028  22.037   0.219
21874W        W93545   7.245   8.663  11.567
21875W        W93546  19.538  23.172   4.114
21876W        W93547  15.643  39.689   2.620
21877W        W93548   9.749  12.133  14.780
21878W        W93549  14.052  41.386  13.849
21879W        W93550  37.015  10.149   1.761
21880W        W93551   3.294  34.416   3.415
21881W        W93552   1.938  21.265   4.411
21882W        W93553  32.239  31.506   2.454
21883W        W93554  11.627   0.211   5.047
21884W        W93555  30.393  34.541   1.188
21885W        W93556  12.470  16.158   3.831
21886W        W93557  24.743  34.626   0.252
21887W        W93558  36.562  44.226  13.350
21888W        W93559  43.558   6.335   2.811
21889W        W93560   3.517  21.158   2.247
21890W        W93561  41.374   7.302   0.378
21891W        W93562  23.178  39.400  14.205
21892W        W93563  29.238   8.715  14.176
21893W        W93564  24.773  36.045   1.838
21894W        W93565  37.487  39.721  12.923
21895W        W93566  36.996   9.356  12.484
21896W        W93567  23.150  18.130   3.827
21897W        W93568  14.900  26.429  14.051
21898W        W93569  10.734  10.915   1.645
21899W        W93570  40.555  38.790   0.826
21900W        W93571  42.781   3.273   0.540
21901W        W93572  15.109  36.566  12.521
21902W        W93573   7.851  27.757  12.149
21903W        W93574  25.632  36.405   4.689
21904W        W93575  20.746  28.539   1.176
21905W        W93576  43.001  29.061   0.056
21906W        W93577  16.081   1.734  14.893
21907W        W93578  20.184  31.516   3.641
21908W        W93579  29.153   0.888  14.282
21909W        W93580  23.737  43.944  11.165
21910W        W93581  22.169  16.697  12.340
21911W        W93582  30.050   8.128   9.795
21912W        W93583  26.940  17.071   0.433
21913W        W93584   6.896  26.575   0.418
21914W        W93585  25.585  16.630  12.051
21915W        W93586  37.647  29.951  11.094
21916W        W93587  41.094   2.502  14.997
21917W        W93588  36.972  22.544   4.557
21918W        W93589  19.082  41.607   1.746
21919W        W93590  36.966  44.418  10.737
21920W        W93591   7.148  36.604  13.045
21921W        W93592   9.690   2.443  11.959
21922W        W93593  44.386   8.342   1.973
21923W        W93594  33.765  41.287  10.573
21924W        W93595  37.657   2.875  14.701
21925W        W93596  21.100   3.910   2.337
21926W        W93597   8.030  29.545   0.367
21927W        W93598   2.624  31.556  11.091
21928W        W93599  34.813   2.681  11.429
21929W        W93600  18.991  13.411   0.846
21930W        W93601  35.732  25.882  13.514
21931W        W93602  22.304   9.338   1.447
21932W        W93603  38.002  11.684  11.960
21933W        W93604  22.149  32.443  11.368
21934W        W93605  31.091   7.491  11.282
21935W        W93606   5.327  31.541  11.621
21936W        W93607   4.934  25.696   3.678
21937W        W93608  13.576   9.880  12.483
21938W        W93609  15.353   7.348   2.845
21939W        W93610  19.465  23.682  13.235
21940W        W93611  19.654  35.424   0.889
21941W        W93612   3.019  40.485  13.767
21942W        W93613   7.874  19.284   2.678
21943W        W93614  16.586  10.730  10.851
21944W        W93615  16.035  22.595  11.037
21945W        W93616  14.462  33.076  11.456
21946W        W93617  26.536   4.144   4.992
21947W        W93618   2.925   9.768   1.914
21948W        W93619   7.566  24.593  13.939
21949W        W93620  16.736  31.127   1.405
21950W        W93621  27.461  29.217   1.588
21951W        W93622  20.824  39.942   0.706
21952W        W93623  14.677  15.097  12.393
21953W        W93624  39.500  31.125   4.330
21954W        W93625  39.569  28.707  11.071
21955W        W93626  12.657  31.907   2.707
21956W        W93627   8.280  18.966   2.803
21957W        W93628  24.957  21.207  12.558
21958W        W93629  24.772  32.702   4.396
21959W        W93630  24.432   1.892   2.752
21960W        W93631  44.931   8.487  11.628
21961W        W93632  13.038  42.043   0.712
21962W        W93633   2.423   2.688   1.939
21963W        W93634  27.906   9.702  13.369
21964W        W93635  42.870  34.721   4.989
21965W        W93636   3.209   3.823   1.431
21966W        W93637   4.407  42.490  13.925
21967W        W93638   9.255  21.906   4.388
21968W        W93639  10.097  30.564  11.639
21969W        W93640  24.077   9.250  11.707
21970W        W93641  41.879   8.222  12.629
21971W        W93642   0.844  10.257   2.641
21972W        W93643   7.841  42.073   4.394
21973W        W93644   3.843  27.841  12.442
21974W        W93645  21.665   3.445  12.259
21975W        W93646  33.497  35.098   2.805
21976W        W93647  29.943  20.678  14.945
21977W        W93648  37.510  18.271   1.658
21978W        W93649  36.203  36.413   9.738
21979W        W93650  32.112  30.930   0.011
21980W        W93651   8.878  25.430  11.395
21981W        W93652  28.649  32.930  10.931
21982W        W93653  41.726  39.427   0.637
21983W        W93654  14.802   2.219   2.295
21984W        W93655   4.934  28.182  12.976
21985W        W93656  44.071  21.495   4.626
21986W        W93657  10.425   7.155  10.613
21987W        W93658  26.546  24.047   1.916
21988W        W93659  21.027  20.260   1.244
21989W        W93660   8.241   9.809   3.870
21990W        W93661  30.155  27.574  12.203
21991W        W93662  34.389  40.370  13.264
21992W        W93663   4.251  26.503  13.493
21993W        W93664  34.179   5.068  14.147
21994W        W93665  30.926  23.178  10.983
21995W        W93666   4.935   3.279   5.017
21996W        W93667  23.271  12.548   4.453
21997W        W93668  21.631  41.515  12.580
21998W        W93669   6.505  35.932  11.536
21999W        W93670  37.969  36.526  14.900
22000W        W93671   3.881  43.350  12.129
22001W        W93672  18.535   0.246   3.338
22002W        W93673  11.150   8.238   1.537
22003W        W93674  28.678  18.985  13.398
22004W        W93675   5.610  20.200   3.413
22005W        W93676  18.443  33.666   3.542
22006W        W93677  13.315  22.601   3.631
22007W        W93678   9.046  38.454   3.228
22008W        W93679  30.930  21.936   1.933
22009W        W93680  36.583  43.505  12.535
22010W        W93681  42.789  12.433   3.389
22011W        W93682  14.156   7.663  14.348
22012W        W93683  39.958   3.790  13.799
22013W        W93684  34.046  12.718   4.570
22014W        W93685  32.139  13.116  10.710
22015W        W93686   6.935  28.509   0.117
22016W        W93687  11.094   9.985  11.959
22017W        W93688  25.520  40.408  12.238
22018W        W93689  35.347  11.082   2.733
22019W        W93690   9.010   9.357  10.598
22020W        W93691  17.558  26.937   1.387
22021W        W93692  41.916  32.147   4.649
22022W        W93693  17.224  37.893   2.687
22023W        W93694  29.776  29.483  11.594
22024W        W93695  34.589  10.788  12.499
22025W        W93696  43.288  36.780  13.805
22026W        W93697  29.551  25.486   1.105
22027W        W93698   8.780  30.716   0.999
22028W        W93699  25.073   7.278   0.392
22029W        W93700   0.445  19.983  11.999
22030W        W93701   1.982  15.524   3.360
22031W        W93702  21.687  40.544   9.798
22032W        W93703  42.492  27.198  12.018
22033W        W93704  30.965  15.853  12.654
22034W        W93705  20.316  24.535  14.856
22035W        W93706  26.995  12.592  14.856
22036W        W93707  44.390  21.990   9.436
22037W        W93708  22.612  21.546   4.292
22038W        W93709   2.271  30.923  12.493
22039W        W93710  37.437  27.671   4.564
22040W        W93711  44.145  27.536  12.951
22041W        W93712  20.748   5.613   4.291
22042W        W93713  29.918   5.912   0.227
22043W        W93714  10.348  10.335   2.180
22044W        W93715  16.297  40.369   3.348
22045W        W93716  43.574  29.567  13.344
22046W        W93717  15.324   0.306  14.737
22047W        W93718  22.603   1.398   4.838
22048W        W93719   1.515  15.254   2.470
22049W        W93720  38.316  18.148  13.771
22050W        W93721  44.092  17.399  13.844
22051W        W93722   0.852   6.642  10.789
22052W        W93723  25.734  27.748  10.298
22053W        W93724  29.068  26.403  11.506
22054W        W93725  44.808  12.829   2.837
22055W        W93726   0.751  12.444   3.293
22056W        W93727  40.068  41.710   3.011
22057W        W93728  34.865  38.367   2.726
22058W        W93729  13.186  24.200   3.397
22059W        W93730  42.928  13.249   4.446
22060W        W93731  36.950   5.628   2.736
22061W        W93732   3.689   6.701  12.031
22062W        W93733  23.429  12.323   2.189
22063W        W93734   7.157  36.787  13.915
22064W        W93735  21.921  14.161  14.534
22065W        W93736  33.964  18.326  14.529
22066W        W93737  11.767   5.981   1.210
22067W        W93738  26.509  30.603   1.783
22068W        W93739  32.615  30.865   1.280
22069W        W93740  31.796   0.502   0.908
22070W        W93741  32.416  43.526  11.985
22071W        W93742  11.758  24.419   4.772
22072W        W93743  29.246  18.783   3.643
22073W        W93744   9.032  19.510   4.438
22074W        W93745   5.331   2.431  14.310
22075W        W93746  10.105  12.082   4.557
22076W        W93747  21.889  44.949   3.480
22077W        W93748   5.464  24.554   3.993
22078W        W93749  37.226  15.696  10.307
22079W        W93750  28.956  35.827   1.369
22080W        W93751   4.271  15.402   0.048
22081W        W93752  19.922  15.935  10.698
22082W        W93753  16.300  32.740  12.982
22083W        W93754  36.380   9.650  12.367
22084W        W93755  17.829  38.971   2.840
22085W        W93756   2.232   9.723  10.540
22086W        W93757  12.822  13.187  13.662
22087W        W93758   6.323  43.032   0.730
22088W        W93759  13.251   6.794   3.100
22089W        W93760  43.455  19.437   5.056
22090W        W93761   1.374  24.713  13.004
22091W        W93762  34.485  35.246   0.790
22092W        W93763  16.547   8.101   4.772
22093W        W93764   4.204  42.028   2.475
22094W        W93765  32.476  32.122   2.161
22095W        W93766   5.426  38.035  13.760
22096W        W93767   2.386  26.066   4.512
22097W        W93768  19.701  17.196   1.667
22098W        W93769  23.547   3.651  12.394
22099W        W93770  31.621  21.292  13.996
22100W        W93771  21.619  13.537   0.422
22101W        W93772  28.335  15.632   0.097
22102W        W93773   7.868  13.505   1.829
22103W        W93774  13.188  37.897  12.071
22104W        W93775  29.482   9.168  10.147
22105W        W93776   7.674  31.965   4.659
22106W        W93777  42.443  11.896   4.315
22107W        W93778   2.235  18.315   1.754
22108W        W93779  30.111   5.762  14.781
22109W        W93780  33.766  21.559   3.641
22110W        W93781   0.933  38.934   0.839
22111W        W93782  29.192  22.768  10.755
22112W        W93783  43.783  29.678  11.056
22113W        W93784  36.240   5.617   0.426
22114W        W93785  22.155  37.091  11.574
22115W        W93786  25.703  29.528   4.351
22116W        W93787  44.572  20.486   3.804
22117W        W93788  14.572   3.790  14.507
22118W        W93789  27.643  15.148   3.701
22119W        W93790  32.100  10.149   2.610
22120W        W93791  14.408  26.397  13.918
22121W        W93792   2.252   0.251  11.490
22122W        W93793  18.930  39.088  14.770
22123W        W93794  41.640  37.027  10.392
22124W        W93795  29.892   6.942  10.446
22125W        W93796  11.295  42.997   1.134
22126W        W93797  29.727  24.516   4.073
22127W        W93798   5.839  25.659   4.576
22128W        W93799  43.833  44.476   3.096
22129W        W93800  32.555  42.158  14.693
22130W        W93801  13.160  35.573   0.517
22131W        W93802   9.394  31.317   3.406
22132W        W93803  38.025  39.646   9.519
22133W        W93804  39.798   5.348   3.299
22134W        W93805   7.741   8.779   4.560
22135W        W93806  36.182  21.526  12.481
22136W        W93807  42.585   2.607   4.084
22137W        W93808  10.853  11.696  11.277
22138W        W93809   8.450  38.706  14.927
22139W        W93810  35.833   7.240  13.631
22140W        W93811  30.357  10.603   1.501
22141W        W93812   4.006   5.481   3.855
22142W        W93813  14.716   7.583   3.184
22143W        W93814  29.640  41.985   1.721
22144W        W93815  23.695  22.353   2.748
22145W        W93816  38.415  33.663  11.390
22146W        W93817  14.637  21.434   3.291
22147W        W93818  23.053  21.657  14.461
22148W        W93819  33.021  18.681   1.018
22149W        W93820  18.777  38.042   1.705
22150W        W93821  34.296   8.193  14.950
22151W        W93822  17.236  21.940  11.187
22152W        W93823  18.775  36.877  10.791
22153W        W93824  30.751  25.082  12.800
22154W        W93825  36.012  15.118  10.654
22155W        W93826  28.128  27.187  12.927
22156W        W93827  25.776   8.266  14.464
22157W        W93828  43.369  29.082  13.425
22158W        W93829   6.814  24.460  12.569
22159W        W93830   1.654  39.407  11.278
22160W        W93831  20.549   8.077  14.629
22161W        W93832  15.870  41.083  13.842
22162W        W93833   3.425  42.100   0.382
22163W        W93834   3.327  40.064  13.904
22164W        W93835  36.763   9.151  14.924
22165W        W93836  31.483  33.121   1.462
22166W        W93837  24.390  38.339   5.156
22167W        W93838  34.795  23.682  14.970
22168W        W93839   4.695  30.648   2.824
22169W        W93840  12.942   0.730  13.097
22170W        W93841  15.192  44.846   4.137
22171W        W93842   3.772  40.461   3.120
22172W        W93843  28.253  26.584  10.804
22173W        W93844  14.729   2.821  13.094
22174W        W93845   6.892  20.126   4.122
22175W        W93846   7.745  44.886   0.851
22176W        W93847  25.920  24.916  13.984
22177W        W93848  44.197  33.797   4.455
22178W        W93849  40.432   2.686  12.517
22179W        W93850  31.002  38.826  12.012
22180W        W93851  12.168  11.912  14.504
22181W        W93852  39.087  42.208  11.072
22182W        W93853  20.842  35.932   1.046
22183W        W93854  31.531  43.407   1.457
22184W        W93855  41.338   0.287   0.449
22185W        W93856  37.065  20.025   1.589
22186W        W93857  15.867  26.074  13.772
22187W        W93858  35.675   0.011  13.807
22188W        W93859  38.953  28.093   4.120
22189W        W93860  37.050  31.665   1.206
22190W        W93861  23.219   5.670  14.054
22191W        W93862  12.350   2.200   2.887
22192W        W93863  11.924  35.669   5.120
22193W        W93864  17.017   3.159  11.512
22194W        W93865  38.980  33.228  10.376
22195W        W93866   7.162   4.833   3.295
22196W        W93867  13.054  26.774  12.890
22197W        W93868  35.074   8.122  13.518
22198W        W93869  36.476  41.860   4.084
22199W        W93870   8.419  31.927   2.557
22200W        W93871   1.879   6.919   4.056
22201W        W93872  23.278  32.064  12.513
22202W        W93873  38.020  31.233  10.792
22203W        W93874  39.558  12.089  14.311
22204W        W93875  43.909  22.020   2.314
22205W        W93876  20.491  28.518  11.100
22206W        W93877  31.287  39.909   3.232
22207W        W93878  28.059  28.185  11.917
22208W        W93879  41.566  42.345  12.977
22209W        W93880  35.848  22.672   0.283
22210W        W93881  43.910  19.570   1.992
22211W        W93882  26.913  15.605   1.491
22212W        W93883   8.309  13.718   4.586
22213W        W93884   8.353  26.156   1.736
22214W        W93885  36.306  23.072  14.521
22215W        W93886  25.369  40.608   0.908
22216W        W93887  44.766  23.087   0.094
22217W        W93888  18.584  36.368   3.084
22218W        W93889  27.229   1.919   1.025
22219W        W93890  28.473   6.487   3.534
22220W        W93891  40.364   2.978  13.988
22221W        W93892  32.082  12.857   3.579
22222W        W93893   8.104  25.528   4.098
22223W        W93894  42.208  43.297   1.126
22224W        W93895  19.232  28.417   4.900
22225W        W93896   3.369  43.332  12.322
22226W        W93897   0.866  33.897  12.699
22227W        W93898  29.709  30.502   0.290
22228W        W93899  34.112  18.824   2.870
22229W        W93900   8.428  24.163  14.148
22230W        W93901  25.607  25.530   3.139
22231W        W93902   9.269  33.458   1.673
22232W        W93903  34.323  31.370  13.284
22233W        W93904  20.306  30.255   3.206
22234W        W93905   6.162   2.444  10.797
22235W        W93906   1.381  36.754  12.297
22236W        W93907  27.161  36.831   4.486
22237W        W93908  27.391  28.606  10.740
22238W        W93909  19.893  31.155  14.875
22239W        W93910  30.927  32.025   4.107
22240W        W93911  14.088   6.978   4.325
22241W        W93912   8.854  14.586  13.612
22242W        W93913  39.648  34.082   0.288
22243W        W93914  18.375  22.599   4.505
22244W        W93915  35.862  13.223   2.608
22245W        W93916   9.870   6.418   2.739
22246W        W93917  17.789  14.277   3.322
22247W        W93918  30.235  32.620  11.984
22248W        W93919  35.523  38.989   3.853
22249W        W93920   6.240  14.198   2.676
22250W        W93921  20.961  30.697  10.917
22251W        W93922  15.193   1.462   2.881
22252W        W93923  10.111  28.966   4.081
22253W        W93924  31.601  29.974   4.647
22254W        W93925  44.473  31.179   3.663
22255W        W93926   8.333  26.803   0.700
22256W        W93927   9.752  22.007  14.383
22257W        W93928  21.766  17.137   2.631
22258W        W93929  39.880  21.787  12.998
22259W        W93930  19.335   1.938   1.297
22260W        W93931   8.568   1.854  11.476
22261W        W93932  20.808   6.883  11.150
22262W        W93933  39.010  30.223   1.295
22263W        W93934  22.145  39.827  11.672
22264W        W93935   8.200  42.547   2.707
22265W        W93936  36.346  16.547   0.397
22266W        W93937  19.795  40.993  11.934
22267W        W93938   6.412   4.266   3.234
22268W        W93939   4.341  37.379   2.207
22269W        W93940  42.960  40.923   1.418
22270W        W93941  33.682  28.883  12.519
22271W        W93942  21.296  38.447   1.897
22272W        W93943   4.836   3.802   2.012
22273W        W93944   9.395   8.497  12.424
22274W        W93945  32.702  33.170   1.403
22275W        W93946   2.351  16.410   3.903
22276W        W93947  41.024  37.874  10.975
22277W        W93948   5.481   7.489   2.907
22278W        W93949  19.001  17.533   1.329
22279W        W93950  30.608  24.782  11.950
22280W        W93951  32.902  36.891  11.615
22281W        W93952  44.538  38.530   0.867
22282W        W93953   3.644  12.374  13.100
22283W        W93954  20.274   2.681  14.596
22284W        W93955  42.122  15.663   3.243
22285W        W93956  26.152  26.442   2.136
22286W        W93957  18.070  14.639  10.605
22287W        W93958   3.877  42.425  11.973
22288W        W93959  39.303  13.234  11.155
22289W        W93960  28.645  24.180  11.095
22290W        W93961   7.320   3.895  13.003
22291W        W93962  39.771   3.749  13.311
22292W        W93963   9.805  23.455   1.797
22293W        W93964   6.202  43.025   3.100
22294W        W93965  34.422  32.314  14.623
22295W        W93966  26.737  20.735   0.405
22296W        W93967  20.584  14.292  14.927
22297W        W93968   4.409  40.387   0.355
22298W        W93969  13.269   0.212   1.652
22299W        W93970  25.742  26.166  13.023
22300W        W93971  30.884  22.014   1.038
22301W        W93972   4.501  18.687   0.888
22302W        W93973  15.834  43.389  11.649
22303W        W93974  25.223  41.664   4.112
22304W        W93975   2.175  43.503   1.325
22305W        W93976  24.883  38.473  13.494
22306W        W93977   3.898  26.997  11.641
22307W        W93978  15.293   0.494  10.383
22308W        W93979  10.671  26.446   1.225
22309W        W93980  29.016  21.759  12.569
22310W        W93981  43.680  10.308   1.769
22311W        W93982  21.657   2.280   0.835
22312W        W93983  29.059  34.494   3.632
22313W        W93984  37.929  37.335   2.275
22314W        W93985   2.582  20.378  10.180
22315W        W93986  44.694   2.557   4.995
22316W        W93987  21.325  31.804   3.383
22317W        W93988   4.171  15.773   3.720
22318W        W93989  30.920  20.434  14.751
22319W        W93990  35.648   4.189   4.103
22320W        W93991   2.480  28.635   2.852
22321W        W93992   2.468   6.207  10.302
22322W        W93993   9.885  27.990  14.668
22323W        W93994  36.417   2.589   2.056
22324W        W93995  12.366  14.675  12.973
22325W        W93996  15.126  14.208  13.280
22326W        W93997  17.146  37.377   4.696
22327W        W93998  36.100  24.061   4.550
22328W        W93999  10.337   1.479   0.322
22329W        W94000  13.826  25.698   0.625
22330W        W94001  12.163   0.203   2.742
22331W        W94002  18.310  31.109   3.405
22332W        W94003   9.757   3.839  14.534
22333W        W94004  41.221  31.601  10.783
22334W        W94005  35.118  42.886   2.474
22335W        W94006  39.837  25.915   0.213
22336W        W94007  15.559  18.083   1.248
22337W        W94008   2.220  19.602   4.661
22338W        W94009  21.995   6.905   0.407
22339W        W94010   0.878  16.463  10.114
22340W        W94011  28.191  35.279  11.935
22341W        W94012  44.111  32.554   3.242
22342W        W94013  15.489  31.361   1.435
22343W        W94014  33.294  13.215   4.747
22344W        W94015  10.304  34.585  13.637
22345W        W94016  31.921  13.943  13.656
22346W        W94017  26.056   4.460  13.836
22347W        W94018   4.801  25.442  11.423
22348W        W94019  16.036  30.129   2.229
22349W        W94020  30.567  11.073   0.264
22350W        W94021   4.851  27.912   4.630
22351W        W94022  18.493  34.381   2.746
22352W        W94023   7.034  43.573   1.063
22353W        W94024  17.834  28.943  12.673
22354W        W94025  41.802  30.167   0.947
22355W        W94026  32.073  26.848   2.709
22356W        W94027  22.146  27.635   4.631
22357W        W94028  21.021  18.042   1.201
22358W        W94029  16.652  15.177   1.785
22359W        W94030  32.621   5.851  14.356
22360W        W94031  44.471  26.818   1.759
22361W        W94032  34.629   6.920  10.807
22362W        W94033  16.699  24.853  13.776
22363W        W94034  11.487  15.723   2.710
22364W        W94035  43.259  43.493   2.503
22365W        W94036  39.839  42.903  14.456
22366W        W94037  36.852   2.277  12.181
22367W        W94038   8.721   5.643  11.920
22368W        W94039  10.096  36.344  10.945
22369W        W94040  36.346  13.176   2.421
22370W        W94041  20.399  17.754  13.465
22371W        W94042   3.893  42.944  13.460
22372W        W94043   7.941  19.601  12.863
22373W        W94044  21.439  21.090  10.775
22374W        W94045  42.980   1.983  13.177
22375W        W94046  12.337   9.300   4.562
22376W        W94047  11.891  29.695   4.017
22377W        W94048   4.078  31.088  13.262
22378W        W94049  17.336  20.258  14.923
22379W        W94050  21.498  14.769  10.965
22380W        W94051  33.364  22.223  12.605
22381W        W94052  34.937  39.262  12.797
22382W        W94053  20.726  27.380   5.374
22383W        W94054  43.554  41.511   2.651
22384W        W94055  33.618  37.553   1.426
22385W        W94056  29.734  15.997  12.379
22386W        W94057  35.594  43.122   3.581
22387W        W94058   6.214  26.097   1.376
22388W        W94059  14.269   0.246  11.028
22389W        W94060  12.604  34.111  13.094
22390W        W94061  27.070   2.814   0.855
22391W        W94062  16.758  27.200  14.549
22392W        W94063  10.238  24.688   4.044
22393W        W94064   2.485  33.528  14.000
22394W        W94065  19.369  38.447  11.754
22395W        W94066  31.335  44.359   1.697
22396W        W94067  33.670  39.020   4.273
22397W        W94068  33.463   5.080   3.343
22398W        W94069  36.587  11.723   0.065
22399W        W94070   2.451  42.264  12.638
22400W        W94071  43.504   7.609   3.782
22401W        W94072  40.782  15.087  13.621
22402W        W94073  31.658   5.443   4.528
22403W        W94074  36.458  17.026  13.479
22404W        W94075   1.893   6.990   1.612
22405W        W94076  44.771  38.096  14.086
22406W        W94077  24.931  26.197   4.134
22407W        W94078   1.741   4.935  13.324
22408W        W94079   6.717  23.702   4.542
22409W        W94080  40.898  38.271  11.330
22410W        W94081   8.418  40.878   4.181
22411W        W94082  27.194  44.337  12.967
22412W        W94083  41.538   2.501   2.218
22413W        W94084  11.815  21.326   1.805
22414W        W94085  31.870  39.079  13.007
22415W        W94086  17.336   5.924   3.771
22416W        W94087  27.466  27.695  12.396
22417W        W94088   5.890  30.160   0.946
22418W        W94089  42.268  18.240   1.250
22419W        W94090   8.375  31.946  13.448
22420W        W94091  17.846  33.577   4.193
22421W        W94092  40.015  29.505   2.069
22422W        W94093  27.328  15.925  12.488
22423W        W94094   8.312  30.519   3.931
22424W        W94095  41.833  17.810   2.738
22425W        W94096  28.772  11.149   1.600
22426W        W94097   6.699  23.449   3.687
22427W        W94098  23.370  12.117  13.983
22428W        W94099  39.701  16.481   3.126
22429W        W94100  31.591  20.528   4.283
22430W        W94101  35.032  32.806  12.963
22431W        W94102  38.891   4.831  13.455
22432W        W94103  15.685  20.381   0.069
22433W        W94104  14.877  16.499   4.069
22434W        W94105  37.307  30.724  12.425
22435W        W94106   1.781  38.815  12.064
22436W        W94107  40.941   3.188  10.571
22437W        W94108   7.217   2.763  11.609
22438W        W94109   8.317  16.899   0.924
22439W        W94110  38.898  36.581  14.737
22440W        W94111  44.900  39.223   2.824
22441W        W94112  44.660   6.944   3.209
22442W        W94113  44.589  39.366   2.130
22443W        W94114   5.755  23.244   0.798
22444W        W94115   5.342   8.249   0.261
22445W        W94116  20.771  17.928  14.949
22446W        W94117  15.197   2.926   2.721
22447W        W94118  27.133  15.208  13.964
22448W        W94119  24.888   2.199   3.688
22449W        W94120  25.957   2.799  11.640
22450W        W94121  36.301   4.406  11.367
22451W        W94122  40.086   0.996   2.358
22452W        W94123  41.560  34.171  11.229
22453W        W94124  17.111  39.869   2.975
22454W        W94125  28.504  25.449   1.903
22455W        W94126   2.401  22.638   0.339
22456W        W94127   9.261  30.043   4.546
22457W        W94128  40.606  39.769   3.355
22458W        W94129  33.835   4.419  14.928
22459W        W94130  25.573  40.277  12.750
22460W        W94131   9.227   4.430  12.373
22461W        W94132  41.263  34.885   4.170
22462W        W94133  36.403  18.277   0.199
22463W        W94134  38.305  28.161   1.139
22464W        W94135  19.581  34.069  12.505
22465W        W94136  44.074  29.004   2.514
22466W        W94137   7.750  30.143  14.382
22467W        W94138  25.144  37.407   0.401
22468W        W94139  11.101  35.680   2.331
22469W        W94140  18.050  37.370  11.912
22470W        W94141   8.283   1.476  11.674
22471W        W94142   7.632   3.765  14.405
22472W        W94143  26.537  17.265  14.497
22473W        W94144   7.315   7.679   1.527
22474W        W94145  27.658  14.645   2.391
22475W        W94146  18.039  43.919   1.771
22476W        W94147  28.603  32.020   1.653
22477W        W94148   8.047  24.987  11.073
22478W        W94149   8.196  29.410   2.872
22479W        W94150  11.682  41.988  10.810
22480W        W94151  15.367  34.802  14.360
22481W        W94152  10.153  18.829   0.763
22482W        W94153   5.555   9.168  13.363
22483W        W94154  27.475  16.138   3.846
22484W        W94155   0.280  31.376   4.059
22485W        W94156   0.826  25.715  13.547
22486W        W94157   2.271   5.137   4.232
22487W        W94158  10.818  35.483  10.435
22488W        W94159  42.759  12.835   2.708
22489W        W94160   2.787  42.369  13.954
22490W        W94161  39.238   2.844   0.700
22491W        W94162  33.930   4.259  12.553
22492W        W94163  40.471  25.051   3.236
22493W        W94164  27.230  26.015  14.442
22494W        W94165  30.995  11.604   4.075
22495W        W94166  36.474  23.819   0.030
22496W        W94167  10.869  27.898  10.633
22497W        W94168  37.437  44.183   1.805
22498W        W94169  13.234  35.104  11.880
22499W        W94170  43.202  29.915   0.994
22500W        W94171  36.665  29.579  13.928
22501W        W94172  14.176   8.440  13.255
22502W        W94173  22.580  11.300   0.385
22503W        W94174  32.459   8.893   2.780
22504W        W94175   4.938  16.539   4.581
22505W        W94176  10.710   3.255   0.381
22506W        W94177   0.777  32.328   1.813
22507W        W94178  35.345  10.451   4.134
22508W        W94179  21.656  17.061  13.991
22509W        W94180  39.782  33.566   3.490
22510W        W94181  20.492  35.324   2.356
22511W        W94182  32.493  39.130  13.313
22512W        W94183  38.147  29.559  11.664
22513W        W94184  30.536   4.205  12.959
22514W        W94185  35.525  36.601  13.435
22515W        W94186  15.431  17.535   0.703
22516W        W94187   1.319  34.583   0.766
22517W        W94188  18.727  21.574  14.764
22518W        W94189   5.380  27.930  12.929
22519W        W94190  30.394  42.516   0.695
22520W        W94191   8.220   2.516   1.205
22521W        W94192  34.528  32.068  14.137
22522W        W94193  28.886  33.973  13.521
22523W        W94194  21.455   8.677   2.873
22524W        W94195   7.248  42.426  10.543
22525W        W94196  44.000  36.929   4.896
22526W        W94197  16.574  28.596  12.121
22527W        W94198   7.568  13.631   2.239
22528W        W94199  36.009  18.473   1.240
22529W        W94200  17.583  22.915   1.300
22530W        W94201  32.627   4.450  12.165
22531W        W94202   1.804  23.608   3.375
22532W        W94203   1.498   0.325   2.790
22533W        W94204  38.354  39.544   2.985
22534W        W94205  14.780  30.966  11.366
22535W        W94206  18.354  21.018   3.429
22536W        W94207  24.264  17.537   1.197
22537W        W94208  37.326   9.230  11.089
22538W        W94209   6.406  18.619   4.103
22539W        W94210  32.795  12.935  12.974
22540W        W94211  40.574  42.717  13.732
22541W        W94212  24.654  31.891   0.349
22542W        W94213  21.220  16.718  12.084
22543W        W94214  30.503  27.639  13.788
22544W        W94215  10.741  44.475   3.802
22545W        W94216   5.774  23.794  12.327
22546W        W94217   1.277  18.772   0.046
22547W        W94218  20.906  41.548  12.046
22548W        W94219  38.359  11.669   0.334
22549W        W94220  15.319   3.952   1.860
22550W        W94221  20.705  12.109   1.021
22551W        W94222   5.912  27.215   3.826
22552W        W94223  38.169  24.163   4.542
22553W        W94224   7.036  21.882   4.940
22554W        W94225  27.451  25.593  11.114
22555W        W94226   7.634  12.301   0.259
22556W        W94227  44.857  21.349  12.167
22557W        W94228  27.209  17.923   4.181
22558W        W94229   7.860   5.429  13.012
22559W        W94230  43.046  26.065  13.406
22560W        W94231   6.298  24.110  10.779
22561W        W94232  10.826  33.460  11.953
22562W        W94233  15.399   3.689   3.699
22563W        W94234   6.982  19.316   3.705
22564W        W94235  31.949  25.759  12.037
22565W        W94236  40.004  42.964  13.528
22566W        W94237   0.293  36.371  11.597
22567W        W94238  44.284   4.439  14.351
22568W        W94239  43.758  11.481   3.584
22569W        W94240   6.354   8.744   5.023
22570W        W94241  24.921   7.054  14.527
22571W        W94242  36.460   8.670  11.679
22572W        W94243  44.721  21.129   2.230
22573W        W94244   1.750   5.863  14.261
22574W        W94245  22.686  37.995   3.205
22575W        W94246  19.687  16.091   1.482
22576W        W94247   5.779  32.879   0.190
22577W        W94248  14.375  43.549  14.859
22578W        W94249  30.152  21.151  14.863
22579W        W94250  38.262  18.820   1.882
22580W        W94251  31.728  42.916   2.198
22581W        W94252  31.988  37.617   4.523
22582W        W94253  38.888  40.312  14.707
22583W        W94254   9.755  44.951  15.000
22584W        W94255   9.236  34.406  11.949
22585W        W94256  20.147  38.118   1.188
22586W        W94257  35.005   5.440  11.525
22587W        W94258  23.753  25.498   2.393
22588W        W94259  21.724  20.127   0.697
22589W        W94260  23.153  42.230   4.375
22590W        W94261  41.060  32.224   0.662
22591W        W94262  18.082  41.017  12.538
22592W        W94263  41.056   9.587   3.772
22593W        W94264  44.403   2.406   2.764
22594W        W94265  20.128  36.985  10.887
22595W        W94266  33.031  11.338  13.040
22596W        W94267  36.074   3.314   0.448
22597W        W94268   8.793  11.847   4.176
22598W        W94269  44.829  40.842   0.281
22599W        W94270  41.015  24.183   5.113
22600W        W94271  22.982  43.350  11.132
22601W        W94272   7.629   7.789  14.828
22602W        W94273  38.797   8.874  10.566
22603W        W94274  43.028   1.006  14.914
22604W        W94275  44.431  10.137   3.610
22605W        W94276  41.844   6.734   2.756
22606W        W94277  30.428  44.335  10.686
22607W        W94278  30.406   3.438   2.351
22608W        W94279  12.160   9.694  11.988
22609W        W94280  16.052  28.433   1.770
22610W        W94281   3.871  37.999   1.806
22611W        W94282  14.907  31.976  12.640
22612W        W94283  15.546   8.901  14.607
22613W        W94284  31.390  35.842  12.479
22614W        W94285  42.267  10.668  13.040
22615W        W94286   1.481  10.181   2.732
22616W        W94287  40.824   9.601  14.059
22617W        W94288  23.698  13.968   0.261
22618W        W94289  32.935  27.116  12.569
22619W        W94290   2.236  31.180  11.631
22620W        W94291  38.961  20.694   4.063
22621W        W94292   4.724  22.660  11.350
22622W        W94293  33.346  22.079  14.028
22623W        W94294  33.287   3.072  11.572
22624W        W94295  40.952  12.932  14.003
22625W        W94296   4.226  23.539   2.738
22626W        W94297   0.041  28.739   1.925
22627W        W94298  26.128  15.724  13.894
22628W        W94299  27.369  31.569  12.419
22629W        W94300  24.026  41.294  14.008
22630W        W94301  40.562  13.969   0.758
22631W        W94302  25.557   5.695   1.527
22632W        W94303  24.148  33.660  10.127
22633W        W94304  44.181  17.676   4.996
22634W        W94305  44.670  10.941   3.413
22635W        W94306  40.374  37.876   0.021
22636W        W94307   4.496  44.433   3.194
22637W        W94308   9.162  37.627  14.586
22638W        W94309   9.204  44.718   0.834
22639W        W94310   1.067  12.303  10.635
22640W        W94311  33.269  33.043  14.242
22641W        W94312  12.160  41.201   4.803
22642W        W94313   0.189  21.224   3.066
22643W        W94314  25.204  34.389   4.394
22644W        W94315  12.186   0.850   0.442
22645W        W94316  23.151  16.144   4.625
22646W        W94317  35.346  37.894   0.864
22647W        W94318  38.787  16.647  12.917
22648W        W94319  43.729  34.961  13.917
22649W        W94320  16.631  33.899  12.940
22650W        W94321  13.258  11.730  11.610
22651W        W94322  42.269   1.769   0.832
22652W        W94323  15.555  10.547  14.925
22653W        W94324   9.282   3.714   0.857
22654W        W94325   4.214   9.865  13.350
22655W        W94326  14.835  14.291   3.100
22656W        W94327  30.354  31.175  14.817
22657W        W94328  25.955  14.034   3.238
22658W        W94329  14.329  17.715   4.637
22659W        W94330  32.478  34.146   2.171
22660W        W94331  37.013  17.998   4.221
22661W        W94332  39.898  25.491  10.655
22662W        W94333   9.911  34.353   0.712
22663W        W94334  21.244  28.784  14.814
22664W        W94335  23.715  40.873  13.981
22665W        W94336  31.619  42.324   4.554
22666W        W94337   9.312   7.352   4.189
22667W        W94338  24.617  39.010   4.533
22668W        W94339  13.397   0.968   3.151
22669W        W94340   0.341  32.492   4.740
22670W        W94341  18.018  22.272  12.947
22671W        W94342   2.380   6.016   2.403
22672W        W94343  10.089  38.241   0.451
22673W        W94344   0.021  31.660  13.489
22674W        W94345  13.796  13.712  10.639
22675W        W94346  40.985  28.003  14.415
22676W        W94347  41.380  19.287  11.639
22677W        W94348  17.516  35.773  12.840
22678W        W94349  11.807   9.351  14.015
22679W        W94350  23.875  24.098  10.721
22680W        W94351   8.859  36.459  14.693
22681W        W94352  14.646  43.062  14.890
22682W        W94353  13.142   7.426   4.216
22683W        W94354  32.858  15.251  12.925
22684W        W94355  36.961  37.595   3.377
22685W        W94356  39.622  15.775  12.959
22686W        W94357  39.026  27.450   1.309
22687W        W94358  25.504  18.692   4.421
22688W        W94359  15.154  17.156   1.350
22689W        W94360   2.581  23.435  12.914
22690W        W94361   4.674  15.018   3.647
22691W        W94362   0.443  32.198  12.463
22692W        W94363  27.810   4.512  12.865
22693W        W94364  33.344  22.209   4.116
22694W        W94365  12.394  17.717  12.132
22695W        W94366  38.354   8.049   4.792
22696W        W94367   7.770  36.967   0.964
22697W        W94368   0.211  21.849  11.011
22698W        W94369  17.900  18.527   2.363
22699W        W94370  38.050  32.925  10.606
22700W        W94371  41.889  18.990   4.571
22701W        W94372  42.136  17.372  13.672
22702W        W94373  29.260  22.987  13.080
22703W        W94374  25.335  17.001   5.099
22704W        W94375  32.599  29.488  14.837
22705W        W94376   1.381  38.933  13.892
22706W        W94377  11.180   4.994  14.777
22707W        W94378  20.060  44.098   2.226
22708W        W94379   3.915  19.220   3.415
22709W        W94380  39.803  19.007   0.017
22710W        W94381  29.078  19.642   5.036
22711W        W94382  44.333   6.372  14.799
22712W        W94383  13.669  33.994   1.781
22713W        W94384   9.229  32.824  10.614
22714W        W94385   4.390  12.829  11.256
22715W        W94386   0.390   3.023   4.885
22716W        W94387  33.877  22.664  12.891
22717W        W94388  39.928  43.241   2.824
22718W        W94389  30.505  33.964  12.070
22719W        W94390  12.262  25.143   4.757
22720W        W94391  29.454  43.215  14.209
22721W        W94392  15.934  36.093   3.205
22722W        W94393   0.453   5.804   4.248
22723W        W94394   6.714  24.606   3.126
22724W        W94395   2.410  12.799  11.558
22725W        W94396  21.036  20.851  13.911
22726W        W94397  43.369  42.656   2.137
22727W        W94398   7.398  30.141  10.758
22728W        W94399  37.716   8.193  13.671
22729W        W94400  24.656  24.596   1.244
22730W        W94401  43.507  26.636  11.538
22731W        W94402  17.541  42.943   2.702
22732W        W94403  30.917   0.523  13.827
22733W        W94404  31.612  33.682  11.534
22734W        W94405  15.749  41.949  11.567
22735W        W94406   4.452  41.499   1.834
22736W        W94407  34.381  18.340  14.227
22737W        W94408   8.911   8.581  14.941
22738W        W94409  13.297  38.142  10.723
22739W        W94410  24.169   1.629   3.630
22740W        W94411  32.189  36.094   4.116
22741W        W94412  39.495  11.745  10.308
22742W        W94413  20.595  25.970  10.776
22743W        W94414   2.425   5.796  12.824
22744W        W94415  33.148  40.798   1.924
22745W        W94416  37.919  27.039  11.630
22746W        W94417  33.708  42.244  13.912
22747W        W94418  22.703  38.827   5.171
22748W        W94419  21.988  19.672   0.203
22749W        W94420   1.969  30.041  13.330
22750W        W94421  43.434  33.971  13.531
22751W        W94422  11.830  35.646  13.568
22752W        W94423  18.948  15.132   3.418
22753W        W94424  37.135   5.696   1.312
22754W        W94425  38.002   0.554   2.819
22755W        W94426  43.079   0.407   4.215
22756W        W94427   4.413  10.091  12.905
22757W        W94428  28.699   3.268   3.119
22758W        W94429   3.345   7.919   4.219
22759W        W94430  35.446  33.177  12.484
22760W        W94431  13.901  23.818  13.449
22761W        W94432   0.329  25.016  13.528
22762W        W94433  24.963  36.526  12.513
22763W        W94434  11.115  40.485  13.938
22764W        W94435  31.369  27.680   3.797
22765W        W94436   6.627  18.163   4.131
22766W        W94437   0.031   1.966   0.000
22767W        W94438  37.111  35.658   2.290
22768W        W94439  13.612   9.632   0.309
22769W        W94440  41.575  18.428  10.722
22770W        W94441  32.926   3.144  11.169
22771W        W94442  29.065  14.236  14.297
22772W        W94443  39.883  11.641  13.419
22773W        W94444   9.334  13.659  11.116
22774W        W94445  13.825   8.070   3.150
22775W        W94446  29.354  21.246  14.472
22776W        W94447  10.476   5.110  13.667
22777W        W94448  18.903  42.100   1.815
22778W        W94449  22.061  23.962   1.871
22779W        W94450  16.832  37.726   1.651
22780W        W94451   3.410  31.648   4.195
22781W        W94452  16.363  15.420  11.548
22782W        W94453  17.271   6.445  11.932
22783W        W94454  28.248  44.792   4.152
22784W        W94455  38.798   8.339  13.837
22785W        W94456  38.397   1.472  14.379
22786W        W94457  42.110  11.649  10.807
22787W        W94458  38.298  25.511   1.298
22788W        W94459  23.711   6.854   3.418
22789W        W94460  20.136  11.675  11.222
22790W        W94461  42.772  40.296  13.454
22791W        W94462  11.723  24.840  11.949
22792W        W94463  28.404   8.735  13.461
22793W        W94464   3.973  28.526   3.201
22794W        W94465  30.941  44.478  13.954
22795W        W94466  35.994  27.075   4.578
22796W        W94467  24.510  23.307  13.788
22797W        W94468   9.702  37.588   4.387
22798W        W94469  36.115  29.432   0.876
22799W        W94470  41.618   4.690  14.899
22800W        W94471  15.253  43.767   3.244
22801W        W94472   3.932  30.024   4.712
22802W        W94473  11.920  21.531   4.833
22803W        W94474  11.240  16.856   2.384
22804W        W94475  41.461  30.842  11.197
22805W        W94476  34.662  21.844  12.515
22806W        W94477  33.033  16.678  14.272
22807W        W94478   1.268  41.035   4.660
22808W        W94479   0.865  40.894   1.168
22809W        W94480  25.760  15.060   3.070
22810W        W94481  34.810  41.753   0.409
22811W        W94482   0.049  23.555  12.479
22812W        W94483  28.083   5.315   4.794
22813W        W94484  16.318  19.173  13.436
22814W        W94485  14.855  32.922  12.245
22815W        W94486  37.863   9.567  14.364
22816W        W94487  34.027  25.217  13.400
22817W        W94488  30.513  13.833  13.801
22818W        W94489  36.919  23.104  13.452
22819W        W94490  10.150  13.664   2.563
22820W        W94491  31.974  37.389   2.652
22821W        W94492  17.402   9.765   4.129
22822W        W94493   9.671  25.001  11.460
22823W        W94494   7.394  20.633  11.143
22824W        W94495  16.219  13.304   5.024
22825W        W94496   5.963  31.119   3.664
22826W        W94497   4.225  29.955  14.060
22827W        W94498   4.008  16.139   1.741
22828W        W94499  41.137  10.925  12.552
22829W        W94500  17.021  42.969   2.722
22830W        W94501   0.443  32.132  14.956
22831W        W94502  35.772  41.460   0.306
22832W        W94503  37.010  21.173  12.248
22833W        W94504  13.048  25.669   3.012
22834W        W94505   5.323   3.584   2.003
22835W        W94506  28.961  16.811  13.511
22836W        W94507  10.812  23.622  13.457
22837W        W94508  34.628  42.846  14.834
22838W        W94509  16.203   8.280   4.336
22839W        W94510  40.312  39.559   4.605
22840W        W94511  35.466  28.944   2.887
22841W        W94512  28.480  16.515  11.464
22842W        W94513  30.522  23.489   4.665
22843W        W94514  36.508   3.246   0.773
22844W        W94515   7.965  16.541  12.601
22845W        W94516  43.979   9.145   0.730
22846W        W94517  33.680  37.279   4.543
22847W        W94518  26.565  31.308   0.330
22848W        W94519  38.800  35.273   3.001
22849W        W94520  12.976  10.271   3.296
22850W        W94521  36.611  28.143  13.381
22851W        W94522   3.109  15.366   2.674
22852W        W94523  12.372   6.256  13.097
22853W        W94524  33.143  25.374  13.845
22854W        W94525  21.332   3.180   0.866
22855W        W94526   5.390  28.954  10.508
22856W        W94527  36.582   5.575  14.243
22857W        W94528  35.064  13.511  13.763
22858W        W94529  44.494  43.408  13.942
22859W        W94530  44.934  24.378  13.987
22860W        W94531  35.934   7.910   0.271
22861W        W94532  24.073  17.213   4.206
22862W        W94533   8.389  23.850  14.563
22863W        W94534  10.621  25.951  13.371
22864W        W94535  14.264  28.961   4.188
22865W        W94536  16.161  19.519   0.727
22866W        W94537  15.239  23.988  12.962
22867W        W94538   8.636   7.598   3.665
22868W        W94539  29.166  12.667  11.379
22869W        W94540  22.143  31.974   1.048
22870W        W94541  20.803  17.746   5.090
22871W        W94542  40.881   0.601   0.416
22872W        W94543   3.797  23.159   4.060
22873W        W94544  35.041   5.548  13.433
22874W        W94545  10.588  30.325  10.542
22875W        W94546   2.941   1.671  14.878
22876W        W94547  34.887   3.889  10.504
22877W        W94548   5.230   9.390   2.267
22878W        W94549  12.448  20.114  11.987
22879W        W94550  42.532  26.933  14.796
22880W        W94551   9.284  44.348   2.886
22881W        W94552  10.271   3.923   3.154
22882W        W94553   2.899   2.787  11.932
22883W        W94554  15.579  30.406   3.749
22884W        W94555   6.243  42.232   1.833
22885W        W94556   7.744   3.243  14.386
22886W        W94557  29.684  15.519   4.475
22887W        W94558  30.557  18.462   2.265
22888W        W94559  34.585   6.414  10.726
22889W        W94560  31.449  36.880  10.651
22890W        W94561  22.765  32.995  14.680
22891W        W94562  37.303  26.025   0.985
22892W        W94563  31.983  16.324  11.030
22893W        W94564  24.604  14.038   4.662
22894W        W94565  35.820   3.354   4.575
22895W        W94566  22.189   4.825   0.214
22896W        W94567  23.616  38.780   0.791
22897W        W94568  32.803  26.629  12.479
22898W        W94569  31.612   3.422  13.355
22899W        W94570  14.216  43.297  12.007
22900W        W94571  21.073  38.496  13.896
22901W        W94572  36.445   9.612   2.351
22902W        W94573   0.262  13.276   0.073
22903W        W94574   0.750  24.896  11.009
22904W        W94575  13.864  23.690  12.584
22905W        W94576  22.253  27.728   3.672
22906W        W94577   0.724  35.997  14.263
22907W        W94578  17.806  22.512   3.157
22908W        W94579  21.748   5.466  11.663
22909W        W94580  32.142  24.432  13.370
22910W        W94581  21.483   5.251   2.436
22911W        W94582  13.658  10.360  14.276
22912W        W94583  33.432  12.539   3.362
22913W        W94584   6.666  23.906  14.517
22914W        W94585  18.135  37.633  13.344
22915W        W94586  20.584  44.186   2.266
22916W        W94587   6.237  33.102   1.028
22917W        W94588   1.865   5.683   0.789
22918W        W94589  42.450  26.928  12.919
22919W        W94590   9.822  11.850   1.290
22920W        W94591  38.665   7.859   4.351
22921W        W94592   3.879  26.450  12.881
22922W        W94593  17.155  37.078  12.803
22923W        W94594  28.410   1.541   3.379
22924W        W94595  21.761   3.521   1.003
22925W        W94596  34.178  27.544   0.885
22926W        W94597  33.320   9.172   4.607
22927W        W94598  20.579  32.612  10.616
22928W        W94599   3.451  21.072   0.482
22929W        W94600  30.154  40.852   0.208
22930W        W94601  44.233  24.997  12.977
22931W        W94602  32.376  19.253   4.829
22932W        W94603  42.043  33.526   4.187
22933W        W94604  17.760  11.123   4.930
22934W        W94605  13.338   6.065  13.622
22935W        W94606  19.237  16.346  13.959
22936W        W94607  42.050  29.086   4.304
22937W        W94608  12.251  26.002   1.763
22938W        W94609   2.744  13.126   0.568
22939W        W94610  43.004  38.912  12.651
22940W        W94611   6.654  23.437  12.603
22941W        W94612   3.407  12.963  11.555
22942W        W94613   7.602  31.092  12.287
22943W        W94614  12.694  19.896  12.615
22944W        W94615  39.267   0.389   0.473
22945W        W94616  42.642  20.758   3.866
22946W        W94617  11.600   9.255  11.446
22947W        W94618  33.022  33.008  13.774
22948W        W94619  35.715  15.626  11.468
22949W        W94620  26.069  29.533   4.740
22950W        W94621  44.610  33.176  11.683
22951W        W94622   6.910  27.655   2.979
22952W        W94623   6.645  42.054  13.547
22953W        W94624  32.139  29.882   3.665
22954W        W94625  44.917  31.550   2.705
22955W        W94626   8.704  15.721   1.155
22956W        W94627  36.012  39.972  13.107
22957W        W94628  13.188  20.940  14.186
22958W        W94629  35.307  44.312   0.147
22959W        W94630  27.014  23.090  14.833
22960W        W94631  30.867  35.453  10.613
22961W        W94632  11.485  20.722  14.077
22962W        W94633  18.030  11.675  11.427
22963W        W94634   1.890  25.958  10.424
22964W        W94635  13.611  17.084   3.676
22965W        W94636   8.104  33.489   4.154
22966W        W94637  11.800  15.815   0.843
22967W        W94638   4.992  36.008   3.634
22968W        W94639   1.983  44.220   3.834
22969W        W94640  27.592  43.223  14.450
22970W        W94641  28.632  10.636  12.033
22971W        W94642  34.730   1.319  11.668
22972W        W94643  34.096  28.219  11.056
22973W        W94644   8.378  14.830  11.107
22974W        W94645  23.196  15.793  13.696
22975W        W94646  37.543   2.786   1.498
22976W        W94647   9.770  36.911  10.614
22977W        W94648   1.306  28.367  13.688
22978W        W94649  23.130  40.757   1.757
22979W        W94650  27.050  34.453   3.084
22980W        W94651  39.141  40.945  12.985
22981W        W94652  26.495  29.442   5.059
22982W        W94653   6.918  35.319  12.014
22983W        W94654  43.360  32.523   0.647
22984W        W94655  41.394  11.332   1.505
22985W        W94656  27.470  25.618  14.228
22986W        W94657   7.182  13.675  11.950
22987W        W94658  41.610  28.450  13.445
22988W        W94659  30.138   9.775  12.805
22989W        W94660   2.101  24.762  14.425
22990W        W94661  25.823  23.049  11.975
22991W        W94662   4.447  23.697  14.290
22992W        W94663  27.994  40.412   2.886
22993W        W94664   1.368  19.562  12.609
22994W        W94665  21.031  29.450   3.226
22995W        W94666  24.684  32.755  12.433
22996W        W94667  10.151  11.517   0.083
22997W        W94668  32.665  12.139   0.456
22998W        W94669  14.735  10.862  12.203
22999W        W94670  27.740  23.889   2.773
23000W        W94671  27.032  25.479   4.603
23001W        W94672  36.587  21.140  11.161
23002W        W94673  25.065   2.346  10.746
23003W        W94674   9.963   1.307   4.208
23004W        W94675   7.680  37.135   4.105
23005W        W94676   2.135  14.679   0.839
23006W        W94677   5.180  16.825   0.102
23007W        W94678  24.007  28.665   2.698
23008W        W94679  37.146  17.786   0.919
23009W        W94680  27.683  16.332  12.559
23010W        W94681  44.723  34.016  11.115
23011W        W94682  25.329  23.607   1.307
23012W        W94683  29.914  26.659   3.123
23013W        W94684  27.119  10.254  14.565
23014W        W94685  26.997  40.085   4.745
23015W        W94686   7.618  27.800  13.911
23016W        W94687  32.288  27.419  12.019
23017W        W94688  31.212  34.836  11.670
23018W        W94689  39.479   0.444   3.067
23019W        W94690  40.933  36.009  11.709
23020W        W94691   6.905  28.478   4.855
23021W        W94692  20.571  33.010  12.918
23022W        W94693  18.286   0.729  13.412
23023W        W94694  21.544  39.761  12.813
23024W        W94695  32.371  15.660  12.518
23025W        W94696  31.399  42.385  11.194
23026W        W94697  31.194   5.574   4.098
23027W        W94698  28.917  17.604  14.404
23028W        W94699  37.315  11.791   2.720
23029W        W94700  24.016  26.966  12.655
23030W        W94701  36.346   2.459  14.267
23031W        W94702  22.952  25.458  11.506
23032W        W94703   1.028  17.719   4.610
23033W        W94704  14.778  23.743  13.600
23034W        W94705  24.539  23.663  12.196
23035W        W94706  40.574  36.909   0.565
23036W        W94707  43.263   8.568   0.690
23037W        W94708  44.041  41.243   0.291
23038W        W94709   0.923  31.956  11.227
23039W        W94710  15.096   2.586   0.464
23040W        W94711  23.267  41.478   2.693
23041W        W94712  17.541  43.836   1.920
23042W        W94713  27.548   3.261  12.532
23043W        W94714  43.388  33.324  14.350
23044W        W94715   9.286  30.438   2.877
23045W        W94716  44.080  17.601   4.208
23046W        W94717  24.837  17.242  13.990
23047W        W94718   3.409   4.046  11.674
23048W        W94719  35.337  32.851   3.019
23049W        W94720   0.595  34.483   2.218
23050W        W94721   0.895  30.195  13.030
23051W        W94722  10.775   8.816   0.704
23052W        W94723  34.396  17.139   2.753
23053W        W94724  39.784  34.625   3.192
23054W        W94725  38.253  36.800   1.222
23055W        W94726  43.385   4.993   1.750
23056W        W94727  29.849  14.342  12.168
23057W        W94728  37.137  38.784   2.214
23058W        W94729  15.887   7.662  12.131
23059W        W94730  35.905  40.617   1.926
23060W        W94731   3.402  12.324  13.555
23061W        W94732  32.507  13.256  11.890
23062W        W94733  25.594  26.702   1.238
23063W        W94734  29.395  42.411   0.043
23064W        W94735   3.379  12.052   1.872
23065W        W94736  26.229  10.178   0.956
23066W        W94737  40.345  31.188   2.307
23067W        W94738   3.286  23.730  12.579
23068W        W94739  43.070  25.533   3.787
23069W        W94740   9.733  17.352  12.171
23070W        W94741  20.248  34.908  10.528
23071W        W94742  42.152  40.229  10.695
23072W        W94743  13.170   5.367   2.467
23073W        W94744  27.646  38.344   3.143
23074W        W94745   6.250   3.615  14.496
23075W        W94746  25.927  25.480  10.561
23076W        W94747   7.125  22.770   3.398
23077W        W94748  43.795  17.708   0.205
23078W        W94749  27.061  29.507   1.268
23079W        W94750   6.237  22.023  14.311
23080W        W94751   7.167  27.988   1.322
23081W        W94752   6.066   0.370   2.652
23082W        W94753   6.631  20.532   1.624
23083W        W94754  36.364  43.529   1.016
23084W        W94755  12.558  23.985   2.004
23085W        W94756  17.970  40.819   0.260
23086W        W94757  31.345  37.952   2.325
23087W        W94758  26.514  12.226   3.185
23088W        W94759  29.632  11.215   4.049
23089W        W94760  40.150  39.133   1.383
23090W        W94761  22.245  12.932  11.599
23091W        W94762  19.658  18.976   1.269
23092W        W94763   3.976  44.813  14.527
23093W        W94764  40.887  21.551   1.002
23094W        W94765  18.348  30.069  12.569
23095W        W94766   6.446  16.037  13.815
23096W        W94767  37.761   9.455   0.356
23097W        W94768  24.289  28.166  12.516
23098W        W94769  19.570  27.971  10.466
23099W        W94770   4.026   8.762  12.989
23100W        W94771  23.898  17.360  13.634
23101W        W94772  21.676  18.841  11.709
23102W        W94773  30.015   1.821   0.988
23103W        W94774  38.596  41.518  13.419
23104W        W94775  19.950  36.159  11.655
23105W        W94776  26.032  35.411  10.754
23106W        W94777  16.159  38.096   2.345
23107W        W94778  17.588   2.545   1.174
23108W        W94779  18.667  44.269  14.571
23109W        W94780  15.818  17.887  14.117
23110W        W94781  36.491   6.297  13.222
23111W        W94782  22.714  36.404   2.364
23112W        W94783  13.590  41.482  14.059
23113W        W94784  19.664  37.109   3.752
23114W        W94785  10.247  11.532   1.452
23115W        W94786  23.567   9.283   2.222
23116W        W94787  18.771  34.432  13.571
23117W        W94788   1.426   2.842   4.070
23118W        W94789  20.550  10.320   2.196
23119W        W94790  22.043  19.727   2.746
23120W        W94791  40.600   5.168  11.644
23121W        W94792  39.186  31.889   1.992
23122W        W94793  28.402   7.385   4.132
23123W        W94794  39.471  15.190  10.720
23124W        W94795  17.128  33.377   2.006
23125W        W94796  35.373   3.007  10.587
23126W        W94797  39.308  34.797  14.416
23127W        W94798   6.715  29.039  12.342
23128W        W94799  39.451  27.700   3.677
23129W        W94800  42.288   1.477   2.263
23130W        W94801  25.123   1.444   4.418
23131W        W94802  15.647  18.186  14.881
23132W        W94803  12.768   6.272  11.445
23133W        W94804  18.920  27.525  11.890
23134W        W94805   2.977   9.348   4.197
23135W        W94806  20.196  42.117   0.671
23136W        W94807  27.426  43.852  12.911
23137W        W94808  40.356  16.277   0.761
23138W        W94809   4.883  10.349  10.840
23139W        W94810  30.501  37.073   2.324
23140W        W94811   0.949  30.471   3.287
23141W        W94812  31.981  18.060  13.894
23142W        W94813   6.562  20.360   3.134
23143W        W94814  35.432  16.870   0.281
23144W        W94815   2.684   4.371   1.430
23145W        W94816   5.298  13.561  13.983
23146W        W94817  22.072  41.370   3.937
23147W        W94818  38.945  37.921  13.683
23148W        W94819  14.184   6.881  10.461
23149W        W94820  27.393  32.388  13.437
23150W        W94821   5.343  42.689   2.652
23151W        W94822  19.464  30.070  14.105
23152W        W94823   3.695  13.281   4.151
23153W        W94824  37.442   3.208  11.383
23154W        W94825  21.486  39.543  14.304
23155W        W94826  33.528  17.665  13.521
23156W        W94827   2.609  21.688  14.579
23157W        W94828  33.250  15.470   1.558
23158W        W94829   2.354   4.301   2.248
23159W        W94830   1.204   1.679   0.801
23160W        W94831  42.504  42.289  13.130
23161W        W94832  25.362   8.493  11.624
23162W        W94833  22.805  19.696  11.042
23163W        W94834   5.211  42.999  12.837
23164W        W94835  28.592  28.985  11.188
23165W        W94836   4.537  36.298   0.523
23166W        W94837  31.016  28.998  14.290
23167W        W94838  35.568  37.290  10.672
23168W        W94839  25.270   5.800  12.482
23169W        W94840  39.899  25.695   3.882
23170W        W94841  22.595  23.263   2.115
23171W        W94842  29.665  27.623  12.928
23172W        W94843  20.311  32.314   0.272
23173W        W94844  14.089  11.778  10.699
23174W        W94845  33.081  15.098  13.388
23175W        W94846  35.810  30.119   4.149
23176W        W94847  28.484  32.000   3.994
23177W        W94848  14.480  33.367  14.303
23178W        W94849   6.784   7.814   0.210
23179W        W94850   6.127  20.215   3.387
23180W        W94851  21.482  23.694   3.185
23181W        W94852  41.818   6.312   2.432
23182W        W94853   4.286  43.493   3.738
23183W        W94854  35.609   3.838   1.851
23184W        W94855  35.836  11.784   4.197
23185W        W94856   8.406  34.428  10.739
23186W        W94857  32.578  13.037   3.716
23187W        W94858  38.486  23.210   3.074
23188W        W94859   5.661  36.390   0.214
23189W        W94860   1.783  22.699   1.033
23190W        W94861   2.928  28.436   2.021
23191W        W94862  32.332  40.343   1.211
23192W        W94863  25.234  11.898  12.999
23193W        W94864  31.617   5.281   3.522
23194W        W94865   2.801  29.037   4.593
23195W        W94866  31.635  23.715  11.385
23196W        W94867  30.373  42.932   4.582
23197W        W94868  41.433  34.369  12.511
23198W        W94869  13.132  31.758  11.462
23199W        W94870  20.776  22.188   0.554
23200W        W94871  22.352  44.397   0.367
23201W        W94872  36.248  34.179   0.790
23202W        W94873  17.035  29.050   0.779
23203W        W94874  12.201   7.871   4.593
23204W        W94875  37.284  37.651   2.774
23205W        W94876  20.050  30.104   3.657
23206W        W94877  40.166  32.599  11.901
23207W        W94878  31.691  11.294   3.731
23208W        W94879  11.670  31.987   1.837
23209W        W94880   2.550  26.119   4.025
23210W        W94881  33.992  37.518   4.156
23211W        W94882  13.789   0.320  11.238
23212W        W94883  24.906  41.964   3.845
23213W        W94884   8.102  39.567  13.088
23214W        W94885   0.804   0.248  10.282
23215W        W94886  44.439   7.171  12.026
23216W        W94887  41.855  11.485   1.227
23217W        W94888  41.486  14.819   0.154
23218W        W94889  36.796  21.236   1.231
23219W        W94890   0.995  40.597  13.877
23220W        W94891  23.743  18.061  11.047
23221W        W94892  37.021  22.067   9.889
23222W        W94893  23.462  27.203  12.414
23223W        W94894  22.658   3.723  13.826
23224W        W94895   4.491  31.264  14.468
23225W        W94896  15.313   6.750  11.129
23226W        W94897   3.405  39.363  11.546
23227W        W94898  36.650  32.541   3.754
23228W        W94899  27.781  13.684  11.545
23229W        W94900  39.264  43.545  12.329
23230W        W94901  30.644  26.717   2.014
23231W        W94902  16.560  28.755   2.384
23232W        W94903  32.186  43.398  13.786
23233W        W94904  21.143   2.698  12.246
23234W        W94905  31.237  30.616   1.416
23235W        W94906   0.335   1.059  11.576
23236W        W94907  17.027  21.567  11.609
23237W        W94908   1.704  12.099  11.841
23238W        W94909  32.322  28.719   0.311
23239W        W94910  13.071  10.066  13.011
23240W        W94911  37.473   5.142   0.829
23241W        W94912  22.064  23.830  11.472
23242W        W94913  16.724  33.352  10.824
23243W        W94914  12.303   0.684  11.596
23244W        W94915  18.343  25.091  14.513
23245W        W94916  24.992  24.097  11.911
23246W        W94917  26.974   3.194  12.052
23247W        W94918  42.472  11.665   2.836
23248W        W94919  33.621  20.865  12.629
23249W        W94920  13.203  43.289   0.340
23250W        W94921  18.598  40.942  10.722
23251W        W94922  38.870  19.779   0.017
23252W        W94923  31.870  39.598  14.876
23253W        W94924  37.753   2.812  11.536
23254W        W94925  36.386  14.352  11.282
23255W        W94926  44.040  14.460   3.690
23256W        W94927  36.581   0.773   2.749
23257W        W94928  23.621  26.739  14.480
23258W        W94929  26.159  33.377  10.644
23259W        W94930   0.018  41.719   3.606
23260W        W94931  43.714  24.506  11.079
23261W        W94932  26.303  27.913  10.995
23262W        W94933  15.837  29.698  12.066
23263W        W94934  10.873  24.178   0.229
23264W        W94935  16.153  25.620  14.294
23265W        W94936  20.274  21.553  13.223
23266W        W94937  38.293   1.121  11.893
23267W        W94938  33.926  36.074  14.927
23268W        W94939  31.073  39.629  10.903
23269W        W94940   0.961  12.802  10.777
23270W        W94941  42.721  15.225  11.235
23271W        W94942  14.860  11.096   4.171
23272W        W94943   2.255  13.274  12.608
23273W        W94944  10.381  33.116   0.488
23274W        W94945  39.856  22.293  13.947
23275W        W94946  36.546  29.572   0.365
23276W        W94947  11.393  34.542   0.900
23277W        W94948  37.087  21.560  12.607
23278W        W94949  11.227  39.535  13.018
23279W        W94950  10.156   0.224  13.406
23280W        W94951  23.729   5.542  13.326
23281W        W94952  24.041  26.419  14.449
23282W        W94953  13.839   9.403   3.594
23283W        W94954  29.321  29.547   3.720
23284W        W94955  24.128  12.118  13.807
23285W        W94956  12.873  25.351  13.803
23286W        W94957  34.589  13.205   3.871
23287W        W94958  28.618  26.655  11.586
23288W        W94959  32.386  38.135   3.724
23289W        W94960   1.512  12.678   0.249
23290W        W94961   5.303   3.867  11.093
23291W        W94962  13.227  22.444   0.931
23292W        W94963   8.099  26.471  10.669
23293W        W94964  31.152  14.670   4.701
23294W        W94965  38.989  37.528  14.625
23295W        W94966   4.440  40.095   1.759
23296W        W94967   7.233  27.281   2.225
23297W        W94968  11.545  21.446  11.154
23298W        W94969  15.664  20.504  10.779
23299W        W94970   2.723  25.191   2.754
23300W        W94971  12.187  20.905   1.777
23301W        W94972  19.446  12.217  13.985
23302W        W94973   9.749  43.020  12.094
23303W        W94974  44.248  40.786  12.444
23304W        W94975  23.997  40.384   1.256
23305W        W94976  43.220  27.709   4.134
23306W        W94977  38.124   1.329  13.867
23307W        W94978   9.792  33.427  13.673
23308W        W94979  42.407  25.118  12.118
23309W        W94980  21.538  38.012   5.452
23310W        W94981  17.795  16.888   0.339
23311W        W94982   5.122  24.072  14.322
23312W        W94983   4.459  36.538  13.463
23313W        W94984  42.920  42.445   3.467
23314W        W94985  14.628  33.403   3.699
23315W        W94986   3.234  19.628   4.671
23316W        W94987  42.937  12.143  14.990
23317W        W94988  11.690   6.946   0.881
23318W        W94989  35.053  39.136   5.002
23319W        W94990  20.258   9.627  13.246
23320W        W94991   5.673  41.925  13.555
23321W        W94992  42.721  16.709  12.487
23322W        W94993  14.326  11.902  12.489
23323W        W94994  23.011  31.835   2.722
23324W        W94995   6.947   0.879   1.502
23325W        W94996  32.097  41.613  12.689
23326W        W94997  12.406   2.302  14.999
23327W        W94998  23.940   0.689   4.340
23328W        W94999  31.654  29.910   3.480
23329W        W95000  21.994  11.651   1.914
23330W        W95001  12.075   2.718   3.251
23331W        W95002  44.380  14.292   1.883
23332W        W95003  32.681  31.102  11.821
23333W        W95004  43.978  36.404   1.303
23334W        W95005  17.615  13.384   2.677
23335W        W95006  39.477   6.913   3.632
23336W        W95007  17.149   3.709   1.506
23337W        W95008  23.993  37.487   3.673
23338W        W95009  37.943  44.422  14.924
23339W        W95010  43.768   3.367   3.667
23340W        W95011  21.421  36.429   3.620
23341W        W95012  41.919  34.724   0.901
23342W        W95013  36.357  16.139   4.401
23343W        W95014   7.859  41.994  12.970
23344W        W95015  16.583   4.886   0.671
23345W        W95016   4.993   6.367   3.270
23346W        W95017  35.642  20.617   2.269
23347W        W95018  25.208  16.246  14.073
23348W        W95019  30.617  20.664   2.173
23349W        W95020  39.102  33.785   0.869
23350W        W95021  19.640  20.184  14.089
23351W        W95022  34.164  30.788  13.769
23352W        W95023   0.740  38.127  11.995
23353W        W95024  29.003  41.211   0.961
23354W        W95025  40.385  19.537   3.387
23355W        W95026   4.471  13.312   4.369
23356W        W95027   4.754  34.084   2.009
23357W        W95028  34.243  12.803   1.891
23358W        W95029   8.833  22.188  11.758
23359W        W95030  32.900  37.997   3.184
23360W        W95031  12.462   4.915   2.852
23361W        W95032   7.177  16.491   3.878
23362W        W95033  26.175  36.921   2.164
23363W        W95034  22.675   9.751  11.865
23364W        W95035  39.039  29.584  14.756
23365W        W95036  21.493  17.604   0.382
23366W        W95037   4.039  35.279  14.353
23367W        W95038   3.290  18.070   0.901
23368W        W95039  12.128  25.485  10.828
23369W        W95040  28.190  34.373   1.874
23370W        W95041  29.567  34.706  13.510
23371W        W95042  22.132   2.647  14.492
23372W        W95043  11.121  39.407  10.680
23373W        W95044  38.017  31.861   3.305
23374W        W95045  11.231   2.994  13.485
23375W        W95046  14.681   3.640   3.130
23376W        W95047  43.299  30.577  11.442
23377W        W95048  16.449   5.808  10.303
23378W        W95049  18.347  26.614  12.345
23379W        W95050  19.462  32.619   1.496
23380W        W95051  31.000  26.156  14.486
23381W        W95052  36.338  32.985   1.979
23382W        W95053  13.827  14.727  11.192
23383W        W95054  26.432   1.828  11.488
23384W        W95055  31.419  36.971   4.239
23385W        W95056   9.399  29.519  12.030
23386W        W95057  40.298   0.044   4.558
23387W        W95058  12.251  12.116   0.767
23388W        W95059  18.292  27.240  12.956
23389W        W95060  41.951   7.128  12.369
23390W        W95061  23.560  13.332  14.523
23391W        W95062  32.842  32.192   3.527
23392W        W95063   1.329  35.861  10.679
23393W        W95064   0.292  35.328  14.380
23394W        W95065  21.658  24.421   3.639
23395W        W95066  18.116  27.984  10.863
23396W        W95067  20.472  28.317   0.750
23397W        W95068  38.964  18.068   2.719
23398W        W95069  10.296  10.108  12.529
23399W        W95070   9.435   3.334   4.614
23400W        W95071  43.518  20.029   3.213
23401W        W95072  39.027  21.594  10.403
23402W        W95073  36.893  37.888   1.542
23403W        W95074  44.739  13.143   5.024
23404W        W95075   6.224  22.718  12.940
23405W        W95076  32.386  22.457   1.953
23406W        W95077   2.804  33.649   1.234
23407W        W95078  28.858  16.855   1.347
23408W        W95079   0.400  19.786   4.666
23409W        W95080  15.102   4.863  14.302
23410W        W95081   0.144  16.812  12.592
23411W        W95082  41.363  16.356   0.873
23412W        W95083  41.277   5.461   3.372
23413W        W95084  38.894  18.908   2.346
23414W        W95085  35.551  12.612  12.494
23415W        W95086  14.537  41.349   2.394
23416W        W95087  29.179  12.512   0.386
23417W        W95088  38.605  35.888  14.035
23418W        W95089  41.039  41.819   2.651
23419W        W95090  33.931  43.292   0.118
23420W        W95091  10.169  43.221   0.829
23421W        W95092  32.079   5.191   3.773
23422W        W95093  14.006  27.868  13.037
23423W        W95094  19.854  13.681  13.079
23424W        W95095  15.580  43.531   2.882
23425W        W95096  13.422  35.926  14.513
23426W        W95097   3.206  14.882   2.825
23427W        W95098   1.221  28.039   1.440
23428W        W95099   1.359  11.132   4.152
23429W        W95100  38.382   5.636   4.601
23430W        W95101  29.936  26.582  12.107
23431W        W95102  26.235  26.753   1.743
23432W        W95103  39.480  10.231   3.434
23433W        W95104  26.582  29.876  11.535
23434W        W95105   5.377  24.415   0.825
23435W        W95106  24.773  42.588   0.370
23436W        W95107  44.367  21.259  10.982
23437W        W95108  27.219  32.117  11.518
23438W        W95109   3.931  20.833   1.304
23439W        W95110  14.887  21.113   2.975
23440W        W95111   3.198  13.002   2.176
23441W        W95112   3.140  11.096  12.962
23442W        W95113  21.480  25.010   2.215
23443W        W95114   3.507   2.079   0.473
23444W        W95115  39.009  42.439   2.227
23445W        W95116  28.664  28.453  14.497
23446W        W95117  35.590   9.185  11.707
23447W        W95118   0.664  37.320  13.924
23448W        W95119   1.961  17.553   3.262
23449W        W95120  35.300  31.322   4.082
23450W        W95121  18.584   9.833   2.331
23451W        W95122   0.449  37.515   1.411
23452W        W95123  28.501   2.295  14.961
23453W        W95124  30.974  23.210  10.428
23454W        W95125  19.006  16.044  10.869
23455W        W95126  28.499  28.440   1.845
23456W        W95127   2.888  41.490  14.255
23457W        W95128  14.639   1.385  12.166
23458W        W95129  17.180   8.484  13.303
23459W        W95130   9.337  15.100   4.807
23460W        W95131  42.768   4.335   1.515
23461W        W95132  44.872  39.652  10.644
23462W        W95133  30.380   6.653   0.508
23463W        W95134   8.879   3.695   1.688
23464W        W95135  30.886   5.646  14.457
23465W        W95136  23.576  27.385   2.545
23466W        W95137  40.239   0.383  14.009
23467W        W95138   8.263  14.051   1.213
23468W        W95139   7.243  19.498  14.100
23469W        W95140  27.437  27.030   4.361
23470W        W95141  18.013  22.457  11.052
23471W        W95142  27.967   6.285   1.718
23472W        W95143  17.098  23.426   1.908
23473W        W95144  25.962  40.978   0.056
23474W        W95145  35.983  14.762   5.030
23475W        W95146  20.185  35.417   0.219
23476W        W95147   0.782  16.292  12.458
23477W        W95148   3.077  15.598  10.015
23478W        W95149  18.574  20.424  12.345
23479W        W95150  24.337  22.992  13.414
23480W        W95151  22.953  11.597   1.767
23481W        W95152   4.142  30.001  12.935
23482W        W95153  11.915  21.784  11.379
23483W        W95154  14.244  12.528  14.292
23484W        W95155  15.011  31.287   1.205
23485W        W95156  28.131  12.175  11.923
23486W        W95157   8.933   2.719  13.574
23487W        W95158  34.000  40.566   4.111
23488W        W95159  36.723   0.806   3.307
23489W        W95160  31.542  22.961   4.362
23490W        W95161  43.924   5.579   0.902
23491W        W95162   5.260   8.974  11.669
23492W        W95163  40.583   1.013   2.211
23493W        W95164  42.817  30.259  10.610
23494W        W95165   3.942  13.086  13.548
23495W        W95166   5.785  39.515  14.309
23496W        W95167   3.313  33.156   4.172
23497W        W95168   7.876  22.974   4.732
23498W        W95169  26.526  40.076   4.543
23499W        W95170   0.080  42.507   4.217
23500W        W95171  27.985  30.462  11.393
23501W        W95172  10.153  27.206   4.293
23502W        W95173  21.488   2.416   1.970
23503W        W95174  34.927  34.191  11.136
23504W        W95175  18.123  39.283   4.640
23505W        W95176  38.516  40.518   3.134
23506W        W95177   3.881  40.429  14.289
23507W        W95178  32.645   6.142  13.746
23508W        W95179   1.839  30.327   4.657
23509W        W95180  39.948   0.422   4.299
23510W        W95181   7.697  15.527   4.565
23511W        W95182  36.127  44.996  12.871
23512W        W95183  41.732  36.542  10.573
23513W        W95184   6.220  23.271  12.884
23514W        W95185  33.867  41.702  14.536
23515W        W95186  14.861  22.078   1.470
23516W        W95187   4.362  17.486  10.381
23517W        W95188  16.270  28.139   3.687
23518W        W95189  33.754   5.400   3.621
23519W        W95190  28.087  11.785  13.591
23520W        W95191  24.447   9.789   4.513
23521W        W95192   2.348  41.097   1.022
23522W        W95193  24.696  13.578   0.351
23523W        W95194   5.236  24.103   1.306
23524W        W95195  16.190   5.835   3.872
23525W        W95196  24.266  32.402   2.911
23526W        W95197  43.529  11.812  10.389
23527W        W95198  35.302   4.784  11.996
23528W        W95199  20.211  43.191  14.557
23529W        W95200  29.506  30.653   0.989
23530W        W95201   7.906  36.431  13.511
23531W        W95202  42.074  42.909   5.081
23532W        W95203  30.696  25.279  10.472
23533W        W95204  19.039   2.346   1.125
23534W        W95205  25.017  37.849  14.571
23535W        W95206  43.390  41.941  11.952
23536W        W95207  23.528  11.634   4.400
23537W        W95208   6.225  13.993  10.118
23538W        W95209  36.435  24.731   3.372
23539W        W95210   6.375  15.478   1.832
23540W        W95211  40.284   1.800  14.337
23541W        W95212  30.363  14.742   1.764
23542W        W95213   7.392  40.791   3.497
23543W        W95214  41.510   1.550  14.446
23544W        W95215  39.435  16.027   2.356
23545W        W95216  41.544  44.520  14.879
23546W        W95217  44.064  34.211   0.959
23547W        W95218  34.581  40.415  12.266
23548W        W95219  42.295  26.071   2.794
23549W        W95220   1.460  17.369   3.248
23550W        W95221  11.134  23.428  11.944
23551W        W95222  44.965  10.773  14.508
23552W        W95223  11.264   1.519  14.335
23553W        W95224  22.766  15.392  12.486
23554W        W95225  44.817  41.829   1.273
23555W        W95226  43.760   9.880  11.780
23556W        W95227  16.992  36.905   4.894
23557W        W95228  15.856  31.571   3.737
23558W        W95229  15.991  41.041  12.111
23559W        W95230  31.171  43.257   4.594
23560W        W95231   6.470  40.581  13.616
23561W        W95232   7.643   8.473  11.251
23562W        W95233  10.444  35.834   4.092
23563W        W95234  27.109  41.026   1.701
23564W        W95235   1.220  38.315  14.869
23565W        W95236  24.514  27.344   1.936
23566W        W95237  11.384  26.518  11.109
23567W        W95238   6.683  10.623   1.663
23568W        W95239  32.414  29.971  13.948
23569W        W95240   5.095  35.491  11.216
23570W        W95241   5.665  27.213  13.924
23571W        W95242  44.548  36.971  10.557
23572W        W95243  23.386  26.716   3.325
23573W        W95244  36.345  26.253   3.502
23574W        W95245  33.987   1.664   4.348
23575W        W95246  33.033  30.495  10.604
23576W        W95247   3.966  38.960  14.667
23577W        W95248   6.436  28.205   2.294
23578W        W95249  10.283  18.709   4.515
23579W        W95250  44.563  42.558   4.349
23580W        W95251  37.557  11.086   3.326
23581W        W95252  24.231  10.303   0.404
23582W        W95253  28.924   8.716  13.314
23583W        W95254  43.554  13.553   1.380
23584W        W95255  33.247  29.055   4.574
23585W        W95256  10.665  23.541  10.737
23586W        W95257   7.271  42.280  14.495
23587W        W95258  40.760  13.964  13.732
23588W        W95259   4.830  37.369   4.649
23589W        W95260  22.386  26.436  10.067
23590W        W95261   3.765   4.835   0.971
23591W        W95262  14.302  28.707  14.893
23592W        W95263   6.132  34.024   2.380
23593W        W95264  12.746  14.839   2.646
23594W        W95265  24.524  22.650   4.337
23595W        W95266  17.964  17.323  13.821
23596W        W95267  21.687  27.023  10.983
23597W        W95268  42.951  10.588  11.079
23598W        W95269  11.897  44.612  12.719
23599W        W95270  12.831  35.806   3.752
23600W        W95271  34.374  19.281   2.957
23601W        W95272  39.296  31.357   2.204
23602W        W95273  15.559  22.563  14.425
23603W        W95274  40.606   5.832   2.290
23604W        W95275  27.592  39.924   1.466
23605W        W95276  39.015  21.582   0.433
23606W        W95277  11.381  40.830  11.134
23607W        W95278   3.456  20.721   4.617
23608W        W95279  23.935  14.231  13.051
23609W        W95280  11.065  19.728  12.013
23610W        W95281  43.787  30.074  14.358
23611W        W95282  17.214   4.110  10.424
23612W        W95283  35.811   1.951   4.358
23613W        W95284  16.941  43.934   3.706
23614W        W95285  43.658  24.021   3.762
23615W        W95286  43.827  31.018  13.952
23616W        W95287   6.849   5.736  12.844
23617W        W95288  34.470  19.338  11.425
23618W        W95289  17.835  27.607   2.293
23619W        W95290  31.508  12.402   3.649
23620W        W95291  26.048  15.060  12.509
23621W        W95292   0.865   4.863   4.543
23622W        W95293   6.179  37.570  11.517
23623W        W95294  38.584  42.853  13.936
23624W        W95295  18.705  14.140   9.931
23625W        W95296  31.705  21.102  12.012
23626W        W95297   7.410  18.686  10.715
23627W        W95298   7.238  39.255  13.358
23628W        W95299  28.489  20.562  11.844
23629W        W95300  18.613  23.244   3.239
23630W        W95301  34.969  34.692  11.325
23631W        W95302  41.016  31.358   0.249
23632W        W95303   0.680   9.229  14.812
23633W        W95304  14.420  38.397  14.998
23634W        W95305  25.583   5.225   1.303
23635W        W95306  10.589  26.532   4.657
23636W        W95307  35.851  16.264  14.906
23637W        W95308  15.116  24.255   4.791
23638W        W95309  37.608  41.337  13.262
23639W        W95310  23.591  44.349  13.936
23640W        W95311  18.519   5.189  12.575
23641W        W95312  16.611  26.092  13.117
23642W        W95313   9.598  32.642   1.339
23643W        W95314  29.905  31.363   1.736
23644W        W95315  43.328  36.949  13.295
23645W        W95316   9.624  25.692   4.166
23646W        W95317   5.211   1.216   0.182
23647W        W95318   5.805  30.987  13.749
23648W        W95319  10.301   3.968   1.903
23649W        W95320  44.963  17.345   0.759
23650W        W95321   5.800  19.141  10.696
23651W        W95322  37.000  21.572  13.107
23652W        W95323   2.357  34.018   0.671
23653W        W95324  10.429  38.054   3.185
23654W        W95325  25.583  13.132   3.415
23655W        W95326  25.675  22.630  13.469
23656W        W95327   1.352  36.300  13.559
23657W        W95328  29.106  31.855   1.220
23658W        W95329  37.736  36.944   5.183
23659W        W95330   0.635  15.305   3.819
23660W        W95331  22.109  10.269  10.732
23661W        W95332  19.968  39.422  11.561
23662W        W95333   6.742  18.663  14.733
23663W        W95334  44.845  19.722   5.393
23664W        W95335  19.752  16.765  12.795
23665W        W95336  37.482  37.357   1.871
23666W        W95337  16.204   0.468   0.393
23667W        W95338   0.418  12.645   2.603
23668W        W95339  23.478   5.756  12.932
23669W        W95340  24.544  35.856  12.045
23670W        W95341  23.141  34.801  13.907
23671W        W95342   6.917  41.928  11.619
23672W        W95343  17.190   4.850   3.674
23673W        W95344  18.025  39.865   2.786
23674W        W95345   4.273  16.606  13.422
23675W        W95346  20.150  39.534  10.602
23676W        W95347  15.126  20.353  10.702
23677W        W95348  40.514   3.764   3.694
23678W        W95349  26.697  12.748  12.910
23679W        W95350   8.871   3.900  11.930
23680W        W95351   3.250  31.506  11.520
23681W        W95352  39.883   6.944   1.266
23682W        W95353  24.653  36.001   1.253
23683W        W95354  12.603  18.744  12.117
23684W        W95355  21.489  42.062  12.471
23685W        W95356   3.493  20.034  11.956
23686W        W95357  42.823  22.723  10.218
23687W        W95358  11.263  37.951   3.720
23688W        W95359  15.508   7.536   0.817
23689W        W95360  26.658   2.306  13.763
23690W        W95361  14.866  20.116  13.014
23691W        W95362  35.594  11.307   2.273
23692W        W95363  12.722  31.577   3.190
23693W        W95364  26.561  40.521   2.283
23694W        W95365  34.532  17.778  12.115
23695W        W95366   6.892  44.455  14.957
23696W        W95367  11.284  34.395   1.832
23697W        W95368  16.600  22.495  13.055
23698W        W95369   3.830  44.459  11.526
23699W        W95370  29.957  20.721   4.775
23700W        W95371  23.828  28.715  10.251
23701W        W95372   9.961   2.896  14.363
23702W        W95373  20.232  11.880  14.427
23703W        W95374  21.903  24.008   4.927
23704W        W95375  35.407   8.342   4.491
23705W        W95376   2.427  33.035  13.315
23706W        W95377   7.471  41.086   0.446
23707W        W95378  22.662  42.533  11.642
23708W        W95379  41.768  43.516  14.926
23709W        W95380   5.164   3.928  11.605
23710W        W95381  17.512  25.588   2.554
23711W        W95382  30.177   8.133  13.531
23712W        W95383  35.576  30.888  14.554
23713W        W95384  10.094  19.463   2.262
23714W        W95385  34.137  39.291   1.279
23715W        W95386  41.895  31.255   0.088
23716W        W95387   9.664   1.960  10.740
23717W        W95388  16.682  20.955   9.987
23718W        W95389  36.117  42.694  12.436
23719W        W95390  25.950  25.087   2.390
23720W        W95391  41.428   0.339  13.496
23721W        W95392   3.320  41.847  12.501
23722W        W95393   9.228  29.130   4.119
23723W        W95394  15.640  16.798  14.933
23724W        W95395  35.512  13.686   2.679
23725W        W95396  43.770  39.323   4.132
23726W        W95397   1.312  19.066  12.504
23727W        W95398  30.885   6.014  12.905
23728W        W95399  22.822  30.906  11.983
23729W        W95400  13.012  31.827  11.968
23730W        W95401   0.981  29.630   3.553
23731W        W95402  12.594  33.009   0.886
23732W        W95403  27.393   9.893  11.934
23733W        W95404  15.624  27.436   3.823
23734W        W95405  18.676  11.426  14.941
23735W        W95406  41.919  32.899   2.423
23736W        W95407  11.419  11.839   3.247
23737W        W95408  37.393  41.225  11.298
23738W        W95409  25.472  10.329  11.378
23739W        W95410  27.746  34.576   0.814
23740W        W95411  14.860  30.398   1.173
23741W        W95412  39.798  21.133   3.348
23742W        W95413   5.892   5.755  14.077
23743W        W95414  33.361  26.254   0.709
23744W        W95415  32.364  22.470  14.158
23745W        W95416  14.239  35.593   2.232
23746W        W95417  44.350  43.049   2.663
23747W        W95418  26.248  27.515   4.115
23748W        W95419  22.226  19.198   1.973
23749W        W95420  25.422  33.942  13.464
23750W        W95421  42.714  22.908   4.714
23751W        W95422  33.644   0.739  13.257
23752W        W95423  43.883  38.040   3.189
23753W        W95424   1.710  40.945  11.528
23754W        W95425  19.690   6.966   0.560
23755W        W95426  27.961  13.422   1.206
23756W        W95427   1.219   7.962  13.797
23757W        W95428  29.839  23.282   2.211
23758W        W95429  35.864  43.961   0.418
23759W        W95430  41.504   3.421  12.194
23760W        W95431  32.194  19.835  10.799
23761W        W95432  11.802  14.594  10.668
23762W        W95433  18.869  28.667  14.006
23763W        W95434   6.761  33.590  12.685
23764W        W95435  34.557  13.884  10.968
23765W        W95436  38.766  13.589  11.818
23766W        W95437  28.608  28.935  14.997
23767W        W95438  24.225  14.590   1.407
23768W        W95439   1.762  18.476  11.624
23769W        W95440   5.247  24.935  14.817
23770W        W95441  41.545   1.384   3.161
23771W        W95442  42.726  31.187  13.970
23772W        W95443  28.335  41.545  12.518
23773W        W95444  21.050  39.387   0.695
23774W        W95445  11.117  27.047   0.660
23775W        W95446  28.925  13.207  13.506
23776W        W95447   7.300  41.559   4.938
23777W        W95448  16.529   4.170  14.929
23778W        W95449  24.676  17.980   4.673
23779W        W95450  18.235  16.580  13.317
23780W        W95451   7.376   0.969  12.519
23781W        W95452  18.099  24.106  10.702
23782W        W95453  26.488  37.338   0.784
23783W        W95454  42.510  40.510  14.814
23784W        W95455  39.251  23.629   0.679
23785W        W95456  38.679  22.349   2.651
23786W        W95457  31.448  32.632  14.486
23787W        W95458  19.120  39.322   0.498
23788W        W95459  34.338   2.758  14.366
23789W        W95460  28.583  37.944  12.797
23790W        W95461   7.309  30.503  13.517
23791W        W95462  17.999  35.677  12.450
23792W        W95463  31.100  24.545  10.722
23793W        W95464  19.484   7.461   4.868
23794W        W95465  36.286  22.848   2.000
23795W        W95466  17.264  16.190   2.886
23796W        W95467  16.291  28.401  13.355
23797W        W95468   6.036   9.943   4.474
23798W        W95469  27.217  44.740   0.248
23799W        W95470  16.590  10.594   1.004
23800W        W95471  20.062   4.724  14.584
23801W        W95472  20.076  13.838  14.232
23802W        W95473  29.370  10.733   3.994
23803W        W95474  29.448  19.194   4.571
23804W        W95475  15.177  36.394   4.535
23805W        W95476  42.353   9.056   0.806
23806W        W95477  12.066  39.781  14.444
23807W        W95478  20.305  12.764  13.105
23808W        W95479   4.243  28.151  13.375
23809W        W95480  44.839  25.646  11.500
23810W        W95481   8.642  37.345  11.459
23811W        W95482  25.540  12.885  11.735
23812W        W95483  35.443  25.901  11.756
23813W        W95484  44.694  12.392  12.974
23814W        W95485   7.282  29.574  11.632
23815W        W95486  18.470  29.861  14.259
23816W        W95487   7.368  10.059   1.682
23817W        W95488  27.036  39.749   1.066
23818W        W95489  24.495   2.388   1.907
23819W        W95490   0.484   4.332   3.401
23820W        W95491  34.236  44.739  13.997
23821W        W95492   5.859   6.349  11.219
23822W        W95493  34.422  40.250   4.082
23823W        W95494  25.715  17.968  10.163
23824W        W95495  12.779  21.943  14.880
23825W        W95496  31.245  16.215  11.528
23826W        W95497   9.696  26.249  14.413
23827W        W95498   9.241  17.103  10.756
23828W        W95499  21.987  26.553  12.541
23829W        W95500  35.043  40.531   5.178
23830W        W95501  19.203  13.124   3.266
23831W        W95502  17.667   9.260  10.507
23832W        W95503  37.333  37.341  14.080
23833W        W95504  34.635  10.326   1.056
23834W        W95505  23.302  35.943  11.125
23835W        W95506  15.493  18.599   4.215
23836W        W95507  11.725  44.819  14.564
23837W        W95508   7.181   7.744  11.556
23838W        W95509  35.382  10.411  14.257
23839W        W95510  31.584   1.991   4.528
23840W        W95511  40.024  27.651  11.515
23841W        W95512   1.518  26.681  10.739
23842W        W95513   5.766  39.015   4.656
23843W        W95514  36.445  39.125  14.357
23844W        W95515  32.528  42.372   4.065
23845W        W95516   6.392   9.768   3.309
23846W        W95517  26.147   6.211   1.857
23847W        W95518  35.209  21.481   3.203
23848W        W95519  38.388  30.001  11.527
23849W        W95520  26.652   8.244   1.479
23850W        W95521   2.917  15.183  11.662
23851W        W95522   5.068  15.306   1.821
23852W        W95523   1.212  37.530  13.351
23853W        W95524   7.596  42.415   2.189
23854W        W95525  44.397  31.437   4.559
23855W        W95526  20.172   0.496   2.715
23856W        W95527  23.079  37.771   4.463
23857W        W95528   5.883  34.068   1.740
23858W        W95529  13.475  32.389   1.872
23859W        W95530   0.383  27.059   1.734
23860W        W95531  29.727  15.098  11.762
23861W        W95532   8.966  38.995   2.389
23862W        W95533  10.896   0.887   1.751
23863W        W95534  42.512  40.973  10.246
23864W        W95535   6.764  28.903  11.441
23865W        W95536  21.489  30.861   2.217
23866W        W95537   0.127   4.839   2.241
23867W        W95538  12.820  12.364  13.035
23868W        W95539   1.062  28.120  11.098
23869W        W95540  18.768   8.694  10.601
23870W        W95541   4.948  31.489   0.371
23871W        W95542   3.411  12.929   0.878
23872W        W95543  37.118  25.354  11.574
23873W        W95544  12.225  33.788  13.509
23874W        W95545  37.837   9.146  11.097
23875W        W95546   0.695  15.804  10.686
23876W        W95547  42.978  36.176   2.428
23877W        W95548   9.218  44.651  12.763
23878W        W95549  14.040   6.272   2.148
23879W        W95550   3.447  18.241  10.953
23880W        W95551  26.145  15.266  12.987
23881W        W95552  14.770   7.582  13.550
23882W        W95553  25.640  35.019   1.326
23883W        W95554  39.334  37.935   1.048
23884W        W95555  30.556  35.432   2.872
23885W        W95556  22.816   8.732  12.440
23886W        W95557  40.542   9.558   3.728
23887W        W95558  41.371  34.580   4.622
23888W        W95559  38.714  24.502  12.217
23889W        W95560  26.703  12.058  12.366
23890W        W95561   2.902   6.784   2.742
23891W        W95562   9.840  33.299   3.218
23892W        W95563  41.810  33.767   3.771
23893W        W95564   8.046  33.464   2.818
23894W        W95565  21.674  21.996  12.031
23895W        W95566   6.843  44.806  12.121
23896W        W95567  30.588  37.785  13.186
23897W        W95568  18.880  20.344  13.586
23898W        W95569   7.767   9.391  11.678
23899W        W95570  37.162  31.628  11.648
23900W        W95571  14.285   4.702   5.124
23901W        W95572  22.584  18.963   2.734
23902W        W95573   2.688  21.005  13.525
23903W        W95574  22.830  12.104  13.839
23904W        W95575  27.434  23.332   0.723
23905W        W95576  21.984  11.927  11.487
23906W        W95577  20.670  20.724  10.560
23907W        W95578  28.446  37.525  12.486
23908W        W95579  39.599  10.784   0.419
23909W        W95580  41.641   7.123   1.421
23910W        W95581  44.771   1.929  11.592
23911W        W95582  14.030  24.983  10.850
23912W        W95583  44.422  17.673   3.050
23913W        W95584  29.565  38.819   1.165
23914W        W95585  22.770  24.265  11.932
23915W        W95586  16.649  22.680   1.884
23916W        W95587   8.324  22.341  14.202
23917W        W95588  28.366  43.106   3.678
23918W        W95589  33.898   3.524   1.472
23919W        W95590  16.648  16.585   4.705
23920W        W95591  34.395  10.761   3.671
23921W        W95592  21.709  11.212  12.883
23922W        W95593  43.224  20.178   0.421
23923W        W95594  21.484  27.592   0.470
23924W        W95595  40.044   4.805  12.410
23925W        W95596   8.123  28.512  14.246
23926W        W95597  24.212   3.528   2.652
23927W        W95598  19.549  27.202  11.122
23928W        W95599  31.895  32.823  11.544
23929W        W95600  36.995   4.957  12.471
23930W        W95601   6.195  26.962   0.203
23931W        W95602   4.412  39.093   1.931
23932W        W95603  16.085  34.401   3.317
23933W        W95604  40.054  25.063  14.652
23934W        W95605  36.436  14.631  12.092
23935W        W95606  35.864   9.418   4.137
23936W        W95607  32.981  43.262  14.404
23937W        W95608   6.512  41.226  10.976
23938W        W95609  24.934   5.202  13.630
23939W        W95610  19.674  38.422   3.821
23940W        W95611  43.859  37.641  13.346
23941W        W95612  14.317   7.412   4.530
23942W        W95613  41.257  43.018   2.816
23943W        W95614  40.024  10.451   5.111
23944W        W95615   4.507  14.585   2.335
23945W        W95616  24.784  21.994  11.485
23946W        W95617  16.084  11.868   3.272
23947W        W95618   9.332   6.886   1.909
23948W        W95619  22.739  23.047   3.096
23949W        W95620  38.803  26.970  12.650
23950W        W95621  39.704  10.362  13.084
23951W        W95622   7.763  24.528   1.470
23952W        W95623  30.011  36.097  10.646
23953W        W95624  19.190  34.807  12.096
23954W        W95625   6.928   6.110  13.553
23955W        W95626  38.873   6.253   3.691
23956W        W95627  10.873  41.738  12.429
23957W        W95628  36.991  23.627  11.620
23958W        W95629  17.879  24.459   0.360
23959W        W95630   8.240  31.493  13.264
23960W        W95631  24.759  40.753  13.875
23961W        W95632  23.429  37.273  13.467
23962W        W95633   1.128  12.865  12.171
23963W        W95634  27.102   4.484  10.759
23964W        W95635  31.412  30.111  13.796
23965W        W95636   8.940  37.709   2.358
23966W        W95637   7.538  22.031   1.830
23967W        W95638  28.576  22.625  12.327
23968W        W95639   6.940   8.377   4.611
23969W        W95640  20.060  42.438   0.220
23970W        W95641  26.627  40.504   0.293
23971W        W95642  34.936  31.291   4.433
23972W        W95643  25.426  27.582  11.214
23973W        W95644   5.709   2.295  10.997
23974W        W95645  43.425  41.336  14.452
23975W        W95646   3.769  32.356  14.414
23976W        W95647  37.937  13.965   4.894
23977W        W95648  44.395  42.578   0.058
23978W        W95649  25.542  35.985  11.114
23979W        W95650  25.734  34.580   2.157
23980W        W95651  42.916   3.793   0.332
23981W        W95652  42.275  19.354   3.502
23982W        W95653  42.369  19.613   2.975
23983W        W95654  31.211  27.889  11.122
23984W        W95655  32.128  41.971  11.481
23985W        W95656  20.490  21.274  10.370
23986W        W95657  10.801  14.813  12.305
23987W        W95658  43.239  19.590   3.360
23988W        W95659  30.849  36.091   3.778
23989W        W95660  17.579   3.700   1.802
23990W        W95661  36.469  31.565  13.770
23991W        W95662  43.859  28.415  11.910
23992W        W95663  25.648   4.139  13.078
23993W        W95664  11.073  30.450   1.283
23994W        W95665  35.128  23.438  11.075
23995W        W95666  11.267  39.334  13.864
23996W        W95667  12.263  27.649   3.395
23997W        W95668  42.762  44.369   2.202
23998W        W95669  10.833  22.616   2.937
23999W        W95670   1.391  38.042  11.179
24000W        W95671  18.821  27.371   3.405
24001W        W95672  13.797  41.203  11.754
24002W        W95673  27.549  13.731   1.329
24003W        W95674  43.542  43.431   3.941
24004W        W95675   4.273  34.068  13.756
24005W        W95676  44.740  44.909   4.891
24006W        W95677   9.893   6.906   2.329
24007W        W95678   1.249  26.151  14.878
24008W        W95679  16.130  21.603  11.404
24009W        W95680  40.981  43.585   1.941
24010W        W95681  20.098  14.205   0.838
24011W        W95682  31.183   1.964  14.237
24012W        W95683  44.171  26.876   3.538
24013W        W95684  25.896   7.609   0.373
24014W        W95685  13.356   6.907   1.586
24015W        W95686  19.512   1.013  14.559
24016W        W95687   4.592  34.497  13.723
24017W        W95688   9.252  36.166  14.434
24018W        W95689  25.945  28.918  12.435
24019W        W95690  44.691  20.460  14.523
24020W        W95691  17.159  40.350  14.893
24021W        W95692  11.250  25.711  14.865
24022W        W95693  16.835   3.245  10.388
24023W        W95694  18.088  33.833   2.296
24024W        W95695  28.553   2.684  13.801
24025W        W95696  28.048  18.496   0.588
24026W        W95697  31.490  43.333   0.273
24027W        W95698  22.593  27.113   1.596
24028W        W95699  13.377  11.566   1.210
24029W        W95700  24.138  43.862  12.684
24030W        W95701   2.564  25.466   0.816
24031W        W95702   2.961  39.224   3.843
24032W        W95703   0.508   7.234   4.134
24033W        W95704  41.110  21.440   3.686
24034W        W95705  25.767  10.008   1.367
24035W        W95706  21.181  19.071  10.790
24036W        W95707  34.680  33.516  14.561
24037W        W95708  40.049  12.089  13.549
24038W        W95709  25.626  38.417   3.115
24039W        W95710  33.472  21.606  13.900
24040W        W95711   2.719  14.790   4.389
24041W        W95712  10.886   4.337  12.943
24042W        W95713   2.007  38.889   3.673
24043W        W95714   6.345  13.158  14.871
24044W        W95715  23.050  33.493  11.637
24045W        W95716  14.243  37.635  12.146
24046W        W95717  44.805   6.417   0.133
24047W        W95718   8.806   9.425   2.238
24048W        W95719  24.147  32.371  14.934
24049W        W95720  42.366  29.467  10.565
24050W        W95721  33.660  21.449   1.872
24051W        W95722  28.291   4.360   1.286
24052W        W95723  30.860   1.420   0.632
24053W        W95724   3.179   9.300   4.699
24054W        W95725  32.896  13.065  13.625
24055W        W95726   8.135  30.181   2.670
24056W        W95727  24.041  33.400   1.351
24057W        W95728  41.367  15.075  12.401
24058W        W95729  12.618  40.462   4.267
24059W        W95730  31.006  43.660   4.880
24060W        W95731   8.839  15.620  13.342
24061W        W95732  37.335   4.938   2.285
24062W        W95733   3.884   7.064  10.813
24063W        W95734  32.100  21.216  13.803
24064W        W95735   7.698  15.542  10.795
24065W        W95736  11.111  12.283  12.539
24066W        W95737  11.892  26.160   5.001
24067W        W95738  24.807  42.485   4.006
24068W        W95739   3.760  41.202   2.132
24069W        W95740   2.410  20.385   4.853
24070W        W95741  19.618   2.045  13.115
24071W        W95742  33.328  22.649  12.020
24072W        W95743  26.010  19.019  10.748
24073W        W95744  21.103  42.505   0.943
24074W        W95745  17.673  13.270   0.185
24075W        W95746  33.586  10.094   1.913
24076W        W95747  15.123  19.155   3.631
24077W        W95748  44.509  33.616  14.001
24078W        W95749  37.089   0.008   2.743
24079W        W95750   6.200  30.399  10.337
24080W        W95751  23.580   2.842   3.189
24081W        W95752  33.173   9.564   1.557
24082W        W95753  26.777   2.327   0.149
24083W        W95754  21.654   6.193   0.060
24084W        W95755  23.768  41.306   0.287
24085W        W95756   1.239  43.685   1.617
24086W        W95757  17.224   5.989   4.611
24087W        W95758   2.049  10.111   0.911
24088W        W95759  13.681  14.960  12.942
24089W        W95760  37.055  29.249   1.206
24090W        W95761  28.060  28.826  13.929
24091W        W95762  16.098  12.279  13.495
24092W        W95763  41.890  24.560  13.856
24093W        W95764  19.340  34.355   1.820
24094W        W95765  18.070   0.365  12.452
24095W        W95766  10.644   8.362   3.633
24096W        W95767  33.021  30.384  11.848
24097W        W95768  35.498  23.795  12.059
24098W        W95769  19.662  12.896  12.437
24099W        W95770  33.669  22.660   1.003
24100W        W95771   6.455  31.356   4.295
24101W        W95772  44.374  14.611   1.177
24102W        W95773  21.575  36.810  14.995
24103W        W95774  30.057  35.271  14.437
24104W        W95775  13.702  33.451  12.586
24105W        W95776  43.451   9.140  13.798
24106W        W95777  36.960  13.568   2.246
24107W        W95778  17.308  25.648  13.562
24108W        W95779  38.532  21.757  14.199
24109W        W95780   5.765  15.976   3.868
24110W        W95781  34.892  20.681  12.487
24111W        W95782  14.141   0.520  14.743
24112W        W95783  13.858   3.899   0.983
24113W        W95784  19.110  26.140   0.754
24114W        W95785  32.593  36.502   2.833
24115W        W95786  12.674  29.026   0.412
24116W        W95787  37.037  42.710   4.176
24117W        W95788  34.803  29.971  11.690
24118W        W95789  18.644   4.410  13.273
24119W        W95790  39.075  43.932   2.710
24120W        W95791   3.935  20.102   1.913
24121W        W95792   7.730  30.970  14.146
24122W        W95793   5.306  34.110  10.769
24123W        W95794  43.277  31.522  14.595
24124W        W95795   3.169  38.423   1.668
24125W        W95796   1.305   8.919   0.332
24126W        W95797  33.448  29.692   4.106
24127W        W95798  22.649   6.363  14.046
24128W        W95799  11.324  38.207   4.308
24129W        W95800  44.401  34.515  11.589
24130W        W95801  41.944  15.200   3.418
24131W        W95802  18.914  42.244   4.632
24132W        W95803  18.259  15.535   0.450
24133W        W95804  43.057  37.444   1.901
24134W        W95805  19.192  25.760  10.711
24135W        W95806  21.822  14.265   2.692
24136W        W95807  28.019  13.235  11.625
24137W        W95808  26.413  26.166   3.240
24138W        W95809  30.464  35.019  11.118
24139W        W95810  28.465  30.916  12.119
24140W        W95811   2.267  28.325   3.214
24141W        W95812  28.051  11.780  14.614
24142W        W95813  37.485   4.875  12.385
24143W        W95814  37.509  38.881   5.418
24144W        W95815  42.900  24.284  14.759
24145W        W95816   3.380  27.557  12.551
24146W        W95817  20.049  40.710   1.686
24147W        W95818  39.763  44.302  14.350
24148W        W95819  24.708  25.622   2.171
24149W        W95820  37.573   7.378  11.112
24150W        W95821  44.733   7.057  14.301
24151W        W95822  15.572  17.747  14.559
24152W        W95823  39.278  27.278  14.776
24153W        W95824  37.650  26.494   3.137
24154W        W95825   2.785  12.237  10.683
24155W        W95826  43.842  24.530  11.978
24156W        W95827  39.205  28.534  12.565
24157W        W95828  30.141  33.383   1.851
24158W        W95829  21.329  28.779  12.958
24159W        W95830  34.040  42.480   1.120
24160W        W95831  36.608  13.622  11.865
24161W        W95832   2.416  40.902   4.692
24162W        W95833  20.649   4.908   0.804
24163W        W95834  32.346  33.817  12.584
24164W        W95835  22.971  33.127   2.438
24165W        W95836   8.397  27.737  13.381
24166W        W95837  44.899   2.177  12.081
24167W        W95838  20.092  31.594   2.721
24168W        W95839  31.506  43.365  13.372
24169W        W95840  21.563  43.820   0.478
24170W        W95841  42.955   6.676  11.856
24171W        W95842  25.584  30.631  14.388
24172W        W95843  41.334   3.431  14.339
24173W        W95844   5.217  21.346  11.185
24174W        W95845  33.571   7.930  14.350
24175W        W95846  23.565  42.083   2.747
24176W        W95847  14.272  22.727   4.453
24177W        W95848   0.947  18.448  10.474
24178W        W95849  29.273  31.448  12.108
24179W        W95850  29.435  28.700   0.795
24180W        W95851  26.542  12.780   1.183
24181W        W95852   8.335  24.363   0.868
24182W        W95853  27.480  11.447  12.860
24183W        W95854  40.244  31.568  10.976
24184W        W95855   7.326  18.836   4.543
24185W        W95856  38.337  13.611  10.448
24186W        W95857  14.371  44.455  14.023
24187W        W95858  15.556  38.426   0.674
24188W        W95859  22.029   4.805  10.594
24189W        W95860  33.813  14.690  10.709
24190W        W95861   7.342  41.108  11.197
24191W        W95862  19.293  37.130  10.734
24192W        W95863  11.817  24.140   2.605
24193W        W95864   3.718  20.799  11.487
24194W        W95865  20.521  29.389   3.115
24195W        W95866  15.335  44.244   1.067
24196W        W95867  42.046  42.619  13.039
24197W        W95868  42.564  42.771  14.007
24198W        W95869  15.903   5.325  14.214
24199W        W95870  35.565  27.205   2.234
24200W        W95871  21.091  44.276  12.693
24201W        W95872  23.522  30.173   3.206
24202W        W95873  34.530  15.887   4.288
24203W        W95874  16.555   9.715   4.439
24204W        W95875  31.078  33.942  12.010
24205W        W95876  32.854  26.580   2.316
24206W        W95877  19.217  35.448  13.877
24207W        W95878  10.808  33.528  10.498
24208W        W95879  17.701  17.237   3.717
24209W        W95880   0.551   3.312  14.038
24210W        W95881   7.370  23.305   2.227
24211W        W95882  36.398  29.894   0.962
24212W        W95883  39.968  21.506  13.483
24213W        W95884  41.434  37.627  14.300
24214W        W95885  16.027  37.521  12.050
24215W        W95886  31.918  42.276  11.149
24216W        W95887   2.328   3.410  12.167
24217W        W95888  15.394  23.604   2.962
24218W        W95889  14.145  21.140  12.122
24219W        W95890  18.324  19.995   1.256
24220W        W95891  14.215  44.555   4.171
24221W        W95892   8.155   8.281   0.062
24222W        W95893   3.984   9.722  13.963
24223W        W95894  23.333  13.260  11.961
24224W        W95895  36.579   6.758   4.537
24225W        W95896  33.875  26.018  13.844
24226W        W95897  42.943  15.710   3.886
24227W        W95898  30.645  14.607   1.329
24228W        W95899  26.182  38.771   3.719
24229W        W95900   3.426  16.998   3.673
24230W        W95901  31.927  31.665  14.535
24231W        W95902  38.210  34.826  11.173
24232W        W95903  36.629  11.557   2.130
24233W        W95904   5.756  43.185   0.470
24234W        W95905  33.174  19.055  14.817
24235W        W95906  40.435  35.199   2.806
24236W        W95907  37.099  20.826  13.267
24237W        W95908  15.134  18.474   2.799
24238W        W95909   8.737  42.427   3.582
24239W        W95910  36.911   7.250   4.035
24240W        W95911  12.139  37.851   1.024
24241W        W95912  14.782   6.660  13.747
24242W        W95913  20.234   3.775   4.551
24243W        W95914  17.803  32.943  12.521
24244W        W95915  37.583  10.763   0.384
24245W        W95916  13.681   0.925   2.045
24246W        W95917  36.511  26.996  11.206
24247W        W95918  11.744  28.243   3.693
24248W        W95919  44.664  34.016   4.338
24249W        W95920  33.889  44.796   1.153
24250W        W95921  17.257  43.322  12.959
24251W        W95922  28.974  34.368   1.332
24252W        W95923  43.529  28.164   4.046
24253W        W95924  44.566  28.962  12.456
24254W        W95925  33.043  10.135   4.809
24255W        W95926  18.222  15.269   2.369
24256W        W95927  12.455  37.887   2.103
24257W        W95928  27.509  36.297   1.749
24258W        W95929   3.956   4.546  13.554
24259W        W95930  12.611  28.658  13.381
24260W        W95931  29.045  20.128  13.240
24261W        W95932  43.493  40.256  12.900
24262W        W95933  19.842   9.073   2.108
24263W        W95934   3.489   6.249  12.115
24264W        W95935   5.612  27.178  11.848
24265W        W95936   0.620  43.431   3.212
24266W        W95937   5.252  39.506  14.494
24267W        W95938  38.496  10.802  14.317
24268W        W95939  20.588   2.843  14.218
24269W        W95940  26.351   9.271   1.299
24270W        W95941  37.350  11.523  13.969
24271W        W95942  13.295  33.807   0.931
24272W        W95943  17.590  30.628  12.482
24273W        W95944  15.854  42.833  14.341
24274W        W95945   4.056  39.434  13.900
24275W        W95946  19.516   8.103   1.307
24276W        W95947   5.316   6.676  14.518
24277W        W95948  31.923  36.523  11.457
24278W        W95949  16.403  35.097   3.542
24279W        W95950  28.484  23.033  10.556
24280W        W95951  18.912  21.757   4.566
24281W        W95952  44.683   0.770   1.444
24282W        W95953  31.385   5.164  12.009
24283W        W95954   6.365  42.448   2.657
24284W        W95955  21.684  37.356  12.541
24285W        W95956  22.574   3.894  14.776
24286W        W95957  32.380   0.722  13.037
24287W        W95958  26.666   3.693  10.527
24288W        W95959  35.790  30.563  11.989
24289W        W95960  38.284  28.160   0.628
24290W        W95961   2.194  20.126  12.942
24291W        W95962   7.294  38.026   3.265
24292W        W95963  27.054   7.459  13.914
24293W        W95964  42.285   8.099   4.121
24294W        W95965  37.054  10.119   5.016
24295W        W95966   4.888   8.630  10.343
24296W        W95967  15.688   1.598   0.858
24297W        W95968  20.311  23.560   1.249
24298W        W95969   1.372  27.237  11.446
24299W        W95970  10.847  25.413   1.366
24300W        W95971  24.088  36.866  11.561
24301W        W95972   7.460  16.112  13.876
24302W        W95973  10.353   8.741  14.767
24303W        W95974  19.062  10.293  13.611
24304W        W95975   6.882  11.301   2.404
24305W        W95976  22.503  31.520   0.296
24306W        W95977   4.740  26.598  10.289
24307W        W95978   3.999  25.949  12.645
24308W        W95979  33.804  33.881   2.768
24309W        W95980  44.783  27.090  11.595
24310W        W95981  34.972  22.173  11.618
24311W        W95982  38.410  36.547  14.528
24312W        W95983  23.883  28.656   2.110
24313W        W95984   7.745   2.226   3.695
24314W        W95985  23.056  39.920  14.889
24315W        W95986  18.229  24.537  13.004
24316W        W95987   9.315  21.463  12.038
24317W        W95988  21.999  33.978  12.410
24318W        W95989  17.348  26.260  14.558
24319W        W95990  24.457  24.138   1.383
24320W        W95991  39.097  16.099   5.181
24321W        W95992  40.893  41.420  14.529
24322W        W95993  43.504   7.308  10.572
24323W        W95994  19.800   9.236  11.088
24324W        W95995   7.975   1.736   0.430
24325W        W95996  30.926   2.709  12.143
24326W        W95997  22.485   4.228   2.456
24327W        W95998  32.174  33.082   3.695
24328W        W95999  41.050  28.697   0.016
24329W        W96000  27.157  10.920   3.745
24330W        W96001  34.925   4.350   4.665
24331W        W96002   1.883   2.194   0.325
24332W        W96003  44.241   6.945  14.164
24333W        W96004  41.092  10.894   2.313
24334W        W96005  36.159   6.629  12.999
24335W        W96006  19.739  31.638  14.971
24336W        W96007  16.921  16.646  10.192
24337W        W96008   2.887  34.381  10.708
24338W        W96009  22.826  20.574   2.348
24339W        W96010  21.186  19.042   4.106
24340W        W96011  12.692  26.259  13.044
24341W        W96012   7.666   5.645   1.408
24342W        W96013   1.252   0.329   4.968
24343W        W96014   9.169  31.489   0.974
24344W        W96015  10.208  31.168   2.277
24345W        W96016  25.770  32.809   1.820
24346W        W96017   0.744  15.680   0.995
24347W        W96018   9.166  23.652  11.469
24348W        W96019  11.512   0.222  13.331
24349W        W96020  19.703  16.048   4.277
24350W        W96021  18.051   4.383  14.808
24351W        W96022  32.066  30.072   0.245
24352W        W96023  24.536  18.665  10.797
24353W        W96024  27.389  43.842   1.396
24354W        W96025  11.130  40.201   4.629
24355W        W96026  14.676  23.058   4.560
24356W        W96027   0.345  41.508  12.553
24357W        W96028   9.236  22.032  14.172
24358W        W96029  23.284  10.793   0.550
24359W        W96030  17.514   8.614   2.938
24360W        W96031  35.554  23.276  12.041
24361W        W96032  44.321  21.947  12.980
24362W        W96033  39.834  40.322  14.668
24363W        W96034  32.417  13.783   0.897
24364W        W96035   0.912   1.284  11.457
24365W        W96036  26.379  14.728  12.679
24366W        W96037  31.339  40.393   3.411
24367W        W96038  16.314  33.914   0.711
24368W        W96039  18.297  26.795  14.843
24369W        W96040  33.397  44.361   1.201
24370W        W96041  43.063  14.153   0.398
24371W        W96042  30.221  41.259  14.838
24372W        W96043   9.699  44.792  12.871
24373W        W96044  14.226  17.758  14.211
24374W        W96045  19.154   2.907   0.241
24375W        W96046   9.432  30.882   1.719
24376W        W96047  22.176   7.678  14.897
24377W        W96048   8.228   0.005  11.547
24378W        W96049  19.126  15.350   3.864
24379W        W96050  42.878  14.687   2.185
24380W        W96051  20.339  19.914   4.093
24381W        W96052  43.401   1.084   2.560
24382W        W96053   3.399  39.454  12.619
24383W        W96054   8.107   6.402   2.657
24384W        W96055  23.116  18.322   0.641
24385W        W96056  19.284  26.600   4.166
24386W        W96057  27.599  35.829   2.714
24387W        W96058   8.749  35.823   0.783
24388W        W96059  43.378  14.326  14.819
24389W        W96060  13.113  14.296  12.667
24390W        W96061  18.408  20.120  14.835
24391W        W96062   0.917  25.261   3.598
24392W        W96063   8.906  43.382  12.908
24393W        W96064  23.028   0.864  13.047
24394W        W96065  23.746  20.169  13.385
24395W        W96066  33.395   0.826   2.441
24396W        W96067  10.712  24.671   2.487
24397W        W96068  13.689  29.825   2.309
24398W        W96069  12.848  37.633   2.860
24399W        W96070  11.974  37.392  10.998
24400W        W96071  13.125   4.273   3.734
24401W        W96072  25.064   6.112  11.491
24402W        W96073  42.526   9.246  12.913
24403W        W96074  42.380  21.223   0.272
24404W        W96075  36.013  16.766  14.468
24405W        W96076  44.025  26.644  12.483
24406W        W96077  29.668  33.417  11.672
24407W        W96078  33.956  20.799  13.025
24408W        W96079  31.003   3.050  12.554
24409W        W96080  16.642  22.425  11.694
24410W        W96081  39.345  37.410   1.761
24411W        W96082  15.592  41.313   1.064
24412W        W96083  34.947   9.708   3.377
24413W        W96084  36.090   0.937   2.830
24414W        W96085   8.174   8.589  10.210
24415W        W96086  32.916  43.465  11.891
24416W        W96087  22.947  11.735   3.134
24417W        W96088  29.477  21.445  12.375
24418W        W96089  15.868  24.513   4.287
24419W        W96090  13.309  16.587   3.666
24420W        W96091  25.053  13.229   0.614
24421W        W96092   3.429   5.646   0.439
24422W        W96093  24.856   1.751   2.997
24423W        W96094  30.404   6.141  11.090
24424W        W96095   9.617  32.002  12.070
24425W        W96096  31.232  17.132  11.637
24426W        W96097   3.264  11.188   4.507
24427W        W96098   2.395  41.735   2.247
24428W        W96099  17.705  37.564   1.939
24429W        W96100  40.020  43.553   3.669
24430W        W96101  10.724   8.438  13.899
24431W        W96102  11.779  38.939   1.994
24432W        W96103  11.800  22.584  13.400
24433W        W96104   0.191  10.660   1.466
24434W        W96105  18.188   7.104  10.476
24435W        W96106  19.239  29.379  14.804
24436W        W96107  17.832   2.627   1.920
24437W        W96108  43.033  29.518  14.816
24438W        W96109  12.282  37.141   5.012
24439W        W96110  34.431  11.382  13.542
24440W        W96111  38.307  17.300  13.516
24441W        W96112   4.558  13.650  11.115
24442W        W96113  19.164  37.907  14.457
24443W        W96114  18.038  38.452   2.812
24444W        W96115  10.727   2.649  10.408
24445W        W96116  30.974  15.257   2.176
24446W        W96117  16.090  44.184   3.651
24447W        W96118  27.100  40.897  14.638
24448W        W96119  27.003  12.806   0.353
24449W        W96120  20.100  25.972   4.197
24450W        W96121  20.574  35.410  12.783
24451W        W96122   1.334  10.784   0.826
24452W        W96123  15.652  14.793  11.166
24453W        W96124  31.647  16.308   0.942
24454W        W96125  19.751  21.520   4.478
24455W        W96126   3.236  25.260   0.439
24456W        W96127   2.981  31.009  14.239
24457W        W96128  41.237  31.541   2.241
24458W        W96129  43.064  16.213   3.776
24459W        W96130  32.663  38.857   0.131
24460W        W96131  16.958  13.553   4.775
24461W        W96132  39.431   1.980   0.966
24462W        W96133  29.646  44.763  12.062
24463W        W96134  21.789  23.735  14.746
24464W        W96135  14.037  13.761   4.973
24465W        W96136   5.565  39.862  13.060
24466W        W96137  15.861  40.338  14.232
24467W        W96138  23.027  40.125   3.521
24468W        W96139  34.828  41.185   0.679
24469W        W96140  38.188  10.453  12.033
24470W        W96141  14.586  34.001  10.581
24471W        W96142  10.822  31.460  11.973
24472W        W96143  21.147  19.067  12.528
24473W        W96144   7.190  26.599   4.601
24474W        W96145   7.310   5.319   2.899
24475W        W96146   3.767  40.300  13.310
24476W        W96147  24.500  32.528   3.368
24477W        W96148   3.698  29.155  13.794
24478W        W96149  11.541  33.596  14.889
24479W        W96150   4.757  25.669  12.166
24480W        W96151   6.376  21.681   0.800
24481W        W96152   6.752  14.610   2.125
24482W        W96153  25.237  38.967   3.849
24483W        W96154  14.370  14.646  13.089
24484W        W96155  23.418  29.888   2.320
24485W        W96156   0.775  19.659   0.292
24486W        W96157   7.304  24.685   4.737
24487W        W96158  15.259  42.847  10.221
24488W        W96159   6.898  25.011   2.345
24489W        W96160  35.597  41.905   2.112
24490W        W96161  19.186   1.911   0.348
24491W        W96162   5.047  11.867  11.974
24492W        W96163   4.742   6.441   2.374
24493W        W96164   2.322  18.897   2.589
24494W        W96165   1.205   8.851  14.357
24495W        W96166  37.947  27.238   3.571
24496W        W96167  41.666  27.112  11.083
24497W        W96168  28.572   0.214   4.178
24498W        W96169  29.453  44.237  14.545
24499W        W96170  39.826  36.470  14.966
24500W        W96171  17.530  13.883  13.336
24501W        W96172  32.629   5.620  11.915
24502W        W96173  28.681  44.035  10.699
24503W        W96174  20.099  31.026   2.014
24504W        W96175  34.472  38.310   1.289
24505W        W96176  11.014  12.077   3.500
24506W        W96177  28.402  13.762   0.711
24507W        W96178  26.625  44.783  11.635
24508W        W96179  17.515  25.586  14.047
24509W        W96180  24.491   5.968  10.731
24510W        W96181   9.775  32.669   2.654
24511W        W96182  26.986   5.510  14.413
24512W        W96183  20.397  12.420   9.931
24513W        W96184  15.668  10.141   4.163
24514W        W96185  40.548  17.819   0.410
24515W        W96186  33.533  11.917  10.404
24516W        W96187   3.694  20.043  13.063
24517W        W96188  26.468  40.402  12.372
24518W        W96189  33.447   3.551   0.835
24519W        W96190  30.451  12.182  11.996
24520W        W96191   2.903  43.630  11.220
24521W        W96192  40.415  35.887  14.375
24522W        W96193  18.131  24.055   1.499
24523W        W96194  14.607  41.946  13.153
24524W        W96195   1.465   4.731   0.971
24525W        W96196  34.348  28.690   0.425
24526W        W96197  38.034  42.705  13.080
24527W        W96198  37.526  27.687   0.855
24528W        W96199  44.932  18.016  14.950
24529W        W96200  30.709   2.918  11.727
24530W        W96201   4.690   3.419   4.597
24531W        W96202  16.739  27.239  13.554
24532W        W96203  32.870  10.515   1.422
24533W        W96204  31.879  28.554   1.785
24534W        W96205   8.165  32.686  11.201
24535W        W96206  13.853  30.041  11.548
24536W        W96207   3.212   1.383  10.947
24537W        W96208  17.700  25.371   2.120
24538W        W96209  16.634  32.811   4.181
24539W        W96210   3.691  16.217   4.607
24540W        W96211  19.319  22.847  10.679
24541W        W96212  18.083  28.731   3.175
24542W        W96213   7.399  32.862   2.403
24543W        W96214   9.808  28.052   2.294
24544W        W96215  10.288  32.186   0.165
24545W        W96216  20.699  38.855  13.905
24546W        W96217  23.062   8.479   2.871
24547W        W96218  35.150  40.148   2.397
24548W        W96219  30.290  36.418  14.798
24549W        W96220  11.291  15.126  14.342
24550W        W96221   2.285   6.702  11.974
24551W        W96222  10.076  33.267  14.843
24552W        W96223  37.503  26.949  13.509
24553W        W96224   2.550  10.413  12.956
24554W        W96225  13.320  44.324   1.875
24555W        W96226  32.708   3.969  11.963
24556W        W96227  21.751  36.131   2.012
24557W        W96228  40.479   4.138   0.284
24558W        W96229  28.718  42.297   2.549
24559W        W96230  21.784  21.716  12.572
24560W        W96231  11.901  27.880  13.917
24561W        W96232  19.517  29.919   2.822
24562W        W96233  14.632  12.400   3.401
24563W        W96234  29.898  18.324  11.417
24564W        W96235  34.668  21.800   1.174
24565W        W96236  24.106  14.210  10.592
24566W        W96237   7.402  35.106   4.889
24567W        W96238  31.878   2.873   0.346
24568W        W96239  26.544  29.062   4.245
24569W        W96240  13.332  37.796   5.017
24570W        W96241  28.148  40.278  10.556
24571W        W96242  13.911  43.493   3.191
24572W        W96243  24.979  44.104  13.584
24573W        W96244  40.535  14.897   2.247
24574W        W96245  43.777  40.581  14.082
24575W        W96246   5.475  43.393   1.850
24576W        W96247   3.593  13.532   0.276
24577W        W96248  21.223  37.818  10.943
24578W        W96249   8.326   5.895  10.526
24579W        W96250   5.808  20.511  11.000
24580W        W96251  18.808  29.164   1.827
24581W        W96252  35.660  35.884   1.511
24582W        W96253   9.216   6.204   0.218
24583W        W96254  37.434   6.554  13.554
24584W        W96255  31.733   2.747  12.930
24585W        W96256   1.709  29.206   2.115
24586W        W96257  18.931  38.918   2.770
24587W        W96258  36.401  21.117  10.219
24588W        W96259   6.303  36.912  10.774
24589W        W96260  23.982   8.651  10.622
24590W        W96261   9.404  17.107   4.282
24591W        W96262  13.105  16.736  11.057
24592W        W96263  13.759  38.798  12.440
24593W        W96264  19.775  11.154   1.438
24594W        W96265  12.901   8.033  14.770
24595W        W96266   3.416  14.659   4.209
24596W        W96267  22.222  15.106   3.915
24597W        W96268  34.337  41.361   1.288
24598W        W96269   1.184  33.550  14.424
24599W        W96270   3.288  24.722  13.473
24600W        W96271  40.042  19.307  12.832
24601W        W96272  36.845  25.139   0.512
24602W        W96273  37.946  34.387  14.739
24603W        W96274  16.655  17.727   2.854
24604W        W96275  23.325  12.200  14.760
24605W        W96276  43.464   0.394  12.457
24606W        W96277  13.358  13.254  11.542
24607W        W96278  18.479  11.677   2.903
24608W        W96279  20.345  11.718  13.943
24609W        W96280  28.625   1.803   4.140
24610W        W96281  22.528  11.804  13.519
24611W        W96282  34.451  33.347   4.163
24612W        W96283  23.167  22.259   3.015
24613W        W96284   6.233  21.290   5.023
24614W        W96285  39.797  22.678  10.977
24615W        W96286  23.295  28.052   3.140
24616W        W96287  15.822  35.001  11.879
24617W        W96288  27.891  23.658  13.893
24618W        W96289  14.653  38.271  11.004
24619W        W96290  15.272   2.344  12.588
24620W        W96291  24.685   1.517  13.596
24621W        W96292  41.524  31.975   0.016
24622W        W96293  37.578  27.926   0.187
24623W        W96294  25.053  25.368   3.840
24624W        W96295  23.697  38.277   0.813
24625W        W96296  12.855  13.285  10.591
24626W        W96297  19.752  41.870   0.836
24627W        W96298   3.682  23.175   3.545
24628W        W96299   8.995   9.841   4.583
24629W        W96300   0.296  42.128  14.919
24630W        W96301  24.910  28.195  11.757
24631W        W96302  12.214  30.995  11.483
24632W        W96303   9.967  21.876   3.208
24633W        W96304   4.362  23.081  11.983
24634W        W96305   5.260  19.240  10.672
24635W        W96306  42.464  10.880   2.133
24636W        W96307  28.080  20.310   3.128
24637W        W96308  42.905  30.204  14.275
24638W        W96309  20.857  38.300   3.081
24639W        W96310  35.088  30.668  14.484
24640W        W96311   5.954  17.153   3.150
24641W        W96312   0.432   4.449   2.881
24642W        W96313  30.957   0.738  10.547
24643W        W96314  13.444  13.769  13.363
24644W        W96315  31.652  43.266  13.874
24645W        W96316  15.092  16.770  10.707
24646W        W96317  32.695  34.804   5.022
24647W        W96318  31.378  11.207   0.699
24648W        W96319  32.151   8.232   2.635
24649W        W96320   2.799  18.128  14.061
24650W        W96321  33.705  27.069   9.922
24651W        W96322  27.745  11.718   1.504
24652W        W96323  24.676   3.210   2.347
24653W        W96324  34.656   2.204  14.403
24654W        W96325  17.305  17.136  12.998
24655W        W96326  19.717  32.004   2.777
24656W        W96327  24.494  14.561   0.976
24657W        W96328  22.591   3.820  12.549
24658W        W96329  41.989  18.849   4.084
24659W        W96330   0.317  18.734  10.759
24660W        W96331  34.537  17.578  13.075
24661W        W96332  22.923  18.732   3.135
24662W        W96333   4.787  11.872   1.965
24663W        W96334   9.406  33.395   2.914
24664W        W96335  22.457  23.506  12.332
24665W        W96336  15.691   4.754   1.523
24666W        W96337  28.063  29.665   0.478
24667W        W96338  41.486  30.877   4.230
24668W        W96339  36.896  44.329  12.948
24669W        W96340  19.560   9.689   2.634
24670W        W96341   4.556   9.798  14.873
24671W        W96342  39.008   1.620  10.933
24672W        W96343   2.403  39.423   1.354
24673W        W96344   6.081  33.850   0.357
24674W        W96345  20.036   1.171  12.342
24675W        W96346  42.379   5.396  10.891
24676W        W96347  10.482   9.612   2.828
24677W        W96348  35.258  28.453  11.176
24678W        W96349  28.871  20.508   1.405
24679W        W96350  17.279  26.434  11.199
24680W        W96351  22.655  19.362   1.749
24681W        W96352  17.197  38.354   4.208
24682W        W96353  39.856  27.946   2.007
24683W        W96354  17.034  33.465   0.433
24684W        W96355  17.083  11.895   2.267
24685W        W96356  26.477  34.055   2.268
24686W        W96357  37.610  35.528   3.963
24687W        W96358  13.069  33.789  12.042
24688W        W96359   4.209  19.664  14.254
24689W        W96360   4.899  25.215  13.097
24690W        W96361  22.943  24.990  13.108
24691W        W96362  30.952  22.762  14.213
24692W        W96363  34.201  44.389  13.589
24693W        W96364  19.058  44.559   3.129
24694W        W96365  36.796  14.632   0.382
24695W        W96366  27.847  26.074   4.033
24696W        W96367  33.506  31.687   1.436
24697W        W96368  24.721  23.975   4.389
24698W        W96369  24.741   6.798   3.244
24699W        W96370  21.422  11.623   0.481
24700W        W96371   0.696  17.261  14.300
24701W        W96372  10.225  44.345  10.506
24702W        W96373  21.644  28.867  11.646
24703W        W96374  32.664   0.079  13.961
24704W        W96375  36.062  36.066   0.997
24705W        W96376  11.650  15.260   2.854
24706W        W96377  11.810  15.145   4.713
24707W        W96378  35.426  35.978   2.837
24708W        W96379  26.797  24.899   3.755
24709W        W96380  44.403  43.063   0.237
24710W        W96381  32.303  22.968  10.843
24711W        W96382  30.869   5.855   4.927
24712W        W96383  19.706  10.843   0.568
24713W        W96384  33.376   4.260   2.527
24714W        W96385   3.826  30.966   2.539
24715W        W96386  27.179  32.042   4.256
24716W        W96387  35.648  21.954  14.771
24717W        W96388  28.824  41.698  11.269
24718W        W96389  38.303  22.647   3.199
24719W        W96390  31.532  15.208  11.388
24720W        W96391  16.548  15.235   3.614
24721W        W96392  27.932   8.340  11.022
24722W        W96393  23.097   9.597   3.833
24723W        W96394  12.004  17.174  11.114
24724W        W96395  33.378  33.172   2.313
24725W        W96396   6.809  12.046   1.108
24726W        W96397   6.004  29.254   2.774
24727W        W96398  24.504  33.178  14.250
24728W        W96399  27.635   8.741   3.211
24729W        W96400  36.052  22.046   0.509
24730W        W96401   5.774  38.782   1.702
24731W        W96402  32.555  30.648   0.783
24732W        W96403  12.840  37.921   3.314
24733W        W96404  14.140  15.108  13.144
24734W        W96405  15.851  40.515   0.296
24735W        W96406   1.397  29.921   0.873
24736W        W96407  37.273   6.822   3.949
24737W        W96408  20.407  19.586   2.364
24738W        W96409  23.685   8.137   4.698
24739W        W96410  14.167   1.282   2.727
24740W        W96411  31.009   7.678   4.643
24741W        W96412   8.146  24.112   1.360
24742W        W96413  18.331  15.389   4.148
24743W        W96414  32.963  43.213  11.455
24744W        W96415  20.271   1.241   4.585
24745W        W96416  19.368  23.457   1.664
24746W        W96417   0.558   2.327  13.140
24747W        W96418  15.245  42.931   1.525
24748W        W96419   2.480  33.100   4.830
24749W        W96420   5.248  27.465   0.505
24750W        W96421  30.287  18.918   1.876
24751W        W96422  37.876  26.929   2.655
24752W        W96423  13.640  34.006   2.793
24753W        W96424   6.636  12.797  12.052
24754W        W96425  18.496  10.194   4.605
24755W        W96426   6.245  23.307   1.828
24756W        W96427  23.488   4.150  11.654
24757W        W96428  27.745  14.173   2.162
24758W        W96429  13.889  16.503  12.079
24759W        W96430  35.546  30.732   2.229
24760W        W96431  15.531  31.048  13.897
24761W        W96432  10.377  18.676   2.789
24762W        W96433  15.840  26.925  14.368
24763W        W96434   3.338  40.460   1.752
24764W        W96435  13.704   2.751   1.429
24765W        W96436  43.580   2.456   1.319
24766W        W96437  19.618  23.564  12.401
24767W        W96438  25.555  31.648   4.238
24768W        W96439   1.486  41.095   3.233
24769W        W96440  20.095  37.274   0.823
24770W        W96441  37.171  42.888   0.901
24771W        W96442  25.469  37.550   3.727
24772W        W96443  17.449  27.108   2.329
24773W        W96444  22.792  34.573   1.247
24774W        W96445  36.867   0.037   0.323
24775W        W96446   9.304   7.739   4.547
24776W        W96447  12.778  33.878  14.930
24777W        W96448  17.656  26.872   4.280
24778W        W96449  37.373  10.598  12.028
24779W        W96450  12.789   5.929   0.390
24780W        W96451  23.013  12.159  14.349
24781W        W96452  29.935  40.991   2.936
24782W        W96453  20.687   7.370  11.077
24783W        W96454  34.377  20.640  11.939
24784W        W96455  17.190  41.118   1.429
24785W        W96456  20.176  41.583   4.661
24786W        W96457  18.805  13.888   4.375
24787W        W96458  13.592  36.087   1.743
24788W        W96459  20.726  23.913   4.254
24789W        W96460  20.250  31.608  14.955
24790W        W96461  15.311  32.579  13.002
24791W        W96462   5.389  42.456  11.981
24792W        W96463  29.007   4.439  13.350
24793W        W96464  23.940  25.285   3.252
24794W        W96465  41.074   0.860   5.064
24795W        W96466  10.792  17.151  14.365
24796W        W96467   1.918  30.119   1.906
24797W        W96468  20.562  28.565   2.604
24798W        W96469   6.696  24.895  11.184
24799W        W96470  29.718   8.912   0.188
24800W        W96471   0.870  33.871   0.376
24801W        W96472  44.982  21.698   3.171
24802W        W96473  19.632  37.661   2.937
24803W        W96474   5.498  17.622  12.912
24804W        W96475  23.703  39.548   1.448
24805W        W96476  21.718  41.211   3.158
24806W        W96477  25.591  39.782   3.161
24807W        W96478  43.905  15.982  12.149
24808W        W96479  39.108  33.282  13.792
24809W        W96480  37.409  39.807   4.974
24810W        W96481  40.478  12.624  12.924
24811W        W96482  36.585  24.376  14.862
24812W        W96483  34.272   0.878   3.692
24813W        W96484  28.271   0.595  13.834
24814W        W96485  34.286  25.208   4.140
24815W        W96486  35.089   1.689   2.287
24816W        W96487  43.422  10.796  11.235
24817W        W96488   6.178  36.053  12.446
24818W        W96489  25.032  12.384   3.298
24819W        W96490   9.231  16.594  12.090
24820W        W96491  23.535  32.442  13.588
24821W        W96492  25.688   4.177  11.596
24822W        W96493  30.084  23.935   3.463
24823W        W96494  17.192  28.308   0.316
24824W        W96495   0.162  12.367   2.956
24825W        W96496  36.812  30.170   2.206
24826W        W96497   8.399  28.986  12.203
24827W        W96498  33.019   7.165  14.433
24828W        W96499   1.358  22.182   3.251
24829W        W96500  33.133  16.556   2.098
24830W        W96501  26.681   3.997  12.403
24831W        W96502  13.903  31.569   0.981
24832W        W96503  14.122  43.380  11.081
24833W        W96504   7.869  39.005   2.286
24834W        W96505   6.996  39.416  12.461
24835W        W96506   2.201  40.956   3.768
24836W        W96507  18.154   7.680   1.903
24837W        W96508   6.244  23.251   0.611
24838W        W96509   0.932  22.348   4.173
24839W        W96510  35.638  21.543  11.592
24840W        W96511  25.234  32.892   1.832
24841W        W96512  44.476  28.861  11.213
24842W        W96513  44.931  30.471  12.426
24843W        W96514  17.260  13.675   1.266
24844W        W96515   3.322  18.661   3.100
24845W        W96516  26.085  33.348   4.448
24846W        W96517   0.930  19.764  11.042
24847W        W96518  17.754  26.735  11.084
24848W        W96519  27.476  29.247   2.107
24849W        W96520  26.595  43.225   0.745
24850W        W96521  13.112  24.695  14.365
24851W        W96522  41.016  29.227   1.462
24852W        W96523  26.279  41.947  13.887
24853W        W96524   5.954  24.036  13.583
24854W        W96525  41.318  10.289  12.524
24855W        W96526  17.678  29.165  14.471
24856W        W96527  40.719   5.131   4.215
24857W        W96528  43.262  43.798   4.187
24858W        W96529  24.088   3.637   0.112
24859W        W96530  22.034   0.711   2.743
24860W        W96531  14.252   4.397   4.707
24861W        W96532  44.979  28.292   1.686
24862W        W96533  23.127  12.347  12.069
24863W        W96534  24.597   8.692  12.048
24864W        W96535  27.729  42.971  10.692
24865W        W96536  20.102  12.219  11.386
24866W        W96537  33.586  30.909  11.146
24867W        W96538  22.741   1.435  14.065
24868W        W96539   4.966  22.495  13.940
24869W        W96540   0.287   3.004   2.747
24870W        W96541  14.664   9.065   4.172
24871W        W96542   7.342   0.979  11.163
24872W        W96543  36.190   1.375   1.177
24873W        W96544  10.441   3.234   4.474
24874W        W96545  44.935  39.753   4.209
24875W        W96546  44.931  17.285  12.522
24876W        W96547  42.939  13.293  14.234
24877W        W96548  36.506  13.238  14.008
24878W        W96549  10.832  37.897   4.878
24879W        W96550  25.829  27.261  11.965
24880W        W96551  30.201  22.712   4.439
24881W        W96552  26.030  16.033  10.738
24882W        W96553   5.309  35.479   0.098
24883W        W96554  17.138   0.680   4.111
24884W        W96555  38.806  42.931   4.957
24885W        W96556  18.085  23.587  12.831
24886W        W96557  16.007  33.709   4.533
24887W        W96558  16.974  11.433   4.102
24888W        W96559  23.414  34.008   4.880
24889W        W96560   4.671  26.294   2.737
24890W        W96561   5.437  41.949   0.314
24891W        W96562  43.522  30.136  12.127
24892W        W96563  13.629  17.080   1.856
24893W        W96564  15.552  12.248  12.550
24894W        W96565  33.416   6.651  11.965
24895W        W96566  32.537  16.628  14.050
24896W        W96567   7.604  25.565   4.188
24897W        W96568   7.172  41.516   0.452
24898W        W96569  22.635   6.691  14.529
24899W        W96570  37.347  23.992  11.182
24900W        W96571  35.559  22.524   2.408
24901W        W96572  41.596  23.146   2.635
24902W        W96573  38.610  37.361   2.939
24903W        W96574   4.409  43.476   0.369
24904W        W96575  24.009  29.897   0.865
24905W        W96576  42.955   0.244   1.705
24906W        W96577  19.696   0.731   3.812
24907W        W96578  38.297  44.679  11.965
24908W        W96579  15.019   0.934   4.599
24909W        W96580  32.589  40.706  12.888
24910W        W96581  17.854   3.829  13.916
24911W        W96582   0.222   7.285  11.587
24912W        W96583  35.926  30.119  14.305
24913W        W96584  29.230  28.402   4.930
24914W        W96585   5.824  25.154   1.567
24915W        W96586  29.493   2.981   4.352
24916W        W96587   0.240  40.446  11.637
24917W        W96588  33.204  33.120  13.286
24918W        W96589  40.875  24.298   2.284
24919W        W96590  13.807  17.257  13.448
24920W        W96591  19.539  40.097  14.330
24921W        W96592  22.991   4.218  11.715
24922W        W96593  11.267  16.834   4.823
24923W        W96594  30.654  35.336  12.997
24924W        W96595  26.127  10.100   3.481
24925W        W96596  17.974  37.140   2.257
24926W        W96597  26.760  27.175  13.250
24927W        W96598  14.372  10.849  10.938
24928W        W96599  43.961  40.374   4.118
24929W        W96600  17.681  17.183  12.039
24930W        W96601  23.755  19.141   1.378
24931W        W96602   2.701  42.311  11.954
24932W        W96603  22.999  40.715  10.297
24933W        W96604  26.089  17.154   2.295
24934W        W96605  25.591  39.071  14.039
24935W        W96606   1.479  34.269   2.094
24936W        W96607  14.740  30.863   1.365
24937W        W96608  20.552  13.078   1.879
24938W        W96609   6.058   8.632   1.773
24939W        W96610  23.235  13.700  14.341
24940W        W96611   6.539  33.491  10.874
24941W        W96612  21.696  11.561   1.429
24942W        W96613  20.232  44.947   0.795
24943W        W96614  19.684  25.514  14.795
24944W        W96615  13.683  37.812   0.664
24945W        W96616  22.962   0.388   1.155
24946W        W96617  16.311  39.056   1.766
24947W        W96618  23.509  16.377  12.607
24948W        W96619   7.214  32.593  11.453
24949W        W96620   5.783  10.791  12.384
24950W        W96621  21.190  34.429   2.292
24951W        W96622   2.802  23.006  12.622
24952W        W96623   2.315  40.284   1.443
24953W        W96624   7.286  43.826  10.629
24954W        W96625   0.251  20.664   1.220
24955W        W96626  29.632  24.071  11.028
24956W        W96627   7.215   2.336   2.087
24957W        W96628   1.075   2.040  14.923
24958W        W96629  23.490   0.169   3.251
24959W        W96630  27.899   9.963   0.799
24960W        W96631  25.279  35.546  11.066
24961W        W96632   5.261  28.955   3.154
24962W        W96633   9.253  32.016   4.640
24963W        W96634  23.576   4.476   3.230
24964W        W96635  17.029   8.550   4.377
24965W        W96636  36.298  17.547   4.136
24966W        W96637  44.053  13.255   2.209
24967W        W96638  34.420  37.339  10.168
24968W        W96639  39.451  25.417  13.923
24969W        W96640   3.812  34.036   1.367
24970W        W96641  16.300   0.213   2.728
24971W        W96642   8.778  23.672   1.140
24972W        W96643   2.377  31.444   2.305
24973W        W96644  38.064  24.231  13.845
24974W        W96645  31.387  41.326   0.426
24975W        W96646   6.733   5.460   0.427
24976W        W96647  20.795   8.578   3.982
24977W        W96648  43.340  44.290  11.684
24978W        W96649   5.260  27.509  13.522
24979W        W96650   3.307  26.372   1.450
24980W        W96651  22.629  27.726  13.391
24981W        W96652  32.796  12.906  11.003
24982W        W96653   4.657  11.996   0.327
24983W        W96654  28.567  28.456  11.184
24984W        W96655  36.491   4.849   5.130
24985W        W96656  11.747  27.404  11.618
24986W        W96657  34.506  10.144   3.102
24987W        W96658  44.045  37.631  10.898
24988W        W96659  36.351  44.682  11.547
24989W        W96660  38.110  25.268   0.039
24990W        W96661  17.112  39.258   4.607
24991W        W96662   6.911   6.285   3.252
24992W        W96663  33.191   9.194  14.285
24993W        W96664  37.112  10.251  12.956
24994W        W96665  30.910  34.418   0.261
24995W        W96666   5.684   2.508  11.503
24996W        W96667  43.279  17.105  12.970
24997W        W96668  16.542   4.923  11.445
24998W        W96669  38.426  40.535  13.397
24999W        W96670  20.454  24.184  12.132
25000W        W96671  19.445  33.203   5.089
25001W        W96672  24.248  28.069  14.811
25002W        W96673  35.934  36.878  12.644
25003W        W96674  32.299   0.484   0.856
25004W        W96675  20.694  27.683  12.918
25005W        W96676  23.250   8.576  11.100
25006W        W96677   7.771  37.585   4.364
25007W        W96678  21.695  39.147   2.665
25008W        W96679   5.472  36.157   0.662
25009W        W96680   4.769  41.864   1.671
25010W        W96681  41.980  36.972   0.440
25011W        W96682  38.598  16.266   4.915
25012W        W96683   8.271  41.783   2.533
25013W        W96684  34.889  19.882   4.112
25014W        W96685   5.852  40.494  12.366
25015W        W96686  39.823  14.921  14.522
25016W        W96687  24.090  26.122   3.551
25017W        W96688   1.369   6.754  14.835
25018W        W96689  18.868  42.982  10.321
25019W        W96690  30.009  30.889   0.090
25020W        W96691  27.743   5.817  13.804
25021W        W96692  16.546  29.991   0.755
25022W        W96693   5.290  10.149   4.702
25023W        W96694   6.110  23.592  13.324
25024W        W96695  42.018  19.991  14.829
25025W        W96696  36.080  11.398   1.494
25026W        W96697  39.362  36.866  12.071
25027W        W96698  12.333  16.049   2.380
25028W        W96699  37.116  30.172   0.340
25029W        W96700   0.026  25.970  11.144
25030W        W96701  41.323  21.538  12.917
25031W        W96702  37.596   0.269   4.162
25032W        W96703  38.090   4.949  13.910
25033W        W96704   8.637  17.625  11.637
25034W        W96705  10.060  36.817   1.849
25035W        W96706  34.554  11.246   4.226
25036W        W96707  27.681  15.647  11.065
25037W        W96708  23.026   0.240  11.019
25038W        W96709   1.450  41.825   1.331
25039W        W96710  39.467  17.363   3.272
25040W        W96711  19.613  11.876  12.825
25041W        W96712  17.968  16.733  12.051
25042W        W96713  19.640  12.085  11.593
25043W        W96714  43.052  37.927  13.891
25044W        W96715  27.586  20.014   4.177
25045W        W96716  24.452  21.241   0.195
25046W        W96717  22.217  12.087   3.685
25047W        W96718  31.888   1.291   3.376
25048W        W96719  15.228  22.538   0.017
25049W        W96720  12.461  17.567   0.472
25050W        W96721   3.133  36.525   1.852
25051W        W96722   3.825  29.020  12.872
25052W        W96723  41.102  15.527  12.409
25053W        W96724  15.328  37.760   1.777
25054W        W96725  30.467  30.528   3.621
25055W        W96726  23.014  20.181  13.950
25056W        W96727  25.684  25.307   4.424
25057W        W96728  13.743  40.963   3.110
25058W        W96729   1.706  41.862   3.391
25059W        W96730   0.783  32.561  10.701
25060W        W96731  14.086  15.756  12.460
25061W        W96732  32.516  24.280   3.908
25062W        W96733  15.716  30.620  12.103
25063W        W96734  22.008  35.313  11.246
25064W        W96735  29.538  20.658   3.111
25065W        W96736  33.009   6.009  12.630
25066W        W96737  30.906  23.111  13.234
25067W        W96738  39.437  10.989  10.592
25068W        W96739   5.212   6.776   1.330
25069W        W96740  38.904  16.207   0.451
25070W        W96741  21.337  41.929   3.269
25071W        W96742  11.857  10.561   2.221
25072W        W96743  10.177  15.509   1.288
25073W        W96744  28.164  15.160  13.879
25074W        W96745   3.485   2.466  14.721
25075W        W96746  22.051  37.613   2.681
25076W        W96747   0.836  35.827  12.901
25077W        W96748  10.972  12.666   4.381
25078W        W96749  35.093  23.504  13.392
25079W        W96750   0.981  15.340  10.774
25080W        W96751  33.931  33.041   2.892
25081W        W96752  43.848  24.310   4.143
25082W        W96753  25.717  29.512  11.642
25083W        W96754  12.259  38.337   1.817
25084W        W96755  20.124   4.102  12.099
25085W        W96756  24.593  14.211  11.503
25086W        W96757  25.258  19.433   3.420
25087W        W96758   8.162   2.146  13.842
25088W        W96759  19.561  11.074  13.787
25089W        W96760  41.466  35.442  14.978
25090W        W96761  29.582  32.110  14.089
25091W        W96762   4.794  23.701  13.468
25092W        W96763  11.758  31.097   4.329
25093W        W96764  10.842   3.352   0.878
25094W        W96765  30.169  15.224  11.487
25095W        W96766  27.882  39.149   1.829
25096W        W96767  24.850  42.768  12.979
25097W        W96768  25.086  10.619  10.543
25098W        W96769  43.311  24.043   4.926
25099W        W96770  29.853   1.254  14.315
25100W        W96771  43.585   8.188   0.906
25101W        W96772   8.412  14.595  12.212
25102W        W96773   6.856  12.273   2.846
25103W        W96774  26.631  34.069  13.556
25104W        W96775  38.947   8.013  13.294
25105W        W96776  25.775   9.565   2.258
25106W        W96777  42.470   3.215  12.649
25107W        W96778  38.091  15.146   2.108
25108W        W96779  39.723  31.421  14.853
25109W        W96780   8.368  35.046  12.867
25110W        W96781  21.558  23.722  11.513
25111W        W96782  32.880  15.572  11.037
25112W        W96783   4.840  40.840   0.964
25113W        W96784  40.428  20.035   2.086
25114W        W96785  14.585  15.050   1.015
25115W        W96786  41.602  24.580  11.959
25116W        W96787  17.086  13.262  13.879
25117W        W96788  34.567  44.207   1.432
25118W        W96789   4.726  38.675  11.571
25119W        W96790  38.322  37.330  14.911
25120W        W96791  35.971   3.373   1.932
25121W        W96792  23.736  35.711  13.433
25122W        W96793   4.896  33.199   1.744
25123W        W96794  15.742  23.521   3.320
25124W        W96795   5.567  39.449   4.855
25125W        W96796  14.994   1.717  11.554
25126W        W96797  19.796  17.188   3.201
25127W        W96798   2.847  19.597  10.497
25128W        W96799  41.924   5.710  10.458
25129W        W96800   6.845  32.568   1.986
25130W        W96801  29.245  23.468   3.425
25131W        W96802  44.576   3.988  12.040
25132W        W96803  22.508  38.612  12.148
25133W        W96804   1.813   1.938   3.106
25134W        W96805  12.800  26.382  11.675
25135W        W96806   4.700   6.174   4.514
25136W        W96807  28.017  38.846   0.378
25137W        W96808   3.157  20.915   0.866
25138W        W96809  33.040   5.498   4.169
25139W        W96810  14.093  14.241  11.757
25140W        W96811  40.584  31.954   3.747
25141W        W96812  12.319  34.421   1.860
25142W        W96813  36.316  44.582  14.972
25143W        W96814  23.583  23.132  10.394
25144W        W96815  36.102  18.699  10.905
25145W        W96816  44.477  16.663   1.658
25146W        W96817  35.855  40.856   3.247
25147W        W96818  32.408   0.512  13.911
25148W        W96819  44.506  13.530  12.507
25149W        W96820  37.112  40.494  11.855
25150W        W96821   3.962  40.544  12.506
25151W        W96822  23.076   0.882   4.324
25152W        W96823  26.870   5.261  14.884
25153W        W96824   5.254  17.864   0.838
25154W        W96825  42.410  28.670   1.208
25155W        W96826  25.480   6.323   0.521
25156W        W96827  32.037  27.259   0.784
25157W        W96828  17.293  31.850  11.177
25158W        W96829  23.621  30.393   3.664
25159W        W96830  38.144   4.362   0.457
25160W        W96831  23.028   1.288   1.256
25161W        W96832  10.099  43.979   0.471
25162W        W96833  37.439  33.656  14.829
25163W        W96834  18.551  24.351   2.906
25164W        W96835   3.434  32.651   0.325
25165W        W96836   3.478  25.137   3.309
25166W        W96837   0.508   8.512   3.218
25167W        W96838  41.393  32.027  12.003
25168W        W96839   7.395  34.906   0.165
25169W        W96840   9.138  17.820   4.601
25170W        W96841  32.082  30.916  14.011
25171W        W96842  29.948  43.653   2.533
25172W        W96843  20.167  25.244  10.755
25173W        W96844  39.053   1.182  12.823
25174W        W96845   2.315   3.292  11.278
25175W        W96846  39.511   6.459   0.452
25176W        W96847  22.340  19.378  11.944
25177W        W96848  20.146  16.698   4.605
25178W        W96849   4.726  31.814  12.865
25179W        W96850   9.300  15.744   1.887
25180W        W96851  13.918   8.345  10.554
25181W        W96852  41.807   8.138   2.557
25182W        W96853  11.610   9.711  12.030
25183W        W96854  27.222   1.511   1.816
25184W        W96855  43.354  21.083   0.514
25185W        W96856   2.419  36.140  14.876
25186W        W96857   3.261  40.966   3.731
25187W        W96858  15.738  25.693  12.326
25188W        W96859  38.832  12.664  12.580
25189W        W96860  26.176  21.692   3.562
25190W        W96861  31.171   4.219   2.382
25191W        W96862  37.675   9.462   2.113
25192W        W96863   4.239  15.310   2.761
25193W        W96864  44.408  10.327   4.640
25194W        W96865  17.341   2.920  11.191
25195W        W96866  27.559  30.912  13.772
25196W        W96867  44.226  37.944  10.474
25197W        W96868  16.873  13.880  11.455
25198W        W96869   3.236   8.083   0.174
25199W        W96870  23.213  17.783   2.236
25200W        W96871  27.353  31.902   4.717
25201W        W96872  23.414  11.966  13.000
25202W        W96873   6.267  38.627   3.317
25203W        W96874  13.216  15.479   5.146
25204W        W96875  12.311  26.641   3.954
25205W        W96876  32.734  36.473   1.101
25206W        W96877   4.090  25.470   2.758
25207W        W96878   3.451  27.096   2.889
25208W        W96879   9.676  11.497  13.809
25209W        W96880  15.470  19.688  11.211
25210W        W96881  26.481  39.776  10.317
25211W        W96882  20.083  22.702  10.163
25212W        W96883  14.592   0.410   3.665
25213W        W96884   4.864  31.532   3.157
25214W        W96885  19.370   4.697   3.843
25215W        W96886  12.635   7.745   2.879
25216W        W96887   8.696   5.524  13.836
25217W        W96888  35.451   0.194   2.195
25218W        W96889   3.204  29.409   2.773
25219W        W96890  39.594  25.149   1.314
25220W        W96891  22.425  19.021   0.817
25221W        W96892   0.022  24.800  14.730
25222W        W96893  19.308  40.162  11.070
25223W        W96894  10.576  42.634  12.931
25224W        W96895  22.068  13.681   4.618
25225W        W96896   6.331   1.319  12.896
25226W        W96897  11.343  15.093  12.176
25227W        W96898  43.654  24.116   2.819
25228W        W96899  14.601  22.317  11.902
25229W        W96900  24.799  15.593  14.246
25230W        W96901  42.435  16.006  10.647
25231W        W96902  40.087  16.213   0.258
25232W        W96903  43.312  39.059   4.220
25233W        W96904  44.529  22.641   5.246
25234W        W96905  36.523   8.190   0.064
25235W        W96906  28.484  21.575   0.280
25236W        W96907  14.807  14.600  11.205
25237W        W96908  29.764  25.471  12.759
25238W        W96909  34.900   5.052   4.083
25239W        W96910  33.708   4.943  14.334
25240W        W96911  20.743  18.552  12.042
25241W        W96912   0.314   3.879   4.693
25242W        W96913  16.810   7.561   1.688
25243W        W96914  12.639  24.511  14.519
25244W        W96915  40.980   5.041  14.550
25245W        W96916  14.682  10.039   1.439
25246W        W96917  12.020  14.887  11.059
25247W        W96918   0.917   9.927  12.698
25248W        W96919  41.277  15.724  13.332
25249W        W96920  20.734  40.406   0.438
25250W        W96921  22.496  32.110   1.439
25251W        W96922  20.701  26.188  13.504
25252W        W96923  15.751  38.141   4.691
25253W        W96924  13.917  17.690   1.796
25254W        W96925   3.835  27.845  13.371
25255W        W96926   4.407  43.877  11.993
25256W        W96927  37.833  32.486  10.754
25257W        W96928  43.667  30.935  11.318
25258W        W96929  33.864  42.125   2.389
25259W        W96930   5.900  10.107   3.886
25260W        W96931  38.614  39.431  13.500
25261W        W96932  11.861  33.534  12.430
25262W        W96933   7.613   6.585  13.558
25263W        W96934  24.520   2.896  13.862
25264W        W96935  34.186  43.705  11.531
25265W        W96936  21.818  34.411  13.907
25266W        W96937   1.710  37.116  13.972
25267W        W96938  15.683  41.605   3.013
25268W        W96939  16.811  32.883  12.793
25269W        W96940   0.528  25.529   4.523
25270W        W96941  31.931  15.280   2.303
25271W        W96942   3.957  10.746  12.460
25272W        W96943  42.400   9.947  13.464
25273W        W96944  34.140  37.861   9.695
25274W        W96945  11.154   7.173  13.891
25275W        W96946   1.851  38.316   4.335
25276W        W96947  23.609  32.398   3.642
25277W        W96948  30.509   9.085  11.058
25278W        W96949   3.543  42.610   0.194
25279W        W96950  29.750  22.694   0.928
25280W        W96951  29.942  13.661  11.650
25281W        W96952  30.006  19.264   4.432
25282W        W96953  22.266  24.610  11.012
25283W        W96954  17.823  19.636  10.704
25284W        W96955  31.453   2.690  13.454
25285W        W96956  27.932   9.347   5.343
25286W        W96957  34.143   8.845   2.637
25287W        W96958  43.917  25.354  11.623
25288W        W96959  30.993  23.523   4.419
25289W        W96960  16.089   1.408  12.007
25290W        W96961  11.125  20.764   3.113
25291W        W96962  27.188   1.764  14.009
25292W        W96963  20.563   9.819  11.561
25293W        W96964   9.701  19.002  13.545
25294W        W96965  43.151  15.843   3.422
25295W        W96966  31.104   3.636  11.882
25296W        W96967  12.652  19.567   3.668
25297W        W96968  44.275  16.663  12.496
25298W        W96969  26.828  42.268   2.881
25299W        W96970   0.448  13.590   1.309
25300W        W96971  19.838   7.148  10.986
25301W        W96972  28.440   4.164   4.252
25302W        W96973  43.755  11.645   0.963
25303W        W96974  35.133  29.275  12.575
25304W        W96975  16.022  41.804   1.823
25305W        W96976  43.558  36.372  13.983
25306W        W96977  38.314   3.628   1.878
25307W        W96978  44.051  17.754  11.123
25308W        W96979  42.044  10.223  13.794
25309W        W96980  27.041  17.330   2.233
25310W        W96981  26.965  43.717   4.105
25311W        W96982  33.818  23.564  10.404
25312W        W96983  26.230  33.005   4.805
25313W        W96984  18.691  27.127  12.204
25314W        W96985  42.043  21.444  14.923
25315W        W96986   0.442  32.948  10.718
25316W        W96987   0.901  29.949   1.670
25317W        W96988   8.638  21.715   1.896
25318W        W96989   1.755  39.522   4.507
25319W        W96990  23.505  13.100  12.412
25320W        W96991  22.096  40.825  10.588
25321W        W96992  11.043  15.819  11.647
25322W        W96993  43.015  28.040   1.029
25323W        W96994  40.779  43.395  12.466
25324W        W96995  16.068   6.465  11.475
25325W        W96996  29.105   1.237  13.898
25326W        W96997  26.955  16.748   2.750
25327W        W96998  36.374  40.333  13.051
25328W        W96999  20.975  33.006   2.510
25329W        W97000  42.355  14.733   2.297
25330W        W97001  18.801  26.240  10.008
25331W        W97002  16.329  42.776  13.612
25332W        W97003  19.053  12.277   5.423
25333W        W97004  10.293  29.752   4.663
25334W        W97005   5.630  30.350  14.337
25335W        W97006  36.074   5.328   2.399
25336W        W97007  32.426  39.457  13.719
25337W        W97008   1.651  39.345  14.887
25338W        W97009  32.872  29.593  14.407
25339W        W97010  14.372  39.354  14.462
25340W        W97011  10.579  30.372   1.169
25341W        W97012   9.935  30.507  12.878
25342W        W97013  37.499  21.754  13.182
25343W        W97014  38.197   6.782  14.493
25344W        W97015  20.183  43.935  14.960
25345W        W97016  14.271  35.122   0.281
25346W        W97017   8.508  10.827   2.795
25347W        W97018  42.990   7.154  10.515
25348W        W97019   5.992  31.052   0.939
25349W        W97020  26.579  27.747  12.497
25350W        W97021  38.065  42.489  10.367
25351W        W97022  24.268   8.847  13.458
25352W        W97023  28.139   9.068  11.471
25353W        W97024   9.787  13.537  13.053
25354W        W97025   7.273  33.511  12.639
25355W        W97026  23.950  31.051  14.049
25356W        W97027   9.541  18.246   2.576
25357W        W97028  22.233  23.402  13.105
25358W        W97029  39.429  23.790   2.531
25359W        W97030   1.000  33.082   0.630
25360W        W97031  24.030  18.810  13.916
25361W        W97032  39.950  33.063  11.164
25362W        W97033  22.101  20.087  10.959
25363W        W97034  11.524  25.024  11.251
25364W        W97035  44.315  40.689  10.020
25365W        W97036  24.945  42.745  12.097
25366W        W97037  40.491  33.905  12.627
25367W        W97038  18.740  23.042  12.315
25368W        W97039  40.007  40.425   1.165
25369W        W97040  20.528  27.932  10.570
25370W        W97041   0.912   6.478  11.592
25371W        W97042   8.964  28.704   2.311
25372W        W97043  24.653  12.160  14.422
25373W        W97044  14.626  33.655  13.883
25374W        W97045  34.332   9.190  14.996
25375W        W97046  18.393  21.822   4.639
25376W        W97047  41.988  18.825   0.456
25377W        W97048  43.934   2.428  12.954
25378W        W97049  16.189  35.656  14.831
25379W        W97050  41.034  16.135   1.712
25380W        W97051   9.649   4.656   0.807
25381W        W97052  38.816  28.996  13.373
25382W        W97053  31.196   7.306   3.695
25383W        W97054   0.038   9.909   1.904
25384W        W97055  13.035  22.036  13.538
25385W        W97056  28.470   4.631   3.394
25386W        W97057   9.701  26.913  12.569
25387W        W97058  30.183  42.762  13.851
25388W        W97059  33.135  29.033   0.346
25389W        W97060  42.442   1.034   3.194
25390W        W97061  34.312  44.879  12.689
25391W        W97062   9.811   3.663   1.752
25392W        W97063  27.640   5.382  13.530
25393W        W97064  24.127  15.464   1.312
25394W        W97065  38.523  31.747   3.304
25395W        W97066  19.099  39.019   4.644
25396W        W97067  24.538   3.474   1.334
25397W        W97068  31.965  12.090  13.077
25398W        W97069  34.880   5.316   2.638
25399W        W97070  43.047  37.148  12.418
25400W        W97071   9.370  17.502   3.209
25401W        W97072  18.277  21.533  11.867
25402W        W97073   7.030   6.531   0.876
25403W        W97074  19.134  38.857   0.207
25404W        W97075  39.512  21.993   2.563
25405W        W97076  19.082  28.085  11.197
25406W        W97077  24.568  29.068  11.217
25407W        W97078  39.389  33.007  11.941
25408W        W97079  24.523  19.581   1.240
25409W        W97080   3.680  36.948   0.262
25410W        W97081  24.258  17.325  14.864
25411W        W97082   5.262  24.392   3.553
25412W        W97083  28.484  21.720   2.261
25413W        W97084   8.633   2.708   1.867
25414W        W97085  30.981  12.940  12.037
25415W        W97086   5.891  28.147   0.829
25416W        W97087  39.842  30.041  14.837
25417W        W97088  12.363  18.484   2.343
25418W        W97089   1.033  35.423  13.844
25419W        W97090  27.064   3.015   1.879
25420W        W97091  11.062  12.509  10.927
25421W        W97092  12.595  40.508   2.750
25422W        W97093   4.464  31.466  12.542
25423W        W97094   6.112  44.864  12.797
25424W        W97095   5.468  41.080   0.185
25425W        W97096  11.658  20.835   1.901
25426W        W97097  26.564   6.223  13.646
25427W        W97098  42.355  23.984   5.107
25428W        W97099  11.287  35.418  10.762
25429W        W97100   7.240  30.090   0.776
25430W        W97101  22.461  21.146   3.577
25431W        W97102  43.969  38.133  13.460
25432W        W97103  37.449  32.987   3.710
25433W        W97104  12.559  24.543   0.019
25434W        W97105   1.821  11.703  10.554
25435W        W97106  41.550   8.966   4.157
25436W        W97107  44.432   1.041   0.831
25437W        W97108  14.688   6.875  12.687
25438W        W97109  22.246  37.596   3.996
25439W        W97110  19.978   6.054   2.758
25440W        W97111  36.650  29.647   1.344
25441W        W97112   2.960   2.486   3.230
25442W        W97113  44.786  23.739   2.746
25443W        W97114  37.807  28.234   2.489
25444W        W97115  23.581   8.359  12.418
25445W        W97116  25.410  25.779  10.612
25446W        W97117   3.411  20.755  10.665
25447W        W97118  13.770  25.192  13.845
25448W        W97119  13.909  36.102   0.412
25449W        W97120  29.630  37.079   2.331
25450W        W97121  11.232  18.271  10.436
25451W        W97122  23.270  26.630  13.920
25452W        W97123  25.780  27.536  14.482
25453W        W97124  31.601   2.233   3.787
25454W        W97125  23.468   8.819  10.662
25455W        W97126  34.978   6.886   1.649
25456W        W97127  29.066   0.718   3.637
25457W        W97128  16.628  40.757   3.174
25458W        W97129   1.247   4.961  12.394
25459W        W97130  24.602   1.184  14.773
25460W        W97131   4.356  25.720  11.212
25461W        W97132  10.389  43.954  13.494
25462W        W97133  25.603  39.789   0.091
25463W        W97134  16.377  15.218   4.556
25464W        W97135  29.293  21.831   1.872
25465W        W97136  22.691  28.720   0.402
25466W        W97137  17.028   9.816   1.214
25467W        W97138  43.823  33.525   2.328
25468W        W97139   2.309  34.921   1.329
25469W        W97140  25.966  15.721  14.962
25470W        W97141   5.808  34.866   0.363
25471W        W97142  21.136  15.131   2.658
25472W        W97143  23.953  28.608  11.152
25473W        W97144  11.155  34.147  12.574
25474W        W97145  17.087  19.234  10.697
25475W        W97146   8.595  18.961  11.567
25476W        W97147  29.971  11.968  11.434
25477W        W97148  37.699  12.679   3.176
25478W        W97149  26.697  21.039  12.954
25479W        W97150  23.964   0.016   0.384
25480W        W97151  41.338  25.298  13.709
25481W        W97152  36.986  18.564   1.238
25482W        W97153  43.935  43.976   2.186
25483W        W97154  22.589  43.798   0.255
25484W        W97155   8.780  13.228  13.170
25485W        W97156  25.664   4.868   4.302
25486W        W97157  12.387   3.349   0.250
25487W        W97158   6.336  14.656  14.020
25488W        W97159  41.785  16.708   4.089
25489W        W97160  42.268   3.293   2.758
25490W        W97161  37.573  35.046   3.777
25491W        W97162   9.706  34.139   2.562
25492W        W97163  12.543  20.059   2.243
25493W        W97164  27.489  34.538   1.279
25494W        W97165  26.064  13.784  11.080
25495W        W97166  20.183  28.412   0.317
25496W        W97167  43.324   1.859  12.805
25497W        W97168  39.576  44.773  14.452
25498W        W97169  16.509  15.054   0.020
25499W        W97170  19.495  34.608  14.843
25500W        W97171   9.189   2.516  10.926
25501W        W97172  12.639  20.524  14.680
25502W        W97173  36.061  39.180   0.034
25503W        W97174  23.649  21.843  12.703
25504W        W97175  30.667  39.036   4.697
25505W        W97176   1.481  23.758  12.037
25506W        W97177  30.402  44.241   3.750
25507W        W97178  11.739  28.622  14.484
25508W        W97179  27.828  23.739   4.166
25509W        W97180   4.741  36.515   3.379
25510W        W97181  14.836  16.172  13.900
25511W        W97182  34.184  14.825  14.016
25512W        W97183  25.944  15.591  13.410
25513W        W97184  31.542  33.460  13.359
25514W        W97185  34.848  20.617   1.781
25515W        W97186  33.022  43.418   0.504
25516W        W97187   0.878  35.624  10.744
25517W        W97188  36.494  19.054   0.764
25518W        W97189  35.139  29.051   0.309
25519W        W97190  27.694   0.950  11.950
25520W        W97191  20.199  19.261   0.707
25521W        W97192  11.196  12.800   0.692
25522W        W97193  10.791   9.056   1.184
25523W        W97194   8.816   9.163   3.745
25524W        W97195   3.590   7.979  14.218
25525W        W97196  23.245  21.563  13.743
25526W        W97197   8.303  35.475  11.067
25527W        W97198  25.411  39.661   0.782
25528W        W97199  13.416   6.379   3.408
25529W        W97200   4.400  32.696  14.135
25530W        W97201  41.313  21.470   2.418
25531W        W97202  12.752  19.538  14.853
25532W        W97203  28.149  16.077  10.621
25533W        W97204  29.769  32.137  12.403
25534W        W97205  20.325  35.953   1.039
25535W        W97206  24.741  12.193  13.519
25536W        W97207  23.560  10.079   4.508
25537W        W97208  19.528  44.506   4.582
25538W        W97209  19.101  22.254   0.786
25539W        W97210  36.922   5.943   0.891
25540W        W97211   4.475  28.532   1.385
25541W        W97212  36.342   8.873   3.328
25542W        W97213   3.205   2.231  11.578
25543W        W97214   7.330   4.054   2.283
25544W        W97215  13.881   8.973  14.029
25545W        W97216  41.886  34.935  11.583
25546W        W97217  12.303  41.480  13.282
25547W        W97218  11.929  35.512  12.916
25548W        W97219  12.123   5.998   1.827
25549W        W97220  13.461   4.271  13.569
25550W        W97221   0.392  23.075   3.169
25551W        W97222   5.317  34.919  12.018
25552W        W97223  16.047   0.663   2.737
25553W        W97224  31.169  39.056  14.988
25554W        W97225  15.702  10.308   3.658
25555W        W97226  37.946   4.843   0.363
25556W        W97227  40.220  31.891  11.533
25557W        W97228  21.688  31.573   4.452
25558W        W97229  39.852   8.767  11.723
25559W        W97230  25.497  24.654   0.749
25560W        W97231  36.857  38.700  11.406
25561W        W97232  28.161  34.884   1.741
25562W        W97233  26.419  26.537  11.895
25563W        W97234   2.300   2.318  11.315
25564W        W97235  36.456  15.427  14.830
25565W        W97236   5.305  25.936   1.834
25566W        W97237  44.708   5.388   1.762
25567W        W97238  11.709  13.568   3.073
25568W        W97239  13.882  32.003   3.211
25569W        W97240   9.801  35.658  11.993
25570W        W97241   6.050  40.424  11.482
25571W        W97242  43.857  27.445   3.611
25572W        W97243  41.937  37.825  11.872
25573W        W97244  44.530  30.602   2.011
25574W        W97245  40.241  27.820  11.948
25575W        W97246  44.274   9.718  12.610
25576W        W97247   1.924  37.833   0.630
25577W        W97248   9.424  10.154  11.539
25578W        W97249  44.985  16.117  13.974
25579W        W97250  38.486  18.501   0.725
25580W        W97251  10.359  14.625  14.955
25581W        W97252  35.230  10.656   3.077
25582W        W97253  15.950  10.428  12.071
25583W        W97254   4.452  17.175   3.351
25584W        W97255   8.543  42.284   4.035
25585W        W97256  11.754   0.432   1.800
25586W        W97257  33.160  20.136   3.611
25587W        W97258   2.766  37.909   0.302
25588W        W97259   7.185  20.007  11.163
25589W        W97260  15.796  30.416   1.750
25590W        W97261  33.565  43.577   3.393
25591W        W97262   2.186  29.598  12.142
25592W        W97263   5.792  42.734  14.274
25593W        W97264  42.530  16.904   0.020
25594W        W97265  17.629  10.659   2.589
25595W        W97266   7.875  33.056   2.280
25596W        W97267  39.169  44.285  11.090
25597W        W97268  35.228  38.976   0.071
25598W        W97269  10.292  19.571  11.129
25599W        W97270  38.082  32.535  14.452
25600W        W97271  19.433  44.967   2.332
25601W        W97272   6.880  20.106   1.797
25602W        W97273   5.662  31.633  13.354
25603W        W97274  14.823  27.937  12.708
25604W        W97275   2.152  20.125   3.471
25605W        W97276   9.127  19.259   2.661
25606W        W97277  42.971  16.558   0.107
25607W        W97278  14.295  33.875  14.244
25608W        W97279   3.907  38.564  10.466
25609W        W97280  36.538  42.259   4.932
25610W        W97281  32.686  23.718  14.020
25611W        W97282   3.739  27.468  14.239
25612W        W97283  13.986   2.932   0.825
25613W        W97284   9.148  17.412  14.862
25614W        W97285  28.704  10.663  11.178
25615W        W97286  14.789  14.196   0.504
25616W        W97287  17.045  30.715   1.476
25617W        W97288  19.644   8.646   2.387
25618W        W97289  27.720  11.258  14.217
25619W        W97290  31.984  16.689  13.487
25620W        W97291  23.394  20.598   3.281
25621W        W97292  15.761  19.526  11.580
25622W        W97293  33.982   6.344   4.071
25623W        W97294  33.584   8.231  12.609
25624W        W97295   0.936  33.050   4.455
25625W        W97296  42.343  38.454  12.388
25626W        W97297  19.445   2.256  13.609
25627W        W97298  43.348  44.536  12.664
25628W        W97299  19.641  34.204   3.359
25629W        W97300  20.084  21.318  12.445
25630W        W97301  44.648  27.007   3.696
25631W        W97302  15.251  25.683  14.485
25632W        W97303  21.529  42.501  13.330
25633W        W97304  34.688  13.384   1.284
25634W        W97305  15.231  21.682   2.566
25635W        W97306  44.064  24.837  11.626
25636W        W97307  18.337  29.522  12.959
25637W        W97308  21.642  32.370  12.926
25638W        W97309  44.287  44.900  10.952
25639W        W97310  19.577  43.272  11.602
25640W        W97311  12.468  15.253  13.943
25641W        W97312  40.265  35.282  13.740
25642W        W97313  32.811   2.308   1.208
25643W        W97314  43.218  32.997   0.766
25644W        W97315  39.930  13.208   0.370
25645W        W97316  30.840  40.641   0.788
25646W        W97317  34.596  21.269   2.803
25647W        W97318  21.660  29.551   4.749
25648W        W97319  29.627  11.257   4.693
25649W        W97320   5.392  17.729  14.188
25650W        W97321  14.343   0.722  11.968
25651W        W97322  30.187   0.330  11.641
25652W        W97323   9.072  31.657  12.906
25653W        W97324  34.852   1.379   1.830
25654W        W97325  34.810   8.792   3.286
25655W        W97326   0.238  34.552  13.365
25656W        W97327  22.510  22.854   1.390
25657W        W97328  25.948   5.602   1.199
25658W        W97329  13.829  12.825  14.254
25659W        W97330  23.774  26.495   0.814
25660W        W97331  32.724   8.753   4.144
25661W        W97332  31.531  40.043   0.809
25662W        W97333  29.572   0.837   3.592
25663W        W97334   8.285   3.239  10.646
25664W        W97335  30.539  27.174   2.261
25665W        W97336   1.546  36.196  14.037
25666W        W97337  18.195   3.768   1.256
25667W        W97338   6.784  35.865   1.183
25668W        W97339  24.951  14.652   4.112
25669W        W97340  28.707  32.464  12.100
25670W        W97341   4.448   5.058   0.410
25671W        W97342   5.568  20.075  13.991
25672W        W97343  23.231  23.170   4.139
25673W        W97344  17.725   7.690  12.086
25674W        W97345  12.686  19.863  13.539
25675W        W97346  40.044   7.937  12.132
25676W        W97347  43.338   0.041   0.366
25677W        W97348  25.241  28.604   1.393
25678W        W97349  23.737   6.344   3.193
25679W        W97350  27.403  40.349   1.771
25680W        W97351  43.411  10.783   4.683
25681W        W97352  32.036  21.755  12.513
25682W        W97353  17.527  39.043   2.390
25683W        W97354   6.256  37.838  13.000
25684W        W97355  34.301  24.289   4.139
25685W        W97356  32.093  29.527  14.821
25686W        W97357  41.970  10.322   4.505
25687W        W97358   6.215  44.398   3.692
25688W        W97359   2.038  12.293  12.174
25689W        W97360  31.134  18.528   3.459
25690W        W97361   8.121  11.532  11.111
25691W        W97362  10.525  12.683   4.124
25692W        W97363  30.204  39.008   4.259
25693W        W97364   4.589  39.734   3.622
25694W        W97365  29.935   9.670  11.476
25695W        W97366   8.527  27.228  14.934
25696W        W97367  42.386  25.655  14.389
25697W        W97368  34.901  10.652   4.638
25698W        W97369  24.553   9.716   0.239
25699W        W97370  26.142  27.763   4.559
25700W        W97371  18.807  11.352   0.631
25701W        W97372  25.768  14.878  12.000
25702W        W97373  25.413  38.301  10.785
25703W        W97374  12.659  42.680  11.584
25704W        W97375  43.708  29.737  13.825
25705W        W97376  23.492  41.342  13.952
25706W        W97377  44.454   3.925  13.807
25707W        W97378  23.074   9.273  11.510
25708W        W97379   9.136  26.369  10.437
25709W        W97380  17.838  19.333   0.242
25710W        W97381  21.742  32.108  12.433
25711W        W97382  23.192  36.621   2.377
25712W        W97383  33.461  26.175  12.867
25713W        W97384   3.990  44.754   2.221
25714W        W97385   2.538  43.299  12.845
25715W        W97386  26.169  25.456  13.358
25716W        W97387  17.198  32.862  14.403
25717W        W97388  29.140  19.782   1.722
25718W        W97389  30.027  26.591  14.556
25719W        W97390  26.949   6.369  11.888
25720W        W97391   0.038  36.393  13.800
25721W        W97392  39.576  19.672  10.676
25722W        W97393  40.161  36.241  12.439
25723W        W97394  18.209  19.324  13.885
25724W        W97395  43.546   3.419   0.089
25725W        W97396   5.221   3.765   4.340
25726W        W97397  16.771  34.859  11.915
25727W        W97398  14.279  12.185   4.324
25728W        W97399   9.928  39.868  13.832
25729W        W97400  34.398  29.652   4.079
25730W        W97401  15.550  43.439  13.533
25731W        W97402  19.442  30.554   3.245
25732W        W97403   7.132  34.001  12.769
25733W        W97404   0.891   3.670  12.644
25734W        W97405   7.741  44.376   4.615
25735W        W97406  18.066   3.747  12.191
25736W        W97407  29.481   2.424  12.962
25737W        W97408   9.182  33.900   1.976
25738W        W97409   3.806  22.944   2.232
25739W        W97410  16.854  40.485   3.554
25740W        W97411  36.431  11.053   1.994
25741W        W97412  28.208  18.567   3.281
25742W        W97413  28.902  30.903   2.447
25743W        W97414   5.212  31.912  12.966
25744W        W97415  38.463  27.722   2.148
25745W        W97416  14.836  10.561  10.791
25746W        W97417  41.962   4.828   0.283
25747W        W97418  37.479   2.469   0.143
25748W        W97419  32.715   8.486  14.394
25749W        W97420  19.320   8.187   2.413
25750W        W97421  11.918  38.448   2.241
25751W        W97422  42.049  43.928  12.596
25752W        W97423  13.160  26.644   0.448
25753W        W97424  29.526   1.173  13.473
25754W        W97425  33.485  24.453  11.234
25755W        W97426  29.287  28.095  10.365
25756W        W97427  33.518   4.230   3.974
25757W        W97428  25.960  15.311  11.224
25758W        W97429  31.942  40.560   1.467
25759W        W97430  21.196  21.743  10.560
25760W        W97431   1.327  17.242   4.563
25761W        W97432   4.027  18.526   0.756
25762W        W97433  19.668  26.379  14.840
25763W        W97434  31.637  30.927   1.605
25764W        W97435  38.783  14.669   2.478
25765W        W97436   1.464  35.296  13.597
25766W        W97437  12.750  34.938  12.929
25767W        W97438   5.303   9.670   4.913
25768W        W97439  20.710  11.113  14.352
25769W        W97440  27.077  31.044  13.487
25770W        W97441  23.913  33.272   0.866
25771W        W97442  40.444  20.637  12.959
25772W        W97443   8.119  21.877  12.421
25773W        W97444   0.277   7.803  14.345
25774W        W97445  38.337  29.906  14.773
25775W        W97446   1.002  44.881  13.085
25776W        W97447  44.436  44.991   1.818
25777W        W97448  28.493  12.574  14.074
25778W        W97449  16.199   3.799  14.994
25779W        W97450  38.025  19.262   4.556
25780W        W97451  14.713  38.846  12.927
25781W        W97452  11.574  26.926  11.460
25782W        W97453  28.907  32.627   2.620
25783W        W97454  27.537  23.167  14.831
25784W        W97455  19.845  11.888  14.079
25785W        W97456  39.578  13.585   4.101
25786W        W97457  11.073  24.258  12.143
25787W        W97458  27.100  28.563  13.572
25788W        W97459  26.136  38.820   4.804
25789W        W97460   2.198  42.443  11.769
25790W        W97461  44.885   2.681   2.887
25791W        W97462  29.610   9.824   5.155
25792W        W97463   9.002  18.232  12.860
25793W        W97464   1.664   8.815  11.545
25794W        W97465   1.493   3.650  14.017
25795W        W97466  43.349  13.278   4.783
25796W        W97467  10.564  41.448   1.350
25797W        W97468  39.986  10.583   3.760
25798W        W97469  33.496  37.057   4.985
25799W        W97470  29.366  29.502   0.328
25800W        W97471   1.240   0.337  14.196
25801W        W97472   6.280   5.353  10.669
25802W        W97473  12.447  29.326  13.580
25803W        W97474  16.530  38.570  13.924
25804W        W97475  24.434   2.543   3.674
25805W        W97476  14.089  15.953   4.650
25806W        W97477  25.662  14.104   1.451
25807W        W97478  38.059  28.051  12.354
25808W        W97479  18.515  38.404  11.680
25809W        W97480   4.766  19.109  10.596
25810W        W97481  38.480  28.521  13.080
25811W        W97482   5.998  21.577  14.421
25812W        W97483  31.877   8.945   3.337
25813W        W97484  22.511  23.897  14.094
25814W        W97485  44.835  41.034  11.062
25815W        W97486  43.108  30.515  12.529
25816W        W97487  10.191  44.382   3.345
25817W        W97488  16.582   4.329   4.572
25818W        W97489  38.414  17.163  12.616
25819W        W97490  40.851   5.181   0.040
25820W        W97491  25.686  13.213   4.426
25821W        W97492  37.362  22.776   3.266
25822W        W97493  38.659  37.665  12.334
25823W        W97494  12.097  23.221   0.835
25824W        W97495   3.754  16.316   1.273
25825W        W97496  28.776  12.727  10.402
25826W        W97497  10.908   1.900   4.285
25827W        W97498   2.242   9.965  14.429
25828W        W97499  36.588   4.454  13.428
25829W        W97500  11.398  28.402  11.171
25830W        W97501   4.899  13.155   2.394
25831W        W97502  36.023  37.518  10.619
25832W        W97503   9.710  14.762   3.699
25833W        W97504   5.903  28.376   3.109
25834W        W97505  33.243  24.704   4.749
25835W        W97506   4.805   3.716  14.968
25836W        W97507   4.789  16.637   2.845
25837W        W97508   7.496  19.280   3.724
25838W        W97509  16.487  40.972  12.062
25839W        W97510  21.040  27.715   0.672
25840W        W97511  25.990  39.318   2.651
25841W        W97512  16.410   7.862   0.293
25842W        W97513  32.479  35.876   1.411
25843W        W97514   1.395  21.429   2.401
25844W        W97515  44.525  23.026  13.805
25845W        W97516  29.421  15.912  14.053
25846W        W97517  16.806  12.754  12.603
25847W        W97518  22.694  10.896  12.901
25848W        W97519  21.651   5.915  14.045
25849W        W97520  24.162  30.489  14.821
25850W        W97521  18.203   0.346  10.954
25851W        W97522  35.360   3.945  13.371
25852W        W97523  10.427  26.171  14.881
25853W        W97524  21.471  10.493   2.377
25854W        W97525  24.533  22.593   1.471
25855W        W97526  44.729  36.130  12.466
25856W        W97527  30.131   7.592   4.509
25857W        W97528  36.643  20.764   0.543
25858W        W97529   3.063  41.218   0.799
25859W        W97530  24.218  36.483  13.381
25860W        W97531  41.786   3.050  11.362
25861W        W97532  28.097  22.477   4.615
25862W        W97533   2.509  16.234  12.630
25863W        W97534  34.419  40.844   1.334
25864W        W97535  31.405   8.591  14.943
25865W        W97536  10.317  16.041  12.021
25866W        W97537   7.995  41.547  13.253
25867W        W97538  29.275  24.433  11.122
25868W        W97539  40.807  29.171   0.098
25869W        W97540  29.510  22.397   2.005
25870W        W97541   8.132  14.236   3.385
25871W        W97542  20.561  18.295   0.315
25872W        W97543   2.642  39.013  12.398
25873W        W97544  11.250  36.953  10.984
25874W        W97545  14.779  19.974   1.741
25875W        W97546  38.114   4.728  10.619
25876W        W97547  37.832  15.282   4.538
25877W        W97548  22.807  20.876  13.021
25878W        W97549  17.575   7.822   2.924
25879W        W97550  35.144  14.955   3.462
25880W        W97551   3.332  13.437   0.745
25881W        W97552  28.673  18.021   1.841
25882W        W97553  31.522   9.839  13.515
25883W        W97554   8.637   9.881  11.020
25884W        W97555   5.000  24.196   4.511
25885W        W97556   3.719  44.389  12.036
25886W        W97557  14.749  38.167   2.688
25887W        W97558   3.891  17.671  10.502
25888W        W97559  14.626  11.318   0.401
25889W        W97560  11.089   9.780   0.461
25890W        W97561   8.208  11.230   2.875
25891W        W97562  34.690  33.171  13.067
25892W        W97563   2.621  18.286   4.194
25893W        W97564  30.622   2.890   4.343
25894W        W97565  37.051  37.517   3.885
25895W        W97566  36.623  22.514   0.760
25896W        W97567  25.686  21.319   2.682
25897W        W97568   3.228  29.595  12.079
25898W        W97569   2.468  37.485   0.492
25899W        W97570  30.147  29.016   2.732
25900W        W97571   2.587  29.762   5.197
25901W        W97572  37.886   9.823   2.857
25902W        W97573  31.155  20.858   3.277
25903W        W97574  22.954   8.845  10.759
25904W        W97575   2.319  41.323   1.923
25905W        W97576   6.805  19.551   4.160
25906W        W97577  17.955  42.008   2.340
25907W        W97578  34.275  23.634   0.075
25908W        W97579  34.621  18.585   0.614
25909W        W97580  17.725  10.362  11.429
25910W        W97581   3.979  10.618  13.864
25911W        W97582  16.877  20.703  13.933
25912W        W97583  17.099  34.410  11.194
25913W        W97584   6.656  21.094   3.728
25914W        W97585  43.583  29.681   3.318
25915W        W97586  30.276  40.233  11.950
25916W        W97587  37.922   3.282  14.878
25917W        W97588   0.711  14.634   2.409
25918W        W97589   1.916  41.933   1.506
25919W        W97590  15.777  25.558   1.679
25920W        W97591  26.091  10.317   2.995
25921W        W97592  36.834  27.521   3.889
25922W        W97593   9.137  40.837  12.606
25923W        W97594  43.279  35.935  11.189
25924W        W97595  29.795  37.517   1.381
25925W        W97596  38.425   9.393   3.265
25926W        W97597  24.974  19.778  13.437
25927W        W97598  37.032  30.194   3.672
25928W        W97599  22.796  44.952   0.935
25929W        W97600   5.484  12.758   3.649
25930W        W97601  13.694  32.652  13.893
25931W        W97602  16.330  31.089  12.385
25932W        W97603  24.897  16.652  11.095
25933W        W97604   7.743  17.079   4.571
25934W        W97605  22.735   0.899   4.708
25935W        W97606  28.455  33.545  13.013
25936W        W97607   1.974  43.929  14.902
25937W        W97608  32.047  15.803   3.258
25938W        W97609  43.642  41.146  10.947
25939W        W97610  30.135  35.467   3.168
25940W        W97611  22.375  24.785   5.644
25941W        W97612  36.100  26.491   2.272
25942W        W97613  14.063  19.449   2.007
25943W        W97614  43.171  41.232   3.101
25944W        W97615  29.670  30.498   2.753
25945W        W97616  38.291  11.645  12.573
25946W        W97617   0.824  37.731  13.015
25947W        W97618  34.351   3.814   4.353
25948W        W97619  12.539  27.572  13.403
25949W        W97620  44.910  40.782   2.805
25950W        W97621  32.156  35.964  13.116
25951W        W97622  16.520  13.604  11.102
25952W        W97623   1.862  20.583  14.918
25953W        W97624   9.187  20.049  13.895
25954W        W97625  26.805  21.131  14.807
25955W        W97626  15.577  27.620   2.582
25956W        W97627   6.853  24.902   5.012
25957W        W97628   7.487  41.608  10.299
25958W        W97629  18.068   2.937   2.761
25959W        W97630  21.037  12.720   4.505
25960W        W97631  16.498   7.019   2.538
25961W        W97632  25.980  26.652  12.927
25962W        W97633  10.445  30.219   2.371
25963W        W97634  28.100   1.951   0.835
25964W        W97635  40.770  39.717   0.930
25965W        W97636  36.563  15.848   3.363
25966W        W97637  14.660  43.246  13.038
25967W        W97638   3.598  11.042  12.676
25968W        W97639  34.755  10.248  11.126
25969W        W97640  17.445  35.688   1.322
25970W        W97641  22.292  31.886   2.004
25971W        W97642  42.877   4.294   1.029
25972W        W97643  24.776  38.520  14.942
25973W        W97644  24.009  19.159   2.754
25974W        W97645  39.862  14.752   1.485
25975W        W97646  12.363  40.288   2.333
25976W        W97647  30.659   7.327   1.222
25977W        W97648   0.788   8.720   4.299
25978W        W97649  19.994   3.029  13.600
25979W        W97650  27.148  15.837   4.228
25980W        W97651  18.014  30.879   2.228
25981W        W97652   5.251  23.461  11.807
25982W        W97653  33.177  40.973  12.376
25983W        W97654  34.878  11.928   4.186
25984W        W97655  11.627  14.893  13.494
25985W        W97656  40.899  42.295   1.237
25986W        W97657  20.796  14.397   4.129
25987W        W97658  28.094  10.353   9.976
25988W        W97659  24.481   0.350   1.441
25989W        W97660  20.162   2.186   1.877
25990W        W97661  31.416  41.522   4.380
25991W        W97662   5.214  41.952  10.814
25992W        W97663  21.987   8.438   0.414
25993W        W97664  34.810  42.968   3.980
25994W        W97665  27.280  21.695   3.219
25995W        W97666  19.684   3.671   1.336
25996W        W97667  39.254  30.566   4.254
25997W        W97668  22.226  43.745   2.857
25998W        W97669  20.006   8.743  13.062
25999W        W97670  44.211  41.104  14.811
26000W        W97671  10.918  11.578  12.850
26001W        W97672  33.056  36.204   2.644
26002W        W97673  41.469  27.998   1.311
26003W        W97674   9.445  34.503  10.291
26004W        W97675  15.104   9.764  11.516
26005W        W97676   2.803  21.549   3.680
26006W        W97677  17.523  17.042  13.878
26007W        W97678  27.013  19.650   2.110
26008W        W97679  31.730  37.521   4.030
26009W        W97680  10.711  21.696   1.330
26010W        W97681  13.783   1.934  12.168
26011W        W97682  13.048  22.366  12.912
26012W        W97683  28.738   8.703   0.887
26013W        W97684  20.140  22.605   2.241
26014W        W97685  13.074  31.216   0.692
26015W        W97686  32.997  29.499  11.912
26016W        W97687  30.939  17.554  11.707
26017W        W97688  44.296  16.799  11.601
26018W        W97689   1.189  36.979   0.436
26019W        W97690  37.968  18.522   2.214
26020W        W97691   1.289  35.548   3.275
26021W        W97692   3.240  22.069  13.400
26022W        W97693  33.544  37.598  14.257
26023W        W97694  18.526   6.346  13.347
26024W        W97695  32.036   1.014   2.321
26025W        W97696  14.564  16.110   3.844
26026W        W97697  15.883  42.084   1.414
26027W        W97698  20.514  25.809  13.044
26028W        W97699  40.391  10.490  10.676
26029W        W97700  44.739  37.530  14.322
26030W        W97701  31.501   8.772  12.467
26031W        W97702  38.060  33.606   1.222
26032W        W97703  42.293  43.263   3.988
26033W        W97704  43.960  10.722  12.397
26034W        W97705  24.079  15.261   2.590
26035W        W97706  21.230   8.815   3.776
26036W        W97707   7.414   6.591   3.818
26037W        W97708  23.020  19.047  11.575
26038W        W97709  23.034  12.556   3.433
26039W        W97710   5.116  24.689   0.476
26040W        W97711  21.587  31.073   0.383
26041W        W97712  37.741   8.354   1.447
26042W        W97713  21.095  40.113  12.005
26043W        W97714  44.306   3.035   1.887
26044W        W97715  23.676   2.343  13.823
26045W        W97716  17.905  12.482  11.597
26046W        W97717  44.380   5.143   0.567
26047W        W97718  30.372  13.548  12.439
26048W        W97719  17.715   3.653  13.451
26049W        W97720  32.984  35.513  12.793
26050W        W97721  20.541  15.477  13.007
26051W        W97722  40.753   5.393   2.511
26052W        W97723   6.454  40.172  11.690
26053W        W97724  36.539  20.310   3.444
26054W        W97725   3.764  35.851  12.510
26055W        W97726  44.701  14.731  13.551
26056W        W97727  19.447  28.464   3.661
26057W        W97728  13.745  19.969  10.508
26058W        W97729  15.538  30.499  10.649
26059W        W97730  34.978  31.636  14.392
26060W        W97731  18.281  13.743   0.746
26061W        W97732  35.063  33.728   3.188
26062W        W97733  39.490  41.805   2.877
26063W        W97734  39.396  18.262  12.426
26064W        W97735  20.173  42.108   4.686
26065W        W97736   5.874  42.274   2.199
26066W        W97737  33.894  22.858   4.581
26067W        W97738   1.014   6.308   4.761
26068W        W97739  39.754  20.668   0.753
26069W        W97740  12.940  17.387   2.541
26070W        W97741  24.651  13.993   2.720
26071W        W97742   9.165  39.868   4.539
26072W        W97743  19.028  10.823   2.332
26073W        W97744  34.655  15.737   1.378
26074W        W97745  29.175  43.950  12.894
26075W        W97746  41.554  41.876   2.672
26076W        W97747   7.377  22.739  13.757
26077W        W97748  13.551  37.493   4.644
26078W        W97749  31.048   3.843   0.512
26079W        W97750  21.268  30.450   2.954
26080W        W97751  42.017  19.631  13.469
26081W        W97752  21.011  18.567  12.497
26082W        W97753  23.969  24.688  12.065
26083W        W97754  15.062   2.710  11.752
26084W        W97755  16.448  29.884  13.134
26085W        W97756  34.596  44.302  13.284
26086W        W97757  13.957  26.643   2.335
26087W        W97758  13.239  32.886   1.852
26088W        W97759   4.780  32.754  13.084
26089W        W97760   0.444  28.753  11.642
26090W        W97761  34.006   9.808   2.720
26091W        W97762   5.347   9.432  13.770
26092W        W97763  23.562  42.775  12.128
26093W        W97764  31.501   0.351   2.388
26094W        W97765  16.858  20.131  12.641
26095W        W97766  13.284  14.260   5.097
26096W        W97767  36.521  35.388   1.271
26097W        W97768  14.300  19.110  13.582
26098W        W97769   5.125  24.331  13.867
26099W        W97770  36.492  40.297  11.722
26100W        W97771  38.756   8.313   4.562
26101W        W97772   1.306  22.107   0.042
26102W        W97773  38.016   4.313   1.814
26103W        W97774  27.096  20.534   4.034
26104W        W97775   3.730  30.339  12.953
26105W        W97776  38.381   5.718  13.346
26106W        W97777  23.535  37.631  14.335
26107W        W97778  16.181  17.312   1.236
26108W        W97779  43.039  20.052  12.615
26109W        W97780  28.486  38.347  11.153
26110W        W97781  27.935  39.520   3.566
26111W        W97782  17.816  43.754  14.036
26112W        W97783  28.660  37.507  10.577
26113W        W97784  28.451   1.891   2.197
26114W        W97785  42.908  25.423   1.444
26115W        W97786  34.562  10.212  12.959
26116W        W97787   9.216  43.819  12.212
26117W        W97788  27.652  35.578  11.129
26118W        W97789   9.475   3.360   0.514
26119W        W97790  18.098  36.958  14.154
26120W        W97791  33.325  37.448   2.869
26121W        W97792  42.886  44.210   0.239
26122W        W97793  33.083  31.189   4.148
26123W        W97794  31.443  23.431   4.150
26124W        W97795  24.157  33.573   4.708
26125W        W97796   6.850  21.548   4.428
26126W        W97797   9.108   2.715   4.713
26127W        W97798  11.330  12.382   0.378
26128W        W97799  14.739  24.580   1.571
26129W        W97800  19.964  22.758   1.761
26130W        W97801  32.634  17.129   1.402
26131W        W97802   7.483  16.686  12.579
26132W        W97803  22.976   7.455  13.365
26133W        W97804  43.954  21.974   1.302
26134W        W97805  15.936   9.459   3.035
26135W        W97806  21.543  11.014   2.309
26136W        W97807   3.214   6.014   0.759
26137W        W97808  18.979   6.302   2.632
26138W        W97809  35.472  10.086   2.170
26139W        W97810   8.639  19.158  10.674
26140W        W97811   0.615  36.147   1.488
26141W        W97812  30.897  42.875   0.725
26142W        W97813  32.576  13.157  12.533
26143W        W97814   9.207   9.791  12.196
26144W        W97815   9.628  39.081  11.494
26145W        W97816  20.533  30.182   1.856
26146W        W97817   2.534  42.145   3.157
26147W        W97818  37.857   5.178  10.528
26148W        W97819  39.122  32.978   0.557
26149W        W97820  31.784  22.565   2.803
26150W        W97821   7.476  37.350   1.215
26151W        W97822  31.974  26.239   5.084
26152W        W97823  17.470  17.088  12.505
26153W        W97824   2.888   3.697   0.005
26154W        W97825  42.763  12.768  12.921
26155W        W97826  22.588  14.046  10.214
26156W        W97827  36.859  15.385  12.074
26157W        W97828  32.798  26.615   5.312
26158W        W97829  41.059   5.437  14.242
26159W        W97830  14.399   4.274  11.144
26160W        W97831  37.293  41.522   0.581
26161W        W97832  42.724  38.577  11.968
26162W        W97833  28.230  21.280  12.069
26163W        W97834  38.482  17.625   1.134
26164W        W97835  20.307  19.036  11.179
26165W        W97836  31.369  24.958   0.782
26166W        W97837  17.257   6.266   3.119
26167W        W97838  29.814   7.570   5.422
26168W        W97839  18.545  16.590   1.296
26169W        W97840  26.381  22.129  12.393
26170W        W97841  22.523   4.340   3.410
26171W        W97842  11.460  10.651   3.258
26172W        W97843   4.801   6.568   4.160
26173W        W97844   9.677  39.932   0.464
26174W        W97845  34.344   6.688  11.163
26175W        W97846  16.173  17.293   0.034
26176W        W97847  29.702  18.015   3.770
26177W        W97848  37.730  43.923  13.979
26178W        W97849  15.229  32.893  11.883
26179W        W97850  13.846  39.130  10.838
26180W        W97851  39.006  24.239   4.164
26181W        W97852  22.753  38.949  13.002
26182W        W97853  13.072  10.893  13.425
26183W        W97854  18.138  38.114  10.910
26184W        W97855   2.517  12.205   3.198
26185W        W97856  18.626   0.832   2.153
26186W        W97857   3.708  36.188  14.495
26187W        W97858  20.121  29.163   4.801
26188W        W97859  22.624   6.887   0.913
26189W        W97860  11.298  17.799  11.229
26190W        W97861  29.306   6.888  14.915
26191W        W97862  24.310  26.555   1.691
26192W        W97863   0.838  25.482  14.937
26193W        W97864  26.712  12.178  11.529
26194W        W97865  33.339  36.104  13.834
26195W        W97866  24.224  13.166   0.831
26196W        W97867  17.997  21.596   2.912
26197W        W97868  33.928  26.974  12.521
26198W        W97869  36.534   7.033  14.219
26199W        W97870   4.204  10.017   4.099
26200W        W97871  31.437  26.448   4.614
26201W        W97872  13.148   2.405   2.804
26202W        W97873   4.851  27.224   1.920
26203W        W97874  15.792  39.705   1.385
26204W        W97875  20.201  42.909   0.398
26205W        W97876  23.362  40.283   1.713
26206W        W97877  23.675  34.350  13.620
26207W        W97878  23.517   6.474  11.492
26208W        W97879  19.328  31.957  10.237
26209W        W97880  21.000   1.193   0.739
26210W        W97881  17.513  33.383   2.766
26211W        W97882  39.147   7.938  10.814
26212W        W97883  19.083  31.594  12.564
26213W        W97884   4.180  20.569  12.377
26214W        W97885  21.183  22.983   4.576
26215W        W97886  29.760   9.300   5.110
26216W        W97887  34.414   1.940  14.880
26217W        W97888  33.988  24.238   3.279
26218W        W97889  35.093  37.615   1.334
26219W        W97890   4.382  11.556  14.912
26220W        W97891   2.751   0.821  14.234
26221W        W97892  29.477  40.455  14.834
26222W        W97893   0.150  43.443   2.211
26223W        W97894  27.575   0.782   0.400
26224W        W97895  27.581  29.604   1.276
26225W        W97896   9.685   6.316   0.005
26226W        W97897   6.417  22.283  10.545
26227W        W97898  31.622  18.964   4.193
26228W        W97899   2.770   0.379  13.487
26229W        W97900  16.009   5.686  11.222
26230W        W97901  24.876  26.567  12.039
26231W        W97902  22.250   4.790  14.399
26232W        W97903  24.657  17.220  13.048
26233W        W97904  14.269  20.083   4.669
26234W        W97905  40.915  26.884   1.739
26235W        W97906  40.939  19.560   0.139
26236W        W97907  12.143  25.495   1.638
26237W        W97908  27.887  41.022  11.004
26238W        W97909  26.412  17.169   4.035
26239W        W97910  13.882   0.371   4.155
26240W        W97911  35.060  10.612   0.923
26241W        W97912  17.968   8.636  14.003
26242W        W97913  32.759  36.884  14.490
26243W        W97914  42.493  44.704  14.988
26244W        W97915  10.722   4.378  12.037
26245W        W97916   5.805   3.667  11.083
26246W        W97917  40.612   5.787  11.265
26247W        W97918  29.754  27.517  11.167
26248W        W97919  30.176  30.125  12.306
26249W        W97920  29.549  29.671  12.395
26250W        W97921  19.659  28.383  12.483
26251W        W97922  11.858  33.656   0.699
26252W        W97923  31.898  35.415   0.837
26253W        W97924  34.173  12.370  13.525
26254W        W97925  33.118  10.611  11.621
26255W        W97926  32.400  21.229   5.059
26256W        W97927  42.237  36.334   4.163
26257W        W97928  22.621  22.878   3.580
26258W        W97929  16.495  41.355  14.074
26259W        W97930   7.186  33.558  14.982
26260W        W97931  27.601  43.591   3.728
26261W        W97932  11.565   9.986  11.260
26262W        W97933  38.696  44.838   1.180
26263W        W97934  11.700  25.575   2.305
26264W        W97935  41.879  37.162  14.920
26265W        W97936  18.999  14.107  12.211
26266W        W97937   4.433  15.035  12.560
26267W        W97938   0.416  10.801   3.718
26268W        W97939  26.436  21.684   3.120
26269W        W97940  25.694   9.400  13.617
26270W        W97941   6.258  21.582   0.295
26271W        W97942  39.680  19.358   1.821
26272W        W97943  28.223  15.887   1.376
26273W        W97944  32.057  10.922   1.455
26274W        W97945   4.560   3.833  13.506
26275W        W97946   1.968  20.962   1.688
26276W        W97947  13.612   3.387  12.959
26277W        W97948  10.325  18.125  12.090
26278W        W97949   2.935  22.751  13.612
26279W        W97950   2.651  22.547  12.908
26280W        W97951   8.504  18.463  13.703
26281W        W97952  21.951  15.419   0.461
26282W        W97953  14.530  37.540   0.423
26283W        W97954  18.292  40.887  14.855
26284W        W97955  34.883  40.166   4.371
26285W        W97956   3.603  44.760   4.052
26286W        W97957  41.840  24.479  14.845
26287W        W97958  35.012  20.132  11.601
26288W        W97959   6.763  22.934   4.536
26289W        W97960  17.879  35.220  14.354
26290W        W97961  40.405  40.486   0.493
26291W        W97962  19.811  40.032  13.416
26292W        W97963  19.810  18.495   2.739
26293W        W97964  34.568  21.038   0.782
26294W        W97965  31.539  26.737  13.091
26295W        W97966  37.379   3.878   2.211
26296W        W97967   2.439  22.043  13.026
26297W        W97968  16.425  31.103   0.230
26298W        W97969  38.448  38.368  10.707
26299W        W97970  34.970  37.108  12.476
26300W        W97971   9.424  18.537  13.985
26301W        W97972   9.929  13.801  14.856
26302W        W97973  18.180  15.013   1.918
26303W        W97974  30.712  26.214   3.323
26304W        W97975  22.416  29.949   4.625
26305W        W97976  24.498  40.815  13.353
26306W        W97977  13.157  39.557   0.793
26307W        W97978  18.635   9.816  11.819
26308W        W97979   2.544  22.625   4.519
26309W        W97980  23.277  25.549  14.908
26310W        W97981  34.359  21.166   4.138
26311W        W97982  36.326  26.898  12.968
26312W        W97983  21.027  43.744  12.788
26313W        W97984  22.021  32.500  14.776
26314W        W97985  25.730  30.820   0.733
26315W        W97986  29.460  25.865   4.567
26316W        W97987  22.095  38.531   4.550
26317W        W97988  13.559   4.012   3.781
26318W        W97989  32.054   9.737   4.897
26319W        W97990  30.684  44.108   2.392
26320W        W97991  38.053  24.976  14.313
26321W        W97992   7.194  43.117   1.262
26322W        W97993   4.551   0.520   5.088
26323W        W97994  33.865  27.131   0.830
26324W        W97995  16.241  12.702  11.787
26325W        W97996  35.555   7.386  12.963
26326W        W97997  31.150  17.194  10.703
26327W        W97998  31.857  39.015  11.576
26328W        W97999  12.788  20.822  11.752
26329W        W98000   8.154   4.698   1.804
26330W        W98001  13.810  10.450  12.587
26331W        W98002  24.670  35.018   1.158
26332W        W98003  14.810   0.902   2.793
26333W        W98004  39.201  18.232  13.887
26334W        W98005  25.289  14.244  13.225
26335W        W98006   3.948  29.024   0.299
26336W        W98007  31.563  31.026  13.914
26337W        W98008  16.898  28.012   0.025
26338W        W98009  37.520  23.270   3.184
26339W        W98010  30.628  33.094  13.386
26340W        W98011  26.549   1.160  14.550
26341W        W98012   2.886   4.602  14.499
26342W        W98013  20.269  43.402  11.015
26343W        W98014  41.882  15.093   4.934
26344W        W98015  10.897   4.284   0.744
26345W        W98016  22.656  38.492  10.070
26346W        W98017  12.908  27.163  10.981
26347W        W98018  37.876  36.026  14.938
26348W        W98019  20.476   5.935   2.722
26349W        W98020  22.596  35.560   1.429
26350W        W98021  33.171  33.976   0.438
26351W        W98022  18.822  36.097  10.003
26352W        W98023  25.673   9.669   3.101
26353W        W98024  21.161  31.997   1.438
26354W        W98025  44.562  25.804  12.818
26355W        W98026  10.770  39.876   1.824
26356W        W98027  35.769  26.072   2.196
26357W        W98028   6.268  21.842  13.822
26358W        W98029  35.540   7.489   0.995
26359W        W98030   9.789  17.763  10.714
26360W        W98031  37.861  27.015   1.761
26361W        W98032  15.827  21.983  11.132
26362W        W98033  15.652  44.094  10.664
26363W        W98034  13.480   0.247  13.586
26364W        W98035  10.075   7.816  13.795
26365W        W98036  29.946   6.433   0.356
26366W        W98037  23.581  35.804   2.310
26367W        W98038   5.261  28.084  12.440
26368W        W98039   5.782  11.701   1.095
26369W        W98040  14.119  43.993  14.102
26370W        W98041  18.711   9.285   4.208
26371W        W98042  43.598  36.560  14.467
26372W        W98043   2.273   2.910   1.475
26373W        W98044  32.340  42.242  14.211
26374W        W98045  37.389  37.820   0.886
26375W        W98046  16.724  29.653  14.471
26376W        W98047  38.773  34.088  11.082
26377W        W98048   0.477  24.043   3.635
26378W        W98049   4.798  24.169  13.302
26379W        W98050  37.509  34.663  14.953
26380W        W98051   9.301   6.279  14.632
26381W        W98052   8.307  14.557   1.162
26382W        W98053  22.979  42.905  14.337
26383W        W98054   7.844   7.809  12.832
26384W        W98055  31.942  13.459   4.774
26385W        W98056  23.058  42.374   2.490
26386W        W98057  26.681  27.425   3.309
26387W        W98058   0.177  23.974   1.295
26388W        W98059  13.209  18.998  14.602
26389W        W98060  41.586  39.897   4.738
26390W        W98061  43.827   8.872  13.477
26391W        W98062  26.760  34.930  11.931
26392W        W98063  12.658  28.219  11.190
26393W        W98064  11.798   5.916  14.446
26394W        W98065  24.986  23.945   2.797
26395W        W98066  16.702  16.584   2.287
26396W        W98067  41.780  29.432   2.134
26397W        W98068  43.075  10.408   3.522
26398W        W98069   7.101  36.404   0.390
26399W        W98070  28.758  23.467  11.999
26400W        W98071  38.413  22.460  14.719
26401W        W98072  43.023  13.758  14.443
26402W        W98073  32.106  43.967   0.388
26403W        W98074  13.847  15.684  13.915
26404W        W98075   1.745  26.035  14.883
26405W        W98076  26.191  26.214   1.663
26406W        W98077  35.982   9.829   0.332
26407W        W98078  36.781  15.790   4.698
26408W        W98079  42.941   2.538  11.944
26409W        W98080  39.855   6.132  12.446
26410W        W98081  30.569   5.991  14.898
26411W        W98082   1.824  14.139   0.216
26412W        W98083  24.267  43.426   1.828
26413W        W98084  25.258  33.493  11.520
26414W        W98085  25.274  40.804  12.766
26415W        W98086   3.672  11.119   3.813
26416W        W98087  44.308  34.343  11.100
26417W        W98088  23.442  33.368  14.101
26418W        W98089  44.681  14.247   2.316
26419W        W98090  20.552  33.700  14.678
26420W        W98091  27.473  38.896   1.548
26421W        W98092  26.945   6.884   3.791
26422W        W98093   1.033  35.005   0.897
26423W        W98094  22.096  14.329  11.889
26424W        W98095  11.800  17.381   4.389
26425W        W98096  36.538  36.260  10.638
26426W        W98097  40.150  40.755  12.867
26427W        W98098  20.108   0.506  11.518
26428W        W98099  41.429   8.385  14.944
26429W        W98100   6.634  12.373  13.950
26430W        W98101  26.671  33.549   2.297
26431W        W98102   4.393  18.819  11.842
26432W        W98103  23.130  23.637   1.181
26433W        W98104  42.145  14.451   5.006
26434W        W98105  37.202  34.523  11.958
26435W        W98106  22.076  38.991   1.951
26436W        W98107   5.110   3.279   0.848
26437W        W98108  10.970   4.807   2.297
26438W        W98109   8.166  29.521  13.914
26439W        W98110  20.376  33.551  10.353
26440W        W98111  15.153   6.357   1.486
26441W        W98112  20.842  27.768  13.891
26442W        W98113   5.372  37.827  12.870
26443W        W98114  30.100   2.093   2.743
26444W        W98115   1.975  26.018  13.915
26445W        W98116  42.938  19.047  14.407
26446W        W98117  22.263  10.687   0.404
26447W        W98118  12.138   5.678   3.212
26448W        W98119   4.806  23.979  12.312
26449W        W98120  29.591  13.754   0.327
26450W        W98121  23.935  26.140   4.579
26451W        W98122  37.943  21.855   0.927
26452W        W98123  39.920   5.661  11.797
26453W        W98124  28.284  36.089  12.902
26454W        W98125  15.746  20.688   1.038
26455W        W98126  41.049   5.938  12.536
26456W        W98127  14.774  34.466  13.071
26457W        W98128  26.272  44.398   4.102
26458W        W98129  42.862  32.368   3.205
26459W        W98130  30.194  23.462  13.041
26460W        W98131  40.808   3.652  10.742
26461W        W98132   5.622  18.754   2.368
26462W        W98133  41.066  28.165  13.893
26463W        W98134   8.807   7.033   4.827
26464W        W98135  40.354  15.159   4.955
26465W        W98136   5.229  13.140   2.831
26466W        W98137  17.864   2.830   0.840
26467W        W98138   6.106   2.480  11.825
26468W        W98139   1.677  42.441  11.659
26469W        W98140   5.909  32.392  10.665
26470W        W98141  15.934   7.286  10.172
26471W        W98142   1.662  22.348  14.749
26472W        W98143  10.377  20.856  14.548
26473W        W98144  13.826  39.772  14.783
26474W        W98145   0.616  24.204   0.378
26475W        W98146   5.745   4.402   4.567
26476W        W98147   4.265  16.076  12.540
26477W        W98148   3.917  21.976  14.237
26478W        W98149  34.812  43.361  14.988
26479W        W98150  35.654  14.027  13.405
26480W        W98151  44.422  23.437   9.758
26481W        W98152  24.257  44.786   2.732
26482W        W98153  27.259  36.013  11.117
26483W        W98154  17.745   5.343   9.988
26484W        W98155   1.664   3.309   2.005
26485W        W98156  34.475  26.173   2.325
26486W        W98157  23.318  29.755  12.564
26487W        W98158   4.667   4.456  14.277
26488W        W98159   1.184  38.878   4.082
26489W        W98160  12.764  10.283  10.930
26490W        W98161  26.227  25.641  11.517
26491W        W98162   0.082  11.137  10.237
26492W        W98163  25.624  14.662  14.311
26493W        W98164  26.897  37.858   4.439
26494W        W98165  36.647  43.886  11.611
26495W        W98166  14.163   2.495   3.186
26496W        W98167  28.512   6.125  13.789
26497W        W98168   4.221  31.802   4.700
26498W        W98169  28.616   3.450   2.646
26499W        W98170  35.139  24.076  12.975
26500W        W98171  20.814  33.025  11.494
26501W        W98172  44.495   0.831  10.784
26502W        W98173  27.163  19.797   4.938
26503W        W98174   2.272  32.577  10.560
26504W        W98175   4.566  27.023   0.298
26505W        W98176  37.328  32.434  11.983
26506W        W98177  24.476  35.708   3.224
26507W        W98178  10.247   0.899   1.377
26508W        W98179   4.411  26.961   1.988
26509W        W98180   9.152   4.447  11.475
26510W        W98181  39.902  40.474   1.675
26511W        W98182  44.955  37.813  10.964
26512W        W98183  33.371  21.748   0.816
26513W        W98184  15.318  11.190   2.320
26514W        W98185  28.149   1.918  12.661
26515W        W98186   1.390  24.432  13.460
26516W        W98187  41.015   3.793  11.191
26517W        W98188  17.777  26.710   0.879
26518W        W98189  31.050   9.418  13.959
26519W        W98190  17.251   5.386   3.779
26520W        W98191  35.404  15.561   0.280
26521W        W98192  26.654  23.230  11.535
26522W        W98193   8.845   2.800  10.653
26523W        W98194  27.492  30.555  11.133
26524W        W98195  43.627  15.356   2.249
26525W        W98196   4.721  40.765   5.081
26526W        W98197  38.247  32.541  12.300
26527W        W98198  24.316  22.741   1.022
26528W        W98199  42.342  33.320  11.214
26529W        W98200  40.921  32.300  12.512
26530W        W98201  13.716  11.628   0.050
26531W        W98202   1.692  35.800   0.334
26532W        W98203   2.814  21.487  12.501
26533W        W98204  36.485  31.538   4.564
26534W        W98205  38.419  14.171   2.371
26535W        W98206   8.668  15.707   4.181
26536W        W98207  18.704  32.952   2.885
26537W        W98208   7.934  14.095  14.297
26538W        W98209  15.776  19.081  12.087
26539W        W98210  21.697  24.131   5.382
26540W        W98211  17.864  43.494  14.530
26541W        W98212   3.624  19.295   3.860
26542W        W98213  19.191   3.898  13.727
26543W        W98214  40.713  40.978   9.992
26544W        W98215  29.998  30.874  11.442
26545W        W98216  31.161  12.855   2.538
26546W        W98217  15.808  24.644   0.496
26547W        W98218  32.829   3.763   4.128
26548W        W98219  34.378  31.373   4.173
26549W        W98220  24.575  11.230   0.510
26550W        W98221  39.030  36.139  13.393
26551W        W98222  21.952  38.074  14.032
26552W        W98223  14.194  43.081  14.664
26553W        W98224  30.911  32.996  12.970
26554W        W98225  17.824   6.819   4.719
26555W        W98226  26.683  26.449   4.995
26556W        W98227  19.957  12.427  12.413
26557W        W98228  24.116  25.266  12.940
26558W        W98229  21.104  12.656   2.699
26559W        W98230  13.072   9.739  12.579
26560W        W98231  40.898  13.652   2.120
26561W        W98232  40.845   3.748  13.796
26562W        W98233  32.238  11.317   0.355
26563W        W98234  40.870  29.195   2.327
26564W        W98235  16.668  20.553  12.936
26565W        W98236  25.736   0.948   1.418
26566W        W98237  32.699   4.299  13.061
26567W        W98238  31.535   5.412  11.519
26568W        W98239  10.263  41.751   4.131
26569W        W98240   3.413  18.101   4.521
26570W        W98241   9.133  20.325   3.302
26571W        W98242  15.603   7.898  14.847
26572W        W98243   3.200  16.727   4.091
26573W        W98244  34.400  36.056   4.727
26574W        W98245   9.359  32.041  13.096
26575W        W98246   4.516  27.185  11.038
26576W        W98247   7.790  23.291  13.338
26577W        W98248   1.953  20.801   0.365
26578W        W98249  32.831  34.958   2.034
26579W        W98250  18.202  37.435   1.862
26580W        W98251  31.899  43.690   2.727
26581W        W98252  42.357  15.119   2.668
26582W        W98253  39.832  20.252   3.735
26583W        W98254  40.925  16.827   2.949
26584W        W98255  44.188  22.925   0.737
26585W        W98256  34.409  14.574  12.633
26586W        W98257  33.888   5.834  13.130
26587W        W98258  38.486  10.095  12.280
26588W        W98259  34.086  20.743   3.191
26589W        W98260  44.056  39.445   1.405
26590W        W98261  15.590  26.567   3.831
26591W        W98262  39.337  13.354  12.955
26592W        W98263   3.888  14.538   4.079
26593W        W98264  32.259   1.098  14.406
26594W        W98265   8.378  26.083  12.429
26595W        W98266  32.768  32.170   5.095
26596W        W98267  17.632  32.633  13.446
26597W        W98268   9.878  32.107   3.407
26598W        W98269  16.754  44.144   4.156
26599W        W98270   4.024  42.539   0.377
26600W        W98271  23.784  16.058   2.290
26601W        W98272  19.827  23.546  10.276
26602W        W98273   0.031  39.831   3.335
26603W        W98274  43.799  24.229  10.624
26604W        W98275  18.615  37.518   3.647
26605W        W98276  23.759  35.952  10.913
26606W        W98277  39.281  37.454  13.812
26607W        W98278   7.366  44.005   4.578
26608W        W98279  13.948  34.601  14.831
26609W        W98280  22.078   5.758   2.117
26610W        W98281  27.559   7.364  11.455
26611W        W98282  30.738  26.045  13.350
26612W        W98283  19.825  35.655   3.158
26613W        W98284   2.688  11.189   4.055
26614W        W98285  31.449  21.708  13.751
26615W        W98286  32.053  29.099   4.295
26616W        W98287  44.947   6.539  13.809
26617W        W98288  41.378  20.973   0.365
26618W        W98289  41.366  36.553   0.909
26619W        W98290   1.267  29.021  14.417
26620W        W98291  42.281  13.714   1.657
26621W        W98292  18.255   2.029  12.893
26622W        W98293  30.255  11.647  12.992
26623W        W98294   2.686   0.762   4.239
26624W        W98295   9.497  44.396  13.174
26625W        W98296  17.503  24.237  10.321
26626W        W98297   8.261   8.707   4.542
26627W        W98298  21.143  11.372  14.232
26628W        W98299   5.523  14.204   1.249
26629W        W98300  21.214  28.313   1.201
26630W        W98301   1.860  31.929   4.547
26631W        W98302  38.750  35.899   4.521
26632W        W98303  44.396  35.955  14.452
26633W        W98304  29.519  19.738   1.352
26634W        W98305  12.836  35.335  11.502
26635W        W98306  33.628  29.837  14.423
26636W        W98307  39.479  28.152   4.835
26637W        W98308   9.947  35.686   4.192
26638W        W98309   4.408  40.533   4.210
26639W        W98310  27.383  35.017   4.105
26640W        W98311  20.658  16.723   4.676
26641W        W98312  35.612  31.998  14.947
26642W        W98313   7.355  34.498  14.388
26643W        W98314  27.646  30.444   2.645
26644W        W98315  22.067  15.095  13.824
26645W        W98316  28.251   9.241  14.315
26646W        W98317  22.069  28.617  12.403
26647W        W98318  34.541   9.403  13.393
26648W        W98319   6.657  13.726   2.415
26649W        W98320  24.199   6.473  14.807
26650W        W98321  35.423   6.414   0.600
26651W        W98322  25.180  13.362  14.338
26652W        W98323  12.741   3.870   2.390
26653W        W98324  29.434   6.303  13.326
26654W        W98325  34.655  20.276   1.258
26655W        W98326  19.125  34.158   0.638
26656W        W98327   5.016  29.408   3.153
26657W        W98328  41.452  20.086   2.127
26658W        W98329  22.261  29.218  13.130
26659W        W98330  20.583  28.538   3.119
26660W        W98331  25.989  36.295   0.170
26661W        W98332  26.556   9.624  13.431
26662W        W98333  24.045  30.602  13.812
26663W        W98334  13.647   1.407   1.829
26664W        W98335  30.898  18.458  11.566
26665W        W98336  38.980  33.808   2.246
26666W        W98337   9.367  40.277  13.087
26667W        W98338  25.145   2.995   2.235
26668W        W98339  43.763   4.550  11.909
26669W        W98340  44.381  23.810   4.555
26670W        W98341  43.104  18.703  13.097
26671W        W98342   5.365  40.897  12.369
26672W        W98343  13.108  20.401  11.603
26673W        W98344  19.231  26.142  12.890
26674W        W98345  22.195  31.942  10.463
26675W        W98346  20.351  35.917   4.635
26676W        W98347  23.617  42.510   1.228
26677W        W98348  26.689   1.709   2.776
26678W        W98349  17.120   8.300   2.735
26679W        W98350  30.056  11.183  11.956
26680W        W98351  39.457   9.921  13.288
26681W        W98352  26.962  37.858  14.382
26682W        W98353  27.643  17.525  14.881
26683W        W98354  40.336  29.874   2.300
26684W        W98355  34.595   2.902  13.109
26685W        W98356  17.306   8.004   1.372
26686W        W98357  20.939  14.776   2.949
26687W        W98358  25.216  15.106   3.648
26688W        W98359   2.249  42.274   2.256
26689W        W98360  23.708  19.069   2.277
26690W        W98361  15.386  40.537   3.676
26691W        W98362   4.339  43.951  13.732
26692W        W98363  23.072   9.986   2.853
26693W        W98364  25.243   3.808  13.089
26694W        W98365  42.548  37.044  12.424
26695W        W98366  40.427  31.972   5.108
26696W        W98367  35.120   9.871  12.604
26697W        W98368  36.481  41.587   2.915
26698W        W98369   2.764  19.316  10.984
26699W        W98370  16.056   5.852  13.015
26700W        W98371  28.901   6.512  11.009
26701W        W98372  35.134  41.307  10.253
26702W        W98373   8.921  44.321  11.680
26703W        W98374  34.603   1.624  10.571
26704W        W98375  26.337  37.445  13.961
26705W        W98376  12.290  18.628  14.047
26706W        W98377  18.325  31.142  13.971
26707W        W98378  18.002  25.549  12.942
26708W        W98379   1.397  20.790  11.011
26709W        W98380   0.927  43.020   4.601
26710W        W98381  44.288  21.790  11.172
26711W        W98382   6.706  16.666   2.145
26712W        W98383  13.911  31.056   3.187
26713W        W98384  30.451   6.357   2.684
26714W        W98385  18.300  24.655  13.523
26715W        W98386  44.923  15.168  13.370
26716W        W98387  18.303  27.614   4.110
26717W        W98388  41.145   8.321  13.450
26718W        W98389  14.010  32.810  13.070
26719W        W98390  25.111  14.717  13.106
26720W        W98391  34.855  30.914  11.559
26721W        W98392  26.619  42.048  11.577
26722W        W98393  36.532  19.203  12.052
26723W        W98394   5.667  34.477   3.583
26724W        W98395  39.747  18.210  13.898
26725W        W98396  23.666   7.794  13.551
26726W        W98397  34.501   0.198  13.532
26727W        W98398   6.094   2.561   1.291
26728W        W98399   6.923   6.979  12.465
26729W        W98400  18.064  33.484   4.627
26730W        W98401  22.421  24.091   0.915
26731W        W98402  13.439  22.168   1.312
26732W        W98403   0.672  15.620   0.493
26733W        W98404  41.824  41.397   1.671
26734W        W98405  18.664   4.434  14.547
26735W        W98406   9.576   2.126   4.185
26736W        W98407   6.732  42.320   4.649
26737W        W98408  10.647   0.695  11.872
26738W        W98409   9.272  13.561  12.388
26739W        W98410  10.112   4.371   2.307
26740W        W98411   0.397  33.075  11.972
26741W        W98412   9.438   8.596  14.904
26742W        W98413   5.878  15.585   2.569
26743W        W98414  34.479  23.448   4.385
26744W        W98415  32.312  39.664   3.832
26745W        W98416   2.939  20.017  10.200
26746W        W98417  27.037  12.158   0.961
26747W        W98418  41.283  22.203   3.237
26748W        W98419  16.629  31.828  14.722
26749W        W98420   2.685  32.052   0.400
26750W        W98421  42.577   2.762  13.120
26751W        W98422  30.022   1.572   2.754
26752W        W98423  41.551   8.658   3.712
26753W        W98424   5.694  38.956   1.190
26754W        W98425   8.709  17.246  14.524
26755W        W98426   5.712  11.860   3.214
26756W        W98427  22.507  10.629   2.303
26757W        W98428   4.514  26.649   5.014
26758W        W98429   4.968   7.528  14.329
26759W        W98430   5.318  20.231  12.680
26760W        W98431  36.061   7.781   2.425
26761W        W98432  19.518  22.777   3.325
26762W        W98433  16.601  15.892  10.681
26763W        W98434   4.102  44.879   0.480
26764W        W98435   8.809  34.918   1.354
26765W        W98436   3.001  43.836   1.239
26766W        W98437  10.847   4.434  10.727
26767W        W98438  12.768  30.649  14.343
26768W        W98439  24.234   3.300   3.519
26769W        W98440  16.467   8.325   3.825
26770W        W98441  30.462   1.219   2.796
26771W        W98442  39.573  21.734   0.375
26772W        W98443  44.716  37.949  14.607
26773W        W98444  24.223  15.212  14.271
26774W        W98445   7.690  26.492  13.855
26775W        W98446  31.085   1.485  14.051
26776W        W98447  33.378  15.861  12.418
26777W        W98448  42.456  22.909  14.378
26778W        W98449  44.718  37.396  12.857
26779W        W98450  15.127  44.739   1.809
26780W        W98451  31.642  15.234   3.756
26781W        W98452  26.554  40.526   1.159
26782W        W98453   4.892  18.999   2.784
26783W        W98454  41.828  42.995   0.004
26784W        W98455  27.141  11.947  14.523
26785W        W98456  38.119  26.951  13.903
26786W        W98457  23.585  27.526  13.635
26787W        W98458  37.248   8.470   1.328
26788W        W98459  16.644  36.451   3.242
26789W        W98460  21.574  33.818   2.303
26790W        W98461  12.300  29.823   2.265
26791W        W98462   5.310  31.246   3.352
26792W        W98463  10.133   9.145  13.460
26793W        W98464  38.938  26.495  12.446
26794W        W98465  28.223  18.709   4.686
26795W        W98466  36.431  42.858   2.573
26796W        W98467   5.017  22.408   5.189
26797W        W98468   3.971  18.478   1.825
26798W        W98469  15.091  23.781   3.937
26799W        W98470  15.179  28.681   1.100
26800W        W98471  41.874  29.206   1.329
26801W        W98472  21.228  24.524  14.586
26802W        W98473  40.374  37.380  14.869
26803W        W98474  11.387   3.561  12.164
26804W        W98475  11.296  23.569   0.821
26805W        W98476   0.509  18.169   2.876
26806W        W98477  12.734  26.332  14.027
26807W        W98478  27.761   6.363  10.678
26808W        W98479  38.549  40.057  12.886
26809W        W98480  36.074   7.382  14.071
26810W        W98481  20.682  30.912   0.650
26811W        W98482   2.908  27.827  14.775
26812W        W98483  12.088   8.666   2.329
26813W        W98484  25.423  36.141   4.275
26814W        W98485  35.677  44.412   4.337
26815W        W98486  38.641  38.228  12.027
26816W        W98487  34.838  42.546  14.373
26817W        W98488   2.900  36.302  14.826
26818W        W98489  43.087   3.755  11.981
26819W        W98490  17.771   1.819  13.018
26820W        W98491  13.687   3.404   5.069
26821W        W98492   3.939  27.033  12.865
26822W        W98493  11.359  33.217  12.814
26823W        W98494  38.753   6.238   2.182
26824W        W98495  13.542   2.178   0.294
26825W        W98496  35.466  34.142  13.900
26826W        W98497   4.819  34.793  11.978
26827W        W98498  14.719  17.198   3.165
26828W        W98499  28.958  37.584  12.565
26829W        W98500  29.160  33.877   3.854
26830W        W98501  25.739  10.589   2.188
26831W        W98502  29.166  25.580   4.243
26832W        W98503  41.449  29.856   2.773
26833W        W98504  44.443  12.985   1.281
26834W        W98505  40.711  17.027  14.050
26835W        W98506  31.857  30.943  10.647
26836W        W98507  43.262  41.834   0.328
26837W        W98508  12.147  17.303  14.855
26838W        W98509  10.071  37.425  11.948
26839W        W98510  16.850  27.977   4.552
26840W        W98511   2.896  35.532   1.694
26841W        W98512  35.987  25.916   3.707
26842W        W98513  11.193   7.377   3.811
26843W        W98514  16.323  15.114  12.414
26844W        W98515  10.816  23.770  11.585
26845W        W98516  13.918  38.075   1.072
26846W        W98517  36.176   3.815  13.813
26847W        W98518  44.323   8.909   5.067
26848W        W98519   3.779   9.193   3.318
26849W        W98520  42.998  21.068   0.892
26850W        W98521  37.266   3.488   0.303
26851W        W98522   7.271  14.252   0.013
26852W        W98523  26.484  31.901  13.485
26853W        W98524  25.764  42.225   3.884
26854W        W98525  41.005  31.179   0.761
26855W        W98526  28.467  20.684   3.964
26856W        W98527  15.658  37.305   1.110
26857W        W98528  12.371   9.756   0.866
26858W        W98529   0.874  42.330   2.889
26859W        W98530  43.096  34.505  14.186
26860W        W98531  24.319  27.079   3.241
26861W        W98532  42.090  11.192  11.026
26862W        W98533  22.451  10.850   3.182
26863W        W98534   5.220  18.590  14.675
26864W        W98535  22.720  12.300   1.697
26865W        W98536   7.404  28.521  11.496
26866W        W98537   0.729   0.342  12.866
26867W        W98538  25.286   3.825  14.497
26868W        W98539  25.406  30.189  13.950
26869W        W98540  42.265  19.095  12.841
26870W        W98541  10.049  20.871  11.593
26871W        W98542  35.942  24.861   3.680
26872W        W98543  22.161  19.714   1.768
26873W        W98544  11.673  29.062  14.853
26874W        W98545   7.306  29.690   3.345
26875W        W98546  23.037  18.863   4.471
26876W        W98547   9.619  25.217   1.175
26877W        W98548  21.116  15.196  13.982
26878W        W98549  25.490  16.136   0.378
26879W        W98550  16.046  34.387   4.695
26880W        W98551  35.086  13.102  11.933
26881W        W98552  23.019  36.568   1.161
26882W        W98553  13.316  13.726  10.828
26883W        W98554  27.156  10.708   4.238
26884W        W98555  27.563  34.021   2.415
26885W        W98556  34.588  30.177  14.049
26886W        W98557  32.494  35.361   1.347
26887W        W98558  21.699  25.212   2.884
26888W        W98559  43.889   1.465  13.333
26889W        W98560  25.750  44.959   0.900
26890W        W98561   6.202  28.034  11.968
26891W        W98562   7.275   4.254   1.693
26892W        W98563  29.181  38.461   4.669
26893W        W98564  22.160  18.645   2.204
26894W        W98565  39.783  29.601  10.315
26895W        W98566  15.738  28.748  13.307
26896W        W98567   6.830  19.632  12.817
26897W        W98568  22.994  44.485   1.206
26898W        W98569  38.186  43.834   0.869
26899W        W98570  35.367  10.769  13.906
26900W        W98571  33.115  17.910  13.792
26901W        W98572  10.957   5.621  13.346
26902W        W98573  33.956  14.967  11.786
26903W        W98574  18.213  12.891  14.661
26904W        W98575  19.501  37.807  10.646
26905W        W98576  16.678  16.073   4.620
26906W        W98577   9.306  34.085   0.577
26907W        W98578  10.807  12.178   2.480
26908W        W98579   5.327  29.538   3.983
26909W        W98580  35.134  35.182   0.371
26910W        W98581   5.695  32.217   2.874
26911W        W98582  42.027  29.767  13.359
26912W        W98583  27.725   4.474   3.826
26913W        W98584  13.594  41.966  14.326
26914W        W98585  32.355  24.454   4.901
26915W        W98586  16.774  33.337  13.250
26916W        W98587  23.944  28.403  11.661
26917W        W98588  30.589  33.586  10.518
26918W        W98589   8.318  12.235   1.002
26919W        W98590  40.471   7.495  12.161
26920W        W98591  31.930  28.953  11.632
26921W        W98592   8.782  19.097   1.912
26922W        W98593  24.995  31.562  12.166
26923W        W98594  20.153   5.701   0.913
26924W        W98595   5.418  28.350   1.050
26925W        W98596  34.130  35.413   1.813
26926W        W98597  19.870  39.323  14.709
26927W        W98598   8.487   8.254   1.816
26928W        W98599  23.951  16.277   2.751
26929W        W98600  24.689  21.127   2.247
26930W        W98601  23.994  21.207  12.243
26931W        W98602   1.271   4.017  12.600
26932W        W98603  34.186  28.253  14.440
26933W        W98604   1.298  21.991   4.971
26934W        W98605  14.759  44.754  10.074
26935W        W98606  31.459  11.093  10.981
26936W        W98607  15.709  12.333   2.608
26937W        W98608  36.510  39.862   2.415
26938W        W98609   9.313   9.699  11.706
26939W        W98610  38.397  36.000   2.642
26940W        W98611  21.770  36.553  10.930
26941W        W98612   7.594  23.568   3.423
26942W        W98613  13.860   6.544  14.872
26943W        W98614   0.054  34.110  13.530
26944W        W98615  43.811  41.835   5.108
26945W        W98616  38.564   2.274  12.566
26946W        W98617   2.198  27.123  14.971
26947W        W98618   2.261  15.345   2.016
26948W        W98619   3.826  33.007   4.345
26949W        W98620  27.301  27.978  13.545
26950W        W98621  42.373  43.608  14.430
26951W        W98622  13.828  42.978   0.070
26952W        W98623  19.809  23.517  11.097
26953W        W98624  43.995  32.614  14.417
26954W        W98625   9.265  36.358   4.526
26955W        W98626  21.243  14.194  12.024
26956W        W98627  30.289  24.928   2.007
26957W        W98628  32.964  44.719   3.412
26958W        W98629  27.089  18.819   4.674
26959W        W98630  32.474  34.377   3.677
26960W        W98631  27.021  44.832  12.957
26961W        W98632   3.961  37.451   1.723
26962W        W98633   6.243  38.936  10.681
26963W        W98634  40.639  31.780   0.062
26964W        W98635  31.841  36.072  11.687
26965W        W98636  38.478   0.321   2.821
26966W        W98637  39.489  37.997  14.487
26967W        W98638  27.559  24.663   4.749
26968W        W98639   2.431  30.059  12.089
26969W        W98640   9.704  25.047  12.374
26970W        W98641   8.401  44.771   3.671
26971W        W98642  15.709   0.547  12.076
26972W        W98643  39.713  37.055  14.527
26973W        W98644  11.627   3.100   2.645
26974W        W98645  13.425   5.893  10.298
26975W        W98646  30.047   0.590  13.800
26976W        W98647   6.318  21.489   2.600
26977W        W98648  14.410   8.210  12.867
26978W        W98649  40.076   0.409  13.490
26979W        W98650   9.130  38.497   4.228
26980W        W98651  23.642  12.795   2.286
26981W        W98652   3.261   8.867  14.478
26982W        W98653  19.904  27.996   2.832
26983W        W98654  24.574  17.233  12.523
26984W        W98655  35.527  11.324  14.529
26985W        W98656  15.069  20.625  12.004
26986W        W98657  12.827   3.204  12.511
26987W        W98658  40.497   6.645   0.100
26988W        W98659   7.238  34.970  11.637
26989W        W98660  18.728  11.631  13.509
26990W        W98661  18.559  11.436   5.432
26991W        W98662  44.844   3.820  11.607
26992W        W98663  26.573  21.979   1.264
26993W        W98664  41.908  14.805  11.075
26994W        W98665  43.369  20.676  13.721
26995W        W98666   0.721  29.455   1.776
26996W        W98667   5.738  26.715  12.680
26997W        W98668  42.398  27.674   4.548
26998W        W98669  35.965   7.449   4.197
26999W        W98670  24.020  40.219  14.814
27000W        W98671  26.291  16.543   0.367
27001W        W98672  27.020  36.324  12.182
27002W        W98673  29.208   8.401  10.623
27003W        W98674   6.141  12.702  13.831
27004W        W98675  22.224  27.056   0.499
27005W        W98676  17.729  21.819   0.461
27006W        W98677  25.570   9.904  13.829
27007W        W98678   4.649  17.184   2.255
27008W        W98679  28.869  22.278  12.586
27009W        W98680   5.620  13.364   0.401
27010W        W98681  10.791  26.622   2.134
27011W        W98682   4.809  10.837   1.796
27012W        W98683  15.959  36.595   4.118
27013W        W98684  38.381   2.711  13.891
27014W        W98685  35.172  19.093   3.643
27015W        W98686  12.670  22.509  11.610
27016W        W98687  31.141  28.811   1.335
27017W        W98688  18.039  21.737   3.806
27018W        W98689  21.639  28.139   2.870
27019W        W98690  13.104  19.174   1.378
27020W        W98691  23.051  37.527   3.431
27021W        W98692  10.616   1.267   1.533
27022W        W98693  37.559   8.713  11.050
27023W        W98694   7.858   5.977   4.916
27024W        W98695  42.957  22.755   0.464
27025W        W98696   3.214  37.582  11.213
27026W        W98697  25.582  18.988  13.270
27027W        W98698   7.744  10.094   0.347
27028W        W98699   6.306   3.002  12.467
27029W        W98700  36.455  27.411   2.421
27030W        W98701  25.414  42.748   3.318
27031W        W98702  18.574  18.792   3.819
27032W        W98703  32.991  28.516  14.503
27033W        W98704  23.586   9.226  11.935
27034W        W98705  21.692  29.730   1.801
27035W        W98706  33.172  38.137  10.976
27036W        W98707  15.135  42.264   4.217
27037W        W98708  25.767  25.451  14.907
27038W        W98709  18.650   4.353  11.935
27039W        W98710  29.936  11.710   3.401
27040W        W98711  23.918  31.015   1.299
27041W        W98712   1.569   9.983  11.000
27042W        W98713  19.309   4.739   0.851
27043W        W98714  15.557   1.966  12.833
27044W        W98715  16.642  39.648  10.833
27045W        W98716  30.852  10.358  13.780
27046W        W98717  27.098  18.047  14.217
27047W        W98718  38.059  42.289  13.390
27048W        W98719  38.595   1.147  14.032
27049W        W98720  39.864  22.816  14.001
27050W        W98721  10.630  33.613   4.622
27051W        W98722  20.556  18.205   1.398
27052W        W98723  40.776  17.512  12.575
27053W        W98724   7.714  24.244  11.661
27054W        W98725  39.777  19.426  14.703
27055W        W98726  15.197  34.232  13.293
27056W        W98727   9.596   5.949  12.946
27057W        W98728  26.900   9.576   9.726
27058W        W98729  23.576  17.874  11.498
27059W        W98730  15.149   5.997   2.731
27060W        W98731  36.964   6.193   1.368
27061W        W98732  34.496  35.987   3.271
27062W        W98733   3.896  42.010  14.365
27063W        W98734   3.390  42.429   4.153
27064W        W98735  40.446   9.476  10.578
27065W        W98736  39.104   5.198  14.441
27066W        W98737   2.272   5.380  13.090
27067W        W98738   2.490  41.443  10.761
27068W        W98739  34.095  10.367  12.074
27069W        W98740   3.888  32.470   1.954
27070W        W98741  39.394  39.129   2.185
27071W        W98742  14.383  15.765   1.835
27072W        W98743  44.379  39.443  11.845
27073W        W98744  27.750  18.691  11.556
27074W        W98745  24.916  38.541  10.714
27075W        W98746   2.505  17.302  12.025
27076W        W98747  20.808   1.304   0.256
27077W        W98748  20.464  21.081  13.349
27078W        W98749  26.308  29.673  12.498
27079W        W98750  20.097  42.929  11.261
27080W        W98751  40.810  26.789   1.229
27081W        W98752  39.574  39.075   0.005
27082W        W98753  10.093  39.105   1.975
27083W        W98754  15.534  27.539   0.542
27084W        W98755  38.526  12.627   0.512
27085W        W98756  24.067   0.521  12.819
27086W        W98757  27.185   1.176   0.420
27087W        W98758  40.629   5.424  14.587
27088W        W98759  13.192  11.937  10.516
27089W        W98760  23.957  30.158   3.985
27090W        W98761  42.261  34.887  12.497
27091W        W98762  11.134  34.140   4.088
27092W        W98763  17.372  28.698  12.746
27093W        W98764  19.781  27.813  14.300
27094W        W98765   9.115  22.595   1.394
27095W        W98766  29.247  17.830  13.449
27096W        W98767  16.516  37.261   2.334
27097W        W98768  43.869  31.563  13.037
27098W        W98769  23.040  44.791  10.706
27099W        W98770  16.258  40.332  11.411
27100W        W98771  22.740  31.418  12.031
27101W        W98772  29.921   2.383  10.511
27102W        W98773   0.283  13.828   1.783
27103W        W98774  26.205   2.992   3.636
27104W        W98775  37.096   4.186  13.493
27105W        W98776  25.693   1.495   3.277
27106W        W98777  42.327  38.018   1.722
27107W        W98778  38.481  33.017  12.927
27108W        W98779  11.751  43.601  11.573
27109W        W98780  17.719  33.963   1.583
27110W        W98781   6.012  43.289  13.026
27111W        W98782   0.738  29.444  11.164
27112W        W98783  35.478  42.225  11.050
27113W        W98784  18.006  19.203   0.889
27114W        W98785   3.214  43.680  14.414
27115W        W98786  38.245  34.016   4.214
27116W        W98787  44.093  38.296  11.474
27117W        W98788  27.235  24.587   1.767
27118W        W98789  35.651  34.385   2.488
27119W        W98790  43.630  22.711  13.073
27120W        W98791  31.474   3.911  10.644
27121W        W98792  33.293  12.716  10.876
27122W        W98793  30.718  42.477  10.697
27123W        W98794  28.874  21.667  13.460
27124W        W98795  33.474   1.118   3.478
27125W        W98796   9.116  34.386  14.542
27126W        W98797  28.733   9.241  12.522
27127W        W98798  28.000   1.256   2.164
27128W        W98799  34.713  35.066   2.240
27129W        W98800  40.825  20.940   3.172
27130W        W98801   2.852  17.581  10.437
27131W        W98802  22.403  42.090   3.323
27132W        W98803  35.450  34.314   2.951
27133W        W98804   6.937  12.123  13.031
27134W        W98805  32.477  37.161  11.469
27135W        W98806   9.476  37.200   4.641
27136W        W98807  25.008   1.408   3.911
27137W        W98808  19.661  31.980  13.654
27138W        W98809  39.973  26.086   3.528
27139W        W98810  17.042  24.052  11.515
27140W        W98811  10.105  24.592   1.316
27141W        W98812   8.780  22.161  14.441
27142W        W98813  42.471  41.400   0.370
27143W        W98814  27.678  33.587   2.664
27144W        W98815  42.788   3.406   0.030
27145W        W98816  30.566   3.818  10.607
27146W        W98817   6.885  10.839   3.909
27147W        W98818   7.206  18.710  12.511
27148W        W98819   5.270  29.408  10.733
27149W        W98820  21.661  22.610  10.685
27150W        W98821  21.493   0.390  11.066
27151W        W98822   1.899  23.197  12.431
27152W        W98823  29.554  34.404   4.602
27153W        W98824  26.974   8.179  10.614
27154W        W98825  40.277  29.601   4.593
27155W        W98826  12.430  33.071   2.311
27156W        W98827  11.156   0.485  11.163
27157W        W98828  41.897  12.370  11.963
27158W        W98829  29.109  10.271   0.522
27159W        W98830   7.834  15.823  12.101
27160W        W98831  40.381  19.828  11.956
27161W        W98832  36.045  32.160  10.822
27162W        W98833  33.044   7.415   3.921
27163W        W98834   5.591  38.136   1.432
27164W        W98835   3.377  16.172   4.154
27165W        W98836  10.605  23.177  13.365
27166W        W98837  44.233  16.245  13.875
27167W        W98838   7.235  30.377  11.193
27168W        W98839   7.822  40.482  11.088
27169W        W98840   3.703  32.020   2.112
27170W        W98841   2.908  25.075   0.814
27171W        W98842  17.208  26.684   2.634
27172W        W98843  15.303  17.272  10.699
27173W        W98844  40.260  13.262   3.693
27174W        W98845  32.227  33.105  14.283
27175W        W98846  12.416   9.569   4.099
27176W        W98847  10.429  17.656  10.650
27177W        W98848  19.040  17.561   3.158
27178W        W98849  11.258  15.776   4.064
27179W        W98850  18.612  23.447   4.059
27180W        W98851  31.098  12.837  11.149
27181W        W98852   5.273  40.997  10.556
27182W        W98853   4.189  30.489  14.928
27183W        W98854  43.846  11.619   4.716
27184W        W98855  24.992  23.955   0.382
27185W        W98856  33.430   8.908   0.431
27186W        W98857  33.960  36.204   2.663
27187W        W98858   4.304  20.093   0.353
27188W        W98859  10.107  28.734  11.628
27189W        W98860  21.916  32.892   0.195
27190W        W98861  34.630  19.140  14.815
27191W        W98862   0.394  42.119   0.863
27192W        W98863   7.848  14.741   4.570
27193W        W98864  22.638  36.620  14.341
27194W        W98865  18.274   7.152  14.215
27195W        W98866  15.357  15.702  13.208
27196W        W98867  19.254  43.112  13.802
27197W        W98868  17.597  36.143  11.877
27198W        W98869  41.295   5.810   1.708
27199W        W98870  21.591  39.569  13.286
27200W        W98871  29.237  23.086   4.641
27201W        W98872  32.256  43.941  10.616
27202W        W98873  32.698   9.878  14.459
27203W        W98874  43.179  21.552   0.744
27204W        W98875  30.661  16.251  12.812
27205W        W98876  35.431  15.348  11.126
27206W        W98877  39.326  36.284  11.204
27207W        W98878  42.767  29.125  14.587
27208W        W98879  40.955  44.096  11.384
27209W        W98880   0.081  25.637  12.966
27210W        W98881   8.911  20.949  10.771
27211W        W98882  18.781  39.465  12.974
27212W        W98883   4.835  37.499   2.118
27213W        W98884  17.334  31.882   3.121
27214W        W98885  22.058   1.473  12.436
27215W        W98886  43.486   5.831   4.144
27216W        W98887  37.778  14.553   2.346
27217W        W98888  41.473  22.703   4.003
27218W        W98889  30.933  15.645   4.572
27219W        W98890  34.119  24.042   2.442
27220W        W98891  25.657  26.363  11.616
27221W        W98892  37.540   9.295   0.814
27222W        W98893  39.094  24.211   1.324
27223W        W98894  34.085  15.623  13.530
27224W        W98895  27.344  40.489   4.748
27225W        W98896  41.415   1.279   4.136
27226W        W98897  30.100  25.202  14.591
27227W        W98898   3.770  39.383  11.889
27228W        W98899   4.804  19.896   3.341
27229W        W98900  14.173  42.561  12.557
27230W        W98901  30.949   9.914  11.154
27231W        W98902  42.531  37.460   1.872
27232W        W98903  24.584  31.936  12.089
27233W        W98904  42.094  39.948  14.074
27234W        W98905   9.591   9.641  12.939
27235W        W98906  24.468  41.933   3.170
27236W        W98907  41.496   1.761   2.802
27237W        W98908   6.881   5.910   1.890
27238W        W98909  42.483  44.923   1.686
27239W        W98910  20.744   7.190  13.630
27240W        W98911  14.851   5.744   3.599
27241W        W98912  20.498  23.001  10.269
27242W        W98913  34.884  25.500   0.523
27243W        W98914  25.580  28.236   1.365
27244W        W98915  20.892  26.503  11.954
27245W        W98916  29.762  27.989  13.590
27246W        W98917  37.138  35.578  13.138
27247W        W98918  12.206   7.923   4.079
27248W        W98919  22.037  35.418   0.580
27249W        W98920  40.785  24.808  14.450
27250W        W98921  18.158  20.058  14.369
27251W        W98922   2.481  12.834   1.667
27252W        W98923  22.427   5.026   0.621
27253W        W98924  44.945  20.348  11.108
27254W        W98925  34.161  33.480   2.720
27255W        W98926  41.061  11.389  12.777
27256W        W98927  18.056  38.931  12.970
27257W        W98928  26.889  23.083   0.730
27258W        W98929  20.300  21.631   2.275
27259W        W98930  19.647  35.966   0.741
27260W        W98931  12.687  16.280   0.841
27261W        W98932   3.776  12.653   4.923
27262W        W98933  16.648  31.054   3.670
27263W        W98934  32.324  12.963  11.166
27264W        W98935   7.901  20.986   4.152
27265W        W98936  26.598   5.172  12.290
27266W        W98937  29.321  32.460  13.340
27267W        W98938   7.851  19.001  10.751
27268W        W98939   3.470  31.248  11.916
27269W        W98940   3.243  19.798  12.706
27270W        W98941  11.374  39.376  11.126
27271W        W98942  44.324   5.696   0.582
27272W        W98943  10.085  28.835  14.932
27273W        W98944  39.587  18.849   3.089
27274W        W98945  43.823  34.648   0.509
27275W        W98946   0.767  13.367  13.062
27276W        W98947   2.919  38.891  14.956
27277W        W98948  41.825  23.574   2.808
27278W        W98949  37.368  14.378  10.689
27279W        W98950  44.183  16.300   3.463
27280W        W98951   5.789  43.179   1.504
27281W        W98952   5.540  33.693  11.004
27282W        W98953  32.498  29.672   2.248
27283W        W98954  13.263  18.002  12.450
27284W        W98955  29.054  24.792   1.711
27285W        W98956   7.332  25.522  13.761
27286W        W98957  34.500  11.626  10.710
27287W        W98958  35.589  10.284   3.153
27288W        W98959  29.244  10.840  14.476
27289W        W98960  16.190  16.509   2.331
27290W        W98961  14.216  38.832  14.855
27291W        W98962  18.058  29.920  13.432
27292W        W98963  30.809  35.843   1.685
27293W        W98964  40.409   6.824   1.230
27294W        W98965  21.301  24.814  11.058
27295W        W98966   9.138  37.278  14.177
27296W        W98967  23.179  16.253   0.097
27297W        W98968   6.857  35.648   2.691
27298W        W98969  26.710   4.591   2.245
27299W        W98970  10.931   3.327   4.589
27300W        W98971  39.723  40.844   1.313
27301W        W98972  12.820  43.257   3.843
27302W        W98973  15.670  23.681  12.154
27303W        W98974  13.643  35.984   0.846
27304W        W98975  27.226  23.344   0.250
27305W        W98976  43.892  35.118   0.256
27306W        W98977  10.388   4.481  12.958
27307W        W98978  10.758  30.855  12.914
27308W        W98979  40.697  32.491  10.931
27309W        W98980   3.417   2.889   0.047
27310W        W98981  16.469   2.697  12.045
27311W        W98982  30.336  40.300  11.099
27312W        W98983  42.896  12.594  11.090
27313W        W98984  13.648  37.325   1.350
27314W        W98985  25.257  28.277  14.878
27315W        W98986  35.318   2.329   2.856
27316W        W98987  26.576   1.990   3.203
27317W        W98988  32.290   8.738   2.313
27318W        W98989  31.565  23.031   2.797
27319W        W98990  20.016  39.951  10.865
27320W        W98991  25.573  31.698  12.063
27321W        W98992  32.429  26.997  12.357
27322W        W98993  31.696  10.723   1.785
27323W        W98994  15.784  12.318  13.898
27324W        W98995  16.899   3.267   1.356
27325W        W98996  23.592   1.524   1.872
27326W        W98997  19.043   0.755   2.728
27327W        W98998  44.583  40.347  11.039
27328W        W98999  41.222  37.470   2.348
27329W        W99000  34.928  10.324  10.648
27330W        W99001  18.723   0.707  12.156
27331W        W99002   9.762  22.764   4.594
27332W        W99003  42.156  30.840   1.639
27333W        W99004   5.274  33.433   2.025
27334W        W99005  25.073  21.717   2.096
27335W        W99006  43.472   5.731  13.607
27336W        W99007  10.878  29.497  12.989
27337W        W99008  28.457   4.248  14.989
27338W        W99009  21.939  31.235   2.833
27339W        W99010  10.105  10.354  12.128
27340W        W99011  23.923  21.903   3.142
27341W        W99012   2.492  20.866  11.086
27342W        W99013   0.883  44.951   4.912
27343W        W99014  38.285  17.655  11.991
27344W        W99015  27.275  35.397  11.968
27345W        W99016   5.911  17.751   4.481
27346W        W99017  40.976  44.758   4.233
27347W        W99018  43.715   4.217   1.342
27348W        W99019   8.613  18.502   1.737
27349W        W99020  22.998  36.977  10.486
27350W        W99021  15.067  33.061   0.864
27351W        W99022  34.635  21.767   2.364
27352W        W99023  29.621  44.097   1.805
27353W        W99024   6.857  15.811   2.721
27354W        W99025  31.596  30.433  12.492
27355W        W99026   1.861  22.673   3.864
27356W        W99027  19.491  15.426  12.917
27357W        W99028  22.394  44.351   1.729
27358W        W99029  22.270  35.005  10.927
27359W        W99030  38.243   3.387   1.189
27360W        W99031  33.390  44.323   2.604
27361W        W99032  14.824  21.528  11.334
27362W        W99033   5.668  28.626  10.874
27363W        W99034   9.654  31.088   2.243
27364W        W99035  39.479  39.999   4.539
27365W        W99036  43.524  16.768  12.068
27366W        W99037  20.002  43.807   1.264
27367W        W99038  15.667   7.486  13.533
27368W        W99039  15.072   7.129  13.527
27369W        W99040  30.181  23.774   4.360
27370W        W99041  23.871  37.554   0.264
27371W        W99042  35.543   9.499   3.729
27372W        W99043  10.829  15.784  10.250
27373W        W99044  19.628   8.314   2.810
27374W        W99045   9.567   5.266  12.469
27375W        W99046   7.213   1.245   1.732
27376W        W99047  21.159  12.559   0.349
27377W        W99048  36.146  16.596   4.681
27378W        W99049  42.364  39.590   4.156
27379W        W99050  11.279   7.831  11.134
27380W        W99051  33.609  18.355   3.993
27381W        W99052   9.563  20.772  11.408
27382W        W99053  26.445   5.394   2.494
27383W        W99054  41.041  44.775   3.296
27384W        W99055  24.521  39.839  14.282
27385W        W99056  35.209   7.803  12.064
27386W        W99057   6.975  24.023   1.950
27387W        W99058  11.602  27.981  10.125
27388W        W99059  21.920  27.190   4.503
27389W        W99060  43.868  41.370  11.369
27390W        W99061  44.870  34.135   1.861
27391W        W99062  25.361   5.449   0.871
27392W        W99063  39.587  16.809   2.730
27393W        W99064   1.579  43.744  14.234
27394W        W99065  44.492  23.481  12.523
27395W        W99066  29.111   5.719   1.247
27396W        W99067  19.862  39.059   4.939
27397W        W99068   8.960   8.693  13.633
27398W        W99069  20.198  43.067   4.657
27399W        W99070   6.493   6.805  11.565
27400W        W99071  22.623   8.375   1.004
27401W        W99072  35.287   7.239  11.497
27402W        W99073  10.638  13.217  12.433
27403W        W99074  24.306  17.038   4.989
27404W        W99075  43.427  17.734  14.545
27405W        W99076   8.891  25.588   1.896
27406W        W99077  18.010  39.848  11.645
27407W        W99078  38.038  20.988   3.216
27408W        W99079  15.304  38.538  11.677
27409W        W99080  34.718  42.051   1.810
27410W        W99081   4.102   2.571  14.773
27411W        W99082  40.106  26.989  14.348
27412W        W99083  19.208   2.850   3.762
27413W        W99084  24.221   5.336  14.181
27414W        W99085   4.876  37.780   3.196
27415W        W99086  31.848  22.766   3.571
27416W        W99087  24.550  10.658  14.724
27417W        W99088  33.634  44.995  13.245
27418W        W99089  41.712   4.460   2.411
27419W        W99090  38.527  19.686   2.267
27420W        W99091  19.290  40.227   0.790
27421W        W99092   9.108   6.300  11.204
27422W        W99093  22.442  14.524   1.893
27423W        W99094  10.190  10.801  11.897
27424W        W99095  23.577  24.796  11.064
27425W        W99096  38.769  34.426   4.984
27426W        W99097  44.808   4.459  12.003
27427W        W99098  15.016   9.674   1.320
27428W        W99099  29.745  13.374   2.351
27429W        W99100  39.995  23.169  12.653
27430W        W99101  34.629  36.936   4.504
27431W        W99102  19.788   4.829   1.875
27432W        W99103  14.142  10.621   2.616
27433W        W99104   4.972  13.316   4.200
27434W        W99105  19.583  12.890   1.698
27435W        W99106   0.510   8.558  10.098
27436W        W99107  22.103  31.119  13.868
27437W        W99108  35.936  17.300   2.326
27438W        W99109   6.803  10.283  13.446
27439W        W99110  21.182  14.277   1.638
27440W        W99111   2.221  39.515   3.709
27441W        W99112  33.980  33.514  13.853
27442W        W99113  27.150  28.420  11.621
27443W        W99114  24.406  39.865  14.787
27444W        W99115  35.869  37.344   3.699
27445W        W99116  26.740  41.898   5.136
27446W        W99117  31.091  18.053  11.860
27447W        W99118   9.113  35.995  12.564
27448W        W99119  35.177   3.345  12.897
27449W        W99120  37.842  30.887  14.690
27450W        W99121  44.945  35.403   1.498
27451W        W99122  26.652   8.123  11.050
27452W        W99123  22.381   3.310   1.189
27453W        W99124  22.383   9.497  14.709
27454W        W99125   6.796  23.117  10.865
27455W        W99126  30.692  37.850   2.814
27456W        W99127   0.793   9.516  12.386
27457W        W99128   2.114  23.173  10.129
27458W        W99129  44.858  33.159   4.353
27459W        W99130  15.851  30.089   4.091
27460W        W99131  40.482  15.334  10.724
27461W        W99132   2.540  29.584   3.772
27462W        W99133  21.809   1.400  13.921
27463W        W99134   4.330  23.939  13.015
27464W        W99135  38.343  19.216  13.492
27465W        W99136  19.485  41.019   4.058
27466W        W99137   3.235  20.285  12.936
27467W        W99138  35.356   5.417  11.143
27468W        W99139  36.952  41.974  11.226
27469W        W99140   3.246  19.419   0.050
27470W        W99141  29.557  30.892  13.334
27471W        W99142  14.723  15.072  10.969
27472W        W99143   3.750  16.768  14.803
27473W        W99144  27.140  12.368   2.715
27474W        W99145  42.758   8.248   1.269
27475W        W99146  36.043  35.607   1.776
27476W        W99147  26.984  36.250   1.497
27477W        W99148  12.138  39.332   1.491
27478W        W99149  38.833  15.863  14.035
27479W        W99150  40.435  44.047  14.882
27480W        W99151   6.201  39.357   2.903
27481W        W99152  18.295  43.957   2.669
27482W        W99153  36.953  34.952   0.796
27483W        W99154  44.436  31.239  12.316
27484W        W99155  40.479  36.942   1.082
27485W        W99156  35.307   9.272   4.119
27486W        W99157   5.624  21.096   3.759
27487W        W99158   3.213   8.870   4.360
27488W        W99159  13.589  19.650  12.024
27489W        W99160  27.625  32.665   2.869
27490W        W99161   5.798  39.428  13.288
27491W        W99162  41.071  30.552  12.076
27492W        W99163  36.896  21.225   0.673
27493W        W99164  25.265  18.003   0.262
27494W        W99165   9.352  40.979  11.485
27495W        W99166   8.478  44.774  14.152
27496W        W99167  44.192  14.924   3.831
27497W        W99168  33.962  25.749  10.738
27498W        W99169   1.810  30.113   2.409
27499W        W99170  35.051  13.086   3.641
27500W        W99171  30.119  20.037   0.498
27501W        W99172  29.012  17.076   4.755
27502W        W99173   8.404  19.655   4.457
27503W        W99174   0.111   1.391   0.742
27504W        W99175   3.849  43.767   3.739
27505W        W99176  30.021  23.180  11.706
27506W        W99177   7.737   9.069  12.859
27507W        W99178  43.843  39.871   1.233
27508W        W99179  23.027  12.597  14.890
27509W        W99180  16.136  23.307  13.878
27510W        W99181  19.133  26.977   4.908
27511W        W99182  15.650  10.283  13.816
27512W        W99183  15.988  18.839   3.692
27513W        W99184  31.483  32.562  11.648
27514W        W99185  35.882  40.150   4.192
27515W        W99186  41.071  14.649   4.600
27516W        W99187   6.190  38.489  13.830
27517W        W99188   4.483  23.714  11.686
27518W        W99189  25.211  17.286   0.760
27519W        W99190  14.639   3.174   1.864
27520W        W99191  30.256  24.368  11.174
27521W        W99192  44.734  20.188   4.181
27522W        W99193   2.664  15.804   3.768
27523W        W99194  38.368  24.221   3.659
27524W        W99195  14.506  10.293   4.269
27525W        W99196  10.647  40.872  14.304
27526W        W99197  29.194  23.885  10.250
27527W        W99198  24.365  39.938  12.848
27528W        W99199   3.329  37.644  12.058
27529W        W99200  21.515   2.884   4.553
27530W        W99201  28.523  13.103   0.352
27531W        W99202  34.454   8.592   2.300
27532W        W99203  36.541  17.783  10.969
27533W        W99204  14.700   6.213  12.344
27534W        W99205   0.948  35.513  12.084
27535W        W99206  30.087  36.880   4.526
27536W        W99207  11.325   5.732  10.598
27537W        W99208  27.444   4.200   4.161
27538W        W99209  19.290  29.126  14.339
27539W        W99210  33.965  18.636   0.913
27540W        W99211  22.277  18.812  11.140
27541W        W99212   8.554  36.567  13.269
27542W        W99213  40.509  33.491   0.333
27543W        W99214   7.396   3.502  11.188
27544W        W99215  34.831   2.056   0.405
27545W        W99216  12.578   4.361   4.635
27546W        W99217  21.297  31.994  12.708
27547W        W99218   0.292  26.167  10.694
27548W        W99219  37.555  24.026   1.287
27549W        W99220  24.501  36.563   2.226
27550W        W99221  39.212  43.767  13.831
27551W        W99222   3.170   8.585   2.618
27552W        W99223   8.336  19.168   3.290
27553W        W99224  18.562   0.953  11.440
27554W        W99225  43.497   6.224  14.273
27555W        W99226  27.860   8.724   0.426
27556W        W99227   5.756  43.070  12.630
27557W        W99228  42.519  15.274   4.159
27558W        W99229  16.107  29.165   0.996
27559W        W99230  25.120  14.816  14.549
27560W        W99231  18.294   4.148   4.285
27561W        W99232  12.269  26.928   1.643
27562W        W99233  24.017  14.067   1.442
27563W        W99234  40.821  36.577   2.779
27564W        W99235  32.043   2.456   0.601
27565W        W99236  36.253  21.635   0.244
27566W        W99237   2.822  16.671  12.553
27567W        W99238  43.575  11.319  13.842
27568W        W99239   7.277   8.755   0.282
27569W        W99240  32.996  35.594   3.886
27570W        W99241   5.726  23.380  12.029
27571W        W99242  43.221  12.235   3.175
27572W        W99243  12.319  28.054   4.738
27573W        W99244  32.612  21.815   3.214
27574W        W99245  20.798  33.415   3.174
27575W        W99246  30.991  20.978  12.464
27576W        W99247  38.017   4.875   2.469
27577W        W99248  10.576  35.546   0.232
27578W        W99249  11.693   2.625  10.697
27579W        W99250   4.007   8.673  11.134
27580W        W99251  12.476   2.558  12.069
27581W        W99252  28.061  11.342   2.771
27582W        W99253  19.831  28.058   1.452
27583W        W99254  11.903  20.257   4.138
27584W        W99255  15.700  23.129   1.710
27585W        W99256  44.060  10.235  12.526
27586W        W99257   0.867  40.300   1.192
27587W        W99258   7.230   0.874   4.711
27588W        W99259  30.699  17.744  11.097
27589W        W99260  20.562  11.829  13.009
27590W        W99261   1.188  39.236  11.469
27591W        W99262  12.841   6.481  10.960
27592W        W99263  29.030  35.878  14.654
27593W        W99264   2.146  43.162  11.147
27594W        W99265  12.694  32.880   1.844
27595W        W99266   9.168  23.462   1.385
27596W        W99267  11.839  16.332  11.980
27597W        W99268  39.990   0.010  13.133
27598W        W99269  13.502  38.737  13.665
27599W        W99270  29.612  17.081  14.482
27600W        W99271  28.964  33.468  13.553
27601W        W99272   6.802  18.257   4.606
27602W        W99273  39.386  18.381   2.820
27603W        W99274  24.645  20.586   2.198
27604W        W99275  30.886  29.682   3.658
27605W        W99276  19.190  43.970  13.600
27606W        W99277   7.523  20.641   2.989
27607W        W99278  32.627  36.673  13.394
27608W        W99279  23.546  12.359   2.709
27609W        W99280  25.015  44.864   0.320
27610W        W99281  31.098  11.761   0.648
27611W        W99282  17.849  34.892  11.072
27612W        W99283  33.652  23.584   3.266
27613W        W99284  16.695  21.406   2.686
27614W        W99285   4.593  27.469   4.652
27615W        W99286  44.849  30.788   4.988
27616W        W99287   4.783  30.693  13.845
27617W        W99288   5.668  27.058   2.958
27618W        W99289  40.207  15.277  11.186
27619W        W99290  44.042   6.711   2.003
27620W        W99291  35.177  10.015  11.830
27621W        W99292  43.404  24.336   3.419
27622W        W99293  22.659  27.592   4.627
27623W        W99294   0.945  10.764  14.490
27624W        W99295  12.669  21.724  12.019
27625W        W99296  20.196  27.504  11.107
27626W        W99297   8.264  23.679   2.301
27627W        W99298  37.404  35.276   0.825
27628W        W99299   2.934  43.736   3.797
27629W        W99300  20.452  19.562   1.422
27630W        W99301   3.285  18.335  13.873
27631W        W99302  16.835  27.775   2.235
27632W        W99303  10.140  34.471  12.171
27633W        W99304  18.711   1.302  11.043
27634W        W99305  30.964   8.225   4.452
27635W        W99306  25.918   0.078   0.422
27636W        W99307  11.432  11.387  10.247
27637W        W99308  27.459  24.469   2.210
27638W        W99309  41.441  42.551   4.984
27639W        W99310  26.083  31.790  14.817
27640W        W99311  12.347  40.766   3.404
27641W        W99312  31.298   5.874   4.579
27642W        W99313  30.526  24.176  12.867
27643W        W99314  43.237   6.251   4.290
27644W        W99315  21.794  22.868  12.368
27645W        W99316  23.424  19.568   3.180
27646W        W99317  39.488   9.109  11.233
27647W        W99318  42.945  19.013   4.568
27648W        W99319  35.411  44.884  11.464
27649W        W99320  34.144  19.006  13.441
27650W        W99321  30.950   9.084   1.369
27651W        W99322  35.008  30.243  13.449
27652W        W99323  33.110  37.872  11.408
27653W        W99324  24.032  32.551   2.335
27654W        W99325  37.748  11.270  14.367
27655W        W99326   9.616  19.266   2.358
27656W        W99327   4.796  17.188  10.347
27657W        W99328  17.858  31.633   4.935
27658W        W99329   7.736  40.792  11.525
27659W        W99330  20.947  21.327   0.237
27660W        W99331  34.585   4.360  10.941
27661W        W99332  27.579  23.012   1.937
27662W        W99333   0.683  19.298   1.740
27663W        W99334  36.290  22.187  13.562
27664W        W99335  20.372  39.409   1.245
27665W        W99336  31.988  27.124  14.532
27666W        W99337  20.164   4.671  12.545
27667W        W99338  44.945   9.913   3.796
27668W        W99339  32.657  21.490   1.380
27669W        W99340   5.771   1.498   1.925
27670W        W99341  16.086  14.020   4.041
27671W        W99342  24.125  19.918  11.161
27672W        W99343   2.458  40.778   3.311
27673W        W99344  11.820   0.002  11.961
27674W        W99345   8.181   2.660  13.839
27675W        W99346  11.458  44.311   5.028
27676W        W99347  44.973  28.563   4.106
27677W        W99348  17.746   6.623  11.101
27678W        W99349  16.278  41.335  13.597
27679W        W99350  28.295  43.050   4.711
27680W        W99351  35.549   0.791  13.373
27681W        W99352   6.202  16.587  11.659
27682W        W99353  23.497  41.490   4.648
27683W        W99354  10.203  23.198  13.042
27684W        W99355  34.539   5.062   2.364
27685W        W99356   1.965  16.938   4.048
27686W        W99357  22.098  16.568  11.429
27687W        W99358  44.563  31.434  13.656
27688W        W99359  28.310  31.856  10.299
27689W        W99360  17.969  39.321  14.842
27690W        W99361  28.651  39.537  12.608
27691W        W99362  30.404  25.472   3.508
27692W        W99363  38.245  44.828  14.814
27693W        W99364  21.250  41.012   0.188
27694W        W99365  30.193   6.867  13.818
27695W        W99366  17.197   1.549   2.223
27696W        W99367  18.858  34.714   4.569
27697W        W99368  25.727   2.654  12.412
27698W        W99369   1.483  28.028  14.039
27699W        W99370  36.989  21.481  14.842
27700W        W99371  19.228  35.191   2.090
27701W        W99372  32.315   4.300  11.759
27702W        W99373  22.560  36.078  13.816
27703W        W99374  42.401   7.612   2.739
27704W        W99375   6.553  39.787  12.620
27705W        W99376   4.410  23.665   0.532
27706W        W99377  13.358  29.412   4.942
27707W        W99378  18.582  30.919   1.379
27708W        W99379  30.413   9.843   1.926
27709W        W99380   0.696   2.735  11.202
27710W        W99381  18.986  35.424  11.590
27711W        W99382   7.702   1.928  14.966
27712W        W99383  10.975  31.910  11.118
27713W        W99384  38.771  27.216  14.889
27714W        W99385  38.155  41.839   1.415
27715W        W99386  27.186  25.990   2.722
27716W        W99387  33.598  28.866   3.802
27717W        W99388   2.781  24.611  13.574
27718W        W99389  29.060  20.461   3.172
27719W        W99390  34.590   0.333   4.275
27720W        W99391  42.432  17.611  14.072
27721W        W99392  25.589  38.223   4.386
27722W        W99393  22.440  12.131  11.534
27723W        W99394  15.997  42.452   4.595
27724W        W99395  41.495  40.073   0.699
27725W        W99396  18.695  43.083  13.872
27726W        W99397   4.733  17.179   0.740
27727W        W99398  32.457  21.948  14.121
27728W        W99399  24.781   4.924   2.121
27729W        W99400  39.376  22.749  14.794
27730W        W99401  25.730  12.698   0.201
27731W        W99402   0.532  27.033   2.701
27732W        W99403   4.704  42.457   4.759
27733W        W99404  36.163   7.577  11.185
27734W        W99405  13.767  27.090   1.544
27735W        W99406  13.993  27.659   3.216
27736W        W99407  24.532  28.547   2.844
27737W        W99408  32.404  36.872  13.840
27738W        W99409  36.902  30.425  12.605
27739W        W99410  12.905  32.565   0.911
27740W        W99411   4.139  11.289   3.702
27741W        W99412  24.672  21.446   1.836
27742W        W99413  37.087  37.896  13.468
27743W        W99414   2.253  11.008  11.158
27744W        W99415  40.034  43.969   2.338
27745W        W99416   8.677   3.186  10.968
27746W        W99417  35.278  27.630  11.543
27747W        W99418  32.999  29.684  12.386
27748W        W99419  38.860  13.981   2.858
27749W        W99420  36.524  38.086   1.219
27750W        W99421  24.049  36.100   2.344
27751W        W99422  15.661  32.058   5.042
27752W        W99423   2.686   7.381   0.880
27753W        W99424  20.056  15.039   4.171
27754W        W99425  40.611   2.411   0.086
27755W        W99426  33.288  17.676   4.265
27756W        W99427   5.917  30.487   2.263
27757W        W99428  16.109   0.660  10.607
27758W        W99429  22.331  12.422  12.397
27759W        W99430  18.564  23.789   4.908
27760W        W99431  21.702   8.969  14.776
27761W        W99432  22.101  34.054  10.963
27762W        W99433  43.950  34.478  12.157
27763W        W99434  29.662  23.741   3.724
27764W        W99435   4.874  12.344   3.262
27765W        W99436  38.932  38.937  10.469
27766W        W99437  24.515  28.125  13.776
27767W        W99438  43.243   5.338  13.852
27768W        W99439  35.568  11.536   0.304
27769W        W99440  16.658  22.786  14.788
27770W        W99441  25.605  43.667   0.508
27771W        W99442  43.200  33.010  13.080
27772W        W99443   4.508   9.937  10.226
27773W        W99444   9.831  39.889  14.766
27774W        W99445  35.064  25.253  12.779
27775W        W99446  23.073   7.449  11.066
27776W        W99447  26.998  38.051  11.511
27777W        W99448  30.653  34.006   3.676
27778W        W99449  33.720   8.835   4.065
27779W        W99450  18.076  33.380  13.338
27780W        W99451   4.267   9.881  11.578
27781W        W99452  29.082  15.590  13.851
27782W        W99453  27.408  39.773  10.801
27783W        W99454  12.235   5.995   3.618
27784W        W99455   2.992  19.618  13.567
27785W        W99456  25.189  24.048   4.183
27786W        W99457  30.613  26.011  11.547
27787W        W99458  18.686  44.905  10.737
27788W        W99459  35.833   7.013   0.274
27789W        W99460  25.486  35.571   3.249
27790W        W99461  42.027  27.125  14.936
27791W        W99462  35.752   9.173  14.947
27792W        W99463  44.553  26.190   3.285
27793W        W99464  43.181  23.157   4.873
27794W        W99465  17.782  29.407   3.145
27795W        W99466  15.195  34.059   2.191
27796W        W99467  43.499  32.801  14.320
27797W        W99468  21.265  19.966   0.881
27798W        W99469  19.002  37.993   4.020
27799W        W99470  35.898   0.437   2.118
27800W        W99471  19.041  42.877  12.108
27801W        W99472  13.380  32.095  11.771
27802W        W99473  32.295  24.648   3.108
27803W        W99474   5.223  28.746  14.059
27804W        W99475   5.836  19.416  12.041
27805W        W99476  31.641  17.191   1.061
27806W        W99477  20.481  37.577   1.840
27807W        W99478   0.280  32.891   3.750
27808W        W99479   9.713  23.294  14.796
27809W        W99480  29.373   6.878  10.644
27810W        W99481  28.671  30.492   4.045
27811W        W99482  16.949  36.916  14.953
27812W        W99483  23.101  40.530  10.749
27813W        W99484  12.964  14.970  14.790
27814W        W99485  34.348  21.843  11.172
27815W        W99486  16.863  19.637  13.742
27816W        W99487  41.916  31.163   1.978
27817W        W99488  17.573  17.704   4.695
27818W        W99489   5.620  24.614   0.397
27819W        W99490  16.255  20.649  11.640
27820W        W99491   7.376  16.207   3.212
27821W        W99492   3.587  37.786  12.494
27822W        W99493  39.041  10.429   2.149
27823W        W99494  17.361  22.942   9.919
27824W        W99495  41.196  18.802  11.421
27825W        W99496  15.571  32.462  13.909
27826W        W99497   9.323   3.900   4.543
27827W        W99498  27.062  32.146  12.426
27828W        W99499  34.634  32.865   1.310
27829W        W99500  41.573   4.439  11.869
27830W        W99501  23.157  30.173  11.200
27831W        W99502   2.335  13.948  14.495
27832W        W99503  15.325  15.634   4.291
27833W        W99504  16.651  31.507   0.479
27834W        W99505  12.765  15.334   4.285
27835W        W99506  39.496   0.906  13.989
27836W        W99507  29.954  37.567  13.093
27837W        W99508  25.571  44.074   1.846
27838W        W99509  24.234   2.729  13.432
27839W        W99510  13.936  27.229   2.009
27840W        W99511   3.459  22.188  10.410
27841W        W99512  20.826  24.669  12.467
27842W        W99513   5.462  40.841   3.126
27843W        W99514  14.028  32.472  11.062
27844W        W99515   1.399  38.275   2.772
27845W        W99516  14.113  24.359  13.481
27846W        W99517  13.247  27.642  13.846
27847W        W99518   3.285  29.450   4.482
27848W        W99519  25.778  30.088   1.767
27849W        W99520   1.664  40.091  12.622
27850W        W99521  23.776  33.194  10.740
27851W        W99522  24.826  29.563   4.035
27852W        W99523   7.200   4.386  14.770
27853W        W99524  13.215  14.152  11.630
27854W        W99525  35.019  20.164   0.399
27855W        W99526  35.697  37.908  13.458
27856W        W99527  23.561  42.841   0.240
27857W        W99528  19.283  14.921   9.573
27858W        W99529  33.308  33.797   4.974
27859W        W99530  19.307  10.655   1.894
27860W        W99531  30.870  35.979  12.724
27861W        W99532  23.985  32.786  11.123
27862W        W99533  38.845   0.275  11.958
27863W        W99534  21.964  12.203   1.173
27864W        W99535   4.614   3.797   2.486
27865W        W99536  44.783  44.415   1.029
27866W        W99537  10.407  34.145  10.452
27867W        W99538  39.557   7.598   4.193
27868W        W99539   9.629  17.658  13.495
27869W        W99540  22.023  13.483   2.267
27870W        W99541  44.473  39.870  12.602
27871W        W99542   8.834  22.568   4.080
27872W        W99543  11.069  12.377   0.948
27873W        W99544   9.158  22.487  14.876
27874W        W99545  24.000   4.334  13.383
27875W        W99546  38.395  27.162   4.947
27876W        W99547   5.690  28.855   1.471
27877W        W99548  32.549   4.383   2.912
27878W        W99549  37.089   6.436  12.576
27879W        W99550   8.466  10.809   1.289
27880W        W99551   1.717  40.987  12.490
27881W        W99552   1.360   3.772   2.659
27882W        W99553  18.157  15.545  11.294
27883W        W99554   3.237  39.844   1.261
27884W        W99555  42.773  31.591   1.257
27885W        W99556  36.821  37.454   2.876
27886W        W99557  23.709  25.157  12.134
27887W        W99558   7.819  27.828   3.854
27888W        W99559  27.128  33.755   2.359
27889W        W99560  10.585  20.599   3.827
27890W        W99561  18.989   5.406   1.668
27891W        W99562  29.902  14.148   2.351
27892W        W99563  30.319   6.317   1.310
27893W        W99564  13.195   6.881  11.078
27894W        W99565  23.706  27.464  11.657
27895W        W99566  28.624   0.810  11.083
27896W        W99567  15.160  13.664   3.336
27897W        W99568  39.335  41.419   0.485
27898W        W99569   6.281  34.143   3.256
27899W        W99570  13.396  27.185   1.935
27900W        W99571  24.297  22.288  14.113
27901W        W99572   4.375  20.298   1.726
27902W        W99573  36.441  44.799  13.294
27903W        W99574  30.896  30.040  14.597
27904W        W99575  20.147   5.230  14.676
27905W        W99576  28.153  24.617  13.779
27906W        W99577  20.253  29.615   3.746
27907W        W99578   4.815  14.232   1.362
27908W        W99579  33.842   0.883  12.609
27909W        W99580  39.472  27.708   2.803
27910W        W99581   2.714  36.036  12.511
27911W        W99582   8.948   6.818  12.469
27912W        W99583  16.116   6.158   4.787
27913W        W99584  32.380   3.674   3.702
27914W        W99585  21.503   2.575  11.717
27915W        W99586  22.637   0.407   0.728
27916W        W99587  23.980  26.161  12.054
27917W        W99588  39.995  13.145   3.241
27918W        W99589  36.861  23.412   2.401
27919W        W99590   2.267  29.608  14.412
27920W        W99591  34.528  16.082  13.357
27921W        W99592  13.074  32.838  12.355
27922W        W99593  36.936  20.120  11.962
27923W        W99594  34.905  36.848  14.439
27924W        W99595  33.934  16.744  13.753
27925W        W99596  33.010   1.258  12.155
27926W        W99597  28.984  19.263   4.222
27927W        W99598  38.772  43.034  14.388
27928W        W99599  37.112   2.995  11.067
27929W        W99600   0.209  14.709  13.610
27930W        W99601  40.519  31.159  13.980
27931W        W99602  25.889  35.647   5.049
27932W        W99603   0.353  34.313  11.514
27933W        W99604  38.072  30.759   1.516
27934W        W99605  18.507   8.824   3.168
27935W        W99606  26.646  37.072  14.278
27936W        W99607  24.522  20.078   2.953
27937W        W99608  17.148  31.657   4.115
27938W        W99609  19.531  14.581  13.308
27939W        W99610   8.379  20.832   0.479
27940W        W99611   0.511  44.805   0.679
27941W        W99612  13.125  31.597  14.668
27942W        W99613  14.156  37.954  14.748
27943W        W99614  15.992   7.820  14.492
27944W        W99615  31.115  26.710  10.276
27945W        W99616  19.276  38.223   1.712
27946W        W99617  27.343   8.082  12.095
27947W        W99618  34.344  15.805  12.432
27948W        W99619  23.518  25.086   0.055
27949W        W99620  38.493  19.837   4.141
27950W        W99621  23.478  22.345  12.506
27951W        W99622  14.172   2.031   1.051
27952W        W99623  17.596  22.603  13.003
27953W        W99624  22.437  14.107  14.494
27954W        W99625  27.749   0.457  13.919
27955W        W99626   9.360  44.958  11.510
27956W        W99627  23.217   8.738   4.806
27957W        W99628   2.013  29.183  12.427
27958W        W99629  29.501   3.727  14.428
27959W        W99630  25.458  22.008  11.219
27960W        W99631  17.374  39.547  12.890
27961W        W99632  28.213  27.639   0.796
27962W        W99633   0.220  39.204  12.907
27963W        W99634  29.690  43.361  11.913
27964W        W99635  12.289  31.130   4.447
27965W        W99636  16.600  32.325   0.013
27966W        W99637  38.728  18.501  11.548
27967W        W99638  44.882  44.324   1.909
27968W        W99639  34.455  14.529   0.371
27969W        W99640  26.257  14.157   3.650
27970W        W99641  40.507  13.716   3.767
27971W        W99642   5.690  25.446   0.791
27972W        W99643  13.308  12.557   5.185
27973W        W99644  20.771   0.014  12.696
27974W        W99645   2.976  35.446   2.209
27975W        W99646  24.810  30.869   0.339
27976W        W99647   5.406   7.416   3.422
27977W        W99648  29.158  23.199  11.708
27978W        W99649   3.347  43.789   3.373
27979W        W99650  25.096   7.694  13.898
27980W        W99651  27.069  20.666  12.940
27981W        W99652  14.960   8.899   0.996
27982W        W99653  34.952   2.536  10.547
27983W        W99654  42.765   1.456   4.547
27984W        W99655   5.479   3.669   3.892
27985W        W99656   6.843  44.045  10.398
27986W        W99657  40.867  25.558  14.937
27987W        W99658  14.251  39.045   1.237
27988W        W99659  19.445  12.714  14.765
27989W        W99660  43.394  43.947   2.236
27990W        W99661   4.762  38.322   2.323
27991W        W99662  38.903  17.594   0.728
27992W        W99663   0.189  26.890   4.378
27993W        W99664  33.444   4.674  14.705
27994W        W99665  11.166   5.916   3.795
27995W        W99666  22.557  14.011   1.114
27996W        W99667   8.235  27.335   4.415
27997W        W99668  20.154   3.594  11.963
27998W        W99669  43.757  15.559  13.413
27999W        W99670  44.449   0.257  11.623
28000W        W99671   9.996   6.366   2.242
28001W        W99672  43.928  43.138   3.716
28002W        W99673  25.191  17.461   3.582
28003W        W99674  10.135  28.531  12.548
28004W        W99675  32.990  41.553   1.280
28005W        W99676  36.442  41.581  13.325
28006W        W99677   0.880  25.429   0.885
28007W        W99678  13.799  44.370  12.580
28008W        W99679  31.432  11.153  13.055
28009W        W99680  14.873  31.067   0.382
28010W        W99681  38.846  11.193  13.554
28011W        W99682  18.685  16.843  13.411
28012W        W99683   5.911  42.565  12.567
28013W        W99684  35.312  26.290   2.338
28014W        W99685  31.350  36.304  12.728
28015W        W99686  22.804   1.776   1.301
28016W        W99687  14.337  34.894   1.604
28017W        W99688  16.306   4.759  13.218
28018W        W99689   8.822   4.745  12.390
28019W        W99690   6.225  18.402  14.042
28020W        W99691  37.394  16.703   0.969
28021W        W99692  26.479  44.066   1.388
28022W        W99693   5.812  34.819   1.291
28023W        W99694  21.313  21.269   1.209
28024W        W99695  12.332  16.588   4.658
28025W        W99696  12.704   7.655   1.412
28026W        W99697  12.084  18.775  12.069
28027W        W99698  21.714  41.940  10.651
28028W        W99699  35.233  28.177   4.609
28029W        W99700  25.948  11.182   4.469
28030W        W99701  21.119  26.691  12.902
28031W        W99702   3.272  44.494   2.276
28032W        W99703  20.179  30.915   1.269
28033W        W99704  23.183  37.058   1.321
28034W        W99705  31.621  14.886  14.994
28035W        W99706   0.379   8.382   0.984
28036W        W99707  32.149  15.134   3.825
28037W        W99708  21.225  40.342   0.667
28038W        W99709  17.176   9.780  12.829
28039W        W99710  22.292   9.718  13.782
28040W        W99711  35.170   1.921  14.448
28041W        W99712   8.775  28.962  14.460
28042W        W99713  10.601  11.136  11.915
28043W        W99714  42.587   8.759  11.126
28044W        W99715  43.415  34.586  14.878
28045W        W99716  20.168  26.879   5.618
28046W        W99717  26.170   2.466  10.732
28047W        W99718  44.943  12.282  12.102
28048W        W99719   5.279  19.748  14.369
28049W        W99720   9.682  25.094   3.264
28050W        W99721  26.982   1.248   1.372
28051W        W99722  21.975  39.968  12.130
28052W        W99723   4.359  14.958  13.104
28053W        W99724  38.869  36.824  11.536
28054W        W99725  44.049   4.278  13.918
28055W        W99726   5.233  18.111   2.428
28056W        W99727  40.980  28.696  11.513
28057W        W99728  18.217  14.761  14.900
28058W        W99729  27.602  26.115  14.800
28059W        W99730  14.818  13.830  11.757
28060W        W99731  41.076  16.459   2.586
28061W        W99732  27.398  15.190  12.027
28062W        W99733  10.378  20.734   1.894
28063W        W99734  40.634  19.958  12.422
28064W        W99735  35.265  10.269  11.036
28065W        W99736   3.090  23.782   4.549
28066W        W99737  27.520  22.051   3.562
28067W        W99738   1.559  25.979   2.317
28068W        W99739   5.324   6.817  10.758
28069W        W99740   5.217  15.583   1.409
28070W        W99741  19.072  19.066   0.868
28071W        W99742   8.447  15.205   3.139
28072W        W99743   5.902  42.711   0.793
28073W        W99744   3.317  29.496   5.013
28074W        W99745  12.217  42.562   5.070
28075W        W99746  21.491  13.631   1.496
28076W        W99747  29.052  37.413   3.735
28077W        W99748  29.245  42.783   0.389
28078W        W99749  34.086  34.450   0.910
28079W        W99750  32.465  38.556  10.700
28080W        W99751  38.456  17.183   2.215
28081W        W99752  10.676  23.270   2.667
28082W        W99753  13.895  16.640  11.539
28083W        W99754  19.622  30.918   3.602
28084W        W99755  31.372   5.296  13.137
28085W        W99756  22.071  37.310  14.416
28086W        W99757  12.495  27.963  11.613
28087W        W99758  10.302  31.930   1.743
28088W        W99759  36.453  33.833   2.353
28089W        W99760  25.185  40.573   2.136
28090W        W99761   3.250  13.761  11.994
28091W        W99762  27.967  31.059  11.978
28092W        W99763   5.267   1.703   4.152
28093W        W99764  21.601  42.120   2.311
28094W        W99765  39.327   4.289  11.553
28095W        W99766   8.926  30.623  13.842
28096W        W99767  41.068  10.691   0.353
28097W        W99768  16.662  21.779   0.461
28098W        W99769  13.698  21.126   0.066
28099W        W99770   7.895  40.953   2.189
28100W        W99771  11.523  34.530   4.175
28101W        W99772   3.794  14.793   1.774
28102W        W99773  40.514   5.924   3.203
28103W        W99774  10.284  27.418   2.363
28104W        W99775   9.770  28.949   3.381
28105W        W99776  11.793  24.675  14.229
28106W        W99777   1.880  26.618  12.076
28107W        W99778  14.589  40.412   4.540
28108W        W99779  24.917  23.619  13.018
28109W        W99780  44.453  36.539  13.997
28110W        W99781  14.070  21.806   2.639
28111W        W99782  33.998  18.768  14.275
28112W        W99783  24.047  25.309  13.861
28113W        W99784  13.613  44.645  11.498
28114W        W99785  38.966  44.866   3.048
28115W        W99786   6.915  13.227  11.870
28116W        W99787  25.515  43.607   3.485
28117W        W99788  43.778  33.993   4.170
28118W        W99789  34.445  26.962   1.681
28119W        W99790  15.627  30.939   3.652
28120W        W99791   0.728   2.702   0.345
28121W        W99792  14.153  43.451   2.724
28122W        W99793   8.278   1.002   3.087
28123W        W99794  36.534   7.831   3.331
28124W        W99795  26.312  22.582  13.917
28125W        W99796  24.594  11.254   2.398
28126W        W99797  28.577   2.413  13.370
28127W        W99798  21.604  32.847   4.252
28128W        W99799  44.046   3.872   2.069
28129W        W99800  29.709  35.224  10.419
28130W        W99801   1.396  27.646   2.233
28131W        W99802  10.083  28.161  13.718
28132W        W99803  29.641  44.056   2.323
28133W        W99804   3.447   4.947  13.884
28134W        W99805  39.023  13.106  13.974
28135W        W99806  10.675  27.970  13.350
28136W        W99807  34.017  44.067  10.665
28137W        W99808   9.927  18.799  12.521
28138W        W99809  19.828  27.584   1.222
28139W        W99810  28.538   4.308  13.941
28140W        W99811  34.079   4.879   2.130
28141W        W99812  44.503  39.538   1.662
28142W        W99813  43.378  13.114  10.748
28143W        W99814  17.006  42.787  10.539
28144W        W99815   8.738  38.897  12.608
28145W        W99816  26.229  20.694   0.492
28146W        W99817   0.368  15.339   4.474
28147W        W99818  14.936  33.418   4.931
28148W        W99819  20.088  29.614  10.631
28149W        W99820  28.908   1.526  12.084
28150W        W99821  39.349  15.090  12.419
28151W        W99822  23.682  11.391   1.030
28152W        W99823   5.217  34.807   2.285
28153W        W99824  26.772   4.938  10.022
28154W        W99825   2.326   1.496   3.645
28155W        W99826   6.885  13.404   3.760
28156W        W99827   3.055  19.269   2.238
28157W        W99828  32.552  20.513   4.191
28158W        W99829  44.785  12.639  14.912
28159W        W99830  32.167  18.595  13.048
28160W        W99831  30.559  36.082   0.719
28161W        W99832  31.567  29.755  11.148
28162W        W99833  21.662  10.697  12.796
28163W        W99834  10.627   8.086   0.789
28164W        W99835  24.736  28.186  14.967
28165W        W99836  28.029  33.390  13.309
28166W        W99837  12.034  33.979  10.625
28167W        W99838  38.021  28.673   2.307
28168W        W99839  27.299  24.920  10.370
28169W        W99840  36.047  13.328  13.420
28170W        W99841  12.722   3.682  12.663
28171W        W99842  20.402  23.401  14.390
28172W        W99843  11.554   6.358  14.476
28173W        W99844  15.610  13.607   1.385
28174W        W99845  21.664   3.936   1.612
28175W        W99846  36.962  38.139  11.471
28176W        W99847  34.862   9.973   1.364
28177W        W99848   2.396  22.792   3.118
28178W        W99849  24.512   4.161  11.112
28179W        W99850  34.390  29.687   1.410
28180W        W99851  25.916  26.325   3.019
28181W        W99852   9.590   6.306  12.468
28182W        W99853  40.389  27.925  12.454
28183W        W99854  13.780  11.119  14.857
28184W        W99855  27.613  26.980  14.294
28185W        W99856  16.041  38.830  14.238
28186W        W99857   9.436  43.799  11.758
28187W        W99858   3.252  28.020  12.367
28188W        W99859   7.354   1.879   3.616
28189W        W99860   3.880  12.837  12.338
28190W        W99861   7.422  25.575  14.282
28191W        W99862  24.619  41.496  14.707
28192W        W99863   5.302  26.231  11.933
28193W        W99864  28.496   5.432   3.640
28194W        W99865  17.275  40.266  14.041
28195W        W99866   6.705  10.578  14.400
28196W        W99867  11.749  29.902   2.745
28197W        W99868  34.106  23.762  11.881
28198W        W99869  13.200  31.823  12.820
28199W        W99870  38.983  10.697   3.203
28200W        W99871  33.867  42.945   1.272
28201W        W99872  32.433   4.523   2.176
28202W        W99873  30.049  25.398   0.956
28203W        W99874   9.233   7.814   3.211
28204W        W99875   1.963  31.974  14.757
28205W        W99876  44.500  44.351   0.149
28206W        W99877  42.931  13.874   4.998
28207W        W99878  36.969  24.707  14.691
28208W        W99879  15.247   6.716  14.581
28209W        W99880  36.842  28.489   4.485
28210W        W99881  30.139  13.546   3.158
28211W        W99882  14.816  43.396  10.559
28212W        W99883  27.353   9.947  11.016
28213W        W99884   0.015  44.216  11.133
28214W        W99885   1.147  31.431  14.013
28215W        W99886  43.906  26.136  14.415
28216W        W99887  36.851  44.863   4.216
28217W        W99888   2.935  25.809  12.148
28218W        W99889  35.421  17.921  11.902
28219W        W99890  37.629   4.253  13.519
28220W        W99891   9.385   9.038   0.788
28221W        W99892  44.459  22.312   4.866
28222W        W99893  29.165  37.420  10.607
28223W        W99894  35.603  17.600  10.572
28224W        W99895  31.395  26.281  10.258
28225W        W99896  29.933  35.874  13.714
28226W        W99897  30.301  21.107   1.250
28227W        W99898  34.467  23.064   3.817
28228W        W99899   9.237  22.610   1.894
28229W        W99900  23.217  41.415   2.185
28230W        W99901  37.568  11.680  11.624
28231W        W99902   5.240   1.315  12.481
28232W        W99903  24.267   4.019  10.654
28233W        W99904  27.813   6.180   5.133
28234W        W99905  33.874  42.894   4.300
28235W        W99906   7.465  33.320  10.173
28236W        W99907   8.085  21.194  12.478
28237W        W99908  38.285   1.922  11.617
28238W        W99909  32.135  36.572  12.477
28239W        W99910  40.047  12.307  13.058
28240W        W99911  24.243  21.348   2.404
28241W        W99912  20.939  26.484  12.457
28242W        W99913  21.573   6.696  12.398
28243W        W99914  37.889  34.163  13.318
28244W        W99915  20.977  22.116  14.616
28245W        W99916  42.581  24.069   0.254
28246W        W99917  18.962  17.315  13.919
28247W        W99918  17.873  12.687  12.459
28248W        W99919  38.111  43.337   1.622
28249W        W99920   5.160   4.820   4.567
28250W        W99921   7.540  25.970  12.011
28251W        W99922  26.906  37.296  11.182
28252W        W99923  19.089  11.969   2.336
28253W        W99924  34.468   4.862  10.977
28254W        W99925   2.318  22.972  12.919
28255W        W99926  11.146   9.851  14.295
28256W        W99927  13.112  38.341   4.857
28257W        W99928  32.033  12.618   2.557
28258W        W99929  43.556  23.966  11.839
28259W        W99930  17.358   4.311   0.938
28260W        W99931  18.797  33.435  14.832
28261W        W99932   6.849   1.206   3.505
28262W        W99933  24.085  37.284  11.250
28263W        W99934  36.345  35.380  13.286
28264W        W99935  43.983  43.588   5.284
28265W        W99936  28.018  34.981   3.327
28266W        W99937  30.109  10.906  11.505
28267W        W99938  25.677  36.874  14.467
28268W        W99939  29.687   5.116  10.221
28269W        W99940  26.572  12.642   4.549
28270W        W99941  25.814  40.557   4.646
28271W        W99942  27.008  37.078   3.227
28272W        W99943   5.990  15.092  13.343
28273W        W99944  40.913  22.190   0.342
28274W        W99945  32.721  38.057  12.556
28275W        W99946   8.085  44.275  10.631
28276W        W99947  40.487   1.432  12.935
28277W        W99948  31.510   7.509  12.470
28278W        W99949  34.947   2.815  12.765
28279W        W99950  26.548  43.991  13.505
28280W        W99951  35.297  18.044   0.954
28281W        W99952  22.424  12.270  10.619
28282W        W99953  18.084  28.982   4.347
28283W        W99954  44.854  19.306  12.448
28284W        W99955  14.203  16.241  12.632
28285W        W99956   4.175   6.929   0.282
28286W        W99957  38.279  37.389  13.948
28287W        W99958  43.024  35.830   3.270
28288W        W99959  17.687  14.730   2.580
28289W        W99960  38.647  21.086   4.983
28290W        W99961  13.651  20.328  13.448
28291W        W99962   3.240  29.497  10.730
28292W        W99963  32.995  42.385  11.186
28293W        W99964  20.462  11.910   9.757
28294W        W99965  34.464   7.792   3.118
28295W        W99966   6.175   9.538  11.398
28296W        W99967  37.392  12.606  13.802
28297W        W99968  38.274  13.255   2.722
28298W        W99969   0.071  38.276  10.735
28299W        W99970  19.552  28.370   0.787
28300W        W99971  44.786  28.203   4.504
28301W        W99972  18.349  43.424   1.740
28302W        W99973  26.052  18.248   1.398
28303W        W99974  39.499  25.957   1.589
28304W        W99975  25.302  24.976  14.406
28305W        W99976  42.062  44.172   3.237
28306W        W99977  42.469  12.849   3.319
28307W        W99978  26.209  22.983   1.389
28308W        W99979  24.583  30.029  13.524
28309W        W99980  32.896   8.369  12.045
28310W        W99981   4.737  42.110   3.934
28311W        W99982   9.380  33.390   3.419
28312W        W99983   7.466  10.839  11.946
28313W        W99984  37.072  37.413   0.705
28314W        W99985  27.983  25.565  11.985
28315W        W99986  35.854   7.666   4.646
28316W        W99987  19.701  38.376   4.337
28317W        W99988  38.037   9.867   1.342
28318W        W99989  37.295  32.607   4.555
28319W        W99990  25.103  20.234   3.610
28320W        W99991  11.383   9.369   3.707
28321W        W99992  19.797   0.275  11.864
28322W        W99993  32.390  19.228   1.960
28323W        W99994  23.418  42.036   3.241
28324W        W99995   3.750  38.516  14.779
28325W        W99996  37.229   4.044  11.967
28326W        W99997  29.418  37.504  12.832
28327W        W99998  26.499  17.307   0.409
28328W        W99999  19.013   7.734   1.967
28329W        W    0  28.596  13.704  12.263
28330W        W    1  16.545  10.139  10.750
28331W        W    2   3.013   6.635  13.406
28332W        W    3   8.365  11.158  13.530
28333W        W    4  22.926  18.609   4.037
28334W        W    5  32.262  19.485   2.424
28335W        W    6   8.758  12.853   1.508
28336W        W    7  43.361   2.986   2.808
28337W        W    8  37.272   8.459  13.645
28338W        W    9  29.449   9.744   3.656
28339W        W   10  39.863  17.084   0.378
28340W        W   11  12.170  14.392  14.833
28341W        W   12  29.173   4.809   0.868
28342W        W   13  10.685  25.606   4.318
28343W        W   14  22.273  15.248  11.054
28344W        W   15  11.144  19.253  13.794
28345W        W   16   2.399  37.171  10.745
28346W        W   17  30.817  36.924   1.869
28347W        W   18  29.886   2.742  13.240
28348W        W   19  25.135  32.454   4.095
28349W        W   20   6.927   4.681   0.741
28350W        W   21  35.952  40.056   3.688
28351W        W   22  15.775  16.094   1.296
28352W        W   23  35.938   6.194  12.811
28353W        W   24   8.857   1.862   1.339
28354W        W   25  44.158  25.306   4.676
28355W        W   26   2.923  29.256  13.849
28356W        W   27  22.176  44.428  10.653
28357W        W   28   0.749  13.534  10.034
28358W        W   29   0.249   1.769   1.839
28359W        W   30   4.472  12.706   1.610
28360W        W   31   7.665  17.393  11.165
28361W        W   32   9.159  26.890  10.518
28362W        W   33  19.508  26.149  10.137
28363W        W   34  42.563  21.584  12.275
28364W        W   35   5.765   0.444   4.911
28365W        W   36  40.523  29.928  12.558
28366W        W   37  35.794  38.381   3.711
28367W        W   38  22.246  43.062   0.167
28368W        W   39   1.865   6.795   4.545
28369W        W   40  15.852  16.599   1.422
28370W        W   41  15.275  35.669   3.628
28371W        W   42  32.520  15.771   0.762
28372W        W   43  32.231  24.967   0.451
28373W        W   44   1.994  13.626  11.480
28374W        W   45   5.962  19.799  13.333
28375W        W   46  18.311  37.885   1.510
28376W        W   47  20.087  20.447  13.360
28377W        W   48  32.985  35.806   4.785
28378W        W   49  10.148  20.082  12.811
28379W        W   50  19.491   1.044  11.565
28380W        W   51  12.436   5.935  14.981
28381W        W   52  15.653   2.715  13.393
28382W        W   53  16.570  21.373   0.093
28383W        W   54  15.070   9.767   0.432
28384W        W   55  28.781  24.015  10.633
28385W        W   56  15.834  36.543   1.549
28386W        W   57  31.852   6.225   1.278
28387W        W   58  40.366  42.134  11.604
28388W        W   59   9.366  15.542  11.997
28389W        W   60  21.568  12.792  12.406
28390W        W   61  22.645  37.945  14.913
28391W        W   62  10.032  38.407   3.119
28392W        W   63  39.739  13.150   2.795
28393W        W   64   3.770  20.701   2.296
28394W        W   65  27.958  22.768   3.237
28395W        W   66  21.324  31.545   1.177
28396W        W   67  17.983  20.771   4.655
28397W        W   68  40.775  10.008   3.953
28398W        W   69   9.813  30.635   3.019
28399W        W   70  36.311  43.293   4.086
28400W        W   71  18.635  35.150  14.697
28401W        W   72  23.655  18.820   3.676
28402W        W   73  26.144   1.429  10.408
28403W        W   74   0.892  43.998   4.300
28404W        W   75  34.000  28.706  14.714
28405W        W   76  39.158  44.782  12.336
28406W        W   77  11.874  16.414  14.356
28407W        W   78  31.826  29.973  14.779
28408W        W   79  29.655  19.756   0.466
28409W        W   80   4.492  40.941  14.075
28410W        W   81  12.442  24.668  11.595
28411W        W   82  15.944  28.409  12.893
28412W        W   83  17.761  15.851   3.611
28413W        W   84  24.557  18.260  10.494
28414W        W   85  26.489  31.859  14.363
28415W        W   86  43.466  40.884  10.552
28416W        W   87  30.050   8.403   0.969
28417W        W   88  11.436  42.468  14.318
28418W        W   89  30.867  41.896   2.717
28419W        W   90  10.409   1.768  10.325
28420W        W   91  41.122  12.191  14.430
28421W        W   92  30.414   2.835   1.959
28422W        W   93  44.724  23.537   0.887
28423W        W   94  43.787  38.789  10.650
28424W        W   95  44.901  17.734   4.659
28425W        W   96  39.512  26.427  10.547
28426W        W   97  40.932  21.145  14.403
28427W        W   98  30.604  12.265   3.704
28428W        W   99  36.301   2.980  14.334
28429W        W  100  17.687  13.115  12.224
28430W        W  101  16.674   5.711   2.237
28431W        W  102  26.572  17.295  13.259
28432W        W  103  12.382  35.990   2.829
28433W        W  104  39.346  37.600  12.790
28434W        W  105  43.769  30.894   2.259
28435W        W  106  19.643  26.313   0.374
28436W        W  107  39.513   1.759  11.175
28437W        W  108  28.440   4.293  12.039
28438W        W  109  30.186  44.238  14.835
28439W        W  110  39.920  16.670   0.057
28440W        W  111   9.251  10.292  13.427
28441W        W  112  10.884  15.390  14.175
28442W        W  113  37.407   4.824   5.135
28443W        W  114  21.019  44.407   0.746
28444W        W  115  28.767  15.580   0.955
28445W        W  116  37.100  12.906  14.154
28446W        W  117  26.766   0.662  12.556
28447W        W  118  13.344  23.015   3.981
28448W        W  119  36.698  11.800   3.807
28449W        W  120  35.110  32.086   4.146
28450W        W  121  16.183  16.303   2.839
28451W        W  122  18.540  39.893   0.946
28452W        W  123  18.500  37.458  11.683
28453W        W  124  30.011  31.482   2.858
28454W        W  125  12.518  31.942   9.974
28455W        W  126  44.810  36.085  14.742
28456W        W  127  38.918   1.656   3.202
28457W        W  128  21.514  34.374   0.970
28458W        W  129   5.197  11.496  14.089
28459W        W  130  27.065   4.828  13.944
28460W        W  131  29.292  16.702   4.101
28461W        W  132   1.312  32.604  10.713
28462W        W  133  23.652   4.150  12.461
28463W        W  134  44.901  11.913  13.077
28464W        W  135  17.356  38.886   4.103
28465W        W  136  23.427   4.442   2.349
28466W        W  137   9.006   5.601   3.654
28467W        W  138  32.010   9.453  14.783
28468W        W  139  10.416   9.357   1.035
28469W        W  140  28.167  26.451   1.863
28470W        W  141  41.553  17.216   4.585
28471W        W  142   2.816  37.075  14.164
28472W        W  143  12.928   2.823   2.180
28473W        W  144  22.926   1.015  14.831
28474W        W  145   8.303  41.752  12.887
28475W        W  146  21.663  40.333   0.347
28476W        W  147  29.970  39.570   4.605
28477W        W  148  43.598   3.790  14.301
28478W        W  149  20.988  23.177  10.152
28479W        W  150  33.977  23.662  11.379
28480W        W  151  36.353  43.268  14.339
28481W        W  152  17.063  29.961  12.126
28482W        W  153  43.064   7.626   2.427
28483W        W  154  42.443  18.716   3.878
28484W        W  155  15.565  17.410  11.134
28485W        W  156   1.030   6.961  11.732
28486W        W  157  42.694   6.536  13.423
28487W        W  158   8.314  39.888  11.582
28488W        W  159  13.045  34.844  10.685
28489W        W  160  43.517  25.073   3.073
28490W        W  161  20.051   2.723   1.878
28491W        W  162  44.729  37.432   3.304
28492W        W  163   2.421  10.893   2.691
28493W        W  164  26.304   2.956  14.449
28494W        W  165  26.300  36.225   2.699
28495W        W  166  32.711  33.596   1.718
28496W        W  167   1.821  12.053   0.694
28497W        W  168   4.936  35.956   5.042
28498W        W  169  43.482  20.081  11.975
28499W        W  170  21.046  11.475  14.718
28500W        W  171   2.461  22.993   4.167
28501W        W  172  32.526  19.684   3.066
28502W        W  173  37.573  17.213   1.768
28503W        W  174  43.450  18.770   3.038
28504W        W  175  18.773  17.111  10.609
28505W        W  176  40.098   6.679   0.842
28506W        W  177  44.046   2.795  13.308
28507W        W  178  40.010  37.337   4.093
28508W        W  179  33.556  39.277   2.382
28509W        W  180  11.391  32.686  13.842
28510W        W  181   6.345   2.731   1.702
28511W        W  182   1.989   9.246  11.482
28512W        W  183   2.261  16.015   3.463
28513W        W  184  15.246   7.667   3.255
28514W        W  185  30.551  12.812   3.697
28515W        W  186  40.019  31.294   4.279
28516W        W  187  10.422  16.554  12.058
28517W        W  188  24.524  27.203   0.593
28518W        W  189  29.447  10.304  13.011
28519W        W  190   7.971  38.878   0.931
28520W        W  191  11.643  10.643  14.354
28521W        W  192  13.574  16.801   2.311
28522W        W  193  13.075   0.049   2.650
28523W        W  194  32.624  30.660   3.761
28524W        W  195  27.908  43.018  11.993
28525W        W  196   3.554  28.405   4.443
28526W        W  197  34.305  26.646  14.449
28527W        W  198  31.674  44.247   4.158
28528W        W  199  16.562  25.193   4.209
28529W        W  200  27.041  19.842  14.107
28530W        W  201  15.580   7.780   3.709
28531W        W  202  15.601  39.032  13.000
28532W        W  203   4.277  40.989  11.654
28533W        W  204  33.808  10.594   1.432
28534W        W  205   7.429  26.595  11.431
28535W        W  206  22.217  37.385   4.981
28536W        W  207  33.502  23.644  13.601
28537W        W  208  14.272  17.300   2.371
28538W        W  209  34.371  42.034  12.103
28539W        W  210   6.909  22.259  10.995
28540W        W  211  30.182  14.589   2.394
28541W        W  212   4.770   5.928  12.569
28542W        W  213  24.675  19.837  12.961
28543W        W  214  30.398  28.498  14.703
28544W        W  215  20.496  14.984  12.885
28545W        W  216  36.579  39.856   0.998
28546W        W  217  15.964   8.331   3.863
28547W        W  218  39.561  22.492   3.346
28548W        W  219   9.788  33.820   4.675
28549W        W  220   5.222  10.647   4.538
28550W        W  221  41.738  36.771  12.231
28551W        W  222  12.759  16.357   4.254
28552W        W  223  18.879  29.479   4.187
28553W        W  224  21.926  18.719   3.328
28554W        W  225   2.736   3.715  11.340
28555W        W  226  22.612  33.441   2.226
28556W        W  227  23.737  35.919   0.766
28557W        W  228  36.988  15.217   4.034
28558W        W  229  43.308  33.968  11.482
28559W        W  230   9.147  12.325  10.361
28560W        W  231  20.789   4.505  14.937
28561W        W  232  31.478  36.797   3.222
28562W        W  233  42.898  32.531  13.024
28563W        W  234  39.063  42.276  11.562
28564W        W  235  32.684  41.285  11.555
28565W        W  236  25.049  40.682   1.300
28566W        W  237  42.342  13.795   0.737
28567W        W  238  33.074  28.025  12.202
28568W        W  239  36.334  14.619  13.087
28569W        W  240  31.373  35.086  14.549
28570W        W  241  23.201  15.524  12.205
28571W        W  242   9.977  14.365  13.146
28572W        W  243  43.237  10.638   0.912
28573W        W  244  26.921   7.691  12.931
28574W        W  245  20.157   7.312   1.096
28575W        W  246  15.958  13.769   5.058
28576W        W  247  25.348  21.253   3.895
28577W        W  248  12.768  13.781   3.372
28578W        W  249  30.305  39.497  13.825
28579W        W  250  32.332  11.177   0.889
28580W        W  251  14.328  25.791  11.990
28581W        W  252  27.970  38.367  13.263
28582W        W  253  14.228  13.081   0.199
28583W        W  254   0.018  25.350   0.898
28584W        W  255  41.296   8.560  12.092
28585W        W  256  20.500  17.553   2.702
28586W        W  257   4.917  14.379   1.876
28587W        W  258  31.017   1.164   3.607
28588W        W  259  36.044  30.373   4.540
28589W        W  260  30.796  29.695  13.334
28590W        W  261   4.290  18.246   2.755
28591W        W  262  11.271  14.627  12.388
28592W        W  263   2.495  20.891  10.255
28593W        W  264  35.486  17.735   4.536
28594W        W  265  10.174  21.401  11.469
28595W        W  266  26.624  12.489  11.110
28596W        W  267  35.448  24.574   4.131
28597W        W  268  11.861  34.088   4.811
28598W        W  269  19.926  17.793  12.893
28599W        W  270  25.098   1.378  12.405
28600W        W  271  20.109  21.604   1.266
28601W        W  272  27.657   9.833   4.189
28602W        W  273  10.590   8.155   1.472
28603W        W  274  43.169  32.875  11.485
28604W        W  275  43.467  11.668  13.108
28605W        W  276  22.599  13.784  12.162
28606W        W  277  42.821  39.361   2.750
28607W        W  278  27.888   1.705  14.387
28608W        W  279  30.060  21.102  13.509
28609W        W  280   1.818  27.499   4.774
28610W        W  281  11.841  12.756  14.557
28611W        W  282   3.739  29.560  10.647
28612W        W  283  35.928   7.615  10.731
28613W        W  284  29.446  12.289  13.064
28614W        W  285   8.961  11.561   1.852
28615W        W  286  19.651  11.608   1.197
28616W        W  287   4.270  28.995  13.890
28617W        W  288  42.900  26.522  11.607
28618W        W  289   8.955  43.983   4.670
28619W        W  290  18.238  23.195  12.514
28620W        W  291  43.300  15.842   1.769
28621W        W  292  17.204  14.776   0.113
28622W        W  293  33.958   1.323   4.788
28623W        W  294  26.514  36.964  11.121
28624W        W  295  21.735   6.426  11.134
28625W        W  296  35.059  29.696   3.004
28626W        W  297   0.994   1.821  13.494
28627W        W  298  27.185  39.493  11.606
28628W        W  299   3.338  33.874  13.318
28629W        W  300  26.543  31.378  11.107
28630W        W  301  28.425   7.141  13.871
28631W        W  302   8.248  19.151   1.796
28632W        W  303  18.302  42.995  11.598
28633W        W  304  32.537  41.019   0.765
28634W        W  305  35.456   8.433   0.678
28635W        W  306  31.631   4.747   3.298
28636W        W  307   4.893  13.245   1.188
28637W        W  308  40.001  29.359  13.781
28638W        W  309   3.953  39.018  11.188
28639W        W  310  40.400  33.377   0.876
28640W        W  311   1.345  30.387  10.552
28641W        W  312   9.205  41.349   0.666
28642W        W  313   4.173  28.002   0.387
28643W        W  314  19.509  42.713  11.003
28644W        W  315  34.338  42.455  14.570
28645W        W  316  12.504  31.167   2.390
28646W        W  317  29.913   6.904   3.783
28647W        W  318  39.993  24.393   3.847
28648W        W  319  37.909  14.221  11.494
28649W        W  320  10.151  14.896   4.065
28650W        W  321  20.153  28.176  12.513
28651W        W  322  19.659  40.326   4.824
28652W        W  323  40.033  41.448  11.430
28653W        W  324   6.703  24.980  14.427
28654W        W  325  31.157   8.033  13.165
28655W        W  326  39.498  35.050  12.467
28656W        W  327   6.409  11.232   3.300
28657W        W  328   5.581  10.070   4.280
28658W        W  329  22.143  10.074   2.810
28659W        W  330   4.407  16.358  12.968
28660W        W  331   4.711  33.694   1.652
28661W        W  332  23.142  36.699  14.815
28662W        W  333  34.420  42.395  12.511
28663W        W  334  24.562   6.796  11.958
28664W        W  335  18.562  16.323  11.603
28665W        W  336  43.013  14.361  10.729
28666W        W  337  24.525  38.503  14.489
28667W        W  338  24.639  12.740   3.269
28668W        W  339  13.163  11.411  13.400
28669W        W  340   3.202   6.717  10.461
28670W        W  341  34.879  24.123   3.093
28671W        W  342   6.754  16.939   0.206
28672W        W  343  40.392  22.060   2.215
28673W        W  344  23.312  44.017  12.091
28674W        W  345  29.773  42.246  12.426
28675W        W  346  19.628  21.620  13.518
28676W        W  347  34.808  22.176  14.662
28677W        W  348  44.846  34.638   1.749
28678W        W  349  39.802   4.360  12.473
28679W        W  350  20.004  36.774   2.267
28680W        W  351  29.425  43.694  13.274
28681W        W  352  18.158  16.490   1.643
28682W        W  353  14.566   6.725   4.189
28683W        W  354  40.426  10.701  11.138
28684W        W  355  18.452  25.990   1.963
28685W        W  356  21.234  32.976   1.555
28686W        W  357  37.865  37.121  10.662
28687W        W  358  19.577   6.352  11.932
28688W        W  359   4.313  30.370  12.072
28689W        W  360  28.521  42.838  11.122
28690W        W  361  15.501  13.026  10.313
28691W        W  362   0.757  28.149   3.584
28692W        W  363  18.172  27.061  10.989
28693W        W  364   8.589  30.937   3.716
28694W        W  365  17.989  23.782  11.963
28695W        W  366  22.258   6.194   4.588
28696W        W  367  13.710  38.851  15.000
28697W        W  368  29.146  25.099   0.434
28698W        W  369  44.965  42.585  13.062
28699W        W  370   1.954  40.043   3.671
28700W        W  371  10.008   5.121   5.064
28701W        W  372  43.294  16.537  11.518
28702W        W  373  42.961  43.949  11.635
28703W        W  374  12.814  37.099  11.229
28704W        W  375  13.205  25.978   1.692
28705W        W  376  18.273  32.167  12.065
28706W        W  377   9.260  17.393  12.498
28707W        W  378  38.843  12.570  10.737
28708W        W  379  35.515  30.382  14.477
28709W        W  380  20.989  21.281  14.724
28710W        W  381  44.471  11.723   9.947
28711W        W  382  44.707  41.133  10.085
28712W        W  383  28.403  40.068   4.369
28713W        W  384  13.745  37.808   1.565
28714W        W  385  26.507  14.098   4.894
28715W        W  386   5.403   9.215   1.783
28716W        W  387  15.401  19.070   2.301
28717W        W  388  27.265  34.846  11.967
28718W        W  389  25.061  20.718  11.605
28719W        W  390  22.208  26.500   4.971
28720W        W  391  36.652  22.311   2.757
28721W        W  392  43.273  16.239   3.040
28722W        W  393  23.674  42.500  11.152
28723W        W  394  28.755   5.991  12.922
28724W        W  395  26.635   8.179  10.195
28725W        W  396   7.200   0.442  11.687
28726W        W  397  30.097  22.959  12.704
28727W        W  398  33.481  23.814  12.542
28728W        W  399  17.588  15.808  13.225
28729W        W  400  10.143  18.993   1.247
28730W        W  401  15.393  25.442   1.358
28731W        W  402  10.725  32.411   4.757
28732W        W  403  17.074   8.926   4.733
28733W        W  404  31.052  26.625  14.271
28734W        W  405   0.489  35.841   3.716
28735W        W  406   5.752  28.972  12.610
28736W        W  407  40.464  32.250  14.931
28737W        W  408  21.487  12.868  13.395
28738W        W  409  26.978   9.005  14.019
28739W        W  410  32.680   9.759   0.873
28740W        W  411  42.952  44.090  13.407
28741W        W  412   3.961  10.629  10.637
28742W        W  413  33.520  31.570   0.068
28743W        W  414  30.049  40.227  13.067
28744W        W  415  26.436   4.135  13.964
28745W        W  416  10.327  23.180   1.519
28746W        W  417  11.753  44.980   1.193
28747W        W  418  29.183  33.358  14.856
28748W        W  419  27.440  16.063  14.827
28749W        W  420  25.191  13.755  11.061
28750W        W  421  16.672   8.745   1.603
28751W        W  422  18.661  11.862   0.862
28752W        W  423  28.671  36.538   1.684
28753W        W  424  15.441  44.754   1.386
28754W        W  425  29.457  34.750   0.931
28755W        W  426  17.772   1.492  12.629
28756W        W  427  37.974  39.526   0.932
28757W        W  428  41.565  29.975   3.286
28758W        W  429  41.018  15.639   2.727
28759W        W  430  13.240  39.268   3.690
28760W        W  431  25.624   1.401   4.300
28761W        W  432  17.382  20.533  11.477
28762W        W  433  28.455  33.548  13.526
28763W        W  434  41.996  28.480  12.034
28764W        W  435  13.789  22.727   2.817
28765W        W  436  34.986  43.017  11.732
28766W        W  437   7.358  19.175   0.284
28767W        W  438  18.437  44.859   1.251
28768W        W  439  18.200  30.887  11.410
28769W        W  440  39.157  32.198   2.925
28770W        W  441  23.113  39.496   0.242
28771W        W  442   5.969  12.752  10.908
28772W        W  443  30.278  16.363   4.577
28773W        W  444  11.502   6.038  14.915
28774W        W  445  19.256  34.520   3.147
28775W        W  446   5.939  18.495  10.575
28776W        W  447  26.728   4.970   2.651
28777W        W  448  12.743   9.871   3.092
28778W        W  449  24.162  43.969   3.441
28779W        W  450  37.548  42.906   2.430
28780W        W  451  11.888   8.239  12.999
28781W        W  452  10.951   4.165  11.626
28782W        W  453  29.504  18.062  11.165
28783W        W  454  22.996   7.960  14.219
28784W        W  455   8.307  15.666  10.302
28785W        W  456  25.281  21.675  14.960
28786W        W  457  14.709   3.723   1.843
28787W        W  458   2.751  23.125  14.007
28788W        W  459  26.779  44.563   4.075
28789W        W  460  36.750  40.023  10.578
28790W        W  461   7.029  33.893  10.370
28791W        W  462  24.490   4.785   0.800
28792W        W  463  12.494  20.578   2.157
28793W        W  464  37.931   7.082  14.851
28794W        W  465   9.780  15.487  12.359
28795W        W  466  21.677   7.221  13.555
28796W        W  467  43.913  44.307  12.450
28797W        W  468  22.761  22.703   2.692
28798W        W  469  10.372  32.171   2.233
28799W        W  470  13.608  40.798  12.670
28800W        W  471  44.498   5.863   4.161
28801W        W  472   7.439  35.034   0.690
28802W        W  473  18.391  13.404  10.235
28803W        W  474  30.526  19.756   1.815
28804W        W  475  27.656  22.532   2.786
28805W        W  476   7.488  39.681   1.963
28806W        W  477   1.678  29.138   1.155
28807W        W  478  28.485   6.101   5.069
28808W        W  479   4.301  21.181  14.935
28809W        W  480  10.200   1.891  12.078
28810W        W  481  40.683  34.968   0.327
28811W        W  482  16.713   0.724   2.371
28812W        W  483   6.279   2.537   2.198
28813W        W  484   9.915  43.804  11.356
28814W        W  485  11.831  23.484   0.046
28815W        W  486   9.267   7.863   1.872
28816W        W  487  25.714  29.905  14.885
28817W        W  488  41.507  36.355  12.047
28818W        W  489  29.423  14.235  12.916
28819W        W  490  37.315  31.074  14.558
28820W        W  491  25.322  12.203  14.929
28821W        W  492  14.606  39.429  13.595
28822W        W  493  42.960  21.592   3.434
28823W        W  494  17.573  42.533  13.847
28824W        W  495   9.340   8.199  12.821
28825W        W  496  37.663   7.594   4.979
28826W        W  497  25.585  18.384   2.252
28827W        W  498   1.851  28.398  12.677
28828W        W  499  41.060  36.396  11.397
28829W        W  500  14.824  17.671  10.598
28830W        W  501  12.614   6.182   2.393
28831W        W  502  17.567  41.368   2.706
28832W        W  503   5.363  35.395   4.407
28833W        W  504  35.999  27.865  12.033
28834W        W  505   6.834   3.449  13.253
28835W        W  506  24.013   1.967   4.114
28836W        W  507  11.699  13.279  14.522
28837W        W  508  19.210  33.280  12.572
28838W        W  509  28.584  23.275  13.896
28839W        W  510   1.933  29.464  11.715
28840W        W  511   2.497  18.769   1.787
28841W        W  512  16.187  32.236  13.089
28842W        W  513  37.779   6.930   4.055
28843W        W  514  30.515  41.444  11.541
28844W        W  515  28.569   9.176   0.799
28845W        W  516  28.011  13.154  14.416
28846W        W  517  39.728  43.088  13.079
28847W        W  518  27.658  28.583   2.772
28848W        W  519  31.365  31.611   3.337
28849W        W  520   3.443   2.679   1.884
28850W        W  521  22.964   4.393  10.652
28851W        W  522   7.730  36.634  11.733
28852W        W  523  24.206  15.746   2.361
28853W        W  524  22.072  26.573  13.587
28854W        W  525  39.658  14.104   1.320
28855W        W  526  20.827  25.674  14.405
28856W        W  527  27.164  14.568   4.637
28857W        W  528   8.194  36.629   1.006
28858W        W  529  39.800  27.662   3.206
28859W        W  530  24.163  19.456  10.264
28860W        W  531  29.007  36.809  13.926
28861W        W  532  26.626   6.790  11.807
28862W        W  533   3.766  26.686   0.212
28863W        W  534  32.656  20.533   0.756
28864W        W  535  28.090   8.518   3.169
28865W        W  536  24.552  35.699   4.095
28866W        W  537   1.700  23.422  13.392
28867W        W  538  33.475  43.819  13.021
28868W        W  539   4.709  27.114  11.900
28869W        W  540   2.921   9.332   0.728
28870W        W  541  44.365  40.499  10.502
28871W        W  542  15.394  19.622   3.550
28872W        W  543   0.836   5.764   3.604
28873W        W  544  35.108   6.446   3.131
28874W        W  545  38.837   9.169  11.942
28875W        W  546  36.579  33.828  12.024
28876W        W  547   9.988  38.503   9.935
28877W        W  548  29.281   8.192   2.813
28878W        W  549  25.677  37.704   4.179
28879W        W  550  29.493  21.418   2.081
28880W        W  551  28.495  39.485   2.651
28881W        W  552  39.689  12.076  11.673
28882W        W  553  36.863  42.554  11.932
28883W        W  554  41.382   3.015  12.534
28884W        W  555  18.621   3.023   3.846
28885W        W  556  19.712  15.165  14.748
28886W        W  557  32.152  31.300   4.209
28887W        W  558  40.320  15.341   0.793
28888W        W  559  44.722  22.546  14.904
28889W        W  560   9.998  29.384   2.656
28890W        W  561  28.152  27.666  13.180
28891W        W  562  22.463  23.740  12.786
28892W        W  563  18.985  37.445  14.318
28893W        W  564  23.219  29.876  13.068
28894W        W  565  25.762  26.520   1.730
28895W        W  566  26.087  11.260   3.435
28896W        W  567  34.234   5.804  10.377
28897W        W  568  44.357  39.822   2.199
28898W        W  569  41.039  32.467   2.760
28899W        W  570   0.094  17.629  10.977
28900W        W  571  20.524   0.013  12.241
28901W        W  572  11.171  36.283   4.211
28902W        W  573  22.219  16.045  12.861
28903W        W  574  12.342  28.616   2.533
28904W        W  575  14.741  44.245   0.314
28905W        W  576  17.329   9.247   1.183
28906W        W  577  17.096  16.270   2.409
28907W        W  578  19.598  21.080  11.897
28908W        W  579  25.824  33.779   1.769
28909W        W  580  16.106   9.385  13.317
28910W        W  581   5.069  38.724   2.393
28911W        W  582  23.590  37.363  10.276
28912W        W  583   4.955  17.281  12.774
28913W        W  584  23.952  21.111   0.934
28914W        W  585   6.307  33.721  10.470
28915W        W  586   6.864  40.293   1.486
28916W        W  587  42.078  25.618   2.766
28917W        W  588  41.290  34.351   3.356
28918W        W  589  10.272  16.996   0.948
28919W        W  590  14.396  38.224  10.163
28920W        W  591  14.109   1.636   1.926
28921W        W  592   3.345  22.554   2.882
28922W        W  593  18.137   1.879  11.936
28923W        W  594  18.694  12.137   2.748
28924W        W  595  17.767  38.974   0.210
28925W        W  596  42.026  14.202  12.495
28926W        W  597  15.492   6.599  10.666
28927W        W  598  11.235   0.707   1.373
28928W        W  599  27.297  37.233  11.904
28929W        W  600  31.076  20.266  12.022
28930W        W  601  14.602   2.259   3.918
28931W        W  602  30.014   9.334   4.158
28932W        W  603  37.815  20.293   0.915
28933W        W  604  16.580  30.092   3.592
28934W        W  605  38.969  19.040   3.236
28935W        W  606  18.207  19.865  13.872
28936W        W  607   4.631  33.086  10.164
28937W        W  608  12.287  15.636  10.958
28938W        W  609   8.838  19.562  14.883
28939W        W  610  33.403  38.951  14.298
28940W        W  611  11.433   0.512  14.481
28941W        W  612  19.757  31.469   4.431
28942W        W  613   1.395  34.284  11.339
28943W        W  614  27.680   6.335   5.628
28944W        W  615  23.541  27.107  12.914
28945W        W  616  15.087  18.823   0.356
28946W        W  617  40.605  13.210  12.046
28947W        W  618  30.538  41.221  12.009
28948W        W  619  43.495  25.634  12.950
28949W        W  620   0.915   3.231  12.390
28950W        W  621  14.254  13.804   3.737
28951W        W  622  42.841  29.633   2.811
28952W        W  623   1.483  23.626  13.867
28953W        W  624  30.979  19.108  13.304
28954W        W  625  18.200  38.842  13.925
28955W        W  626   8.708  21.099   4.644
28956W        W  627  24.571   5.313   0.490
28957W        W  628  23.599  30.315  13.646
28958W        W  629  22.195  12.364   3.220
28959W        W  630  22.746  31.133   1.895
28960W        W  631  42.016   5.652   0.383
28961W        W  632  18.929   2.670   1.539
28962W        W  633  39.575  34.100  12.673
28963W        W  634   8.432  19.568   0.808
28964W        W  635   0.121  18.160   0.430
28965W        W  636  44.048  41.728  14.885
28966W        W  637  31.258  12.096   2.328
28967W        W  638  26.089   9.734  12.392
28968W        W  639  15.493  18.382   1.668
28969W        W  640  42.704  15.586  13.401
28970W        W  641  14.138   8.986  11.129
28971W        W  642  32.227  17.301   9.891
28972W        W  643  20.967  44.247   1.903
28973W        W  644  10.620  19.488  12.127
28974W        W  645  32.215  39.883  14.555
28975W        W  646  25.581  14.104   2.839
28976W        W  647  22.967  25.446   0.837
28977W        W  648  44.235  21.042  12.396
28978W        W  649   3.322  43.015  14.285
28979W        W  650  13.022   4.547  13.507
28980W        W  651  33.080  22.313   4.909
28981W        W  652  15.505  35.028  13.809
28982W        W  653   5.965  14.128  13.363
28983W        W  654  25.672  39.798  12.586
28984W        W  655   5.320  44.917  12.692
28985W        W  656   4.391  12.320  13.473
28986W        W  657  26.094  12.602  12.005
28987W        W  658  32.059  36.820  13.011
28988W        W  659  17.247   3.495  12.851
28989W        W  660   3.840  22.975  13.962
28990W        W  661  16.574  18.930  14.983
28991W        W  662  31.523  26.524   0.901
28992W        W  663  33.340  40.042   4.638
28993W        W  664   9.431  17.065  11.564
28994W        W  665  10.441  12.361   0.317
28995W        W  666   8.424  39.063  14.005
28996W        W  667  36.952  16.629  10.465
28997W        W  668   3.051   7.811   3.723
28998W        W  669  27.465  27.907   3.736
28999W        W  670  12.868  12.612   4.916
29000W        W  671  22.107  41.455   9.818
29001W        W  672  20.273  33.519   2.348
29002W        W  673  37.387   3.159   0.671
29003W        W  674   7.228   4.941  12.116
29004W        W  675  32.992  40.912  14.567
29005W        W  676  26.668  42.037   2.458
29006W        W  677  34.379  37.580  10.988
29007W        W  678  17.080  10.312  13.129
29008W        W  679  29.705  30.507  12.948
29009W        W  680   1.107  12.256   3.640
29010W        W  681  16.674  39.924   4.190
29011W        W  682   3.941   0.257   2.315
29012W        W  683   9.414  18.207   4.346
29013W        W  684  17.585  24.058   1.744
29014W        W  685  37.938   3.843  13.511
29015W        W  686  11.671   3.105  12.175
29016W        W  687  40.873  32.735   1.857
29017W        W  688  26.722  41.003   3.253
29018W        W  689  37.057  19.218   3.604
29019W        W  690  34.106  24.514   0.270
29020W        W  691   4.569  35.942  10.375
29021W        W  692   2.831   7.873  13.162
29022W        W  693  10.209  20.137  13.967
29023W        W  694   2.229  30.142   2.734
29024W        W  695  42.424  15.681  12.003
29025W        W  696   0.297   6.093  10.964
29026W        W  697   0.690   7.895  11.460
29027W        W  698  32.768   2.102  13.070
29028W        W  699  25.584  41.822   2.120
29029W        W  700   0.793   0.269   0.665
29030W        W  701  39.337  20.487  14.975
29031W        W  702  22.640  42.430  10.738
29032W        W  703   5.969  44.913  14.077
29033W        W  704  18.887  19.183   3.764
29034W        W  705  35.216  28.958  11.473
29035W        W  706   8.151   2.721   1.679
29036W        W  707  44.320  40.911   5.208
29037W        W  708   4.464   5.724  12.952
29038W        W  709  32.193  11.684  14.991
29039W        W  710  39.852  26.203   4.130
29040W        W  711   9.097  16.369   1.224
29041W        W  712   7.747   4.259  11.548
29042W        W  713  11.626  39.694   0.375
29043W        W  714   1.720   8.809   0.979
29044W        W  715  22.749  18.792  13.435
29045W        W  716  36.452  44.811   0.981
29046W        W  717  35.633  43.033  12.902
29047W        W  718   2.528  25.678   2.745
29048W        W  719  25.511   5.623  14.977
29049W        W  720  12.384  18.715  14.924
29050W        W  721  12.078  34.655   3.760
29051W        W  722  32.162  13.105   2.764
29052W        W  723  39.225  26.325   1.860
29053W        W  724  36.889  30.412  14.925
29054W        W  725   8.009  39.042  14.922
29055W        W  726  32.448  31.429   0.383
29056W        W  727   0.782  37.119   2.342
29057W        W  728  11.745   6.678  12.170
29058W        W  729   7.738  43.359  13.446
29059W        W  730   4.864  29.449  12.573
29060W        W  731  27.703  44.564  13.998
29061W        W  732   2.828  34.555   3.617
29062W        W  733  21.994  21.073  13.993
29063W        W  734  18.525  21.607  12.804
29064W        W  735  12.369  33.710  12.399
29065W        W  736   0.918  14.748   1.448
29066W        W  737  20.271  31.487   2.251
29067W        W  738  13.903   2.459  10.724
29068W        W  739   0.298  18.272  13.932
29069W        W  740  28.081  24.405  13.218
29070W        W  741  30.016  32.919  14.866
29071W        W  742  31.433   5.416   2.708
29072W        W  743  14.400  44.907   3.780
29073W        W  744  42.859  38.906  13.979
29074W        W  745  40.424  24.143   0.178
29075W        W  746   0.855  12.220   0.527
29076W        W  747  38.767  40.168   4.889
29077W        W  748  26.568  37.273   9.946
29078W        W  749  33.504   0.289   2.284
29079W        W  750  27.507   4.635   1.346
29080W        W  751  39.051  29.411   4.531
29081W        W  752  24.452   5.589   0.064
29082W        W  753  21.482  35.204   1.795
29083W        W  754  10.173  19.910   3.048
29084W        W  755  19.669  35.930  13.014
29085W        W  756   0.458  14.210  13.387
29086W        W  757  14.064  17.008  14.843
29087W        W  758  19.674   0.398   1.894
29088W        W  759  23.642  31.202  12.241
29089W        W  760  40.412  27.369   2.432
29090W        W  761   6.134  42.195  14.931
29091W        W  762  31.336  26.399   3.315
29092W        W  763  17.806  33.436   0.801
29093W        W  764   2.538  13.277  11.776
29094W        W  765  39.305  12.497   0.129
29095W        W  766  10.645  36.949  14.887
29096W        W  767  33.200  16.563   3.849
29097W        W  768  31.371  37.842  11.048
29098W        W  769   4.414  25.574   1.306
29099W        W  770  25.484  42.837   5.172
29100W        W  771  12.861  16.295   2.393
29101W        W  772  11.274  22.472  13.306
29102W        W  773  43.705   6.335  11.649
29103W        W  774  36.533   1.308   4.170
29104W        W  775   6.254  35.134  12.568
29105W        W  776  36.633  17.645  14.698
29106W        W  777  14.128   4.322  11.556
29107W        W  778  28.193  14.785  12.542
29108W        W  779   4.441  20.570  14.455
29109W        W  780  39.969  25.959   4.596
29110W        W  781  36.139  24.477   0.435
29111W        W  782  40.108   1.768  12.045
29112W        W  783  17.202   0.924  12.815
29113W        W  784   6.965  25.078   3.216
29114W        W  785  21.728  40.836   0.316
29115W        W  786  28.750  42.949  10.675
29116W        W  787  36.573   9.361   3.446
29117W        W  788  44.200   1.691   2.246
29118W        W  789   9.328  11.391   3.695
29119W        W  790  30.595  41.183   0.204
29120W        W  791  33.130  17.150  12.449
29121W        W  792  41.614   3.364   4.485
29122W        W  793  33.509  32.977   4.270
29123W        W  794  20.647  28.149  12.091
29124W        W  795  43.010  11.606  11.937
29125W        W  796   6.265   3.428   5.015
29126W        W  797  10.389  19.676   2.651
29127W        W  798   2.260  19.727   2.118
29128W        W  799  34.495  13.113  12.902
29129W        W  800   6.448  17.946  13.166
29130W        W  801  42.875  43.398   2.171
29131W        W  802  32.450   9.166   3.261
29132W        W  803  25.081  43.082  13.341
29133W        W  804   4.338  16.754   0.503
29134W        W  805  36.154  34.102  12.990
29135W        W  806  23.579  36.849  12.127
29136W        W  807   6.852   9.643   3.123
29137W        W  808   6.671   9.665   1.654
29138W        W  809  14.833  13.066  13.580
29139W        W  810   7.916  39.047  13.900
29140W        W  811  44.873  30.711  14.306
29141W        W  812  27.067   8.746  10.162
29142W        W  813  20.770   9.667  13.972
29143W        W  814   0.516   1.000  10.591
29144W        W  815  23.422  10.319  10.927
29145W        W  816  36.497  27.051   0.072
29146W        W  817  12.685  32.503  12.422
29147W        W  818  26.961  12.653  11.452
29148W        W  819   2.993  10.390   0.120
29149W        W  820   6.213  26.406  11.984
29150W        W  821   5.908  16.184   0.268
29151W        W  822   9.826  12.939  13.712
29152W        W  823  23.779  44.409   4.442
29153W        W  824  14.086  39.012   1.723
29154W        W  825  37.437   3.808  13.321
29155W        W  826   3.204  22.035  11.970
29156W        W  827   9.881  37.366  10.813
29157W        W  828  22.718  37.983  14.367
29158W        W  829  23.681  10.889   1.955
29159W        W  830  34.988   9.757   4.393
29160W        W  831  26.520   5.424   3.616
29161W        W  832   2.019   6.450   1.742
29162W        W  833  31.464  32.094   1.176
29163W        W  834  20.207  25.985  13.873
29164W        W  835  36.634  22.817  14.124
29165W        W  836  29.049  24.986  14.926
29166W        W  837  27.245   3.027   0.355
29167W        W  838  11.375  29.522  12.864
29168W        W  839  14.226  42.228  13.553
29169W        W  840  40.543  19.340  11.992
29170W        W  841  12.863  24.151   0.240
29171W        W  842  39.533  42.110   3.752
29172W        W  843  37.522  31.468   4.373
29173W        W  844  30.617  18.104   3.754
29174W        W  845  24.420  36.453   1.224
29175W        W  846  44.522  23.236  14.296
29176W        W  847  38.364  32.235   3.226
29177W        W  848   9.045   3.978   4.109
29178W        W  849  18.570   4.766  10.724
29179W        W  850  17.686  26.635   2.263
29180W        W  851  21.657   9.492  14.771
29181W        W  852  31.239  37.149  13.097
29182W        W  853  34.623  41.532  14.674
29183W        W  854  34.048  32.405  12.862
29184W        W  855  27.771   7.369  13.003
29185W        W  856  40.790  39.325  12.338
29186W        W  857  28.524  38.958  11.913
29187W        W  858  28.592  28.343   3.857
29188W        W  859  41.980  12.518  10.829
29189W        W  860  32.208   6.299  14.012
29190W        W  861   9.636  44.898  11.980
29191W        W  862  14.870  38.497   3.883
29192W        W  863  21.741  14.110  14.041
29193W        W  864  44.742  13.699  10.170
29194W        W  865   8.888  37.787  11.612
29195W        W  866  11.438  32.424   2.936
29196W        W  867  34.800  26.813   2.647
29197W        W  868  25.493  28.231   4.142
29198W        W  869  16.557  27.319   0.339
29199W        W  870  34.140   7.839  13.086
29200W        W  871  25.545  44.279  11.126
29201W        W  872  12.350  42.788   1.034
29202W        W  873  19.128  39.123   3.204
29203W        W  874  35.844  23.352  14.554
29204W        W  875  14.909  23.727  11.178
29205W        W  876  26.163  29.590   1.329
29206W        W  877  37.417  25.211   2.180
29207W        W  878  27.526  39.570   1.076
29208W        W  879   3.776  14.532   0.272
29209W        W  880  20.693  15.868   0.472
29210W        W  881  28.022  37.378   0.812
29211W        W  882   8.819  33.801  14.506
29212W        W  883  38.640   1.969  13.511
29213W        W  884  11.452  19.344  12.521
29214W        W  885  30.661  25.646   0.566
29215W        W  886  42.124   4.237  10.728
29216W        W  887  43.300  43.339  10.911
29217W        W  888  30.269  36.606  14.329
29218W        W  889  26.274  36.449  11.066
29219W        W  890  36.636  28.532   1.027
29220W        W  891  10.545  17.118  10.742
29221W        W  892  23.256  31.568   1.240
29222W        W  893  32.247  33.912  10.621
29223W        W  894  38.096  26.750   2.132
29224W        W  895  17.829   9.072   2.856
29225W        W  896  29.607   7.350   0.912
29226W        W  897  35.013  43.875  14.827
29227W        W  898  14.697  16.640   4.523
29228W        W  899   4.544   5.968  10.027
29229W        W  900  24.043  35.614   1.629
29230W        W  901  27.850  35.042   4.341
29231W        W  902  17.801  18.237  10.949
29232W        W  903   1.465  39.019  14.401
29233W        W  904   3.802  14.604  11.431
29234W        W  905  20.077  16.305   1.745
29235W        W  906  29.473  44.430  10.318
29236W        W  907  39.963  20.825  13.022
29237W        W  908  30.588  27.527  11.537
29238W        W  909  17.839  26.721   1.767
29239W        W  910  19.610  22.300   3.170
29240W        W  911  30.449  30.954   0.974
29241W        W  912  37.224  33.090   1.493
29242W        W  913  11.334   1.222  11.353
29243W        W  914   9.190  12.707   1.236
29244W        W  915  35.491  10.652  11.331
29245W        W  916  26.244  32.847  11.306
29246W        W  917  11.404  41.509  13.364
29247W        W  918  26.718  29.980  12.397
29248W        W  919  14.612   3.383  12.401
29249W        W  920  40.356  26.405   3.692
29250W        W  921  13.161  20.399  14.023
29251W        W  922   1.939  33.919  14.434
29252W        W  923  34.231   3.763   1.129
29253W        W  924  15.276  41.951   4.721
29254W        W  925  36.665  12.472  14.425
29255W        W  926   2.503  22.487   5.548
29256W        W  927   0.145  23.248   0.481
29257W        W  928  14.040  12.571   1.344
29258W        W  929   6.520  32.948   2.032
29259W        W  930  36.440  20.530  14.600
29260W        W  931  37.950  17.797  14.601
29261W        W  932   9.530  29.445  13.564
29262W        W  933  39.845  33.663   3.982
29263W        W  934   6.363  20.989   1.348
29264W        W  935  22.015  24.480  11.931
29265W        W  936   5.970  23.146  14.794
29266W        W  937  32.665  17.251  12.893
29267W        W  938  13.562   2.087  13.827
29268W        W  939  19.589  11.784  10.032
29269W        W  940  15.107   2.780  12.264
29270W        W  941  21.770  19.347   1.791
29271W        W  942  35.568  40.440   3.350
29272W        W  943  30.309  32.935   0.985
29273W        W  944  27.611  26.671   4.688
29274W        W  945   7.303  34.550   2.990
29275W        W  946  21.776  28.643   3.777
29276W        W  947  11.648  30.110  11.638
29277W        W  948  42.797  20.441   0.293
29278W        W  949  14.135  12.411   3.583
29279W        W  950  38.914  44.157  13.673
29280W        W  951   2.033  42.294   3.199
29281W        W  952  43.099  15.231  11.599
29282W        W  953  40.129  36.216  11.682
29283W        W  954  15.157   0.212   3.268
29284W        W  955  43.738  12.667  13.949
29285W        W  956   0.691   8.618  13.416
29286W        W  957  14.809  40.971   4.554
29287W        W  958  24.825  25.661  14.722
29288W        W  959  42.546  31.555   2.719
29289W        W  960  21.178  44.507  14.922
29290W        W  961  14.695  21.131   4.289
29291W        W  962  18.977   9.309  11.228
29292W        W  963  43.417  27.121   2.852
29293W        W  964  22.106  11.162   0.222
29294W        W  965  23.984  34.820  12.460
29295W        W  966  16.121  15.045   4.117
29296W        W  967  41.450  37.105  12.481
29297W        W  968  23.444  10.787   3.254
29298W        W  969   2.915  42.425   2.252
29299W        W  970  29.438  31.331  11.628
29300W        W  971  20.272   4.674   4.009
29301W        W  972   3.149  35.971   1.471
29302W        W  973  41.600   0.866  11.188
29303W        W  974  37.891  26.027  11.565
29304W        W  975   7.320   4.801   3.776
29305W        W  976  36.283  11.359  11.936
29306W        W  977  25.675  40.462   1.873
29307W        W  978  40.857  19.185  11.621
29308W        W  979  44.515   4.280   2.874
29309W        W  980  20.189   5.362   0.176
29310W        W  981  25.550  42.963  14.880
29311W        W  982  39.020   4.344  12.865
29312W        W  983  32.896  28.921   1.927
29313W        W  984  43.030  25.192  14.015
29314W        W  985  31.579  32.036   4.674
29315W        W  986   0.737  17.275  11.903
29316W        W  987  40.951   7.398  12.459
29317W        W  988   3.158  13.173   1.663
29318W        W  989  11.243  29.068  11.972
29319W        W  990  11.259   4.464   1.935
29320W        W  991  39.772  10.778  13.886
29321W        W  992  25.562  42.828  13.377
29322W        W  993  33.028  40.453   2.435
29323W        W  994  28.988  31.883  12.003
29324W        W  995  15.774  33.115   1.640
29325W        W  996  40.880   0.264   3.326
29326W        W  997  44.478   1.033  11.995
29327W        W  998  17.028   0.170   3.230
29328W        W  999   6.920  39.965  11.224
29329W        W 1000  12.925  13.163   0.328
29330W        W 1001  17.155  13.268   0.339
29331W        W 1002  42.047  27.300   3.177
29332W        W 1003  29.559  16.030  11.583
29333W        W 1004  30.551  18.803  13.310
29334W        W 1005   3.262   6.106  13.462
29335W        W 1006   9.319   5.347   4.596
29336W        W 1007  30.157  15.882  12.086
29337W        W 1008  32.546  24.970  10.744
29338W        W 1009  25.176  20.832  13.986
29339W        W 1010  38.642  20.675   2.244
29340W        W 1011   2.800  21.611   1.664
29341W        W 1012  38.625  18.206   4.118
29342W        W 1013  26.108  43.980  14.278
29343W        W 1014  20.272   3.001   1.504
29344W        W 1015  20.354  31.908   1.940
29345W        W 1016   0.274  32.401  14.058
29346W        W 1017  19.908  37.574  14.390
29347W        W 1018  18.590  32.507  12.353
29348W        W 1019  18.586  43.433  10.731
29349W        W 1020  15.837  19.231  14.361
29350W        W 1021   9.111  27.125   1.690
29351W        W 1022  38.099  15.663  11.600
29352W        W 1023   4.272  35.867  12.677
29353W        W 1024  12.110  39.152  12.042
29354W        W 1025  24.689  24.523   3.718
29355W        W 1026   1.694  41.027   3.827
29356W        W 1027  35.975  24.251   1.855
29357W        W 1028  17.626  28.698  10.402
29358W        W 1029  32.829  21.639   0.381
29359W        W 1030  10.321  10.456   3.238
29360W        W 1031  44.523   2.274  12.444
29361W        W 1032  36.388  42.941   3.699
29362W        W 1033  11.796  24.607   4.288
29363W        W 1034  37.647  10.812  11.106
29364W        W 1035  19.708   2.527   4.616
29365W        W 1036  12.992  33.310  11.884
29366W        W 1037  21.453  19.062   4.649
29367W        W 1038  30.916  23.681  14.661
29368W        W 1039  10.251  16.111   4.621
29369W        W 1040  23.301  17.701   0.033
29370W        W 1041  40.983  20.739  12.294
29371W        W 1042  13.381  24.560  12.043
29372W        W 1043  38.953   0.547  11.529
29373W        W 1044  15.153   3.460   1.814
29374W        W 1045   9.779  39.394  14.564
29375W        W 1046   9.363  31.569  11.931
29376W        W 1047  42.495   7.229  11.359
29377W        W 1048  34.483  20.751   3.526
29378W        W 1049  41.525  28.546   3.765
29379W        W 1050  33.192  10.253  13.746
29380W        W 1051  20.096  11.588   1.469
29381W        W 1052   6.378  18.315  11.487
29382W        W 1053   6.656   1.727   4.159
29383W        W 1054  40.412   0.885   1.716
29384W        W 1055  40.305  11.862   4.597
29385W        W 1056   7.742  27.221  10.645
29386W        W 1057   2.704  14.780  11.409
29387W        W 1058  40.943  38.903  13.552
29388W        W 1059  41.957  17.401  11.568
29389W        W 1060  15.565   2.771   0.313
29390W        W 1061  26.514  11.390   2.093
29391W        W 1062  40.667  36.097   2.902
29392W        W 1063   1.938  30.896  11.184
29393W        W 1064   7.235  40.258  13.624
29394W        W 1065  26.584   3.290  13.494
29395W        W 1066   1.112  23.086  10.293
29396W        W 1067  43.759   7.097   3.170
29397W        W 1068  13.280  29.957  10.543
29398W        W 1069   8.764  22.941  13.945
29399W        W 1070  44.092   9.761  11.401
29400W        W 1071  13.744  32.433  11.678
29401W        W 1072  42.339  43.155  11.558
29402W        W 1073  39.456   3.740   1.559
29403W        W 1074  44.028  11.524  12.934
29404W        W 1075   5.831  42.384  11.739
29405W        W 1076  28.779  23.496   3.176
29406W        W 1077  12.851  21.401   3.703
29407W        W 1078  27.230   8.368   4.544
29408W        W 1079  17.402   0.944  10.882
29409W        W 1080  35.363  38.686   1.420
29410W        W 1081  43.028  11.599  12.817
29411W        W 1082  36.457   9.193  11.654
29412W        W 1083  25.138  22.738   1.796
29413W        W 1084  28.972  16.219   0.235
29414W        W 1085  29.173  19.445  11.027
29415W        W 1086  17.218   9.452   1.665
29416W        W 1087  26.071  24.022  13.494
29417W        W 1088  33.380   5.628  10.952
29418W        W 1089  25.451  22.526   2.152
29419W        W 1090  30.763  23.032   4.971
29420W        W 1091  38.365  20.460   1.795
29421W        W 1092   6.839   5.448   2.123
29422W        W 1093   5.164  26.134   0.323
29423W        W 1094  27.653  14.589   4.433
29424W        W 1095   3.410  33.993  11.441
29425W        W 1096   4.382  24.670   3.220
29426W        W 1097  41.701  34.858  12.530
29427W        W 1098  13.335   1.847  11.405
29428W        W 1099   6.684  19.042   4.014
29429W        W 1100  18.290   7.388   3.191
29430W        W 1101  17.329  15.640  11.536
29431W        W 1102  38.950  27.697   2.323
29432W        W 1103  39.238   7.185  12.951
29433W        W 1104  30.581  41.096   5.064
29434W        W 1105  33.145   4.757  13.469
29435W        W 1106  10.453   0.721  12.659
29436W        W 1107  13.069   9.181  13.156
29437W        W 1108  24.744  18.221  11.007
29438W        W 1109   4.947  23.065   1.991
29439W        W 1110   8.378  36.809   2.706
29440W        W 1111  16.632  40.475   4.236
29441W        W 1112  23.827  35.372   4.916
29442W        W 1113  25.100  17.621   2.136
29443W        W 1114   4.383   4.786   3.950
29444W        W 1115  14.013  32.970  11.210
29445W        W 1116  32.614   6.927   2.718
29446W        W 1117   5.387  31.597   2.962
29447W        W 1118   0.472  29.999   2.917
29448W        W 1119  20.352  34.426   1.964
29449W        W 1120  10.348  38.763   2.918
29450W        W 1121  33.094  18.147  14.700
29451W        W 1122  23.703  26.506   2.587
29452W        W 1123   5.721  42.330   4.911
29453W        W 1124  20.073  42.815  11.781
29454W        W 1125  16.251  36.028   0.769
29455W        W 1126  32.907  34.877   0.790
29456W        W 1127  26.505  39.513  13.479
29457W        W 1128  28.893  12.119   0.224
29458W        W 1129  18.739  44.454   4.985
29459W        W 1130  22.569   4.010  11.450
29460W        W 1131  20.551  27.367  13.973
29461W        W 1132  21.819  43.342   0.331
29462W        W 1133  40.902  14.837   3.160
29463W        W 1134  15.068   4.250  12.463
29464W        W 1135  15.852  14.895  12.116
29465W        W 1136  43.306  39.143  11.796
29466W        W 1137  12.062  37.311  13.187
29467W        W 1138  11.084  15.657   1.525
29468W        W 1139  30.623  11.760   0.876
29469W        W 1140  36.085   3.742  10.834
29470W        W 1141  17.756  35.548   0.003
29471W        W 1142  30.459  44.259  13.995
29472W        W 1143  39.037  21.999   2.748
29473W        W 1144  36.573  42.443   3.868
29474W        W 1145  29.483  21.863   0.009
29475W        W 1146  44.459  14.101   1.234
29476W        W 1147   6.147   3.550   2.542
29477W        W 1148   8.923  44.814   3.709
29478W        W 1149   3.322   8.365  12.859
29479W        W 1150  42.113  10.682  12.545
29480W        W 1151  12.876   8.188   2.826
29481W        W 1152  32.404  23.901  13.433
29482W        W 1153  30.020  39.350  12.610
29483W        W 1154  20.017  40.999   3.701
29484W        W 1155   7.809   3.479  10.570
29485W        W 1156   6.246  37.377  14.960
29486W        W 1157   6.383  27.036   3.650
29487W        W 1158  29.192   4.313   2.249
29488W        W 1159  23.530   3.222   1.180
29489W        W 1160  26.603  11.127  13.603
29490W        W 1161  36.970  33.676  14.039
29491W        W 1162  41.463   2.374  13.957
29492W        W 1163  28.201  16.166  13.391
29493W        W 1164   9.731  15.203   0.468
29494W        W 1165  35.430  18.295   0.373
29495W        W 1166  28.022   7.310   4.612
29496W        W 1167  36.159  41.482   4.302
29497W        W 1168  41.526   7.917  10.738
29498W        W 1169  21.552  35.525   0.420
29499W        W 1170   1.274  13.032   0.635
29500W        W 1171  21.969  11.833  14.547
29501W        W 1172  35.028  15.323   1.655
29502W        W 1173  33.409  32.620  13.990
29503W        W 1174  27.430  30.504   4.682
29504W        W 1175   7.689  40.292  10.645
29505W        W 1176   3.473  37.857   4.230
29506W        W 1177  17.278  43.954   1.467
29507W        W 1178  33.522  35.937  10.396
29508W        W 1179  10.840  14.835  14.266
29509W        W 1180  37.068  15.194  13.004
29510W        W 1181   4.976  25.129   4.782
29511W        W 1182  25.345  31.881   4.646
29512W        W 1183  33.681  28.515   1.071
29513W        W 1184  43.325  26.498  14.957
29514W        W 1185  33.596  19.105   5.260
29515W        W 1186  41.663  27.972  10.367
29516W        W 1187  40.414  30.365   1.007
29517W        W 1188   6.795  23.904  13.384
29518W        W 1189  20.212  16.091   0.316
29519W        W 1190  41.417  39.728   0.329
29520W        W 1191  34.514  35.769   0.609
29521W        W 1192  36.639  23.473   4.109
29522W        W 1193  17.032  40.676   2.364
29523W        W 1194  37.545  11.357  14.851
29524W        W 1195  19.202  26.280  10.922
29525W        W 1196  11.809  32.612  11.641
29526W        W 1197  23.789  27.601   4.535
29527W        W 1198   2.301  40.447   3.767
29528W        W 1199  35.914  34.950  13.810
29529W        W 1200  28.897   6.931  12.644
29530W        W 1201  26.589  15.985   3.692
29531W        W 1202  15.690  29.294  11.297
29532W        W 1203  37.441  11.557  10.648
29533W        W 1204  42.428  27.688   0.334
29534W        W 1205  33.389  20.562   4.495
29535W        W 1206   0.302  14.372   1.790
29536W        W 1207  15.561  24.498   1.373
29537W        W 1208  41.160  39.321  11.981
29538W        W 1209  12.429  32.893   4.236
29539W        W 1210  19.089  37.580  12.862
29540W        W 1211  26.088  31.491   0.250
29541W        W 1212   6.443  36.199  13.415
29542W        W 1213  41.405  19.314  10.770
29543W        W 1214  13.041  38.075  11.596
29544W        W 1215  10.414  39.228   4.735
29545W        W 1216   1.332  32.032   0.429
29546W        W 1217  14.955  36.817  11.032
29547W        W 1218  30.078  20.585  13.462
29548W        W 1219  11.864   6.649  14.787
29549W        W 1220   8.368  23.882   3.151
29550W        W 1221  36.550  29.392  14.430
29551W        W 1222   8.103  32.588  12.743
29552W        W 1223  27.434  25.253   1.216
29553W        W 1224   4.775  22.285  13.300
29554W        W 1225  35.637  23.462  13.395
29555W        W 1226  12.102  19.650  12.099
29556W        W 1227  34.891  11.317  10.840
29557W        W 1228  37.542  22.733   0.918
29558W        W 1229   4.871   5.684  11.217
29559W        W 1230  39.542  33.664  12.976
29560W        W 1231  13.819  18.990   4.800
29561W        W 1232  38.597  42.104  14.339
29562W        W 1233  22.909  33.992   2.773
29563W        W 1234  35.702   3.260  12.901
29564W        W 1235  17.592  34.681  11.927
29565W        W 1236  35.107  26.434  11.102
29566W        W 1237   8.685  31.695   4.097
29567W        W 1238   3.936  43.872   2.618
29568W        W 1239  41.044  34.965  11.270
29569W        W 1240  22.571  42.202   0.180
29570W        W 1241  28.745  20.701   2.462
29571W        W 1242   3.208  34.717   4.398
29572W        W 1243  28.510  36.054   3.785
29573W        W 1244   3.854  19.735   2.295
29574W        W 1245  11.723  24.490   2.248
29575W        W 1246  41.036  29.486  14.465
29576W        W 1247  32.621  26.800  10.544
29577W        W 1248   8.253  11.328  11.587
29578W        W 1249  28.391  40.102   0.760
29579W        W 1250  32.661   9.508   4.566
29580W        W 1251  29.913  22.316   1.235
29581W        W 1252  41.334  28.061   4.527
29582W        W 1253  21.711  17.649   2.404
29583W        W 1254  41.947  26.112   0.939
29584W        W 1255  40.456  32.921   2.204
29585W        W 1256  36.024  24.649   1.496
29586W        W 1257  13.566  38.821   0.497
29587W        W 1258  29.653  14.584  12.590
29588W        W 1259  27.925  23.518  14.823
29589W        W 1260  41.365  22.272  13.931
29590W        W 1261   1.015   6.412  14.380
29591W        W 1262   4.387  35.453   0.532
29592W        W 1263  26.788   0.978  12.165
29593W        W 1264   8.540  27.119  11.163
29594W        W 1265  29.491  12.192   3.087
29595W        W 1266  24.224  17.688   2.321
29596W        W 1267  14.646  22.637  12.915
29597W        W 1268  18.713   8.242  12.357
29598W        W 1269  11.877   3.382  10.050
29599W        W 1270  18.748   1.606  12.120
29600W        W 1271  34.558  35.138  14.059
29601W        W 1272  30.921  19.901  14.698
29602W        W 1273  41.082  33.355  14.302
29603W        W 1274  35.603  37.500  13.170
29604W        W 1275  23.000  41.720  10.314
29605W        W 1276  40.002  42.529   3.308
29606W        W 1277  13.274   2.267  10.653
29607W        W 1278  37.077  17.317  11.966
29608W        W 1279  13.475  41.396   5.145
29609W        W 1280  10.667  34.001   4.269
29610W        W 1281  24.472  25.027   0.978
29611W        W 1282   5.153  34.569   3.674
29612W        W 1283  21.246  13.739  14.506
29613W        W 1284  40.089  39.106  14.441
29614W        W 1285  31.865  38.542   3.075
29615W        W 1286   4.686  21.761  14.249
29616W        W 1287  24.672  31.429  13.589
29617W        W 1288   0.282  29.132   4.657
29618W        W 1289  22.114  37.353   3.540
29619W        W 1290  28.934   6.274  11.953
29620W        W 1291  11.012  23.602  11.091
29621W        W 1292  27.148  14.255  13.547
29622W        W 1293  22.965  25.531   3.670
29623W        W 1294  42.779  16.823  10.653
29624W        W 1295  27.142  20.206  10.922
29625W        W 1296  18.058  23.614   4.960
29626W        W 1297  20.103  24.042  12.521
29627W        W 1298  22.097  41.051   1.715
29628W        W 1299  41.733   8.834  13.773
29629W        W 1300  17.520  28.588   2.574
29630W        W 1301  19.837  33.643  12.148
29631W        W 1302  11.209   3.704   3.250
29632W        W 1303  30.190   6.211   4.936
29633W        W 1304  33.127  29.757  14.852
29634W        W 1305  31.691   0.695  13.475
29635W        W 1306  39.378  22.998  14.333
29636W        W 1307  23.438  44.334   1.432
29637W        W 1308   2.689  38.040  14.346
29638W        W 1309  44.847  14.080  14.898
29639W        W 1310  15.595  23.924  13.939
29640W        W 1311  13.783  33.881  14.373
29641W        W 1312   1.466  14.807   4.732
29642W        W 1313  11.678   4.783  11.930
29643W        W 1314  36.463  12.016  14.275
29644W        W 1315  33.169  34.384  10.858
29645W        W 1316  22.207  26.084  12.463
29646W        W 1317  17.533  31.635  13.409
29647W        W 1318  15.253  23.211  12.414
29648W        W 1319  17.831  24.917   1.324
29649W        W 1320  38.922  23.108  11.124
29650W        W 1321  14.586   3.246   2.767
29651W        W 1322  16.159  17.348   3.317
29652W        W 1323  28.479   7.851   1.074
29653W        W 1324   6.581  23.028   2.798
29654W        W 1325   7.129  26.692   3.702
29655W        W 1326  17.639  20.965  12.127
29656W        W 1327  29.090  20.254   2.691
29657W        W 1328  43.848  18.004  10.707
29658W        W 1329  23.123   3.357  11.202
29659W        W 1330  38.423  25.995  11.612
29660W        W 1331  38.442  10.730  12.904
29661W        W 1332  22.030  42.454  11.029
29662W        W 1333  24.518  36.596  11.621
29663W        W 1334  24.283  26.472   4.418
29664W        W 1335  30.967  19.535  13.029
29665W        W 1336  27.171  44.347   2.338
29666W        W 1337  43.543   4.093   1.969
29667W        W 1338  25.574   3.772  12.249
29668W        W 1339  37.035  24.952  12.948
29669W        W 1340   7.388  28.543   0.431
29670W        W 1341  11.791  41.913  14.815
29671W        W 1342  12.995  37.447  13.483
29672W        W 1343  15.328  12.363  14.109
29673W        W 1344  13.390  21.251  14.666
29674W        W 1345  27.012   4.540   1.492
29675W        W 1346  34.108  31.734   1.671
29676W        W 1347  43.446  22.669  13.557
29677W        W 1348   5.365  31.426  12.976
29678W        W 1349   0.618   2.943   3.317
29679W        W 1350  27.956  32.935  10.722
29680W        W 1351  20.217   4.909   1.446
29681W        W 1352  40.845  44.003   3.745
29682W        W 1353  38.908  34.020  12.045
29683W        W 1354  24.803   9.156   1.383
29684W        W 1355  41.429  38.482   2.903
29685W        W 1356  17.836  43.317   3.827
29686W        W 1357  14.555  30.685   4.486
29687W        W 1358  41.728  34.555  12.966
29688W        W 1359  15.850  37.110   4.276
29689W        W 1360  27.530  37.659  12.651
29690W        W 1361   3.827  27.487  11.459
29691W        W 1362   8.549   7.154  14.553
29692W        W 1363  36.052  42.203   3.167
29693W        W 1364  22.470  28.113  10.546
29694W        W 1365  37.602  34.644   4.467
29695W        W 1366   7.164  23.661  12.524
29696W        W 1367  40.760  32.507   2.327
29697W        W 1368  17.782   1.273   2.927
29698W        W 1369   2.247  11.253  12.396
29699W        W 1370  16.118  26.224  11.687
29700W        W 1371  41.336  23.475   1.278
29701W        W 1372  25.155  27.475   2.320
29702W        W 1373  35.668   9.642   1.816
29703W        W 1374   1.683  42.881  14.468
29704W        W 1375  23.980  18.225   0.513
29705W        W 1376  23.221  16.133   0.989
29706W        W 1377   5.347  20.632  13.305
29707W        W 1378  27.573  37.088  13.539
29708W        W 1379  36.983   2.704  11.912
29709W        W 1380  22.127   4.573  12.102
29710W        W 1381  28.180  41.462  10.593
29711W        W 1382  12.620  36.848   0.758
29712W        W 1383  21.484  24.001   0.726
29713W        W 1384  42.306  38.761   0.252
29714W        W 1385  41.430   1.897   1.883
29715W        W 1386  36.955  13.891  12.117
29716W        W 1387  15.616  14.324   0.829
29717W        W 1388  38.036  13.781  11.202
29718W        W 1389   3.247  30.835   4.408
29719W        W 1390  28.588  25.716   1.475
29720W        W 1391  40.409  39.295   3.356
29721W        W 1392  19.939  39.936  11.677
29722W        W 1393  23.598  20.543   4.801
29723W        W 1394  44.990  36.742   4.250
29724W        W 1395  25.147  41.538  13.502
29725W        W 1396   1.451   7.184   1.863
29726W        W 1397   8.824  43.078   1.693
29727W        W 1398  23.251  38.946   2.744
29728W        W 1399   5.762   4.910  12.532
29729W        W 1400  44.920  13.141  10.956
29730W        W 1401  25.105  38.593  13.014
29731W        W 1402   3.933  18.876   3.791
29732W        W 1403  30.873  17.286  12.944
29733W        W 1404  14.066  29.980   0.682
29734W        W 1405  34.802  34.831  11.940
29735W        W 1406  41.060  17.023   4.474
29736W        W 1407  21.218  20.611  13.488
29737W        W 1408  29.622  10.438  13.499
29738W        W 1409   3.231  22.907  14.644
29739W        W 1410  41.231  21.624   4.703
29740W        W 1411  39.582  23.473  11.548
29741W        W 1412   3.210  28.042  11.850
29742W        W 1413  36.233  14.142   9.769
29743W        W 1414  41.981  42.541   0.624
29744W        W 1415  33.617  23.967  12.006
29745W        W 1416  27.755  35.104  13.989
29746W        W 1417   2.395   2.273   4.141
29747W        W 1418  31.308  14.647  13.618
29748W        W 1419  26.059  39.338   1.337
29749W        W 1420  41.293  10.612   1.911
29750W        W 1421  28.726  44.384   4.695
29751W        W 1422  35.010  26.757  12.071
29752W        W 1423  12.218  42.874  11.412
29753W        W 1424  19.355  39.270  11.218
29754W        W 1425  17.362  25.087   2.611
29755W        W 1426   3.907  36.157  12.928
29756W        W 1427  25.440  28.865  12.464
29757W        W 1428  38.038  29.147   4.586
29758W        W 1429  35.856  10.374   2.385
29759W        W 1430  17.986  41.074   0.776
29760W        W 1431   0.365  10.121   4.276
29761W        W 1432  21.559  31.615   4.955
29762W        W 1433  25.127  34.043  10.273
29763W        W 1434  42.769  36.121   1.968
29764W        W 1435   5.354  37.445  12.077
29765W        W 1436  23.084  43.046  13.304
29766W        W 1437  37.334  43.438  13.323
29767W        W 1438  18.796  10.196   4.180
29768W        W 1439  33.216  23.050  14.222
29769W        W 1440  22.117  32.123  12.014
29770W        W 1441   6.451  15.986   1.774
29771W        W 1442  39.910  27.516  13.351
29772W        W 1443  28.883  40.881  11.619
29773W        W 1444  42.127  39.696   1.391
29774W        W 1445  23.724   4.886   2.310
29775W        W 1446  11.985  44.367   2.413
29776W        W 1447  40.410  33.358   4.012
29777W        W 1448   2.350  26.149  14.261
29778W        W 1449  25.609  12.416  11.938
29779W        W 1450  14.803   8.653   1.899
29780W        W 1451  12.915   5.793   2.222
29781W        W 1452  35.599   0.279  13.344
29782W        W 1453  39.531  40.116   2.258
29783W        W 1454  24.800  37.919   1.678
29784W        W 1455   9.831   7.622   3.221
29785W        W 1456  24.185  38.208  11.993
29786W        W 1457  33.968  23.961  12.394
29787W        W 1458  24.623   3.923   1.705
29788W        W 1459  42.585  41.901   3.587
29789W        W 1460  24.745  10.183   1.310
29790W        W 1461  44.142  20.694   1.995
29791W        W 1462  20.147  24.695  13.383
29792W        W 1463   9.407  13.122  13.926
29793W        W 1464  31.349   8.422   2.425
29794W        W 1465   4.297  24.883  14.919
29795W        W 1466  24.281  15.814   1.849
29796W        W 1467  30.548  26.490  13.542
29797W        W 1468  26.184   4.362  14.803
29798W        W 1469   5.136   3.421  13.078
29799W        W 1470   3.168  19.513   0.920
29800W        W 1471  44.820   5.270   4.517
29801W        W 1472  25.476  15.649   1.338
29802W        W 1473  44.246   1.492   4.757
29803W        W 1474  38.623  36.031   1.250
29804W        W 1475  29.181   7.418  10.643
29805W        W 1476  31.432  13.228  11.205
29806W        W 1477  21.214  33.169   4.249
29807W        W 1478   2.041  40.637   1.159
29808W        W 1479  30.287  31.152   1.434
29809W        W 1480   4.630  18.217  13.749
29810W        W 1481  29.821  44.297   1.316
29811W        W 1482  12.431  18.213  14.937
29812W        W 1483  25.057  21.760  10.935
29813W        W 1484  12.815  34.594  14.337
29814W        W 1485  18.641  18.687  11.100
29815W        W 1486  44.029  38.263   5.590
29816W        W 1487   4.374  31.615  14.061
29817W        W 1488  26.455  40.469  11.863
29818W        W 1489  24.651  20.705  11.971
29819W        W 1490   5.692  12.823   0.838
29820W        W 1491  13.100  22.169  10.658
29821W        W 1492  40.793  21.769   4.485
29822W        W 1493  11.359  31.941   3.905
29823W        W 1494  23.678  27.984  13.910
29824W        W 1495   4.842  35.522   4.707
29825W        W 1496  43.534  28.690  14.578
29826W        W 1497  15.544  20.846   4.694
29827W        W 1498  22.282  42.416   1.860
29828W        W 1499  29.998  34.147  12.955
29829W        W 1500  29.396   0.892   3.119
29830W        W 1501  37.341  39.151   1.902
29831W        W 1502  25.681   0.238  14.941
29832W        W 1503  28.533  40.993   0.977
29833W        W 1504  41.069  24.080   2.735
29834W        W 1505   5.749  32.541   1.998
29835W        W 1506  36.092  39.538  10.342
29836W        W 1507  43.892  21.221   3.404
29837W        W 1508   0.083  28.664   2.791
29838W        W 1509  31.461  19.969   0.805
29839W        W 1510   9.690  32.939  14.989
29840W        W 1511   1.050   7.356  13.048
29841W        W 1512  21.469   2.743  13.779
29842W        W 1513   0.595  33.912   3.365
29843W        W 1514  43.810  34.672   3.225
29844W        W 1515   2.858  36.434  11.029
29845W        W 1516  29.711  30.625   5.075
29846W        W 1517   9.079  25.513  10.944
29847W        W 1518  32.369  33.615   0.404
29848W        W 1519   0.731  13.100  14.911
29849W        W 1520  19.761  37.341  10.709
29850W        W 1521   2.917  13.366   3.780
29851W        W 1522  23.876  42.382   0.254
29852W        W 1523   5.459  39.064   2.431
29853W        W 1524  39.135  44.431   3.279
29854W        W 1525  23.069  37.660   2.434
29855W        W 1526  22.247   9.236   2.447
29856W        W 1527  38.181  42.727   1.161
29857W        W 1528  10.196  20.532  13.089
29858W        W 1529   9.520  12.935   4.329
29859W        W 1530   0.862   8.205  14.883
29860W        W 1531  28.229  38.665  14.038
29861W        W 1532  10.253  21.472   1.429
29862W        W 1533  43.538   2.861   4.294
29863W        W 1534   5.054  34.384   4.149
29864W        W 1535  33.056  26.263   1.346
29865W        W 1536  30.706   9.279   1.847
29866W        W 1537  41.843  37.337   3.697
29867W        W 1538   3.355  13.948  11.454
29868W        W 1539  32.793  41.511   0.286
29869W        W 1540  28.609   7.919   1.557
29870W        W 1541  10.377  42.514   3.920
29871W        W 1542  18.459  16.904   1.856
29872W        W 1543   1.524   4.000  10.900
29873W        W 1544  44.218  44.463   9.929
29874W        W 1545   8.920  42.641  10.922
29875W        W 1546  41.321   8.434   0.485
29876W        W 1547   3.448  10.223   3.741
29877W        W 1548  36.103   9.711  13.530
29878W        W 1549  33.532  27.741  13.474
29879W        W 1550  42.314  14.612  11.955
29880W        W 1551  42.323  30.442  12.363
29881W        W 1552  10.388  33.611  11.710
29882W        W 1553  35.613  17.106   0.722
29883W        W 1554   4.375   4.264   3.233
29884W        W 1555  18.318  42.447   3.808
29885W        W 1556  37.104  30.611   1.420
29886W        W 1557  26.206  34.360  13.427
29887W        W 1558  28.067   5.759   2.459
29888W        W 1559  33.864   7.453  11.181
29889W        W 1560   8.829  16.177  10.661
29890W        W 1561  44.415  34.605  13.812
29891W        W 1562  31.947   5.580  11.227
29892W        W 1563  18.068  29.064  13.839
29893W        W 1564   3.394  36.657   4.255
29894W        W 1565  26.110  14.283  12.568
29895W        W 1566  39.289  17.654  14.263
29896W        W 1567  15.318  20.631  14.691
29897W        W 1568  12.911  32.102   4.185
29898W        W 1569  14.897  28.422  14.114
29899W        W 1570  33.437  32.464  11.884
29900W        W 1571  28.415  41.815  13.025
29901W        W 1572  26.972   4.366   0.980
29902W        W 1573   6.282   1.353   4.227
29903W        W 1574  32.179  29.472   1.793
29904W        W 1575  30.953   2.028   0.489
29905W        W 1576   7.893  25.697   1.956
29906W        W 1577  18.347  39.528   3.440
29907W        W 1578  25.876  33.492   2.858
29908W        W 1579  37.213  17.233  13.417
29909W        W 1580  24.714   6.213  11.129
29910W        W 1581  29.584  18.953  12.895
29911W        W 1582  33.349  41.953   5.106
29912W        W 1583  13.077   3.429   4.412
29913W        W 1584   2.251  35.076   1.844
29914W        W 1585  38.179   6.691  11.434
29915W        W 1586  12.886  21.432  13.128
29916W        W 1587   9.332  29.571  13.080
29917W        W 1588  20.663  12.117  14.563
29918W        W 1589  21.757  24.546   1.360
29919W        W 1590  25.508  23.805  10.369
29920W        W 1591  16.788   1.215  14.007
29921W        W 1592  40.075   0.891  12.423
29922W        W 1593  29.500  41.284   2.801
29923W        W 1594  33.455  27.920   2.304
29924W        W 1595  12.207  16.500  12.705
29925W        W 1596  25.388   7.277   4.122
29926W        W 1597  14.880  13.960  13.674
29927W        W 1598  20.944  44.567  13.097
29928W        W 1599  17.460  14.640  12.616
29929W        W 1600  24.193  43.528  13.075
29930W        W 1601   2.245  33.430   4.496
29931W        W 1602  17.621   1.829   0.676
29932W        W 1603  34.045  26.691  13.038
29933W        W 1604  33.013   0.165  14.807
29934W        W 1605  19.299  38.288   2.241
29935W        W 1606  35.577  28.165   3.707
29936W        W 1607  43.105  12.133  10.204
29937W        W 1608   8.228  30.092  10.703
29938W        W 1609  11.626  28.976  10.771
29939W        W 1610  21.020  17.882  12.922
29940W        W 1611  13.872   5.261   5.418
29941W        W 1612  42.007  21.201  12.870
29942W        W 1613  40.431   7.633   3.352
29943W        W 1614  33.591  19.349  14.826
29944W        W 1615  26.034  11.392  10.548
29945W        W 1616  23.219   1.772   4.548
29946W        W 1617  31.148  29.369  12.034
29947W        W 1618  43.195  39.164  13.072
29948W        W 1619  16.366  35.125  13.605
29949W        W 1620  33.338  24.101  13.342
29950W        W 1621   4.857  20.547  13.457
29951W        W 1622  24.008  11.626   4.957
29952W        W 1623   9.325  34.162   4.762
29953W        W 1624  44.506  25.452   0.887
29954W        W 1625  41.832   7.594  14.584
29955W        W 1626  42.783  12.778  12.396
29956W        W 1627  38.277  17.064   3.246
29957W        W 1628  44.053  17.532  12.072
29958W        W 1629  19.085   5.732  11.460
29959W        W 1630  15.212   3.459  10.585
29960W        W 1631  44.547  26.031  12.112
29961W        W 1632  15.213  16.641   2.715
29962W        W 1633  34.447  16.026  14.261
29963W        W 1634   3.152   4.910  14.825
29964W        W 1635  27.635   7.374   2.350
29965W        W 1636   6.343  36.157   5.000
29966W        W 1637  39.605  20.678  11.659
29967W        W 1638  12.724  25.615  10.590
29968W        W 1639  10.210  23.665  12.778
29969W        W 1640   2.975   8.818  14.043
29970W        W 1641  20.250   7.210  13.454
29971W        W 1642  33.051   1.978   1.651
29972W        W 1643  20.056   0.460   0.704
29973W        W 1644  12.791  17.854   2.231
29974W        W 1645  23.682  12.315   4.664
29975W        W 1646  44.855   8.084  14.239
29976W        W 1647  16.889  34.872  11.140
29977W        W 1648   9.156  42.214   4.358
29978W        W 1649  29.419   6.668  11.119
29979W        W 1650  21.823  37.948  12.092
29980W        W 1651  17.862  22.327   0.464
29981W        W 1652  19.483  39.768   2.802
29982W        W 1653   5.246  20.284  13.659
29983W        W 1654  28.610   9.617   2.418
29984W        W 1655  31.332   6.750   4.357
29985W        W 1656  32.146  30.920   3.796
29986W        W 1657  29.076  40.034   3.165
29987W        W 1658   6.837   9.310   0.009
29988W        W 1659   6.974  13.851   3.512
29989W        W 1660  16.552  22.683   0.301
29990W        W 1661  40.077   3.142   0.930
29991W        W 1662  34.934   2.588   1.305
29992W        W 1663   7.155  27.141  12.066
29993W        W 1664  12.861   2.775  11.091
29994W        W 1665   3.801  12.246  12.115
29995W        W 1666  11.467  32.880  13.353
29996W        W 1667  27.089  41.270   3.534
29997W        W 1668   3.514  22.576   4.729
29998W        W 1669  17.188  24.972   4.142
29999W        W 1670  11.170  43.858   2.265
30000W        W 1671  23.798  41.519   1.932
30001W        W 1672  13.030  41.432   1.230
30002W        W 1673  10.312  44.624  11.621
30003W        W 1674  13.641  38.315   0.425
30004W        W 1675  12.891   1.434   4.672
30005W        W 1676  20.681  15.735   3.266
30006W        W 1677  39.441   2.346  14.420
30007W        W 1678  41.485  14.779  13.954
30008W        W 1679  27.699  36.923  12.668
30009W        W 1680  14.349   3.329  13.626
30010W        W 1681   3.482  14.850   1.368
30011W        W 1682  33.041  11.542  14.698
30012W        W 1683  20.550  41.844   4.404
30013W        W 1684  15.801   0.205   0.080
30014W        W 1685  37.905  29.531  11.208
30015W        W 1686  32.665   6.391   1.261
30016W        W 1687  11.753  40.013  14.900
30017W        W 1688  42.176   6.678   1.166
30018W        W 1689  12.124  20.309   2.433
30019W        W 1690   4.506  42.307   1.685
30020W        W 1691  12.276   5.252  10.583
30021W        W 1692   6.915   9.226   2.793
30022W        W 1693  15.358   4.472   1.841
30023W        W 1694   0.032   5.476  12.074
30024W        W 1695  23.116  18.031  11.314
30025W        W 1696  44.226   7.136  13.628
30026W        W 1697  30.108  22.810   0.547
30027W        W 1698  12.159  14.112  10.726
30028W        W 1699   3.784  14.387   1.390
30029W        W 1700  44.186   6.926   3.427
30030W        W 1701   2.084   9.290   2.811
30031W        W 1702  37.332  13.631   3.241
30032W        W 1703   1.461  19.745   1.812
30033W        W 1704  40.533  15.603   3.676
30034W        W 1705  30.572  16.366  13.309
30035W        W 1706  33.101  35.825   0.577
30036W        W 1707  39.380  29.573  13.083
30037W        W 1708  38.001  14.725  12.964
30038W        W 1709  36.583  14.279   1.873
30039W        W 1710  40.908  10.359   1.681
30040W        W 1711  40.448  29.185   4.357
30041W        W 1712  26.283   5.527  13.856
30042W        W 1713  31.582   6.330   4.517
30043W        W 1714   6.158  29.182   2.276
30044W        W 1715  10.775  31.717  10.671
30045W        W 1716  20.589  27.186   4.871
30046W        W 1717  38.250  13.914  14.407
30047W        W 1718   4.221  29.931  11.750
30048W        W 1719  30.494  39.989   2.822
30049W        W 1720  17.777  19.259  14.340
30050W        W 1721  11.405  11.249   0.297
30051W        W 1722  38.642  21.715   0.088
30052W        W 1723  26.609  31.300  14.307
30053W        W 1724  17.719  29.884  13.829
30054W        W 1725   0.285  43.797  11.090
30055W        W 1726  24.960  40.258   0.256
30056W        W 1727   6.738  28.976   4.663
30057W        W 1728  38.856   2.174   3.285
30058W        W 1729  28.407   7.789  12.011
30059W        W 1730  33.215  11.085  14.294
30060W        W 1731  11.140   5.346  14.370
30061W        W 1732  32.091  28.986   2.701
30062W        W 1733  30.361  20.215  13.214
30063W        W 1734  43.660  25.565   0.009
30064W        W 1735  14.752  11.901   1.230
30065W        W 1736  28.789  27.455   3.195
30066W        W 1737   6.229  17.811  10.298
30067W        W 1738  21.742  10.197  12.412
30068W        W 1739  16.812  30.679  11.124
30069W        W 1740  36.741   4.222  12.101
30070W        W 1741  27.025  23.005   4.179
30071W        W 1742   0.210  39.323   3.719
30072W        W 1743  40.965  10.694   3.195
30073W        W 1744  31.490  24.149  13.630
30074W        W 1745  20.291  43.729   2.531
30075W        W 1746   1.526  15.093  14.477
30076W        W 1747   7.233   3.372   3.947
30077W        W 1748   3.250  31.568   3.652
30078W        W 1749  38.494   0.506   3.665
30079W        W 1750   5.838  39.395  13.802
30080W        W 1751  13.228  44.460  11.225
30081W        W 1752  42.306   3.869   2.652
30082W        W 1753  35.548   1.356   3.835
30083W        W 1754  10.357   8.563  12.495
30084W        W 1755  28.883  17.184  12.933
30085W        W 1756   5.270   2.322  11.255
30086W        W 1757  21.527  40.248   2.693
30087W        W 1758  39.388  17.218  14.520
30088W        W 1759  26.632   9.411   2.894
30089W        W 1760  44.909  14.026  12.148
30090W        W 1761   3.649   8.269   3.239
30091W        W 1762   7.988  14.786   2.591
30092W        W 1763  31.474  30.896   4.982
30093W        W 1764  22.124  35.373  13.328
30094W        W 1765   3.889  39.872  14.569
30095W        W 1766  33.417   0.768  13.786
30096W        W 1767  26.197  27.482  11.231
30097W        W 1768  22.982  41.326  14.791
30098W        W 1769  39.193  32.578  12.161
30099W        W 1770  34.582  41.687   2.162
30100W        W 1771   9.804  20.548   2.811
30101W        W 1772  13.580   8.780  14.392
30102W        W 1773  24.164  20.560   0.386
30103W        W 1774  13.586  29.107  12.872
30104W        W 1775  41.910  14.287   1.320
30105W        W 1776  32.829  19.347   4.582
30106W        W 1777  43.241  38.290  12.091
30107W        W 1778  24.642  39.083   4.016
30108W        W 1779  40.016  10.113   1.963
30109W        W 1780  38.621  25.763   0.789
30110W        W 1781  39.364   2.187   5.041
30111W        W 1782  39.494  16.083  13.800
30112W        W 1783  32.868  28.773  14.970
30113W        W 1784   6.380  35.289   3.716
30114W        W 1785  12.633  10.564   4.291
30115W        W 1786  33.452  43.234  12.184
30116W        W 1787  18.804   8.225   1.889
30117W        W 1788  43.015  22.319  13.567
30118W        W 1789  23.444   7.685   2.869
30119W        W 1790  37.426  41.474   2.469
30120W        W 1791  14.535  18.561  14.464
30121W        W 1792  14.545   9.810   4.062
30122W        W 1793  25.230  15.702   2.434
30123W        W 1794  28.510  12.254   2.354
30124W        W 1795  15.652  29.165  12.962
30125W        W 1796  44.585  29.622  13.489
30126W        W 1797   2.017   7.923   0.004
30127W        W 1798  34.064  21.995  11.558
30128W        W 1799  43.381  29.752  12.465
30129W        W 1800  35.944  29.146   3.025
30130W        W 1801  13.665  43.795   2.627
30131W        W 1802  28.195  19.091  12.484
30132W        W 1803  12.684  26.915   2.417
30133W        W 1804   8.358  34.657  12.464
30134W        W 1805   9.668  23.737  11.081
30135W        W 1806  18.516  11.334  13.884
30136W        W 1807  44.587   4.435  13.859
30137W        W 1808  24.148  31.997  11.363
30138W        W 1809   3.699  40.380  11.202
30139W        W 1810  14.194  44.531   1.524
30140W        W 1811  44.385  37.459  10.565
30141W        W 1812  36.484  29.706  14.841
30142W        W 1813  14.902  39.035  13.427
30143W        W 1814  26.156  15.262   3.359
30144W        W 1815  29.195  17.086  12.538
30145W        W 1816   1.069   5.814  11.171
30146W        W 1817  38.276  17.149   4.155
30147W        W 1818  11.065  43.347   3.248
30148W        W 1819   7.132   5.367  14.073
30149W        W 1820  24.523   9.593   1.258
30150W        W 1821  20.074  25.587  12.059
30151W        W 1822  15.964  26.571  13.495
30152W        W 1823  19.234  10.449  10.661
30153W        W 1824  12.150  39.083  12.880
30154W        W 1825  29.052   4.353  12.010
30155W        W 1826  25.538  28.175  12.875
30156W        W 1827   6.950   1.207  12.080
30157W        W 1828   0.862  17.109  12.968
30158W        W 1829  42.234  12.016  12.882
30159W        W 1830   2.847  12.682   0.272
30160W        W 1831  18.299   0.847  10.448
30161W        W 1832  44.758  29.878  14.720
30162W        W 1833  30.112   3.831  11.937
30163W        W 1834   4.958   8.851   4.366
30164W        W 1835  34.731  30.525   3.372
30165W        W 1836  25.236  42.047   2.422
30166W        W 1837  13.594  37.665  12.947
30167W        W 1838  31.480  18.117  12.173
30168W        W 1839  12.185  31.907  11.919
30169W        W 1840   5.365  39.635  13.758
30170W        W 1841  34.641  38.412  14.639
30171W        W 1842   8.442  42.004  13.943
30172W        W 1843  18.239  28.042   3.435
30173W        W 1844   3.377  42.031   4.505
30174W        W 1845  11.267  16.789  14.754
30175W        W 1846  19.238  39.779  12.863
30176W        W 1847  28.749  30.014  11.912
30177W        W 1848  13.082   7.202   5.049
30178W        W 1849   4.880   7.483   3.648
30179W        W 1850  15.060  40.965  12.379
30180W        W 1851  34.022   3.629  14.574
30181W        W 1852  11.346   5.286  12.621
30182W        W 1853  17.654  30.056  11.152
30183W        W 1854  44.782  14.878   2.925
30184W        W 1855  23.394  23.039  14.924
30185W        W 1856   0.504  20.806  11.671
30186W        W 1857  12.716  30.122  12.711
30187W        W 1858  20.373  42.415  14.789
30188W        W 1859   7.226  42.217  12.007
30189W        W 1860  40.204  31.042   3.744
30190W        W 1861  30.566  27.465   1.244
30191W        W 1862  19.691   6.966   1.071
30192W        W 1863  27.562  31.632   5.117
30193W        W 1864  17.229  28.029  13.523
30194W        W 1865   6.046  14.915  12.034
30195W        W 1866   6.708  39.692   4.970
30196W        W 1867   2.367  43.924  13.355
30197W        W 1868  40.983  32.167  14.854
30198W        W 1869  16.755  30.505   4.353
30199W        W 1870  16.160  36.558   0.789
30200W        W 1871  19.195  13.165  10.756
30201W        W 1872  42.739   7.913  11.909
30202W        W 1873  24.002  19.956   4.477
30203W        W 1874  23.893   3.110  11.100
30204W        W 1875  21.956  16.088   3.757
30205W        W 1876   2.731  16.532  13.940
30206W        W 1877  13.298  24.729   3.386
30207W        W 1878  21.867  30.075  13.270
30208W        W 1879  39.458  31.025  10.561
30209W        W 1880  25.205  21.693  11.545
30210W        W 1881  21.843  30.219  13.809
30211W        W 1882   4.257  41.637  14.470
30212W        W 1883  40.355   5.461   0.945
30213W        W 1884  36.566   7.821   2.551
30214W        W 1885  13.660   3.995  13.997
30215W        W 1886  42.389  22.045  12.890
30216W        W 1887   4.178  13.764   3.575
30217W        W 1888  29.919   2.739   1.875
30218W        W 1889  40.505   9.931   4.552
30219W        W 1890  20.612  23.180   5.456
30220W        W 1891   4.422  17.317  14.815
30221W        W 1892  20.519  21.150  10.858
30222W        W 1893  21.071  44.951   3.230
30223W        W 1894   3.020  14.840   3.404
30224W        W 1895  20.744   8.750  11.654
30225W        W 1896  43.755  20.731   1.628
30226W        W 1897   2.387  39.346  12.026
30227W        W 1898  38.402  18.075  11.611
30228W        W 1899  31.066  27.981  13.040
30229W        W 1900  31.075  37.637   1.987
30230W        W 1901  22.525   3.848   1.188
30231W        W 1902   9.261  43.423  14.383
30232W        W 1903  29.205  13.433   0.487
30233W        W 1904  37.275   9.313  14.936
30234W        W 1905  44.711  33.114  13.924
30235W        W 1906  23.188  34.551  12.497
30236W        W 1907  27.942  16.694   1.811
30237W        W 1908   6.722  13.061  10.359
30238W        W 1909  37.824  43.230   0.335
30239W        W 1910  21.946  28.749  11.082
30240W        W 1911   4.381   2.384  14.388
30241W        W 1912  37.530  39.356   4.636
30242W        W 1913  15.443  15.061  12.409
30243W        W 1914  32.969  30.945   4.584
30244W        W 1915  26.214  11.414  11.049
30245W        W 1916  40.961  26.646   4.418
30246W        W 1917  19.350  15.807  13.988
30247W        W 1918  12.818  38.768   0.993
30248W        W 1919  32.606  32.351   2.681
30249W        W 1920  35.056  40.534  12.405
30250W        W 1921  22.525  41.558  14.309
30251W        W 1922  26.553   8.717  13.897
30252W        W 1923  30.372  24.557   3.250
30253W        W 1924  42.366   0.463  14.035
30254W        W 1925  35.849  21.837  11.994
30255W        W 1926  24.232  29.666  13.389
30256W        W 1927  19.150  26.750  11.151
30257W        W 1928  43.620  23.666   1.865
30258W        W 1929   2.108  19.995   2.971
30259W        W 1930   1.537  10.125  13.126
30260W        W 1931   5.262  24.879   2.215
30261W        W 1932  10.444  28.096   1.470
30262W        W 1933  17.086  28.433   1.772
30263W        W 1934   3.130  42.563  11.297
30264W        W 1935  19.789  11.654  14.571
30265W        W 1936   6.365  44.869  10.532
30266W        W 1937  13.199  32.894  10.596
30267W        W 1938  11.818   9.683   1.665
30268W        W 1939  11.897  26.220  12.454
30269W        W 1940  10.574  34.993   5.027
30270W        W 1941  31.053   9.125   4.571
30271W        W 1942  19.122  18.072   3.280
30272W        W 1943  16.888  14.311  12.953
30273W        W 1944  28.002  22.191  14.777
30274W        W 1945  24.000  18.217  13.424
30275W        W 1946  40.920   0.989   1.810
30276W        W 1947   3.137  36.534  13.108
30277W        W 1948  33.965   1.771  12.619
30278W        W 1949  26.228  20.185   1.188
30279W        W 1950  34.072   0.437   1.281
30280W        W 1951  21.018  29.745  13.017
30281W        W 1952  40.549  32.462   2.971
30282W        W 1953  30.214  11.558  13.862
30283W        W 1954  28.049   2.668   0.427
30284W        W 1955  44.833   9.955   1.421
30285W        W 1956  13.652  42.413   4.300
30286W        W 1957   4.782  11.347   1.826
30287W        W 1958  24.228  11.280   3.327
30288W        W 1959   9.412  15.413  14.456
30289W        W 1960  31.646  28.100  13.784
30290W        W 1961  19.083  35.290   3.681
30291W        W 1962  31.858  40.902   3.716
30292W        W 1963  31.175  37.345  14.747
30293W        W 1964  18.403  18.612   2.300
30294W        W 1965  26.072  14.129   4.608
30295W        W 1966  25.319  42.159   4.124
30296W        W 1967  17.617  12.406   2.868
30297W        W 1968   1.427  38.788  12.854
30298W        W 1969  30.652   3.944   3.663
30299W        W 1970   3.942  36.301  11.182
30300W        W 1971  12.802  16.788   0.832
30301W        W 1972   4.430  28.238  14.990
30302W        W 1973   6.794   7.931  13.633
30303W        W 1974  19.197  17.681   2.662
30304W        W 1975  32.461  14.814   1.806
30305W        W 1976  27.148  17.813  11.093
30306W        W 1977  43.086  13.785  12.938
30307W        W 1978  40.907   8.708   3.987
30308W        W 1979  38.864   1.475   1.742
30309W        W 1980  33.761   3.142  13.916
30310W        W 1981  16.591  44.479   4.530
30311W        W 1982  18.642   1.704  12.618
30312W        W 1983  13.692  33.029   2.806
30313W        W 1984   8.094   0.285   2.714
30314W        W 1985  19.648  20.624   1.489
30315W        W 1986  15.392  19.172   0.694
30316W        W 1987  32.109  15.688   4.665
30317W        W 1988  32.168  40.442  13.100
30318W        W 1989  43.611  13.564   4.432
30319W        W 1990   2.930  21.640   5.161
30320W        W 1991  12.194  15.144  12.177
30321W        W 1992  34.680  38.391   0.418
30322W        W 1993  25.647  11.781  14.867
30323W        W 1994  43.777  28.031   3.607
30324W        W 1995  11.720   8.414   4.721
30325W        W 1996  23.763   6.146  11.134
30326W        W 1997  24.164  12.131   3.358
30327W        W 1998   3.179   1.847   0.883
30328W        W 1999  38.177  30.608   2.362
30329W        W 2000  16.774   1.657   0.467
30330W        W 2001  33.684  19.139   1.163
30331W        W 2002  28.520   4.491   1.883
30332W        W 2003   7.353  19.402   1.445
30333W        W 2004  31.368  41.787   3.709
30334W        W 2005  17.526   5.990   5.015
30335W        W 2006  22.305  38.721   1.176
30336W        W 2007   2.284  13.211   4.240
30337W        W 2008   8.708   5.873   1.215
30338W        W 2009  16.298  42.849   0.352
30339W        W 2010  30.520  10.290   4.479
30340W        W 2011  23.142  38.319   4.508
30341W        W 2012   0.302   5.775  11.422
30342W        W 2013  30.845   6.697   4.578
30343W        W 2014   5.427  20.880  11.073
30344W        W 2015  11.583   5.717   0.747
30345W        W 2016  35.330  20.968   3.200
30346W        W 2017  30.851  10.699   1.419
30347W        W 2018   8.853  19.259  13.193
30348W        W 2019  17.137  22.614   1.360
30349W        W 2020  20.226  37.355   0.294
30350W        W 2021   8.685  39.965  11.115
30351W        W 2022  32.697  16.397   3.686
30352W        W 2023  23.259  41.818  14.775
30353W        W 2024  11.322   5.697   1.193
30354W        W 2025  41.213  42.509   2.884
30355W        W 2026  17.798  35.979  14.299
30356W        W 2027  22.026  21.016   2.268
30357W        W 2028  18.171  29.576   1.915
30358W        W 2029  14.681  42.456  11.478
30359W        W 2030  15.712  14.813   2.812
30360W        W 2031   8.360  29.025   4.066
30361W        W 2032   0.121   1.530  11.633
30362W        W 2033  25.963  21.980  12.088
30363W        W 2034  35.104   6.690   4.868
30364W        W 2035  26.126  42.539   4.077
30365W        W 2036   2.798   5.183   0.828
30366W        W 2037  20.244   2.792   1.031
30367W        W 2038  13.892  23.650   0.783
30368W        W 2039  28.987  14.520   2.208
30369W        W 2040  44.356  25.129   0.468
30370W        W 2041  14.768  23.721  13.059
30371W        W 2042   0.413  29.908   1.876
30372W        W 2043  44.617   8.659  12.871
30373W        W 2044  36.910  26.015   3.018
30374W        W 2045  14.646   1.713  10.791
30375W        W 2046  38.594  40.119   0.210
30376W        W 2047  43.704   6.180  13.402
30377W        W 2048  21.460  23.236  11.599
30378W        W 2049   6.062  34.840  14.486
30379W        W 2050  25.001  15.250  13.762
30380W        W 2051  39.304  29.056   1.673
30381W        W 2052  38.483  30.415  12.047
30382W        W 2053  31.029  35.916  10.758
30383W        W 2054  29.998  36.690   2.839
30384W        W 2055   9.819  27.564  11.263
30385W        W 2056  44.102  26.625  14.411
30386W        W 2057  23.995  11.877  12.386
30387W        W 2058  13.217  34.894  13.869
30388W        W 2059   2.357   6.020   4.780
30389W        W 2060  44.130  30.096   3.329
30390W        W 2061  38.425  22.733   1.675
30391W        W 2062  32.923  24.931  12.886
30392W        W 2063  26.595  15.476  11.064
30393W        W 2064  33.603  39.550   1.936
30394W        W 2065   5.536  35.110   2.827
30395W        W 2066  18.263  32.134  10.303
30396W        W 2067  40.908  26.220   2.327
30397W        W 2068  29.466  33.349  13.559
30398W        W 2069  31.950  32.042  13.678
30399W        W 2070   3.163  38.425  10.680
30400W        W 2071  13.033  18.518  14.478
30401W        W 2072  21.322  23.445  11.092
30402W        W 2073  18.632  20.722  10.676
30403W        W 2074  11.769  35.019  14.362
30404W        W 2075  24.663   8.561   3.144
30405W        W 2076  15.287  21.717  10.729
30406W        W 2077   6.167  35.117   3.271
30407W        W 2078  37.580  23.079  10.672
30408W        W 2079   2.213  42.630  11.221
30409W        W 2080  29.282  32.499  10.418
30410W        W 2081  18.511  12.127   2.262
30411W        W 2082  16.289   0.918   1.355
30412W        W 2083   4.280  11.973  13.871
30413W        W 2084  18.080  30.433  13.484
30414W        W 2085  26.679   6.582  12.288
30415W        W 2086  13.761   3.775  11.066
30416W        W 2087  38.082  38.479   4.031
30417W        W 2088   1.494  23.627  14.741
30418W        W 2089  41.564   3.824   1.854
30419W        W 2090  34.143  32.454  14.203
30420W        W 2091  17.648  32.615  11.362
30421W        W 2092   7.966   3.408   2.208
30422W        W 2093  20.313  17.449  12.565
30423W        W 2094   5.361  24.512  10.716
30424W        W 2095  36.573   3.571  10.757
30425W        W 2096  34.627  35.031  11.139
30426W        W 2097  36.238  23.100   3.356
30427W        W 2098  43.431   5.715  14.155
30428W        W 2099   5.303  12.393   4.472
30429W        W 2100  22.841  35.440   0.968
30430W        W 2101  11.492  10.279  13.063
30431W        W 2102  16.212   8.853  13.470
30432W        W 2103  30.213   9.661   1.477
30433W        W 2104  37.432   6.447   1.481
30434W        W 2105   9.344   7.716   0.023
30435W        W 2106  36.455  33.379  12.343
30436W        W 2107   4.723  41.116  12.618
30437W        W 2108  22.043  29.374   1.964
30438W        W 2109  10.442  33.416  11.220
30439W        W 2110  12.108  22.591   1.675
30440W        W 2111  41.061  18.117  10.765
30441W        W 2112  23.496  41.072   1.921
30442W        W 2113  28.933  30.985  12.891
30443W        W 2114   6.723  38.370  11.259
30444W        W 2115  44.028   8.369   1.259
30445W        W 2116  23.959  22.457  12.974
30446W        W 2117  43.898  39.872  12.844
30447W        W 2118  14.355  42.306   0.754
30448W        W 2119   2.893   9.650  12.814
30449W        W 2120   4.543   9.114  11.147
30450W        W 2121   1.065  44.380  13.217
30451W        W 2122  24.561  24.541  12.657
30452W        W 2123  16.175  41.759   4.218
30453W        W 2124  42.620   6.326  12.552
30454W        W 2125  23.484   1.431   1.030
30455W        W 2126  39.323  42.500  14.305
30456W        W 2127  44.074  44.264  11.127
30457W        W 2128  20.255  23.301   0.766
30458W        W 2129  23.260  41.332   4.213
30459W        W 2130  14.712  32.071  12.167
30460W        W 2131  18.666   3.400  11.538
30461W        W 2132  40.597  38.088  12.671
30462W        W 2133  29.833  32.659   2.290
30463W        W 2134   7.382  26.625   3.269
30464W        W 2135  14.271   5.942   0.311
30465W        W 2136  39.911  38.357   3.579
30466W        W 2137   4.164  34.056   2.357
30467W        W 2138  10.811  23.125   1.662
30468W        W 2139   1.818  28.264  12.160
30469W        W 2140  40.933  20.733  12.812
30470W        W 2141  10.902  28.979  12.486
30471W        W 2142  14.306  32.942  14.572
30472W        W 2143  29.049   3.671  11.457
30473W        W 2144  25.923  37.349  10.980
30474W        W 2145  10.668   4.420   4.740
30475W        W 2146  11.860   6.706  13.759
30476W        W 2147  42.734  44.234   5.022
30477W        W 2148   7.289   9.065   0.900
30478W        W 2149  37.100   7.894  12.419
30479W        W 2150  41.496  10.037   0.891
30480W        W 2151  13.326  29.611   3.480
30481W        W 2152  32.919  36.874  14.008
30482W        W 2153  30.519   0.511  10.753
30483W        W 2154  33.823  44.850  14.290
30484W        W 2155   9.582  22.507   3.634
30485W        W 2156  23.232  15.595  13.185
30486W        W 2157  17.329  14.640  13.115
30487W        W 2158  31.496  39.272   1.246
30488W        W 2159  24.725   4.245  13.902
30489W        W 2160  40.141   6.867   4.785
30490W        W 2161  31.690  22.322   1.227
30491W        W 2162  30.924  13.130   3.788
30492W        W 2163  15.131   7.795   2.698
30493W        W 2164   3.971  24.263  11.008
30494W        W 2165   9.118  14.207  12.065
30495W        W 2166  31.130  20.604  13.026
30496W        W 2167   7.123  34.354  12.386
30497W        W 2168  22.105  32.607  11.865
30498W        W 2169  38.973  22.023   2.209
30499W        W 2170   7.340  23.665  13.323
30500W        W 2171   9.017  15.764  13.805
30501W        W 2172  41.813  32.531  10.419
30502W        W 2173  13.901   3.791   4.787
30503W        W 2174  38.464  23.590  10.761
30504W        W 2175  41.586  25.685  12.004
30505W        W 2176  12.147   2.847  12.920
30506W        W 2177  33.313  40.717   0.751
30507W        W 2178  13.652  15.118   4.369
30508W        W 2179  20.542  28.902   2.209
30509W        W 2180  15.039  36.045   2.010
30510W        W 2181  25.954   7.738  13.454
30511W        W 2182  24.394  32.059  10.317
30512W        W 2183  27.403  15.619   1.314
30513W        W 2184   7.354  38.321   4.471
30514W        W 2185  35.905   2.377  12.440
30515W        W 2186  12.181  34.810   0.671
30516W        W 2187  31.717  21.728   2.208
30517W        W 2188  20.638   4.632   1.235
30518W        W 2189  15.077  30.449  12.650
30519W        W 2190   3.117  30.450  10.769
30520W        W 2191  12.415  34.400   0.915
30521W        W 2192  11.873  33.882   0.213
30522W        W 2193  22.742   8.619   4.626
30523W        W 2194  36.269  34.576   3.661
30524W        W 2195  40.569   8.150   4.655
30525W        W 2196  19.266  18.383  11.658
30526W        W 2197  28.623  13.701   1.912
30527W        W 2198  29.549  44.024  13.646
30528W        W 2199  32.341  20.600   0.353
30529W        W 2200  35.850  37.826  12.835
30530W        W 2201  16.413   5.195   1.874
30531W        W 2202  41.099   8.318  11.453
30532W        W 2203  40.857   2.678  10.386
30533W        W 2204  29.225  43.422   2.149
30534W        W 2205   9.146  41.228  11.101
30535W        W 2206  14.670  38.137   4.191
30536W        W 2207   2.639  24.723  11.177
30537W        W 2208  33.906  13.671   0.325
30538W        W 2209  35.962  34.460  13.619
30539W        W 2210  24.913  13.845   3.365
30540W        W 2211  30.844  40.402  11.066
30541W        W 2212  16.910   4.470   5.496
30542W        W 2213   9.182  13.718   4.728
30543W        W 2214  42.359  27.355   0.742
30544W        W 2215  21.640   7.671   1.871
30545W        W 2216   7.453  12.423  11.845
30546W        W 2217  18.507  34.927  12.361
30547W        W 2218  26.136  30.559  14.359
30548W        W 2219  16.524  21.189   1.009
30549W        W 2220  27.609  26.499   3.665
30550W        W 2221   5.829  40.446   3.273
30551W        W 2222  27.197  13.215   1.738
30552W        W 2223   8.848   4.701   3.620
30553W        W 2224  20.755  40.398   0.953
30554W        W 2225  27.624   4.914   2.729
30555W        W 2226  27.764  37.407  14.829
30556W        W 2227  31.085  30.509  14.685
30557W        W 2228   4.365   7.020  12.341
30558W        W 2229  43.413  11.310   3.169
30559W        W 2230  34.904  26.189   2.675
30560W        W 2231  36.452   0.358  12.070
30561W        W 2232   3.218  13.865   2.442
30562W        W 2233   8.096  13.785  11.820
30563W        W 2234   4.845  38.046   3.645
30564W        W 2235  27.657   9.836  14.762
30565W        W 2236  32.056  17.817   4.619
30566W        W 2237   0.525  18.055   0.781
30567W        W 2238  25.684   1.943  11.945
30568W        W 2239  13.226   7.778   2.166
30569W        W 2240  44.251   0.354  10.707
30570W        W 2241  43.215  35.221   2.169
30571W        W 2242  31.099  40.362  13.555
30572W        W 2243  12.205  42.364  11.437
30573W        W 2244  17.960  20.133   4.683
30574W        W 2245  24.484   6.500  10.715
30575W        W 2246  35.242  40.477   1.087
30576W        W 2247   7.220  21.722   0.053
30577W        W 2248  32.360  38.148  14.733
30578W        W 2249  17.564  34.600   4.872
30579W        W 2250  13.396  16.247  12.953
30580W        W 2251   9.789   3.181  13.372
30581W        W 2252   8.791  38.960  12.097
30582W        W 2253   2.241  42.426  14.843
30583W        W 2254  11.107  20.069  11.118
30584W        W 2255  22.050   1.429  10.996
30585W        W 2256   4.224  22.612   1.341
30586W        W 2257  28.682   7.435   1.340
30587W        W 2258  39.056  22.272  13.461
30588W        W 2259   1.249   7.382  11.891
30589W        W 2260   0.350  17.743   4.908
30590W        W 2261  16.166  14.139  13.509
30591W        W 2262   5.878  16.705   0.666
30592W        W 2263  22.243  29.423  11.565
30593W        W 2264   9.820  44.787  13.382
30594W        W 2265   8.660   0.801   2.162
30595W        W 2266  39.658  18.021  13.394
30596W        W 2267  21.142  22.243   3.158
30597W        W 2268  30.719  17.987  11.537
30598W        W 2269  41.470  15.412   2.096
30599W        W 2270  34.033   1.842  12.109
30600W        W 2271   5.891  39.026  12.956
30601W        W 2272  15.015  27.050   2.176
30602W        W 2273  10.176  29.882  12.457
30603W        W 2274  43.254  31.547  13.422
30604W        W 2275   6.959   3.155   2.372
30605W        W 2276  12.404   9.802  14.881
30606W        W 2277  30.205  35.035   1.331
30607W        W 2278  42.430   1.229  14.889
30608W        W 2279  26.916  36.531  13.036
30609W        W 2280  32.841  29.069  14.477
30610W        W 2281   1.884  25.431   1.933
30611W        W 2282  14.794  25.989  11.925
30612W        W 2283  24.558  33.707   2.911
30613W        W 2284   4.370   5.691  11.234
30614W        W 2285  16.740  44.424   2.853
30615W        W 2286   6.223  22.431   2.284
30616W        W 2287   1.231   8.908   0.856
30617W        W 2288   4.275  22.293  10.617
30618W        W 2289   6.395  37.847  12.470
30619W        W 2290  31.057   6.703   2.523
30620W        W 2291  24.011  38.311   5.507
30621W        W 2292  28.048   5.577   5.782
30622W        W 2293  38.072  16.060   2.344
30623W        W 2294  41.972  36.865  14.486
30624W        W 2295  21.459  25.956   1.355
30625W        W 2296  32.972  44.350  14.279
30626W        W 2297  33.880  35.288   3.109
30627W        W 2298  36.887  24.748   3.110
30628W        W 2299  27.684  21.096  11.204
30629W        W 2300  23.770  12.867  14.413
30630W        W 2301  42.726  21.686  14.199
30631W        W 2302  28.522  30.635   2.199
30632W        W 2303  14.239   0.867  13.855
30633W        W 2304  41.857  37.885   2.891
30634W        W 2305  13.858   4.344  11.993
30635W        W 2306  43.229  12.727   1.914
30636W        W 2307  10.122  24.705   0.794
30637W        W 2308  36.699  10.422  10.318
30638W        W 2309  42.544  35.678   3.306
30639W        W 2310  28.923  10.770   4.746
30640W        W 2311  31.154  11.381   0.260
30641W        W 2312  37.789  23.537   2.740
30642W        W 2313   1.406   8.238  12.556
30643W        W 2314   1.279  26.711   4.195
30644W        W 2315  14.411  27.553  11.938
30645W        W 2316  15.041  36.886  11.981
30646W        W 2317   6.225  43.523   3.334
30647W        W 2318  26.271   1.222   3.756
30648W        W 2319  26.327  14.644  10.763
30649W        W 2320  13.506  27.384  13.485
30650W        W 2321  37.290  14.574   4.284
30651W        W 2322   5.370   2.037   2.236
30652W        W 2323  13.608  13.093  13.888
30653W        W 2324  37.453  22.082   1.291
30654W        W 2325   6.958  18.265   2.830
30655W        W 2326  29.714  19.636   4.634
30656W        W 2327  42.282  23.108   4.501
30657W        W 2328   4.873  35.907   2.766
30658W        W 2329  27.179  42.756  14.842
30659W        W 2330  14.541  30.836  14.269
30660W        W 2331  23.184  26.996   0.424
30661W        W 2332   0.808  18.978  14.368
30662W        W 2333  42.293  25.176   2.921
30663W        W 2334  27.632  24.669   4.226
30664W        W 2335  11.256  29.393  11.500
30665W        W 2336  41.755  14.256  12.945
30666W        W 2337  20.135  43.779  12.171
30667W        W 2338  37.655   7.765   4.200
30668W        W 2339  24.488  26.949  11.898
30669W        W 2340  33.509   6.149  10.917
30670W        W 2341   1.828  20.345  14.446
30671W        W 2342   5.801   9.453  11.957
30672W        W 2343  32.176  31.374  10.678
30673W        W 2344  17.706  40.855   4.847
30674W        W 2345  17.660   1.867  11.656
30675W        W 2346  44.285  35.772   4.936
30676W        W 2347  44.445  35.502   0.657
30677W        W 2348  33.533  22.184  12.130
30678W        W 2349   8.269  17.590   2.001
30679W        W 2350  36.849  41.560   0.281
30680W        W 2351   1.794  40.025   0.312
30681W        W 2352  32.629  24.441  11.644
30682W        W 2353   7.881  16.228   4.138
30683W        W 2354   7.742  35.822  13.357
30684W        W 2355  15.225  16.015  12.016
30685W        W 2356   9.746  20.832   3.268
30686W        W 2357  25.033   2.941   0.261
30687W        W 2358  22.082  35.048  14.865
30688W        W 2359  14.287  36.337  14.321
30689W        W 2360  35.151  36.036   2.405
30690W        W 2361   6.995  38.279  12.446
30691W        W 2362   7.296  24.012  13.973
30692W        W 2363  27.405   8.951  10.524
30693W        W 2364  41.746  37.649  14.918
30694W        W 2365  37.652   5.757   2.098
30695W        W 2366   5.809  15.805   0.925
30696W        W 2367  13.229   9.796   1.252
30697W        W 2368  38.600   3.679   0.939
30698W        W 2369   2.789  23.725   2.710
30699W        W 2370  23.129   3.440  12.575
30700W        W 2371  23.171  11.244   0.842
30701W        W 2372  24.218  20.584  14.467
30702W        W 2373  43.818   6.096   0.749
30703W        W 2374   8.410  27.976  14.461
30704W        W 2375   8.001  33.040  13.936
30705W        W 2376  33.528  34.589  11.623
30706W        W 2377   9.815  28.881  11.216
30707W        W 2378   4.614  37.350   0.297
30708W        W 2379   1.075   9.570  13.531
30709W        W 2380  26.898   5.373  13.162
30710W        W 2381  24.615  33.644  12.618
30711W        W 2382  20.700  28.842  14.842
30712W        W 2383  22.671   0.983  14.378
30713W        W 2384  19.151   6.511  10.967
30714W        W 2385  38.881  12.855   1.362
30715W        W 2386  43.768  36.805   1.926
30716W        W 2387   7.606  33.028   3.778
30717W        W 2388  24.126  33.590   2.358
30718W        W 2389  15.231  18.527  14.936
30719W        W 2390  36.557  33.683   0.121
30720W        W 2391  14.556  18.170   4.081
30721W        W 2392  41.313  33.589   3.746
30722W        W 2393  35.083  30.174   3.174
30723W        W 2394  40.928   3.208   5.030
30724W        W 2395  30.845  33.270  10.829
30725W        W 2396  35.311  11.579   2.645
30726W        W 2397  21.281  39.859  11.409
30727W        W 2398  16.314  35.809   0.298
30728W        W 2399  37.374  25.606   0.351
30729W        W 2400  28.204  40.856   1.845
30730W        W 2401   3.489  42.943  13.798
30731W        W 2402  34.794  29.567  12.035
30732W        W 2403  39.357   0.713  14.514
30733W        W 2404  25.004  18.518  12.964
30734W        W 2405  17.883  30.118   1.944
30735W        W 2406  39.477  17.277  12.884
30736W        W 2407   9.127  31.557   4.379
30737W        W 2408  25.615  26.163  13.559
30738W        W 2409   5.263   1.322  14.656
30739W        W 2410  35.046  25.730  12.046
30740W        W 2411   8.892  21.119  12.100
30741W        W 2412   3.271  10.333  10.904
30742W        W 2413  34.380  22.217   5.043
30743W        W 2414  27.200  21.878   1.136
30744W        W 2415  12.748  25.750  12.976
30745W        W 2416  11.566  26.364   0.108
30746W        W 2417  20.640   9.669   1.248
30747W        W 2418  38.559  35.120   0.302
30748W        W 2419  18.776  32.025  12.623
30749W        W 2420  17.318  23.590  13.363
30750W        W 2421  41.107  39.300   4.166
30751W        W 2422  33.180  30.049  13.558
30752W        W 2423   9.181  38.545  14.464
30753W        W 2424  13.353  30.688   0.775
30754W        W 2425  34.164  14.244   4.614
30755W        W 2426  33.657  44.416   2.162
30756W        W 2427  43.715   4.763   0.726
30757W        W 2428  23.568  24.272  11.116
30758W        W 2429  11.391  31.888  12.473
30759W        W 2430  20.008  40.389   2.122
30760W        W 2431   6.374   2.322  14.909
30761W        W 2432  13.452  37.776   1.149
30762W        W 2433   3.392   9.413   5.175
30763W        W 2434  29.517   2.170   1.403
30764W        W 2435  34.616  42.752  13.936
30765W        W 2436  33.905   8.790   2.202
30766W        W 2437  27.568   5.350  12.522
30767W        W 2438  40.362  24.097   4.638
30768W        W 2439   0.346  31.200  12.500
30769W        W 2440   3.521  30.420   4.327
30770W        W 2441  12.576  33.116  11.662
30771W        W 2442   5.935  32.684   2.868
30772W        W 2443  40.861  33.538  11.190
30773W        W 2444   6.834  39.507  12.960
30774W        W 2445  34.562  30.700   2.354
30775W        W 2446  21.290   8.702  14.630
30776W        W 2447  14.129  17.757   0.540
30777W        W 2448   3.225  10.748  12.021
30778W        W 2449  38.574   3.705  12.422
30779W        W 2450  19.371  19.653   4.217
30780W        W 2451  35.106   7.868  13.976
30781W        W 2452  23.420  27.688   0.014
30782W        W 2453  27.524  11.848  14.843
30783W        W 2454   4.499  23.504  13.828
30784W        W 2455   3.134  43.292  13.669
30785W        W 2456  17.604  33.457  13.129
30786W        W 2457  28.440  36.423  14.927
30787W        W 2458   7.917   6.245  14.877
30788W        W 2459   8.119   9.057  10.459
30789W        W 2460   5.495   8.895   4.533
30790W        W 2461  39.734  11.191   1.162
30791W        W 2462  28.623   5.359  13.587
30792W        W 2463  16.127  42.323  12.352
30793W        W 2464  14.556  26.703  14.347
30794W        W 2465   6.604   5.445  11.500
30795W        W 2466  25.748   2.283  13.831
30796W        W 2467  32.599  22.617   4.093
30797W        W 2468  20.083  26.215   5.064
30798W        W 2469   2.137  25.124   0.334
30799W        W 2470  20.731  34.836   1.103
30800W        W 2471   5.940  34.542  11.554
30801W        W 2472   0.502  39.268   0.192
30802W        W 2473  11.815  27.480   4.623
30803W        W 2474  34.312  26.613  12.613
30804W        W 2475  11.132  17.283   0.574
30805W        W 2476  37.910   4.915   3.885
30806W        W 2477  35.289   4.464  11.548
30807W        W 2478  32.436  20.820  14.888
30808W        W 2479  26.730   4.687   3.068
30809W        W 2480  11.398  20.678  14.598
30810W        W 2481  23.111  21.103   9.894
30811W        W 2482  18.336   4.928   2.884
30812W        W 2483  29.460   6.658   1.732
30813W        W 2484  37.959  23.904   3.576
30814W        W 2485  13.088  36.170  11.059
30815W        W 2486  41.015  32.027   2.358
30816W        W 2487  32.505  30.504  10.496
30817W        W 2488  19.371  24.651  12.464
30818W        W 2489   5.057  16.912   1.051
30819W        W 2490  34.655  36.629  10.609
30820W        W 2491   7.490  33.872  12.330
30821W        W 2492  21.793  22.043   1.224
30822W        W 2493  26.123  14.902  14.267
30823W        W 2494  28.693  18.471   4.591
30824W        W 2495  36.657  12.020   1.860
30825W        W 2496  21.020  26.116   2.250
30826W        W 2497  17.250   2.070   2.300
30827W        W 2498  27.486   1.859   3.605
30828W        W 2499  40.289   5.907  13.280
30829W        W 2500   3.681  13.272  13.157
30830W        W 2501  23.626  27.294   0.354
30831W        W 2502   3.249  15.621   5.017
30832W        W 2503  25.192  29.392  13.081
30833W        W 2504  11.847  27.372  14.983
30834W        W 2505  28.133  13.066  11.149
30835W        W 2506   9.821  41.783  10.780
30836W        W 2507  26.711  21.259  10.218
30837W        W 2508  26.785  12.734   4.083
30838W        W 2509  41.964  18.920   1.333
30839W        W 2510  28.588  22.602   4.704
30840W        W 2511  12.192  24.739  12.425
30841W        W 2512  31.020  19.550  11.145
30842W        W 2513   9.885  10.666  14.944
30843W        W 2514  44.312  13.226  12.047
30844W        W 2515  21.978  30.361   4.559
30845W        W 2516  16.100  26.758   1.188
30846W        W 2517  43.936  24.164  12.853
30847W        W 2518   2.759  42.381  14.860
30848W        W 2519  33.569  42.431   4.907
30849W        W 2520  21.617   5.748  12.965
30850W        W 2521  39.895  41.088   2.350
30851W        W 2522  20.921  44.684  10.752
30852W        W 2523  14.029   4.448  12.482
30853W        W 2524  22.984  23.647  11.529
30854W        W 2525  34.513   9.903   4.628
30855W        W 2526  21.469  33.080  12.477
30856W        W 2527  19.693  16.966  13.296
30857W        W 2528  42.891  44.749   0.295
30858W        W 2529  28.039  41.626  13.896
30859W        W 2530   0.656  12.921   4.989
30860W        W 2531   0.855   1.476  13.855
30861W        W 2532  37.599  17.763   1.265
30862W        W 2533  43.531  12.018   1.235
30863W        W 2534  42.303  40.125  11.720
30864W        W 2535   7.897  38.693   3.667
30865W        W 2536  33.756  23.647   0.207
30866W        W 2537  31.971   2.782  13.394
30867W        W 2538  40.021   1.790  14.954
30868W        W 2539  21.182  27.444  10.613
30869W        W 2540   3.137  35.855  11.868
30870W        W 2541  23.248   3.810  11.978
30871W        W 2542   7.382  41.910   4.085
30872W        W 2543   5.407   7.821   1.643
30873W        W 2544  28.627  28.455   0.956
30874W        W 2545  14.188  35.083  13.416
30875W        W 2546  34.475  10.689  13.842
30876W        W 2547  31.421  33.417  11.983
30877W        W 2548   5.242  43.148   0.412
30878W        W 2549  26.390  10.352  11.652
30879W        W 2550  17.619  23.080   4.746
30880W        W 2551  19.260  17.084   1.430
30881W        W 2552  13.961   6.447  10.592
30882W        W 2553  23.931  38.212  13.735
30883W        W 2554  17.122  16.039  13.210
30884W        W 2555  26.153  34.617  11.109
30885W        W 2556  27.077  38.616   1.795
30886W        W 2557  35.498  33.117  14.962
30887W        W 2558   2.022  26.702  14.459
30888W        W 2559   8.587  31.028  12.318
30889W        W 2560  38.306   6.221  11.170
30890W        W 2561   5.652  41.937  11.107
30891W        W 2562  27.036   0.293  11.166
30892W        W 2563  17.293  43.026   1.346
30893W        W 2564  44.787  21.818   0.441
30894W        W 2565   4.699  43.757  11.603
30895W        W 2566  17.907   4.408   4.100
30896W        W 2567  26.585  34.304  12.054
30897W        W 2568   0.632  22.213  10.287
30898W        W 2569  18.625  22.590  12.998
30899W        W 2570  23.709  25.786   3.314
30900W        W 2571  23.096  11.205   0.299
30901W        W 2572   0.561  44.370  13.354
30902W        W 2573  15.808  40.392   4.321
30903W        W 2574  36.771   5.042  10.215
30904W        W 2575  25.750  33.868  13.058
30905W        W 2576  29.870   7.795  14.856
30906W        W 2577   5.344  38.818  12.618
30907W        W 2578  41.538  34.970  13.301
30908W        W 2579  42.970  38.508  13.618
30909W        W 2580  18.230  26.644  10.667
30910W        W 2581  23.856   8.762  12.602
30911W        W 2582   6.651  37.190  13.314
30912W        W 2583  41.512  33.979   2.466
30913W        W 2584   3.600  15.163   4.759
30914W        W 2585  43.851  34.666   2.067
30915W        W 2586  23.672   1.921   1.121
30916W        W 2587  28.651  42.313   0.557
30917W        W 2588   7.833  26.668   1.015
30918W        W 2589  10.246   9.635   1.861
30919W        W 2590  14.124  19.253   0.353
30920W        W 2591  13.600  33.062  12.902
30921W        W 2592  44.478  13.049  14.417
30922W        W 2593   0.934   0.959  13.764
30923W        W 2594   9.838  33.445  12.591
30924W        W 2595   8.428  34.374  13.424
30925W        W 2596  31.847  36.328   0.296
30926W        W 2597  30.435   3.733  13.783
30927W        W 2598  43.795  40.999  12.174
30928W        W 2599   7.241  40.087   0.205
30929W        W 2600  37.905  11.094   3.716
30930W        W 2601  43.867   8.303   1.809
30931W        W 2602  33.032  14.562   4.033
30932W        W 2603  13.255  21.679   4.058
30933W        W 2604  11.485  41.458   4.090
30934W        W 2605  17.621  39.468   4.571
30935W        W 2606  37.432   3.979   0.359
30936W        W 2607  22.727  43.041   2.372
30937W        W 2608   1.255   7.198   0.895
30938W        W 2609  21.624  11.143  11.377
30939W        W 2610  24.031  11.164  14.788
30940W        W 2611  23.109  41.043   0.775
30941W        W 2612  40.172  27.397  11.110
30942W        W 2613  37.997  32.602   3.282
30943W        W 2614  24.149  39.486  13.882
30944W        W 2615  16.733  27.358  10.503
30945W        W 2616  13.939   4.998   2.682
30946W        W 2617  26.171  25.975   1.176
30947W        W 2618  18.335  39.104  11.062
30948W        W 2619  13.060  35.383  12.607
30949W        W 2620  16.067  25.063   1.791
30950W        W 2621  17.964   7.951  11.385
30951W        W 2622   6.408   9.934  13.068
30952W        W 2623  23.037  34.885   4.518
30953W        W 2624  33.405  29.800  12.654
30954W        W 2625   4.369  27.142   2.490
30955W        W 2626  16.176  35.401   4.897
30956W        W 2627  19.270  31.529   4.671
30957W        W 2628   6.724  27.058   1.325
30958W        W 2629  44.108  40.294  14.396
30959W        W 2630  27.129  18.794   2.317
30960W        W 2631   8.734  44.493  12.653
30961W        W 2632   4.719  43.435   4.607
30962W        W 2633  12.090  43.594  10.924
30963W        W 2634   5.971  35.103   1.737
30964W        W 2635  41.277   1.431   3.641
30965W        W 2636  44.581  13.309   2.188
30966W        W 2637   2.333   8.283   3.469
30967W        W 2638  44.996  18.651  13.781
30968W        W 2639  42.979  27.536  12.400
30969W        W 2640  41.363   8.998   0.685
30970W        W 2641  36.413  37.421   0.031
30971W        W 2642  22.626   1.539  11.848
30972W        W 2643   8.197  37.305  10.600
30973W        W 2644  33.145  43.521   4.721
30974W        W 2645  11.835   5.190  10.039
30975W        W 2646  29.083  34.631  12.028
30976W        W 2647  40.283  16.840  10.604
30977W        W 2648  33.358   8.799   2.290
30978W        W 2649  43.002  17.184   3.822
30979W        W 2650  11.566  41.933  14.341
30980W        W 2651  36.611   5.979   0.471
30981W        W 2652  13.382  40.540   4.984
30982W        W 2653  23.223  43.333   1.302
30983W        W 2654  29.642  26.948   0.841
30984W        W 2655  23.434  15.386  11.175
30985W        W 2656  42.033  24.057  13.950
30986W        W 2657  38.558  40.689   2.641
30987W        W 2658  26.923  40.498   5.125
30988W        W 2659  12.235   4.191   0.399
30989W        W 2660   7.893  25.582   1.019
30990W        W 2661   1.435   2.290  10.737
30991W        W 2662  15.727  31.966  13.886
30992W        W 2663  14.314  17.142  13.522
30993W        W 2664  25.059  44.211   3.280
30994W        W 2665  38.804   2.713   3.347
30995W        W 2666  31.470   9.391   2.232
30996W        W 2667  22.272   8.175  12.027
30997W        W 2668  21.038   0.412  13.077
30998W        W 2669  19.012  24.343  10.317
30999W        W 2670  36.061  10.018  10.761
31000W        W 2671  24.954  28.002   0.396
31001W        W 2672  26.425  12.324   4.151
31002W        W 2673  13.640  27.457   1.199
31003W        W 2674  23.541  19.074  11.089
31004W        W 2675   5.633  33.630  14.882
31005W        W 2676  39.894  34.875   3.620
31006W        W 2677  21.512  35.944   0.056
31007W        W 2678  20.512  11.590   1.786
31008W        W 2679  23.564   7.600  11.165
31009W        W 2680  13.143   9.170  11.463
31010W        W 2681  20.702  12.141  12.622
31011W        W 2682  37.154  36.521   4.415
31012W        W 2683  44.495  34.788  14.713
31013W        W 2684  27.170  35.088   0.463
31014W        W 2685   8.651  30.219  14.032
31015W        W 2686  38.089  21.993   3.255
31016W        W 2687  34.957  21.516   1.519
31017W        W 2688  34.026  43.676  14.767
31018W        W 2689  10.455  25.010   1.332
31019W        W 2690  12.797  10.714   1.309
31020W        W 2691  43.228  10.584   2.725
31021W        W 2692  29.471   2.985  13.779
31022W        W 2693  23.071  27.936   0.320
31023W        W 2694  36.579  40.833  11.062
31024W        W 2695  40.677  32.865   2.684
31025W        W 2696  41.554  29.527   3.603
31026W        W 2697  22.864  40.601   3.376
31027W        W 2698  28.934  42.705   0.812
31028W        W 2699  27.090  16.267   3.535
31029W        W 2700  31.706   0.545  11.710
31030W        W 2701  21.162  13.449   3.170
31031W        W 2702  31.193  34.044   1.496
31032W        W 2703  42.240  34.547  10.803
31033W        W 2704  33.215  41.510   4.781
31034W        W 2705   1.620   9.665   3.597
31035W        W 2706  21.465  40.288   1.183
31036W        W 2707  33.694  20.629  13.604
31037W        W 2708  40.930  39.209   0.931
31038W        W 2709   5.847  27.203  12.849
31039W        W 2710  29.168  17.180  10.446
31040W        W 2711  25.400   4.766   4.724
31041W        W 2712  10.215  43.937  10.101
31042W        W 2713  32.419   1.265  13.022
31043W        W 2714  38.826   4.164   4.916
31044W        W 2715  42.873  41.570  12.998
31045W        W 2716   5.046  42.883  14.959
31046W        W 2717   1.682  28.232   0.447
31047W        W 2718   5.128  15.643  11.945
31048W        W 2719  32.443  19.232  14.978
31049W        W 2720  16.710  10.671  14.382
31050W        W 2721  40.517  25.088   4.124
31051W        W 2722  38.969  21.340  14.947
31052W        W 2723   0.211  21.207  13.134
31053W        W 2724  33.359  36.447   3.204
31054W        W 2725  35.012   8.911   2.170
31055W        W 2726   7.101  15.294  11.105
31056W        W 2727  16.290   2.002  13.575
31057W        W 2728  27.505  22.748  13.123
31058W        W 2729  23.552  37.451   3.257
31059W        W 2730  35.927  36.343  11.084
31060W        W 2731  14.227   1.376  10.769
31061W        W 2732  20.348  19.362  12.880
31062W        W 2733  19.207  30.656   4.649
31063W        W 2734  40.488  38.134   0.452
31064W        W 2735   5.193  16.624  13.565
31065W        W 2736   5.191  22.117  11.908
31066W        W 2737  18.165  40.291   0.291
31067W        W 2738  21.874   0.407  11.952
31068W        W 2739  30.379  20.640   1.052
31069W        W 2740  39.035  28.968   3.943
31070W        W 2741  13.126   5.523   0.423
31071W        W 2742  21.064  43.724   1.824
31072W        W 2743  37.990   1.048   3.193
31073W        W 2744  40.361  16.873   4.137
31074W        W 2745  44.425  42.615  11.837
31075W        W 2746  33.983  31.003   4.245
31076W        W 2747  33.792  27.446  14.147
31077W        W 2748  34.538  13.378  10.990
31078W        W 2749  19.267  31.507   3.597
31079W        W 2750  43.866  21.978  13.935
31080W        W 2751  34.140  11.208   0.963
31081W        W 2752  21.729  44.530   2.850
31082W        W 2753   1.410   6.962   3.804
31083W        W 2754   4.358  21.633  13.069
31084W        W 2755   0.175  31.575  11.711
31085W        W 2756   5.190  18.827  10.992
31086W        W 2757  24.998  10.215   1.794
31087W        W 2758  20.014   3.717   3.109
31088W        W 2759  17.568   6.425   1.405
31089W        W 2760  35.241  37.603  12.212
31090W        W 2761  24.515  42.520  11.913
31091W        W 2762  40.088  44.822  12.558
31092W        W 2763   9.855   4.142   4.522
31093W        W 2764  31.350   7.944  12.700
31094W        W 2765  30.549  32.065  13.362
31095W        W 2766  44.235  44.983   2.863
31096W        W 2767  22.967  36.805  12.964
31097W        W 2768  23.718  25.543  10.785
31098W        W 2769   3.458  10.147   4.712
31099W        W 2770  25.529  20.313  12.392
31100W        W 2771  14.899  19.761   3.542
31101W        W 2772  36.952  27.648   0.428
31102W        W 2773  12.894   3.908   4.553
31103W        W 2774  41.296   5.980  13.419
31104W        W 2775  26.243  16.716   4.234
31105W        W 2776  15.169  30.126  11.197
31106W        W 2777  12.168  15.572  12.519
31107W        W 2778  42.759  35.366   4.199
31108W        W 2779   4.798   9.847  11.636
31109W        W 2780  38.284  36.421  10.407
31110W        W 2781  38.982  19.841  13.491
31111W        W 2782   6.076   6.666   2.097
31112W        W 2783  31.712  11.780  10.612
31113W        W 2784  22.775  16.727   2.273
31114W        W 2785  38.812   6.776   2.224
31115W        W 2786  22.504  23.569   2.959
31116W        W 2787   1.371  28.524  10.553
31117W        W 2788   6.854  23.261   1.427
31118W        W 2789  36.334   3.721   4.178
31119W        W 2790  25.373  37.441  11.693
31120W        W 2791   0.149  19.780   1.489
31121W        W 2792  28.039  33.451  14.835
31122W        W 2793   3.827  36.661   4.580
31123W        W 2794  22.728   7.860   4.151
31124W        W 2795  40.213   3.304  14.928
31125W        W 2796  33.086  25.732  10.628
31126W        W 2797  27.411  21.048  11.621
31127W        W 2798   1.557  28.540   2.577
31128W        W 2799  25.854  37.103   2.992
31129W        W 2800  14.782  20.568  11.032
31130W        W 2801   2.932  29.603  12.620
31131W        W 2802  38.160  39.926   2.379
31132W        W 2803  39.046  19.074   0.262
31133W        W 2804  28.157   2.984  14.000
31134W        W 2805  37.375  42.432   2.208
31135W        W 2806  29.413  15.772   3.622
31136W        W 2807  34.200  17.195  12.346
31137W        W 2808  25.573  16.140  12.210
31138W        W 2809  44.442  10.986   5.533
31139W        W 2810  16.204  23.150   1.884
31140W        W 2811  41.814  32.456   0.830
31141W        W 2812  44.786  31.978   2.398
31142W        W 2813  40.578  33.420  13.463
31143W        W 2814   9.590  21.488  12.500
31144W        W 2815   1.844  24.985   5.193
31145W        W 2816  42.782   5.341   4.392
31146W        W 2817  19.629   3.007   4.060
31147W        W 2818  43.343   7.729   1.049
31148W        W 2819  20.064  33.140   0.022
31149W        W 2820  42.471  26.696  13.438
31150W        W 2821   9.889  16.359   2.830
31151W        W 2822  34.973  21.512   4.810
31152W        W 2823  22.673   7.213  14.495
31153W        W 2824   9.359   6.072  12.052
31154W        W 2825  30.094  42.374   2.428
31155W        W 2826  18.117  26.105   0.332
31156W        W 2827  36.378  32.385   4.160
31157W        W 2828   3.485  22.830   4.287
31158W        W 2829  29.686  38.811   2.072
31159W        W 2830  15.632   9.267   4.725
31160W        W 2831  23.594  17.044   2.511
31161W        W 2832  11.780  35.306   1.782
31162W        W 2833  25.729  32.567  14.492
31163W        W 2834   5.679  26.662   3.712
31164W        W 2835  37.648  40.716  14.455
31165W        W 2836  22.396  10.959  10.272
31166W        W 2837   6.818   9.436   2.329
31167W        W 2838   8.867  14.734   0.354
31168W        W 2839  29.040  14.049   2.410
31169W        W 2840  15.755  12.357  11.038
31170W        W 2841  28.598  35.252  13.774
31171W        W 2842  44.900  41.573  12.275
31172W        W 2843  41.982  17.733   4.062
31173W        W 2844  18.994  35.028   2.535
31174W        W 2845  10.580   3.301  12.145
31175W        W 2846   8.256  35.676   4.617
31176W        W 2847  11.170  33.582   4.097
31177W        W 2848  22.719   9.697  12.380
31178W        W 2849  13.341  44.973   0.802
31179W        W 2850  37.413  16.757   1.984
31180W        W 2851   8.768  27.956  10.388
31181W        W 2852  38.324   8.853  13.290
31182W        W 2853  14.483  27.148   2.116
31183W        W 2854  16.721  14.687   0.334
31184W        W 2855  28.151  44.334   2.095
31185W        W 2856  38.446   4.922   3.193
31186W        W 2857  23.001  10.374   0.660
31187W        W 2858  27.419  14.276  14.594
31188W        W 2859  23.084  42.052   3.864
31189W        W 2860  16.389   7.188  11.012
31190W        W 2861  28.163   5.040  11.678
31191W        W 2862  42.461   2.211   1.909
31192W        W 2863   4.286  22.111  13.331
31193W        W 2864  33.527  10.209   4.552
31194W        W 2865  19.749  21.203  12.857
31195W        W 2866  41.031  14.826   3.735
31196W        W 2867  37.880  20.046   3.218
31197W        W 2868  11.863  39.290   3.795
31198W        W 2869  28.885   0.931   3.190
31199W        W 2870  32.250   7.879   1.215
31200W        W 2871  31.889  44.345   1.533
31201W        W 2872  26.998  41.864  11.887
31202W        W 2873   6.859  29.856  11.562
31203W        W 2874  32.903  29.422   3.676
31204W        W 2875   6.429  40.257  11.178
31205W        W 2876   9.370  40.991  14.815
31206W        W 2877  15.726  26.229  10.950
31207W        W 2878  30.112  17.024  13.571
31208W        W 2879  43.233   5.309  14.429
31209W        W 2880  40.205  24.077  14.002
31210W        W 2881  14.796   5.716  12.472
31211W        W 2882  33.673  17.240  12.418
31212W        W 2883  27.265  38.606   2.895
31213W        W 2884  35.866  28.774   1.662
31214W        W 2885   0.989  23.868  13.965
31215W        W 2886  20.207  32.834   3.156
31216W        W 2887  17.678  38.469   3.764
31217W        W 2888  31.980  29.184   4.980
31218W        W 2889  43.299  19.084   0.718
31219W        W 2890   6.856  19.804   3.690
31220W        W 2891  21.985  26.464   2.404
31221W        W 2892  30.897  16.740   1.890
31222W        W 2893   4.794  32.047   5.008
31223W        W 2894  12.773   3.226   3.228
31224W        W 2895   1.216  14.438  10.706
31225W        W 2896  25.060   4.466  12.030
31226W        W 2897   6.367  26.593   3.131
31227W        W 2898  14.997  34.699  14.914
31228W        W 2899  17.776  33.883  12.625
31229W        W 2900  38.916  44.320   4.720
31230W        W 2901  34.706   3.828   0.308
31231W        W 2902  17.772  34.603  13.805
31232W        W 2903  36.446  35.147   0.827
31233W        W 2904   8.763  25.910   0.524
31234W        W 2905  23.279  20.338  13.516
31235W        W 2906  10.372  12.337   2.816
31236W        W 2907  37.934  13.624   3.888
31237W        W 2908   4.380  21.980   1.591
31238W        W 2909   9.760  21.713  12.077
31239W        W 2910  33.279  31.124  14.974
31240W        W 2911  11.350  28.228   2.597
31241W        W 2912   2.948   8.726  11.106
31242W        W 2913  18.041  40.140  13.554
31243W        W 2914  36.560  14.899   1.113
31244W        W 2915  14.269  29.701   2.113
31245W        W 2916  15.099   1.381  11.911
31246W        W 2917   5.117  41.443  14.570
31247W        W 2918   7.911   6.046  12.139
31248W        W 2919  26.468  29.743   2.155
31249W        W 2920  40.534   8.689  12.375
31250W        W 2921   0.339  44.406   0.986
31251W        W 2922  30.247  10.004   4.102
31252W        W 2923  34.446  11.045   2.641
31253W        W 2924  24.708  13.582  11.259
31254W        W 2925   6.829  28.454  13.758
31255W        W 2926   1.333   5.425  14.716
31256W        W 2927  27.422  42.792  12.024
31257W        W 2928  24.678  34.608  13.471
31258W        W 2929  15.089  24.027  13.886
31259W        W 2930   4.728  35.080   3.175
31260W        W 2931   7.464  12.772  10.860
31261W        W 2932  28.136  18.842   2.426
31262W        W 2933  37.855  19.740   2.765
31263W        W 2934  23.748  14.306  13.525
31264W        W 2935  12.507  31.726  13.414
31265W        W 2936  11.248  20.957   4.104
31266W        W 2937  19.758  44.257   1.356
31267W        W 2938   6.246  29.441   1.778
31268W        W 2939  33.424   3.269   3.076
31269W        W 2940   7.204  21.964  12.256
31270W        W 2941  34.206  33.572   0.786
31271W        W 2942  40.609  25.598   4.168
31272W        W 2943  13.493  42.797  13.994
31273W        W 2944   5.361  16.104   4.178
31274W        W 2945  30.717  26.444   3.789
31275W        W 2946  12.382   8.349   4.796
31276W        W 2947  31.267   1.927  12.841
31277W        W 2948   9.319  24.872  12.057
31278W        W 2949  39.249   6.047   3.396
31279W        W 2950  36.401  33.338  11.846
31280W        W 2951  38.894   5.911  10.741
31281W        W 2952   1.445  14.310   2.689
31282W        W 2953  18.310  32.491  14.343
31283W        W 2954   6.793  30.406  13.599
31284W        W 2955  25.618  41.655  12.540
31285W        W 2956  24.262  20.832  13.956
31286W        W 2957  31.077  35.382   2.673
31287W        W 2958  36.964   9.325  14.477
31288W        W 2959  18.148  23.439  11.610
31289W        W 2960  24.821  17.681   3.255
31290W        W 2961  19.016   2.698   2.943
31291W        W 2962  41.922  42.301  11.571
31292W        W 2963  16.251  16.629  13.549
31293W        W 2964  18.727  44.780   0.817
31294W        W 2965  31.388   3.420  12.426
31295W        W 2966  10.484  33.055  11.805
31296W        W 2967  15.482  44.355  11.558
31297W        W 2968   3.855  25.038  10.398
31298W        W 2969  44.761   7.477   2.285
31299W        W 2970  25.063  10.813  14.799
31300W        W 2971   2.720  25.134  13.522
31301W        W 2972  41.702  25.407  14.530
31302W        W 2973  35.686  40.858  11.358
31303W        W 2974  11.445  10.872  11.158
31304W        W 2975  28.102  10.094  14.841
31305W        W 2976   7.409  15.478  12.050
31306W        W 2977  20.641  11.862   4.351
31307W        W 2978  41.600  11.978   3.326
31308W        W 2979  43.952  18.174  14.865
31309W        W 2980   9.670  25.758   2.415
31310W        W 2981  16.598  34.181   3.185
31311W        W 2982  29.597  39.309   2.248
31312W        W 2983  30.241  32.485   0.023
31313W        W 2984  11.771  27.744   3.594
31314W        W 2985  19.603   3.653   0.449
31315W        W 2986   9.307  10.447   4.145
31316W        W 2987  21.233   9.212  14.786
31317W        W 2988  17.829   0.413   2.869
31318W        W 2989  25.141  40.332  11.924
31319W        W 2990  34.057   9.192  13.529
31320W        W 2991  15.837  18.696  13.069
31321W        W 2992  19.092   7.593   4.088
31322W        W 2993   2.225   4.170   4.079
31323W        W 2994   1.974   1.850  14.901
31324W        W 2995  30.060   5.245  14.928
31325W        W 2996  40.946   0.008   1.833
31326W        W 2997   4.508  11.492   4.565
31327W        W 2998  13.594  22.074  13.672
31328W        W 2999  42.515  43.218   3.010
31329W        W 3000  23.492  32.833  12.929
31330W        W 3001  10.069  42.965   2.641
31331W        W 3002  30.010  29.972   0.021
31332W        W 3003  16.813  31.940  10.968
31333W        W 3004   9.675   4.443  11.219
31334W        W 3005  37.011  27.239   1.298
31335W        W 3006  32.541   3.460  11.318
31336W        W 3007  24.270  13.331  11.448
31337W        W 3008  28.255  39.501  11.709
31338W        W 3009  14.057  26.952  12.923
31339W        W 3010  38.285  24.965   4.083
31340W        W 3011  21.832  15.221  12.674
31341W        W 3012  16.409   1.624  10.544
31342W        W 3013  22.015  12.321  14.360
31343W        W 3014  35.595  10.288  14.692
31344W        W 3015  23.074  17.806   2.730
31345W        W 3016  10.714  31.007   2.784
31346W        W 3017  40.506  31.010   3.318
31347W        W 3018  20.888   5.386  14.061
31348W        W 3019  24.100   7.227   3.614
31349W        W 3020  23.625  33.137  12.073
31350W        W 3021  37.091  34.863   3.760
31351W        W 3022  38.756  21.503  12.479
31352W        W 3023  37.554  12.281  14.204
31353W        W 3024  34.158  26.684   0.829
31354W        W 3025  11.316  10.626  13.806
31355W        W 3026  20.802   6.374   2.910
31356W        W 3027  34.258  22.654  10.641
31357W        W 3028  10.664  39.374   1.339
31358W        W 3029  21.990  31.999   2.387
31359W        W 3030   9.380  22.049   3.596
31360W        W 3031  29.787  21.217   1.231
31361W        W 3032  32.546  38.566   2.420
31362W        W 3033  30.672   9.772   2.359
31363W        W 3034  11.345  25.727  13.952
31364W        W 3035  13.418   2.359  14.801
31365W        W 3036  25.504  23.661  12.166
31366W        W 3037  38.405  11.209   3.643
31367W        W 3038  31.720  14.112  14.187
31368W        W 3039  34.973  36.486  14.800
31369W        W 3040  44.387  21.271  11.959
31370W        W 3041  19.672  44.043  14.728
31371W        W 3042  40.935  13.183  13.520
31372W        W 3043  24.505  13.138  11.021
31373W        W 3044  10.178  22.009  13.440
31374W        W 3045  32.304  13.173   4.555
31375W        W 3046  16.868  28.927   1.687
31376W        W 3047  10.107   8.683  10.001
31377W        W 3048  30.794  35.850  13.455
31378W        W 3049  33.163   5.268   2.342
31379W        W 3050  10.400   1.348  10.892
31380W        W 3051   5.977  32.074  13.414
31381W        W 3052  35.467   6.122  14.626
31382W        W 3053   7.850  35.810   0.228
31383W        W 3054  20.029  29.823  11.114
31384W        W 3055  31.932  10.897   2.929
31385W        W 3056  14.745   0.636   1.397
31386W        W 3057  17.726  35.340  13.051
31387W        W 3058  13.258   8.238   0.119
31388W        W 3059  24.879   1.675  10.552
31389W        W 3060  32.788   1.180  14.321
31390W        W 3061  30.171   5.923   2.760
31391W        W 3062   8.382   6.824   2.795
31392W        W 3063  43.225  16.187  13.843
31393W        W 3064   9.124  26.131   4.570
31394W        W 3065   0.463  27.948   2.160
31395W        W 3066  20.618   4.957  11.043
31396W        W 3067  26.052  44.875   1.730
31397W        W 3068  43.684  26.076   3.598
31398W        W 3069   4.897  17.601  14.050
31399W        W 3070   9.557  26.123   1.011
31400W        W 3071  43.772  13.326   2.643
31401W        W 3072  33.753  25.434   1.789
31402W        W 3073  35.903  27.154  12.828
31403W        W 3074  41.871  22.202   3.234
31404W        W 3075  30.841   6.703  12.404
31405W        W 3076  25.347  16.195  13.178
31406W        W 3077  44.803   7.593  14.425
31407W        W 3078  40.192  18.529   5.239
31408W        W 3079  26.442  25.537  11.983
31409W        W 3080   6.958  25.431  14.457
31410W        W 3081  32.534  23.112  14.692
31411W        W 3082  43.326  11.620   2.740
31412W        W 3083  10.788   7.294  12.151
31413W        W 3084  31.006   5.692  14.962
31414W        W 3085  18.780  27.465  14.503
31415W        W 3086   6.161   9.837  12.627
31416W        W 3087  16.100  41.788  12.538
31417W        W 3088   6.735  21.980  11.393
31418W        W 3089  17.171   9.921  12.329
31419W        W 3090  42.204   6.759  13.471
31420W        W 3091   9.144  30.140  10.814
31421W        W 3092  23.683  25.108  11.503
31422W        W 3093  10.193  24.084  13.989
31423W        W 3094  13.597  40.441   4.339
31424W        W 3095  34.513  32.066   4.622
31425W        W 3096  28.502  14.325  13.995
31426W        W 3097  34.819   0.709   3.710
31427W        W 3098  42.792   4.200  10.648
31428W        W 3099  39.342   3.656   0.069
31429W        W 3100   4.496  14.293   4.189
31430W        W 3101  39.430  14.297   1.872
31431W        W 3102  14.186  18.870   2.689
31432W        W 3103  39.498  33.156  10.346
31433W        W 3104   8.315  32.629   1.776
31434W        W 3105  37.055   5.258  13.537
31435W        W 3106   7.836   8.325  10.790
31436W        W 3107  10.275  24.200  13.481
31437W        W 3108  31.981  23.231  12.982
31438W        W 3109  26.061  16.114   2.379
31439W        W 3110  12.889  44.316  12.911
31440W        W 3111  38.810  23.658  13.034
31441W        W 3112  22.197   2.260   2.620
31442W        W 3113  29.793  28.136  10.464
31443W        W 3114  33.437  44.367  12.982
31444W        W 3115  16.094  17.483  11.149
31445W        W 3116  21.166  19.356   3.144
31446W        W 3117  40.050  18.144  10.586
31447W        W 3118   5.168  23.232  12.286
31448W        W 3119   1.815  26.458   1.695
31449W        W 3120  12.362  19.219  12.079
31450W        W 3121  38.080  18.542   3.133
31451W        W 3122   4.924  12.082   2.828
31452W        W 3123  35.969  14.553   1.897
31453W        W 3124  21.040  13.846   1.369
31454W        W 3125  41.769   6.563  11.528
31455W        W 3126  41.916   8.067   3.067
31456W        W 3127  15.775   8.751   0.219
31457W        W 3128  37.356  22.851  12.577
31458W        W 3129  42.370  30.782  11.956
31459W        W 3130  42.214   6.354  11.691
31460W        W 3131  15.178  20.399   0.159
31461W        W 3132  41.566  14.656  12.653
31462W        W 3133  23.950   0.462  14.399
31463W        W 3134  38.285  14.775   4.162
31464W        W 3135   6.339  28.926  14.422
31465W        W 3136  24.935  10.343  11.171
31466W        W 3137  43.357  41.080  11.905
31467W        W 3138  39.251   3.001  10.686
31468W        W 3139  40.239  41.523  12.460
31469W        W 3140  44.825  20.590  11.883
31470W        W 3141   0.443  31.401   2.651
31471W        W 3142  32.610  41.807  11.467
31472W        W 3143  25.595  32.374  10.694
31473W        W 3144   8.118  20.522  11.863
31474W        W 3145   6.429  42.593   5.017
31475W        W 3146  25.872   0.853  11.116
31476W        W 3147  33.082  42.063  10.601
31477W        W 3148  36.120   3.472  14.353
31478W        W 3149  40.786  42.376  12.582
31479W        W 3150   1.809  24.717  13.535
31480W        W 3151  19.948   2.194  11.459
31481W        W 3152  31.554  27.177   4.356
31482W        W 3153  38.917  34.605   4.016
31483W        W 3154  32.493  18.710   2.669
31484W        W 3155  11.688   4.191   1.739
31485W        W 3156  19.352  30.450   2.335
31486W        W 3157  24.641  37.434  12.136
31487W        W 3158  34.593   3.472  14.296
31488W        W 3159  13.018  38.209  13.851
31489W        W 3160  42.296  21.271   1.310
31490W        W 3161   0.997   7.603  10.597
31491W        W 3162  23.078  25.929   2.967
31492W        W 3163  33.193  42.414  13.930
31493W        W 3164   4.718  32.595  14.527
31494W        W 3165  44.435  38.478  13.975
31495W        W 3166  22.577  19.368  12.415
31496W        W 3167  41.759   1.894   1.485
31497W        W 3168  22.653  19.499   2.671
31498W        W 3169  34.853  15.956  11.179
31499W        W 3170  10.351  17.149  13.532
31500W        W 3171  42.857  43.310  10.629
31501W        W 3172  15.782  39.861   0.910
31502W        W 3173   1.425  33.439  14.857
31503W        W 3174   0.810   3.973   4.344
31504W        W 3175   9.604  33.531   1.205
31505W        W 3176  20.761  13.615  14.361
31506W        W 3177  36.132  34.898   0.155
31507W        W 3178  19.540  43.240   2.771
31508W        W 3179  32.113   8.563  11.712
31509W        W 3180  25.486   4.493   3.967
31510W        W 3181   4.368  29.093  14.524
31511W        W 3182  14.776  40.314   1.460
31512W        W 3183  20.999   2.331   2.143
31513W        W 3184  20.509  25.974   2.290
31514W        W 3185  40.240  37.389  13.783
31515W        W 3186  15.898  31.153   0.148
31516W        W 3187  15.015  16.775   3.264
31517W        W 3188  34.254   0.181   0.272
31518W        W 3189   9.799  27.523   2.198
31519W        W 3190  14.312  43.488  10.606
31520W        W 3191  16.113   9.796  13.635
31521W        W 3192  39.207  15.537  14.442
31522W        W 3193  39.292  16.866  13.409
31523W        W 3194  19.215  40.069   3.202
31524W        W 3195  15.303   8.227   3.174
31525W        W 3196  27.681  41.936   2.929
31526W        W 3197  43.901  11.017   4.434
31527W        W 3198  12.258  30.732  13.679
31528W        W 3199   6.312   3.656   4.131
31529W        W 3200  29.221  24.713  11.530
31530W        W 3201  34.025  17.603  14.803
31531W        W 3202  43.448  43.015   2.656
31532W        W 3203  22.937  38.809   3.131
31533W        W 3204  27.678   8.779  11.433
31534W        W 3205  12.666   6.683   4.230
31535W        W 3206   4.869  42.234   3.447
31536W        W 3207  37.576  39.556   1.676
31537W        W 3208   6.157  24.102  13.112
31538W        W 3209  11.975  21.671  13.125
31539W        W 3210  17.628  29.391   3.647
31540W        W 3211  18.178  32.881   1.312
31541W        W 3212  36.862   5.887   3.594
31542W        W 3213  15.546  35.669   0.213
31543W        W 3214   2.920  20.622   1.697
31544W        W 3215  40.910  16.748  14.456
31545W        W 3216  23.948  28.416   0.096
31546W        W 3217  35.853   8.395  13.973
31547W        W 3218  39.926  24.540  13.276
31548W        W 3219   9.909   7.140  10.746
31549W        W 3220  24.760  35.589  13.387
31550W        W 3221  28.691  13.286   0.816
31551W        W 3222  19.671  20.733  13.405
31552W        W 3223   6.315  25.048   1.380
31553W        W 3224   1.695  30.862   2.911
31554W        W 3225  43.423  19.065  12.460
31555W        W 3226  42.396  11.020   4.561
31556W        W 3227   7.814  18.692   4.672
31557W        W 3228  11.120  19.648   2.215
31558W        W 3229  32.803  27.744   1.301
31559W        W 3230  13.224  28.641   3.355
31560W        W 3231   9.805  24.530  12.384
31561W        W 3232  16.987  21.277   3.199
31562W        W 3233  37.399  30.227  11.547
31563W        W 3234  32.123  36.526  11.952
31564W        W 3235   3.711   2.838   2.795
31565W        W 3236   3.772  33.603   1.679
31566W        W 3237   2.429  11.488  11.965
31567W        W 3238  39.969  25.031   3.113
31568W        W 3239  23.113  42.733   4.523
31569W        W 3240  38.898  15.833  10.604
31570W        W 3241  15.830  20.778  12.450
31571W        W 3242  32.001   2.260   4.662
31572W        W 3243   4.845  28.209  13.864
31573W        W 3244  32.333  18.963  14.523
31574W        W 3245  16.772   3.577   3.246
31575W        W 3246   2.400  34.728  13.571
31576W        W 3247   2.215  22.261   3.190
31577W        W 3248  10.610  12.112   0.953
31578W        W 3249  35.023   9.594  14.382
31579W        W 3250  34.076  26.544   3.660
31580W        W 3251  25.808   3.807  14.479
31581W        W 3252  29.155  12.788  13.323
31582W        W 3253  19.778  25.524   3.244
31583W        W 3254  12.969  40.240  12.075
31584W        W 3255  17.078  13.765   9.515
31585W        W 3256   8.477   0.479  11.588
31586W        W 3257   7.837  26.277   2.798
31587W        W 3258  15.740  37.593   4.650
31588W        W 3259  28.622  41.426   0.705
31589W        W 3260  17.148   8.854  12.935
31590W        W 3261  31.457  23.856   1.488
31591W        W 3262  35.615  32.736   2.277
31592W        W 3263  12.325  19.319  14.325
31593W        W 3264   6.435  12.620  11.593
31594W        W 3265  30.015  29.056  10.903
31595W        W 3266  30.119  20.559   1.914
31596W        W 3267  22.486   3.877  13.351
31597W        W 3268  44.451  25.427   2.269
31598W        W 3269  15.630  37.937  10.086
31599W        W 3270   9.474  31.816   3.596
31600W        W 3271  41.980  10.635   0.253
31601W        W 3272  15.492  20.704   2.700
31602W        W 3273  14.306  37.082   0.444
31603W        W 3274  20.964  43.404  12.405
31604W        W 3275   9.238  10.953   3.408
31605W        W 3276  34.324  13.577  14.424
31606W        W 3277  27.909  31.081  12.882
31607W        W 3278  42.937  33.371   2.403
31608W        W 3279  39.962   7.596   2.583
31609W        W 3280  17.549  26.932  11.544
31610W        W 3281  38.864  21.322   0.853
31611W        W 3282  42.038  31.201  10.709
31612W        W 3283  33.569  25.663  12.984
31613W        W 3284  28.838  23.869  14.707
31614W        W 3285   7.564  27.961  11.181
31615W        W 3286   9.136  40.010   0.538
31616W        W 3287  29.897  40.340   4.128
31617W        W 3288  16.787  41.398  13.545
31618W        W 3289   8.606   6.205  12.587
31619W        W 3290  15.575   3.288  12.792
31620W        W 3291  32.366   7.391  13.144
31621W        W 3292  42.743  14.694  13.328
31622W        W 3293   9.882  33.366   0.758
31623W        W 3294   0.734   7.368  11.570
31624W        W 3295  41.408  20.539   2.387
31625W        W 3296   1.830  41.053   0.929
31626W        W 3297   7.598  23.918  12.056
31627W        W 3298  40.857   0.776   3.362
31628W        W 3299  21.234  42.947   2.325
31629W        W 3300   3.800   6.640   1.258
31630W        W 3301   3.160  36.368  13.607
31631W        W 3302  38.487  31.954  13.068
31632W        W 3303  39.596  37.840  11.153
31633W        W 3304  21.122  19.968  12.038
31634W        W 3305  41.728   0.939   0.876
31635W        W 3306  41.821  20.675   0.420
31636W        W 3307  40.876  41.103  11.806
31637W        W 3308  21.231  12.769  12.935
31638W        W 3309  42.531  40.045   0.047
31639W        W 3310  23.683  39.281  11.072
31640W        W 3311  18.045  29.577   1.372
31641W        W 3312  15.579   6.421   1.873
31642W        W 3313   7.435  32.102  13.359
31643W        W 3314  22.461  38.416   0.066
31644W        W 3315  40.522  26.628  14.251
31645W        W 3316   5.788   3.591   1.704
31646W        W 3317  41.586   0.112   0.032
31647W        W 3318  42.493  13.288   2.040
31648W        W 3319  13.640   7.136  14.060
31649W        W 3320  32.007  37.017  11.570
31650W        W 3321   1.807  41.471   1.221
31651W        W 3322  40.170  39.938  13.986
31652W        W 3323   1.383  26.706  13.160
31653W        W 3324  35.833  35.365  13.469
31654W        W 3325  39.272  12.241   2.370
31655W        W 3326   7.950  20.010  12.409
31656W        W 3327   6.046  14.316   0.400
31657W        W 3328   5.851  23.512   3.094
31658W        W 3329  21.215  40.344  13.359
31659W        W 3330  20.945   1.436  13.380
31660W        W 3331  11.400  44.088  12.009
31661W        W 3332  15.336  13.122  13.563
31662W        W 3333  13.099  16.738   0.421
31663W        W 3334  10.074   0.605  13.006
31664W        W 3335  35.944  39.109   5.468
31665W        W 3336  18.686  38.872  14.354
31666W        W 3337  20.519  26.118   9.821
31667W        W 3338  14.161  28.630  12.523
31668W        W 3339  37.526  40.765  12.932
31669W        W 3340  30.408  20.520  11.980
31670W        W 3341  12.826  37.069   0.335
31671W        W 3342  26.238  26.361   0.747
31672W        W 3343  29.807  33.693   1.268
31673W        W 3344  16.095   4.498   4.617
31674W        W 3345  24.152  26.573   1.193
31675W        W 3346  17.041  38.542   2.004
31676W        W 3347   0.939   8.427   2.285
31677W        W 3348  22.664  12.604  11.558
31678W        W 3349  40.666  19.278   5.051
31679W        W 3350  16.673  18.059   2.197
31680W        W 3351  24.168  22.710  12.560
31681W        W 3352  34.848  35.987   2.832
31682W        W 3353  11.137  39.455   4.218
31683W        W 3354   6.211  11.819  13.248
31684W        W 3355  31.896   7.921   2.958
31685W        W 3356  17.749  36.086   2.681
31686W        W 3357  10.958  24.189   4.163
31687W        W 3358  38.172  31.375   1.007
31688W        W 3359  15.060  15.167  11.413
31689W        W 3360  22.159  41.652   3.132
31690W        W 3361  39.871   9.607   0.625
31691W        W 3362  24.108  42.243  12.030
31692W        W 3363  22.664  29.234   0.337
31693W        W 3364  15.790  25.749  13.374
31694W        W 3365  30.666   8.845   2.219
31695W        W 3366  27.587  11.005   0.104
31696W        W 3367   4.844  26.209   1.751
31697W        W 3368  36.011  27.407   1.330
31698W        W 3369  21.178  40.881  12.493
31699W        W 3370  17.080  17.269   0.356
31700W        W 3371  37.656  21.545  13.637
31701W        W 3372   5.474  31.407  13.766
31702W        W 3373  29.024  23.538  13.900
31703W        W 3374   3.555  27.727   3.803
31704W        W 3375  19.497  14.667   0.419
31705W        W 3376  35.412   1.853  11.944
31706W        W 3377  27.201  17.689  11.939
31707W        W 3378   4.228  39.340   3.679
31708W        W 3379   9.287  34.648   3.675
31709W        W 3380  35.552  27.235  10.855
31710W        W 3381   0.171   0.823   1.799
31711W        W 3382  17.758   9.315  13.632
31712W        W 3383   1.254  42.107   2.618
31713W        W 3384  15.063  29.858  14.942
31714W        W 3385  10.653  18.503  14.231
31715W        W 3386  18.152  10.152   1.949
31716W        W 3387  18.734   4.244  10.614
31717W        W 3388  20.549   8.626   2.754
31718W        W 3389  37.335  32.797  13.988
31719W        W 3390  13.230  44.739  14.796
31720W        W 3391   8.273   3.290  14.979
31721W        W 3392  19.284   9.096   3.716
31722W        W 3393   0.460  15.090  14.763
31723W        W 3394  37.900  40.495  11.366
31724W        W 3395  37.101  28.277  13.503
31725W        W 3396  24.763  17.009  13.523
31726W        W 3397  11.401  23.776   3.330
31727W        W 3398   9.190  18.973   2.232
31728W        W 3399  26.427  15.790   1.279
31729W        W 3400  33.560  37.540  11.489
31730W        W 3401  44.268  15.514   2.477
31731W        W 3402  12.307  33.883   0.539
31732W        W 3403  14.115  25.435  14.152
31733W        W 3404  36.933   6.411   2.300
31734W        W 3405  21.669   1.453   2.953
31735W        W 3406   2.845  24.197  13.242
31736W        W 3407  28.210  25.723  10.669
31737W        W 3408  29.028  36.016   3.659
31738W        W 3409   1.470  34.410   0.283
31739W        W 3410   2.319  32.376  14.747
31740W        W 3411  35.360  20.715   2.747
31741W        W 3412  42.281  33.563   3.714
31742W        W 3413   3.542  41.493  11.517
31743W        W 3414  14.787  33.587  10.302
31744W        W 3415  26.560  25.961  13.868
31745W        W 3416   0.989  26.920   0.265
31746W        W 3417  11.371  37.915   0.494
31747W        W 3418  28.628  22.806   3.846
31748W        W 3419  23.543  38.293   4.154
31749W        W 3420  15.294  39.897   2.294
31750W        W 3421   5.796  16.010   2.247
31751W        W 3422  34.648  38.251  11.607
31752W        W 3423  23.807  18.290   4.943
31753W        W 3424   1.815  28.223  13.642
31754W        W 3425   6.263   8.440  10.485
31755W        W 3426  36.910  32.526   3.273
31756W        W 3427  38.466  19.533  14.803
31757W        W 3428  34.572  24.758  14.384
31758W        W 3429  40.924  35.031   2.708
31759W        W 3430  30.206  17.520  11.082
31760W        W 3431  26.177  18.204   0.105
31761W        W 3432  14.088  29.854  12.120
31762W        W 3433  10.931   5.392   4.637
31763W        W 3434  44.328  39.829   3.651
31764W        W 3435  14.243  20.697  12.389
31765W        W 3436  21.299   7.303   0.286
31766W        W 3437  37.785   9.709  12.870
31767W        W 3438  24.441  28.084  11.520
31768W        W 3439  19.091  31.124   4.384
31769W        W 3440   6.129  21.055   2.854
31770W        W 3441  29.428  30.930  12.851
31771W        W 3442  39.499  10.720   3.251
31772W        W 3443  36.260  41.932  11.587
31773W        W 3444  24.076  36.107   1.428
31774W        W 3445  27.946  37.411   2.897
31775W        W 3446  29.877  25.177   1.394
31776W        W 3447   3.157  14.742  13.535
31777W        W 3448   9.667  27.099  10.484
31778W        W 3449  17.422   6.991  14.395
31779W        W 3450  41.709  11.781  14.781
31780W        W 3451  34.916  35.067  14.906
31781W        W 3452  34.615  21.214   4.584
31782W        W 3453   3.454   1.021   1.314
31783W        W 3454  38.814  15.330   3.905
31784W        W 3455  36.867   5.227  12.878
31785W        W 3456  25.689  32.847   3.659
31786W        W 3457  44.899  10.673  13.540
31787W        W 3458   8.212   9.843   2.282
31788W        W 3459  37.570  37.856   4.685
31789W        W 3460  30.881  34.723  11.065
31790W        W 3461  24.279  36.920   1.878
31791W        W 3462  15.164  43.303  10.915
31792W        W 3463  10.209  20.652  14.083
31793W        W 3464  29.536  10.628  13.977
31794W        W 3465   8.099  38.434   4.168
31795W        W 3466   9.646  42.178  12.962
31796W        W 3467  10.343   1.478  14.398
31797W        W 3468  41.461  23.964   1.384
31798W        W 3469   4.447   3.346  13.804
31799W        W 3470  26.238  15.864   2.791
31800W        W 3471  25.601  11.504   2.223
31801W        W 3472   7.930  30.215   1.287
31802W        W 3473   4.554  22.586  11.901
31803W        W 3474  42.288  38.504   1.964
31804W        W 3475  15.752  44.346   0.781
31805W        W 3476  32.919  35.116   1.553
31806W        W 3477  13.062  27.467   3.795
31807W        W 3478   0.562   1.109  14.101
31808W        W 3479  14.383  41.320  10.721
31809W        W 3480  37.526  25.195   3.218
31810W        W 3481  35.353  21.047   2.351
31811W        W 3482  12.207   1.727   3.693
31812W        W 3483  32.812  22.099   1.961
31813W        W 3484   5.881  12.108   3.804
31814W        W 3485  44.169  24.108   2.869
31815W        W 3486  26.069  17.026   0.362
31816W        W 3487  33.678   3.501   5.067
31817W        W 3488  29.466   5.788  14.947
31818W        W 3489  29.524  24.602   1.670
31819W        W 3490   4.968  21.996   4.863
31820W        W 3491  11.247  18.587   4.108
31821W        W 3492  15.257  28.958  13.249
31822W        W 3493  23.044  14.122  10.954
31823W        W 3494  36.401  21.100   0.907
31824W        W 3495   0.264  16.283   4.945
31825W        W 3496   4.989  42.287   2.945
31826W        W 3497  26.508  44.845  13.050
31827W        W 3498  26.183  37.259   0.341
31828W        W 3499  12.197  29.585   2.716
31829W        W 3500   1.897  38.816  13.070
31830W        W 3501  31.052   0.913   1.818
31831W        W 3502   6.585  18.036   1.906
31832W        W 3503  30.428   5.113   2.845
31833W        W 3504   9.795  39.487   0.074
31834W        W 3505  32.111  32.921  12.414
31835W        W 3506   4.772  28.705  11.114
31836W        W 3507  28.075  31.218   2.003
31837W        W 3508  24.980  39.079  11.590
31838W        W 3509  17.061  42.486   4.527
31839W        W 3510  30.687  16.772   3.376
31840W        W 3511   2.858  26.620   4.198
31841W        W 3512  33.513  16.256   4.211
31842W        W 3513  34.577  26.692   3.407
31843W        W 3514   7.485  22.774  13.248
31844W        W 3515   6.489  12.616   3.659
31845W        W 3516  13.628  36.071   4.546
31846W        W 3517   8.890  30.623  11.113
31847W        W 3518  30.620  13.568  11.995
31848W        W 3519  18.055  40.642  14.402
31849W        W 3520  43.841  38.609  11.810
31850W        W 3521   3.830  44.343  14.374
31851W        W 3522  15.255  19.778  12.705
31852W        W 3523   0.307  19.554  10.306
31853W        W 3524  39.437   5.273  12.380
31854W        W 3525  34.620  35.932  11.469
31855W        W 3526   1.777  17.353   2.826
31856W        W 3527  43.446  35.388  13.755
31857W        W 3528  43.244  38.073   2.690
31858W        W 3529  30.857  26.325  12.820
31859W        W 3530  31.359   3.492   0.737
31860W        W 3531  15.824  15.682   4.446
31861W        W 3532  11.980  25.184   4.312
31862W        W 3533  42.839  24.515   2.621
31863W        W 3534  13.017  36.614   3.303
31864W        W 3535  26.328  38.963   2.325
31865W        W 3536  28.331   4.368  12.914
31866W        W 3537  37.850  11.432   4.579
31867W        W 3538  33.860  24.144  11.067
31868W        W 3539  39.931  15.773   4.941
31869W        W 3540  32.098  40.963  14.992
31870W        W 3541  27.080  28.982   1.329
31871W        W 3542  38.023   0.057   2.673
31872W        W 3543  27.260   7.431  11.044
31873W        W 3544  14.524  23.644   4.260
31874W        W 3545  43.384   2.582   1.790
31875W        W 3546  43.544  39.189  13.924
31876W        W 3547   0.426  18.819   1.874
31877W        W 3548   8.270  33.826  13.431
31878W        W 3549  38.523  35.266   4.728
31879W        W 3550  15.585  11.935   3.258
31880W        W 3551  34.444  18.834   1.600
31881W        W 3552   3.838  23.679  11.052
31882W        W 3553  44.371  20.570  12.578
31883W        W 3554  25.048  37.969  13.512
31884W        W 3555   8.952  12.694  14.415
31885W        W 3556  29.100   2.175   3.784
31886W        W 3557  11.690  37.996   4.028
31887W        W 3558  22.671  35.429  12.709
31888W        W 3559  17.691  39.465   1.627
31889W        W 3560  22.512  22.520   0.788
31890W        W 3561  21.583  20.080  12.231
31891W        W 3562  23.670  33.534   3.198
31892W        W 3563  26.164  29.378   0.866
31893W        W 3564  17.114  11.341   3.093
31894W        W 3565  42.915   5.905  11.418
31895W        W 3566  28.858  19.065  11.172
31896W        W 3567   0.339  38.639  14.853
31897W        W 3568  30.462  14.617  12.003
31898W        W 3569  40.336  32.966  14.405
31899W        W 3570  26.185  43.017   3.781
31900W        W 3571  31.268  25.006   2.213
31901W        W 3572   4.372  25.765   2.184
31902W        W 3573  28.008  37.322  13.333
31903W        W 3574   0.368  26.010   3.454
31904W        W 3575  41.568  12.279  14.745
31905W        W 3576   8.567  14.341   1.572
31906W        W 3577  29.451  31.127   1.236
31907W        W 3578  32.925  32.495  13.778
31908W        W 3579  16.209  43.997   2.305
31909W        W 3580   9.324  13.368   3.668
31910W        W 3581  20.010  32.144   0.969
31911W        W 3582  10.930  25.269  12.872
31912W        W 3583  17.750  40.654  12.360
31913W        W 3584   1.818   0.561   4.161
31914W        W 3585   2.049   4.253  11.460
31915W        W 3586  43.352  39.064  14.415
31916W        W 3587  21.350  42.797   2.802
31917W        W 3588   6.143  26.602  14.375
31918W        W 3589  43.445  40.371  10.507
31919W        W 3590  26.813  42.776  11.108
31920W        W 3591  35.890  25.617   2.433
31921W        W 3592  31.210  44.699  14.549
31922W        W 3593  21.828  20.492  12.099
31923W        W 3594   6.161   5.582   4.141
31924W        W 3595  29.638  13.537   1.854
31925W        W 3596  42.180  35.812  11.082
31926W        W 3597  21.295  18.259  11.080
31927W        W 3598  10.325  10.619   2.755
31928W        W 3599  44.341   3.629   4.162
31929W        W 3600  14.316  22.299  14.362
31930W        W 3601  13.661  13.354   1.448
31931W        W 3602  44.483   8.832   2.195
31932W        W 3603  10.124  13.797   4.185
31933W        W 3604  18.757  37.014   2.003
31934W        W 3605  12.292  33.329   2.757
31935W        W 3606  38.806  11.827   4.632
31936W        W 3607  42.796   3.477  12.351
31937W        W 3608   9.790  14.333   4.685
31938W        W 3609  28.581  34.419   4.296
31939W        W 3610   4.374  31.582   2.249
31940W        W 3611  18.190  30.958   3.880
31941W        W 3612   4.327   5.166  10.494
31942W        W 3613  27.710   7.165  11.931
31943W        W 3614   3.765  18.099  14.017
31944W        W 3615   7.936  20.566   3.287
31945W        W 3616  38.820  37.121  13.320
31946W        W 3617  13.539  10.874   0.820
31947W        W 3618  40.197  24.701   4.212
31948W        W 3619  44.728   3.173   4.571
31949W        W 3620  43.154  15.155   2.254
31950W        W 3621  33.366  11.246  12.654
31951W        W 3622  44.567  21.517   4.573
31952W        W 3623  31.830  20.672   0.494
31953W        W 3624  22.689  43.330  14.448
31954W        W 3625  28.731  33.530  11.396
31955W        W 3626  28.601  33.937  14.319
31956W        W 3627  41.268  21.713   4.189
31957W        W 3628  22.079  12.245  11.964
31958W        W 3629  21.291  36.416   0.289
31959W        W 3630  20.043   7.936  14.805
31960W        W 3631  12.160  21.790   2.128
31961W        W 3632  44.010  13.285   1.280
31962W        W 3633  19.071  39.843  11.862
31963W        W 3634  43.388  36.195   1.354
31964W        W 3635  34.013  27.403   3.473
31965W        W 3636  21.445  10.797   2.863
31966W        W 3637  28.269   5.858  12.079
31967W        W 3638  33.404  27.702   0.506
31968W        W 3639   1.903  26.092  11.964
31969W        W 3640  40.016  43.737   2.843
31970W        W 3641  38.429  12.118   4.011
31971W        W 3642  10.114  22.263  12.957
31972W        W 3643  25.558   2.930   0.177
31973W        W 3644  21.226  31.949  10.771
31974W        W 3645   3.991  43.192   2.393
31975W        W 3646  27.572  24.766   1.382
31976W        W 3647  21.480   2.357  12.534
31977W        W 3648  11.043  29.059  14.713
31978W        W 3649   2.147   8.839   4.197
31979W        W 3650  37.519  35.888  12.419
31980W        W 3651  38.554   7.125   3.532
31981W        W 3652  10.928  22.417   0.795
31982W        W 3653  33.545  21.061  11.420
31983W        W 3654  33.325  10.374   2.304
31984W        W 3655  14.308  22.876  13.352
31985W        W 3656   0.545  44.552   5.016
31986W        W 3657   4.396  18.969   1.323
31987W        W 3658  13.167  20.801   2.846
31988W        W 3659  12.632  19.516  13.948
31989W        W 3660  23.436  15.117   0.898
31990W        W 3661  26.950   9.629   3.721
31991W        W 3662  23.653  27.458  11.141
31992W        W 3663  43.747  37.566  12.818
31993W        W 3664  10.465  24.065   4.106
31994W        W 3665  35.962  16.487  14.026
31995W        W 3666  24.127  33.404   2.855
31996W        W 3667  22.383  43.481   3.282
31997W        W 3668   4.392  13.770   2.100
31998W        W 3669   0.761  22.192   3.697
31999W        W 3670  29.910  14.728   2.841
32000W        W 3671  42.251  22.599   4.550
32001W        W 3672  41.850  40.980   0.728
32002W        W 3673  27.613   6.391   4.301
32003W        W 3674  40.371  42.966  14.548
32004W        W 3675  35.054  40.137   3.878
32005W        W 3676  29.581   7.387   2.237
32006W        W 3677  37.247  22.519   0.514
32007W        W 3678  43.255  39.806  11.150
32008W        W 3679   7.717  34.578   1.312
32009W        W 3680  38.480  10.627  10.621
32010W        W 3681  30.302  32.360   4.650
32011W        W 3682  36.458  24.932   4.855
32012W        W 3683  17.831   0.684  12.129
32013W        W 3684  40.261  44.871   2.840
32014W        W 3685  32.580  12.644  12.598
32015W        W 3686  17.573   6.741  12.545
32016W        W 3687  24.216   5.811   0.811
32017W        W 3688   5.544  19.557  12.505
32018W        W 3689  22.088  30.019   3.699
32019W        W 3690   9.927  11.744  13.054
32020W        W 3691  42.464  18.611   3.363
32021W        W 3692  38.766   9.277   4.046
32022W        W 3693  27.620  19.975  14.699
32023W        W 3694  11.599  43.403  14.312
32024W        W 3695   0.829  34.311   3.785
32025W        W 3696  35.899  25.886  14.341
32026W        W 3697  34.134  43.552  13.813
32027W        W 3698  16.160  25.889   1.709
32028W        W 3699  37.361  36.807   0.862
32029W        W 3700  22.337  10.240  14.939
32030W        W 3701  14.723  42.524  14.833
32031W        W 3702  26.038  19.786   0.905
32032W        W 3703  19.913   1.333  13.480
32033W        W 3704   8.318  12.034  13.915
32034W        W 3705  42.830  30.762  12.184
32035W        W 3706  18.122  24.692  11.403
32036W        W 3707  26.617  25.951  11.656
32037W        W 3708  25.592  17.355   2.193
32038W        W 3709  22.984  10.772   0.970
32039W        W 3710  27.132  23.427  11.568
32040W        W 3711  33.960   7.415  13.971
32041W        W 3712  29.432  33.314   2.686
32042W        W 3713  18.299  29.760  14.990
32043W        W 3714  41.177  19.131  13.523
32044W        W 3715  32.109   2.810   1.064
32045W        W 3716   3.892  18.627   1.299
32046W        W 3717   8.940  42.021   0.892
32047W        W 3718  27.133  29.029  14.789
32048W        W 3719  18.649  22.136   4.320
32049W        W 3720   9.153  30.040   3.645
32050W        W 3721   9.193  28.598   3.369
32051W        W 3722  34.877  17.080  13.583
32052W        W 3723  29.707  14.590   1.482
32053W        W 3724   3.302  40.040   2.414
32054W        W 3725   8.599  29.611  11.159
32055W        W 3726  11.208   9.873   4.645
32056W        W 3727  38.345  17.655  13.917
32057W        W 3728  30.990   1.018  13.870
32058W        W 3729  16.687  20.324   0.445
32059W        W 3730   0.686  13.783  12.751
32060W        W 3731  11.417  32.597  11.996
32061W        W 3732  25.094  31.443   0.741
32062W        W 3733  40.032   8.183   0.863
32063W        W 3734  25.102  31.588  10.761
32064W        W 3735  15.831  18.866   0.628
32065W        W 3736  25.040  12.409   4.268
32066W        W 3737  42.531  23.569   3.318
32067W        W 3738   7.779   1.925   2.198
32068W        W 3739  13.423  18.235  11.178
32069W        W 3740  25.981   0.097   4.194
32070W        W 3741  19.243  38.296   1.197
32071W        W 3742  40.006   7.198   0.842
32072W        W 3743  32.112  42.942  14.532
32073W        W 3744  36.734  30.355  11.684
32074W        W 3745   2.864   1.435   3.416
32075W        W 3746   5.942  21.595  12.154
32076W        W 3747  29.974   8.364  11.281
32077W        W 3748  15.764  41.067   4.485
32078W        W 3749  43.769  13.563   1.853
32079W        W 3750  30.993  44.229   2.854
32080W        W 3751  43.188  30.376  13.891
32081W        W 3752  25.450  15.206   2.660
32082W        W 3753  17.020  23.385   0.942
32083W        W 3754  14.962  44.879  12.120
32084W        W 3755  20.992  31.658  12.440
32085W        W 3756  25.989   0.417  14.481
32086W        W 3757  39.849  31.605   0.311
32087W        W 3758  24.093  38.626   2.169
32088W        W 3759  24.792  17.182  11.155
32089W        W 3760  19.480  16.214  10.698
32090W        W 3761   1.102  16.682  12.352
32091W        W 3762  35.049  20.076   3.460
32092W        W 3763   9.170  25.967   2.223
32093W        W 3764  21.062   8.178   4.642
32094W        W 3765  18.648  26.974  10.643
32095W        W 3766   0.943  20.476   3.385
32096W        W 3767  33.630  29.999   0.254
32097W        W 3768  14.766  37.311  10.759
32098W        W 3769  29.178  18.340  13.481
32099W        W 3770  23.526  28.603   2.478
32100W        W 3771  26.524  24.285  12.293
32101W        W 3772  23.457  33.083   0.338
32102W        W 3773  16.920  26.694  14.615
32103W        W 3774  22.704  23.185  13.354
32104W        W 3775  40.954  13.644   0.667
32105W        W 3776   0.679   1.630  14.330
32106W        W 3777  43.441  25.112   9.724
32107W        W 3778  34.195  41.921  13.062
32108W        W 3779  20.121  10.401   9.800
32109W        W 3780  44.400  26.534   2.595
32110W        W 3781  44.713  17.814   3.445
32111W        W 3782  38.510   9.416   0.829
32112W        W 3783  19.658  41.350   3.304
32113W        W 3784  19.282  16.755   3.541
32114W        W 3785  32.046   6.047   2.342
32115W        W 3786  16.484  35.564  12.943
32116W        W 3787  18.504   4.881   0.487
32117W        W 3788  14.784  22.593   1.318
32118W        W 3789  23.156  41.533   3.213
32119W        W 3790  40.808  18.633   1.202
32120W        W 3791   8.011  39.478   1.828
32121W        W 3792  37.549  15.483   1.211
32122W        W 3793   4.048  36.247  13.465
32123W        W 3794  17.146   4.272   3.747
32124W        W 3795  15.044  35.832   0.346
32125W        W 3796   3.792  30.830  12.898
32126W        W 3797   3.113  11.018  12.447
32127W        W 3798  15.156  14.666   4.422
32128W        W 3799  31.620   9.624   4.105
32129W        W 3800  42.225  28.526  11.544
32130W        W 3801  18.133   4.410  13.332
32131W        W 3802  12.314  19.164   4.534
32132W        W 3803  21.489  40.617   4.560
32133W        W 3804  28.732  34.757  13.954
32134W        W 3805   1.532  10.883   1.728
32135W        W 3806  32.517  18.070   4.823
32136W        W 3807  11.641   4.256  11.118
32137W        W 3808  13.178  40.853  13.593
32138W        W 3809  30.454  31.650  14.464
32139W        W 3810  20.540  26.894  14.871
32140W        W 3811  44.436  28.659   2.373
32141W        W 3812  18.259  20.539  14.561
32142W        W 3813  37.000  42.705  12.569
32143W        W 3814  16.805  38.451  11.189
32144W        W 3815  35.077  38.507  12.363
32145W        W 3816  17.182  17.682   2.894
32146W        W 3817  26.611  28.251   1.344
32147W        W 3818  31.980  35.888   0.580
32148W        W 3819  21.272  21.796   1.244
32149W        W 3820   6.228  13.274  13.026
32150W        W 3821  14.449  30.447   2.021
32151W        W 3822  44.270   7.727   3.832
32152W        W 3823  31.170  40.507   4.334
32153W        W 3824   7.846  42.511  13.084
32154W        W 3825  13.556   5.562   1.705
32155W        W 3826  44.783  34.451  12.515
32156W        W 3827   6.552   3.898   2.341
32157W        W 3828  42.046  28.860  14.329
32158W        W 3829  40.233   4.958  11.955
32159W        W 3830  29.002  23.086   1.222
32160W        W 3831   5.385  30.421   0.916
32161W        W 3832  12.801  14.513   2.245
32162W        W 3833  14.189  11.651  12.037
32163W        W 3834  31.568  17.975  11.673
32164W        W 3835  25.727  17.195   0.716
32165W        W 3836  18.313   9.183   0.503
32166W        W 3837   9.115   7.057  12.867
32167W        W 3838   9.935  44.953   4.712
32168W        W 3839  14.441  24.081  12.027
32169W        W 3840  26.087  27.188   0.403
32170W        W 3841  15.796   7.981   0.725
32171W        W 3842  31.830  32.692   3.764
32172W        W 3843   4.827   6.220   0.916
32173W        W 3844  28.604   3.193   0.900
32174W        W 3845  35.462  24.131   0.451
32175W        W 3846  27.125  26.977   1.368
32176W        W 3847  16.165  18.611   4.122
32177W        W 3848  18.712  25.007  11.953
32178W        W 3849  35.352  34.690  11.880
32179W        W 3850  38.206  19.724  12.609
32180W        W 3851  11.261  35.469   4.345
32181W        W 3852  26.432  44.574   2.768
32182W        W 3853  29.432   8.698  13.163
32183W        W 3854  34.932  29.074   1.202
32184W        W 3855  28.726  24.180   3.697
32185W        W 3856  35.089  21.728   4.160
32186W        W 3857  28.693  19.615   1.950
32187W        W 3858  32.068  16.327   3.350
32188W        W 3859  36.080   1.326  11.522
32189W        W 3860  21.071  14.627   2.447
32190W        W 3861  15.447  15.593   4.802
32191W        W 3862  20.514  42.288   3.154
32192W        W 3863  29.489   9.335   4.195
32193W        W 3864  38.761  28.419   0.447
32194W        W 3865  29.867  21.046   3.203
32195W        W 3866  28.029  43.437   4.489
32196W        W 3867  11.849  16.139   2.556
32197W        W 3868  44.746   1.828   2.298
32198W        W 3869  30.644  34.694  11.500
32199W        W 3870   3.355   1.491  13.842
32200W        W 3871  19.965  23.982   4.764
32201W        W 3872  16.955  22.496  14.324
32202W        W 3873  19.227  16.242   2.358
32203W        W 3874   5.306  20.752   1.663
32204W        W 3875  13.070  30.527  10.628
32205W        W 3876  36.412  31.030   4.823
32206W        W 3877  29.158   9.788   9.753
32207W        W 3878  35.386   9.604  14.000
32208W        W 3879  26.548  44.477  10.688
32209W        W 3880  12.399  10.391  13.978
32210W        W 3881  39.996  38.971  11.842
32211W        W 3882  23.681  41.799   0.972
32212W        W 3883   3.429  28.114  12.927
32213W        W 3884  21.485   0.709  14.977
32214W        W 3885  24.426  33.644  14.030
32215W        W 3886  30.854  40.706  13.249
32216W        W 3887   8.902   0.179   1.645
32217W        W 3888  36.046  32.284  10.316
32218W        W 3889  38.497   5.764  14.906
32219W        W 3890  36.555  13.273   1.205
32220W        W 3891  41.115  10.092  12.966
32221W        W 3892  15.535   7.041  13.274
32222W        W 3893  41.070  39.610  11.549
32223W        W 3894  34.445  15.122   4.659
32224W        W 3895   0.394   9.137   2.531
32225W        W 3896  39.443   9.309   3.336
32226W        W 3897   4.164  17.466   2.151
32227W        W 3898  38.795  35.617   0.969
32228W        W 3899   2.271  18.538  11.576
32229W        W 3900  29.172  23.452  11.202
32230W        W 3901  40.378  22.656  14.811
32231W        W 3902  44.487  10.590  14.317
32232W        W 3903  17.674   7.317   4.800
32233W        W 3904  12.502  11.204   2.448
32234W        W 3905  38.227  29.163  14.211
32235W        W 3906  29.391  15.777   1.834
32236W        W 3907   9.054  18.499  12.409
32237W        W 3908  12.879  34.516  13.764
32238W        W 3909  44.669  12.123  11.687
32239W        W 3910  28.448   7.215  13.346
32240W        W 3911  32.392  18.675   3.678
32241W        W 3912  34.789   9.748   2.851
32242W        W 3913  37.820  28.267  11.374
32243W        W 3914   1.160  17.175  11.488
32244W        W 3915  10.200  20.055  11.000
32245W        W 3916  29.465   4.592  12.254
32246W        W 3917  42.264   2.835  12.042
32247W        W 3918  41.226  26.530  14.983
32248W        W 3919  18.264  36.833  13.584
32249W        W 3920  34.840  37.608   2.562
32250W        W 3921  11.158  13.544   3.710
32251W        W 3922  19.979   6.478  11.597
32252W        W 3923  43.324   2.345   4.602
32253W        W 3924   0.950  33.530   4.709
32254W        W 3925  12.818  33.798   4.519
32255W        W 3926  11.389  42.017  12.479
32256W        W 3927  27.941  25.531   1.412
32257W        W 3928  25.092  35.635   1.931
32258W        W 3929  34.456  23.687  13.479
32259W        W 3930  24.408   4.585  13.633
32260W        W 3931  21.056  29.266  14.807
32261W        W 3932  24.032  36.897  12.426
32262W        W 3933  14.024  21.147   1.328
32263W        W 3934  32.802  34.125   1.748
32264W        W 3935  30.053  30.078   2.067
32265W        W 3936  30.595   6.859  14.346
32266W        W 3937  22.712   4.360   2.912
32267W        W 3938  33.851  25.594   3.264
32268W        W 3939  40.922  19.131  13.981
32269W        W 3940  17.534  25.773  10.118
32270W        W 3941  42.876  23.242  10.138
32271W        W 3942  37.839  10.719   0.850
32272W        W 3943  18.431  31.159   2.695
32273W        W 3944   2.421  33.628  11.531
32274W        W 3945  34.661  21.222  13.108
32275W        W 3946  11.488  12.599   4.524
32276W        W 3947  21.989  32.374   1.324
32277W        W 3948  38.787  15.125   1.833
32278W        W 3949  15.990  44.307  11.620
32279W        W 3950  17.302  14.762   0.614
32280W        W 3951   9.872  30.704  11.200
32281W        W 3952   5.076  39.288  12.814
32282W        W 3953  10.224  30.824   3.274
32283W        W 3954  20.002  13.707   3.143
32284W        W 3955  14.196  19.032  11.629
32285W        W 3956  30.519  35.323   4.448
32286W        W 3957  33.029  21.293   2.745
32287W        W 3958  26.306  22.761   2.633
32288W        W 3959  26.706   7.923   1.934
32289W        W 3960  25.882  20.775  11.127
32290W        W 3961  13.638  21.250  13.558
32291W        W 3962  21.282  41.064  13.813
32292W        W 3963  37.489   2.446  11.832
32293W        W 3964  22.655  40.581   9.922
32294W        W 3965  33.595  11.590   2.658
32295W        W 3966   1.715  18.644   0.297
32296W        W 3967  11.066  30.584   3.191
32297W        W 3968  21.709  22.055  14.705
32298W        W 3969   3.499   7.636   2.871
32299W        W 3970   0.331  42.549   1.164
32300W        W 3971  19.125  17.741  14.960
32301W        W 3972  18.067  40.650  13.524
32302W        W 3973  41.839  34.145   0.232
32303W        W 3974  10.675  11.630  14.333
32304W        W 3975   5.445  38.476  11.742
32305W        W 3976  29.652  12.186  14.137
32306W        W 3977  12.238  16.785  14.967
32307W        W 3978  42.478  14.201  14.044
32308W        W 3979  41.725  17.667  12.928
32309W        W 3980  43.039  15.092  14.464
32310W        W 3981  37.202  25.861   4.229
32311W        W 3982  41.963  22.702   2.219
32312W        W 3983  30.948  35.586   1.137
32313W        W 3984   7.905  29.262   4.219
32314W        W 3985   1.427   8.246   3.215
32315W        W 3986  10.170  33.820  13.080
32316W        W 3987   2.189  33.819   2.557
32317W        W 3988  10.773  38.999  12.274
32318W        W 3989   7.223  29.775  14.855
32319W        W 3990  25.030  40.096  11.488
32320W        W 3991  22.233  23.695   4.684
32321W        W 3992   2.340  37.849   1.830
32322W        W 3993  28.963   6.901   1.956
32323W        W 3994   9.125  34.130  13.824
32324W        W 3995  16.155  16.224   1.856
32325W        W 3996  12.344  20.899  14.337
32326W        W 3997  14.449  24.542   5.090
32327W        W 3998  15.054  17.516   2.581
32328W        W 3999  14.405   7.711  14.867
32329W        W 4000  19.696  36.526  14.913
32330W        W 4001  39.995  43.065   1.241
32331W        W 4002  43.448  14.788   0.243
32332W        W 4003  31.482   0.726  12.135
32333W        W 4004  25.145   5.681  13.481
32334W        W 4005  16.324  24.677   3.364
32335W        W 4006  17.264  25.414   0.820
32336W        W 4007  42.597   2.294   1.410
32337W        W 4008   3.278   1.262  14.907
32338W        W 4009  25.245  14.586  12.628
32339W        W 4010   5.294  24.161   3.112
32340W        W 4011   3.166  43.960  10.654
32341W        W 4012   7.635  10.359   1.333
32342W        W 4013  13.721  11.150   1.800
32343W        W 4014  12.105  11.362   2.777
32344W        W 4015   1.008  21.999  10.595
32345W        W 4016  20.019  35.414   2.192
32346W        W 4017  25.648  34.255   1.771
32347W        W 4018   7.436  33.022   1.906
32348W        W 4019  34.533  33.988  12.270
32349W        W 4020   3.442   4.821  12.971
32350W        W 4021   5.319  28.992  14.515
32351W        W 4022  25.543  13.262   3.915
32352W        W 4023  15.920  18.174   2.557
32353W        W 4024  24.240   3.960   0.675
32354W        W 4025  37.041  39.094  11.699
32355W        W 4026  43.234  24.634  11.120
32356W        W 4027  26.173  26.537   4.354
32357W        W 4028  14.533  19.835   1.314
32358W        W 4029  11.419  14.075  10.088
32359W        W 4030  44.559   4.303   3.765
32360W        W 4031   5.869  16.675  13.045
32361W        W 4032  26.019   4.269  14.317
32362W        W 4033   6.107  12.246  12.617
32363W        W 4034  23.501   1.868   4.133
32364W        W 4035   9.132  21.533   3.606
32365W        W 4036  33.649  16.770   4.796
32366W        W 4037  22.695  34.490   2.308
32367W        W 4038  11.222   4.548   2.865
32368W        W 4039  33.015  19.842  11.109
32369W        W 4040  40.385  41.254   2.263
32370W        W 4041  25.446  43.804  10.229
32371W        W 4042  42.559   6.643   2.146
32372W        W 4043  23.174  34.120   4.011
32373W        W 4044  26.904  31.293   2.844
32374W        W 4045   2.374  25.495  13.396
32375W        W 4046  23.708  26.952   2.296
32376W        W 4047   3.490  20.434  13.363
32377W        W 4048  42.316   3.807  11.572
32378W        W 4049   6.723  29.889  12.998
32379W        W 4050  15.255  24.783  10.766
32380W        W 4051  35.944   8.932  10.976
32381W        W 4052  12.253  32.797  12.475
32382W        W 4053   3.463  23.330  14.858
32383W        W 4054   9.380  37.143   3.699
32384W        W 4055  24.094  36.433   4.584
32385W        W 4056  35.801  42.916   4.857
32386W        W 4057  35.611  42.538  13.052
32387W        W 4058  25.224  42.865   4.741
32388W        W 4059  25.655  15.116   1.194
32389W        W 4060  22.747  19.960  12.969
32390W        W 4061  36.646  40.794  12.980
32391W        W 4062  40.348  31.708  13.130
32392W        W 4063   8.829  36.834   1.430
32393W        W 4064  19.240  18.288   4.343
32394W        W 4065  22.539  27.389   2.394
32395W        W 4066   4.667  42.931  11.946
32396W        W 4067  30.443  16.582  14.445
32397W        W 4068  22.943  25.010   2.357
32398W        W 4069  31.199  28.930   4.176
32399W        W 4070  21.232  23.903   5.481
32400W        W 4071  21.504  24.813   0.553
32401W        W 4072   9.665  40.932   4.417
32402W        W 4073   5.012  17.109  13.915
32403W        W 4074  41.348  41.060  11.580
32404W        W 4075  24.218  15.813  13.079
32405W        W 4076  39.460  23.444   3.358
32406W        W 4077  21.429   3.966  13.434
32407W        W 4078   4.315  17.933  14.645
32408W        W 4079  15.897  38.839   3.863
32409W        W 4080  41.083  25.116   1.215
32410W        W 4081  44.362  29.891  12.587
32411W        W 4082  18.751  33.381  14.031
32412W        W 4083  42.977  35.108  13.442
32413W        W 4084   9.780  29.930   4.688
32414W        W 4085  29.709  21.528  13.434
32415W        W 4086   5.787   4.904   0.366
32416W        W 4087  14.341  38.387  14.063
32417W        W 4088  15.097  18.106  11.635
32418W        W 4089  30.551  39.107   3.771
32419W        W 4090  37.928   7.954  11.988
32420W        W 4091  12.678  27.252  12.980
32421W        W 4092  25.430  21.738   3.343
32422W        W 4093  34.348   4.400   0.198
32423W        W 4094  11.212  32.879  10.702
32424W        W 4095  38.958   9.222  12.437
32425W        W 4096  13.315  16.426  14.700
32426W        W 4097  29.394  10.025   4.551
32427W        W 4098  31.450  12.106   0.788
32428W        W 4099  30.365  29.472   2.712
32429W        W 4100  34.787   1.452   2.666
32430W        W 4101  43.439   0.021   1.687
32431W        W 4102  22.290  22.125   1.537
32432W        W 4103  30.984   4.955  12.985
32433W        W 4104   5.282  10.623  12.518
32434W        W 4105  15.582  12.916  13.986
32435W        W 4106  27.936  21.117  10.759
32436W        W 4107  35.361  34.851  14.761
32437W        W 4108  34.020   2.310  10.610
32438W        W 4109  33.348  37.358  13.403
32439W        W 4110  34.677  38.505  11.154
32440W        W 4111  26.716  34.417   4.883
32441W        W 4112   0.217  41.310  13.565
32442W        W 4113  16.314  13.553   4.030
32443W        W 4114  40.895  28.748   1.391
32444W        W 4115   2.239  30.745  10.267
32445W        W 4116   2.258  27.835  11.583
32446W        W 4117  27.585  19.761   2.394
32447W        W 4118   5.614   4.417   2.670
32448W        W 4119  30.324  19.586   0.791
32449W        W 4120   7.014  22.060   1.878
32450W        W 4121  21.644  19.758  13.906
32451W        W 4122   8.353  33.385   2.393
32452W        W 4123  38.454   8.488  10.732
32453W        W 4124   5.744  21.829   0.386
32454W        W 4125   4.192  41.347   1.322
32455W        W 4126  19.335  41.889   2.618
32456W        W 4127  44.446  35.887   4.469
32457W        W 4128  37.108  27.642  12.500
32458W        W 4129  34.536  14.127  13.808
32459W        W 4130  15.803   4.046   9.589
32460W        W 4131  12.952  33.051   2.260
32461W        W 4132   5.843  38.497   4.591
32462W        W 4133  15.913  36.982  11.329
32463W        W 4134  33.049   0.268   2.488
32464W        W 4135  12.149  24.237  14.719
32465W        W 4136  13.917  41.469  12.173
32466W        W 4137  30.543  16.082   1.730
32467W        W 4138  29.824  42.018   3.824
32468W        W 4139  42.119  30.094   2.362
32469W        W 4140  20.183  27.546   4.813
32470W        W 4141  23.139  38.154   0.023
32471W        W 4142  32.798  22.506   1.649
32472W        W 4143  33.587   6.879  11.563
32473W        W 4144  12.245  25.537  11.763
32474W        W 4145  20.939   0.951  11.998
32475W        W 4146  19.690  21.119  13.771
32476W        W 4147   0.610  18.263   0.309
32477W        W 4148  15.998  43.398  11.168
32478W        W 4149  21.524  13.986   1.894
32479W        W 4150  26.421  13.887  12.379
32480W        W 4151  42.351   6.209   3.324
32481W        W 4152  24.484  11.380  12.525
32482W        W 4153  36.635  17.863   3.824
32483W        W 4154  33.049   5.444  11.493
32484W        W 4155  34.630   7.728   2.631
32485W        W 4156  42.085  39.025  10.214
32486W        W 4157  36.134  17.179   0.814
32487W        W 4158  21.660  43.368   4.544
32488W        W 4159   5.745  33.875  13.963
32489W        W 4160  32.475  15.583   3.072
32490W        W 4161  23.460  37.589  10.735
32491W        W 4162  31.529  29.924  12.432
32492W        W 4163   6.961   2.735  11.117
32493W        W 4164   8.932  14.175   3.640
32494W        W 4165  10.326  37.730   1.291
32495W        W 4166   6.494   5.846  10.572
32496W        W 4167  30.707  41.991  12.552
32497W        W 4168  31.450  39.571  14.555
32498W        W 4169   0.326  22.519   2.295
32499W        W 4170  39.018  37.578   4.088
32500W        W 4171  15.596  23.899   5.076
32501W        W 4172  29.660  29.717  13.901
32502W        W 4173  11.747   3.162  14.028
32503W        W 4174  41.674   8.352  13.530
32504W        W 4175   9.116  32.126  12.103
32505W        W 4176  29.197   5.014  12.963
32506W        W 4177  14.712  15.223  13.990
32507W        W 4178  31.167  38.057   2.791
32508W        W 4179  44.780  22.747  11.948
32509W        W 4180  14.229  11.220   1.687
32510W        W 4181  36.384  21.156   3.426
32511W        W 4182  15.676  29.212   0.428
32512W        W 4183   5.443  42.585  11.468
32513W        W 4184   2.220  21.613  14.937
32514W        W 4185  14.110   2.161   1.950
32515W        W 4186   0.836  38.167   0.207
32516W        W 4187  15.377  18.630   0.747
32517W        W 4188   7.401   8.248   0.734
32518W        W 4189  27.659  11.378  14.719
32519W        W 4190  25.044  16.143  13.596
32520W        W 4191  27.935  23.954  12.419
32521W        W 4192  33.440  35.572   3.183
32522W        W 4193  22.890  39.441  13.772
32523W        W 4194  32.179  11.655   0.810
32524W        W 4195  26.935  22.541  10.592
32525W        W 4196  37.456  37.340  11.595
32526W        W 4197   6.732  38.583  12.139
32527W        W 4198  34.604  29.166   4.799
32528W        W 4199   1.916  13.774   3.256
32529W        W 4200  10.354  36.729   1.406
32530W        W 4201  40.889  35.928  14.590
32531W        W 4202  20.527   1.634   4.335
32532W        W 4203  43.806  39.424  13.090
32533W        W 4204  21.694  38.462  11.042
32534W        W 4205  10.201  37.999   1.731
32535W        W 4206  18.847   0.274   2.942
32536W        W 4207   5.341  39.278  12.372
32537W        W 4208   4.636  30.205  13.033
32538W        W 4209  11.689  27.559  12.110
32539W        W 4210   0.694  43.396   2.270
32540W        W 4211  23.774  21.636  13.715
32541W        W 4212  23.282  25.394   2.240
32542W        W 4213  14.141  25.068  14.837
32543W        W 4214  42.075   2.977   2.150
32544W        W 4215  29.643  17.248  13.475
32545W        W 4216  33.164  33.537   0.772
32546W        W 4217  31.542  40.980  14.284
32547W        W 4218  27.441  13.632   2.853
32548W        W 4219  23.956   0.395   3.214
32549W        W 4220  38.875  10.262  14.956
32550W        W 4221  19.856  18.261   0.841
32551W        W 4222  24.244  25.419   2.252
32552W        W 4223  38.673  20.751  14.199
32553W        W 4224   6.397  22.542  12.415
32554W        W 4225  29.140   8.291  11.863
32555W        W 4226  37.346  33.459  12.848
32556W        W 4227  13.338  21.246   2.637
32557W        W 4228  40.094  40.404  12.157
32558W        W 4229  31.737   5.583  12.895
32559W        W 4230  30.798   4.759   4.277
32560W        W 4231  34.982  16.259   2.829
32561W        W 4232  30.906  22.136   2.810
32562W        W 4233  12.797  25.146  12.505
32563W        W 4234  27.733  44.089   3.721
32564W        W 4235  41.062  12.098  11.201
32565W        W 4236   6.703  26.742   0.901
32566W        W 4237  28.652  19.690  12.364
32567W        W 4238  27.549   9.718  11.445
32568W        W 4239  16.786  40.903   1.182
32569W        W 4240  11.698  12.162   4.740
32570W        W 4241   8.947  21.654   0.352
32571W        W 4242  36.299  39.964   1.425
32572W        W 4243   3.897  18.350   3.698
32573W        W 4244  42.844  41.849   1.330
32574W        W 4245   2.411  43.598  11.046
32575W        W 4246  39.349  28.204  14.286
32576W        W 4247   0.271  40.713  12.414
32577W        W 4248   3.983  44.174   1.357
32578W        W 4249  23.111  10.889   4.572
32579W        W 4250  35.480  11.545  13.339
32580W        W 4251  34.980  13.125   0.167
32581W        W 4252  41.050  24.985  12.511
32582W        W 4253  38.617  27.052  13.988
32583W        W 4254  19.268  42.262   3.562
32584W        W 4255  13.365   2.987   4.645
32585W        W 4256   8.961  38.873  14.888
32586W        W 4257  43.876   6.425   2.409
32587W        W 4258  18.493  31.986   1.250
32588W        W 4259  44.008  40.919  11.704
32589W        W 4260  39.076  23.546  11.373
32590W        W 4261  33.118  30.457   0.759
32591W        W 4262  21.155   8.106   0.509
32592W        W 4263  32.379  30.650   1.869
32593W        W 4264   4.425  34.959   0.758
32594W        W 4265  36.349   7.909  10.787
32595W        W 4266  33.526  23.477  11.224
32596W        W 4267  13.022  10.684  13.922
32597W        W 4268  25.020  21.711   2.610
32598W        W 4269  10.717   1.909   4.767
32599W        W 4270  44.028  44.759   0.824
32600W        W 4271  20.633  34.465  11.762
32601W        W 4272  21.469   4.374  14.002
32602W        W 4273   4.728  30.172  11.144
32603W        W 4274  12.932   9.847   1.768
32604W        W 4275  24.184   1.651  11.171
32605W        W 4276  25.948  40.748   3.616
32606W        W 4277   4.593   3.820  12.333
32607W        W 4278  42.731   0.505  10.753
32608W        W 4279  11.906  14.808   1.165
32609W        W 4280  38.344  37.009   2.198
32610W        W 4281  25.669  14.131  14.423
32611W        W 4282   5.690  38.769  14.463
32612W        W 4283  15.828  25.092   4.703
32613W        W 4284  31.130  21.752   4.439
32614W        W 4285  30.678   4.428  14.314
32615W        W 4286  23.785  25.497   4.149
32616W        W 4287  40.843  29.735   2.276
32617W        W 4288  40.493  20.965  10.665
32618W        W 4289   1.818  38.414  10.694
32619W        W 4290  28.080   2.470  13.950
32620W        W 4291  44.350  21.816  10.668
32621W        W 4292   8.758  26.157  14.144
32622W        W 4293  38.405  42.328  13.908
32623W        W 4294  44.805  21.087  11.738
32624W        W 4295   2.413  44.439  13.420
32625W        W 4296  20.903  36.521   3.649
32626W        W 4297  25.496  30.493  11.281
32627W        W 4298   9.173  15.460   1.139
32628W        W 4299  10.036  26.701   2.662
32629W        W 4300  33.435  20.056   1.929
32630W        W 4301   5.754  10.421   0.410
32631W        W 4302  23.601  42.254  12.132
32632W        W 4303  29.421  26.829   0.360
32633W        W 4304  18.300   8.862  14.367
32634W        W 4305  15.927   0.858  11.728
32635W        W 4306   8.880  41.559  13.325
32636W        W 4307  26.461   5.242   4.140
32637W        W 4308   8.099  34.999  13.700
32638W        W 4309  18.747  12.158   3.687
32639W        W 4310  34.138   9.882  12.354
32640W        W 4311  36.928  16.038   0.386
32641W        W 4312  26.010  32.941   0.546
32642W        W 4313  37.984   6.304   3.434
32643W        W 4314  27.087  38.635  12.507
32644W        W 4315  44.392   5.378   1.047
32645W        W 4316  36.944  19.541  14.019
32646W        W 4317  42.520   1.923   4.704
32647W        W 4318  44.602   0.865   4.129
32648W        W 4319  15.681  25.746   3.941
32649W        W 4320   5.666  14.730   1.664
32650W        W 4321   4.781  21.611  11.382
32651W        W 4322  19.483   1.475   4.199
32652W        W 4323  15.749  22.045   3.706
32653W        W 4324  44.295  26.012  10.737
32654W        W 4325  33.413   2.877   3.891
32655W        W 4326   9.886  43.185  13.023
32656W        W 4327  37.605  27.101  14.006
32657W        W 4328   4.716  11.298  10.736
32658W        W 4329  18.220  28.574  12.586
32659W        W 4330  12.083  13.079   2.892
32660W        W 4331  26.532  30.851   3.877
32661W        W 4332  12.143   8.562  13.316
32662W        W 4333  17.066  39.786  11.525
32663W        W 4334  23.635  42.403   4.202
32664W        W 4335  20.651  13.435   2.837
32665W        W 4336  44.193  23.844  13.384
32666W        W 4337  18.618  40.438  11.397
32667W        W 4338  25.174   6.166  13.304
32668W        W 4339  28.565  28.934   1.991
32669W        W 4340  18.507  23.997   5.405
32670W        W 4341  35.624  11.609   3.587
32671W        W 4342  23.691  10.162   1.237
32672W        W 4343  30.135  25.402  11.106
32673W        W 4344  27.552   1.143   3.103
32674W        W 4345  18.526  19.092   0.870
32675W        W 4346  15.628  17.734   2.733
32676W        W 4347  29.113  14.313  11.565
32677W        W 4348  23.493   2.821  13.963
32678W        W 4349  16.211   1.090  12.570
32679W        W 4350  32.990  39.812  13.115
32680W        W 4351   7.710  17.032  10.754
32681W        W 4352  15.750  35.728   4.669
32682W        W 4353  29.012  26.982   3.425
32683W        W 4354  12.809   9.170   4.760
32684W        W 4355  13.928  39.107   2.752
32685W        W 4356  39.071  16.660  12.441
32686W        W 4357  36.334  14.287   3.333
32687W        W 4358  35.977  25.128  11.982
32688W        W 4359  44.969  41.863   0.789
32689W        W 4360   8.288  33.122   1.959
32690W        W 4361  41.253  20.212  10.757
32691W        W 4362   0.585  21.523   1.686
32692W        W 4363  43.044  37.960   2.209
32693W        W 4364  10.328  31.176  13.483
32694W        W 4365  15.179  31.587   2.416
32695W        W 4366  17.381  26.651  10.725
32696W        W 4367  25.896  11.679   4.107
32697W        W 4368  25.024   1.109  13.814
32698W        W 4369   8.885  42.041  12.596
32699W        W 4370  33.555  26.497  10.605
32700W        W 4371   7.747  35.094   4.177
32701W        W 4372   6.290  36.021   1.283
32702W        W 4373  43.055  40.045  13.100
32703W        W 4374  20.986   4.334   0.402
32704W        W 4375  38.869   4.958  11.863
32705W        W 4376  42.424  20.257   4.026
32706W        W 4377   0.662  41.542  11.545
32707W        W 4378   9.741  26.418   3.005
32708W        W 4379  19.547  11.513  12.454
32709W        W 4380   0.457   0.314   2.519
32710W        W 4381  16.753   1.397   3.759
32711W        W 4382  13.301  28.480   4.890
32712W        W 4383  32.067  44.366   4.487
32713W        W 4384  26.651  38.541   1.471
32714W        W 4385  15.292   1.349   4.749
32715W        W 4386  23.967  30.956  14.915
32716W        W 4387  20.804  42.888   2.744
32717W        W 4388  34.089  20.074  12.520
32718W        W 4389  36.496  17.686   3.247
32719W        W 4390  17.845  39.831  11.082
32720W        W 4391  18.989  19.286   4.249
32721W        W 4392  13.325  10.066   4.982
32722W        W 4393  37.161  16.753  14.631
32723W        W 4394  32.682  18.680  14.249
32724W        W 4395   0.917   8.211   4.213
32725W        W 4396  43.537  20.543   4.633
32726W        W 4397  24.259  24.157   4.609
32727W        W 4398  34.158  31.366   2.040
32728W        W 4399  31.459  13.520   3.444
32729W        W 4400  17.282   7.497  13.520
32730W        W 4401  16.127  13.268   3.634
32731W        W 4402  34.522   3.661  14.823
32732W        W 4403  39.959  20.755   3.706
32733W        W 4404  39.007  10.240   4.138
32734W        W 4405   7.080  26.473  14.422
32735W        W 4406  26.591  34.467  10.841
32736W        W 4407   9.604   2.568  14.114
32737W        W 4408  23.683  34.162   1.143
32738W        W 4409  11.338  12.841  11.226
32739W        W 4410   1.319  43.507   4.727
32740W        W 4411  31.712  16.636  14.288
32741W        W 4412  19.102  41.502  12.537
32742W        W 4413  13.465  30.553  13.304
32743W        W 4414  15.403  27.955  13.436
32744W        W 4415  16.276  19.997  11.889
32745W        W 4416  28.001   4.935   5.118
32746W        W 4417   0.510  28.105   3.136
32747W        W 4418  39.746   4.453   1.313
32748W        W 4419  39.792  15.256   0.811
32749W        W 4420  36.427  14.703  14.053
32750W        W 4421  34.021  44.191  14.849
32751W        W 4422  38.494  42.389  13.032
32752W        W 4423  23.574  11.872  11.727
32753W        W 4424  11.923   4.275  11.948
32754W        W 4425  21.642  37.433   5.094
32755W        W 4426  15.725  16.260   2.260
32756W        W 4427   6.897  32.365   2.889
32757W        W 4428   5.720  32.018  14.287
32758W        W 4429   0.709   6.323  13.473
32759W        W 4430  19.348  30.897  11.098
32760W        W 4431   0.045  39.014  13.890
32761W        W 4432  37.947  25.941   4.397
32762W        W 4433  25.091  26.778  14.840
32763W        W 4434  12.712  30.554   0.034
32764W        W 4435  39.258  36.542   4.961
32765W        W 4436  41.239  31.507  12.114
32766W        W 4437  16.073  27.386   3.523
32767W        W 4438  39.476  32.393  14.843
32768W        W 4439  36.337  32.591   0.192
32769W        W 4440  44.946  12.671   3.319
32770W        W 4441  14.118  11.655   1.910
32771W        W 4442  14.663   8.659  12.820
32772W        W 4443  33.663  34.046  11.671
32773W        W 4444   0.933  36.120  13.309
32774W        W 4445  23.550  33.851   2.221
32775W        W 4446  21.905   6.315   2.213
32776W        W 4447  18.206   0.924   3.193
32777W        W 4448  28.632  16.094   1.915
32778W        W 4449  38.897  36.052  14.857
32779W        W 4450  34.609  30.101   0.360
32780W        W 4451   2.260  23.151   3.694
32781W        W 4452  10.123  31.312   4.203
32782W        W 4453  29.935   0.702  12.950
32783W        W 4454  42.365   9.914  10.754
32784W        W 4455  38.744  26.708  12.017
32785W        W 4456  42.138  35.634   1.875
32786W        W 4457  44.199  33.653  12.633
32787W        W 4458  28.424   8.235   2.271
32788W        W 4459  35.869  14.449  14.976
32789W        W 4460  40.901   6.322   0.024
32790W        W 4461  31.844   4.234   0.515
32791W        W 4462  41.508   7.637   3.628
32792W        W 4463   6.918  18.405  11.587
32793W        W 4464  17.319  18.500  12.966
32794W        W 4465  44.564  11.629   5.382
32795W        W 4466  13.335  26.019  14.424
32796W        W 4467  26.384  13.961  14.005
32797W        W 4468  34.776  40.405   1.912
32798W        W 4469  44.381  39.923  13.095
32799W        W 4470  36.728  33.059   1.368
32800W        W 4471  36.308  29.654  11.998
32801W        W 4472  18.105  15.732   0.915
32802W        W 4473  23.107  13.826   3.499
32803W        W 4474   2.678  33.659   1.741
32804W        W 4475  15.906  38.023   3.315
32805W        W 4476  33.782  41.389  13.418
32806W        W 4477  42.169  44.840  11.941
32807W        W 4478   3.711  42.979   0.517
32808W        W 4479  36.063  25.232  12.476
32809W        W 4480  38.572  21.443   1.713
32810W        W 4481  24.236  41.546   3.989
32811W        W 4482   5.210  28.461  14.544
32812W        W 4483   1.317  35.564  11.319
32813W        W 4484  34.162   6.215   3.231
32814W        W 4485  25.086  21.970   1.125
32815W        W 4486   8.621  44.514  14.915
32816W        W 4487   3.366  12.010  11.816
32817W        W 4488  24.175  42.168  12.829
32818W        W 4489  38.813  10.424   5.052
32819W        W 4490  16.837  16.159   0.727
32820W        W 4491  21.404  26.589   5.163
32821W        W 4492  38.142  12.785  11.526
32822W        W 4493  22.104  14.228   0.463
32823W        W 4494  21.284  17.880   3.891
32824W        W 4495  38.759  26.450   1.265
32825W        W 4496  32.715  19.950  12.558
32826W        W 4497  29.577   8.087   9.576
32827W        W 4498  14.798  29.406  11.688
32828W        W 4499  29.945  16.515  14.429
32829W        W 4500  31.931   9.603  11.668
32830W        W 4501  14.994  23.224  11.954
32831W        W 4502   8.652  12.195   3.816
32832W        W 4503  23.128  39.025  14.992
32833W        W 4504  33.196   7.901   4.093
32834W        W 4505  18.735  15.213  14.404
32835W        W 4506   5.427  26.146  12.445
32836W        W 4507   9.115  33.024   0.820
32837W        W 4508  23.139  17.698  10.666
32838W        W 4509  21.219   6.375   3.758
32839W        W 4510  21.696  33.447  13.913
32840W        W 4511  12.423   9.482   2.840
32841W        W 4512   0.757  33.508  11.614
32842W        W 4513  43.589  42.021   2.792
32843W        W 4514  10.763  36.780  10.746
32844W        W 4515  25.537  31.385   4.679
32845W        W 4516  42.542   6.715   0.771
32846W        W 4517  15.284  28.485   4.641
32847W        W 4518  34.921  12.894   2.700
32848W        W 4519  42.883  30.863   0.954
32849W        W 4520  11.584   0.827  11.136
32850W        W 4521  29.466  36.057  14.831
32851W        W 4522  14.129   4.200   2.656
32852W        W 4523   0.464   5.211  14.508
32853W        W 4524   0.775  33.518   4.205
32854W        W 4525   9.391  16.470   0.022
32855W        W 4526   9.263  13.871  14.443
32856W        W 4527  13.125  21.293  11.097
32857W        W 4528  20.104  19.709   4.576
32858W        W 4529  22.119  23.182  10.597
32859W        W 4530  35.986   2.358   1.863
32860W        W 4531  17.268  31.702  12.986
32861W        W 4532  23.715  10.479  13.420
32862W        W 4533   3.194   0.804   0.911
32863W        W 4534   2.243  28.735  12.714
32864W        W 4535  14.831  23.505  10.707
32865W        W 4536   9.610  25.987   3.304
32866W        W 4537   4.756  17.290  11.310
32867W        W 4538  27.141  44.508   3.108
32868W        W 4539  14.870   3.939   0.986
32869W        W 4540  26.694  27.150  11.316
32870W        W 4541  34.908  38.363   1.840
32871W        W 4542  23.216  11.666   0.498
32872W        W 4543  11.736  18.386   4.139
32873W        W 4544  11.241  25.761  11.620
32874W        W 4545  12.642  27.394   3.121
32875W        W 4546  27.713  14.680   0.947
32876W        W 4547  44.273  33.464  14.462
32877W        W 4548  15.730  38.839   1.007
32878W        W 4549   9.229  38.464  11.007
32879W        W 4550  11.565  29.747  11.276
32880W        W 4551  30.204  44.771   3.225
32881W        W 4552  43.825  13.723  10.230
32882W        W 4553  33.633  14.709   2.257
32883W        W 4554  15.061  31.445  11.596
32884W        W 4555  28.538   2.819   1.303
32885W        W 4556  18.680   6.740   2.707
32886W        W 4557  33.390   8.874   1.417
32887W        W 4558   5.485  29.464  11.932
32888W        W 4559   1.443  26.524  14.578
32889W        W 4560  17.013  28.099  12.054
32890W        W 4561  30.613  15.817   0.475
32891W        W 4562  41.024  33.950   3.495
32892W        W 4563  43.439  10.066  12.134
32893W        W 4564  42.096   0.973  11.950
32894W        W 4565  27.114  20.697  14.744
32895W        W 4566  37.449  34.554   1.342
32896W        W 4567   2.555  20.067  14.887
32897W        W 4568  20.554  44.250  12.792
32898W        W 4569  33.994  21.055  11.136
32899W        W 4570  13.387  14.559  13.058
32900W        W 4571  30.374   4.985   4.576
32901W        W 4572  34.031   5.351  11.643
32902W        W 4573  35.383   5.196   3.938
32903W        W 4574  20.761   8.598   4.497
32904W        W 4575  12.520  15.766  14.742
32905W        W 4576   9.281  22.240  11.480
32906W        W 4577  39.813  16.983   2.290
32907W        W 4578   2.345  19.053  14.432
32908W        W 4579  12.101  42.644   3.744
32909W        W 4580  15.161  17.129   2.901
32910W        W 4581  30.327  36.037   1.657
32911W        W 4582   6.307  29.151  11.360
32912W        W 4583   0.050  16.365   0.422
32913W        W 4584  29.493   7.338  12.485
32914W        W 4585  40.804  12.656  11.114
32915W        W 4586  22.418   7.583  11.845
32916W        W 4587  17.298   0.237  11.431
32917W        W 4588  33.448  42.789   4.011
32918W        W 4589   8.718   9.875  14.002
32919W        W 4590  41.856  10.718  10.962
32920W        W 4591  42.200  42.704  10.766
32921W        W 4592  11.773  16.900   4.603
32922W        W 4593  24.584  39.915  11.629
32923W        W 4594  20.452  41.578  14.962
32924W        W 4595  13.738  33.705   1.252
32925W        W 4596  36.385  25.099  14.214
32926W        W 4597   2.358  34.530   4.247
32927W        W 4598  10.723  24.502   3.847
32928W        W 4599  16.824  11.059  12.195
32929W        W 4600  15.159  28.574  12.436
32930W        W 4601  32.051  20.445   4.028
32931W        W 4602  23.783   4.185  14.793
32932W        W 4603  39.591   3.261   4.590
32933W        W 4604  10.657  23.998  13.759
32934W        W 4605  35.803  32.373  13.482
32935W        W 4606   6.878  26.062  12.435
32936W        W 4607  16.248  29.054  10.680
32937W        W 4608   1.475  32.329   2.196
32938W        W 4609   4.449  44.387  13.472
32939W        W 4610  31.201   9.815   2.357
32940W        W 4611  24.821  38.662   3.766
32941W        W 4612   0.962  32.192   4.094
32942W        W 4613  16.659  37.296  14.346
32943W        W 4614  33.332  33.386   3.194
32944W        W 4615  16.066  27.005  13.915
32945W        W 4616  22.528  29.956   2.377
32946W        W 4617  35.968  16.819  10.375
32947W        W 4618  31.858  24.441  14.386
32948W        W 4619  36.179  10.286  10.320
32949W        W 4620   7.887  10.793   2.862
32950W        W 4621  10.565  11.686  13.675
32951W        W 4622  14.726  26.496   1.877
32952W        W 4623  14.742   2.776  11.115
32953W        W 4624  26.442  44.409  11.203
32954W        W 4625   3.380  40.854   0.990
32955W        W 4626  28.489  27.667  10.689
32956W        W 4627   8.013  10.959   1.508
32957W        W 4628  14.663  26.372  12.790
32958W        W 4629   9.985  11.213   9.817
32959W        W 4630  42.943  24.466   3.637
32960W        W 4631  31.888  35.556   2.259
32961W        W 4632  27.425  33.966  14.417
32962W        W 4633  23.582   2.888  11.960
32963W        W 4634  21.263   0.797  12.772
32964W        W 4635  32.389   4.800   2.615
32965W        W 4636   2.748   1.814   3.711
32966W        W 4637  27.601  13.969  13.493
32967W        W 4638  29.957  26.314  12.560
32968W        W 4639  31.246  26.725   5.097
32969W        W 4640  26.216  38.192  12.086
32970W        W 4641  26.560  19.710   3.717
32971W        W 4642  14.538  18.084  10.747
32972W        W 4643  29.628  14.863   3.266
32973W        W 4644  17.910   6.860  14.427
32974W        W 4645  10.739   4.167   3.267
32975W        W 4646  13.077   8.158  12.514
32976W        W 4647   2.518  28.684   1.768
32977W        W 4648   2.129  15.636   4.545
32978W        W 4649  37.407  21.752   0.038
32979W        W 4650  20.586  38.055   0.882
32980W        W 4651   5.681   0.174  13.003
32981W        W 4652  13.209  34.682   0.478
32982W        W 4653  23.718  29.796  13.793
32983W        W 4654  20.861  16.678   2.806
32984W        W 4655  37.054  15.703  10.801
32985W        W 4656  12.596  16.537  11.969
32986W        W 4657  23.319  31.965   1.859
32987W        W 4658  27.089  11.427  11.202
32988W        W 4659  17.490  23.617   0.151
32989W        W 4660  34.063  32.145   5.092
32990W        W 4661  12.828   9.705   2.616
32991W        W 4662  33.451  23.359   5.349
32992W        W 4663  15.102  16.039   4.018
32993W        W 4664  37.613   3.563  11.705
32994W        W 4665  34.650  23.573   1.304
32995W        W 4666  35.329  25.971   3.309
32996W        W 4667  42.803  32.120  12.199
32997W        W 4668   7.728  30.012   4.935
32998W        W 4669  31.536  14.601   0.416
32999W        W 4670  25.936  35.865  11.511
33000W        W 4671  41.766  43.345   1.394
33001W        W 4672  14.811   2.452  14.984
33002W        W 4673  25.130  17.024  10.795
33003W        W 4674  21.708   4.430   0.879
33004W        W 4675   3.358  35.573   3.839
33005W        W 4676  24.760  33.927  13.025
33006W        W 4677   0.532  16.182  11.949
33007W        W 4678  15.411   6.928   1.887
33008W        W 4679  14.605  27.538   0.550
33009W        W 4680  34.686  11.784   0.493
33010W        W 4681  34.055   6.397  14.701
33011W        W 4682  26.556  17.236  11.378
33012W        W 4683  44.893  27.293  12.589
33013W        W 4684   2.171  24.740   4.277
33014W        W 4685  16.133  37.594   1.095
33015W        W 4686  42.559  27.401   3.170
33016W        W 4687  42.823  37.392   0.006
33017W        W 4688  22.772  17.918   4.543
33018W        W 4689   7.834  15.450   1.204
33019W        W 4690   7.218   8.894  12.840
33020W        W 4691  21.597  40.762   2.459
33021W        W 4692  14.484  17.318  12.156
33022W        W 4693   9.310  32.517   0.924
33023W        W 4694  13.128  23.125  10.983
33024W        W 4695  29.442  26.371   4.700
33025W        W 4696  17.795   5.126  11.191
33026W        W 4697   6.720  30.442   4.551
33027W        W 4698   4.790  38.508  12.061
33028W        W 4699  31.046  24.049   0.325
33029W        W 4700   1.389  33.677   3.980
33030W        W 4701  41.554  15.884  11.990
33031W        W 4702  33.434  12.230  12.934
33032W        W 4703  43.675   3.282  13.715
33033W        W 4704   6.178   1.893   4.098
33034W        W 4705  26.235  42.574   1.421
33035W        W 4706  22.525  18.140   0.033
33036W        W 4707  28.601   0.536  14.256
33037W        W 4708   0.613  29.472  12.006
33038W        W 4709   0.328   6.174  14.398
33039W        W 4710  37.620  22.352   1.859
33040W        W 4711  13.070   4.736  14.723
33041W        W 4712   9.090  13.036   2.275
33042W        W 4713   9.417  21.281   4.732
33043W        W 4714  24.209  14.688  14.271
33044W        W 4715  37.129  20.635   2.313
33045W        W 4716  19.961  23.626   5.127
33046W        W 4717   2.007  42.975  14.991
33047W        W 4718   7.976  38.104  11.544
33048W        W 4719  40.364  24.572  10.916
33049W        W 4720  33.206  21.771   1.816
33050W        W 4721  38.996   8.834   0.623
33051W        W 4722  31.379  37.016  12.418
33052W        W 4723  16.239  41.782  11.692
33053W        W 4724  43.901  39.530   3.680
33054W        W 4725  44.410  36.641   0.556
33055W        W 4726  35.280  11.620  11.069
33056W        W 4727  36.633  34.883   2.291
33057W        W 4728  27.581  39.453  13.954
33058W        W 4729  16.327  26.718  12.621
33059W        W 4730  25.474   9.518  11.120
33060W        W 4731   2.619  44.124  12.900
33061W        W 4732   5.247   1.167   1.819
33062W        W 4733  35.330  10.676  12.994
33063W        W 4734  16.298  17.761  13.952
33064W        W 4735  41.241  40.308   4.832
33065W        W 4736  26.579  30.430   3.610
33066W        W 4737  44.304  34.683  12.503
33067W        W 4738  21.354  44.584  13.943
33068W        W 4739  13.119  14.229   3.207
33069W        W 4740  34.224  14.616   2.487
33070W        W 4741  29.191   4.148  11.561
33071W        W 4742  22.479   7.685   3.750
33072W        W 4743  25.589  12.195  13.807
33073W        W 4744  31.843  40.461   0.957
33074W        W 4745  42.862  24.702   0.169
33075W        W 4746  31.913  20.865  14.548
33076W        W 4747  30.581  24.459  14.066
33077W        W 4748   6.665  23.539   0.484
33078W        W 4749   7.093  15.252  14.163
33079W        W 4750  33.617  37.629  13.019
33080W        W 4751  42.380   2.185  10.847
33081W        W 4752  24.588   2.908  11.150
33082W        W 4753  36.829  31.372  10.810
33083W        W 4754  38.817  23.081   3.743
33084W        W 4755  21.734  21.079   0.330
33085W        W 4756   2.273  19.004  13.476
33086W        W 4757  24.387  30.255  14.007
33087W        W 4758  11.629   4.047   2.257
33088W        W 4759  18.015  42.924  12.934
33089W        W 4760   2.427  38.807  11.963
33090W        W 4761   1.308  33.049  14.027
33091W        W 4762   6.420  21.133  11.074
33092W        W 4763  21.487  44.280   4.155
33093W        W 4764  43.884  37.407  10.440
33094W        W 4765   3.372  23.926   1.167
33095W        W 4766  32.410  31.588   3.366
33096W        W 4767   5.799  20.705   2.049
33097W        W 4768  39.317  12.293  13.894
33098W        W 4769  19.077  32.329   2.375
33099W        W 4770  28.644  17.604   2.983
33100W        W 4771  29.371   3.970  12.881
33101W        W 4772  23.445  42.771  13.583
33102W        W 4773  39.783  30.605  12.612
33103W        W 4774   3.428  17.081   1.871
33104W        W 4775  36.560  10.659  12.592
33105W        W 4776   8.728  15.727   5.090
33106W        W 4777   1.443  29.749  11.647
33107W        W 4778  30.365   6.129   0.366
33108W        W 4779  34.375   5.905  12.373
33109W        W 4780  36.465  22.715   3.072
33110W        W 4781  29.178  29.117  11.916
33111W        W 4782  39.575  31.114   3.081
33112W        W 4783  42.858   7.768   1.962
33113W        W 4784  24.530  25.997   2.786
33114W        W 4785   9.068   4.784   1.975
33115W        W 4786  31.689  14.487   3.215
33116W        W 4787  19.617  24.765   5.100
33117W        W 4788   8.779   6.856   4.341
33118W        W 4789  29.635  41.515   0.438
33119W        W 4790  11.306  15.079   4.688
33120W        W 4791  22.189  32.731  12.959
33121W        W 4792   8.134  39.522   2.794
33122W        W 4793  19.156  42.231  13.411
33123W        W 4794   1.288  44.287   2.179
33124W        W 4795  11.911   2.010   5.046
33125W        W 4796  20.083  16.676  11.318
33126W        W 4797  22.269  21.578   1.026
33127W        W 4798  32.853  33.637  12.609
33128W        W 4799  30.008   3.704   3.268
33129W        W 4800  18.056  10.268   2.851
33130W        W 4801  39.663  28.119   3.385
33131W        W 4802  16.802  25.046  10.933
33132W        W 4803  24.050   1.141  12.084
33133W        W 4804   8.522   7.512   0.658
33134W        W 4805  27.389  44.154   2.788
33135W        W 4806  39.727  26.532  11.902
33136W        W 4807  27.162  16.282   2.519
33137W        W 4808  38.555  10.842  11.082
33138W        W 4809  29.602  43.524   1.714
33139W        W 4810  32.559  41.553   5.277
33140W        W 4811  34.900  24.926   1.144
33141W        W 4812  18.070  16.372  12.875
33142W        W 4813  28.694  19.672   4.681
33143W        W 4814   5.790  41.968   1.783
33144W        W 4815  18.267  44.886  12.793
33145W        W 4816  24.135   8.180  10.761
33146W        W 4817   4.997   6.114   1.413
33147W        W 4818  26.637  26.213  11.215
33148W        W 4819  32.923  15.109   1.276
33149W        W 4820  19.304  18.620   2.749
33150W        W 4821  38.090  29.051   4.076
33151W        W 4822   3.234   4.599   5.056
33152W        W 4823  25.310   3.483   4.129
33153W        W 4824  17.765  25.674   0.805
33154W        W 4825  40.731  21.041   1.385
33155W        W 4826  11.788  23.159  10.835
33156W        W 4827   1.412  21.092  12.520
33157W        W 4828  23.648  16.490   0.787
33158W        W 4829  28.436  34.550  11.515
33159W        W 4830  17.419  31.136   9.975
33160W        W 4831   3.013  31.005   4.870
33161W        W 4832  41.997  26.084  14.914
33162W        W 4833  25.965  17.781   1.867
33163W        W 4834  43.561  16.154  12.908
33164W        W 4835  31.430  18.259   0.099
33165W        W 4836  24.064   9.183   3.409
33166W        W 4837  13.869  25.094   1.332
33167W        W 4838   4.145  24.280   4.141
33168W        W 4839  29.064  22.284   1.780
33169W        W 4840  27.768   2.526  11.521
33170W        W 4841  11.865  13.657   3.541
33171W        W 4842  42.517  37.884   3.047
33172W        W 4843   9.410  32.494  11.912
33173W        W 4844  30.046  25.088   3.683
33174W        W 4845  22.165  26.959   2.395
33175W        W 4846   1.939  10.926   2.035
33176W        W 4847  42.461   4.438   0.344
33177W        W 4848  30.328  18.082   3.300
33178W        W 4849  27.065  16.631  13.804
33179W        W 4850  17.796   7.666   4.420
33180W        W 4851  41.292  28.993   0.439
33181W        W 4852  28.514  13.580   1.202
33182W        W 4853  23.461  32.997   1.870
33183W        W 4854  29.646  31.495   2.485
33184W        W 4855  44.210  40.373  13.901
33185W        W 4856  40.378  24.705   1.499
33186W        W 4857  31.218  17.232   5.133
33187W        W 4858  13.078  12.151   0.395
33188W        W 4859  36.610  21.637  11.079
33189W        W 4860   4.435  39.802  12.817
33190W        W 4861  19.807  38.984  11.216
33191W        W 4862  31.451  21.474   4.985
33192W        W 4863  40.358  25.711  13.016
33193W        W 4864  16.788  36.633   4.189
33194W        W 4865  10.724  30.056   4.549
33195W        W 4866   5.492  37.844   4.214
33196W        W 4867   4.768   1.358  14.809
33197W        W 4868  28.403  34.305  10.950
33198W        W 4869  38.394   7.432  12.874
33199W        W 4870  26.231  36.730   0.340
33200W        W 4871  27.467   2.179   3.207
33201W        W 4872  15.876  34.917  14.475
33202W        W 4873   2.460  22.690  13.405
33203W        W 4874  41.088  40.776   2.670
33204W        W 4875  35.463  41.481   4.495
33205W        W 4876   3.694  44.907  10.676
33206W        W 4877  38.749   3.329   1.295
33207W        W 4878  10.803  25.083   4.475
33208W        W 4879  31.898  31.421  12.852
33209W        W 4880  10.678  40.809  11.425
33210W        W 4881  13.205   3.831  14.845
33211W        W 4882  12.367  30.508   1.821
33212W        W 4883  34.489  16.599  10.691
33213W        W 4884  28.445  38.366  13.084
33214W        W 4885  28.677  21.251   4.664
33215W        W 4886  33.940  23.413   3.683
33216W        W 4887  11.480  11.581  14.876
33217W        W 4888  29.535  17.271   1.841
33218W        W 4889  31.261  34.170  12.563
33219W        W 4890  19.123  33.618   0.837
33220W        W 4891  32.436  41.704   1.779
33221W        W 4892  34.116   3.973   1.631
33222W        W 4893  32.616   8.102  13.574
33223W        W 4894   5.691  16.773   4.207
33224W        W 4895   9.870  17.819   1.242
33225W        W 4896  15.333  42.011  14.852
33226W        W 4897  36.492   5.383  11.401
33227W        W 4898  15.606  33.477   3.096
33228W        W 4899  15.591  34.839   0.898
33229W        W 4900  42.574  27.029   1.216
33230W        W 4901  21.588   4.396   1.388
33231W        W 4902  32.461  43.275  14.296
33232W        W 4903  34.088   9.630   3.613
33233W        W 4904  22.974   5.898  12.084
33234W        W 4905  27.152  26.384  11.225
33235W        W 4906  35.120  20.584   2.237
33236W        W 4907  13.633  40.616   0.668
33237W        W 4908   2.353  19.668  13.087
33238W        W 4909  18.236  19.629   3.375
33239W        W 4910  18.305  11.176  11.062
33240W        W 4911  30.206  29.865   3.803
33241W        W 4912   3.811  15.758  13.944
33242W        W 4913  44.508  37.595   1.918
33243W        W 4914  25.656  44.634   4.089
33244W        W 4915  10.299   8.154   0.272
33245W        W 4916  23.451  12.863   3.658
33246W        W 4917  28.033  38.459  14.974
33247W        W 4918  27.561  30.591   3.662
33248W        W 4919  39.849  44.002   1.500
33249W        W 4920  37.963   5.371  11.545
33250W        W 4921   5.286  19.382   1.847
33251W        W 4922  30.090  43.481   1.507
33252W        W 4923  11.217  24.738  12.012
33253W        W 4924  32.172  32.022  14.974
33254W        W 4925   6.296  21.562  12.544
33255W        W 4926  37.029  25.161  13.854
33256W        W 4927   2.252   8.293   1.993
33257W        W 4928   0.747  13.599   3.081
33258W        W 4929  12.624  10.828   1.775
33259W        W 4930  38.968   8.140   1.812
33260W        W 4931  15.161  23.053  10.721
33261W        W 4932  26.973   9.911  12.276
33262W        W 4933  33.217  30.480   2.361
33263W        W 4934  27.157  42.604   3.100
33264W        W 4935  35.991  23.647  14.964
33265W        W 4936  10.933  18.479  12.386
33266W        W 4937  35.105   6.602  10.711
33267W        W 4938   6.660  25.504   3.243
33268W        W 4939  22.504  10.773  14.462
33269W        W 4940  44.503  22.052  12.494
33270W        W 4941   8.372  12.654  14.953
33271W        W 4942   5.252  37.756   3.773
33272W        W 4943  33.860  27.928   3.100
33273W        W 4944  16.356  30.457  12.989
33274W        W 4945  39.571  42.355  11.593
33275W        W 4946  25.788  13.289  12.486
33276W        W 4947  40.030  30.621  13.112
33277W        W 4948  21.270  23.140   5.052
33278W        W 4949  30.495  18.835  12.795
33279W        W 4950  32.086   4.802  10.070
33280W        W 4951  11.893  28.828  12.650
33281W        W 4952  41.549   3.006   2.144
33282W        W 4953  27.794  40.472   4.427
33283W        W 4954   4.409  20.203   3.151
33284W        W 4955  33.315  41.542   0.370
33285W        W 4956  30.679  26.625   5.092
33286W        W 4957  10.028  25.508   2.765
33287W        W 4958  28.284  29.229  14.207
33288W        W 4959  19.748  28.632  11.484
33289W        W 4960  26.934  10.351  12.544
33290W        W 4961  35.623  36.401   0.814
33291W        W 4962  34.541  24.029   0.309
33292W        W 4963   9.412  33.137   0.406
33293W        W 4964  34.124  18.129   2.371
33294W        W 4965  19.747  20.518   3.829
33295W        W 4966  15.447  12.478   0.323
33296W        W 4967   8.112  26.716   3.684
33297W        W 4968  29.199  34.184  11.145
33298W        W 4969  36.924  30.948   4.384
33299W        W 4970   4.759   8.207   4.955
33300W        W 4971   8.692   7.838   0.271
33301W        W 4972  36.119  34.174  14.456
33302W        W 4973   6.589  29.477   2.355
33303W        W 4974  40.474  16.728   1.926
33304W        W 4975  23.662  12.530  13.937
33305W        W 4976  37.321   3.547  12.150
33306W        W 4977   3.771  21.591   2.196
33307W        W 4978  20.588  15.787  12.560
33308W        W 4979  15.157  35.081   0.754
33309W        W 4980   2.742  41.056   1.804
33310W        W 4981  22.344  23.883   3.402
33311W        W 4982  18.747  12.887   3.228
33312W        W 4983  37.647  26.592  11.566
33313W        W 4984  16.577  38.309   2.115
33314W        W 4985   8.768  26.899  12.910
33315W        W 4986   2.457  39.689   4.327
33316W        W 4987  28.725  16.225  13.423
33317W        W 4988  11.384   8.228  10.409
33318W        W 4989  25.436  22.738  12.095
33319W        W 4990  35.642   1.044   4.639
33320W        W 4991  27.641  13.276   0.775
33321W        W 4992   5.400   8.385   2.426
33322W        W 4993  35.454   4.900   2.190
33323W        W 4994   0.726  41.345   2.307
33324W        W 4995   5.798   8.070   2.296
33325W        W 4996  43.962  34.905   3.674
33326W        W 4997  36.350  18.134   1.011
33327W        W 4998  33.213   8.290  11.117
33328W        W 4999  30.769  36.378  14.337
33329W        W 5000  24.504  17.606   4.338
33330W        W 5001  17.841  24.459  13.339
33331W        W 5002  44.567  32.093  13.615
33332W        W 5003  25.916  44.450  12.552
33333W        W 5004  16.148  33.634  12.008
33334W        W 5005  28.558  27.923  11.154
33335W        W 5006  40.803  23.560   1.275
33336W        W 5007  21.614  26.258   4.779
33337W        W 5008  25.888  18.957  12.741
33338W        W 5009   7.782   2.988  13.898
33339W        W 5010  22.754  26.599   1.664
33340W        W 5011  32.602   9.740  13.513
33341W        W 5012   8.726  36.006   0.275
33342W        W 5013  29.682  37.400  10.082
33343W        W 5014  40.364  17.779   2.853
33344W        W 5015   1.720  11.331   3.336
33345W        W 5016   9.552  14.778   0.714
33346W        W 5017  28.416  29.360  13.291
33347W        W 5018   8.766  39.029  11.573
33348W        W 5019  21.854   2.678  13.434
33349W        W 5020  22.701  17.629  13.450
33350W        W 5021  42.951  14.101   9.840
33351W        W 5022   0.266  21.876  13.762
33352W        W 5023   7.523  17.908  12.085
33353W        W 5024  35.211  15.168  11.558
33354W        W 5025  11.252   4.245   1.455
33355W        W 5026   8.899  23.135  11.364
33356W        W 5027  39.975  29.744   0.255
33357W        W 5028  31.128   3.576   4.588
33358W        W 5029  17.373  38.809  11.246
33359W        W 5030  44.507  20.684   2.405
33360W        W 5031  43.869   6.950   1.156
33361W        W 5032  14.348  39.263   2.114
33362W        W 5033  19.546  15.305  13.831
33363W        W 5034  35.917  29.928  13.289
33364W        W 5035   0.349  35.563  12.993
33365W        W 5036  11.166   3.503  13.476
33366W        W 5037  21.309  22.548  13.315
33367W        W 5038   3.957  28.992  12.373
33368W        W 5039  35.673  21.139  10.304
33369W        W 5040   7.397  17.077  13.902
33370W        W 5041  44.412  19.538  12.344
33371W        W 5042  36.389  16.728   0.898
33372W        W 5043  30.256   3.690   1.921
33373W        W 5044  34.069  26.221  13.259
33374W        W 5045  18.896  38.521   1.514
33375W        W 5046  43.869  37.317  13.778
33376W        W 5047  44.716  20.643   1.944
33377W        W 5048  44.277  29.749  11.029
33378W        W 5049  11.601  20.985   3.196
33379W        W 5050  18.372   1.609  14.864
33380W        W 5051  22.603  39.761  14.662
33381W        W 5052  14.210  22.424  13.837
33382W        W 5053  29.485  22.177   4.054
33383W        W 5054  26.002   6.242   2.351
33384W        W 5055  26.114   0.085   4.698
33385W        W 5056  43.883  43.972   1.332
33386W        W 5057  29.666   4.544  14.085
33387W        W 5058   0.509  32.499   1.346
33388W        W 5059   0.527  39.122  11.411
33389W        W 5060  30.132  11.369   2.677
33390W        W 5061  14.785  17.473  12.859
33391W        W 5062  12.168  24.988  10.988
33392W        W 5063   1.763   1.537   1.866
33393W        W 5064   2.500  43.375  11.487
33394W        W 5065  32.132  24.597  11.641
33395W        W 5066   9.381  27.707  13.603
33396W        W 5067   7.342  27.461   2.727
33397W        W 5068  36.451  37.413  13.048
33398W        W 5069   6.366  36.524  12.366
33399W        W 5070   7.812  38.150   0.485
33400W        W 5071  25.506  18.255  10.636
33401W        W 5072   4.223  43.939  14.244
33402W        W 5073  33.944   7.918  13.991
33403W        W 5074  31.978  28.558  12.014
33404W        W 5075   5.776  12.555  13.456
33405W        W 5076  43.732   3.276  14.628
33406W        W 5077  23.114  37.069  11.473
33407W        W 5078  31.454  34.610  12.976
33408W        W 5079  16.024  44.624   5.115
33409W        W 5080   5.530   6.849  11.244
33410W        W 5081  26.653   7.199  12.515
33411W        W 5082  20.267  29.036  14.565
33412W        W 5083   8.158  15.736  10.782
33413W        W 5084  25.952  10.672  13.368
33414W        W 5085  28.533  38.006  12.296
33415W        W 5086  34.840  11.772  11.987
33416W        W 5087  28.168  11.815   1.854
33417W        W 5088  19.761  35.094   0.485
33418W        W 5089  42.388  32.975  13.106
33419W        W 5090  26.419  26.534   2.744
33420W        W 5091  43.492   5.207   0.894
33421W        W 5092  28.495  37.596  11.900
33422W        W 5093  36.589   0.702  13.527
33423W        W 5094  42.974  34.551   0.183
33424W        W 5095   3.143  23.672   1.763
33425W        W 5096   2.703   2.651   0.837
33426W        W 5097  40.274  14.323  10.275
33427W        W 5098  31.366  44.289  12.275
33428W        W 5099  15.358  33.882  12.937
33429W        W 5100   9.972  37.050   4.561
33430W        W 5101   2.869   8.995   2.483
33431W        W 5102   2.815   5.332  10.729
33432W        W 5103  19.469  41.336   1.438
33433W        W 5104   7.481  27.572   4.173
33434W        W 5105  32.640  40.819  11.107
33435W        W 5106  40.089  33.954  12.306
33436W        W 5107  36.971  42.259  13.918
33437W        W 5108  24.181   9.757  12.645
33438W        W 5109  42.838  32.379  13.537
33439W        W 5110  32.528  40.832   0.284
33440W        W 5111  34.562   9.078   2.411
33441W        W 5112  32.742  24.952  14.510
33442W        W 5113  12.076  17.226   1.689
33443W        W 5114  23.021   3.138   1.200
33444W        W 5115  14.579  18.337   1.236
33445W        W 5116  42.859   3.879  14.769
33446W        W 5117   9.840   6.274  13.928
33447W        W 5118   4.045  35.861  14.347
33448W        W 5119  31.897  32.510  13.474
33449W        W 5120   8.585  25.709  13.992
33450W        W 5121  13.601  25.548  14.234
33451W        W 5122  25.134  42.067  13.496
33452W        W 5123  28.194  34.684   3.713
33453W        W 5124  37.456  13.245   4.622
33454W        W 5125  40.633  19.853  13.292
33455W        W 5126   0.684  20.101   3.159
33456W        W 5127  21.525  15.071   0.382
33457W        W 5128  30.636   8.546   3.098
33458W        W 5129  13.915   6.422   2.761
33459W        W 5130  32.920  35.638   1.471
33460W        W 5131   3.321   2.851  13.415
33461W        W 5132  10.335  10.551   0.388
33462W        W 5133   8.873  23.134  10.325
33463W        W 5134  14.221  11.993   3.865
33464W        W 5135  25.064  13.300  13.307
33465W        W 5136  38.551  37.001  11.166
33466W        W 5137   5.075  27.008   0.314
33467W        W 5138  28.722   0.597  10.610
33468W        W 5139  21.532  15.511  12.273
33469W        W 5140  38.863   2.922  13.792
33470W        W 5141  13.189   5.027   0.523
33471W        W 5142  32.709  22.720   0.008
33472W        W 5143  38.015  32.190  14.051
33473W        W 5144   4.298  31.184   2.570
33474W        W 5145  36.899  13.185   2.623
33475W        W 5146  15.087  40.753   4.149
33476W        W 5147  37.439  27.451   0.353
33477W        W 5148  28.496   7.206  12.447
33478W        W 5149   3.265  35.845   2.414
33479W        W 5150   9.281  25.298   0.008
33480W        W 5151  10.310   6.861   1.687
33481W        W 5152   7.725  28.270  11.798
33482W        W 5153  36.448  21.594   1.742
33483W        W 5154  31.827  13.280   3.708
33484W        W 5155  20.489   2.436  12.392
33485W        W 5156  43.870  23.186  13.036
33486W        W 5157  10.758   9.405   0.240
33487W        W 5158  29.160   8.912   0.179
33488W        W 5159  27.489  22.855   2.414
33489W        W 5160  34.929  15.426   3.504
33490W        W 5161  27.077   3.404   3.544
33491W        W 5162  38.688  43.677   0.897
33492W        W 5163   8.475  31.596   1.575
33493W        W 5164  39.028   2.607   4.988
33494W        W 5165   2.410   2.945  11.979
33495W        W 5166  18.094   7.966  12.360
33496W        W 5167  28.916  14.632  13.927
33497W        W 5168  42.502  37.524   4.227
33498W        W 5169  36.509  10.737   4.542
33499W        W 5170  42.762  28.236   2.736
33500W        W 5171  33.652  42.279  12.000
33501W        W 5172  18.845  43.388   2.995
33502W        W 5173  41.543   2.970  14.423
33503W        W 5174   8.144  29.319  11.211
33504W        W 5175  12.566  27.956  14.544
33505W        W 5176   2.769   8.803  13.389
33506W        W 5177   2.845  38.873  14.447
33507W        W 5178   2.349  31.999  13.352
33508W        W 5179  12.582  14.265   3.220
33509W        W 5180   9.282  20.514  13.575
33510W        W 5181  11.575  43.535   0.768
33511W        W 5182  15.913  41.320   3.378
33512W        W 5183   8.384  31.622  10.493
33513W        W 5184   1.279  37.555  10.672
33514W        W 5185   5.295  44.279   1.068
33515W        W 5186  19.830   2.175   1.395
33516W        W 5187  40.526  14.166  13.255
33517W        W 5188  24.064  28.748   1.629
33518W        W 5189  32.335  15.707   1.727
33519W        W 5190   5.690  29.428   2.346
33520W        W 5191  14.091  35.986  13.993
33521W        W 5192  25.616  24.186  13.271
33522W        W 5193  36.938  13.786   0.010
33523W        W 5194  35.161  41.536  11.593
33524W        W 5195  12.625  32.189  11.994
33525W        W 5196  39.789  42.088  12.004
33526W        W 5197  24.281  15.198   0.884
33527W        W 5198  20.732  33.621   0.144
33528W        W 5199  15.130  24.978  14.900
33529W        W 5200  41.354   5.786   4.257
33530W        W 5201   5.261  32.877   0.271
33531W        W 5202  30.023  43.187   4.206
33532W        W 5203  40.982  24.514   1.711
33533W        W 5204  44.689   9.040   1.042
33534W        W 5205   6.492  38.458  10.801
33535W        W 5206  37.902  31.437  11.596
33536W        W 5207   4.791  18.028   0.201
33537W        W 5208  21.602  13.878  13.609
33538W        W 5209  17.090  16.901   4.673
33539W        W 5210  39.948  11.647  11.591
33540W        W 5211  11.602  34.955  14.860
33541W        W 5212   4.634   0.828   4.445
33542W        W 5213  34.172   2.340  12.026
33543W        W 5214   9.273  30.222   1.305
33544W        W 5215  23.051  33.143  11.250
33545W        W 5216  32.856   5.865   4.532
33546W        W 5217   5.304  33.235  14.898
33547W        W 5218  31.319  18.729   1.765
33548W        W 5219  36.859  25.422   4.281
33549W        W 5220  13.853  42.740   3.844
33550W        W 5221   7.400  39.855  10.625
33551W        W 5222  29.983  25.597  11.929
33552W        W 5223  23.337   0.868   2.751
33553W        W 5224   9.960  24.277  11.967
33554W        W 5225   4.777   4.696   0.661
33555W        W 5226  44.600  29.388  13.035
33556W        W 5227  34.421   4.713   1.179
33557W        W 5228  23.731   7.314   0.912
33558W        W 5229   4.885  41.585   4.646
33559W        W 5230  18.662  20.656  14.862
33560W        W 5231  39.063  41.797  14.316
33561W        W 5232  17.710   4.378  12.922
33562W        W 5233  40.099  31.386  11.471
33563W        W 5234   7.744  16.209   2.853
33564W        W 5235   6.363   3.474  10.731
33565W        W 5236  41.922  31.160  11.720
33566W        W 5237   2.850  18.631  13.907
33567W        W 5238  20.570  43.365  10.582
33568W        W 5239  13.142  27.393   1.535
33569W        W 5240  44.290  18.665   0.895
33570W        W 5241  12.634   3.918  10.598
33571W        W 5242  43.720  32.197   3.976
33572W        W 5243  18.493  21.672   2.813
33573W        W 5244  20.116  44.168  14.470
33574W        W 5245   4.808   2.232   4.594
33575W        W 5246  21.571  14.813  12.896
33576W        W 5247  42.562   3.831  12.040
33577W        W 5248  14.550   3.981   4.089
33578W        W 5249  10.189  42.245  14.285
33579W        W 5250   8.161  21.490   4.122
33580W        W 5251  24.731  26.359  11.120
33581W        W 5252  16.667  13.280  14.405
33582W        W 5253  33.390  39.777   1.231
33583W        W 5254   0.134  17.196   0.275
33584W        W 5255  37.464   2.924  13.709
33585W        W 5256  32.650  29.092  10.618
33586W        W 5257  20.290  10.319   1.306
33587W        W 5258  12.922  27.684  14.253
33588W        W 5259  28.133   0.701   0.239
33589W        W 5260  28.211  44.287  12.815
33590W        W 5261  23.914  25.022   2.262
33591W        W 5262  30.108  21.986   1.604
33592W        W 5263  21.141  31.917  13.559
33593W        W 5264  15.011  24.508  12.943
33594W        W 5265  34.958  22.453   3.289
33595W        W 5266  38.497  11.423  14.878
33596W        W 5267   8.107  13.396  12.899
33597W        W 5268  42.500  37.006   4.103
33598W        W 5269  12.743   2.426  10.711
33599W        W 5270  30.654  23.669  10.473
33600W        W 5271  12.161  39.025   0.276
33601W        W 5272  13.236  40.006  12.537
33602W        W 5273  10.203  17.294   0.561
33603W        W 5274  32.407  12.221   4.760
33604W        W 5275  21.992  35.179   1.857
33605W        W 5276  17.346  36.896  11.426
33606W        W 5277  23.097  17.665  14.094
33607W        W 5278  10.115   3.170   3.642
33608W        W 5279  12.959  18.213  13.687
33609W        W 5280   2.920  14.385   3.603
33610W        W 5281  12.817  28.649  12.019
33611W        W 5282   3.257  28.656   2.350
33612W        W 5283  16.762  25.957  14.234
33613W        W 5284  26.814  24.157  11.318
33614W        W 5285  28.064  26.225   3.588
33615W        W 5286  18.269  24.642   3.236
33616W        W 5287  23.954  28.576   4.755
33617W        W 5288  39.906  39.349  12.656
33618W        W 5289  23.026   6.676   2.147
33619W        W 5290  19.017  14.634  12.454
33620W        W 5291  12.147   8.393  13.815
33621W        W 5292  36.110  32.411   3.730
33622W        W 5293  10.630  28.243   3.881
33623W        W 5294  42.670   9.411   2.658
33624W        W 5295  14.286  14.057   0.514
33625W        W 5296  44.449   4.129   0.292
33626W        W 5297  32.322   8.691   3.245
33627W        W 5298  40.577  40.264  14.067
33628W        W 5299   9.124  34.088  11.165
33629W        W 5300  18.866  40.929  13.084
33630W        W 5301   4.151  14.625  13.473
33631W        W 5302  37.411  12.902  14.718
33632W        W 5303  29.529  34.413   1.925
33633W        W 5304  28.624  22.061  12.194
33634W        W 5305   1.477  38.061  11.683
33635W        W 5306  21.164  37.294  12.426
33636W        W 5307  21.788  27.930   2.251
33637W        W 5308  18.151  38.000   3.048
33638W        W 5309   1.669   0.829   2.751
33639W        W 5310  33.210  31.859   5.112
33640W        W 5311   4.368  39.597   4.094
33641W        W 5312   2.285   9.637   1.270
33642W        W 5313   9.074   2.942   1.751
33643W        W 5314   3.175  17.577   1.740
33644W        W 5315  15.834  10.937  12.080
33645W        W 5316  35.428  23.571   2.195
33646W        W 5317  31.054  31.838  11.204
33647W        W 5318   0.226   7.273  13.423
33648W        W 5319   3.487   1.394  12.912
33649W        W 5320   2.478  23.608  13.862
33650W        W 5321  19.229  35.392   4.577
33651W        W 5322   9.332  15.182  13.127
33652W        W 5323  27.514  12.214   3.057
33653W        W 5324  11.951  29.733  10.382
33654W        W 5325   5.111   2.395   2.718
33655W        W 5326  15.552  32.617  11.118
33656W        W 5327  31.166   2.994  10.865
33657W        W 5328   0.183  34.074  14.927
33658W        W 5329  29.778  37.980   4.156
33659W        W 5330  18.690  18.289  10.438
33660W        W 5331   9.866   5.756  13.780
33661W        W 5332  12.867  18.861  13.407
33662W        W 5333  21.239  33.558  12.390
33663W        W 5334  20.458  40.723   3.509
33664W        W 5335  19.543  25.451  11.517
33665W        W 5336  44.317  15.142   0.222
33666W        W 5337  42.987  21.720  13.527
33667W        W 5338  20.959   4.505  13.950
33668W        W 5339  41.491  44.294  11.381
33669W        W 5340  33.663   0.827  10.349
33670W        W 5341  30.647  19.476   2.218
33671W        W 5342  10.922  42.512  10.748
33672W        W 5343   2.236   0.041   0.189
33673W        W 5344  17.004  23.477  14.446
33674W        W 5345  13.925  16.724   1.668
33675W        W 5346  38.783  32.224  10.509
33676W        W 5347  22.264  36.277  14.399
33677W        W 5348  17.713   4.010  14.367
33678W        W 5349  24.165  40.497   0.770
33679W        W 5350  28.348  17.041  12.849
33680W        W 5351   2.946   5.160  12.231
33681W        W 5352  27.387  31.318   0.888
33682W        W 5353  33.033   1.741  11.911
33683W        W 5354  11.045  12.681  13.931
33684W        W 5355  11.348  28.572   2.207
33685W        W 5356   0.904  20.034   0.650
33686W        W 5357  28.105  40.840   4.235
33687W        W 5358  44.830   8.844   3.924
33688W        W 5359  44.879   2.406  10.505
33689W        W 5360   2.109  17.774   2.821
33690W        W 5361  24.629  16.544  11.868
33691W        W 5362   9.847  22.737  11.053
33692W        W 5363  23.295  27.583  12.773
33693W        W 5364  18.587  28.015   2.252
33694W        W 5365  34.589   9.913  14.295
33695W        W 5366  18.116  11.501  11.881
33696W        W 5367   1.939  27.553   1.394
33697W        W 5368  15.267  30.944  10.594
33698W        W 5369  21.076  35.554  11.012
33699W        W 5370  43.248   2.267  10.637
33700W        W 5371   6.363  14.693  11.523
33701W        W 5372  17.267  20.027   4.593
33702W        W 5373  41.339  16.899   0.794
33703W        W 5374  34.868  12.648  12.811
33704W        W 5375  28.184  26.351  11.771
33705W        W 5376  18.406  42.832   0.424
33706W        W 5377  35.362  17.540  13.360
33707W        W 5378  22.912  38.076   2.698
33708W        W 5379  27.538  19.523   2.844
33709W        W 5380  44.775   2.014  12.991
33710W        W 5381  30.573  25.732  10.701
33711W        W 5382   9.845  40.148  12.970
33712W        W 5383  40.472  38.848  10.147
33713W        W 5384  20.648   6.823   4.495
33714W        W 5385  33.473  28.694  13.423
33715W        W 5386   4.710  42.884  11.100
33716W        W 5387  13.354   9.306  12.110
33717W        W 5388  32.375   2.372  14.502
33718W        W 5389  22.378  24.171   4.809
33719W        W 5390  41.108  26.513   0.899
33720W        W 5391  41.310  41.974  13.403
33721W        W 5392   1.198  44.890   2.783
33722W        W 5393   5.680   4.708   3.351
33723W        W 5394   8.754  44.869   4.212
33724W        W 5395  19.870  31.845  14.470
33725W        W 5396  11.703   1.028   4.626
33726W        W 5397   4.292  29.439  13.635
33727W        W 5398   0.746  29.003  14.386
33728W        W 5399  10.722  22.120  13.806
33729W        W 5400  16.760  10.292  12.156
33730W        W 5401  38.789  28.191   2.167
33731W        W 5402   3.207  13.878   0.476
33732W        W 5403   8.258  14.226  13.497
33733W        W 5404  24.041  40.788   2.749
33734W        W 5405   7.897  28.466   0.178
33735W        W 5406  38.312  35.290  14.767
33736W        W 5407  30.109  19.617  14.283
33737W        W 5408  37.901  43.778   0.391
33738W        W 5409  13.302  32.480  14.560
33739W        W 5410   5.068  38.315   1.380
33740W        W 5411  42.585  30.986   5.047
33741W        W 5412   7.160  30.155  13.023
33742W        W 5413  16.163  31.096  13.267
33743W        W 5414  37.384  21.131   3.809
33744W        W 5415  28.868  19.693   3.552
33745W        W 5416   5.930  12.318  11.162
33746W        W 5417  21.609  20.400  12.616
33747W        W 5418   4.276   7.666  14.058
33748W        W 5419  38.339   4.491  12.507
33749W        W 5420  29.038  13.651   4.733
33750W        W 5421  13.638  39.835   0.286
33751W        W 5422  44.842  11.721  13.569
33752W        W 5423  40.816  23.090  11.194
33753W        W 5424  32.567  42.913   2.803
33754W        W 5425  41.070   8.931   1.376
33755W        W 5426   9.943   9.350  12.643
33756W        W 5427  30.914   5.454  10.702
33757W        W 5428  11.591  20.098   1.242
33758W        W 5429  22.785  29.484  10.739
33759W        W 5430  18.043   7.910   2.368
33760W        W 5431  39.551  14.592   4.611
33761W        W 5432  40.412  29.539   1.091
33762W        W 5433  30.497  36.805   3.317
33763W        W 5434   6.254  10.774  14.599
33764W        W 5435  32.633   8.593  11.643
33765W        W 5436  24.671  31.956  11.226
33766W        W 5437  43.941  10.986  11.956
33767W        W 5438  12.881   2.079   0.863
33768W        W 5439  32.562  27.610   2.402
33769W        W 5440  44.730  43.311   0.729
33770W        W 5441  32.382  25.911   4.902
33771W        W 5442  24.311  41.564   1.776
33772W        W 5443   7.407  34.522   3.508
33773W        W 5444  18.049   6.967   3.401
33774W        W 5445  18.587  10.583  12.460
33775W        W 5446  28.592  32.146  14.318
33776W        W 5447  32.376  13.058  14.912
33777W        W 5448   6.275  30.601  13.483
33778W        W 5449  19.181  42.114   3.082
33779W        W 5450  35.850  31.379  11.353
33780W        W 5451  29.908  27.523   3.590
33781W        W 5452  21.620   9.106   3.506
33782W        W 5453  13.374  18.937   2.297
33783W        W 5454  40.425   8.021  13.636
33784W        W 5455  14.762  19.499   3.148
33785W        W 5456  27.108  43.446   1.940
33786W        W 5457  14.074  15.164  11.712
33787W        W 5458  31.923  15.203   4.687
33788W        W 5459   7.404  21.360  12.942
33789W        W 5460  28.416  40.975   0.242
33790W        W 5461  18.603  33.613   0.284
33791W        W 5462  13.992  28.281  13.369
33792W        W 5463  12.671  38.766  12.039
33793W        W 5464  10.246  21.667  11.900
33794W        W 5465  14.424   5.666  12.122
33795W        W 5466  38.859  11.793   0.150
33796W        W 5467   2.073  24.780   2.762
33797W        W 5468  21.155   7.904   2.759
33798W        W 5469  16.809  38.252   1.651
33799W        W 5470   8.610  35.903  12.466
33800W        W 5471  38.320  43.529  12.764
33801W        W 5472  14.582  41.897   1.869
33802W        W 5473   8.375  35.414  11.566
33803W        W 5474  35.108  19.184  12.476
33804W        W 5475  41.488  43.439  11.937
33805W        W 5476  40.439  23.975  14.494
33806W        W 5477  30.469   6.428  14.071
33807W        W 5478  43.860  39.277  14.975
33808W        W 5479  15.758  12.744  11.976
33809W        W 5480  35.032  11.335  11.825
33810W        W 5481  36.882  23.613   3.667
33811W        W 5482  34.421  34.490  10.447
33812W        W 5483   4.781  36.662   2.487
33813W        W 5484  36.608   4.057  11.166
33814W        W 5485  17.559  43.077  14.982
33815W        W 5486  39.915   0.260   1.874
33816W        W 5487  37.070  18.665  12.012
33817W        W 5488  24.540  32.323   4.736
33818W        W 5489  42.959  44.323   1.201
33819W        W 5490  20.635   5.427   0.785
33820W        W 5491   2.244   7.789   1.217
33821W        W 5492  26.617  29.677   0.833
33822W        W 5493  28.588  18.995   0.482
33823W        W 5494  16.994  24.150  14.826
33824W        W 5495  15.630  30.109  10.964
33825W        W 5496  13.875  30.092   4.294
33826W        W 5497  21.122  33.744   5.077
33827W        W 5498   1.274  11.451   3.121
33828W        W 5499  15.716   8.402  10.416
33829W        W 5500  21.310  33.942   1.862
33830W        W 5501  42.376  20.766   1.377
33831W        W 5502   3.815  18.853   4.756
33832W        W 5503  43.065  27.970   1.558
33833W        W 5504  31.019  42.111  10.966
33834W        W 5505  39.745  23.871  11.912
33835W        W 5506  18.252  41.951   4.514
33836W        W 5507  28.332  37.856  14.279
33837W        W 5508  14.330  20.105   3.802
33838W        W 5509   4.470   6.522   0.688
33839W        W 5510  10.586  22.180   4.446
33840W        W 5511   1.494  42.022  13.001
33841W        W 5512  18.522  31.845  11.224
33842W        W 5513  33.380   1.197   1.968
33843W        W 5514  42.711  16.247  13.817
33844W        W 5515   5.620   8.791  14.581
33845W        W 5516  11.159  42.990   4.818
33846W        W 5517  23.040   8.414  14.476
33847W        W 5518  22.301  18.694   0.390
33848W        W 5519  19.959  38.039   4.025
33849W        W 5520   9.425  17.584   0.308
33850W        W 5521  19.677   6.175  12.419
33851W        W 5522  19.562  39.094  11.649
33852W        W 5523   3.947  16.126  10.580
33853W        W 5524  39.629  15.681  10.596
33854W        W 5525  40.882  39.323  12.842
33855W        W 5526  22.195  40.573  11.074
33856W        W 5527  30.998  12.168  14.599
33857W        W 5528  26.448  17.716  12.390
33858W        W 5529   8.664  35.418   0.442
33859W        W 5530   9.352  32.401   4.289
33860W        W 5531  24.800  38.540  11.566
33861W        W 5532  42.444  44.058   4.585
33862W        W 5533  22.510   1.555   2.558
33863W        W 5534  42.829  15.603   2.487
33864W        W 5535   2.240  27.056   3.634
33865W        W 5536   1.295  26.980   3.271
33866W        W 5537  40.569  27.406  14.944
33867W        W 5538  34.477  25.665   2.232
33868W        W 5539   4.414  39.508  10.741
33869W        W 5540  34.372  32.022   1.325
33870W        W 5541   2.724  15.119   3.112
33871W        W 5542  28.407  21.716  11.103
33872W        W 5543   6.881  27.454  14.495
33873W        W 5544  28.425   7.219  10.703
33874W        W 5545  37.959  33.441  11.574
33875W        W 5546  41.484  18.532   3.256
33876W        W 5547   1.552  24.438   0.309
33877W        W 5548   5.270  27.856   4.309
33878W        W 5549  24.501  33.058   0.375
33879W        W 5550  37.867  35.820  11.205
33880W        W 5551  36.521   5.278   2.835
33881W        W 5552  29.465  30.056  14.348
33882W        W 5553  32.064   7.193  10.475
33883W        W 5554  43.024   4.292   3.703
33884W        W 5555   1.404  43.185   3.809
33885W        W 5556   8.174  41.167  13.557
33886W        W 5557  11.934   7.692   1.849
33887W        W 5558  39.813   6.907  12.616
33888W        W 5559  12.269  21.304  13.923
33889W        W 5560  27.053  37.357  14.434
33890W        W 5561  29.125  20.606  13.998
33891W        W 5562  31.531  20.704  12.727
33892W        W 5563  34.123  21.524  11.770
33893W        W 5564  14.402  11.918  11.602
33894W        W 5565  11.659  42.908  14.514
33895W        W 5566   0.857  15.474  11.644
33896W        W 5567  23.637  33.200   4.218
33897W        W 5568  26.708  39.988  12.586
33898W        W 5569  26.283   6.208   4.177
33899W        W 5570  35.813  11.541  12.929
33900W        W 5571  14.346  31.403  14.716
33901W        W 5572  11.914  32.491   2.742
33902W        W 5573  39.409  34.219   0.760
33903W        W 5574  14.143  28.481   2.788
33904W        W 5575  31.480   9.113   1.201
33905W        W 5576   9.806  21.164  11.187
33906W        W 5577  28.213  33.983   3.010
33907W        W 5578  43.514  12.905   2.828
33908W        W 5579  23.850  35.449  13.957
33909W        W 5580  26.600  22.730  11.559
33910W        W 5581   0.872  23.647   2.282
33911W        W 5582   5.632  15.695  11.786
33912W        W 5583  25.500  36.970  11.076
33913W        W 5584  17.287  33.962  12.485
33914W        W 5585  17.108  16.107  11.112
33915W        W 5586  15.593  21.523  12.893
33916W        W 5587  44.589  43.414  11.974
33917W        W 5588  34.551  32.438   0.107
33918W        W 5589   8.018   8.300  12.677
33919W        W 5590  18.386  13.118   4.694
33920W        W 5591   0.906  31.403  14.755
33921W        W 5592  27.259   1.311   2.689
33922W        W 5593  39.552   5.791   4.882
33923W        W 5594  43.018  28.849  11.577
33924W        W 5595  12.247  16.131  11.086
33925W        W 5596   3.924  42.802  11.479
33926W        W 5597  39.404  40.450   1.843
33927W        W 5598  28.695   9.837  12.935
33928W        W 5599  16.522  15.483   2.865
33929W        W 5600  13.274  35.902  11.931
33930W        W 5601  31.047   5.363   1.513
33931W        W 5602  13.070   6.351   4.317
33932W        W 5603  26.483  11.247   3.123
33933W        W 5604  44.537  20.585  13.607
33934W        W 5605  33.285  43.515   2.940
33935W        W 5606  12.744  35.606  13.599
33936W        W 5607   8.795  28.891   4.320
33937W        W 5608  24.073   8.113  11.663
33938W        W 5609  29.607  20.580  12.660
33939W        W 5610   5.269  17.603  13.688
33940W        W 5611  14.463  36.368   4.355
33941W        W 5612  20.689  22.536   2.210
33942W        W 5613  35.844  43.368  14.765
33943W        W 5614  34.127  12.756   0.517
33944W        W 5615  26.701  33.377  14.313
33945W        W 5616  24.231  25.985  12.488
33946W        W 5617  20.905  26.344  11.479
33947W        W 5618  41.431  28.476   1.158
33948W        W 5619  32.504   0.011   0.911
33949W        W 5620   0.873   3.557   2.737
33950W        W 5621  23.635  31.622   1.628
33951W        W 5622  33.989  27.197   4.017
33952W        W 5623   3.908  19.050  11.915
33953W        W 5624  25.980  18.130  12.996
33954W        W 5625   9.171  28.542   4.405
33955W        W 5626  20.304  31.009  13.890
33956W        W 5627  44.121  33.832  14.786
33957W        W 5628  29.868   5.837   1.780
33958W        W 5629  38.970   7.387  12.497
33959W        W 5630  18.349  31.408   1.397
33960W        W 5631  21.813  30.856  11.234
33961W        W 5632  10.298  23.663  14.296
33962W        W 5633  38.807  34.770  14.572
33963W        W 5634   3.699  44.004   3.046
33964W        W 5635  21.845  43.165  13.315
33965W        W 5636  38.969   3.040  11.129
33966W        W 5637  44.882  10.526  12.682
33967W        W 5638  26.793   6.159   4.096
33968W        W 5639   9.829  10.712   2.646
33969W        W 5640  21.058  20.761  11.713
33970W        W 5641   0.005  28.242   3.092
33971W        W 5642  10.304  20.233   1.844
33972W        W 5643  19.120   8.424   1.425
33973W        W 5644  38.918   5.005   0.922
33974W        W 5645  18.326  41.082   3.223
33975W        W 5646  40.641  41.293   1.812
33976W        W 5647   8.837  25.911  11.524
33977W        W 5648  40.351  16.993   2.364
33978W        W 5649  22.507  33.120  12.795
33979W        W 5650   2.753  26.394   3.197
33980W        W 5651  40.439  34.224  10.805
33981W        W 5652   8.329  30.470   0.669
33982W        W 5653  26.881  19.649  11.062
33983W        W 5654  24.725  13.255  11.675
33984W        W 5655  10.181   6.690   0.148
33985W        W 5656  14.172   1.296   3.823
33986W        W 5657  14.621  20.930   3.376
33987W        W 5658   9.239  43.992   3.250
33988W        W 5659  12.769  14.394  11.969
33989W        W 5660  25.511  13.379   2.174
33990W        W 5661  33.571  15.883   5.121
33991W        W 5662  25.241   3.269   1.777
33992W        W 5663  42.977  40.045  10.713
33993W        W 5664  26.431   0.047   0.399
33994W        W 5665  21.310  44.853   5.005
33995W        W 5666  41.945  35.324  12.424
33996W        W 5667  11.082  31.799   4.334
33997W        W 5668  18.480  13.568   0.255
33998W        W 5669  13.663  32.943  13.437
33999W        W 5670   6.776   4.998   1.877
34000W        W 5671  21.417  22.115   3.703
34001W        W 5672  14.632  11.342   4.579
34002W        W 5673  42.848   8.996   2.921
34003W        W 5674   4.454  17.211   1.777
34004W        W 5675  20.628   7.143  12.611
34005W        W 5676  34.976  22.578   2.796
34006W        W 5677  25.120   7.892  10.520
34007W        W 5678  23.224  14.979  14.727
34008W        W 5679  29.955  17.535   3.757
34009W        W 5680   7.867  43.847   4.585
34010W        W 5681   3.254   9.931   2.280
34011W        W 5682   2.707  28.580  13.460
34012W        W 5683  35.119  12.343  12.473
34013W        W 5684  33.859  14.727   2.832
34014W        W 5685   1.181  27.893  14.867
34015W        W 5686  19.309  14.111  13.192
34016W        W 5687  30.768  40.203  12.052
34017W        W 5688  42.515   4.382  13.751
34018W        W 5689  32.283  11.168  11.587
34019W        W 5690  16.166  37.080  10.461
34020W        W 5691  40.987   9.117  14.516
34021W        W 5692  36.675  10.211   4.639
34022W        W 5693  20.236  27.741  14.953
34023W        W 5694   5.746  11.518  13.259
34024W        W 5695  34.935   8.487   2.515
34025W        W 5696  31.982  34.765   2.237
34026W        W 5697  20.602  25.671  12.140
34027W        W 5698   6.633  42.583  13.562
34028W        W 5699  11.314   2.228   4.173
34029W        W 5700   4.397  44.426  10.881
34030W        W 5701  26.952  31.906  10.552
34031W        W 5702  32.128   4.217  10.752
34032W        W 5703  21.987   0.301  11.033
34033W        W 5704  20.856  40.912   1.443
34034W        W 5705  15.892   6.395   2.300
34035W        W 5706  27.959  43.450   0.692
34036W        W 5707  33.586  16.430   1.815
34037W        W 5708  23.717  14.519   1.360
34038W        W 5709  20.422  28.083   2.718
34039W        W 5710  26.518  37.486  12.377
34040W        W 5711  31.323  14.587   2.644
34041W        W 5712   6.462  41.066   3.258
34042W        W 5713   3.818  22.567   3.165
34043W        W 5714  24.705  10.608   4.219
34044W        W 5715  16.675  17.842  14.303
34045W        W 5716  37.216  21.704   0.519
34046W        W 5717  34.281  42.968   1.860
34047W        W 5718  29.383  28.478   2.787
34048W        W 5719  10.676  24.008   3.645
34049W        W 5720   4.001  14.692   2.295
34050W        W 5721  30.195   2.295   0.224
34051W        W 5722  14.567  23.570   0.033
34052W        W 5723  18.470  29.444   2.335
34053W        W 5724  36.819  10.469   3.620
34054W        W 5725  39.556  39.254  13.529
34055W        W 5726  42.385   7.420   3.228
34056W        W 5727  17.440  13.410  10.033
34057W        W 5728   5.878   9.677   3.602
34058W        W 5729  12.599  28.681  12.491
34059W        W 5730   2.248  40.256   1.948
34060W        W 5731  44.220   7.213   4.469
34061W        W 5732  44.945  10.820   4.685
34062W        W 5733  26.857  38.322   0.755
34063W        W 5734  33.025  40.082   5.105
34064W        W 5735  12.943  11.673   0.866
34065W        W 5736  44.404  26.486   0.785
34066W        W 5737   9.778  39.344  11.900
34067W        W 5738  31.596  23.615  10.886
34068W        W 5739   4.875   9.853   3.270
34069W        W 5740  34.349  19.189   0.292
34070W        W 5741  35.905  38.107   4.172
34071W        W 5742  39.671  15.620  13.594
34072W        W 5743  31.675  35.560   1.771
34073W        W 5744  26.851   2.441   3.215
34074W        W 5745  14.069  18.793  11.161
34075W        W 5746  33.103  20.807   2.939
34076W        W 5747  12.658  43.001   1.418
34077W        W 5748  30.385   8.055   0.744
34078W        W 5749  34.849   5.722   1.770
34079W        W 5750  10.703  13.607   2.552
34080W        W 5751   5.985   5.816   2.702
34081W        W 5752   5.770  39.333   2.096
34082W        W 5753  40.774  29.991   3.796
34083W        W 5754  13.254  11.617   0.344
34084W        W 5755  20.631  14.574   3.702
34085W        W 5756  42.823  27.899  11.595
34086W        W 5757  18.234  41.541  14.350
34087W        W 5758  36.359  24.608   2.442
34088W        W 5759  33.415   0.855   1.441
34089W        W 5760  24.545  17.810  14.021
34090W        W 5761  29.153  13.387   3.292
34091W        W 5762  34.320  41.944   2.558
34092W        W 5763   5.356  25.451  14.424
34093W        W 5764  42.795  38.375  10.206
34094W        W 5765  25.214  42.710  10.328
34095W        W 5766  37.852   2.866   3.184
34096W        W 5767  28.609  43.373   4.496
34097W        W 5768  39.146  43.585   0.571
34098W        W 5769  43.020  37.071  11.484
34099W        W 5770   1.287   6.205   2.427
34100W        W 5771  44.058  23.309  14.487
34101W        W 5772  34.882  24.050   1.130
34102W        W 5773  32.630  32.012  11.785
34103W        W 5774  30.393   0.210  11.171
34104W        W 5775  11.870  34.842   9.917
34105W        W 5776  29.881   5.866   0.753
34106W        W 5777  11.757  34.882   2.278
34107W        W 5778  37.579  28.911  11.993
34108W        W 5779  37.503  24.582  14.481
34109W        W 5780  35.152  32.754  14.280
34110W        W 5781  26.498  33.454  11.829
34111W        W 5782   0.487  13.284   3.400
34112W        W 5783  24.626   2.861   3.259
34113W        W 5784   0.772  21.046   4.130
34114W        W 5785  30.585   4.736  13.896
34115W        W 5786  17.791  23.325  14.655
34116W        W 5787  22.639  26.163  13.292
34117W        W 5788  22.696  25.044  11.579
34118W        W 5789  40.074  37.068   4.709
34119W        W 5790  41.229  32.898  14.617
34120W        W 5791  24.522   3.565  13.412
34121W        W 5792  15.264   8.308  14.906
34122W        W 5793  11.268  19.730  13.653
34123W        W 5794  34.850  26.496   2.248
34124W        W 5795  37.413   0.785   2.690
34125W        W 5796  29.628  10.219   1.824
34126W        W 5797  26.982  13.188  12.022
34127W        W 5798  28.185   1.213   3.798
34128W        W 5799   3.904  30.400   3.327
34129W        W 5800  21.671  20.773   4.589
34130W        W 5801  27.193  39.227  10.806
34131W        W 5802  33.319  38.031  14.457
34132W        W 5803  25.425  21.029  10.963
34133W        W 5804  37.734  33.015   1.421
34134W        W 5805  31.890  43.960   1.885
34135W        W 5806  21.828  34.691   1.891
34136W        W 5807  25.203   1.567   0.273
34137W        W 5808  32.637  16.585   1.392
34138W        W 5809  32.872  33.551   0.350
34139W        W 5810   3.677  16.884  11.856
34140W        W 5811   2.275  29.578  14.957
34141W        W 5812  27.039  32.965   3.027
34142W        W 5813  44.559  44.483  13.765
34143W        W 5814  10.909  26.637   4.253
34144W        W 5815  15.323  35.565  13.890
34145W        W 5816  28.908  40.231   4.311
34146W        W 5817  43.635  41.128   0.847
34147W        W 5818  13.460  43.888   4.048
34148W        W 5819  11.353  38.002   2.731
34149W        W 5820   4.932   1.319   3.326
34150W        W 5821  11.237  40.702  10.665
34151W        W 5822  24.746  12.804  10.681
34152W        W 5823  18.193   8.717   3.581
34153W        W 5824  10.224  41.547   2.315
34154W        W 5825  16.234  38.858   0.197
34155W        W 5826  41.847  33.897  10.737
34156W        W 5827  21.236  25.482   2.331
34157W        W 5828  43.320  12.713  14.939
34158W        W 5829  22.758  36.618   3.329
34159W        W 5830  24.979  15.389   2.804
34160W        W 5831  14.710  38.718   0.943
34161W        W 5832   7.737   6.261   0.375
34162W        W 5833  40.822  10.889  12.926
34163W        W 5834  20.700  17.128   4.338
34164W        W 5835  12.350  11.918   3.277
34165W        W 5836  33.128  21.811  10.391
34166W        W 5837  41.350  38.896   2.216
34167W        W 5838  40.948  16.870   0.450
34168W        W 5839   2.208  11.627  13.437
34169W        W 5840  37.295  35.933   4.110
34170W        W 5841  11.578  35.505  11.591
34171W        W 5842  35.028   6.710  13.425
34172W        W 5843   5.983  18.110   2.805
34173W        W 5844  27.805  11.766   2.228
34174W        W 5845  28.132  11.187   3.746
34175W        W 5846   7.450  27.631   0.274
34176W        W 5847  27.150   9.094   5.021
34177W        W 5848  17.277  11.183  12.947
34178W        W 5849  32.300  44.553  12.309
34179W        W 5850  15.943  18.167   4.266
34180W        W 5851  32.439  14.801  10.704
34181W        W 5852   2.342   7.224   1.287
34182W        W 5853  29.918  30.118   3.333
34183W        W 5854  16.250   5.401   3.545
34184W        W 5855   7.286  26.007  14.001
34185W        W 5856  41.610  40.515  14.999
34186W        W 5857  34.024  12.764  13.832
34187W        W 5858   6.901   4.859  14.877
34188W        W 5859   5.880  14.629  13.128
34189W        W 5860  29.619  12.751   0.235
34190W        W 5861  38.457  22.153  13.781
34191W        W 5862  39.087  20.253  11.025
34192W        W 5863  34.914   4.287   1.832
34193W        W 5864   4.449   4.682  12.224
34194W        W 5865  22.085  27.687   1.883
34195W        W 5866  44.362  20.771  11.982
34196W        W 5867  27.553  26.145   4.590
34197W        W 5868  31.563  12.800   3.305
34198W        W 5869  26.445  14.953  14.889
34199W        W 5870   3.868  14.352   4.964
34200W        W 5871  25.164  31.991  14.829
34201W        W 5872  30.831  18.425   4.146
34202W        W 5873   0.809  27.807   0.248
34203W        W 5874  31.113  33.324  12.604
34204W        W 5875  37.918  33.476  13.570
34205W        W 5876  34.811  28.665   0.209
34206W        W 5877   2.503   8.640   5.187
34207W        W 5878  44.812  16.795   0.266
34208W        W 5879  23.651  21.283  10.824
34209W        W 5880  11.936   4.224   0.832
34210W        W 5881   8.350  19.194  12.018
34211W        W 5882  12.991  31.023   2.213
34212W        W 5883  29.923  12.637  10.700
34213W        W 5884  34.618  10.697   4.152
34214W        W 5885  16.559  12.955   5.190
34215W        W 5886   5.960   5.641  12.013
34216W        W 5887  37.952  38.678  10.739
34217W        W 5888  23.775  14.588  10.746
34218W        W 5889  34.674  12.640   0.566
34219W        W 5890   7.059  21.461   2.634
34220W        W 5891  16.889  24.846  12.529
34221W        W 5892  38.494  31.418   2.652
34222W        W 5893  16.619   6.468   1.750
34223W        W 5894  13.828   6.373  11.908
34224W        W 5895  36.338  27.918   2.417
34225W        W 5896  28.109  17.226  12.403
34226W        W 5897   0.563  36.059   4.176
34227W        W 5898   4.542  40.809   3.343
34228W        W 5899  11.619   3.111  10.470
34229W        W 5900  43.504  21.091  10.980
34230W        W 5901  41.768  38.913   0.320
34231W        W 5902   3.790   5.138   2.917
34232W        W 5903  31.037   7.755  11.720
34233W        W 5904  12.081  16.445   2.185
34234W        W 5905  27.920  34.426  11.629
34235W        W 5906  38.444  36.502  11.393
34236W        W 5907  38.331  16.013   3.626
34237W        W 5908   2.815   8.008   2.324
34238W        W 5909  41.050  18.529  13.962
34239W        W 5910  23.757   4.949  12.015
34240W        W 5911   2.502  17.070   3.258
34241W        W 5912  44.924  42.328   1.409
34242W        W 5913  25.726  36.943   4.639
34243W        W 5914  13.197   3.710   2.609
34244W        W 5915  20.618   9.397  13.549
34245W        W 5916  33.341  34.978   1.876
34246W        W 5917  35.088  24.656  11.161
34247W        W 5918  12.378  17.663   1.759
34248W        W 5919  32.729   8.981  14.516
34249W        W 5920  33.195   4.929  10.163
34250W        W 5921  32.950  40.747  11.508
34251W        W 5922  31.024  39.329   3.742
34252W        W 5923   6.921  32.688   2.485
34253W        W 5924  25.235  12.183  13.430
34254W        W 5925  12.307  10.913  11.091
34255W        W 5926  12.852   7.816   0.938
34256W        W 5927  38.919  25.779  11.595
34257W        W 5928   0.928  10.670   4.953
34258W        W 5929   5.343  29.395   1.809
34259W        W 5930   0.636  18.633   1.245
34260W        W 5931  14.499  29.468   1.713
34261W        W 5932  26.101  14.804  11.197
34262W        W 5933   3.481  21.187  13.752
34263W        W 5934   1.930   0.614   0.695
34264W        W 5935  38.366  24.865   2.230
34265W        W 5936   7.658  20.148   2.308
34266W        W 5937  13.589  24.789   0.972
34267W        W 5938  36.995   3.505   0.748
34268W        W 5939  33.806   7.863   2.036
34269W        W 5940  43.394   0.861  13.963
34270W        W 5941  44.360  19.235  13.899
34271W        W 5942  12.265  22.234   0.774
34272W        W 5943  40.033  35.659   4.910
34273W        W 5944  28.247   2.714  12.114
34274W        W 5945   4.230   8.801   4.543
34275W        W 5946  17.173   9.302  10.691
34276W        W 5947  44.274   0.554   3.749
34277W        W 5948   5.243  33.634  10.568
34278W        W 5949   0.505  16.884  14.020
34279W        W 5950  30.659  41.937   5.059
34280W        W 5951  15.592  10.830   4.410
34281W        W 5952  17.048  43.273   4.099
34282W        W 5953   8.685  26.712  14.894
34283W        W 5954  24.123  43.287  14.918
34284W        W 5955  27.654  28.250  11.578
34285W        W 5956  26.475  42.292   0.794
34286W        W 5957  12.669  30.918  13.917
34287W        W 5958  31.891  25.734   0.663
34288W        W 5959  31.134   4.190  14.400
34289W        W 5960  29.377  14.392  10.343
34290W        W 5961  18.287   4.863  13.123
34291W        W 5962  12.600  19.011   1.397
34292W        W 5963  21.745  12.253  11.153
34293W        W 5964  29.633  32.035   5.069
34294W        W 5965  17.122  37.972  11.187
34295W        W 5966  28.578  38.980  14.272
34296W        W 5967  10.380   0.296  10.571
34297W        W 5968  21.218  20.750   1.226
34298W        W 5969   8.105  26.541  12.433
34299W        W 5970  19.322  29.089  10.757
34300W        W 5971  35.833  17.648  11.678
34301W        W 5972  35.723  38.607   3.235
34302W        W 5973  38.727  22.089  10.741
34303W        W 5974  41.678  38.894  11.100
34304W        W 5975  44.214  32.524  14.944
34305W        W 5976  14.749  44.542   3.310
34306W        W 5977   3.669  20.592  12.376
34307W        W 5978  33.369   0.028  12.363
34308W        W 5979   1.024  25.996   2.253
34309W        W 5980  44.391  22.149   5.351
34310W        W 5981  27.562  12.603   1.660
34311W        W 5982  31.591   1.312   2.796
34312W        W 5983  25.441   4.933   0.775
34313W        W 5984   6.357  10.814  10.653
34314W        W 5985  16.859  10.693  11.853
34315W        W 5986  18.055  23.971  14.043
34316W        W 5987  28.362  33.904   2.079
34317W        W 5988  29.399  18.601   0.519
34318W        W 5989  33.425  26.165   3.112
34319W        W 5990  10.679   3.750  14.317
34320W        W 5991  25.563  36.194  13.735
34321W        W 5992   6.724   1.112  13.869
34322W        W 5993  43.581  32.301  14.330
34323W        W 5994  20.407  15.217  10.787
34324W        W 5995  44.379  38.266   1.306
34325W        W 5996  12.807  36.811  11.679
34326W        W 5997  24.023  10.920  13.389
34327W        W 5998  44.917  19.756   1.967
34328W        W 5999  29.220  38.841  14.604
34329W        W 6000  35.919   5.358  13.821
34330W        W 6001   7.768  11.704  14.465
34331W        W 6002   8.370  22.033  14.777
34332W        W 6003  42.530   3.232  10.787
34333W        W 6004  35.380  40.835  10.368
34334W        W 6005  21.141  33.917   0.201
34335W        W 6006   6.716  40.608  11.623
34336W        W 6007  21.032  31.698  13.078
34337W        W 6008  38.079   0.242   0.080
34338W        W 6009  40.092  23.463  11.562
34339W        W 6010  27.097   2.045  11.547
34340W        W 6011  29.065  36.189   1.724
34341W        W 6012  29.366  25.301  13.873
34342W        W 6013  39.086  25.099   1.183
34343W        W 6014   8.922  40.480   0.417
34344W        W 6015  41.146   5.863   4.885
34345W        W 6016   2.491  35.482   2.061
34346W        W 6017  40.441  21.016  11.504
34347W        W 6018  26.472   3.863  13.424
34348W        W 6019  23.319  40.428   4.337
34349W        W 6020  18.012  27.157   3.114
34350W        W 6021  43.946  37.804  13.857
34351W        W 6022  34.858  20.085  14.893
34352W        W 6023  14.864   1.487  10.319
34353W        W 6024   5.710  27.186   2.002
34354W        W 6025  27.453  12.809   3.687
34355W        W 6026  37.969  11.256   1.502
34356W        W 6027  18.353  38.653  13.460
34357W        W 6028  20.701  27.487  10.343
34358W        W 6029  29.179  12.258  14.330
34359W        W 6030  15.593  43.445   4.423
34360W        W 6031  42.404  44.409  13.994
34361W        W 6032  32.459  44.680   2.327
34362W        W 6033  13.422  15.889   3.838
34363W        W 6034  32.638  38.609  11.531
34364W        W 6035  40.565  10.650   0.529
34365W        W 6036  44.344  30.474  13.424
34366W        W 6037  21.609  14.410  13.587
34367W        W 6038  28.888  26.931  12.521
34368W        W 6039  38.008  40.582  13.717
34369W        W 6040  20.296  16.682   3.659
34370W        W 6041  14.454  23.176   0.491
34371W        W 6042  11.272  21.704  12.630
34372W        W 6043  38.946  24.886  14.552
34373W        W 6044  36.341   4.203   0.954
34374W        W 6045   6.662  20.101  14.418
34375W        W 6046  15.188  44.010   4.548
34376W        W 6047  36.071  34.394  14.956
34377W        W 6048  26.769   6.768   5.391
34378W        W 6049  26.339  21.490  11.140
34379W        W 6050  25.754  33.402  11.473
34380W        W 6051   3.215  20.609   3.768
34381W        W 6052  21.042  36.263   0.711
34382W        W 6053  30.052  18.741  14.614
34383W        W 6054  26.488  33.886   3.930
34384W        W 6055  41.367  33.395  13.835
34385W        W 6056  17.795  44.954  12.583
34386W        W 6057  23.923  41.346   0.977
34387W        W 6058   1.278  31.654   2.898
34388W        W 6059   4.795   8.297   1.692
34389W        W 6060   3.090  35.820   4.705
34390W        W 6061  23.956  22.534  14.368
34391W        W 6062  12.653  40.674  12.170
34392W        W 6063  44.952   6.976  10.295
34393W        W 6064  17.661  18.798   2.723
34394W        W 6065  34.369  43.208   4.123
34395W        W 6066  16.216  27.179  11.842
34396W        W 6067  22.100  41.512  12.843
34397W        W 6068  14.741  35.418  13.540
34398W        W 6069  27.862   7.395  13.508
34399W        W 6070  37.448  35.779   0.770
34400W        W 6071  43.202  44.744  11.895
34401W        W 6072  32.629  25.939  13.456
34402W        W 6073  44.956  41.595   1.886
34403W        W 6074  25.133  37.340  11.257
34404W        W 6075  17.801  15.536   0.192
34405W        W 6076  17.168  42.648  11.834
34406W        W 6077  43.445  32.619   1.169
34407W        W 6078   1.655  15.757   4.679
34408W        W 6079  38.132   6.269  14.064
34409W        W 6080  22.184   6.351  12.006
34410W        W 6081  27.486  28.705   2.278
34411W        W 6082   0.272  15.932   0.870
34412W        W 6083  19.680  30.113  12.159
34413W        W 6084  20.002   0.790   4.631
34414W        W 6085  35.074   9.289   4.582
34415W        W 6086  21.346  17.275  14.427
34416W        W 6087  23.280   7.113   2.036
34417W        W 6088  39.009  43.265   0.990
34418W        W 6089   8.915  16.310  14.899
34419W        W 6090  37.385  40.435   1.458
34420W        W 6091  26.594  14.298  12.130
34421W        W 6092  10.154  26.497  11.599
34422W        W 6093  19.065  18.073   1.295
34423W        W 6094   4.622  34.422   5.036
34424W        W 6095  12.244  33.078   1.390
34425W        W 6096  40.829   7.628   2.650
34426W        W 6097  28.941  19.218   4.743
34427W        W 6098  19.961  12.806  14.783
34428W        W 6099  11.348  40.557  13.479
34429W        W 6100  44.046  22.631  10.696
34430W        W 6101   4.852  38.606   3.607
34431W        W 6102  18.779  11.413  12.861
34432W        W 6103  23.685  22.811  12.337
34433W        W 6104  29.337  16.793  10.769
34434W        W 6105  12.355  13.127  11.457
34435W        W 6106  21.116  27.081  10.988
34436W        W 6107  12.795  14.320  14.455
34437W        W 6108   5.198   0.694   0.249
34438W        W 6109  42.011  20.736  10.871
34439W        W 6110  42.924  11.935   3.545
34440W        W 6111  24.489  37.903   4.899
34441W        W 6112  41.825  37.535   4.612
34442W        W 6113  15.090  27.482   2.461
34443W        W 6114  32.686  10.883   0.183
34444W        W 6115  27.914  33.372  11.937
34445W        W 6116  40.985  25.416  10.595
34446W        W 6117  12.831  16.693   3.856
34447W        W 6118  40.251  11.862   2.303
34448W        W 6119  30.110  30.125   1.059
34449W        W 6120  19.231  10.749   4.440
34450W        W 6121   8.190  23.426  11.606
34451W        W 6122   5.737  35.173  14.850
34452W        W 6123  15.997  38.599   2.589
34453W        W 6124  36.905  42.789   2.291
34454W        W 6125  32.635  24.379  13.440
34455W        W 6126  23.473   9.279  13.374
34456W        W 6127   9.596  42.390  10.874
34457W        W 6128  11.634  36.279   1.663
34458W        W 6129  17.302  28.078   3.818
34459W        W 6130  16.769  10.895  13.911
34460W        W 6131  41.612  33.438  14.287
34461W        W 6132   7.305  42.077   2.673
34462W        W 6133  24.522  42.895   2.164
34463W        W 6134  13.308  26.508  11.975
34464W        W 6135  19.731   7.196  13.323
34465W        W 6136  20.745  28.882  10.631
34466W        W 6137  22.796  12.173   0.798
34467W        W 6138  37.193  30.540   2.481
34468W        W 6139  21.220  33.053   1.036
34469W        W 6140  37.171  31.158  11.141
34470W        W 6141  20.734  12.655  11.882
34471W        W 6142  22.404  11.052  12.455
34472W        W 6143  16.231   8.062  12.822
34473W        W 6144   4.894  15.256   0.247
34474W        W 6145  13.451  38.145  13.056
34475W        W 6146  14.168   8.794  14.424
34476W        W 6147  39.862  16.854  14.050
34477W        W 6148  20.704  43.944   4.787
34478W        W 6149  43.167   5.785   4.546
34479W        W 6150  30.949  23.612  13.625
34480W        W 6151  36.963  39.257   1.325
34481W        W 6152  14.317   0.722  12.849
34482W        W 6153  16.365  40.327  14.069
34483W        W 6154  10.071   6.468   1.426
34484W        W 6155  33.536  40.051  14.920
34485W        W 6156  27.425  32.881  10.814
34486W        W 6157  24.164   7.868  13.422
34487W        W 6158   9.222  36.209  10.711
34488W        W 6159   9.335   3.480  14.520
34489W        W 6160   9.344  11.200  13.274
34490W        W 6161  24.762   2.559  13.543
34491W        W 6162  43.087   2.368   3.224
34492W        W 6163   3.305  29.375  13.516
34493W        W 6164   5.390  12.819  14.310
34494W        W 6165  37.700  16.390  14.020
34495W        W 6166  11.854   5.385  13.327
34496W        W 6167  21.981  22.191  10.618
34497W        W 6168  41.306  42.493  13.423
34498W        W 6169  41.893  21.164  14.502
34499W        W 6170  35.445  34.095  12.563
34500W        W 6171  43.285   1.845  14.744
34501W        W 6172  34.438  25.459  12.161
34502W        W 6173   6.274  15.118  13.784
34503W        W 6174   1.002  26.186   1.231
34504W        W 6175  11.371  26.223  13.321
34505W        W 6176  36.117  37.543  11.504
34506W        W 6177  26.232  19.964   4.637
34507W        W 6178  41.779   6.111  13.453
34508W        W 6179  13.278  41.701   2.112
34509W        W 6180  32.700  35.993   4.046
34510W        W 6181  25.485   4.700   3.374
34511W        W 6182  22.714   4.953  13.763
34512W        W 6183   7.853  37.475   2.382
34513W        W 6184  30.408  22.537  12.600
34514W        W 6185  25.571  35.508  14.368
34515W        W 6186   0.909  21.030   2.740
34516W        W 6187   9.919  10.460   1.574
34517W        W 6188   3.164  43.044  11.083
34518W        W 6189  35.381   9.421   3.259
34519W        W 6190  16.552  19.145  11.549
34520W        W 6191   4.103  21.502  12.650
34521W        W 6192  27.450  35.474  14.735
34522W        W 6193  21.547  26.935   3.668
34523W        W 6194  37.343  12.285   2.282
34524W        W 6195  41.994  30.916   3.874
34525W        W 6196   9.235  17.677   4.111
34526W        W 6197  13.399  38.089  11.219
34527W        W 6198  19.145  44.891  12.172
34528W        W 6199   4.913  19.960  11.990
34529W        W 6200  41.283  21.097  11.084
34530W        W 6201  36.572  30.677   0.240
34531W        W 6202  12.367  22.552  12.849
34532W        W 6203   8.400  17.507   1.519
34533W        W 6204   5.608  20.572   0.660
34534W        W 6205  30.365   4.608   2.721
34535W        W 6206   2.985  17.232  14.025
34536W        W 6207  43.928  10.298   1.293
34537W        W 6208   0.900  17.704  12.151
34538W        W 6209  14.602  37.167   2.818
34539W        W 6210  39.305   8.854  10.446
34540W        W 6211  35.452   8.305   1.766
34541W        W 6212  11.107  13.733   1.595
34542W        W 6213  11.389   9.645  10.733
34543W        W 6214  31.662  26.094   0.045
34544W        W 6215   6.753  36.154   2.655
34545W        W 6216  35.527  29.481   4.866
34546W        W 6217  18.288  22.023  11.177
34547W        W 6218   0.002  22.790   5.095
34548W        W 6219  26.009  42.454  13.988
34549W        W 6220  13.391  33.322   1.028
34550W        W 6221  17.761  14.137   5.209
34551W        W 6222  39.418  27.213   3.851
34552W        W 6223  32.443   4.479  12.668
34553W        W 6224  13.852  19.323   3.253
34554W        W 6225  23.550  15.424  13.554
34555W        W 6226   8.583  41.447  14.403
34556W        W 6227  21.539   8.286  14.011
34557W        W 6228  42.267  20.683  13.178
34558W        W 6229  13.806  14.756  10.659
34559W        W 6230  37.992  34.144   1.134
34560W        W 6231  12.247  37.570   4.245
34561W        W 6232  23.128  38.518  10.970
34562W        W 6233  18.352  40.284   1.911
34563W        W 6234  42.399  25.987  12.624
34564W        W 6235   9.838  25.603  11.567
34565W        W 6236  23.590   8.383   4.248
34566W        W 6237   6.394   4.615  13.004
34567W        W 6238  15.220  40.947   0.880
34568W        W 6239   7.258  24.152  13.474
34569W        W 6240  12.620  35.935   0.884
34570W        W 6241  16.000  39.488  13.794
34571W        W 6242  29.212  15.376  14.818
34572W        W 6243  11.209  31.111   3.038
34573W        W 6244  19.568  20.092   1.198
34574W        W 6245  39.997   1.005   1.431
34575W        W 6246  17.030  41.917  10.751
34576W        W 6247  14.147  10.689  14.867
34577W        W 6248  17.783  41.406  11.026
34578W        W 6249  40.737  31.618   2.181
34579W        W 6250  27.445  13.923  11.210
34580W        W 6251   6.288  28.414   2.739
34581W        W 6252  43.344  38.713  13.965
34582W        W 6253  19.740  25.564   4.678
34583W        W 6254  31.713  32.059   1.763
34584W        W 6255  14.265   6.025  13.474
34585W        W 6256   8.978  23.207  12.680
34586W        W 6257  41.839  28.718  13.046
34587W        W 6258  21.690  29.971  12.358
34588W        W 6259  18.001  19.053   4.022
34589W        W 6260   2.715  36.598  13.419
34590W        W 6261  15.062   2.264   1.352
34591W        W 6262   6.134  31.535   3.934
34592W        W 6263  21.769  13.678  14.436
34593W        W 6264  27.181  39.371   0.705
34594W        W 6265  18.584  33.594   2.270
34595W        W 6266  19.274  43.813  13.111
34596W        W 6267   3.848  19.592  13.298
34597W        W 6268  34.774  30.251  12.627
34598W        W 6269   7.122  40.396   4.084
34599W        W 6270  35.971  27.961  10.011
34600W        W 6271  35.458  29.184   2.440
34601W        W 6272  11.654  21.409  12.809
34602W        W 6273  37.590  19.919  14.701
34603W        W 6274  36.061  19.234  14.325
34604W        W 6275  12.071  41.482  14.937
34605W        W 6276  39.987  37.271   1.469
34606W        W 6277   5.760   5.700   3.559
34607W        W 6278  13.322  35.012  14.377
34608W        W 6279  21.553   8.129   1.137
34609W        W 6280  36.992  36.529  12.846
34610W        W 6281  42.061  40.528   4.238
34611W        W 6282  35.887  23.023  13.612
34612W        W 6283   3.214  11.339  14.429
34613W        W 6284  18.173  14.024   1.791
34614W        W 6285  30.442   8.665  11.447
34615W        W 6286   7.680  28.790  14.200
34616W        W 6287  27.582  37.513   4.542
34617W        W 6288   8.817  11.680  12.125
34618W        W 6289   3.914  24.286  13.664
34619W        W 6290  13.371   3.783   3.096
34620W        W 6291  18.695  12.832   5.005
34621W        W 6292  43.204  39.546   1.804
34622W        W 6293  27.818  29.083  13.054
34623W        W 6294   6.384   1.700  12.563
34624W        W 6295  31.507  38.512   2.635
34625W        W 6296  11.164   3.224   2.423
34626W        W 6297  27.023   5.850  12.960
34627W        W 6298  37.562  14.488  12.748
34628W        W 6299   6.960  29.036   1.874
34629W        W 6300   2.135  14.725  11.436
34630W        W 6301  25.887  43.051   1.833
34631W        W 6302   9.797  41.753   4.341
34632W        W 6303  43.274  36.879   1.821
34633W        W 6304   4.008  24.981  12.997
34634W        W 6305  28.501  10.287   2.548
34635W        W 6306  11.935  20.109  11.987
34636W        W 6307  41.310   7.695   0.757
34637W        W 6308   4.987  15.746   4.178
34638W        W 6309  24.612   3.713  10.893
34639W        W 6310  43.584  20.209   0.049
34640W        W 6311  19.164   4.424  11.883
34641W        W 6312  18.387  17.418  10.760
34642W        W 6313  17.408  21.960  13.699
34643W        W 6314  42.869   6.196  12.067
34644W        W 6315   4.791  28.154   4.185
34645W        W 6316  10.001  26.225  12.136
34646W        W 6317   0.856  29.142   2.658
34647W        W 6318  10.392  43.191  12.992
34648W        W 6319  14.527  30.556  11.567
34649W        W 6320   0.329  28.624   3.251
34650W        W 6321  19.618  20.950  11.400
34651W        W 6322  20.132  41.659  12.594
34652W        W 6323  12.746  33.059  14.050
34653W        W 6324   7.163  31.662   2.020
34654W        W 6325   5.146  34.103   0.495
34655W        W 6326  18.096   1.220  10.749
34656W        W 6327  34.496  15.034   0.422
34657W        W 6328   9.786  41.065   1.384
34658W        W 6329   3.305  27.675  14.487
34659W        W 6330  43.999  14.212   4.510
34660W        W 6331  30.453   4.649   0.388
34661W        W 6332   6.422  13.145   3.687
34662W        W 6333  40.304  41.664   1.708
34663W        W 6334  19.042  28.150  11.724
34664W        W 6335  17.582   6.282   0.387
34665W        W 6336  29.226  14.806   4.105
34666W        W 6337  23.023  10.477  12.926
34667W        W 6338  12.832  18.366   2.001
34668W        W 6339  30.686  32.082   3.250
34669W        W 6340   3.380  10.244  13.339
34670W        W 6341   8.766  26.381  11.716
34671W        W 6342  30.883   5.870  11.136
34672W        W 6343  42.081   5.677  13.445
34673W        W 6344  22.491  33.882  12.333
34674W        W 6345  42.782   2.135   4.081
34675W        W 6346  44.975  10.868  12.335
34676W        W 6347  18.081  21.288   4.723
34677W        W 6348   1.642  41.466  11.629
34678W        W 6349  23.171  21.508  12.843
34679W        W 6350  15.591  16.841  10.594
34680W        W 6351  44.234  36.019   2.700
34681W        W 6352  43.459  34.478  13.809
34682W        W 6353   7.142  41.596   1.235
34683W        W 6354  11.308  25.220   4.561
34684W        W 6355  35.524  16.626   2.312
34685W        W 6356  12.314  36.403  14.763
34686W        W 6357  24.703  16.019   3.703
34687W        W 6358  14.702   5.299  10.717
34688W        W 6359  27.404  18.295  11.690
34689W        W 6360  43.737  24.420   1.198
34690W        W 6361   9.948  37.334   1.210
34691W        W 6362   2.252   5.279   3.113
34692W        W 6363   8.362  29.521   4.307
34693W        W 6364   7.832  39.843  11.317
34694W        W 6365  10.218  18.722   4.005
34695W        W 6366   2.815  32.012  11.290
34696W        W 6367   1.795  27.458  12.506
34697W        W 6368  25.940  43.811  12.841
34698W        W 6369   6.284  18.677  13.026
34699W        W 6370   4.879  18.789   1.278
34700W        W 6371  41.723  43.236   2.681
34701W        W 6372  38.769   7.906  11.737
34702W        W 6373  14.377  26.789   9.811
34703W        W 6374   3.535  22.710  14.996
34704W        W 6375  40.488   3.873   3.152
34705W        W 6376  37.881   7.376   2.389
34706W        W 6377  15.845  35.555  13.811
34707W        W 6378  25.223  11.729   0.155
34708W        W 6379  27.922   9.227   1.247
34709W        W 6380  22.722  21.581  11.206
34710W        W 6381  13.193   8.818   4.581
34711W        W 6382  10.605  40.957  13.342
34712W        W 6383   9.117  35.324   1.388
34713W        W 6384  11.587   1.908  12.984
34714W        W 6385  41.960  31.327   3.554
34715W        W 6386  38.645  19.744  11.659
34716W        W 6387  18.883  33.130  11.647
34717W        W 6388   9.223   4.647   1.107
34718W        W 6389   4.782  38.958   0.657
34719W        W 6390   7.378  11.856  12.924
34720W        W 6391  28.109  23.506   2.724
34721W        W 6392  33.001  16.001   4.130
34722W        W 6393  16.289  27.565  11.001
34723W        W 6394   2.306  15.848   0.705
34724W        W 6395  16.804  19.052   4.711
34725W        W 6396   0.308  27.025  11.511
34726W        W 6397  20.787   3.479  10.724
34727W        W 6398  14.060   9.719   2.844
34728W        W 6399  30.659  31.120   1.840
34729W        W 6400  14.664  16.645  14.048
34730W        W 6401  22.909   9.097   3.789
34731W        W 6402  16.352  17.621  11.984
34732W        W 6403   9.928  22.124   3.666
34733W        W 6404  37.393  31.505  14.302
34734W        W 6405   2.881   6.094  12.962
34735W        W 6406  26.097   0.919  14.571
34736W        W 6407  25.241  18.295   4.616
34737W        W 6408  38.123  15.687   3.155
34738W        W 6409   6.405  11.398   2.201
34739W        W 6410   2.934   8.432   4.265
34740W        W 6411  21.285  18.221  14.280
34741W        W 6412  14.714  30.602  10.392
34742W        W 6413  18.808  14.161  10.442
34743W        W 6414  25.227   1.149  11.952
34744W        W 6415  42.733   4.351   3.258
34745W        W 6416  17.728   7.730   1.259
34746W        W 6417  33.987  18.641   1.425
34747W        W 6418  43.450  41.506  11.643
34748W        W 6419   0.189  35.907  12.473
34749W        W 6420  14.341  24.072   4.517
34750W        W 6421  11.179  21.546   2.215
34751W        W 6422   0.281  24.504   3.390
34752W        W 6423   9.766   0.907   4.760
34753W        W 6424   5.154  23.697   1.855
34754W        W 6425  41.074  18.622   3.586
34755W        W 6426  35.995  39.634   9.843
34756W        W 6427  30.792  39.300   2.725
34757W        W 6428  21.724  21.032   1.415
34758W        W 6429  21.056   2.765   2.889
34759W        W 6430  18.215  25.776  14.879
34760W        W 6431  35.432  22.663   4.385
34761W        W 6432  35.934   5.751  13.465
34762W        W 6433  38.165  39.868   0.074
34763W        W 6434  41.516  15.071   3.716
34764W        W 6435  38.867  43.338  12.081
34765W        W 6436  20.094   5.181   4.049
34766W        W 6437  13.093  19.568   4.493
34767W        W 6438  19.551  12.121  14.502
34768W        W 6439  39.329  41.422   4.593
34769W        W 6440  39.877  12.677   0.440
34770W        W 6441   3.884  32.749   3.320
34771W        W 6442  36.080  22.375   2.336
34772W        W 6443  14.792  12.908  11.591
34773W        W 6444  35.406  27.143  13.082
34774W        W 6445  31.241   8.171   1.291
34775W        W 6446   4.405  30.970  14.871
34776W        W 6447  16.400   7.389  11.484
34777W        W 6448  31.362  34.396  12.097
34778W        W 6449   5.928  25.719   2.735
34779W        W 6450  35.895  25.638   4.569
34780W        W 6451  14.060  36.531  11.661
34781W        W 6452  36.183  44.194   4.480
34782W        W 6453  16.173   1.741   3.462
34783W        W 6454  17.311  43.070  13.408
34784W        W 6455  40.243   7.232   2.335
34785W        W 6456  27.328  16.556   1.882
34786W        W 6457  36.054  20.308   1.914
34787W        W 6458  27.191  23.218   2.191
34788W        W 6459   7.684  25.035  12.094
34789W        W 6460  40.266  27.773   4.016
34790W        W 6461  44.321  10.092   2.270
34791W        W 6462   7.951  31.550  11.181
34792W        W 6463   9.655  11.457   4.092
34793W        W 6464  27.109   8.734  12.992
34794W        W 6465  14.247  13.913  10.813
34795W        W 6466  20.763  24.200  10.683
34796W        W 6467  17.889  43.439   1.992
34797W        W 6468  14.218  20.989   2.368
34798W        W 6469   2.812  26.129  14.019
34799W        W 6470   2.422   9.865   2.022
34800W        W 6471   1.364   3.611   1.147
34801W        W 6472   2.167   9.862   3.283
34802W        W 6473   0.973   3.821  14.881
34803W        W 6474  22.561  17.952   2.752
34804W        W 6475   6.416  26.299  13.344
34805W        W 6476   9.300  14.131  13.999
34806W        W 6477  11.536  33.633  13.807
34807W        W 6478   4.962  30.522  13.300
34808W        W 6479  29.444  44.401   3.583
34809W        W 6480  27.573  15.046   4.206
34810W        W 6481  12.725  34.987  11.112
34811W        W 6482   7.079  16.920  11.681
34812W        W 6483  25.453  21.256  12.430
34813W        W 6484  22.560   7.213   2.735
34814W        W 6485   0.028  30.650  11.528
34815W        W 6486  14.987  33.470  12.984
34816W        W 6487  24.561  38.013  13.292
34817W        W 6488  30.996  40.440   3.788
34818W        W 6489  40.076  37.763   1.348
34819W        W 6490  32.394  35.557   3.216
34820W        W 6491  35.569  15.533   4.139
34821W        W 6492  25.272  21.645   4.704
34822W        W 6493  42.258  37.847   4.578
34823W        W 6494  12.852   0.851  14.018
34824W        W 6495  27.476  23.716   4.555
34825W        W 6496  19.514  16.680   2.372
34826W        W 6497  21.796   0.467   0.352
34827W        W 6498  44.413  23.602   3.557
34828W        W 6499  32.873  16.707  12.404
34829W        W 6500  20.553  41.378  11.673
34830W        W 6501  43.853  27.975   1.629
34831W        W 6502  42.461  23.158  10.874
34832W        W 6503  14.744   7.475  10.565
34833W        W 6504   2.826  39.871   4.672
34834W        W 6505  39.069   7.883   0.193
34835W        W 6506  20.669  43.405  14.256
34836W        W 6507   9.337  22.481   0.380
34837W        W 6508   9.907  11.184   2.417
34838W        W 6509   1.076  37.010   1.383
34839W        W 6510  32.952   9.862   0.018
34840W        W 6511  37.493  43.855  12.474
34841W        W 6512  24.403  12.335  11.582
34842W        W 6513   0.204  21.513   5.425
34843W        W 6514  28.959  30.224  14.533
34844W        W 6515  25.698   3.743  10.825
34845W        W 6516  25.177  31.069  10.734
34846W        W 6517  39.807  43.911  10.539
34847W        W 6518  23.926  41.784  12.041
34848W        W 6519  44.017  17.233   0.381
34849W        W 6520  26.525  19.475   2.716
34850W        W 6521  36.264   5.808  11.629
34851W        W 6522  40.427  35.563   1.217
34852W        W 6523  42.189  19.880   3.364
34853W        W 6524  18.123  17.806   4.713
34854W        W 6525  12.504  15.217  11.777
34855W        W 6526  13.122   9.915   2.271
34856W        W 6527  14.124  15.685  10.973
34857W        W 6528  34.395  13.738   4.070
34858W        W 6529   8.539  39.508   1.848
34859W        W 6530  13.266  21.722   3.549
34860W        W 6531  28.686  20.169   1.052
34861W        W 6532   3.916  38.101  11.573
34862W        W 6533  15.272  25.588  13.130
34863W        W 6534  17.355   5.307  10.919
34864W        W 6535   8.553  11.973  14.394
34865W        W 6536  21.601  43.375  11.691
34866W        W 6537  43.648  20.315  13.963
34867W        W 6538  28.942  11.749   3.652
34868W        W 6539  41.262  12.647   0.718
34869W        W 6540  21.549   0.802   4.298
34870W        W 6541   0.994  44.042  10.999
34871W        W 6542  23.615  21.386   0.325
34872W        W 6543   0.011   7.773  13.357
34873W        W 6544  35.869  14.411  11.242
34874W        W 6545   9.671  12.184   2.274
34875W        W 6546  20.036  13.104  11.468
34876W        W 6547  15.010  33.551   4.445
34877W        W 6548  42.792  18.183   3.447
34878W        W 6549  36.644  19.033  14.872
34879W        W 6550  22.690  31.567   2.164
34880W        W 6551  43.743  31.611  14.381
34881W        W 6552  38.868  29.043   0.929
34882W        W 6553  33.716  22.327   1.398
34883W        W 6554  14.418  16.652  14.958
34884W        W 6555  42.795  39.894  14.605
34885W        W 6556  19.053  20.454   3.289
34886W        W 6557  43.223  17.258   4.283
34887W        W 6558  30.404   2.076   4.100
34888W        W 6559  24.968  40.395  11.058
34889W        W 6560  38.181  42.588   4.331
34890W        W 6561  27.991  19.123  14.373
34891W        W 6562  36.848   6.459   1.793
34892W        W 6563  38.795  38.896   5.047
34893W        W 6564  37.029   5.248   0.389
34894W        W 6565  14.271  36.617   3.426
34895W        W 6566  23.652   3.399  11.947
34896W        W 6567  39.758  38.917   9.965
34897W        W 6568  44.942  11.623  10.241
34898W        W 6569  16.593  37.961  10.591
34899W        W 6570  21.274  28.714  10.703
34900W        W 6571   4.177  26.615  14.007
34901W        W 6572  41.901  16.362  13.953
34902W        W 6573  43.995  14.120  12.499
34903W        W 6574  30.590  17.219   3.636
34904W        W 6575  11.405  25.486   0.835
34905W        W 6576   1.420  43.529   0.444
34906W        W 6577  26.426   8.940   1.681
34907W        W 6578  18.780  12.303  11.593
34908W        W 6579  26.066  20.740   2.929
34909W        W 6580  19.521   1.063   0.436
34910W        W 6581  36.409  43.284  12.949
34911W        W 6582  24.198   2.657   1.582
34912W        W 6583   1.909  38.150   2.622
34913W        W 6584  20.542   7.581   3.334
34914W        W 6585  21.830  18.542   3.829
34915W        W 6586  41.518  42.244   4.566
34916W        W 6587  33.948  17.669   2.229
34917W        W 6588  25.549  26.027   3.792
34918W        W 6589   1.541  36.570  10.800
34919W        W 6590  44.873  44.490   3.622
34920W        W 6591  22.091   9.797   1.218
34921W        W 6592  27.708  34.620  12.100
34922W        W 6593  27.411  38.142   2.707
34923W        W 6594  40.099  14.978   0.482
34924W        W 6595  22.078  23.170   1.397
34925W        W 6596  41.269  36.591  12.468
34926W        W 6597  28.723   1.975  10.481
34927W        W 6598  30.465  31.618   2.616
34928W        W 6599  11.893  43.653   1.178
34929W        W 6600  22.663  14.117   2.124
34930W        W 6601  42.198  17.748  11.234
34931W        W 6602   2.342  40.417  13.274
34932W        W 6603   3.646  11.611   3.179
34933W        W 6604  22.973   8.700   1.199
34934W        W 6605  39.484  15.778   2.796
34935W        W 6606   4.850  33.301   2.317
34936W        W 6607   4.335  12.311   1.944
34937W        W 6608  24.068  30.579  14.323
34938W        W 6609   6.652   5.657  13.371
34939W        W 6610  43.908  19.096   2.243
34940W        W 6611  16.806  19.003  11.967
34941W        W 6612  30.675  27.530  10.744
34942W        W 6613   4.769  43.371  14.894
34943W        W 6614  40.548  25.974  11.750
34944W        W 6615  12.162  10.904  13.727
34945W        W 6616  34.570  16.273   3.181
34946W        W 6617  34.374  28.651  11.176
34947W        W 6618  27.523   8.931  10.029
34948W        W 6619  13.121   3.219  11.129
34949W        W 6620  16.398  30.371  11.478
34950W        W 6621  32.575  28.519   0.792
34951W        W 6622  27.429  17.790  12.587
34952W        W 6623  38.585   0.838   2.228
34953W        W 6624  11.908  10.980  11.413
34954W        W 6625  22.131  38.645  14.740
34955W        W 6626  44.788  13.179   3.361
34956W        W 6627   0.026   1.926   0.514
34957W        W 6628  19.183  40.400   4.572
34958W        W 6629   2.921  26.139   4.374
34959W        W 6630  24.702  41.060   1.382
34960W        W 6631  14.241  33.114   1.956
34961W        W 6632  36.476  30.323  10.388
34962W        W 6633  22.928  39.326  10.616
34963W        W 6634  29.766   8.868  12.138
34964W        W 6635  35.027  35.055   2.677
34965W        W 6636  24.126  17.466   4.684
34966W        W 6637  38.080  35.972  13.961
34967W        W 6638  18.880   6.273  12.963
34968W        W 6639  33.995  22.126   2.141
34969W        W 6640  23.488   7.352  10.722
34970W        W 6641   8.692  23.055   4.093
34971W        W 6642  35.972  31.775  10.323
34972W        W 6643   6.279  20.058  11.974
34973W        W 6644  17.226  19.088   3.592
34974W        W 6645  20.043  27.442  13.989
34975W        W 6646  11.929   6.215  12.026
34976W        W 6647  16.225  31.961   0.034
34977W        W 6648  29.529  33.298   0.675
34978W        W 6649   5.871  41.989  12.624
34979W        W 6650  14.695   3.887  12.555
34980W        W 6651  17.680  20.654  14.817
34981W        W 6652   8.399  18.830   0.943
34982W        W 6653   2.340   7.664  14.358
34983W        W 6654   9.056  29.522   3.593
34984W        W 6655  40.898   8.503  11.027
34985W        W 6656   9.102  44.359  12.323
34986W        W 6657  37.732   4.850  10.925
34987W        W 6658  21.639   6.223  13.631
34988W        W 6659  36.895  26.724   1.319
34989W        W 6660  28.121  21.693  14.517
34990W        W 6661  12.700   2.685   0.212
34991W        W 6662  24.495   5.293   1.342
34992W        W 6663  30.109  32.637  10.710
34993W        W 6664  17.799  20.834  11.476
34994W        W 6665   5.185  21.976  13.328
34995W        W 6666  11.024  13.727   0.690
34996W        W 6667   9.284  16.847  12.552
34997W        W 6668   3.701  16.045   0.827
34998W        W 6669  15.627   6.630  14.242
34999W        W 6670  28.507   7.934   3.429
35000W        W 6671  26.911  31.512   1.962
35001W        W 6672  16.680  34.086  10.646
35002W        W 6673  21.248  23.781   4.232
35003W        W 6674  12.015   7.272   1.401
35004W        W 6675   0.754  11.193  12.245
35005W        W 6676  33.068   8.321  13.384
35006W        W 6677  38.417  14.763  13.297
35007W        W 6678  28.970  19.737   2.633
35008W        W 6679  30.528  23.037  14.298
35009W        W 6680  38.446   3.234  13.879
35010W        W 6681  28.005   3.502  10.647
35011W        W 6682  11.324  11.902  12.076
35012W        W 6683  36.070  31.718   1.674
35013W        W 6684   8.791  13.173  14.429
35014W        W 6685  31.701  21.079   3.753
35015W        W 6686  15.154  19.485  13.872
35016W        W 6687  41.812   3.254   4.977
35017W        W 6688  21.877  22.015   2.550
35018W        W 6689  43.343   0.766   4.807
35019W        W 6690  14.642  36.591   0.132
35020W        W 6691  13.240  14.614  11.939
35021W        W 6692  33.368  36.488   1.299
35022W        W 6693  19.409  37.448  14.619
35023W        W 6694  28.513  37.878   4.703
35024W        W 6695  21.538  31.132   4.701
35025W        W 6696  10.669  38.956   3.363
35026W        W 6697  39.784  27.083  11.078
35027W        W 6698   7.703  37.650  11.443
35028W        W 6699  41.118   7.880  12.373
35029W        W 6700  14.262  29.000   0.829
35030W        W 6701  10.815  26.218  10.992
35031W        W 6702  29.574  44.025  10.785
35032W        W 6703  37.436   1.307  10.955
35033W        W 6704  18.228  21.696   0.314
35034W        W 6705  38.258   2.764   0.719
35035W        W 6706   5.046  32.353  12.070
35036W        W 6707  29.054   5.940   0.225
35037W        W 6708  26.578  34.984  13.026
35038W        W 6709  12.769  35.836  10.785
35039W        W 6710  30.655   7.435   2.917
35040W        W 6711  34.862  32.665  14.734
35041W        W 6712   9.858  11.284  13.372
35042W        W 6713  24.717  39.462  14.611
35043W        W 6714  17.558   6.748  13.051
35044W        W 6715  24.983   6.644   4.454
35045W        W 6716  44.364  36.824  11.373
35046W        W 6717  19.575  23.752  14.177
35047W        W 6718   4.339  10.315   3.695
35048W        W 6719  22.964  18.140   1.456
35049W        W 6720  30.484  16.049   1.204
35050W        W 6721  34.203  43.828   1.311
35051W        W 6722   8.444  20.677   1.141
35052W        W 6723  31.873  21.544   3.581
35053W        W 6724  40.956  22.662  11.461
35054W        W 6725   5.706  18.753  11.495
35055W        W 6726  37.617  14.211   1.684
35056W        W 6727  19.528  30.955   2.077
35057W        W 6728  19.257  20.123  12.863
35058W        W 6729  43.050  29.814   3.273
35059W        W 6730  35.044  42.110   3.004
35060W        W 6731   6.116   6.683   4.155
35061W        W 6732  30.532  30.057   2.292
35062W        W 6733  27.662   3.875   2.683
35063W        W 6734  10.191  36.135   4.453
35064W        W 6735  30.418   1.959   2.343
35065W        W 6736  42.059  11.128  13.888
35066W        W 6737  14.921  39.580   4.654
35067W        W 6738  29.684  25.312  14.281
35068W        W 6739  10.431  38.903   2.417
35069W        W 6740  24.460  29.500  12.045
35070W        W 6741  15.804  28.175   1.387
35071W        W 6742  23.176   0.818  12.533
35072W        W 6743  28.896  31.521   4.690
35073W        W 6744  26.310  23.255  11.144
35074W        W 6745  12.674  20.742   2.982
35075W        W 6746  41.411  24.550   2.431
35076W        W 6747  14.095   8.211   3.554
35077W        W 6748  24.070   8.599   4.241
35078W        W 6749  36.903  12.416  11.598
35079W        W 6750   3.427   7.913  14.722
35080W        W 6751   8.330  22.448   4.112
35081W        W 6752  19.420  15.608   4.219
35082W        W 6753  31.822  41.366   1.213
35083W        W 6754  26.996   7.695  11.987
35084W        W 6755   8.974  10.818   1.393
35085W        W 6756  29.883  38.848  12.607
35086W        W 6757  39.926  26.155   2.471
35087W        W 6758  43.993  31.278  13.536
35088W        W 6759  10.399  26.519   3.642
35089W        W 6760  29.423   6.016   0.918
35090W        W 6761  38.761  12.935  13.543
35091W        W 6762  39.519   7.978  13.464
35092W        W 6763  22.269  12.777  13.070
35093W        W 6764   2.381  12.125  13.386
35094W        W 6765  22.467  13.588   2.839
35095W        W 6766  40.023  39.059  11.351
35096W        W 6767  40.827   3.698   2.393
35097W        W 6768  31.396  33.423   4.581
35098W        W 6769  32.893  40.343  11.159
35099W        W 6770  14.695  43.896  10.692
35100W        W 6771  22.448   6.752   3.306
35101W        W 6772  27.537  31.059  14.270
35102W        W 6773  15.888  37.931  14.356
35103W        W 6774  12.086   0.924   1.207
35104W        W 6775  18.693  31.368   1.009
35105W        W 6776  21.231   7.429   3.011
35106W        W 6777  33.806   6.897   4.304
35107W        W 6778   3.659   0.361   3.659
35108W        W 6779  43.287  31.091   2.309
35109W        W 6780  39.364  21.655  13.786
35110W        W 6781   6.142  12.282  14.530
35111W        W 6782  41.936   8.790  14.339
35112W        W 6783  23.498   0.775  14.010
35113W        W 6784  28.660   8.226  12.090
35114W        W 6785  12.113  40.977  10.694
35115W        W 6786   3.751  43.213  11.118
35116W        W 6787  33.169   3.341   2.646
35117W        W 6788  11.238  35.619   3.318
35118W        W 6789   1.498   7.758   3.395
35119W        W 6790   5.392   7.535   0.825
35120W        W 6791   4.720  38.352   4.046
35121W        W 6792  34.011  22.042   3.518
35122W        W 6793  36.924  36.354  11.000
35123W        W 6794  23.244   5.619  11.230
35124W        W 6795  17.010  23.584  14.953
35125W        W 6796  12.717  14.093   1.813
35126W        W 6797  21.064  35.453   3.872
35127W        W 6798  16.237  35.344  10.710
35128W        W 6799  22.689  31.373  11.114
35129W        W 6800  15.840  19.337   2.139
35130W        W 6801   3.884  23.620  14.824
35131W        W 6802  39.835  28.014   3.856
35132W        W 6803  37.003  40.880  13.624
35133W        W 6804  10.524  12.240  14.558
35134W        W 6805  33.838  38.861   1.320
35135W        W 6806  23.144  32.709   3.588
35136W        W 6807  12.566  37.624  14.351
35137W        W 6808  18.189  32.811   2.179
35138W        W 6809  30.435  12.846  10.372
35139W        W 6810  44.552  21.086  12.800
35140W        W 6811  19.322  44.537  11.088
35141W        W 6812  38.799  34.726   0.900
35142W        W 6813  26.172  18.136  12.479
35143W        W 6814  19.922  42.805  13.073
35144W        W 6815  42.005  25.719  13.529
35145W        W 6816   8.667  34.504  14.799
35146W        W 6817  15.565  25.221   3.339
35147W        W 6818  17.342  17.725  14.009
35148W        W 6819  21.584  25.286   0.796
35149W        W 6820   8.667  15.287  11.109
35150W        W 6821  20.322  14.186  13.461
35151W        W 6822  13.769   1.736  11.160
35152W        W 6823   4.228  13.943   0.187
35153W        W 6824   2.412  27.076  14.503
35154W        W 6825  42.909   2.725   4.929
35155W        W 6826   1.687  41.849   3.935
35156W        W 6827  13.375  27.131   0.415
35157W        W 6828  11.710   0.554   3.610
35158W        W 6829  24.938  10.160  13.913
35159W        W 6830  36.825  11.265   0.229
35160W        W 6831  30.441  40.281   0.045
35161W        W 6832  24.187  43.635   3.828
35162W        W 6833  33.089  21.416   5.042
35163W        W 6834  41.893  26.374  14.483
35164W        W 6835  14.891  26.084   2.266
35165W        W 6836   8.243  33.595  11.251
35166W        W 6837   3.864  33.346  14.350
35167W        W 6838  38.801  31.471   0.741
35168W        W 6839   2.326  23.993   3.898
35169W        W 6840  24.239   3.895  13.087
35170W        W 6841  11.604  40.744   0.710
35171W        W 6842  39.097  35.996  13.884
35172W        W 6843  15.636   2.254   1.384
35173W        W 6844  40.073   6.957  11.832
35174W        W 6845  24.669  42.558   2.999
35175W        W 6846  18.082  18.808  11.936
35176W        W 6847  17.899  13.627  14.214
35177W        W 6848  26.878  36.370   4.551
35178W        W 6849   7.464   4.005  11.173
35179W        W 6850   7.740  21.290  12.091
35180W        W 6851   5.119   8.755   2.658
35181W        W 6852  22.621  39.565   3.364
35182W        W 6853   8.331  41.025   3.667
35183W        W 6854   9.361   2.631  11.393
35184W        W 6855  28.508  21.393   1.823
35185W        W 6856  33.974  10.007   4.737
35186W        W 6857  37.324  18.198   1.184
35187W        W 6858  10.906  19.627   3.610
35188W        W 6859  17.136   2.144   3.253
35189W        W 6860  20.620  41.996  11.922
35190W        W 6861  35.142  19.131  14.924
35191W        W 6862  23.169  31.682   2.257
35192W        W 6863   4.849   4.589  12.561
35193W        W 6864   4.771  38.883   1.193
35194W        W 6865  20.830  32.741  14.433
35195W        W 6866  18.097  39.629   0.853
35196W        W 6867  26.156  44.305   2.419
35197W        W 6868  26.016  33.878  10.587
35198W        W 6869  35.181  26.036   4.182
35199W        W 6870   9.595  44.538  12.383
35200W        W 6871  40.405  30.108  11.682
35201W        W 6872  18.147   1.057   2.266
35202W        W 6873   2.204   1.888   0.999
35203W        W 6874  20.743  32.657   0.319
35204W        W 6875  33.694  42.380   1.975
35205W        W 6876  17.234  20.187  12.976
35206W        W 6877  37.416  37.811   4.180
35207W        W 6878  36.491   0.231   0.708
35208W        W 6879  38.180   8.056  13.928
35209W        W 6880  39.838  16.054  13.385
35210W        W 6881  25.976  13.624   2.235
35211W        W 6882  20.176  39.638  12.067
35212W        W 6883  10.743  16.643  12.469
35213W        W 6884  31.457  20.739   1.838
35214W        W 6885   1.379  37.368   1.630
35215W        W 6886   6.431  25.017   3.235
35216W        W 6887  20.774  25.925   4.690
35217W        W 6888  13.736  21.670   3.279
35218W        W 6889   4.829  17.525   1.587
35219W        W 6890  27.157  41.341   1.293
35220W        W 6891   9.467  13.309   4.666
35221W        W 6892   1.295  33.874  10.475
35222W        W 6893  33.444  33.887   3.159
35223W        W 6894   2.769  31.953  13.905
35224W        W 6895  32.460  18.193  12.114
35225W        W 6896  23.420  40.585   2.150
35226W        W 6897  26.017  23.988   1.700
35227W        W 6898  15.853  43.305  14.939
35228W        W 6899   8.485  20.075   1.698
35229W        W 6900  17.000  35.879  11.538
35230W        W 6901  28.011  42.979  11.128
35231W        W 6902   6.420  23.527   2.258
35232W        W 6903   7.764  13.697  14.582
35233W        W 6904  13.241  14.622  14.450
35234W        W 6905  12.698   8.615   1.209
35235W        W 6906  20.817  25.060   4.095
35236W        W 6907  16.790  29.074  10.578
35237W        W 6908  15.561  19.363   4.915
35238W        W 6909  19.992  27.092  10.900
35239W        W 6910  22.573  25.665   9.854
35240W        W 6911  12.403  36.918  13.064
35241W        W 6912  44.421   3.533   1.922
35242W        W 6913  20.100  22.913   2.676
35243W        W 6914  19.301   7.209  14.936
35244W        W 6915  27.731  36.919   4.524
35245W        W 6916  22.270  27.089   3.272
35246W        W 6917  11.823   5.914   0.335
35247W        W 6918  38.945   1.771   5.464
35248W        W 6919  11.403  40.295  11.169
35249W        W 6920   6.395  35.623  12.633
35250W        W 6921  40.313   2.759   1.786
35251W        W 6922   3.641  37.606   2.101
35252W        W 6923   8.576   2.872   1.374
35253W        W 6924  30.083   6.335   3.048
35254W        W 6925  16.578   0.748   4.751
35255W        W 6926  44.802  38.884   0.049
35256W        W 6927  19.232  36.814   1.865
35257W        W 6928  43.737  26.962  12.081
35258W        W 6929  33.124  41.522  11.911
35259W        W 6930  38.391  24.989   1.323
35260W        W 6931  44.788  38.298  11.151
35261W        W 6932  15.583   2.717   3.377
35262W        W 6933  44.976  13.360  11.455
35263W        W 6934  14.719  15.158   1.888
35264W        W 6935  42.497  28.085   3.158
35265W        W 6936   1.024  16.176  10.558
35266W        W 6937  20.732  36.651   2.603
35267W        W 6938  42.351  11.348   1.922
35268W        W 6939  35.333  12.597   2.739
35269W        W 6940   8.214  11.658  14.710
35270W        W 6941   3.286   7.783   2.397
35271W        W 6942   1.413   2.154  11.760
35272W        W 6943  29.169   9.177  13.484
35273W        W 6944  11.371  36.986  13.994
35274W        W 6945  12.177   5.780  11.931
35275W        W 6946  10.706  44.825  10.782
35276W        W 6947   4.623   4.118   0.279
35277W        W 6948  24.591  33.267  12.299
35278W        W 6949  32.040  10.134  13.024
35279W        W 6950  29.203  31.945   0.253
35280W        W 6951  42.261  17.206   1.859
35281W        W 6952  28.102   9.019   3.239
35282W        W 6953   2.113  30.696  11.656
35283W        W 6954   6.572  29.123   9.949
35284W        W 6955  10.452   7.336  13.087
35285W        W 6956  30.200  28.589   4.032
35286W        W 6957  43.304  27.585  10.731
35287W        W 6958  24.187  32.102   0.398
35288W        W 6959  29.312   7.576   3.647
35289W        W 6960  16.370  11.849  13.574
35290W        W 6961  22.096   8.585  12.406
35291W        W 6962  19.541  34.164   4.037
35292W        W 6963   5.863  29.024  14.562
35293W        W 6964   2.870  41.981   4.354
35294W        W 6965  27.975   1.866   3.335
35295W        W 6966  27.699   0.055  11.689
35296W        W 6967  20.529  16.682   4.160
35297W        W 6968  17.088   3.441   0.333
35298W        W 6969   9.603  41.980  11.207
35299W        W 6970  33.588  23.125  12.911
35300W        W 6971  43.060  30.414  14.885
35301W        W 6972  35.636  19.783   2.685
35302W        W 6973   7.453  23.986   0.433
35303W        W 6974   8.825  36.507  10.604
35304W        W 6975  40.758  37.536   3.750
35305W        W 6976  12.129  40.116   4.969
35306W        W 6977  33.103   6.157  13.478
35307W        W 6978  37.527  39.596   9.640
35308W        W 6979  12.140   6.847  10.615
35309W        W 6980  37.253  18.158  12.496
35310W        W 6981   9.834  29.575  12.928
35311W        W 6982  41.470  16.102   0.431
35312W        W 6983  15.712  38.016  12.956
35313W        W 6984  24.032  37.479  14.446
35314W        W 6985   0.773  32.722   0.951
35315W        W 6986   0.493  33.316  11.219
35316W        W 6987  36.461  18.744  11.253
35317W        W 6988  28.134  35.936   0.886
35318W        W 6989  31.551  22.600   1.687
35319W        W 6990  31.244  18.093   1.022
35320W        W 6991  39.889  33.775   1.489
35321W        W 6992  27.303  19.295   2.389
35322W        W 6993  26.508  15.728   4.890
35323W        W 6994  13.803  10.533   3.133
35324W        W 6995  25.403  25.476   2.671
35325W        W 6996  36.990  13.107  10.733
35326W        W 6997  10.191  34.639  12.679
35327W        W 6998  29.076   6.451   0.058
35328W        W 6999  25.514  23.069  11.469
35329W        W 7000  27.966  36.933  11.660
35330W        W 7001  11.496  33.966  10.781
35331W        W 7002   8.240  13.577  14.380
35332W        W 7003   1.270  16.616   2.858
35333W        W 7004  21.006   6.797  13.818
35334W        W 7005   7.940  26.391   1.458
35335W        W 7006  29.202   8.047   0.414
35336W        W 7007  16.580  33.693   0.286
35337W        W 7008  38.050   0.724  13.546
35338W        W 7009   7.849  18.075  12.449
35339W        W 7010  43.188  20.369   2.288
35340W        W 7011  34.014  15.933  14.541
35341W        W 7012  42.832  44.744  14.242
35342W        W 7013  20.848   6.614   4.070
35343W        W 7014  23.016  15.305  13.791
35344W        W 7015  12.390   8.833  13.669
35345W        W 7016  43.598  21.759   0.959
35346W        W 7017  10.612   1.723   3.325
35347W        W 7018   4.882  14.049  11.051
35348W        W 7019  32.949   0.939   4.766
35349W        W 7020  18.009  11.524   2.681
35350W        W 7021  42.534  12.307  12.459
35351W        W 7022  19.702  38.393   1.929
35352W        W 7023  20.458  32.105  11.912
35353W        W 7024  36.590  34.726  14.911
35354W        W 7025  31.999  23.700   3.188
35355W        W 7026  11.555  43.533  10.723
35356W        W 7027   5.278  44.507   3.607
35357W        W 7028  11.327  21.163  14.351
35358W        W 7029  36.008  13.332  12.304
35359W        W 7030  38.620   3.164   0.805
35360W        W 7031   0.806  35.313  12.953
35361W        W 7032  17.359  16.605   4.325
35362W        W 7033   8.979  26.784  12.429
35363W        W 7034  10.982  44.031  14.321
35364W        W 7035  11.037   0.734  14.743
35365W        W 7036  13.461  39.414  11.027
35366W        W 7037  30.825  20.202   4.571
35367W        W 7038  32.902  25.602  14.288
35368W        W 7039  37.276   4.627  12.776
35369W        W 7040  29.364   0.799  13.805
35370W        W 7041  38.884  40.499   1.935
35371W        W 7042  34.583  19.263  12.329
35372W        W 7043  21.962  36.991   4.251
35373W        W 7044   5.772   9.183  10.480
35374W        W 7045  26.824  33.856   1.916
35375W        W 7046  35.582  42.950  13.862
35376W        W 7047  21.430  43.352  13.644
35377W        W 7048  25.299  37.012   4.895
35378W        W 7049  13.284  12.077   3.697
35379W        W 7050  14.655   7.948   0.860
35380W        W 7051  39.116  13.406   4.282
35381W        W 7052  17.531  44.306  12.439
35382W        W 7053  28.425   9.311  13.831
35383W        W 7054  40.425   9.118   2.283
35384W        W 7055  38.455   1.233  12.392
35385W        W 7056  30.168  36.764  12.848
35386W        W 7057  21.785  23.649   5.545
35387W        W 7058  30.970  10.996  11.594
35388W        W 7059  20.246  43.872  13.497
35389W        W 7060  14.847  12.812   3.920
35390W        W 7061  39.587   5.241  13.862
35391W        W 7062  20.276   0.897   2.401
35392W        W 7063  23.485   6.905  13.848
35393W        W 7064  10.753   7.589  11.294
35394W        W 7065   0.747   1.292   3.406
35395W        W 7066  19.031  18.567   1.084
35396W        W 7067  11.555  39.550  13.418
35397W        W 7068  29.953   6.426   1.688
35398W        W 7069  14.807  36.060  10.476
35399W        W 7070   7.585  30.644  10.701
35400W        W 7071  37.533  15.866  10.703
35401W        W 7072  13.371  38.835   1.517
35402W        W 7073  27.286   1.301   3.542
35403W        W 7074  12.229  14.592  12.464
35404W        W 7075  21.202  31.158  12.207
35405W        W 7076   7.432  30.058   1.298
35406W        W 7077   0.577   8.221  10.509
35407W        W 7078  28.903  40.161  14.018
35408W        W 7079  15.426  37.828  13.358
35409W        W 7080  34.501  19.188   4.755
35410W        W 7081  15.109  33.302   2.898
35411W        W 7082  43.488  11.791   0.382
35412W        W 7083  25.316   6.929  11.164
35413W        W 7084  15.030  17.528  11.824
35414W        W 7085   8.334   3.045   2.135
35415W        W 7086   2.394  17.660  14.415
35416W        W 7087  12.447  17.905  14.501
35417W        W 7088  38.483  26.223   0.014
35418W        W 7089  42.760  43.472   2.658
35419W        W 7090   5.186  24.867  13.755
35420W        W 7091  35.646  39.891   5.515
35421W        W 7092  28.640  14.611   0.943
35422W        W 7093  43.696  15.644   4.681
35423W        W 7094   6.234  34.958  11.674
35424W        W 7095  32.293  24.830   1.793
35425W        W 7096  33.547  38.567   1.693
35426W        W 7097  25.952   2.994  12.101
35427W        W 7098  11.212  43.014  13.417
35428W        W 7099  14.911  33.960  11.145
35429W        W 7100   7.836  25.514  14.927
35430W        W 7101   8.407  23.131   0.009
35431W        W 7102  37.273  34.499   3.447
35432W        W 7103  42.727  29.645  12.833
35433W        W 7104   1.082  34.569   2.329
35434W        W 7105  28.084  28.209   4.035
35435W        W 7106  27.660  37.336  11.512
35436W        W 7107   9.081   7.039  11.685
35437W        W 7108  22.926  41.887   5.168
35438W        W 7109  37.037   1.801   4.664
35439W        W 7110  37.589  22.557  14.242
35440W        W 7111  12.308  28.733  12.079
35441W        W 7112   4.743   4.383  13.022
35442W        W 7113  44.821  34.545   0.666
35443W        W 7114   3.335  34.997  13.857
35444W        W 7115  16.940  19.463   0.268
35445W        W 7116  42.268  12.760  12.411
35446W        W 7117  34.020  38.897  11.571
35447W        W 7118  32.953   8.402  13.882
35448W        W 7119   0.488  38.157   0.702
35449W        W 7120  12.144  28.008  11.196
35450W        W 7121  15.132  22.444  13.017
35451W        W 7122   4.310  25.927  14.868
35452W        W 7123   3.381  23.745   2.221
35453W        W 7124  44.983  17.675   2.990
35454W        W 7125  25.981  21.257   4.099
35455W        W 7126  22.392  39.468  11.382
35456W        W 7127  27.080   9.364   0.808
35457W        W 7128  39.786  26.279  12.954
35458W        W 7129  10.149   5.642   1.682
35459W        W 7130  26.923  41.535   0.329
35460W        W 7131  24.481  42.933   0.653
35461W        W 7132  24.609   7.297   2.420
35462W        W 7133   7.104  41.546  12.539
35463W        W 7134  27.096   9.841  10.591
35464W        W 7135  23.492  31.679  10.686
35465W        W 7136  11.769   6.505  10.789
35466W        W 7137  30.632  18.058  10.712
35467W        W 7138   4.427  22.078   2.157
35468W        W 7139  28.564  30.859   0.788
35469W        W 7140  23.758   6.667  11.078
35470W        W 7141  36.457  36.872  12.547
35471W        W 7142  21.049  20.109  13.405
35472W        W 7143  32.317  30.519   0.327
35473W        W 7144  41.890  35.227   0.871
35474W        W 7145  15.713  40.217   1.274
35475W        W 7146  19.022   7.728   2.469
35476W        W 7147   1.166  23.580   4.212
35477W        W 7148   6.399  39.773  11.359
35478W        W 7149   4.729  36.415   4.255
35479W        W 7150  32.648  39.020  11.152
35480W        W 7151  19.862  38.856  13.235
35481W        W 7152  16.574  30.852  11.984
35482W        W 7153  24.413  30.650   0.642
35483W        W 7154  21.667   1.434   1.876
35484W        W 7155  39.715  18.537  10.359
35485W        W 7156  42.923   1.111  14.102
35486W        W 7157  44.982   9.637  11.552
35487W        W 7158  32.884  41.385  14.418
35488W        W 7159  19.984   3.386  12.783
35489W        W 7160  19.763  18.581  13.138
35490W        W 7161  11.163   2.532  10.677
35491W        W 7162  16.091   0.681  14.932
35492W        W 7163  21.962  17.647   2.860
35493W        W 7164  20.249   3.476  13.740
35494W        W 7165  24.254  30.914   2.784
35495W        W 7166   9.571  15.717   3.755
35496W        W 7167   1.267  15.638  11.416
35497W        W 7168  24.968  23.226  10.631
35498W        W 7169   5.504   4.410   1.749
35499W        W 7170  24.717   0.348   4.294
35500W        W 7171   1.518  16.862   3.248
35501W        W 7172   2.351  26.358  10.411
35502W        W 7173  36.425  31.409   1.882
35503W        W 7174  42.571  24.394   5.390
35504W        W 7175  29.422   5.799   4.072
35505W        W 7176   2.538   1.745   0.283
35506W        W 7177  10.670  36.259  13.788
35507W        W 7178  11.234  43.427   0.329
35508W        W 7179  27.462  18.212   3.220
35509W        W 7180  41.823  39.945  11.015
35510W        W 7181   5.760   2.068  11.775
35511W        W 7182   2.825  44.512   3.164
35512W        W 7183  16.436  44.734  13.492
35513W        W 7184  30.360  27.697   2.271
35514W        W 7185   6.129   9.858  10.548
35515W        W 7186  30.339   1.323  13.580
35516W        W 7187  21.254  26.444   4.031
35517W        W 7188   1.437  40.136  11.173
35518W        W 7189  16.118  16.756  11.583
35519W        W 7190  38.151  32.615   4.209
35520W        W 7191  11.080  11.243  12.441
35521W        W 7192  18.164  24.676   2.222
35522W        W 7193  18.790  33.183   0.483
35523W        W 7194   5.722   5.979  12.326
35524W        W 7195   8.797  37.075   2.841
35525W        W 7196  32.676  10.045   3.640
35526W        W 7197  23.078  44.119   0.855
35527W        W 7198  12.421   8.290   2.150
35528W        W 7199   6.884  19.583   1.600
35529W        W 7200  18.560  20.775   1.805
35530W        W 7201   3.201  11.185   4.007
35531W        W 7202   1.490  39.529  11.761
35532W        W 7203  31.216  16.705   0.966
35533W        W 7204  36.849  40.555   4.187
35534W        W 7205   4.266  42.594  13.384
35535W        W 7206  15.587  41.837  13.349
35536W        W 7207  37.741   1.289  11.947
35537W        W 7208  17.043  20.223  10.625
35538W        W 7209  42.260  43.724   0.821
35539W        W 7210  23.280  21.626  10.614
35540W        W 7211  16.591  27.156   4.506
35541W        W 7212  19.062   3.299  14.907
35542W        W 7213  27.321  28.991  12.944
35543W        W 7214  26.974   0.189   1.232
35544W        W 7215   5.319  26.894   2.189
35545W        W 7216  38.965   1.124  10.719
35546W        W 7217  20.219  34.057  13.066
35547W        W 7218  28.617  39.977   2.916
35548W        W 7219  26.653   3.700  11.040
35549W        W 7220  16.894  25.936   2.974
35550W        W 7221  40.817  41.268   0.016
35551W        W 7222  20.734  40.870  12.837
35552W        W 7223   8.840   2.253   0.500
35553W        W 7224  40.647   8.179  11.696
35554W        W 7225   4.994  28.450   4.583
35555W        W 7226  40.189  34.492  11.988
35556W        W 7227  11.655  22.068  13.449
35557W        W 7228   2.474  13.759  13.465
35558W        W 7229  18.818  28.922  14.467
35559W        W 7230  33.477  11.076  11.186
35560W        W 7231  18.197  24.958   0.933
35561W        W 7232  28.669  27.549  13.089
35562W        W 7233  44.079  34.404   3.645
35563W        W 7234  31.394  38.413  13.988
35564W        W 7235   7.820  27.665   2.868
35565W        W 7236   2.434   4.980  13.883
35566W        W 7237  10.440   7.686   1.774
35567W        W 7238  28.250   6.270  10.604
35568W        W 7239  33.578  27.099  13.411
35569W        W 7240  12.383  26.314  11.966
35570W        W 7241   8.944  32.833   0.363
35571W        W 7242  12.853   6.234   1.917
35572W        W 7243   9.506  18.727  12.172
35573W        W 7244  10.804  10.274   3.456
35574W        W 7245  35.095  44.546  11.240
35575W        W 7246  11.130  32.479  13.414
35576W        W 7247   3.378  39.017   0.944
35577W        W 7248  24.513  34.026   3.350
35578W        W 7249  23.080   9.185  12.450
35579W        W 7250  33.597  21.053   3.746
35580W        W 7251  16.931  19.734   3.488
35581W        W 7252  30.560   5.940  11.524
35582W        W 7253  26.492   0.436   2.363
35583W        W 7254  29.599   9.553   4.665
35584W        W 7255  44.468  40.965   1.709
35585W        W 7256  13.234   4.100   2.250
35586W        W 7257  40.915   8.603   1.763
35587W        W 7258  11.823  19.719  12.531
35588W        W 7259  40.110  15.786  14.467
35589W        W 7260  14.582   5.839   4.026
35590W        W 7261   0.227  41.798  14.425
35591W        W 7262  21.736  26.114   3.368
35592W        W 7263  25.872   4.534   4.696
35593W        W 7264   8.952  31.977  14.822
35594W        W 7265  36.314  19.687  12.121
35595W        W 7266  44.427  29.137  13.449
35596W        W 7267  24.985   1.820   4.737
35597W        W 7268   3.260  15.555  11.842
35598W        W 7269  34.394  44.627   0.291
35599W        W 7270  34.969  15.138   3.943
35600W        W 7271  17.190  39.799  13.806
35601W        W 7272   6.445   8.195  11.712
35602W        W 7273  25.870  36.379  14.288
35603W        W 7274  21.697  23.623   1.746
35604W        W 7275   0.281  19.828  10.747
35605W        W 7276  21.583  30.484  13.442
35606W        W 7277  26.301   4.913   2.319
35607W        W 7278  22.630   1.631  11.220
35608W        W 7279  18.685  12.783   1.979
35609W        W 7280  40.367  32.092   3.278
35610W        W 7281  17.173  35.363  12.000
35611W        W 7282   4.807  36.482   4.764
35612W        W 7283  14.612  41.821   3.292
35613W        W 7284   0.526  25.104  14.004
35614W        W 7285  28.529  17.906  11.171
35615W        W 7286  27.128  19.024   1.324
35616W        W 7287  44.269  19.599   3.331
35617W        W 7288  36.542  23.995   3.656
35618W        W 7289   7.991  12.671  14.371
35619W        W 7290  34.887  39.352  14.979
35620W        W 7291  36.424  21.183   0.386
35621W        W 7292  29.474  29.672  11.013
35622W        W 7293   1.076  10.111  11.041
35623W        W 7294   0.681   5.178   1.865
35624W        W 7295  44.685  25.160   3.649
35625W        W 7296  12.375  11.271   3.815
35626W        W 7297  23.100  27.965   1.398
35627W        W 7298  37.109  15.752   0.784
35628W        W 7299   7.195   7.547  14.988
35629W        W 7300  27.904  34.639  12.631
35630W        W 7301  13.946  31.884   0.326
35631W        W 7302  33.046  21.547  14.894
35632W        W 7303   6.964  33.117  12.464
35633W        W 7304  18.727   4.998   4.135
35634W        W 7305  11.198  39.476   1.310
35635W        W 7306  23.391  43.456   3.458
35636W        W 7307  40.099  36.609  14.476
35637W        W 7308  35.630  31.084   1.327
35638W        W 7309  43.334  35.851  13.967
35639W        W 7310  26.739  16.769   4.070
35640W        W 7311  27.063   9.844   0.444
35641W        W 7312  22.949   9.187  13.436
35642W        W 7313  29.713  22.914   1.856
35643W        W 7314  30.465  34.743   0.251
35644W        W 7315  20.028  11.651  13.526
35645W        W 7316  43.979  40.778   1.571
35646W        W 7317  41.496  35.765  13.844
35647W        W 7318   5.266  19.829   0.822
35648W        W 7319  39.869  25.298  11.585
35649W        W 7320  17.103   4.875   2.418
35650W        W 7321   0.863  17.046   2.590
35651W        W 7322   9.790  29.705  14.704
35652W        W 7323  29.527  12.265   1.148
35653W        W 7324   4.110  42.069   0.883
35654W        W 7325  34.843  28.287  14.788
35655W        W 7326  17.696  38.900  14.702
35656W        W 7327  43.059  40.062   1.798
35657W        W 7328  13.471   0.182  14.107
35658W        W 7329  17.716  24.943  13.459
35659W        W 7330   4.986  25.474  13.532
35660W        W 7331  39.398   9.181   4.688
35661W        W 7332  32.354   9.689  13.010
35662W        W 7333  44.314  26.975  11.379
35663W        W 7334  22.180  14.763   1.185
35664W        W 7335  23.090   8.767   0.245
35665W        W 7336  20.620  38.608   2.758
35666W        W 7337  40.945  13.120  12.489
35667W        W 7338  15.322  28.448  13.336
35668W        W 7339  16.748  44.960   0.775
35669W        W 7340  11.210  38.937  10.470
35670W        W 7341  32.996   3.245   1.349
35671W        W 7342  32.442  40.508   2.671
35672W        W 7343  15.597  40.996  11.159
35673W        W 7344  27.684  19.090   3.650
35674W        W 7345  26.660  26.181  10.321
35675W        W 7346  22.767  15.583  13.425
35676W        W 7347  27.739  41.292   0.184
35677W        W 7348  23.021  29.010   3.632
35678W        W 7349  35.863  12.706   4.316
35679W        W 7350  23.420  14.183  11.759
35680W        W 7351  39.951   8.658   1.771
35681W        W 7352  36.879  14.399  13.909
35682W        W 7353  11.333  14.725  13.082
35683W        W 7354  39.107  37.073   0.960
35684W        W 7355  23.271   3.389   0.758
35685W        W 7356   2.485  32.833   2.742
35686W        W 7357  19.456  17.464   0.474
35687W        W 7358   6.100  25.251   2.920
35688W        W 7359  40.559   2.907   2.237
35689W        W 7360  13.609  18.218  11.662
35690W        W 7361  39.478   2.824  11.110
35691W        W 7362  25.244   4.891  13.891
35692W        W 7363   9.120  14.609  13.152
35693W        W 7364  24.412  19.699   4.145
35694W        W 7365  17.773  27.225   0.994
35695W        W 7366   0.933  24.927   0.773
35696W        W 7367  14.273  22.565   4.936
35697W        W 7368  20.767  25.540   3.070
35698W        W 7369  17.772  11.058  12.842
35699W        W 7370   2.479  42.793  14.015
35700W        W 7371   6.915  15.359   0.432
35701W        W 7372   5.505  29.964  11.157
35702W        W 7373  29.678  36.593  12.954
35703W        W 7374  13.612  37.538   2.927
35704W        W 7375  40.287  44.636   9.954
35705W        W 7376  40.310   5.785  14.373
35706W        W 7377  25.897   4.707   0.730
35707W        W 7378  28.507  44.000   0.944
35708W        W 7379  44.211  22.490  14.818
35709W        W 7380  33.213  19.426  13.018
35710W        W 7381  32.859   8.878  14.026
35711W        W 7382  41.879   0.351   0.385
35712W        W 7383  30.116  40.148   1.333
35713W        W 7384  22.510  15.665   1.256
35714W        W 7385  42.743  30.625  10.226
35715W        W 7386  30.070  26.222  14.930
35716W        W 7387  35.518  14.567   2.157
35717W        W 7388  32.903  11.198   2.153
35718W        W 7389  24.563   2.460  14.357
35719W        W 7390  14.385   5.366   4.165
35720W        W 7391  11.662  10.654   2.709
35721W        W 7392  18.886  20.578  11.936
35722W        W 7393  21.144  40.726   5.054
35723W        W 7394  31.043  30.933  11.938
35724W        W 7395  42.946  38.099   3.206
35725W        W 7396  44.258  39.469  12.851
35726W        W 7397  40.835   4.412  12.597
35727W        W 7398  43.789  13.805   9.729
35728W        W 7399  32.770  26.122  13.990
35729W        W 7400  11.160  37.445  10.900
35730W        W 7401  16.768  12.663   4.743
35731W        W 7402   2.732  34.581   1.265
35732W        W 7403  42.469  27.733  14.421
35733W        W 7404  21.792   7.680  12.456
35734W        W 7405  17.784   7.145  11.097
35735W        W 7406   1.230  25.315   0.301
35736W        W 7407  44.492  13.840  11.559
35737W        W 7408  28.897  36.061   4.140
35738W        W 7409  15.244  38.370  14.042
35739W        W 7410   9.802   3.399  14.238
35740W        W 7411  12.257  28.927   1.555
35741W        W 7412  38.288   1.114  11.245
35742W        W 7413  24.351   9.355   4.796
35743W        W 7414  21.071  39.242   5.042
35744W        W 7415   5.499   1.371  11.031
35745W        W 7416  27.028   2.201   2.364
35746W        W 7417  30.953  30.738  10.608
35747W        W 7418   7.771  27.130   1.249
35748W        W 7419  27.935  23.166   0.677
35749W        W 7420  26.087  23.684   5.007
35750W        W 7421  35.625  33.537  13.730
35751W        W 7422  29.213  43.932   3.501
35752W        W 7423  27.209  39.451   3.614
35753W        W 7424  41.969   0.566   2.253
35754W        W 7425  13.282  15.720   2.333
35755W        W 7426  41.741  29.471   4.974
35756W        W 7427   5.885   9.866  11.057
35757W        W 7428   5.938   0.740   1.458
35758W        W 7429   7.621   1.866  14.443
35759W        W 7430   3.219   1.629  11.401
35760W        W 7431  22.502  35.143   1.747
35761W        W 7432   0.038  16.723  12.061
35762W        W 7433  22.800  24.371   4.999
35763W        W 7434   5.450   2.283   3.241
35764W        W 7435  18.204  25.022  12.087
35765W        W 7436  43.584  18.985  11.982
35766W        W 7437   2.296  37.387   4.234
35767W        W 7438  42.939  17.823  11.670
35768W        W 7439  26.013  31.584   4.694
35769W        W 7440  36.268  24.117   3.198
35770W        W 7441  37.041   9.960   2.752
35771W        W 7442  31.268   5.170   0.908
35772W        W 7443  31.217  15.964   0.251
35773W        W 7444  35.303   1.284   0.250
35774W        W 7445   2.603   9.135  10.026
35775W        W 7446  22.634  37.310   2.374
35776W        W 7447  31.195  29.300  10.461
35777W        W 7448  37.157   0.453   0.200
35778W        W 7449   7.101  39.781   0.619
35779W        W 7450  19.004  29.822  11.171
35780W        W 7451  23.455  41.455  10.453
35781W        W 7452  23.121  27.661  14.139
35782W        W 7453  31.105  18.305   4.570
35783W        W 7454  36.891  44.773   3.401
35784W        W 7455  13.094  32.682  11.096
35785W        W 7456  33.330  16.038   4.665
35786W        W 7457   1.865   6.992   3.250
35787W        W 7458  18.304   5.838  13.482
35788W        W 7459  24.514   1.959  11.893
35789W        W 7460  27.416  18.485   2.777
35790W        W 7461   3.327   6.890  13.734
35791W        W 7462  21.246  22.347   4.144
35792W        W 7463  14.610   4.012  11.575
35793W        W 7464  39.554  21.708   3.907
35794W        W 7465   6.261  29.867   5.186
35795W        W 7466   0.041  40.023  11.431
35796W        W 7467   3.756  15.504  11.584
35797W        W 7468   3.829  13.246  11.688
35798W        W 7469   9.760  14.589   1.597
35799W        W 7470  19.736  41.851   4.573
35800W        W 7471  31.173  25.615   3.775
35801W        W 7472   6.122   3.232  11.116
35802W        W 7473  38.575  10.608  12.412
35803W        W 7474   8.253  28.885  14.582
35804W        W 7475  19.393  19.485  12.968
35805W        W 7476  14.738  18.001  12.883
35806W        W 7477  14.090  23.070  10.702
35807W        W 7478  22.221  18.317   1.792
35808W        W 7479  26.705  43.118  12.496
35809W        W 7480   6.163   0.243  10.245
35810W        W 7481  21.479  11.815   1.872
35811W        W 7482  19.207  43.995  12.143
35812W        W 7483  38.473  39.305   2.144
35813W        W 7484  37.796  18.822  11.449
35814W        W 7485   7.215  24.654  14.346
35815W        W 7486  26.985  22.146  14.926
35816W        W 7487  38.092   2.873  14.295
35817W        W 7488   0.431   5.390  11.757
35818W        W 7489  14.310  29.168  10.585
35819W        W 7490  15.210   6.169   0.409
35820W        W 7491  25.701  43.983   3.187
35821W        W 7492  20.851  23.694  10.291
35822W        W 7493  37.640  12.235   1.379
35823W        W 7494  16.019  14.533   4.079
35824W        W 7495   4.227  10.440   2.332
35825W        W 7496   2.323  44.519  14.917
35826W        W 7497  25.975   8.277  12.212
35827W        W 7498  14.705  31.499   2.120
35828W        W 7499  31.663  16.801   0.716
35829W        W 7500  21.734  22.255   0.730
35830W        W 7501  26.817  28.916  10.606
35831W        W 7502   9.363  44.091   0.012
35832W        W 7503   6.774  42.512  10.320
35833W        W 7504  33.645  32.353   0.921
35834W        W 7505  15.171  32.080  14.580
35835W        W 7506  25.488  33.675  14.894
35836W        W 7507  27.467  31.819   1.078
35837W        W 7508  41.255   7.144  12.809
35838W        W 7509  23.156  31.923   4.584
35839W        W 7510  12.187  29.143  12.389
35840W        W 7511   0.395   8.139   0.488
35841W        W 7512  14.095  21.468   2.251
35842W        W 7513   6.183  12.302   1.627
35843W        W 7514  44.541  12.266  13.950
35844W        W 7515  27.836  33.692   1.256
35845W        W 7516  28.183  32.252  11.166
35846W        W 7517  15.329  26.698  14.174
35847W        W 7518  13.615  32.358  12.174
35848W        W 7519  39.009  27.122   4.182
35849W        W 7520  15.596  24.253  14.786
35850W        W 7521   6.233  22.097  11.344
35851W        W 7522   3.330   7.064  10.826
35852W        W 7523  16.204  30.523   1.415
35853W        W 7524  10.399  22.708   0.325
35854W        W 7525  21.650  11.599   3.208
35855W        W 7526  10.488  41.819  14.482
35856W        W 7527   0.434  19.003  11.189
35857W        W 7528  20.571  13.657   0.488
35858W        W 7529  31.970  14.401  11.717
35859W        W 7530  15.554  31.074  11.917
35860W        W 7531   8.639  12.743   3.259
35861W        W 7532  35.623  44.786  12.900
35862W        W 7533  27.930   2.400  10.675
35863W        W 7534  44.941  15.032  14.873
35864W        W 7535  10.186   5.693   0.393
35865W        W 7536  11.011  14.837   4.049
35866W        W 7537  23.014  44.419  11.883
35867W        W 7538  35.056  40.323  10.998
35868W        W 7539  16.132  38.388  13.597
35869W        W 7540  30.945  42.951  10.685
35870W        W 7541  14.631   9.766   2.658
35871W        W 7542  19.688  23.407  12.879
35872W        W 7543  24.484  36.418  12.082
35873W        W 7544  37.887  27.871  11.024
35874W        W 7545   9.468  39.056   0.785
35875W        W 7546  13.631  40.037   4.665
35876W        W 7547  44.737   0.728  13.370
35877W        W 7548   6.907  33.942  14.727
35878W        W 7549   2.413  35.922  12.962
35879W        W 7550  20.355  39.071  10.672
35880W        W 7551  23.323  30.182  11.670
35881W        W 7552   1.858  24.197  13.606
35882W        W 7553  17.844  23.806  14.822
35883W        W 7554  10.314  35.627  14.334
35884W        W 7555  22.593  13.371   3.892
35885W        W 7556  18.789   9.426   0.661
35886W        W 7557  39.112   3.267  11.577
35887W        W 7558   4.887  18.644   4.468
35888W        W 7559   3.193  27.446  10.749
35889W        W 7560  22.217  41.401   1.316
35890W        W 7561  35.900  33.941  13.459
35891W        W 7562  27.341  37.380   4.105
35892W        W 7563  32.813  37.916   2.187
35893W        W 7564  26.558  16.945  13.646
35894W        W 7565  28.028  16.942   4.891
35895W        W 7566  31.698  12.815   1.201
35896W        W 7567  32.606  14.725   4.450
35897W        W 7568  36.403  23.118  13.578
35898W        W 7569  40.429  40.415   1.503
35899W        W 7570   1.848  25.919   0.405
35900W        W 7571  34.641  40.311  11.293
35901W        W 7572   4.861  19.080  13.063
35902W        W 7573  10.246   7.605   4.656
35903W        W 7574  26.414  44.494   3.627
35904W        W 7575  11.359  24.124   0.420
35905W        W 7576  23.990  11.390  11.626
35906W        W 7577  24.124  26.518   5.413
35907W        W 7578  19.481   3.358  12.974
35908W        W 7579   0.051   9.182  13.396
35909W        W 7580   4.567   3.637   3.329
35910W        W 7581  38.110  23.549   3.174
35911W        W 7582  15.795  37.112  13.996
35912W        W 7583  37.881  30.017  11.548
35913W        W 7584  15.651  42.638   4.954
35914W        W 7585  20.274  28.744   3.843
35915W        W 7586   4.817  43.596   3.712
35916W        W 7587   8.875   7.684  14.807
35917W        W 7588  43.119  41.013   0.902
35918W        W 7589   3.828  39.933   2.280
35919W        W 7590  13.681   3.374   3.143
35920W        W 7591  20.324  41.771  11.447
35921W        W 7592  25.095  26.603  12.508
35922W        W 7593  12.816  16.857   2.606
35923W        W 7594  42.361  21.560  12.731
35924W        W 7595   1.232  26.993   1.338
35925W        W 7596  24.433  13.325  14.955
35926W        W 7597  43.727  11.894   2.892
35927W        W 7598  14.686  20.607   4.356
35928W        W 7599  31.615  42.089   4.071
35929W        W 7600   4.471  29.086  10.466
35930W        W 7601  42.507  37.456  10.281
35931W        W 7602  35.521  28.819  14.626
35932W        W 7603   3.728  39.442   3.599
35933W        W 7604  27.590  20.438   3.881
35934W        W 7605  12.600  38.366   4.793
35935W        W 7606  37.020  21.135   3.436
35936W        W 7607  11.593   4.498   2.526
35937W        W 7608  39.748  13.215   3.709
35938W        W 7609  17.783  31.046   1.747
35939W        W 7610  21.646  33.682  13.451
35940W        W 7611  24.750  20.437   2.664
35941W        W 7612  20.703  34.934  12.930
35942W        W 7613   4.649  14.035   0.888
35943W        W 7614  42.827  26.329   1.800
35944W        W 7615  33.058  42.161   4.214
35945W        W 7616  34.636   5.011  12.457
35946W        W 7617  43.241  40.946   5.038
35947W        W 7618  29.390   1.522  10.762
35948W        W 7619  22.009  10.948  14.452
35949W        W 7620   7.224   7.915  12.050
35950W        W 7621  42.974  43.852  14.840
35951W        W 7622  17.227  29.139  11.775
35952W        W 7623   5.940   8.799  14.986
35953W        W 7624   3.467  18.530   1.778
35954W        W 7625  38.079   5.249  14.373
35955W        W 7626  17.073  34.565   3.164
35956W        W 7627  25.025  22.242  11.111
35957W        W 7628   6.643  19.560   0.196
35958W        W 7629  27.048  29.994  14.481
35959W        W 7630  25.946  27.602   3.676
35960W        W 7631  16.143  17.766   2.805
35961W        W 7632  22.839  27.733  12.501
35962W        W 7633  41.989   5.385   2.546
35963W        W 7634  29.074  31.686   1.790
35964W        W 7635   7.964  44.302  13.571
35965W        W 7636   3.811  35.764  10.789
35966W        W 7637  35.868  20.794   1.810
35967W        W 7638  25.127   7.353   1.463
35968W        W 7639  28.439  40.235  14.871
35969W        W 7640  34.814   9.700  12.994
35970W        W 7641  38.597  29.119  11.102
35971W        W 7642   7.861  28.327   3.836
35972W        W 7643  26.031  17.539  11.417
35973W        W 7644   4.080  15.213  10.805
35974W        W 7645  31.439  25.788   0.422
35975W        W 7646  44.969   3.945   1.010
35976W        W 7647  40.761  39.797   2.610
35977W        W 7648  34.095   1.789  10.574
35978W        W 7649  19.331  36.444  13.735
35979W        W 7650  33.154   6.348   2.219
35980W        W 7651  30.915  37.583   3.657
35981W        W 7652  24.265  14.290   1.835
35982W        W 7653   3.133  14.218   4.875
35983W        W 7654  36.796   1.879  14.060
35984W        W 7655  16.227  38.046   0.797
35985W        W 7656  36.452  40.279   3.714
35986W        W 7657   8.580  21.378  12.425
35987W        W 7658  16.218   0.005   2.256
35988W        W 7659  21.813  28.686   2.544
35989W        W 7660  15.220  34.616  11.117
35990W        W 7661  16.545   4.213   1.259
35991W        W 7662   4.026   5.094   1.350
35992W        W 7663  25.220   4.926   0.317
35993W        W 7664  34.257  15.483   0.462
35994W        W 7665  27.890  36.906   1.057
35995W        W 7666  29.985  13.872  13.848
35996W        W 7667  10.117  40.852   1.723
35997W        W 7668   2.055   7.775   4.536
35998W        W 7669   6.685   2.913   2.025
35999W        W 7670  11.732  38.308  12.345
36000W        W 7671  30.586  15.220   1.836
36001W        W 7672  22.684  10.112   0.945
36002W        W 7673  19.075  30.695  12.403
36003W        W 7674  19.824   7.209  10.461
36004W        W 7675   2.665   4.241   2.676
36005W        W 7676  37.860  18.492  11.031
36006W        W 7677  33.527  42.029  14.780
36007W        W 7678   1.418  44.999  12.344
36008W        W 7679  21.731  42.823   0.376
36009W        W 7680  30.545  13.169  12.962
36010W        W 7681  16.610  30.702  14.430
36011W        W 7682  14.642  30.616  12.426
36012W        W 7683  37.824  28.891   0.417
36013W        W 7684  15.678  25.283  13.216
36014W        W 7685  12.585  26.755  13.070
36015W        W 7686  41.901  32.728  14.780
36016W        W 7687  23.553  39.332   0.034
36017W        W 7688  32.584   4.752   0.914
36018W        W 7689  19.640   5.494   3.450
36019W        W 7690   0.990  23.846   3.791
36020W        W 7691  39.347  23.486   0.192
36021W        W 7692  21.806   1.940  12.400
36022W        W 7693   4.718   5.198  14.840
36023W        W 7694   5.159   6.742   5.038
36024W        W 7695  24.592  33.377  13.626
36025W        W 7696   3.730  43.254   0.969
36026W        W 7697   8.651  38.321  10.370
36027W        W 7698  30.335  20.246   2.297
36028W        W 7699  29.976  18.168  10.930
36029W        W 7700  28.507  11.745   3.928
36030W        W 7701   0.265  38.597  11.122
36031W        W 7702  18.620   8.785   2.221
36032W        W 7703  14.642  42.459  13.931
36033W        W 7704  15.829   5.331  14.724
36034W        W 7705  22.458  18.032  12.032
36035W        W 7706  36.431   9.125   1.521
36036W        W 7707  11.208   4.804  11.687
36037W        W 7708  37.607  27.707   3.123
36038W        W 7709  25.418   0.179   0.394
36039W        W 7710  29.987   1.012   2.713
36040W        W 7711  12.754  10.668   4.786
36041W        W 7712  25.742   1.084  11.976
36042W        W 7713  21.085  44.067  13.191
36043W        W 7714  33.875   6.480  12.036
36044W        W 7715  12.217  10.780   4.048
36045W        W 7716   5.440  10.915  10.387
36046W        W 7717  27.047  44.003   3.165
36047W        W 7718  29.466  21.297   0.356
36048W        W 7719  43.740  22.156   2.840
36049W        W 7720  39.087  34.850  12.733
36050W        W 7721   1.238  25.418   3.047
36051W        W 7722  29.540  18.762   1.339
36052W        W 7723  16.554   7.573   2.427
36053W        W 7724  27.038  17.261  11.024
36054W        W 7725  29.476   1.375  14.931
36055W        W 7726  16.289  44.975  12.446
36056W        W 7727   0.390  26.625   3.693
36057W        W 7728  27.993   0.962   0.665
36058W        W 7729  40.809  19.084   2.858
36059W        W 7730   4.799  24.080   3.601
36060W        W 7731  22.187  43.206  13.706
36061W        W 7732  12.880  21.903  11.046
36062W        W 7733  20.753  43.646  11.500
36063W        W 7734  37.869  24.985   2.457
36064W        W 7735  34.004  27.986  13.538
36065W        W 7736  23.804  31.006   1.828
36066W        W 7737  36.303  22.107   3.743
36067W        W 7738  42.324  18.189  14.769
36068W        W 7739  26.908  35.717  12.888
36069W        W 7740  28.783  41.797   2.698
36070W        W 7741  35.159  42.452   3.371
36071W        W 7742  42.821  16.265   3.323
36072W        W 7743   3.720   1.430   1.457
36073W        W 7744  42.763  20.711   1.710
36074W        W 7745  41.612  29.055   4.607
36075W        W 7746  42.865  20.501   1.255
36076W        W 7747  24.016  32.072   3.583
36077W        W 7748   2.319   2.363  12.660
36078W        W 7749  12.161  14.085   2.707
36079W        W 7750   8.972  34.901   3.271
36080W        W 7751  34.346  41.826  11.628
36081W        W 7752  41.403   4.657  13.949
36082W        W 7753  14.891  23.645   5.189
36083W        W 7754   4.754  33.809  10.734
36084W        W 7755  44.340   7.821  10.264
36085W        W 7756  20.753  23.993  11.173
36086W        W 7757  27.987  28.569  10.639
36087W        W 7758  31.020  25.283  13.886
36088W        W 7759  31.889  38.956   1.958
36089W        W 7760  33.395  18.178  13.336
36090W        W 7761  14.865  33.163  13.969
36091W        W 7762  12.864  32.078   2.260
36092W        W 7763  24.472  43.494   3.395
36093W        W 7764  39.958   3.406  10.659
36094W        W 7765  22.690   5.683   1.411
36095W        W 7766  10.631   4.696  13.362
36096W        W 7767  33.675  14.037  13.135
36097W        W 7768   5.864  15.098   2.367
36098W        W 7769  30.558  10.397  13.349
36099W        W 7770  43.770  18.219  12.398
36100W        W 7771  23.186   7.592   4.248
36101W        W 7772  34.803   4.992  11.970
36102W        W 7773  26.070  26.163   0.293
36103W        W 7774   1.312   8.052   2.392
36104W        W 7775   0.527  32.133   3.097
36105W        W 7776  37.975  29.204   1.410
36106W        W 7777  23.138  16.682  14.492
36107W        W 7778  40.396  26.880  12.495
36108W        W 7779  41.905  33.534  10.338
36109W        W 7780  32.115   1.439  12.622
36110W        W 7781  40.122  30.224   0.373
36111W        W 7782  25.343   4.824  13.351
36112W        W 7783  43.956  31.674   2.773
36113W        W 7784  34.275  12.767   3.274
36114W        W 7785  14.222   8.815   4.084
36115W        W 7786   9.795  38.103  12.465
36116W        W 7787   6.220  29.682  10.572
36117W        W 7788   3.172   8.425   3.103
36118W        W 7789  20.549  33.930   2.078
36119W        W 7790  21.681  34.073   1.489
36120W        W 7791  36.979  22.737   2.787
36121W        W 7792   5.828  31.485   2.198
36122W        W 7793  43.058  28.635  14.389
36123W        W 7794  23.196  36.430  11.004
36124W        W 7795   5.110   6.285   3.782
36125W        W 7796  19.328  24.475   1.502
36126W        W 7797   2.287   1.353  11.150
36127W        W 7798  25.450  10.345   9.902
36128W        W 7799  13.284   1.464  13.449
36129W        W 7800  41.096   4.781   4.126
36130W        W 7801  31.098  40.367   0.412
36131W        W 7802  33.369   9.146  14.762
36132W        W 7803  20.585  18.797  13.515
36133W        W 7804  26.512  23.988  13.820
36134W        W 7805  28.838  36.773  12.934
36135W        W 7806  43.819  29.146   1.819
36136W        W 7807   3.658  23.163  14.406
36137W        W 7808   9.321  37.992  11.778
36138W        W 7809   2.127  19.996  10.681
36139W        W 7810   0.974  23.176  12.472
36140W        W 7811  19.196   5.974  10.949
36141W        W 7812  21.129  27.938  11.520
36142W        W 7813  29.622  29.280  12.046
36143W        W 7814  41.809  27.384  14.526
36144W        W 7815  27.305  27.555  12.865
36145W        W 7816   8.109  26.953   3.093
36146W        W 7817  40.226  10.207  11.107
36147W        W 7818  21.606  31.427   3.895
36148W        W 7819  42.006  23.703  11.886
36149W        W 7820  40.260  29.034  11.578
36150W        W 7821  17.988  41.295  14.772
36151W        W 7822  12.082  30.489   3.178
36152W        W 7823  22.686  11.778   4.322
36153W        W 7824   4.705  33.185  14.235
36154W        W 7825  30.185  38.385   0.316
36155W        W 7826  23.644  16.919   4.225
36156W        W 7827  29.442  29.206   3.279
36157W        W 7828  22.752   3.257   3.624
36158W        W 7829   9.160  24.009  12.181
36159W        W 7830  40.312  23.265  10.325
36160W        W 7831  19.185  32.374   5.114
36161W        W 7832   3.984  24.926   4.512
36162W        W 7833   7.860  12.061   0.744
36163W        W 7834  33.867  39.876  10.615
36164W        W 7835  33.920  12.378  13.077
36165W        W 7836  21.074  33.671  14.631
36166W        W 7837  27.153  40.169   1.355
36167W        W 7838  25.120   4.300   3.342
36168W        W 7839  28.313  35.187   3.820
36169W        W 7840  27.680   5.167   3.180
36170W        W 7841  17.833  20.420  11.136
36171W        W 7842  12.687   8.601  11.713
36172W        W 7843  44.485  31.694   4.113
36173W        W 7844  15.566   7.250  11.970
36174W        W 7845  19.219  12.191   2.840
36175W        W 7846  25.036   9.187   1.857
36176W        W 7847  22.399  41.858   1.979
36177W        W 7848  12.234   6.650  11.980
36178W        W 7849   5.692  26.480   0.943
36179W        W 7850  20.710   9.812   0.294
36180W        W 7851  22.935  11.142  10.754
36181W        W 7852   6.186  39.315  12.165
36182W        W 7853  36.036   0.989   1.498
36183W        W 7854   3.854   7.551  14.348
36184W        W 7855  24.238  19.969   1.511
36185W        W 7856  25.581  28.443  11.128
36186W        W 7857   8.250  16.479  13.384
36187W        W 7858   0.004   7.376  10.629
36188W        W 7859  21.590  44.779   4.229
36189W        W 7860   8.961  32.496   3.141
36190W        W 7861   2.658  32.537   3.873
36191W        W 7862  12.760  37.126  14.371
36192W        W 7863   7.346   2.373   0.594
36193W        W 7864  35.608  25.704   2.906
36194W        W 7865  10.902  40.046  13.711
36195W        W 7866  33.499   5.663  13.803
36196W        W 7867  33.041   6.666   2.616
36197W        W 7868  35.011   7.454   5.008
36198W        W 7869   9.762  22.308  13.381
36199W        W 7870   7.312  14.796   3.330
36200W        W 7871   9.406  41.519  12.031
36201W        W 7872  34.154  44.456  10.975
36202W        W 7873  39.855   7.339   4.867
36203W        W 7874  23.520  28.639  11.464
36204W        W 7875  17.652  21.613  12.841
36205W        W 7876  36.781  42.068  11.701
36206W        W 7877  24.057   4.869  13.404
36207W        W 7878  41.403  32.905   1.984
36208W        W 7879  30.916   6.877   4.070
36209W        W 7880   9.328  13.000  14.750
36210W        W 7881  42.466   9.852  12.047
36211W        W 7882  38.883  27.521  10.448
36212W        W 7883  13.053  32.545   5.015
36213W        W 7884   6.877  18.325   0.835
36214W        W 7885  30.119   4.268  11.156
36215W        W 7886  19.582  31.420  14.504
36216W        W 7887   2.881   1.294  14.498
36217W        W 7888  24.556  31.551   1.781
36218W        W 7889  30.237   2.801  10.575
36219W        W 7890   7.386   3.313   2.099
36220W        W 7891  17.136  11.332  14.736
36221W        W 7892  41.951  18.042   2.296
36222W        W 7893  22.199  24.581  12.834
36223W        W 7894  42.797   0.548  13.474
36224W        W 7895  10.218  24.564  14.839
36225W        W 7896  12.638   1.326   1.771
36226W        W 7897  28.993  41.443  14.554
36227W        W 7898  37.886   0.351  14.045
36228W        W 7899   6.680  36.542  14.049
36229W        W 7900  39.019  32.338   2.440
36230W        W 7901   4.325  44.993   1.493
36231W        W 7902  26.260  22.714  11.166
36232W        W 7903  16.668  35.597   4.800
36233W        W 7904  31.393  11.853   4.288
36234W        W 7905  31.512  15.418   0.747
36235W        W 7906  24.596   9.213  11.565
36236W        W 7907  19.225  38.489   4.110
36237W        W 7908  20.234  39.140  11.996
36238W        W 7909  35.086   9.100  14.302
36239W        W 7910   0.423  40.866  11.377
36240W        W 7911   4.342  42.963   3.530
36241W        W 7912  33.025   2.306  14.876
36242W        W 7913  12.518  15.663   4.629
36243W        W 7914  25.051   4.724   3.643
36244W        W 7915  23.057  39.165   2.314
36245W        W 7916  33.868  11.901  12.868
36246W        W 7917   0.271   9.980  11.877
36247W        W 7918  16.612   0.402  12.469
36248W        W 7919  41.007  36.461  11.920
36249W        W 7920  21.491  39.437   2.130
36250W        W 7921  24.656  19.142  11.428
36251W        W 7922  44.503  32.664  11.030
36252W        W 7923  21.729  44.865  10.966
36253W        W 7924  44.009  35.359  10.541
36254W        W 7925  16.653  35.330  11.034
36255W        W 7926  36.515   7.289   0.011
36256W        W 7927  41.937  17.574   4.570
36257W        W 7928  40.245  11.653   0.306
36258W        W 7929   7.023  34.973   2.973
36259W        W 7930  23.636  12.802  11.425
36260W        W 7931  33.961   2.301   2.028
36261W        W 7932  43.337  44.200  14.992
36262W        W 7933  16.671  13.891   9.811
36263W        W 7934   6.331  20.594  13.069
36264W        W 7935  43.329  37.655   1.389
36265W        W 7936  37.838  12.717  11.122
36266W        W 7937  43.669  25.680  14.485
36267W        W 7938  11.232  25.765   1.282
36268W        W 7939  29.655  11.305  12.492
36269W        W 7940  17.568  33.982   3.548
36270W        W 7941  38.002   1.474   1.885
36271W        W 7942  23.232   1.415  11.513
36272W        W 7943  15.863   7.340   2.865
36273W        W 7944  40.590  29.433   1.940
36274W        W 7945  39.188  10.237   0.922
36275W        W 7946  29.263   3.005   1.340
36276W        W 7947  25.259   6.241   4.253
36277W        W 7948  44.493  29.750   2.198
36278W        W 7949  16.861  24.551   1.924
36279W        W 7950  14.808  18.531  11.591
36280W        W 7951  29.554   9.899  14.387
36281W        W 7952  10.064  12.152  14.370
36282W        W 7953  10.331   2.365   1.720
36283W        W 7954  35.732  13.775   4.078
36284W        W 7955  11.998  35.469   1.343
36285W        W 7956  37.146  38.228  13.091
36286W        W 7957  13.371  25.732   3.416
36287W        W 7958   6.375  18.019  12.298
36288W        W 7959   8.255   2.260  12.988
36289W        W 7960  20.263  12.074   1.750
36290W        W 7961   4.244  33.197   2.294
36291W        W 7962  23.771  26.041   2.297
36292W        W 7963  30.540  11.467   4.253
36293W        W 7964  26.553  12.001   2.213
36294W        W 7965   9.178  36.088   0.943
36295W        W 7966  23.131  14.315   2.321
36296W        W 7967  38.624  43.410  11.215
36297W        W 7968  12.931  20.318   1.980
36298W        W 7969  11.814  12.193   0.484
36299W        W 7970  28.172  14.416  10.629
36300W        W 7971  22.045  31.916   1.562
36301W        W 7972  13.890  27.103   3.863
36302W        W 7973  37.861  23.015  13.424
36303W        W 7974  11.859  18.238   4.622
36304W        W 7975  29.964  28.669  13.093
36305W        W 7976   7.473  15.715  12.483
36306W        W 7977   4.834   0.761  11.936
36307W        W 7978  38.938  14.213   1.745
36308W        W 7979  39.212  11.209  11.448
36309W        W 7980  33.596   1.951   3.036
36310W        W 7981  23.703  15.015   2.306
36311W        W 7982  29.992  30.989  10.931
36312W        W 7983  36.652  33.876   0.993
36313W        W 7984  27.988  28.958   4.674
36314W        W 7985  19.096  35.332  12.939
36315W        W 7986   7.326  28.504   1.333
36316W        W 7987  44.303   9.150  11.808
36317W        W 7988   3.196  18.629  11.150
36318W        W 7989  30.437  34.588  14.379
36319W        W 7990   0.304  29.532   2.736
36320W        W 7991  39.332  44.024   3.975
36321W        W 7992  17.458  30.866   3.188
36322W        W 7993  17.175  11.074  11.529
36323W        W 7994  35.947  30.770  10.546
36324W        W 7995  27.281  41.079  10.893
36325W        W 7996  12.326  35.484   4.830
36326W        W 7997   7.226  40.423  14.111
36327W        W 7998  10.315  13.594   1.190
36328W        W 7999  20.569   3.298  13.376
36329W        W 8000  44.742  35.074   0.504
36330W        W 8001  13.177  12.817  10.697
36331W        W 8002  15.218  39.973  14.197
36332W        W 8003  16.361  34.407   1.845
36333W        W 8004   6.183  18.760  11.328
36334W        W 8005  24.395  30.022   3.737
36335W        W 8006  20.996  25.985   1.111
36336W        W 8007  44.974  41.297   2.785
36337W        W 8008  32.927  34.167   3.575
36338W        W 8009  24.039  30.107   4.946
36339W        W 8010  13.815   2.349   2.335
36340W        W 8011  34.794  40.612   4.717
36341W        W 8012   0.866  19.336  12.443
36342W        W 8013  42.212   7.427  10.967
36343W        W 8014  27.885   0.937   3.461
36344W        W 8015  25.474  25.282  10.725
36345W        W 8016  21.866  21.231  11.631
36346W        W 8017  30.868   9.284  10.677
36347W        W 8018  11.981  19.698  14.432
36348W        W 8019  37.615  40.613   2.435
36349W        W 8020  35.341  37.288  11.787
36350W        W 8021  34.394  12.144   1.426
36351W        W 8022  13.897  36.428   0.839
36352W        W 8023  11.676  29.409  12.097
36353W        W 8024   6.188  15.689   3.806
36354W        W 8025  44.965   4.453   4.115
36355W        W 8026  11.713  23.477   4.076
36356W        W 8027  43.338   8.438  13.023
36357W        W 8028  42.254  37.646   3.770
36358W        W 8029  27.520  44.318   0.328
36359W        W 8030  18.197  22.640  13.263
36360W        W 8031  16.516  33.628   4.530
36361W        W 8032  25.601  35.862   4.663
36362W        W 8033  11.705   7.425   4.621
36363W        W 8034  28.208  24.681  11.455
36364W        W 8035   0.353  31.476  14.300
36365W        W 8036   3.662   5.891  13.845
36366W        W 8037  25.798  15.610   2.600
36367W        W 8038  21.500  34.604  10.771
36368W        W 8039  34.679  16.227   2.393
36369W        W 8040  29.925   1.922  11.531
36370W        W 8041  33.143  36.503   4.424
36371W        W 8042  36.393  34.152  12.483
36372W        W 8043  20.869  44.759   1.740
36373W        W 8044   5.900   2.248  14.359
36374W        W 8045  22.562  23.216  11.907
36375W        W 8046   0.007  14.704  13.118
36376W        W 8047  18.478  17.440   1.942
36377W        W 8048   6.169  20.694  13.643
36378W        W 8049  16.687  27.901  12.819
36379W        W 8050   3.326  31.990   2.449
36380W        W 8051  30.203  23.117   1.806
36381W        W 8052  34.379  36.468   1.264
36382W        W 8053  24.680  33.213  10.691
36383W        W 8054  23.874   8.454  13.359
36384W        W 8055   7.234   2.920   1.274
36385W        W 8056  29.968  29.206  14.364
36386W        W 8057  27.910  44.280  12.393
36387W        W 8058  14.857  10.029  14.853
36388W        W 8059  41.968  10.541   2.270
36389W        W 8060   8.830  13.241   3.805
36390W        W 8061  41.209  42.817   3.299
36391W        W 8062  28.635  12.040  11.926
36392W        W 8063   5.209  23.135  14.260
36393W        W 8064  16.374   0.996  11.942
36394W        W 8065  10.318  19.259   1.649
36395W        W 8066  43.306  38.589   5.134
36396W        W 8067  20.398  31.135  14.805
36397W        W 8068  16.542   6.800  10.574
36398W        W 8069   1.850  11.960   2.658
36399W        W 8070  21.451  41.264  11.133
36400W        W 8071  19.668   2.099   0.230
36401W        W 8072   2.840  44.404  10.532
36402W        W 8073   7.121  44.954  12.584
36403W        W 8074  27.836  35.186   2.011
36404W        W 8075  12.302  37.073   0.382
36405W        W 8076  16.637  42.388  12.423
36406W        W 8077   2.225  17.192   0.753
36407W        W 8078  11.813  31.552  12.000
36408W        W 8079  34.099  34.006  13.043
36409W        W 8080  30.030  27.094  12.059
36410W        W 8081  42.113  24.524  10.367
36411W        W 8082  15.661  42.494   2.708
36412W        W 8083  42.490  21.668   3.248
36413W        W 8084  39.569   7.616  10.841
36414W        W 8085  40.535  37.094   3.560
36415W        W 8086  15.842  36.521   2.656
36416W        W 8087  36.614   2.077  14.504
36417W        W 8088  21.218  11.367   1.223
36418W        W 8089   4.930  23.496   2.297
36419W        W 8090  18.870  41.386  13.442
36420W        W 8091   3.228   5.494   0.882
36421W        W 8092   2.691  33.577  14.464
36422W        W 8093   9.256   3.986  14.375
36423W        W 8094   7.670   1.387  10.628
36424W        W 8095  18.526  14.708  11.627
36425W        W 8096  17.527  42.544   4.201
36426W        W 8097  25.988   4.027  12.024
36427W        W 8098  32.121  27.375   2.609
36428W        W 8099  18.159   5.634  13.966
36429W        W 8100  13.337  10.328   2.489
36430W        W 8101   7.086  36.965  11.087
36431W        W 8102  44.595  23.985  13.943
36432W        W 8103   4.294  27.692  11.401
36433W        W 8104  25.287   6.697   2.223
36434W        W 8105   0.325  17.335  13.176
36435W        W 8106  12.294  37.020  11.164
36436W        W 8107  29.002  26.546   1.458
36437W        W 8108   1.975  38.798   4.477
36438W        W 8109  27.991  30.344   1.417
36439W        W 8110  38.683  15.549  14.434
36440W        W 8111  31.970  40.958  11.670
36441W        W 8112   0.661  33.030   4.038
36442W        W 8113  24.492  23.099  12.912
36443W        W 8114  18.500  18.752   3.294
36444W        W 8115  15.355  12.163  10.687
36445W        W 8116  26.637  29.385  13.530
36446W        W 8117  44.480  11.706  10.448
36447W        W 8118  21.540  30.516   0.273
36448W        W 8119  44.226  39.062   2.307
36449W        W 8120  23.606   2.317  13.310
36450W        W 8121   4.701  25.692  13.071
36451W        W 8122   6.656  11.403  14.897
36452W        W 8123  39.235   6.196   2.403
36453W        W 8124  42.533   8.507  13.599
36454W        W 8125   9.713  44.567   4.456
36455W        W 8126  14.182   2.596  11.581
36456W        W 8127  38.171  36.541  13.613
36457W        W 8128  16.182  13.355   1.876
36458W        W 8129  13.727  43.173  13.053
36459W        W 8130  39.531  27.890  12.332
36460W        W 8131  12.590   2.240  13.255
36461W        W 8132  10.570  21.300  13.689
36462W        W 8133  15.193  12.079  14.993
36463W        W 8134   6.472  35.036   4.169
36464W        W 8135  13.157  15.146   3.113
36465W        W 8136  18.830  38.943   1.847
36466W        W 8137  15.631  30.927   9.902
36467W        W 8138  11.565  27.621  13.586
36468W        W 8139  40.465   5.504  13.557
36469W        W 8140   4.189  22.555   2.266
36470W        W 8141  20.628  13.654  11.087
36471W        W 8142  12.718  22.437   2.445
36472W        W 8143  40.765   1.486   3.654
36473W        W 8144  14.214  33.349   2.929
36474W        W 8145  35.633  39.876   4.666
36475W        W 8146   5.813  14.179   2.373
36476W        W 8147   6.474  41.037   1.194
36477W        W 8148  41.908  26.111  13.979
36478W        W 8149  26.527   0.486   1.217
36479W        W 8150  18.575  15.941   4.200
36480W        W 8151  14.554  13.307   2.713
36481W        W 8152  22.211  10.222   4.149
36482W        W 8153  43.010   9.203  14.076
36483W        W 8154  31.325   3.879  13.763
36484W        W 8155  44.897  22.015   2.788
36485W        W 8156  42.776   6.825  12.487
36486W        W 8157   8.453  39.044   2.217
36487W        W 8158  29.008  19.836   0.821
36488W        W 8159  10.047  25.400  14.198
36489W        W 8160  27.680   8.206   4.772
36490W        W 8161   0.234  13.729  12.998
36491W        W 8162  35.607  25.264   3.693
36492W        W 8163  29.398  37.903   2.826
36493W        W 8164  41.905  35.040  14.063
36494W        W 8165  28.553  40.856   2.842
36495W        W 8166  42.223   9.857  14.847
36496W        W 8167  20.110  41.959  11.024
36497W        W 8168  32.574  12.814  11.588
36498W        W 8169  41.351  27.448  12.493
36499W        W 8170  25.133  39.679   2.627
36500W        W 8171  34.388  26.198   0.868
36501W        W 8172  34.606  30.546  13.657
36502W        W 8173  11.293  37.463   0.742
36503W        W 8174  10.593  22.181  10.930
36504W        W 8175   6.284  36.661   4.226
36505W        W 8176  27.573  15.610  10.187
36506W        W 8177  35.403  33.389   2.947
36507W        W 8178  41.370   0.227  10.640
36508W        W 8179   0.236  11.296   1.754
36509W        W 8180  12.060  21.955   0.374
36510W        W 8181  33.101  14.556   4.549
36511W        W 8182  31.186  37.405   4.069
36512W        W 8183   4.917   0.861  14.806
36513W        W 8184  21.437  26.693   0.842
36514W        W 8185  44.451   0.281  13.486
36515W        W 8186  23.443  31.154   4.130
36516W        W 8187  11.705   5.364   3.198
36517W        W 8188  30.893  33.835   2.807
36518W        W 8189  42.314  36.108   1.734
36519W        W 8190  29.419  27.051   1.861
36520W        W 8191  24.820  33.852  13.800
36521W        W 8192  11.242  21.737  14.371
36522W        W 8193  18.843  24.642   1.642
36523W        W 8194  11.156  38.635  14.545
36524W        W 8195  32.602  27.719  13.407
36525W        W 8196  30.991  16.259   2.693
36526W        W 8197  29.189  15.090  10.658
36527W        W 8198  16.190  44.579  13.988
36528W        W 8199  15.165   6.330   4.612
36529W        W 8200  14.515   4.905  12.481
36530W        W 8201  21.217   4.651   3.775
36531W        W 8202  13.811  32.849  14.372
36532W        W 8203  38.572  14.025   3.757
36533W        W 8204  22.333  37.369  11.994
36534W        W 8205   3.846  25.885   4.821
36535W        W 8206   0.126  18.108  14.395
36536W        W 8207  14.067   2.464  13.042
36537W        W 8208   0.199  39.615  14.785
36538W        W 8209  39.235  17.609   0.165
36539W        W 8210  15.691   6.274  13.885
36540W        W 8211  41.317  13.155  12.880
36541W        W 8212   8.757  19.058   2.968
36542W        W 8213  43.238  37.947  11.650
36543W        W 8214   4.205  40.456  11.145
36544W        W 8215  41.894  37.414  14.465
36545W        W 8216  34.160  34.797  11.193
36546W        W 8217  11.685  18.601   3.681
36547W        W 8218  41.448  24.803  14.965
36548W        W 8219  41.101   3.743  12.077
36549W        W 8220   3.201   9.260  13.061
36550W        W 8221  38.763   8.301   3.784
36551W        W 8222  14.206  44.420   1.007
36552W        W 8223  26.633  21.712  11.530
36553W        W 8224  33.992  29.422  13.566
36554W        W 8225  35.967   4.798   2.333
36555W        W 8226  22.036  35.971   4.297
36556W        W 8227   6.578  32.199   3.290
36557W        W 8228  15.205  34.832   1.787
36558W        W 8229  18.005  34.383  11.920
36559W        W 8230   9.864  32.539   3.696
36560W        W 8231  32.196  10.422  13.884
36561W        W 8232  28.388  36.990   0.938
36562W        W 8233  36.429   1.038  13.876
36563W        W 8234  36.458  13.145  12.559
36564W        W 8235  26.104  23.503   4.107
36565W        W 8236  25.704  14.422  11.276
36566W        W 8237  34.889  26.527  13.441
36567W        W 8238  43.339  15.331   1.796
36568W        W 8239  43.059  38.469   2.336
36569W        W 8240  33.560   8.697   4.532
36570W        W 8241  17.142  26.412   3.105
36571W        W 8242   9.187  10.861   4.426
36572W        W 8243  10.223  44.479   0.482
36573W        W 8244  42.952   4.632   2.855
36574W        W 8245  38.857  41.173   1.394
36575W        W 8246  29.138  16.324  10.693
36576W        W 8247  20.086  22.104   3.175
36577W        W 8248  23.538  10.928  13.207
36578W        W 8249  26.729   3.452  14.809
36579W        W 8250   9.371  33.908   2.958
36580W        W 8251  13.665   6.243  14.475
36581W        W 8252   7.171  30.995  11.995
36582W        W 8253  24.266  44.516   4.235
36583W        W 8254  38.663  29.513   3.319
36584W        W 8255  29.503  22.832  12.150
36585W        W 8256  44.039  12.946   0.256
36586W        W 8257  17.553  27.630  12.579
36587W        W 8258   3.833  28.428  14.563
36588W        W 8259  29.574  22.320   2.516
36589W        W 8260  15.711   5.825  14.894
36590W        W 8261  24.094  36.229  14.915
36591W        W 8262  25.211   0.764  14.626
36592W        W 8263  31.840  37.703   5.181
36593W        W 8264  41.759  41.023   1.239
36594W        W 8265  31.059  36.857   0.565
36595W        W 8266  10.262   1.193  12.629
36596W        W 8267  21.755  37.371   1.377
36597W        W 8268  13.638  20.274   4.036
36598W        W 8269  39.619  32.471  14.335
36599W        W 8270  28.998  34.525  14.405
36600W        W 8271  17.003  37.466   3.263
36601W        W 8272   6.946  27.499  10.529
36602W        W 8273   1.580  33.443  13.789
36603W        W 8274  41.407  29.283  13.890
36604W        W 8275  33.022  16.024  11.244
36605W        W 8276  25.254   4.306   1.786
36606W        W 8277  37.849   1.924  13.944
36607W        W 8278  39.755  14.909   3.806
36608W        W 8279  14.186  32.998  14.054
36609W        W 8280  12.615   5.536  12.746
36610W        W 8281   5.717  18.564   2.836
36611W        W 8282  42.910  31.292  10.833
36612W        W 8283  14.586  12.269  11.291
36613W        W 8284  43.640  14.216  10.350
36614W        W 8285  25.198  44.406   0.912
36615W        W 8286   7.885  33.404   4.613
36616W        W 8287  36.837  40.121   0.311
36617W        W 8288  29.699  18.784   3.241
36618W        W 8289  25.362  27.183  12.142
36619W        W 8290  17.105   0.869  14.832
36620W        W 8291   3.680  39.397  14.898
36621W        W 8292  37.406  24.548  11.646
36622W        W 8293  18.316  15.566  14.421
36623W        W 8294  29.474  38.586  13.950
36624W        W 8295  43.969  25.319   2.937
36625W        W 8296   5.896  34.760   2.723
36626W        W 8297  17.159   0.315  11.921
36627W        W 8298   2.145  30.117  14.401
36628W        W 8299  39.930  10.805  10.460
36629W        W 8300  41.320  25.396  11.668
36630W        W 8301  31.664   4.037   1.728
36631W        W 8302  28.977   6.988   3.312
36632W        W 8303  18.419  36.833   2.356
36633W        W 8304  17.625  34.015   4.061
36634W        W 8305  39.039  21.718   1.781
36635W        W 8306  27.247  27.941  14.816
36636W        W 8307  40.773  30.405   3.150
36637W        W 8308  35.686   5.151  14.479
36638W        W 8309  40.214  38.353   0.846
36639W        W 8310  41.614  44.616  10.991
36640W        W 8311  42.592   9.906   3.806
36641W        W 8312   2.361  18.495  10.733
36642W        W 8313  36.063  25.098   4.142
36643W        W 8314  23.598  23.289  10.898
36644W        W 8315   3.149  21.200  13.337
36645W        W 8316  26.010  38.801   1.437
36646W        W 8317   2.879  33.046   4.500
36647W        W 8318  41.809  18.351   0.444
36648W        W 8319   0.653  31.439  11.506
36649W        W 8320  32.398  12.185  14.489
36650W        W 8321  31.636  44.431  13.302
36651W        W 8322  37.015  44.975   1.837
36652W        W 8323  20.342  36.106  14.517
36653W        W 8324  21.109  13.649   0.513
36654W        W 8325  30.125  27.584  14.330
36655W        W 8326  44.399  18.663   2.687
36656W        W 8327  10.376  39.926   3.149
36657W        W 8328  39.371  42.666  11.201
36658W        W 8329  11.378  23.506  12.400
36659W        W 8330  24.026  29.157  11.174
36660W        W 8331   2.293  20.479   1.253
36661W        W 8332  17.279  17.501  13.505
36662W        W 8333  38.767  20.180  10.639
36663W        W 8334  19.309  37.158  13.154
36664W        W 8335  35.450  30.375  11.221
36665W        W 8336  34.981  39.735  11.910
36666W        W 8337  34.229  10.881   1.368
36667W        W 8338  38.879   6.217  13.288
36668W        W 8339  37.269   0.775   5.155
36669W        W 8340  24.134   1.643  12.045
36670W        W 8341  24.495  43.914  13.307
36671W        W 8342  28.000  18.742   1.097
36672W        W 8343  29.046  25.997   0.223
36673W        W 8344  23.487  27.891   2.664
36674W        W 8345  27.327  10.822  10.972
36675W        W 8346  27.004  39.577  11.119
36676W        W 8347  10.350  10.211   3.671
36677W        W 8348  20.104  40.487   4.546
36678W        W 8349  20.837  16.062   4.872
36679W        W 8350   2.922   3.823   3.571
36680W        W 8351   7.278   2.815  13.873
36681W        W 8352  31.116  21.956   0.365
36682W        W 8353  10.480  38.657  11.486
36683W        W 8354   8.942  16.664   2.692
36684W        W 8355  41.807   6.147   3.314
36685W        W 8356  28.444  42.816  13.034
36686W        W 8357   7.144   0.450   1.277
36687W        W 8358  37.898  29.917   4.250
36688W        W 8359   9.915  16.835  13.521
36689W        W 8360  25.181  33.899  11.867
36690W        W 8361  39.087  12.724  14.348
36691W        W 8362  28.975  15.361   1.396
36692W        W 8363  11.624  15.963   1.690
36693W        W 8364  42.094  28.573   3.712
36694W        W 8365  26.076  32.166  14.426
36695W        W 8366   6.084  12.573   4.462
36696W        W 8367  39.841  18.041   3.842
36697W        W 8368   3.156  31.129   1.927
36698W        W 8369  36.259  29.299   1.356
36699W        W 8370   3.213  15.271  13.010
36700W        W 8371  18.933   6.363  10.211
36701W        W 8372  20.582  44.792   3.285
36702W        W 8373  19.694  30.606   4.463
36703W        W 8374   5.274  19.017   0.551
36704W        W 8375  21.241  34.182  11.125
36705W        W 8376  10.809  28.316  11.995
36706W        W 8377  37.114   8.927   2.767
36707W        W 8378  27.436  35.395   1.760
36708W        W 8379  41.455  36.157  11.591
36709W        W 8380  44.721  30.315   4.058
36710W        W 8381  37.903  20.263  14.963
36711W        W 8382   4.963  32.075  11.225
36712W        W 8383   4.239  42.051   4.041
36713W        W 8384  41.173   5.779   3.762
36714W        W 8385   8.583  21.607   2.784
36715W        W 8386  35.596  24.627   1.212
36716W        W 8387  40.795   3.672   4.152
36717W        W 8388  18.205  44.444  13.751
36718W        W 8389  16.276  42.747  12.044
36719W        W 8390  24.211  40.336  14.338
36720W        W 8391   0.025   6.621   4.468
36721W        W 8392  26.066  18.116  14.603
36722W        W 8393  22.748  32.123  12.978
36723W        W 8394  24.548  11.937   1.729
36724W        W 8395  15.265  11.069  14.100
36725W        W 8396  11.077  10.271  14.966
36726W        W 8397  15.670   0.854  10.397
36727W        W 8398  39.455   5.433   1.188
36728W        W 8399  24.764  37.046   2.059
36729W        W 8400  10.792  14.582   1.951
36730W        W 8401  12.897   0.209   3.126
36731W        W 8402  11.747  19.980  14.788
36732W        W 8403  42.486   6.319  11.029
36733W        W 8404   9.224   9.789  10.822
36734W        W 8405  14.051  13.077   2.830
36735W        W 8406   3.485  29.059  10.579
36736W        W 8407  30.571  38.988  13.820
36737W        W 8408  12.646   6.397   4.658
36738W        W 8409  34.532  35.029   3.682
36739W        W 8410   0.228   6.281   0.892
36740W        W 8411  31.951  37.892  13.501
36741W        W 8412  39.414  11.584  14.767
36742W        W 8413   0.849  37.627   2.186
36743W        W 8414   0.376  35.833   4.710
36744W        W 8415  25.818  31.755   1.783
36745W        W 8416   9.720  23.123   0.277
36746W        W 8417  17.693   0.791   3.219
36747W        W 8418  36.847   9.705   4.777
36748W        W 8419   0.009  36.068  13.374
36749W        W 8420  38.627  26.442  11.438
36750W        W 8421   4.348  36.876   3.354
36751W        W 8422  24.597   0.713   2.207
36752W        W 8423  30.604   1.403   4.857
36753W        W 8424  18.322  33.903   2.748
36754W        W 8425  17.532   9.752  10.628
36755W        W 8426  40.135  39.378   5.064
36756W        W 8427   9.929  35.853   4.811
36757W        W 8428  42.045   9.233   3.375
36758W        W 8429   3.978  40.377   1.746
36759W        W 8430  16.818  23.060   2.235
36760W        W 8431   0.095  12.066  13.885
36761W        W 8432   6.712  20.111  13.054
36762W        W 8433  31.159  24.567   1.077
36763W        W 8434  35.029  36.478  10.925
36764W        W 8435  43.509   3.278   3.217
36765W        W 8436  16.202   5.017  11.851
36766W        W 8437   5.915  19.505   4.660
36767W        W 8438  14.778  30.458  11.161
36768W        W 8439   6.679  14.086  11.319
36769W        W 8440  38.081  22.581   3.684
36770W        W 8441  20.622  43.830  13.085
36771W        W 8442  13.568   4.984  12.849
36772W        W 8443  14.166  25.690  12.525
36773W        W 8444   6.362  33.987  12.112
36774W        W 8445  43.367  28.082  11.057
36775W        W 8446  20.933  26.436   5.361
36776W        W 8447  13.583  14.200   0.789
36777W        W 8448  39.412  16.302  14.550
36778W        W 8449  44.528  15.299  14.729
36779W        W 8450  36.265  20.797  12.053
36780W        W 8451  28.627   9.348  10.722
36781W        W 8452   6.653  27.943   1.312
36782W        W 8453  38.829  17.284   1.297
36783W        W 8454   0.795   8.505  14.344
36784W        W 8455  21.020   8.674  12.080
36785W        W 8456  33.155  43.067  12.662
36786W        W 8457  30.612  37.830   3.311
36787W        W 8458  28.045   0.786   1.914
36788W        W 8459  21.678   2.614   4.937
36789W        W 8460  38.532  25.246   3.695
36790W        W 8461  31.096  28.589  13.963
36791W        W 8462  26.931  24.997  11.579
36792W        W 8463  13.344  27.760  13.032
36793W        W 8464   8.292  36.555   2.005
36794W        W 8465   1.764  35.028   4.171
36795W        W 8466  28.572  22.764  12.821
36796W        W 8467  35.966  33.028   4.565
36797W        W 8468   1.251  35.379   4.449
36798W        W 8469  25.498  42.223   1.808
36799W        W 8470   7.786   1.350   4.361
36800W        W 8471   9.285  12.121   0.041
36801W        W 8472   0.981  40.846  13.377
36802W        W 8473  31.094  38.348   4.151
36803W        W 8474  12.151  37.840  12.069
36804W        W 8475  20.193  26.843   1.293
36805W        W 8476  10.778  10.770   3.190
36806W        W 8477  25.584  41.906  12.069
36807W        W 8478   6.406  14.317  10.944
36808W        W 8479  39.414   8.143  14.289
36809W        W 8480  26.713  42.966  10.629
36810W        W 8481  12.177  39.519   2.750
36811W        W 8482  15.596  14.043   1.732
36812W        W 8483  23.187  37.821   3.044
36813W        W 8484  40.242  22.635   4.955
36814W        W 8485  10.416   4.993  11.193
36815W        W 8486   1.271  32.603  11.549
36816W        W 8487  18.487  27.084   1.248
36817W        W 8488   0.374  23.105  12.576
36818W        W 8489  28.600  20.509  13.977
36819W        W 8490  20.753  12.051  14.024
36820W        W 8491  11.684   5.856   2.907
36821W        W 8492  38.898   2.869  13.270
36822W        W 8493  25.807  11.129   0.406
36823W        W 8494  29.405   9.124   3.315
36824W        W 8495  21.628  43.026  11.348
36825W        W 8496  28.635  28.736   1.428
36826W        W 8497   1.682  36.519  14.952
36827W        W 8498  15.584  36.217  12.488
36828W        W 8499  20.129   8.756  14.536
36829W        W 8500  35.518  20.799   4.876
36830W        W 8501  26.780  38.542  11.522
36831W        W 8502   8.531  34.416   0.902
36832W        W 8503  39.033  23.149   1.548
36833W        W 8504  16.726   4.830   4.260
36834W        W 8505   7.234  37.799   4.551
36835W        W 8506  31.562  24.916   4.654
36836W        W 8507  17.533  32.580   0.333
36837W        W 8508  18.456  37.212  14.940
36838W        W 8509  10.625   6.191  12.567
36839W        W 8510  11.571  43.166   5.076
36840W        W 8511  36.988   5.425  11.542
36841W        W 8512  14.801   0.437  11.863
36842W        W 8513  29.473   5.284   4.012
36843W        W 8514  10.439  18.046   2.108
36844W        W 8515  30.369  24.038   1.685
36845W        W 8516  41.828  44.599  10.244
36846W        W 8517  20.126  35.631  10.613
36847W        W 8518  11.582  18.884  12.051
36848W        W 8519  23.456  43.709   4.351
36849W        W 8520  18.042  30.362  10.516
36850W        W 8521  28.379   8.791  14.015
36851W        W 8522  15.137  39.006   1.817
36852W        W 8523  26.742  26.449   0.677
36853W        W 8524  38.633   8.019  10.782
36854W        W 8525  20.261  12.334  12.819
36855W        W 8526  43.167  10.095   0.888
36856W        W 8527  11.271  37.202   4.041
36857W        W 8528   5.483   1.463   2.655
36858W        W 8529  32.233  22.496  11.090
36859W        W 8530   0.173  41.794   4.134
36860W        W 8531   7.874  37.487  10.971
36861W        W 8532  23.615  39.162   1.121
36862W        W 8533  36.238  31.882  12.610
36863W        W 8534  15.730  41.543   4.247
36864W        W 8535   1.501   5.829   1.985
36865W        W 8536  26.176   7.862  12.490
36866W        W 8537   8.872   8.910   3.295
36867W        W 8538  37.458  18.555   0.798
36868W        W 8539  21.252  41.131  10.578
36869W        W 8540  43.540  25.079  14.886
36870W        W 8541  39.357   5.195  10.897
36871W        W 8542   9.737  22.007  11.663
36872W        W 8543   4.386   7.849   0.020
36873W        W 8544  15.642  19.333  14.833
36874W        W 8545  21.995  12.557   0.767
36875W        W 8546  18.573   8.241   0.041
36876W        W 8547   2.345  24.251   2.896
36877W        W 8548  17.656  15.680  11.136
36878W        W 8549  18.262  12.243   3.876
36879W        W 8550  10.239   6.384   4.024
36880W        W 8551  23.411   4.114   0.342
36881W        W 8552  22.700  42.013   5.823
36882W        W 8553  16.670   4.783  14.368
36883W        W 8554  15.354  44.380   3.339
36884W        W 8555  26.788   2.485   4.072
36885W        W 8556  26.925  25.028   4.240
36886W        W 8557  43.537   2.451  14.009
36887W        W 8558  27.086   1.893  12.528
36888W        W 8559  41.499  43.304   0.318
36889W        W 8560  11.612  23.429   2.320
36890W        W 8561  13.578  18.880   4.298
36891W        W 8562  35.061  17.049  12.090
36892W        W 8563   9.903  38.560  13.847
36893W        W 8564  28.491  13.489   3.388
36894W        W 8565  33.896   3.359   1.005
36895W        W 8566  15.189  33.553  12.060
36896W        W 8567  28.133  17.345  14.933
36897W        W 8568  16.110  42.920   3.370
36898W        W 8569  43.593  42.939  11.105
36899W        W 8570  22.133  28.119  14.112
36900W        W 8571   9.817  19.211   0.894
36901W        W 8572  43.500   9.869   4.912
36902W        W 8573  44.943  40.915  11.537
36903W        W 8574  44.969  13.212   9.458
36904W        W 8575   2.758  15.569  13.040
36905W        W 8576   7.205  15.635  13.841
36906W        W 8577  40.866   2.808  12.779
36907W        W 8578   6.737  21.538  13.411
36908W        W 8579  23.810  39.085  13.826
36909W        W 8580  14.624  12.278   2.458
36910W        W 8581   1.350  36.857   3.729
36911W        W 8582  41.009  23.223  14.471
36912W        W 8583  42.839  30.699  14.083
36913W        W 8584   5.454   8.092  11.554
36914W        W 8585  21.285  28.776  12.115
36915W        W 8586  41.747  21.468  13.219
36916W        W 8587  25.243   0.455   1.896
36917W        W 8588  34.690  36.877   2.259
36918W        W 8589   2.263  36.374   1.625
36919W        W 8590  11.692  29.266  10.329
36920W        W 8591   7.459   0.210   0.258
36921W        W 8592  20.640   9.917  13.513
36922W        W 8593  35.817  29.713   0.565
36923W        W 8594  31.649   1.773  10.711
36924W        W 8595  23.478  22.778   3.677
36925W        W 8596  11.642  25.238  10.308
36926W        W 8597  23.120  16.600   3.585
36927W        W 8598  19.255  12.123   1.732
36928W        W 8599  12.873  23.588   0.928
36929W        W 8600   1.769  36.572   1.728
36930W        W 8601  15.883  34.365   3.793
36931W        W 8602   4.316   3.871   2.914
36932W        W 8603   1.404  30.602   4.687
36933W        W 8604   0.854  38.786   2.725
36934W        W 8605  13.616  32.272   0.270
36935W        W 8606  20.358  43.048  13.147
36936W        W 8607   5.255  10.210   3.268
36937W        W 8608  35.349  42.685  13.471
36938W        W 8609  30.397  18.001   2.492
36939W        W 8610  44.148   6.347  12.544
36940W        W 8611  37.528  35.396   2.209
36941W        W 8612   9.314  19.199  12.089
36942W        W 8613  23.555  21.878   0.441
36943W        W 8614  17.654  26.432   2.790
36944W        W 8615   4.947  17.342   3.251
36945W        W 8616  23.330  24.682  13.294
36946W        W 8617   0.871   0.424  13.778
36947W        W 8618  38.433   7.801   3.240
36948W        W 8619   3.625  39.958   3.287
36949W        W 8620  32.891  33.079   0.625
36950W        W 8621  29.167   6.800  14.062
36951W        W 8622   1.116  25.081  14.410
36952W        W 8623   1.765  14.978   3.285
36953W        W 8624  10.652   0.202  12.072
36954W        W 8625  25.053  43.127  14.921
36955W        W 8626   8.993  10.808   2.633
36956W        W 8627   6.967  33.002   1.676
36957W        W 8628  40.793  35.063  12.205
36958W        W 8629  41.453  39.480  14.336
36959W        W 8630   4.755   6.988   3.779
36960W        W 8631   4.717   4.645  11.241
36961W        W 8632  35.980   4.956   1.366
36962W        W 8633  32.840  19.630  13.574
36963W        W 8634  21.376  41.652   3.826
36964W        W 8635  22.848  36.771   1.621
36965W        W 8636   2.810  11.819  13.365
36966W        W 8637  43.284   3.442   0.532
36967W        W 8638  12.592  11.870  12.114
36968W        W 8639  26.534  30.916   2.785
36969W        W 8640   1.272   4.669  10.325
36970W        W 8641  32.013  20.079   4.956
36971W        W 8642  23.188  44.258  14.260
36972W        W 8643  16.804   7.724  14.552
36973W        W 8644  25.803  42.426  11.212
36974W        W 8645  13.789  24.200   2.684
36975W        W 8646  42.827  33.836  11.606
36976W        W 8647   2.545  35.834  10.471
36977W        W 8648  44.092  24.199   0.237
36978W        W 8649   4.825  43.082   3.731
36979W        W 8650  27.477   6.182   0.940
36980W        W 8651  13.839  41.843   0.404
36981W        W 8652  42.014  34.666   2.833
36982W        W 8653  43.248  34.168   2.374
36983W        W 8654   2.844  19.264   4.421
36984W        W 8655   0.034  38.800   4.311
36985W        W 8656   8.134   0.295  11.937
36986W        W 8657  42.057   1.485   1.628
36987W        W 8658  34.428  16.654  11.596
36988W        W 8659  20.726  22.231   0.040
36989W        W 8660  39.401  24.401   3.215
36990W        W 8661  10.369  40.789   4.284
36991W        W 8662  39.823  20.998  13.516
36992W        W 8663   6.245   1.954  11.016
36993W        W 8664   0.504  21.640   3.136
36994W        W 8665  32.948  39.050   0.527
36995W        W 8666   6.366  22.561   0.219
36996W        W 8667  26.148  23.504  13.621
36997W        W 8668   6.239  20.728   3.339
36998W        W 8669   3.806   1.240   0.520
36999W        W 8670   1.741  20.517   0.747
37000W        W 8671   2.947   5.433   2.364
37001W        W 8672  19.091  40.562   0.407
37002W        W 8673  29.035   7.217   2.368
37003W        W 8674  25.591  29.082   4.089
37004W        W 8675  42.748  34.422  10.740
37005W        W 8676   9.847   7.411   0.501
37006W        W 8677   2.960  40.771  11.966
37007W        W 8678  25.427  41.051   0.669
37008W        W 8679  23.188  28.692  10.662
37009W        W 8680  20.096  17.319   4.170
37010W        W 8681  25.188  30.573  10.545
37011W        W 8682   2.159   3.318   4.188
37012W        W 8683   6.363  38.832  12.899
37013W        W 8684   1.528  30.208   0.471
37014W        W 8685  19.262  15.567  12.380
37015W        W 8686  19.958  37.397  11.165
37016W        W 8687  35.133  33.558   2.266
37017W        W 8688  38.822   8.460  12.938
37018W        W 8689  32.614  22.636  13.402
37019W        W 8690  34.569  11.283   2.165
37020W        W 8691  16.453  16.687  12.068
37021W        W 8692   2.683  26.622  12.453
37022W        W 8693  12.819  36.609  14.354
37023W        W 8694  39.856  20.269   1.845
37024W        W 8695  26.880  33.115  12.387
37025W        W 8696  38.067  33.941   0.167
37026W        W 8697  38.199  32.454  11.761
37027W        W 8698  11.163  20.656  10.875
37028W        W 8699  31.599   7.137  12.128
37029W        W 8700  42.004   5.156  11.687
37030W        W 8701  31.213  35.389   0.196
37031W        W 8702  40.002   0.835   4.577
37032W        W 8703  12.600   2.659   4.126
37033W        W 8704  11.137  18.798  14.835
37034W        W 8705   9.314  31.368   0.441
37035W        W 8706  42.763  23.060   4.208
37036W        W 8707  26.567  44.014   4.854
37037W        W 8708  11.642   6.154   2.111
37038W        W 8709  13.831   1.491  14.849
37039W        W 8710  10.400  42.570  10.697
37040W        W 8711  16.429  32.201   3.219
37041W        W 8712  15.822  32.809  14.216
37042W        W 8713  15.192  25.401  11.906
37043W        W 8714   5.097  25.350  11.914
37044W        W 8715  23.474  40.171  11.071
37045W        W 8716  15.206   8.337  11.075
37046W        W 8717  39.544  31.418   3.543
37047W        W 8718  29.159  16.843  14.811
37048W        W 8719   8.772   0.566   2.598
37049W        W 8720  36.506  42.460  13.904
37050W        W 8721  32.389  20.085  14.019
37051W        W 8722  43.708  26.178   0.310
37052W        W 8723  23.153  16.452   0.568
37053W        W 8724  28.192  13.169  14.907
37054W        W 8725  33.643  21.709  11.705
37055W        W 8726  30.209  19.595   5.016
37056W        W 8727   7.759  26.236   0.405
37057W        W 8728  26.422   7.503   2.906
37058W        W 8729  26.946   7.716  13.466
37059W        W 8730  38.929  22.076  12.524
37060W        W 8731  13.736  39.445  13.868
37061W        W 8732  34.391  28.148   2.263
37062W        W 8733  24.106  17.460  14.383
37063W        W 8734  12.375   7.625  11.011
37064W        W 8735  28.976  31.582  13.327
37065W        W 8736   4.166   5.498   1.018
37066W        W 8737  40.543   8.186  11.199
37067W        W 8738   6.713  32.115   1.392
37068W        W 8739  30.696   4.314  10.493
37069W        W 8740  34.576  36.460   0.788
37070W        W 8741  17.275  33.000  12.401
37071W        W 8742   4.950  38.954  11.140
37072W        W 8743  11.634  40.981  10.511
37073W        W 8744  27.262  36.407   0.305
37074W        W 8745  14.776  21.699   0.229
37075W        W 8746  37.628  11.080  13.889
37076W        W 8747  24.204  32.919  10.668
37077W        W 8748  22.282  41.769   0.104
37078W        W 8749  16.772   2.196  11.010
37079W        W 8750  36.423  16.740  13.951
37080W        W 8751  24.249  31.469  13.280
37081W        W 8752  31.613  12.596   1.680
37082W        W 8753  43.294   4.328  11.714
37083W        W 8754  15.551  36.916   2.848
37084W        W 8755  30.683   8.760   4.460
37085W        W 8756   8.924  11.987  13.306
37086W        W 8757  39.429  12.601   4.266
37087W        W 8758   1.285  26.960   2.345
37088W        W 8759  20.001  39.603   0.915
37089W        W 8760  18.972  36.428   2.745
37090W        W 8761  11.287   2.387  11.623
37091W        W 8762  22.952  21.770   0.484
37092W        W 8763  33.432  34.587   3.550
37093W        W 8764  17.140   1.808   0.847
37094W        W 8765  31.188  43.558   2.163
37095W        W 8766   6.506  27.725   4.245
37096W        W 8767  28.324  42.731   0.335
37097W        W 8768  17.033  35.366   2.636
37098W        W 8769  26.426  36.296  13.301
37099W        W 8770  13.378  25.985  11.153
37100W        W 8771   6.353   6.563  11.136
37101W        W 8772  44.827  36.499  10.868
37102W        W 8773  26.811  10.846   2.937
37103W        W 8774  35.176  15.767  10.823
37104W        W 8775  34.301  18.231   0.831
37105W        W 8776  10.873   5.443   2.874
37106W        W 8777  44.923  22.642   9.795
37107W        W 8778  36.892  28.419  14.773
37108W        W 8779  20.557  36.024   0.599
37109W        W 8780  41.328   4.957   2.671
37110W        W 8781  24.057  17.136  10.698
37111W        W 8782  16.118  21.204  12.449
37112W        W 8783   8.947  19.545   3.608
37113W        W 8784  13.143   6.792   3.615
37114W        W 8785   8.248  14.742   3.248
37115W        W 8786  21.215  13.175   3.612
37116W        W 8787   3.381  21.790   4.315
37117W        W 8788  22.382   2.712  13.865
37118W        W 8789  12.185  40.891   1.327
37119W        W 8790  10.263  42.896   1.256
37120W        W 8791  14.890  23.099  14.335
37121W        W 8792  25.643  35.113   2.977
37122W        W 8793  31.564  15.595   4.642
37123W        W 8794  11.859  11.601   0.819
37124W        W 8795  41.788   4.891  12.994
37125W        W 8796  42.870   1.382   2.789
37126W        W 8797  16.947  17.703   2.436
37127W        W 8798   4.772  41.824   1.156
37128W        W 8799  24.141   5.794   1.330
37129W        W 8800   5.549  43.652   2.662
37130W        W 8801  15.495   7.104  14.349
37131W        W 8802   8.739  30.110   1.812
37132W        W 8803  10.783   2.099   1.791
37133W        W 8804  40.880  20.897   4.191
37134W        W 8805  18.742  38.090   1.193
37135W        W 8806  20.022  36.906   0.443
37136W        W 8807  26.252   5.848  11.602
37137W        W 8808  15.687   4.744  13.041
37138W        W 8809  23.261  40.368  14.541
37139W        W 8810  29.160   0.291  11.631
37140W        W 8811  24.545  42.216  14.526
37141W        W 8812  35.336   1.277  13.433
37142W        W 8813  20.239  39.325  13.362
37143W        W 8814   4.424  42.150  14.357
37144W        W 8815  13.612  42.355   2.694
37145W        W 8816   6.281  11.820   4.017
37146W        W 8817  10.539  17.526   2.966
37147W        W 8818  15.150   9.280  11.715
37148W        W 8819  31.181   3.137  13.386
37149W        W 8820  26.207  21.092  10.836
37150W        W 8821  33.337  33.817  12.033
37151W        W 8822   1.664   2.950  11.598
37152W        W 8823  29.284  23.507   3.962
37153W        W 8824  41.021  22.704  12.920
37154W        W 8825  17.615  26.149  12.834
37155W        W 8826   1.922   7.307   2.078
37156W        W 8827  24.155  32.498   1.836
37157W        W 8828  23.014  13.973   1.307
37158W        W 8829  16.570  44.581  12.244
37159W        W 8830  30.735  23.410  12.355
37160W        W 8831  25.274  10.189   1.332
37161W        W 8832  16.183  10.894  13.379
37162W        W 8833  10.932  38.406   3.591
37163W        W 8834  41.916  13.341   4.283
37164W        W 8835   3.870  43.549   3.232
37165W        W 8836  26.552   3.506  12.477
37166W        W 8837  25.211  19.399  13.668
37167W        W 8838   1.276  11.792   2.175
37168W        W 8839  41.306   5.984  14.916
37169W        W 8840  12.205   0.204   1.380
37170W        W 8841   5.494  40.218   1.180
37171W        W 8842  16.360  17.738   0.280
37172W        W 8843   3.509   2.410   4.575
37173W        W 8844  35.943   9.111  13.432
37174W        W 8845  24.517  37.484   2.286
37175W        W 8846   9.752  35.499  11.504
37176W        W 8847  10.834   7.168   5.038
37177W        W 8848   2.148  40.376   2.434
37178W        W 8849  41.051  38.461   4.573
37179W        W 8850  34.235   8.971   4.825
37180W        W 8851  36.513  30.698  14.688
37181W        W 8852   0.733  36.589  11.865
37182W        W 8853  22.194  12.276   1.677
37183W        W 8854   4.749   6.937  13.459
37184W        W 8855  39.913  36.030   2.885
37185W        W 8856  16.759  19.531   4.486
37186W        W 8857  36.443  25.231   0.186
37187W        W 8858   5.374  30.551   2.308
37188W        W 8859  42.981   9.835  12.074
37189W        W 8860  42.967  41.076  14.539
37190W        W 8861   8.953  21.257   1.877
37191W        W 8862  30.920  31.405  11.789
37192W        W 8863  23.463  36.863   4.042
37193W        W 8864  18.126  39.062  14.391
37194W        W 8865  25.633  14.449   3.216
37195W        W 8866  17.697  43.211   5.255
37196W        W 8867  37.936  37.678  11.964
37197W        W 8868  31.360  33.709  12.385
37198W        W 8869  11.672  36.719  10.796
37199W        W 8870  42.855  34.092  13.740
37200W        W 8871  10.954  42.879   0.763
37201W        W 8872  32.618  30.937   3.148
37202W        W 8873  37.100  43.231   1.478
37203W        W 8874  43.520  15.166   3.126
37204W        W 8875  32.481   5.610  10.908
37205W        W 8876  10.206  22.641  11.673
37206W        W 8877   5.692  11.406  11.517
37207W        W 8878   0.504  37.792   1.856
37208W        W 8879  34.006  23.200   0.012
37209W        W 8880  27.116  36.886  13.369
37210W        W 8881   2.966   8.673  12.007
37211W        W 8882  23.208  38.572  14.733
37212W        W 8883   1.793  25.576   1.444
37213W        W 8884  19.494  44.631  14.066
37214W        W 8885  40.279  17.814  10.932
37215W        W 8886  12.909  11.375   1.828
37216W        W 8887  12.881  35.915   2.715
37217W        W 8888  27.899   5.510  13.102
37218W        W 8889  13.562   4.925  14.667
37219W        W 8890  14.083  26.242   3.644
37220W        W 8891  35.524  35.542   0.352
37221W        W 8892  10.851  10.810   4.069
37222W        W 8893  18.435  17.170   4.473
37223W        W 8894  37.375  28.604  11.155
37224W        W 8895  29.103  40.673  14.050
37225W        W 8896  30.141  31.075  12.427
37226W        W 8897  37.536  25.358   9.958
37227W        W 8898   9.278  34.178  12.432
37228W        W 8899   0.496   1.489  14.812
37229W        W 8900   7.655  35.269  13.274
37230W        W 8901  13.635   3.163  11.158
37231W        W 8902  40.034  42.751  14.919
37232W        W 8903  42.401  33.384   4.620
37233W        W 8904  39.507  29.903   3.206
37234W        W 8905  42.311  31.434   3.173
37235W        W 8906  16.893  20.658  11.528
37236W        W 8907  44.765  24.475   0.050
37237W        W 8908  16.537  28.155   4.165
37238W        W 8909  33.285   8.049  12.970
37239W        W 8910  26.846  32.129  11.845
37240W        W 8911  14.597  18.811   2.115
37241W        W 8912  14.865  40.978   1.679
37242W        W 8913  21.195   7.961   1.860
37243W        W 8914  28.394  29.356  14.699
37244W        W 8915  33.772  12.448  12.116
37245W        W 8916  22.638  17.208   0.577
37246W        W 8917  38.001  10.683   2.237
37247W        W 8918  26.987  23.591   0.786
37248W        W 8919   8.607  11.319   9.828
37249W        W 8920   6.155  36.102  10.131
37250W        W 8921  32.002  13.694   3.375
37251W        W 8922  18.375   5.439   2.813
37252W        W 8923  10.109   3.375  12.433
37253W        W 8924  38.262  12.610   4.027
37254W        W 8925  10.676  43.705   1.273
37255W        W 8926  11.148  13.205  14.077
37256W        W 8927  13.823  36.942   1.667
37257W        W 8928  27.757  36.025  12.995
37258W        W 8929  18.339  13.911  10.213
37259W        W 8930  27.454  25.550   2.836
37260W        W 8931  11.978  29.533  13.511
37261W        W 8932   6.829  39.814  11.707
37262W        W 8933   8.971  10.379   2.288
37263W        W 8934  19.506  39.304  10.483
37264W        W 8935  14.495  39.088  12.540
37265W        W 8936  22.561  39.934   4.244
37266W        W 8937  35.687   1.796  14.306
37267W        W 8938  13.210  17.163  14.232
37268W        W 8939  23.542  33.491   1.794
37269W        W 8940   4.223  37.846  12.066
37270W        W 8941  19.601  34.506   2.406
37271W        W 8942  25.939  38.987  12.938
37272W        W 8943  12.238   5.223  12.547
37273W        W 8944  11.980  15.668   2.833
37274W        W 8945  37.315   1.968  13.940
37275W        W 8946   8.661   5.678   2.263
37276W        W 8947   0.328  41.779  10.916
37277W        W 8948   6.445  12.770  10.700
37278W        W 8949  11.122  41.028  13.400
37279W        W 8950  35.664  38.106   2.780
37280W        W 8951  26.653  25.112  14.468
37281W        W 8952   7.927  18.729   3.138
37282W        W 8953  21.807   5.793   3.253
37283W        W 8954  29.912  36.439  12.514
37284W        W 8955  17.587  37.821  12.616
37285W        W 8956  12.867  41.944  13.959
37286W        W 8957  26.177  39.295   3.606
37287W        W 8958  26.816  39.134   2.315
37288W        W 8959  36.050  26.007   0.238
37289W        W 8960  37.516  11.204   4.952
37290W        W 8961  34.158   4.517  11.169
37291W        W 8962  23.864  13.735  10.611
37292W        W 8963   2.764  27.098   3.587
37293W        W 8964   6.279  33.837   3.689
37294W        W 8965  34.063  12.378   4.159
37295W        W 8966  37.621  41.907  14.371
37296W        W 8967  10.373  41.833   1.925
37297W        W 8968  39.307   2.495   3.313
37298W        W 8969   8.898  17.765  11.221
37299W        W 8970  14.728  34.649  14.049
37300W        W 8971  12.719  13.660   1.494
37301W        W 8972  11.933  34.417   3.251
37302W        W 8973  18.514  10.737   4.996
37303W        W 8974  31.983  19.208  13.336
37304W        W 8975  16.127  28.057  11.059
37305W        W 8976  34.478   6.157  11.160
37306W        W 8977   1.814  32.193   4.090
37307W        W 8978  44.568  38.026   2.208
37308W        W 8979  20.924  19.345  12.925
37309W        W 8980  21.046   5.012   4.172
37310W        W 8981  34.097  12.779  10.475
37311W        W 8982  34.528  39.138   0.701
37312W        W 8983  35.084  15.287  13.478
37313W        W 8984   5.783  30.705   1.745
37314W        W 8985   6.419  40.965  13.967
37315W        W 8986  44.354   0.419  14.032
37316W        W 8987  13.592  11.684  12.006
37317W        W 8988  12.284  43.263   2.694
37318W        W 8989  10.420  41.030  12.865
37319W        W 8990   1.321   2.551  12.772
37320W        W 8991  42.290  18.147  12.889
37321W        W 8992  42.953   4.185  11.135
37322W        W 8993   0.316  27.553  14.367
37323W        W 8994  32.740  35.348  13.736
37324W        W 8995   7.755  42.440  14.272
37325W        W 8996  31.426  44.530  14.080
37326W        W 8997  43.344  32.403   1.900
37327W        W 8998  15.379   8.091   4.075
37328W        W 8999  28.075  38.297  12.382
37329W        W 9000   2.932  17.685   3.431
37330W        W 9001  21.127  16.704   9.840
37331W        W 9002  36.292  40.909   0.240
37332W        W 9003   2.332  22.961   5.330
37333W        W 9004  31.400  38.402   4.619
37334W        W 9005  29.438  40.353   2.858
37335W        W 9006  35.493  36.408  14.843
37336W        W 9007  44.050  11.175  10.172
37337W        W 9008  11.721  41.218  12.095
37338W        W 9009  39.019   9.290  10.343
37339W        W 9010   1.365  13.425   2.690
37340W        W 9011   9.658  14.257  11.161
37341W        W 9012  14.637   6.797  10.229
37342W        W 9013   2.962   9.312  13.512
37343W        W 9014  15.695   5.678   3.139
37344W        W 9015  31.806  21.219  10.644
37345W        W 9016   4.776  37.101  12.359
37346W        W 9017  28.518   3.248  14.936
37347W        W 9018  13.323  15.569  11.517
37348W        W 9019  37.728  28.992  13.399
37349W        W 9020   5.894  32.734  12.014
37350W        W 9021  21.446  28.924  11.175
37351W        W 9022  44.966  32.864   2.444
37352W        W 9023  37.346   6.520   1.990
37353W        W 9024  33.504  39.064  12.450
37354W        W 9025  44.140   0.229   1.025
37355W        W 9026  44.650  27.430  13.026
37356W        W 9027  42.893  36.131  11.502
37357W        W 9028  32.046  38.152   4.565
37358W        W 9029  16.464  13.127   2.285
37359W        W 9030   0.757  41.818   0.175
37360W        W 9031  42.351  17.058  12.427
37361W        W 9032  10.877  28.484  11.155
37362W        W 9033  26.602  38.332   1.927
37363W        W 9034  23.550  36.555   2.762
37364W        W 9035   7.332  14.221  10.687
37365W        W 9036   3.351  37.980   1.880
37366W        W 9037  19.094  11.358  13.874
37367W        W 9038  13.048  20.849   3.968
37368W        W 9039  42.079  30.866   3.342
37369W        W 9040  40.479   7.238  13.839
37370W        W 9041  24.126  32.930  13.964
37371W        W 9042  20.311  42.504  10.514
37372W        W 9043  35.155  20.570  14.921
37373W        W 9044   1.907  27.991   3.034
37374W        W 9045  10.725  28.101  11.465
37375W        W 9046  26.479  41.555  12.498
37376W        W 9047   0.489  40.772   3.287
37377W        W 9048  19.518  30.615   5.407
37378W        W 9049  29.803  33.366  14.689
37379W        W 9050  31.834   1.452  13.614
37380W        W 9051  14.274  36.912  14.959
37381W        W 9052  33.551  43.734   4.442
37382W        W 9053  27.974  22.026  12.707
37383W        W 9054  15.070  42.446   4.708
37384W        W 9055  33.540  19.365  12.469
37385W        W 9056  23.598  10.271   4.987
37386W        W 9057  44.036  11.908  10.690
37387W        W 9058  42.082  21.071   4.920
37388W        W 9059  43.219  15.858   0.866
37389W        W 9060  25.502  29.500   2.637
37390W        W 9061  15.794  30.971  11.474
37391W        W 9062  22.251  14.174  14.014
37392W        W 9063  10.409  34.270  13.046
37393W        W 9064   3.711  35.784   0.055
37394W        W 9065  43.296  17.139   4.788
37395W        W 9066  41.992  17.068  11.164
37396W        W 9067  12.880  34.621   0.866
37397W        W 9068  24.780  14.181  13.333
37398W        W 9069  22.059  12.795  12.595
37399W        W 9070  23.524   6.209  13.214
37400W        W 9071  33.957   3.469   3.763
37401W        W 9072   8.665  27.999  11.585
37402W        W 9073   5.842  16.665   4.701
37403W        W 9074  41.429  14.347   0.908
37404W        W 9075   1.925  23.755  10.973
37405W        W 9076   8.864  27.560   1.723
37406W        W 9077  12.194  36.353   4.177
37407W        W 9078  30.596  10.341   3.685
37408W        W 9079  36.544  41.755   2.338
37409W        W 9080  38.523  32.675   1.707
37410W        W 9081  36.244  36.132   4.982
37411W        W 9082  42.326  40.369  12.808
37412W        W 9083  44.832  36.466  11.889
37413W        W 9084  10.258  10.623  12.550
37414W        W 9085   7.381  28.642  13.028
37415W        W 9086  44.932  29.085  12.798
37416W        W 9087  17.545   0.264   3.283
37417W        W 9088  16.856  24.393   4.531
37418W        W 9089   8.036  16.767   3.689
37419W        W 9090  32.468   9.714  14.882
37420W        W 9091  18.204   7.946   1.370
37421W        W 9092  35.898  30.627   0.568
37422W        W 9093  26.168  26.016   2.652
37423W        W 9094  36.063  30.131  11.922
37424W        W 9095  15.436  35.735  12.228
37425W        W 9096  28.667   3.505  13.236
37426W        W 9097  24.125  27.427  11.363
37427W        W 9098  24.289  21.684  14.931
37428W        W 9099  38.578  24.287  13.777
37429W        W 9100  21.921  21.573   0.467
37430W        W 9101  38.950  21.707  14.547
37431W        W 9102  16.741  20.534   3.190
37432W        W 9103   0.755  28.014  10.057
37433W        W 9104   3.440  15.171   1.839
37434W        W 9105  23.670   9.074  11.446
37435W        W 9106   8.370   8.117   2.332
37436W        W 9107   4.992  22.817  12.558
37437W        W 9108  29.698  14.905   0.380
37438W        W 9109   6.460  10.159   2.519
37439W        W 9110  11.835  26.998  14.573
37440W        W 9111  29.665  25.640   4.153
37441W        W 9112  26.220  32.494  12.971
37442W        W 9113  13.667   8.802   4.851
37443W        W 9114   4.952  31.622   2.670
37444W        W 9115   7.322  15.790  14.857
37445W        W 9116  28.125  30.526  10.905
37446W        W 9117  42.496  34.386   1.880
37447W        W 9118  40.849   4.666   2.458
37448W        W 9119  14.794  38.295  10.496
37449W        W 9120  27.538   1.349   4.456
37450W        W 9121  22.139   8.234   1.792
37451W        W 9122  42.488  32.223   2.272
37452W        W 9123  20.544   6.721  13.484
37453W        W 9124  20.460  27.469   3.359
37454W        W 9125   6.201  25.571  14.849
37455W        W 9126   9.395   1.915   1.727
37456W        W 9127  39.285  19.269   3.908
37457W        W 9128  15.405   4.779   5.539
37458W        W 9129  12.591  25.921   0.010
37459W        W 9130  12.365  10.801  11.638
37460W        W 9131  36.752  23.542  12.698
37461W        W 9132  27.034   3.502   2.149
37462W        W 9133  43.789  19.286  11.570
37463W        W 9134  26.277  29.137  11.181
37464W        W 9135  20.667  19.329  12.468
37465W        W 9136   8.568  32.579   4.108
37466W        W 9137  10.649  22.272   2.576
37467W        W 9138  35.451  28.636  12.599
37468W        W 9139   6.248   5.150   0.430
37469W        W 9140  12.713   8.922   3.744
37470W        W 9141  24.120   8.401   4.847
37471W        W 9142  31.397  21.700   1.758
37472W        W 9143  13.243  21.079  12.392
37473W        W 9144  41.378  24.260  14.997
37474W        W 9145  40.128  39.521   2.149
37475W        W 9146   7.777  20.326   1.505
37476W        W 9147   6.842  14.498  11.617
37477W        W 9148  39.520   7.250  11.222
37478W        W 9149  12.203  27.915   0.801
37479W        W 9150  37.976  16.193  14.447
37480W        W 9151  36.228   7.664   3.710
37481W        W 9152  39.633  41.583  11.733
37482W        W 9153  13.711  32.342   3.823
37483W        W 9154  29.631   9.720  14.871
37484W        W 9155  23.467  33.492   0.016
37485W        W 9156  36.579  44.467   4.698
37486W        W 9157  21.868   8.266  13.552
37487W        W 9158  19.566  25.075   3.478
37488W        W 9159  12.681  16.400  13.468
37489W        W 9160   9.645  21.094   4.152
37490W        W 9161  40.354  18.197   1.339
37491W        W 9162  31.682  22.558  12.369
37492W        W 9163  37.560   4.877   2.756
37493W        W 9164  16.772   6.436  12.422
37494W        W 9165  44.256  42.762   2.233
37495W        W 9166  36.539   3.035  10.507
37496W        W 9167  11.747   4.942  13.080
37497W        W 9168  15.522  29.943   0.903
37498W        W 9169  44.578  37.777   2.854
37499W        W 9170  36.165  25.262  11.520
37500W        W 9171  28.215  11.306  10.434
37501W        W 9172  43.884  17.841   1.573
37502W        W 9173  31.402   7.668   1.148
37503W        W 9174  26.397  43.059  11.029
37504W        W 9175  20.272  14.925   3.718
37505W        W 9176  19.387  33.858   3.662
37506W        W 9177   9.739  11.060   3.736
37507W        W 9178  20.978  14.271  12.464
37508W        W 9179   7.765  23.617   0.971
37509W        W 9180  40.810   7.633   1.733
37510W        W 9181   4.853  43.171   2.364
37511W        W 9182  38.932  27.513   3.835
37512W        W 9183  23.371   3.779  12.909
37513W        W 9184  11.884  42.426  13.398
37514W        W 9185  37.830   5.357   2.541
37515W        W 9186   5.093   2.882   3.956
37516W        W 9187  26.880   7.315   2.690
37517W        W 9188  21.548  13.040  14.096
37518W        W 9189  29.924  37.964  11.609
37519W        W 9190  18.496  13.751   2.125
37520W        W 9191  39.294   5.288   3.337
37521W        W 9192  21.733  30.678   0.724
37522W        W 9193  32.584   2.803   1.304
37523W        W 9194  43.786  31.961  13.995
37524W        W 9195   6.724  14.609  13.236
37525W        W 9196  24.952  14.168  11.852
37526W        W 9197   1.728   7.473  11.704
37527W        W 9198  20.177  39.442   1.730
37528W        W 9199  11.402  34.541  13.880
37529W        W 9200  23.054   6.036   1.254
37530W        W 9201  26.727  10.661   1.244
37531W        W 9202  39.772  31.801  10.670
37532W        W 9203  13.739  29.499  12.253
37533W        W 9204   5.848  34.424   3.110
37534W        W 9205   2.256  12.224  10.662
37535W        W 9206  17.197  17.204  11.142
37536W        W 9207  13.677   0.760   4.428
37537W        W 9208  13.594   4.478   3.599
37538W        W 9209  41.262   5.873   2.576
37539W        W 9210  13.911  28.160   2.437
37540W        W 9211  30.649  11.399  13.260
37541W        W 9212  19.228  44.894   0.867
37542W        W 9213  39.945  41.276   1.637
37543W        W 9214  21.542  12.229  12.863
37544W        W 9215  10.406  39.590   3.770
37545W        W 9216  29.816   7.630   9.745
37546W        W 9217  20.414   5.657  14.538
37547W        W 9218   1.331  30.651   0.296
37548W        W 9219  35.016   7.548   9.596
37549W        W 9220  35.891  34.615  11.981
37550W        W 9221  26.188   7.033  12.939
37551W        W 9222  44.650  31.941  10.314
37552W        W 9223  20.545   8.727  11.144
37553W        W 9224  19.144  40.999  10.707
37554W        W 9225   5.814  35.593   1.778
37555W        W 9226  31.016   0.423  11.972
37556W        W 9227  43.774  32.640   1.747
37557W        W 9228   0.403  33.016   1.270
37558W        W 9229  28.099  32.456  12.925
37559W        W 9230  33.378  25.097   1.697
37560W        W 9231  33.040  32.403   2.358
37561W        W 9232  28.450  30.941   1.748
37562W        W 9233  14.257  14.831  10.930
37563W        W 9234  38.838  14.692  14.102
37564W        W 9235  37.115  22.814  12.083
37565W        W 9236  10.086  21.150  13.829
37566W        W 9237  42.999  15.791   2.935
37567W        W 9238  30.876  10.833   3.677
37568W        W 9239  26.136   4.957  12.183
37569W        W 9240   5.932  27.486   1.324
37570W        W 9241  38.922  39.492  13.952
37571W        W 9242   3.011  29.180  12.337
37572W        W 9243  26.398  15.455  14.988
37573W        W 9244  11.412  36.133  11.921
37574W        W 9245  42.519  22.941  12.387
37575W        W 9246  18.732  30.695   2.702
37576W        W 9247   3.494  14.511  12.719
37577W        W 9248  18.134  40.500  12.629
37578W        W 9249  15.543  29.115  14.908
37579W        W 9250   1.654  14.603  11.577
37580W        W 9251  22.003  38.030   0.847
37581W        W 9252  39.800  31.042  12.921
37582W        W 9253  37.991  40.377   2.158
37583W        W 9254   8.845   9.453  14.756
37584W        W 9255  41.356  11.873   2.467
37585W        W 9256  32.000   4.805   0.394
37586W        W 9257  27.706  27.514   3.452
37587W        W 9258  14.197  12.419  12.553
37588W        W 9259  41.365  30.565  11.619
37589W        W 9260  11.032  42.349  13.032
37590W        W 9261  27.549  10.947   0.938
37591W        W 9262  38.007   4.728   3.401
37592W        W 9263  39.523  37.579   4.049
37593W        W 9264   9.249  33.847  13.392
37594W        W 9265   4.483   9.001   4.114
37595W        W 9266   6.718  30.916  13.472
37596W        W 9267  25.407  33.600  13.871
37597W        W 9268  25.549  41.397  12.023
37598W        W 9269  37.700  38.676   0.730
37599W        W 9270  12.898  39.433   2.166
37600W        W 9271  34.492  29.952   1.849
37601W        W 9272   3.170   2.868   0.917
37602W        W 9273  16.552  35.427   1.495
37603W        W 9274   5.393  10.250  14.803
37604W        W 9275  28.030  32.121  10.699
37605W        W 9276  43.430  17.541   0.540
37606W        W 9277  13.039  22.896   9.924
37607W        W 9278   3.470  26.077   3.641
37608W        W 9279  21.882  37.004  12.857
37609W        W 9280  44.274   2.398   3.599
37610W        W 9281  12.913  32.217  10.200
37611W        W 9282  44.618  42.278  11.047
37612W        W 9283  32.129  44.429   2.000
37613W        W 9284  12.656   7.604  14.964
37614W        W 9285  24.735  33.618  14.436
37615W        W 9286  31.844  44.424  12.529
37616W        W 9287  31.637   9.904   4.542
37617W        W 9288  20.198  40.816  13.573
37618W        W 9289   4.724  28.412   3.723
37619W        W 9290   6.951   8.198  11.644
37620W        W 9291  36.063  24.827   2.783
37621W        W 9292  31.745  37.196  13.168
37622W        W 9293   6.852  12.661  12.524
37623W        W 9294   0.778  32.889  11.115
37624W        W 9295  31.717  13.024   2.471
37625W        W 9296  24.401  16.296  12.968
37626W        W 9297  22.574  41.610   5.508
37627W        W 9298  20.887   9.068   4.645
37628W        W 9299   8.839  39.939  11.704
37629W        W 9300  20.135  11.855  11.738
37630W        W 9301  17.481  18.233   2.647
37631W        W 9302  21.588  28.654  14.362
37632W        W 9303   0.316  15.348   5.004
37633W        W 9304   0.901  36.019  12.008
37634W        W 9305  30.023  32.467  11.545
37635W        W 9306  23.697  39.383  10.147
37636W        W 9307   4.410  25.945   1.679
37637W        W 9308  38.339  27.905  11.925
37638W        W 9309  15.064   3.481  11.080
37639W        W 9310  27.712  24.021  11.141
37640W        W 9311  14.765   0.722  13.132
37641W        W 9312  39.896  18.913   1.346
37642W        W 9313   7.075  10.437  11.069
37643W        W 9314  24.263  10.330   3.348
37644W        W 9315   8.751  34.941  11.696
37645W        W 9316  11.170  40.689  11.576
37646W        W 9317  22.775   8.310   3.293
37647W        W 9318   7.011  43.291  11.987
37648W        W 9319  31.586  25.587   1.785
37649W        W 9320   0.673  18.176   3.349
37650W        W 9321  42.995  40.432  12.095
37651W        W 9322  37.809  23.420   3.588
37652W        W 9323  33.565   5.386   1.337
37653W        W 9324  15.515  20.784   1.849
37654W        W 9325   1.800  31.840   5.048
37655W        W 9326  43.390  38.035   4.094
37656W        W 9327  11.608  40.343  13.886
37657W        W 9328   2.984  19.247   1.353
37658W        W 9329  44.003  12.123   0.097
37659W        W 9330  23.660  44.002   2.861
37660W        W 9331  21.617   5.001  11.483
37661W        W 9332  21.965   8.162  12.674
37662W        W 9333  42.923  34.634   0.948
37663W        W 9334   7.401  20.506   0.298
37664W        W 9335  44.777  38.798  11.043
37665W        W 9336  23.260  27.447   1.682
37666W        W 9337  20.034  37.098   3.344
37667W        W 9338  38.868  12.153   1.744
37668W        W 9339  27.917   3.698  11.978
37669W        W 9340  21.161  39.639  14.797
37670W        W 9341  14.826   4.865   2.637
37671W        W 9342  30.606  21.551  10.912
37672W        W 9343  19.965  14.535  13.610
37673W        W 9344  23.156  27.440  11.006
37674W        W 9345  11.873  41.609   2.184
37675W        W 9346  38.889   0.032  11.510
37676W        W 9347   6.370  17.415  13.117
37677W        W 9348  38.299  37.102   3.274
37678W        W 9349  20.965   2.311  12.553
37679W        W 9350  39.961  28.879  14.867
37680W        W 9351  26.175  16.401  13.249
37681W        W 9352  24.027  27.023  11.687
37682W        W 9353  18.349  38.906   2.840
37683W        W 9354  20.445  12.880  14.941
37684W        W 9355  38.514   5.304   0.807
37685W        W 9356  30.348  38.387  12.081
37686W        W 9357   9.217  41.214   4.621
37687W        W 9358  39.138  26.890  10.136
37688W        W 9359  40.171  19.653  13.899
37689W        W 9360  42.984  42.589  12.956
37690W        W 9361  39.871  27.925   0.909
37691W        W 9362  43.789  32.232  11.466
37692W        W 9363  28.099  15.796  11.944
37693W        W 9364  36.081  32.578  12.155
37694W        W 9365  29.403   6.995   3.649
37695W        W 9366  23.606  43.319   0.740
37696W        W 9367  22.607  34.659   4.297
37697W        W 9368  35.695   4.648  14.231
37698W        W 9369  35.956   7.731   1.914
37699W        W 9370   7.731  34.343  14.719
37700W        W 9371  29.439   9.777  12.366
37701W        W 9372  37.020  39.975   0.760
37702W        W 9373   2.654  32.338   2.749
37703W        W 9374   8.302   9.941   0.916
37704W        W 9375  39.808  21.817   4.678
37705W        W 9376   7.909  30.038   2.208
37706W        W 9377  41.075  44.909  13.996
37707W        W 9378  33.894  18.235  14.021
37708W        W 9379   0.785  23.317   4.473
37709W        W 9380  39.138   7.130  14.316
37710W        W 9381   1.801   4.273  13.882
37711W        W 9382  19.494  13.780   1.954
37712W        W 9383  10.040  41.500   1.281
37713W        W 9384  24.069   7.606  13.892
37714W        W 9385  34.452  41.040   4.729
37715W        W 9386   1.308   5.205  13.255
37716W        W 9387  19.257   0.503   3.185
37717W        W 9388   0.832   7.919   0.321
37718W        W 9389   9.728  27.965   4.903
37719W        W 9390  29.180  19.649   4.504
37720W        W 9391  16.518  18.227   4.131
37721W        W 9392  27.463  18.276   2.280
37722W        W 9393  26.995  12.644  11.958
37723W        W 9394  14.624  11.774  10.751
37724W        W 9395  22.106   3.392  11.039
37725W        W 9396  41.448  15.496  12.826
37726W        W 9397  42.817  20.459   4.267
37727W        W 9398  12.597  24.205  11.709
37728W        W 9399  10.581   3.772  11.608
37729W        W 9400   3.164  26.792   3.819
37730W        W 9401  36.885  16.330  14.848
37731W        W 9402  15.013  26.610  14.593
37732W        W 9403  14.060  30.163   2.197
37733W        W 9404   9.256  28.036   5.149
37734W        W 9405   1.536   5.228  11.908
37735W        W 9406  42.047  44.505  13.162
37736W        W 9407  10.230  33.700   4.944
37737W        W 9408  43.240  20.637  11.028
37738W        W 9409  15.090  17.667  13.607
37739W        W 9410   9.442  44.051   3.713
37740W        W 9411  32.550  25.745  12.951
37741W        W 9412  32.999  18.075   4.134
37742W        W 9413  41.242  10.085   1.996
37743W        W 9414   4.745  35.953   1.191
37744W        W 9415  22.547  15.029   1.756
37745W        W 9416  31.866  22.770  14.873
37746W        W 9417  22.145   0.444  13.732
37747W        W 9418  37.284  17.220  14.381
37748W        W 9419  19.096  44.498  13.782
37749W        W 9420  23.433  41.763  12.073
37750W        W 9421  39.367  32.854  14.615
37751W        W 9422   8.785  11.870  13.804
37752W        W 9423  29.180  24.914   2.613
37753W        W 9424  25.876  35.051  12.037
37754W        W 9425  38.370  38.894   4.123
37755W        W 9426  11.729   0.631   0.311
37756W        W 9427  27.737  28.008  14.516
37757W        W 9428  27.936  25.601   3.718
37758W        W 9429  31.758  32.376   3.354
37759W        W 9430  25.408  10.825   0.510
37760W        W 9431  33.156   8.658  12.519
37761W        W 9432  25.620   5.343  11.055
37762W        W 9433   3.704  10.386  11.176
37763W        W 9434  38.248  10.717   2.693
37764W        W 9435  23.442  24.069   1.197
37765W        W 9436  37.045  25.693  13.647
37766W        W 9437   7.075  28.219  11.157
37767W        W 9438  11.089  29.104   2.875
37768W        W 9439  42.196  14.115  10.601
37769W        W 9440  11.038  41.935  14.268
37770W        W 9441  17.035  19.507  12.014
37771W        W 9442  10.813  26.646  13.775
37772W        W 9443  41.552  23.604   5.363
37773W        W 9444  35.439  24.758   4.666
37774W        W 9445  22.746  17.294  12.719
37775W        W 9446  41.524  17.885  10.720
37776W        W 9447   2.714  20.010   9.749
37777W        W 9448   8.403  22.991   3.233
37778W        W 9449  38.382  18.938  12.020
37779W        W 9450  21.036  39.844  14.338
37780W        W 9451  24.535  33.629   4.308
37781W        W 9452   7.678  36.399   1.617
37782W        W 9453  26.318  25.434   2.343
37783W        W 9454  17.942   8.920   4.315
37784W        W 9455  15.752  21.777  14.915
37785W        W 9456   0.301  38.296   0.234
37786W        W 9457  36.337  12.736  12.085
37787W        W 9458   0.404   9.125   4.469
37788W        W 9459  30.408   5.923   4.018
37789W        W 9460  18.711  28.234   3.611
37790W        W 9461  26.863  34.033   0.865
37791W        W 9462  17.623  36.312   0.766
37792W        W 9463  29.016  43.996  11.104
37793W        W 9464  39.453  39.338  10.808
37794W        W 9465  43.028   7.211  11.301
37795W        W 9466  21.134  13.288  14.276
37796W        W 9467  12.625  31.451  14.787
37797W        W 9468  39.089  33.985   1.475
37798W        W 9469  36.164  26.877   2.736
37799W        W 9470  43.785  14.041  14.944
37800W        W 9471   3.884  11.794   2.752
37801W        W 9472  17.681  17.175  13.394
37802W        W 9473  40.148  25.490  13.435
37803W        W 9474  12.454  41.474  11.927
37804W        W 9475  14.033   4.633  13.366
37805W        W 9476  23.092  38.014   4.936
37806W        W 9477  26.163  12.488  13.564
37807W        W 9478   0.269  23.958  10.726
37808W        W 9479  12.405  16.267  14.970
37809W        W 9480   3.662  25.977   2.044
37810W        W 9481  36.984  40.471   1.857
37811W        W 9482   3.168  36.354   4.688
37812W        W 9483  20.743  16.987  12.927
37813W        W 9484  12.766  12.171  12.506
37814W        W 9485  20.215  18.278   1.857
37815W        W 9486  17.123  10.139   4.953
37816W        W 9487  27.688  11.259   0.548
37817W        W 9488  36.291  39.376   2.200
37818W        W 9489  23.309  10.458  12.009
37819W        W 9490  22.965  28.997   1.402
37820W        W 9491  23.970  10.327  12.567
37821W        W 9492   9.914  28.627   1.659
37822W        W 9493  17.357  31.545   4.746
37823W        W 9494  17.572  39.613  11.498
37824W        W 9495  44.787  20.969  10.257
37825W        W 9496  29.524   0.807  11.231
37826W        W 9497   9.413   7.248   0.228
37827W        W 9498  13.784   9.172  13.567
37828W        W 9499  38.360   6.389   3.065
37829W        W 9500  40.000  39.875  14.876
37830W        W 9501  39.924   8.336  14.385
37831W        W 9502  36.189  30.944  11.258
37832W        W 9503  37.417  17.239  11.119
37833W        W 9504  36.840   2.554  14.418
37834W        W 9505   5.902  31.144  14.952
37835W        W 9506  28.061  11.659  14.104
37836W        W 9507  43.658  23.136   2.797
37837W        W 9508  31.960  31.208  13.606
37838W        W 9509  42.225  21.601   4.641
37839W        W 9510  12.875  40.390  13.584
37840W        W 9511  42.488  37.277  13.833
37841W        W 9512  34.026   6.831  12.925
37842W        W 9513   8.023  11.074  12.697
37843W        W 9514  30.357  21.202   3.333
37844W        W 9515  30.995  21.704  13.001
37845W        W 9516  41.428   3.953   4.142
37846W        W 9517  40.009  14.408   4.681
37847W        W 9518  23.302  13.034  14.849
37848W        W 9519   6.871  11.837  10.620
37849W        W 9520  30.380  13.672  14.308
37850W        W 9521  15.160  31.502   1.847
37851W        W 9522  16.148  39.531  13.299
37852W        W 9523  44.693  17.523  12.999
37853W        W 9524  22.064  14.681   0.696
37854W        W 9525  27.711  28.496  11.135
37855W        W 9526  30.709  31.684  12.185
37856W        W 9527  10.896  26.478   3.760
37857W        W 9528  27.284  21.117   4.645
37858W        W 9529  39.354  19.508   0.012
37859W        W 9530  21.050  18.182  11.878
37860W        W 9531  16.207  17.894  12.455
37861W        W 9532  19.983  21.903   3.806
37862W        W 9533  42.349  12.185   1.417
37863W        W 9534  24.978  43.996   2.801
37864W        W 9535   1.216  10.646   2.753
37865W        W 9536  39.334  18.719   3.525
37866W        W 9537  25.921   2.265   3.060
37867W        W 9538  39.312  40.885  11.220
37868W        W 9539   3.321  30.629   0.395
37869W        W 9540  23.464  18.285   1.438
37870W        W 9541  43.536  28.015   3.139
37871W        W 9542  27.210   3.425  11.602
37872W        W 9543  17.627  43.891  11.646
37873W        W 9544  35.249  15.221  12.986
37874W        W 9545  29.585  35.002  13.944
37875W        W 9546  26.037  24.253   3.558
37876W        W 9547  28.018   4.722  13.564
37877W        W 9548  19.815   2.928  14.632
37878W        W 9549  20.481  11.121  12.476
37879W        W 9550  27.643  41.489   2.217
37880W        W 9551  24.705  16.083  11.123
37881W        W 9552   9.382   8.196   0.216
37882W        W 9553   6.731  38.839   3.219
37883W        W 9554  33.687  40.835  12.362
37884W        W 9555  29.033  43.274   2.614
37885W        W 9556  19.044  15.385  13.908
37886W        W 9557  39.579   5.760  14.922
37887W        W 9558  28.844  38.254   2.730
37888W        W 9559  29.094   7.885   1.703
37889W        W 9560  17.427  44.025   3.813
37890W        W 9561  25.770  13.162   4.932
37891W        W 9562  22.400  12.239   4.175
37892W        W 9563  19.883  43.854   2.866
37893W        W 9564  18.971  15.654   1.355
37894W        W 9565  22.799  23.114  12.352
37895W        W 9566   1.352  38.440  13.557
37896W        W 9567  16.380  40.539  10.952
37897W        W 9568  17.133  41.091  14.290
37898W        W 9569  17.357  40.299  12.329
37899W        W 9570  25.925  14.166  13.946
37900W        W 9571  18.086  44.202   0.236
37901W        W 9572  13.515   2.311  14.298
37902W        W 9573  23.242   8.791  11.556
37903W        W 9574   5.168  44.870  14.870
37904W        W 9575  38.371  15.811  11.179
37905W        W 9576  21.788   3.801   0.223
37906W        W 9577  12.254  24.608   4.091
37907W        W 9578  28.760   0.040  10.540
37908W        W 9579   9.423   6.474   3.838
37909W        W 9580  43.872  17.708  11.608
37910W        W 9581  11.976  14.417  11.888
37911W        W 9582  14.762  11.797   2.672
37912W        W 9583  39.764   9.736  14.169
37913W        W 9584  44.724  41.502   2.350
37914W        W 9585   1.044   4.488  11.560
37915W        W 9586  16.346  17.842   3.288
37916W        W 9587  16.737  31.940   1.933
37917W        W 9588  42.466  18.985   0.460
37918W        W 9589  26.682  32.848  10.636
37919W        W 9590  22.243  23.712   2.315
37920W        W 9591  34.672  22.779  11.579
37921W        W 9592  39.508  22.575  11.405
37922W        W 9593   1.677   7.171  14.348
37923W        W 9594  24.658   5.159  12.372
37924W        W 9595  27.037  11.683   3.296
37925W        W 9596  28.738  44.875  14.987
37926W        W 9597  14.269   4.761  13.809
37927W        W 9598   8.710  12.346  14.016
37928W        W 9599  11.202  39.570   2.209
37929W        W 9600   6.852  23.656  11.681
37930W        W 9601  16.104  10.645   3.570
37931W        W 9602  33.633  37.166  11.012
37932W        W 9603  44.715  27.924  13.801
37933W        W 9604  13.244   3.251   3.429
37934W        W 9605  32.251  44.708  14.058
37935W        W 9606   2.493  43.370   1.772
37936W        W 9607  25.209  40.292   1.684
37937W        W 9608  19.587   2.746   2.270
37938W        W 9609  11.885  43.432   2.100
37939W        W 9610  40.014  20.422   4.198
37940W        W 9611   9.267   9.625  13.942
37941W        W 9612  39.404  34.070  12.192
37942W        W 9613  43.953  27.863  11.927
37943W        W 9614   9.187  43.758   2.288
37944W        W 9615  12.714  20.402  13.555
37945W        W 9616  22.329  12.927   3.901
37946W        W 9617   3.842  25.921  10.984
37947W        W 9618  38.430   3.201  14.905
37948W        W 9619   3.405  35.557   4.379
37949W        W 9620  20.348  40.876  11.591
37950W        W 9621  36.528  14.644  13.554
37951W        W 9622  35.057  42.442   4.819
37952W        W 9623  38.870  36.141   0.793
37953W        W 9624  13.332  31.162  14.824
37954W        W 9625  40.464  44.754   2.388
37955W        W 9626  26.463  30.866  11.206
37956W        W 9627  42.919  39.581  10.482
37957W        W 9628  42.330  12.934   2.416
37958W        W 9629  16.260  39.341  12.835
37959W        W 9630  43.123  39.261   3.332
37960W        W 9631   9.130  28.949  12.342
37961W        W 9632   9.192  30.426   1.792
37962W        W 9633  10.817  39.815  12.893
37963W        W 9634  28.496   1.561  12.438
37964W        W 9635  44.051  34.176   1.852
37965W        W 9636  31.960  41.655   2.815
37966W        W 9637  38.994   2.519   2.888
37967W        W 9638  22.600  18.528  12.044
37968W        W 9639  11.625  32.511  10.538
37969W        W 9640  16.816  25.293   0.575
37970W        W 9641  40.831  18.213   3.359
37971W        W 9642   3.115   7.840  11.445
37972W        W 9643  27.622  27.084  12.922
37973W        W 9644   1.862  27.077  11.355
37974W        W 9645  39.770   8.371  12.042
37975W        W 9646  41.910  35.104  12.935
37976W        W 9647  44.453  43.964   2.233
37977W        W 9648  24.678  39.420  13.997
37978W        W 9649  16.659  44.560   1.092
37979W        W 9650  21.563   0.511   3.546
37980W        W 9651  12.721   3.032  12.035
37981W        W 9652   9.941  27.555   4.630
37982W        W 9653  25.305  19.209   1.158
37983W        W 9654   0.424  24.776   1.656
37984W        W 9655  13.304   1.798  10.907
37985W        W 9656  31.204  42.923  12.422
37986W        W 9657  12.588   3.792   0.446
37987W        W 9658  26.955  16.007  12.075
37988W        W 9659  44.115  14.971   5.593
37989W        W 9660  40.913  42.249   3.870
37990W        W 9661  28.030  25.991  11.447
37991W        W 9662   0.798  38.580  13.421
37992W        W 9663  21.502  28.711   2.936
37993W        W 9664  15.305  38.435  12.188
37994W        W 9665   0.555   0.812   3.555
37995W        W 9666  34.495  25.635   0.971
37996W        W 9667   9.781  24.409  13.371
37997W        W 9668  10.170   2.028  13.978
37998W        W 9669  16.680  30.937  13.943
37999W        W 9670  24.474  15.382  13.856
38000W        W 9671  12.092  38.459   4.840
38001W        W 9672  29.934  36.292  14.035
38002W        W 9673   7.806   9.817  10.402
38003W        W 9674   2.684   3.819  12.162
38004W        W 9675   1.955  38.833  14.510
38005W        W 9676   2.855  16.733   2.244
38006W        W 9677   5.427  43.091  11.529
38007W        W 9678   1.800  14.488   4.059
38008W        W 9679  23.002  11.630  13.392
38009W        W 9680  42.746  37.486  12.652
38010W        W 9681  17.201  41.027   4.627
38011W        W 9682  23.647  26.016   2.827
38012W        W 9683   2.818  18.327  12.401
38013W        W 9684  28.549   5.726   4.119
38014W        W 9685   3.969  12.296   2.814
38015W        W 9686  42.134  20.644   3.797
38016W        W 9687  21.728  41.584   1.321
38017W        W 9688  31.082   8.979  14.922
38018W        W 9689   8.350   5.283   0.740
38019W        W 9690   3.046  14.317  10.531
38020W        W 9691  30.755   9.543   0.896
38021W        W 9692  11.882  26.548  11.266
38022W        W 9693   9.635   8.940  12.597
38023W        W 9694  43.747   7.192   1.765
38024W        W 9695  21.856  30.515  10.528
38025W        W 9696  15.346  22.060  14.398
38026W        W 9697  35.061  28.115   3.617
38027W        W 9698  37.108  38.258   4.122
38028W        W 9699   7.676  22.844  11.245
38029W        W 9700  42.200  41.810   0.550
38030W        W 9701  22.958  41.741   4.319
38031W        W 9702  29.620  43.564  10.591
38032W        W 9703  44.100  13.747  13.130
38033W        W 9704  44.458  34.822   3.614
38034W        W 9705  38.512  14.254   1.321
38035W        W 9706  19.273   2.366   4.316
38036W        W 9707  33.180  25.446   0.366
38037W        W 9708  33.627  20.582   4.051
38038W        W 9709  40.289   9.597  13.958
38039W        W 9710  42.816  10.895   1.757
38040W        W 9711  44.771  21.615  13.866
38041W        W 9712  41.999  35.995   1.330
38042W        W 9713  43.124  18.157   1.171
38043W        W 9714  34.580  32.231   2.297
38044W        W 9715  44.180  29.705   3.800
38045W        W 9716  38.422  12.203   0.209
38046W        W 9717  11.832  43.319  14.773
38047W        W 9718  35.605  35.641   3.192
38048W        W 9719  41.101  28.054  12.036
38049W        W 9720  17.459  15.712   2.746
38050W        W 9721   9.062  28.073  11.267
38051W        W 9722  40.527  24.235   1.666
38052W        W 9723  20.676  38.063  12.566
38053W        W 9724   7.853  44.742  10.464
38054W        W 9725   7.773  29.526   3.148
38055W        W 9726   0.846  18.194   3.866
38056W        W 9727   0.894  25.728   0.384
38057W        W 9728  16.318  39.495   2.830
38058W        W 9729  22.270   9.397  14.187
38059W        W 9730  11.664  32.961   1.797
38060W        W 9731   6.323  18.799  10.825
38061W        W 9732  32.093  42.547   1.420
38062W        W 9733  26.008  19.793   2.438
38063W        W 9734   6.302  29.604   0.754
38064W        W 9735  27.140  34.016  11.917
38065W        W 9736  30.959   4.795  11.229
38066W        W 9737  35.496  41.775   0.725
38067W        W 9738  37.155  28.203   2.379
38068W        W 9739  29.576  22.913  12.642
38069W        W 9740  31.050  17.159  13.415
38070W        W 9741  34.989   8.183   1.538
38071W        W 9742  19.591  15.129   0.686
38072W        W 9743   2.437   0.262  13.975
38073W        W 9744  39.367   7.088   4.136
38074W        W 9745  41.339   1.032   4.616
38075W        W 9746  39.310  35.424  12.188
38076W        W 9747   3.702   2.555   3.773
38077W        W 9748  37.334  27.979  11.570
38078W        W 9749  17.345  20.074  12.450
38079W        W 9750  27.509  22.498   0.344
38080W        W 9751   8.335   6.918   1.873
38081W        W 9752  20.556  30.289   4.091
38082W        W 9753  19.493  12.507  12.114
38083W        W 9754  27.499  14.126   1.709
38084W        W 9755  11.389   1.485   2.068
38085W        W 9756  31.744   5.387   0.992
38086W        W 9757  10.728   5.649   4.193
38087W        W 9758  19.252  34.807  14.330
38088W        W 9759  38.757  14.252  13.847
38089W        W 9760  32.594  25.504   1.146
38090W        W 9761  35.141  41.063  12.444
38091W        W 9762  25.106  17.809   4.425
38092W        W 9763  24.965  24.615  12.072
38093W        W 9764  12.281  34.429  10.621
38094W        W 9765  12.384  24.481   1.856
38095W        W 9766  26.432  42.859   3.368
38096W        W 9767   9.393  44.454  11.480
38097W        W 9768  42.889  37.033  13.563
38098W        W 9769  21.183  25.449   0.510
38099W        W 9770  18.604  38.888   2.371
38100W        W 9771  13.607   8.323   0.514
38101W        W 9772   0.364  34.536  12.859
38102W        W 9773   5.210  21.445   2.306
38103W        W 9774  35.867  41.901  14.515
38104W        W 9775  34.826   0.803   4.566
38105W        W 9776  34.416  30.542   4.235
38106W        W 9777  19.856  24.965   4.453
38107W        W 9778   6.422  18.234  10.572
38108W        W 9779  27.137  21.725   3.712
38109W        W 9780  13.313  44.226  11.661
38110W        W 9781  41.353  19.171   4.670
38111W        W 9782   8.207   5.643   1.979
38112W        W 9783  40.921  37.782  14.297
38113W        W 9784   4.319  12.086  10.791
38114W        W 9785  34.969  17.060   5.030
38115W        W 9786  38.083  21.584  10.322
38116W        W 9787   7.317  16.777   4.688
38117W        W 9788  26.411  22.413   5.291
38118W        W 9789  42.495  34.399   4.346
38119W        W 9790  18.060  20.287   1.923
38120W        W 9791  35.877   7.245   2.361
38121W        W 9792  20.056  13.491   5.008
38122W        W 9793  31.800  11.764   3.121
38123W        W 9794  10.184   9.673   0.238
38124W        W 9795  39.887  22.584  13.525
38125W        W 9796  22.640   7.480  14.951
38126W        W 9797  39.308  14.310  10.819
38127W        W 9798  41.942  42.660   1.924
38128W        W 9799  33.530   9.884   3.163
38129W        W 9800  14.667  16.103   4.363
38130W        W 9801   6.482  38.074   4.133
38131W        W 9802  11.139  29.704   0.991
38132W        W 9803  26.536  18.323   1.542
38133W        W 9804  17.100  10.562   0.342
38134W        W 9805   9.177  10.424  12.940
38135W        W 9806  29.088  31.003  11.906
38136W        W 9807  30.758  31.531   4.014
38137W        W 9808   1.577  21.274  11.058
38138W        W 9809  42.931  38.721  13.136
38139W        W 9810   4.305  32.311   1.440
38140W        W 9811  34.502   0.167   1.367
38141W        W 9812  30.743  33.472   3.211
38142W        W 9813  41.293   4.413  12.336
38143W        W 9814  16.707   2.501  12.457
38144W        W 9815   7.311   9.733   3.419
38145W        W 9816  22.918  43.021   4.101
38146W        W 9817  42.504  32.173   1.312
38147W        W 9818  18.480  17.511   1.418
38148W        W 9819  23.765   7.496  11.682
38149W        W 9820  32.779  11.322   1.103
38150W        W 9821  20.636  16.070   2.376
38151W        W 9822  20.923   4.798  12.019
38152W        W 9823  10.513  34.424   2.301
38153W        W 9824  44.735  12.168   1.041
38154W        W 9825  31.104  39.938  14.906
38155W        W 9826   3.529   7.977   3.746
38156W        W 9827  26.681  19.294  12.464
38157W        W 9828  20.022   8.768  11.137
38158W        W 9829  20.172  12.346   2.706
38159W        W 9830  36.558  40.885  13.897
38160W        W 9831  41.957   0.185  14.274
38161W        W 9832  26.067  35.532   1.789
38162W        W 9833  28.188  37.342  11.468
38163W        W 9834   0.402  36.887   2.648
38164W        W 9835  23.658  15.699  11.985
38165W        W 9836   0.554  27.540   0.895
38166W        W 9837   7.588  35.488   1.154
38167W        W 9838  25.753  41.391   1.899
38168W        W 9839  28.002  24.335  14.463
38169W        W 9840  32.067  35.771  14.623
38170W        W 9841   4.138  43.305   2.848
38171W        W 9842  44.931  34.447   1.259
38172W        W 9843  24.380  33.352   3.863
38173W        W 9844  17.122  40.331   2.734
38174W        W 9845  23.025   3.666   1.170
38175W        W 9846  37.905   8.110  14.660
38176W        W 9847   8.617   6.288   0.885
38177W        W 9848   4.452  20.812   3.074
38178W        W 9849  35.813   2.295   2.848
38179W        W 9850  34.202  35.115  12.726
38180W        W 9851   5.007  16.829  13.107
38181W        W 9852  26.654  30.772  14.221
38182W        W 9853  25.960   3.722   0.404
38183W        W 9854  11.989  20.378   0.984
38184W        W 9855  29.982  11.385   1.403
38185W        W 9856  16.836  35.663  13.827
38186W        W 9857  42.480  30.425   2.132
38187W        W 9858  33.082  38.698   1.861
38188W        W 9859  31.681  28.134  11.996
38189W        W 9860  27.164  22.718  11.020
38190W        W 9861  43.371  34.681  11.461
38191W        W 9862   8.339   0.707   4.617
38192W        W 9863  43.417   1.430   4.140
38193W        W 9864   1.736  10.098  14.581
38194W        W 9865  21.056  25.981  14.767
38195W        W 9866   5.176  17.174  13.442
38196W        W 9867  12.245  17.068   4.388
38197W        W 9868  30.990  43.917  11.500
38198W        W 9869  23.193  30.727  14.562
38199W        W 9870   7.696  44.167   2.389
38200W        W 9871   3.468  43.050  10.692
38201W        W 9872  19.084  14.987  12.052
38202W        W 9873   5.850  33.150   4.448
38203W        W 9874  10.824  21.336   0.922
38204W        W 9875  12.655  12.387   0.618
38205W        W 9876   0.331  23.626   3.202
38206W        W 9877  27.947  19.036   0.675
38207W        W 9878  26.013   0.281   1.385
38208W        W 9879  26.021  12.671   1.976
38209W        W 9880   7.902  31.910   2.297
38210W        W 9881  22.875  22.984   4.916
38211W        W 9882   8.444  37.944  14.522
38212W        W 9883  41.412  13.018   0.367
38213W        W 9884  29.918  21.515   1.787
38214W        W 9885  40.753  31.392  13.318
38215W        W 9886  32.143   4.761  12.382
38216W        W 9887  12.557  28.289  12.858
38217W        W 9888  24.551  10.505   1.669
38218W        W 9889  38.375  28.654  14.055
38219W        W 9890   0.693  32.062   3.623
38220W        W 9891  24.514  25.453   2.695
38221W        W 9892  12.887  10.959   2.184
38222W        W 9893  22.719  29.150  12.366
38223W        W 9894   9.356  44.005  13.508
38224W        W 9895  21.170  32.392  14.604
38225W        W 9896   1.134  38.116  14.374
38226W        W 9897  36.485   0.733   0.671
38227W        W 9898  42.395   3.972  14.416
38228W        W 9899  31.645   0.223  12.607
38229W        W 9900  32.252  22.966   0.165
38230W        W 9901  32.659  27.131  11.778
38231W        W 9902  33.519  37.910   2.875
38232W        W 9903  14.076  22.064   3.686
38233W        W 9904  34.078  22.498   4.278
38234W        W 9905  32.560   5.948  10.538
38235W        W 9906  38.129   1.777  10.721
38236W        W 9907   5.669  33.493   3.163
38237W        W 9908   2.137   3.340   2.254
38238W        W 9909  11.231  25.239  10.667
38239W        W 9910   1.412  10.488  11.033
38240W        W 9911  30.360  17.206   4.128
38241W        W 9912  26.217   8.220   9.846
38242W        W 9913  16.576  43.097   4.028
38243W        W 9914  14.896   3.750   3.809
38244W        W 9915  39.412  42.579   3.959
38245W        W 9916  16.245  15.075   0.934
38246W        W 9917  23.902  30.864  10.621
38247W        W 9918  30.178  19.848   4.578
38248W        W 9919  43.056   5.481   0.977
38249W        W 9920   8.653  25.700  10.104
38250W        W 9921  21.138  41.416  12.496
38251W        W 9922  12.663  42.986   2.942
38252W        W 9923  21.242  20.600   3.764
38253W        W 9924  40.533  31.335   4.049
38254W        W 9925  10.154   3.997   0.988
38255W        W 9926  36.343  35.657   0.840
38256W        W 9927  19.433  39.895   4.579
38257W        W 9928   8.180  33.877   3.788
38258W        W 9929  35.030  13.219   4.138
38259W        W 9930  15.829  11.073   2.292
38260W        W 9931   8.411  40.069  14.295
38261W        W 9932   3.220  18.070   1.881
38262W        W 9933  30.663  13.658  13.093
38263W        W 9934  21.695  16.486  12.264
38264W        W 9935  17.078  15.264   1.425
38265W        W 9936  21.088  16.201   1.740
38266W        W 9937   1.510  12.296   3.298
38267W        W 9938  31.543  35.723  10.671
38268W        W 9939  17.883  30.258   0.522
38269W        W 9940  27.179   5.515   4.243
38270W        W 9941  39.157  23.297   2.446
38271W        W 9942  29.009  37.024   1.588
38272W        W 9943   7.463   1.728   2.626
38273W        W 9944  16.205  20.149  13.323
38274W        W 9945  23.181   1.802   2.743
38275W        W 9946  37.359  43.736  11.085
38276W        W 9947  29.472  21.086   0.827
38277W        W 9948   4.346  27.845   1.688
38278W        W 9949  27.580  22.996   0.318
38279W        W 9950   7.159  16.300  13.436
38280W        W 9951  15.838   2.083   2.651
38281W        W 9952  43.812  14.550  11.392
38282W        W 9953   5.451  13.270   4.402
38283W        W 9954  15.353   1.905   0.179
38284W        W 9955  24.017   1.025   1.356
38285W        W 9956  22.601  36.304  12.551
38286W        W 9957  28.615   2.789  10.693
38287W        W 9958  10.870  33.541   2.752
38288W        W 9959  35.251  40.022  10.396
38289W        W 9960  10.190   1.381  12.176
38290W        W 9961   4.974  14.238  14.476
38291W        W 9962   4.054   9.749   2.582
38292W        W 9963   8.738   5.723   4.104
38293W        W 9964  12.643   4.778   1.742
38294W        W 9965   7.773   9.322  14.784
38295W        W 9966   0.923  44.989  12.145
38296W        W 9967  26.426  21.814  14.434
38297W        W 9968  39.311  11.343   4.633
38298W        W 9969  24.642  26.327  12.480
38299W        W 9970   1.270  32.572  12.808
38300W        W 9971   5.639  39.267   2.869
38301W        W 9972   1.188   1.453  10.654
38302W        W 9973  38.009  36.637  12.130
38303W        W 9974  28.197   2.080   4.208
38304W        W 9975   3.927  20.731  10.437
38305W        W 9976   9.069   5.410  12.557
38306W        W 9977   5.296  13.717  12.243
38307W        W 9978  36.756   2.433   2.446
38308W        W 9979  14.641  36.571   1.961
38309W        W 9980   5.263   8.362   1.458
38310W        W 9981  24.165   9.249  12.558
38311W        W 9982  16.335   6.799   0.410
38312W        W 9983   2.616   6.412  11.075
38313W        W 9984  10.788  37.119  11.121
38314W        W 9985  17.631   1.240  11.272
38315W        W 9986   9.581  39.613  11.492
38316W        W 9987  23.323  24.929  12.774
38317W        W 9988   3.298  32.094  11.561
38318W        W 9989   2.578  14.418   2.313
38319W        W 9990  25.039  28.615   0.862
38320W        W 9991  37.585   4.790   1.212
38321W        W 9992  19.284  27.969  13.656
38322W        W 9993  23.051   7.440  12.840
38323W        W 9994  16.595  37.357  11.162
38324W        W 9995  17.686  25.224   3.389
38325W        W 9996  21.412  41.022   0.685
38326W        W 9997   0.021   1.857   3.746
38327W        W 9998   1.749  21.252  13.443
38328W        W 9999  28.076  10.601  14.748
38329W        W10000   8.280  29.548   4.814
38330W        W10001  11.382  18.383   2.337
38331W        W10002  40.995  24.545  14.851
38332W        W10003  14.633   6.996  10.705
38333W        W10004  32.873  21.814   3.640
38334W        W10005  20.418  39.718   4.625
38335W        W10006  39.574   1.620  13.389
38336W        W10007  43.605   1.012  10.775
38337W        W10008  39.024   9.558   4.602
38338W        W10009  40.299  26.950  13.398
38339W        W10010  29.124  37.887  14.013
38340W        W10011  29.596  44.532  10.813
38341W        W10012  29.430  34.631   1.454
38342W        W10013  38.924  12.626  12.053
38343W        W10014  21.751  37.528  10.075
38344W        W10015  40.547  30.594  13.112
38345W        W10016  39.765  10.132   2.901
38346W        W10017  26.245   7.028  13.851
38347W        W10018  23.237   6.020   0.365
38348W        W10019  17.064   4.082   4.664
38349W        W10020   5.866  31.579  11.040
38350W        W10021   6.180  31.563  12.559
38351W        W10022  44.841  11.465   3.359
38352W        W10023  30.611  15.343  10.612
38353W        W10024  30.176  19.181   1.426
38354W        W10025  27.074  10.776  10.533
38355W        W10026  27.547  41.011   3.581
38356W        W10027  40.524  25.641  10.636
38357W        W10028  11.406  12.715  12.513
38358W        W10029   9.528  26.853   2.634
38359W        W10030   7.680   8.798  10.621
38360W        W10031  42.530   1.301   0.820
38361W        W10032  28.030   2.936  10.662
38362W        W10033  11.753  31.066  10.742
38363W        W10034  40.462   6.525   4.996
38364W        W10035  14.756  35.398   1.413
38365W        W10036   2.924  43.236  13.207
38366W        W10037   1.348  12.523   0.715
38367W        W10038  40.915   6.914   1.255
38368W        W10039  20.773   1.414   3.006
38369W        W10040   1.810   0.001  14.886
38370W        W10041  44.009  13.814   1.322
38371W        W10042   9.792  33.880  13.423
38372W        W10043  10.165  14.698  11.422
38373W        W10044  36.110  32.869   2.414
38374W        W10045   7.687  24.318   2.493
38375W        W10046  21.160  25.482   1.033
38376W        W10047  26.488  31.611  13.909
38377W        W10048   1.849  43.755   4.721
38378W        W10049  23.166  35.385   4.632
38379W        W10050  18.471  41.058  14.399
38380W        W10051  25.617   4.492   2.092
38381W        W10052  28.200  19.918  12.875
38382W        W10053   3.214  42.850  12.348
38383W        W10054  26.665  19.282   4.354
38384W        W10055  25.247   6.843   0.734
38385W        W10056  40.522  35.448   3.251
38386W        W10057  29.972  17.256   2.366
38387W        W10058  22.196  34.074   3.251
38388W        W10059  41.353  13.238   2.788
38389W        W10060  17.819  27.970   0.231
38390W        W10061   4.661  22.077  11.961
38391W        W10062  25.391  37.894   4.723
38392W        W10063  44.506  36.412   3.392
38393W        W10064  32.900  24.418  13.002
38394W        W10065  25.214  40.575  11.473
38395W        W10066  22.729  18.268   1.890
38396W        W10067  12.604  20.006  11.201
38397W        W10068   0.853  11.325   0.536
38398W        W10069  20.833  13.135   4.766
38399W        W10070  37.420  44.947  13.500
38400W        W10071  34.059   9.687   4.330
38401W        W10072  43.461  28.993   1.397
38402W        W10073  27.463  29.079   2.613
38403W        W10074   5.686  28.895   2.311
38404W        W10075   1.964   5.255   3.691
38405W        W10076  26.530  32.892  14.298
38406W        W10077  41.104  16.769   3.443
38407W        W10078   2.360  15.723  13.349
38408W        W10079   2.302  43.371  13.305
38409W        W10080  14.635  17.695   3.897
38410W        W10081  20.193  16.079   2.670
38411W        W10082  28.003   7.109  12.573
38412W        W10083  14.658  32.502   3.363
38413W        W10084  36.818   6.781   0.305
38414W        W10085  30.461  37.339   1.875
38415W        W10086   6.413  28.421   1.313
38416W        W10087  40.723  31.518  12.250
38417W        W10088  35.503  32.690   0.238
38418W        W10089  21.594  37.104  11.618
38419W        W10090  12.656  15.344  14.433
38420W        W10091   2.739  27.119  11.276
38421W        W10092  31.429  17.526   1.835
38422W        W10093  26.770  39.977  13.505
38423W        W10094   7.073  26.177  11.970
38424W        W10095  22.197  17.744  14.343
38425W        W10096  26.195  37.357  11.430
38426W        W10097  34.484   3.369   3.139
38427W        W10098  33.144   9.635   1.040
38428W        W10099  17.468  10.137  10.158
38429W        W10100  33.920  16.135  11.070
38430W        W10101  40.000  32.366  14.684
38431W        W10102   4.919  31.011  14.852
38432W        W10103  22.071  28.147   4.638
38433W        W10104  38.022  38.238   2.791
38434W        W10105  36.312   4.767   4.155
38435W        W10106  33.085  38.572   0.358
38436W        W10107   8.774  23.762  13.437
38437W        W10108  23.806   1.363  12.842
38438W        W10109  37.464  33.653  13.833
38439W        W10110  37.052   2.214  11.725
38440W        W10111  25.503  14.667   2.768
38441W        W10112  10.766  14.279   4.701
38442W        W10113  42.209  24.817  14.901
38443W        W10114   9.566  25.493  11.144
38444W        W10115  16.449   3.533   4.503
38445W        W10116   7.360  17.271   2.359
38446W        W10117   1.339  37.521  11.172
38447W        W10118   2.248  10.179  13.923
38448W        W10119   3.779  17.047   4.064
38449W        W10120   9.224   6.872   0.526
38450W        W10121  34.471  44.658   3.206
38451W        W10122  16.256  17.775   4.136
38452W        W10123  44.264  24.608   4.179
38453W        W10124   2.092  37.522   1.017
38454W        W10125   6.907   8.471   3.706
38455W        W10126  29.513  14.193   4.498
38456W        W10127  14.261  13.624   2.330
38457W        W10128   2.707  41.336   4.679
38458W        W10129  18.645  41.881  13.112
38459W        W10130  36.425   6.405   2.132
38460W        W10131  43.268  30.585  14.366
38461W        W10132  42.746  36.627  11.434
38462W        W10133  31.755   4.914  10.699
38463W        W10134   6.676  38.346  13.988
38464W        W10135   2.249  43.462  12.452
38465W        W10136   1.370  39.417  12.263
38466W        W10137   3.355  35.437   4.963
38467W        W10138   2.336  18.697  13.997
38468W        W10139  43.794  22.256  11.618
38469W        W10140   0.755  25.434  10.977
38470W        W10141  35.352   5.925  11.195
38471W        W10142  16.316  27.205  12.380
38472W        W10143  35.787   9.373   0.455
38473W        W10144  39.950  17.299  13.121
38474W        W10145  44.753  12.730  14.008
38475W        W10146  10.394   8.842  13.837
38476W        W10147   2.706   9.684  13.301
38477W        W10148  25.449  26.534   3.184
38478W        W10149  31.149  44.743   1.210
38479W        W10150   2.903  42.750   1.313
38480W        W10151  23.819  10.684   0.511
38481W        W10152  17.121  23.049   3.237
38482W        W10153   6.412  13.909  14.558
38483W        W10154  11.897  18.311   1.075
38484W        W10155  35.788  13.657   3.546
38485W        W10156  25.143  10.513   0.212
38486W        W10157  22.267  21.221   1.843
38487W        W10158  40.719  35.882   2.446
38488W        W10159   5.238  36.865  13.155
38489W        W10160   2.714  34.870  11.942
38490W        W10161  39.007  24.766  11.339
38491W        W10162  26.418  18.838  12.445
38492W        W10163  41.872   7.653   2.724
38493W        W10164   0.353  33.115   2.236
38494W        W10165  38.842  42.053   1.104
38495W        W10166  24.119  20.955   1.401
38496W        W10167  42.065  14.335   3.225
38497W        W10168  40.502  34.060  12.008
38498W        W10169  37.330  14.185   1.248
38499W        W10170  41.539  37.141  13.337
38500W        W10171  38.901  34.087   4.222
38501W        W10172   1.620   7.925  11.413
38502W        W10173  43.716  33.967   2.607
38503W        W10174  18.777  15.113  10.764
38504W        W10175  43.869   7.798  11.206
38505W        W10176   0.946  20.864  12.527
38506W        W10177  32.142   5.709  12.611
38507W        W10178  41.371  35.012  14.537
38508W        W10179  37.460  28.460  12.195
38509W        W10180  31.908  24.728  13.021
38510W        W10181  38.764   6.501   0.811
38511W        W10182  44.248  40.800  14.376
38512W        W10183  18.536  30.885   2.257
38513W        W10184  41.422  18.168  11.142
38514W        W10185  25.890  10.299  13.986
38515W        W10186   5.231  37.047   0.888
38516W        W10187  16.954  44.949   1.328
38517W        W10188   8.798  36.340   0.678
38518W        W10189  11.232  29.021   0.769
38519W        W10190  19.105  43.028   1.158
38520W        W10191   2.315   6.713   1.416
38521W        W10192  25.054  13.257   1.179
38522W        W10193  38.964  34.756  13.214
38523W        W10194  29.881   3.870  13.040
38524W        W10195  33.531   4.523   1.100
38525W        W10196  31.620  12.654  14.868
38526W        W10197  29.155  13.533   2.760
38527W        W10198  22.287   5.716   3.432
38528W        W10199  38.762  14.714   1.420
38529W        W10200  34.351  40.475   3.221
38530W        W10201  10.229  30.937  13.006
38531W        W10202  31.396  32.525   4.655
38532W        W10203  37.519  17.063   2.702
38533W        W10204  27.448  44.956   1.388
38534W        W10205  39.048  29.527   2.329
38535W        W10206  19.491  10.959   1.029
38536W        W10207  21.715  10.124   3.231
38537W        W10208   0.838  41.533  13.774
38538W        W10209  33.049   5.667   0.096
38539W        W10210  10.374   6.762   3.701
38540W        W10211  29.137  41.354   3.849
38541W        W10212   0.964  11.848  13.016
38542W        W10213  20.703   3.901  11.332
38543W        W10214  16.628  26.711  11.153
38544W        W10215   7.651  28.580   3.099
38545W        W10216  20.805  21.816   2.355
38546W        W10217  21.801   8.232   3.163
38547W        W10218  10.257   7.351   9.817
38548W        W10219  18.707   5.806   2.667
38549W        W10220  13.510  23.178   1.445
38550W        W10221  36.230  16.026  12.461
38551W        W10222  17.138  41.744   3.255
38552W        W10223   4.148  26.737   3.352
38553W        W10224   5.716  26.172   0.489
38554W        W10225   5.915  24.494  13.365
38555W        W10226  29.923   1.947  12.588
38556W        W10227  44.469  13.076  10.218
38557W        W10228  40.029  21.665   3.616
38558W        W10229  10.168  40.385   4.053
38559W        W10230  35.013  24.057   1.632
38560W        W10231   5.950  37.746   2.733
38561W        W10232   5.363  21.831  11.081
38562W        W10233  26.907   8.750  12.394
38563W        W10234  10.274  13.179  11.872
38564W        W10235  43.366   2.811  12.838
38565W        W10236  23.381  19.040  12.872
38566W        W10237  44.319  21.496  14.716
38567W        W10238  35.929  38.672   5.013
38568W        W10239  12.587  42.571   1.695
38569W        W10240  39.454   7.295   0.755
38570W        W10241  14.548  35.954  10.968
38571W        W10242  39.777   4.636   1.846
38572W        W10243  32.989  18.719  10.704
38573W        W10244  16.174  40.534  12.095
38574W        W10245  33.112   9.218  11.242
38575W        W10246  35.323   6.921   3.885
38576W        W10247  29.676  11.151   1.776
38577W        W10248  17.069   6.159  13.402
38578W        W10249  40.427  35.081   4.442
38579W        W10250  36.337   5.290   3.776
38580W        W10251  11.394  12.417  12.082
38581W        W10252   6.990  14.073  14.309
38582W        W10253  19.737   9.397   3.054
38583W        W10254   6.281  44.545   4.192
38584W        W10255  29.157  42.892  14.881
38585W        W10256  27.708  27.565   4.671
38586W        W10257  27.234   5.006   4.410
38587W        W10258   2.494  37.516   2.705
38588W        W10259   1.733  31.081  11.612
38589W        W10260  20.570  29.405  14.857
38590W        W10261  14.638  23.601   2.466
38591W        W10262  12.262   5.281  12.036
38592W        W10263  10.712  13.820   3.751
38593W        W10264  35.872  35.819  11.101
38594W        W10265  42.093  24.303   4.499
38595W        W10266  10.111  12.791   1.577
38596W        W10267  18.222   9.175  14.980
38597W        W10268  20.925  28.685  14.276
38598W        W10269  40.594  43.257   9.798
38599W        W10270   7.751   5.710  11.740
38600W        W10271  39.012  12.884   4.365
38601W        W10272  37.948   9.664  11.089
38602W        W10273  36.450  38.080  11.133
38603W        W10274   9.061  17.490   2.705
38604W        W10275  18.262  42.843   4.406
38605W        W10276   3.457  42.777   3.314
38606W        W10277  22.535  28.955   3.900
38607W        W10278  39.287  12.213   0.846
38608W        W10279  22.500   8.213   3.709
38609W        W10280  20.975  26.817   1.044
38610W        W10281  40.577  37.001  13.934
38611W        W10282   4.025  34.641  11.492
38612W        W10283  20.257  23.644   1.771
38613W        W10284  44.676  17.228  14.985
38614W        W10285  18.646  27.034   4.719
38615W        W10286  15.019  42.098  11.693
38616W        W10287   9.190  19.264   3.185
38617W        W10288  27.606  16.481   1.468
38618W        W10289   9.381   1.872   1.212
38619W        W10290   6.379  33.196   3.350
38620W        W10291  21.925  39.425  14.053
38621W        W10292  20.555   5.912  11.930
38622W        W10293  32.545  14.201   2.803
38623W        W10294  44.332   9.734   1.392
38624W        W10295  41.486  38.493   0.833
38625W        W10296  42.353  23.930  11.516
38626W        W10297  10.570  17.389   3.738
38627W        W10298  36.457  36.801  13.923
38628W        W10299   1.119  30.239  10.985
38629W        W10300   9.887  14.540   2.140
38630W        W10301  42.982   4.268   0.536
38631W        W10302  16.016  21.206   1.155
38632W        W10303  15.656   4.361   2.826
38633W        W10304  10.766  14.343   0.176
38634W        W10305  27.576  15.467  13.756
38635W        W10306  18.232  26.195   4.865
38636W        W10307  28.586  36.422  12.162
38637W        W10308   8.910  39.631   0.260
38638W        W10309   1.254  32.264  11.936
38639W        W10310  44.376  11.496  14.381
38640W        W10311  40.238   5.472  11.459
38641W        W10312  10.033  37.932   0.882
38642W        W10313  40.018  13.379   1.829
38643W        W10314  40.470  19.035  12.946
38644W        W10315  13.691  18.888  12.507
38645W        W10316   5.235   7.906   2.263
38646W        W10317  40.666  37.371  13.508
38647W        W10318  21.731  31.900   4.058
38648W        W10319  25.053  38.522   3.097
38649W        W10320   4.050  22.134  13.777
38650W        W10321  14.172  39.862  14.345
38651W        W10322  10.383  17.983  13.042
38652W        W10323  16.313  28.216   1.368
38653W        W10324  36.885  43.006   4.577
38654W        W10325  25.514  24.470  14.870
38655W        W10326  10.176  22.542  14.892
38656W        W10327  28.196  42.328   2.297
38657W        W10328   7.752  16.344   1.495
38658W        W10329  34.440   1.649  12.476
38659W        W10330  32.054  33.662  11.777
38660W        W10331  22.139   1.361   3.181
38661W        W10332  18.055  43.598  11.627
38662W        W10333   4.412   0.001   2.412
38663W        W10334  31.316  36.103  10.365
38664W        W10335  27.528  37.116   2.765
38665W        W10336  25.135  14.774  14.041
38666W        W10337  25.516  42.939   2.174
38667W        W10338  18.787  29.839  10.457
38668W        W10339  32.723  34.395   4.650
38669W        W10340  32.967  27.110  14.060
38670W        W10341  42.853  19.999   1.409
38671W        W10342  29.523  34.802  14.969
38672W        W10343  15.876  15.800   1.923
38673W        W10344  17.091   1.468  12.051
38674W        W10345  39.156   5.739  11.181
38675W        W10346  25.690  42.373  12.263
38676W        W10347  12.818  19.212   3.248
38677W        W10348  17.168   6.949  11.769
38678W        W10349  22.029  38.402   3.633
38679W        W10350   0.457  31.895  10.664
38680W        W10351  35.441  26.570  12.988
38681W        W10352  41.986  12.492   1.236
38682W        W10353  31.520  25.690  10.925
38683W        W10354  44.434  21.353  10.458
38684W        W10355  33.940  18.696  11.113
38685W        W10356  36.999  42.796  13.973
38686W        W10357  42.628  21.325  13.414
38687W        W10358   5.286  44.416  12.907
38688W        W10359  33.065   4.000  11.580
38689W        W10360  20.290   3.729  14.881
38690W        W10361  24.074  30.993  12.477
38691W        W10362   7.657  27.241   3.099
38692W        W10363  34.392  18.739  14.594
38693W        W10364  29.507  37.207   4.906
38694W        W10365   4.756   0.341  11.652
38695W        W10366  19.182  25.540   4.535
38696W        W10367  20.824   2.322   2.699
38697W        W10368  16.245   5.364   0.035
38698W        W10369  16.072  40.591   0.862
38699W        W10370  24.314   8.707   0.784
38700W        W10371  34.938   2.376  11.022
38701W        W10372   4.367  31.952  13.321
38702W        W10373   8.589  11.214   0.992
38703W        W10374  27.245  15.523   5.153
38704W        W10375  13.638  22.862  12.419
38705W        W10376  16.836   6.151  11.974
38706W        W10377  17.110  35.876  14.930
38707W        W10378  22.657  37.853   4.169
38708W        W10379  19.938  21.637   2.630
38709W        W10380  13.406  24.505   0.269
38710W        W10381  36.159  24.698  12.383
38711W        W10382  14.555  16.092  11.669
38712W        W10383  31.344  41.017  12.258
38713W        W10384  18.089  15.339  12.063
38714W        W10385  44.947  21.456  14.373
38715W        W10386  28.867   3.341   1.312
38716W        W10387  20.623  36.210   1.435
38717W        W10388  30.453  32.578   3.476
38718W        W10389  37.219   9.368  14.021
38719W        W10390  18.142  31.352  11.678
38720W        W10391  35.293  42.949   1.447
38721W        W10392  42.079  16.546  11.163
38722W        W10393  44.408  35.100  10.302
38723W        W10394  44.962  36.050   2.124
38724W        W10395  44.374  24.634   0.343
38725W        W10396  22.289  16.143   1.221
38726W        W10397   3.785  35.331  12.554
38727W        W10398  36.322  33.433   1.267
38728W        W10399  42.783  39.068   5.431
38729W        W10400   4.882   8.343   4.460
38730W        W10401  13.137  16.513  10.600
38731W        W10402  14.138  19.366   2.815
38732W        W10403  14.622  10.650   3.835
38733W        W10404  33.129  44.490   4.856
38734W        W10405  16.373  34.510  12.409
38735W        W10406   6.445  15.675  14.534
38736W        W10407  42.261  22.427  12.557
38737W        W10408  18.626  15.161   2.673
38738W        W10409  18.257  40.905  13.946
38739W        W10410  35.489  13.789  13.846
38740W        W10411  16.052  33.339   3.779
38741W        W10412  23.410  38.474   0.421
38742W        W10413  19.106  15.853   0.870
38743W        W10414  30.866  13.688  10.773
38744W        W10415  20.717   6.657  11.614
38745W        W10416   3.902  35.629   0.646
38746W        W10417  40.349   0.847   3.182
38747W        W10418  42.353   0.684   3.573
38748W        W10419  29.041  39.778  14.347
38749W        W10420  35.947  28.199  11.639
38750W        W10421  31.971  10.298   0.290
38751W        W10422  39.596  15.148  14.071
38752W        W10423   5.020   8.620  13.087
38753W        W10424  36.714  18.746   1.645
38754W        W10425  12.741   1.524  11.984
38755W        W10426  44.948  28.629   0.271
38756W        W10427  10.621  15.741  10.717
38757W        W10428   2.497   7.729  11.969
38758W        W10429  17.767  29.709   2.262
38759W        W10430  40.977  35.535  12.514
38760W        W10431  11.125  16.317  11.533
38761W        W10432  22.626  42.778   1.944
38762W        W10433  44.735  35.927   0.752
38763W        W10434  37.544  19.107   4.404
38764W        W10435  14.773  25.496  10.666
38765W        W10436  11.523  18.242   0.709
38766W        W10437  24.953  42.430   2.596
38767W        W10438  26.195   1.499   1.956
38768W        W10439  36.608  18.999  13.438
38769W        W10440  15.148   9.354  13.181
38770W        W10441  43.373  41.838   4.828
38771W        W10442  15.734  35.666   2.474
38772W        W10443  32.467  38.946   3.274
38773W        W10444  14.328  14.177   3.122
38774W        W10445   9.734  27.312  14.221
38775W        W10446   5.577   6.932   3.262
38776W        W10447  21.250  20.745   2.597
38777W        W10448  24.483  29.043  13.946
38778W        W10449   9.214   0.231  13.923
38779W        W10450  10.145  38.588   1.717
38780W        W10451  24.084   8.619  13.895
38781W        W10452  34.212  28.169   3.999
38782W        W10453  12.110   9.197   1.547
38783W        W10454  14.358  35.042  11.947
38784W        W10455   7.758  38.111   1.898
38785W        W10456   4.971  14.809   3.252
38786W        W10457  14.147  40.441   3.197
38787W        W10458   9.755  39.721   2.359
38788W        W10459  28.162  26.978  14.961
38789W        W10460  23.768  22.874   2.827
38790W        W10461  26.951  43.002   3.361
38791W        W10462  36.360  18.190   1.891
38792W        W10463   4.953  40.097   3.650
38793W        W10464  12.737  41.238  11.052
38794W        W10465   6.472  33.980   0.038
38795W        W10466  14.649  27.538  14.535
38796W        W10467   3.363  41.295   2.837
38797W        W10468  43.234  15.957   4.252
38798W        W10469  35.829  29.221  10.603
38799W        W10470   4.688   9.313   3.705
38800W        W10471  37.768  31.823   3.756
38801W        W10472  14.984  26.614   5.217
38802W        W10473   3.956   4.844  12.980
38803W        W10474  21.102  10.590   4.594
38804W        W10475  13.243  42.708   1.208
38805W        W10476   5.853  36.086  11.171
38806W        W10477  42.035  33.402  10.812
38807W        W10478  24.630  13.227  13.577
38808W        W10479  25.212  28.892   2.383
38809W        W10480  37.202  39.202  10.224
38810W        W10481   1.606   3.457  11.552
38811W        W10482   8.725  23.081  11.865
38812W        W10483  38.692   1.893   0.216
38813W        W10484  28.691   5.686  13.980
38814W        W10485  36.621  36.258  11.443
38815W        W10486  37.769  17.093   4.017
38816W        W10487   0.669  12.739  13.901
38817W        W10488  40.762  14.608  11.605
38818W        W10489  14.641  19.336   1.323
38819W        W10490  10.833   8.633  13.419
38820W        W10491  23.005  17.730   4.115
38821W        W10492  23.027  44.338   2.301
38822W        W10493  39.810  39.497  11.203
38823W        W10494  10.058  30.322   3.358
38824W        W10495   0.739  12.994   4.278
38825W        W10496  11.513  31.415  13.347
38826W        W10497  13.078  24.008   0.701
38827W        W10498   8.269  14.379  13.993
38828W        W10499   6.212  44.942   2.881
38829W        W10500  41.899  37.873  11.357
38830W        W10501  26.179   4.264  11.579
38831W        W10502  44.464  38.005  13.224
38832W        W10503  21.923   5.012  11.931
38833W        W10504  21.601  16.310   3.061
38834W        W10505  14.573  41.349   0.355
38835W        W10506  40.763  10.352   2.711
38836W        W10507  14.927  26.652   0.913
38837W        W10508  29.263  31.504  11.169
38838W        W10509  15.251  40.518  13.516
38839W        W10510  42.501  19.766  13.573
38840W        W10511  10.375  21.776  12.998
38841W        W10512  44.681  14.897  14.406
38842W        W10513   8.139  10.439   1.424
38843W        W10514  41.418  23.739   1.868
38844W        W10515   3.482   9.358  14.402
38845W        W10516  38.210  38.522   0.775
38846W        W10517  35.121  42.938  13.048
38847W        W10518  42.693  21.123  14.306
38848W        W10519   7.962   3.279   0.382
38849W        W10520  30.722  15.079   4.085
38850W        W10521  14.061   8.488  11.056
38851W        W10522  12.709  29.607  14.545
38852W        W10523  13.497   2.341  12.027
38853W        W10524  11.152   2.428   1.952
38854W        W10525  20.111  35.477   1.198
38855W        W10526  23.169  18.994  14.320
38856W        W10527   4.996  34.981   1.835
38857W        W10528  10.150  18.182   4.745
38858W        W10529  23.732  19.089   0.473
38859W        W10530  15.143  39.170  13.868
38860W        W10531   7.584  24.972   1.682
38861W        W10532  32.072   4.792  14.206
38862W        W10533   8.802  27.319  14.466
38863W        W10534  37.520  19.826   0.215
38864W        W10535  15.889  23.526   2.047
38865W        W10536  32.397  25.905   0.875
38866W        W10537  38.095  27.973   3.834
38867W        W10538   8.249  32.576  14.944
38868W        W10539  36.526  14.860   4.815
38869W        W10540  37.010  18.280   0.760
38870W        W10541  25.042  22.215  13.729
38871W        W10542  13.867  27.229   2.933
38872W        W10543  20.177   5.388  13.270
38873W        W10544   0.083  36.177   3.985
38874W        W10545  25.014  32.282  11.608
38875W        W10546  27.020  41.444   5.054
38876W        W10547  33.907   6.625  14.243
38877W        W10548  11.240  27.591   0.721
38878W        W10549  10.398  10.117  11.186
38879W        W10550  14.551  36.438  10.743
38880W        W10551  40.302  26.205  13.017
38881W        W10552   1.269  28.911   0.872
38882W        W10553   3.766  34.506   3.618
38883W        W10554  10.413  17.205   2.328
38884W        W10555   5.941  41.758   0.093
38885W        W10556  42.803  31.087   2.676
38886W        W10557  38.428   7.270   0.391
38887W        W10558  22.275  41.959  13.008
38888W        W10559   6.924   7.284  12.921
38889W        W10560  17.931  14.745   1.252
38890W        W10561  38.414  36.897   4.370
38891W        W10562  31.708   5.877   2.715
38892W        W10563   4.819  44.301  14.302
38893W        W10564   5.165  27.949   0.314
38894W        W10565  40.238   8.595  11.447
38895W        W10566   5.483  14.256  13.188
38896W        W10567   5.793   3.600  14.751
38897W        W10568  26.131   8.200  10.872
38898W        W10569  43.177  23.546  12.567
38899W        W10570  43.368   9.075   1.010
38900W        W10571  21.764  17.139   4.169
38901W        W10572  32.790  18.352  12.479
38902W        W10573  33.862   8.744  11.197
38903W        W10574  25.947  34.616   1.577
38904W        W10575  28.402  27.138  12.437
38905W        W10576  23.519  20.286  10.706
38906W        W10577  11.107  31.444  12.412
38907W        W10578  19.991  32.794   4.066
38908W        W10579  13.786  33.464  13.483
38909W        W10580   9.730  33.763  14.838
38910W        W10581  39.401  32.397  13.443
38911W        W10582   6.682  29.505  13.516
38912W        W10583  36.752   4.800   0.328
38913W        W10584  16.173  18.301  10.738
38914W        W10585  37.361   7.344   2.364
38915W        W10586   8.246  31.198  11.428
38916W        W10587  27.652  10.843   4.949
38917W        W10588  42.871  27.264   3.632
38918W        W10589  38.883   4.512  13.863
38919W        W10590  20.738  40.350  12.960
38920W        W10591   9.590  28.454   4.689
38921W        W10592  22.921  28.506  12.998
38922W        W10593  24.022  33.765   0.972
38923W        W10594  20.070  25.091   3.392
38924W        W10595  33.640  37.151  12.318
38925W        W10596   8.748  28.702   2.802
38926W        W10597  39.052  29.014  10.258
38927W        W10598   8.436  34.143  12.513
38928W        W10599  27.472  41.415   1.695
38929W        W10600   4.662  32.664   0.873
38930W        W10601  26.085  42.086  14.344
38931W        W10602   3.296  39.153   0.234
38932W        W10603  12.287  29.745  14.814
38933W        W10604   9.418  14.583  11.902
38934W        W10605  27.897   3.835   3.151
38935W        W10606  13.448  13.812   3.205
38936W        W10607  27.517  33.123  14.821
38937W        W10608  18.852   0.263   4.298
38938W        W10609   7.614   1.978  12.075
38939W        W10610  20.845  41.333   3.169
38940W        W10611  16.297   1.945   1.224
38941W        W10612  14.576  20.501  10.570
38942W        W10613   2.743   8.348   1.835
38943W        W10614  19.129   2.334   0.613
38944W        W10615  22.739   4.882   0.211
38945W        W10616  15.382  14.729  11.958
38946W        W10617   1.439  37.192   4.094
38947W        W10618  32.490  33.641   2.184
38948W        W10619  37.903  15.535  11.132
38949W        W10620  27.141  32.387  13.913
38950W        W10621  13.454  11.322  12.347
38951W        W10622   6.932  31.115   0.070
38952W        W10623  19.129  10.011  11.900
38953W        W10624  39.592  20.035  12.486
38954W        W10625  22.759  37.125  12.124
38955W        W10626  12.033  18.753   2.031
38956W        W10627  32.944  44.710   4.402
38957W        W10628   4.444  16.571  14.319
38958W        W10629   5.768  44.349   3.390
38959W        W10630  41.033  34.493   2.665
38960W        W10631  32.614  41.606  11.932
38961W        W10632  29.365  16.525  11.598
38962W        W10633   7.742  17.759  11.635
38963W        W10634  20.253  44.509   3.569
38964W        W10635  13.539  10.226  12.081
38965W        W10636  23.740  30.132   2.718
38966W        W10637  31.565   8.902   2.729
38967W        W10638  30.896  43.980   1.792
38968W        W10639   5.457  42.109  13.009
38969W        W10640  16.660  41.296   2.260
38970W        W10641  30.930  10.436  12.987
38971W        W10642  29.041  40.491  11.296
38972W        W10643  35.029  20.829   3.636
38973W        W10644  33.423   2.325   0.311
38974W        W10645   5.255  36.361  14.848
38975W        W10646   7.621  17.753  14.649
38976W        W10647  32.046  20.020   3.762
38977W        W10648  16.193  44.239  10.462
38978W        W10649  25.669  11.865   0.934
38979W        W10650  27.403  34.313  11.577
38980W        W10651  40.811  36.485  10.979
38981W        W10652  30.164  10.805  14.987
38982W        W10653  15.300  32.574  14.438
38983W        W10654  31.070  34.037  14.023
38984W        W10655   0.394  39.537   2.717
38985W        W10656  31.950   1.325   4.757
38986W        W10657  28.288  17.793   1.230
38987W        W10658   1.980   1.671  14.102
38988W        W10659   6.620   4.800  14.395
38989W        W10660  34.527  26.453  13.071
38990W        W10661  10.552  31.967   2.700
38991W        W10662  36.375  15.657  12.104
38992W        W10663  13.326  36.533  14.756
38993W        W10664  43.247  19.562  12.617
38994W        W10665  40.787  23.024   3.658
38995W        W10666  39.320  17.426  12.393
38996W        W10667  28.582  36.530  14.069
38997W        W10668  40.756  36.457  12.376
38998W        W10669  37.364  38.401  14.031
38999W        W10670  42.498  23.053  13.410
39000W        W10671  43.967  34.568   1.519
39001W        W10672   4.177  23.035   3.739
39002W        W10673  22.703  18.154   4.084
39003W        W10674  19.311  29.645  14.377
39004W        W10675  12.361  13.697  13.889
39005W        W10676  44.031  33.378   1.256
39006W        W10677  27.674  20.229   1.236
39007W        W10678  35.492  32.356  14.277
39008W        W10679  33.293  21.044  10.453
39009W        W10680  33.038   0.806  11.483
39010W        W10681  41.540  29.324   2.728
39011W        W10682  41.896  15.876   1.222
39012W        W10683  23.516  14.051   1.316
39013W        W10684  10.605  15.115   4.220
39014W        W10685  23.170  26.702   4.583
39015W        W10686  10.407  19.184  13.378
39016W        W10687   2.889  20.677   0.490
39017W        W10688  27.797  44.537  14.925
39018W        W10689  13.202  21.462  10.321
39019W        W10690  22.261  26.427   1.615
39020W        W10691  21.946  24.937   0.925
39021W        W10692   5.144  29.571  11.570
39022W        W10693  19.560  32.569  10.724
39023W        W10694  23.526  21.871   2.807
39024W        W10695  24.282  36.412   0.418
39025W        W10696   5.249  11.329  10.695
39026W        W10697  23.945  15.351  13.865
39027W        W10698  18.101  26.976   4.578
39028W        W10699  39.108  15.684  11.622
39029W        W10700  25.125  16.576  12.929
39030W        W10701  16.366  31.466  12.042
39031W        W10702   4.214  36.825  14.337
39032W        W10703   1.261  44.501   4.764
39033W        W10704  28.987  30.595   4.825
39034W        W10705  20.923  39.038   0.251
39035W        W10706  39.022   8.321   0.794
39036W        W10707   1.209  18.941   5.340
39037W        W10708  12.081  13.244  13.686
39038W        W10709  16.666  39.410   4.175
39039W        W10710  28.000  26.638   5.029
39040W        W10711  24.569   4.661   4.208
39041W        W10712  10.588   4.479  14.885
39042W        W10713  32.677  38.066  10.809
39043W        W10714  22.009  26.112  12.949
39044W        W10715  19.611  29.369   3.706
39045W        W10716  24.710  18.494  13.427
39046W        W10717  37.070   1.503   1.542
39047W        W10718  26.519  41.868   0.486
39048W        W10719   5.727  24.695  14.899
39049W        W10720   5.352   7.975  13.980
39050W        W10721  28.244  40.264  11.315
39051W        W10722  24.270  21.524   0.929
39052W        W10723   3.181  37.057  11.152
39053W        W10724  38.813  36.837  12.879
39054W        W10725   9.822  29.727   2.323
39055W        W10726  32.879  22.170  12.678
39056W        W10727  36.512   9.635   1.443
39057W        W10728  41.979   8.829   3.898
39058W        W10729   3.065   8.737   3.873
39059W        W10730   4.032  41.895  14.874
39060W        W10731   9.304  24.439  12.462
39061W        W10732  19.782  42.398   1.684
39062W        W10733  40.305  35.812   0.391
39063W        W10734  37.363  34.137   4.470
39064W        W10735  38.840  11.166  11.797
39065W        W10736   4.935   8.487  10.834
39066W        W10737  41.860  37.939  14.402
39067W        W10738  25.118  18.634  13.853
39068W        W10739   8.740  35.482   3.903
39069W        W10740  13.365  31.479  14.225
39070W        W10741  26.608  33.188   0.304
39071W        W10742  22.170  10.561  11.182
39072W        W10743  38.983  21.465  14.077
39073W        W10744  40.285  43.445  13.574
39074W        W10745   9.682  31.498  13.783
39075W        W10746  37.444  29.068  12.965
39076W        W10747  31.874  20.078  11.117
39077W        W10748  36.902  18.997  12.971
39078W        W10749  44.850  15.345   1.373
39079W        W10750  33.122  39.464   2.134
39080W        W10751  27.198   3.193  14.829
39081W        W10752  34.791  31.495   3.392
39082W        W10753   8.883  26.285  14.648
39083W        W10754   6.346  12.633  12.424
39084W        W10755  30.948  17.683   3.723
39085W        W10756   8.936  21.643   4.087
39086W        W10757  15.198   0.731   3.264
39087W        W10758  25.809   3.272  12.942
39088W        W10759  15.754  21.711  13.348
39089W        W10760  10.021   4.774  13.819
39090W        W10761   5.670   4.903   4.378
39091W        W10762  23.215  22.689  10.649
39092W        W10763  41.487  27.662   3.065
39093W        W10764  37.063  23.776   1.551
39094W        W10765  27.946  14.253   0.764
39095W        W10766   3.707   8.148   1.455
39096W        W10767  19.578  11.611   4.636
39097W        W10768  32.644  19.648   0.249
39098W        W10769  29.666  36.294  13.454
39099W        W10770  29.487  32.261  12.836
39100W        W10771   0.452  34.300   4.531
39101W        W10772  37.333  31.353   0.871
39102W        W10773  21.509  15.295  11.750
39103W        W10774  41.380   5.249  13.024
39104W        W10775  17.166  14.207  12.469
39105W        W10776  35.632  40.349   0.317
39106W        W10777  43.081  37.061   2.256
39107W        W10778  17.840  28.480  11.593
39108W        W10779   9.733  25.616   0.864
39109W        W10780  44.537   0.548   4.507
39110W        W10781  44.500   8.240   0.496
39111W        W10782  23.046  43.412  14.076
39112W        W10783  38.721  29.635   1.834
39113W        W10784   1.341  16.274  10.957
39114W        W10785   6.989  26.212   4.891
39115W        W10786  32.399   2.764   2.778
39116W        W10787   5.384   6.389  11.019
39117W        W10788  28.968  33.309   2.119
39118W        W10789  32.682  42.540  12.069
39119W        W10790  21.646  11.138   0.469
39120W        W10791  28.352  10.534  13.447
39121W        W10792  34.528  38.893  11.453
39122W        W10793  40.757  11.882   4.921
39123W        W10794  31.078  13.325   1.319
39124W        W10795  32.911  28.975  11.899
39125W        W10796  30.044  15.190   3.492
39126W        W10797  37.840  41.379  10.942
39127W        W10798  11.538  20.367   1.707
39128W        W10799  35.311  15.822   2.836
39129W        W10800   6.650  28.968   2.264
39130W        W10801  31.019  29.561   4.609
39131W        W10802   1.751  35.004  11.936
39132W        W10803  40.373  23.769  11.199
39133W        W10804  40.284  29.454  12.538
39134W        W10805  43.728  25.477  11.135
39135W        W10806  30.677  28.492  14.268
39136W        W10807  17.380  23.994   4.053
39137W        W10808  34.724  43.052  12.575
39138W        W10809  37.154   5.378   3.369
39139W        W10810  13.376  20.623   3.290
39140W        W10811  24.621  20.133  13.374
39141W        W10812  24.644  32.710   2.723
39142W        W10813  34.332   0.756  12.531
39143W        W10814  15.198  39.278   3.325
39144W        W10815  36.166  22.636  13.304
39145W        W10816  36.779  40.441   5.145
39146W        W10817   0.790   6.114  11.928
39147W        W10818   7.855  18.022   2.421
39148W        W10819  30.196  34.614  11.257
39149W        W10820   2.852  44.408  14.848
39150W        W10821  14.325  17.077  11.665
39151W        W10822  17.247  32.357  14.365
39152W        W10823  11.851   1.569  11.585
39153W        W10824  32.806  12.161   3.873
39154W        W10825   4.203  32.096   4.248
39155W        W10826  24.663  44.245  11.631
39156W        W10827  36.013   6.752   2.160
39157W        W10828  41.005  34.949  11.765
39158W        W10829  33.867  29.883  10.788
39159W        W10830  18.641  33.679  10.691
39160W        W10831  38.862   0.604  10.684
39161W        W10832  38.594  28.337  10.646
39162W        W10833  27.354   5.158  11.188
39163W        W10834  42.375  44.119   2.831
39164W        W10835  32.308  44.674  10.104
39165W        W10836  23.041  19.974  11.804
39166W        W10837  12.172  23.259   2.203
39167W        W10838   2.265  12.852  13.831
39168W        W10839  26.242  23.905  12.502
39169W        W10840  39.503  38.657   2.370
39170W        W10841   2.871  41.277  11.923
39171W        W10842  33.556  32.536   4.575
39172W        W10843   5.602  41.949   0.812
39173W        W10844   0.516  14.647  13.089
39174W        W10845  15.845  44.695  12.461
39175W        W10846  20.268  43.249   2.363
39176W        W10847  29.836  36.840  14.196
39177W        W10848  28.170  15.197  10.692
39178W        W10849  25.944   7.446  13.912
39179W        W10850  26.110  19.061  14.185
39180W        W10851  32.218  38.591   0.226
39181W        W10852   1.459  38.958   0.651
39182W        W10853  44.965   8.280  10.762
39183W        W10854  36.855  17.625  12.524
39184W        W10855  18.294  17.367  14.720
39185W        W10856  19.668  32.240   5.039
39186W        W10857  17.280  43.417   2.852
39187W        W10858  23.144  14.752   4.564
39188W        W10859  43.754   4.152  13.503
39189W        W10860  43.016   5.630   3.214
39190W        W10861  10.669  38.406  10.620
39191W        W10862  20.446  13.271   2.349
39192W        W10863  20.696  22.250  12.659
39193W        W10864  19.565  40.848   1.618
39194W        W10865  24.229   5.850  11.164
39195W        W10866  29.172  20.112   1.266
39196W        W10867  21.537   9.441  13.498
39197W        W10868  41.980  38.784   5.018
39198W        W10869  35.810  20.338   3.178
39199W        W10870   2.760  42.996   4.237
39200W        W10871   6.820  17.182  12.101
39201W        W10872  34.384  35.849   1.844
39202W        W10873  31.573  21.924   0.051
39203W        W10874   4.351  37.260  14.132
39204W        W10875  35.707  12.112  14.698
39205W        W10876  21.295  23.679  14.937
39206W        W10877  29.415  35.352  14.867
39207W        W10878  20.716   2.792  13.395
39208W        W10879  41.836   7.165   4.297
39209W        W10880  22.156  37.814   1.283
39210W        W10881  26.474  25.481  12.938
39211W        W10882  24.117  12.629  11.253
39212W        W10883  34.190  18.887  10.720
39213W        W10884   4.504   8.788  13.953
39214W        W10885  11.948  40.003   1.813
39215W        W10886   3.362   5.260   2.098
39216W        W10887  25.204  36.984   4.380
39217W        W10888   3.102  33.683   5.106
39218W        W10889  11.776  28.748   3.793
39219W        W10890  38.896  26.877   2.666
39220W        W10891  18.726  31.006   3.111
39221W        W10892   0.846  10.010   1.247
39222W        W10893   1.831  34.680   1.319
39223W        W10894  16.623   6.244  14.888
39224W        W10895  33.736   8.275  11.042
39225W        W10896  37.308  33.384  12.355
39226W        W10897  12.943  38.292  11.140
39227W        W10898   1.829   5.884  11.635
39228W        W10899  20.013   6.671   0.284
39229W        W10900  34.329  26.787   4.208
39230W        W10901  41.018  41.283   2.673
39231W        W10902   3.217   7.716   1.442
39232W        W10903   7.770  29.243   2.624
39233W        W10904  44.281  23.077  10.608
39234W        W10905  41.365  13.220  13.834
39235W        W10906  30.585  16.282   3.167
39236W        W10907  30.168  44.847  12.967
39237W        W10908   9.646  10.853   0.378
39238W        W10909  39.530  39.118  11.679
39239W        W10910  29.870  40.868  14.745
39240W        W10911  37.036  39.955   2.587
39241W        W10912  38.381  17.183  10.698
39242W        W10913  41.690   2.236   2.890
39243W        W10914  28.938   4.742  14.373
39244W        W10915  36.937  13.934   0.883
39245W        W10916  20.068   0.551  12.951
39246W        W10917  43.853  42.011   2.352
39247W        W10918   5.178  12.830   1.001
39248W        W10919  26.680  15.653   2.539
39249W        W10920  14.896   6.115   2.272
39250W        W10921  29.987  41.535   2.826
39251W        W10922  19.134  37.018   3.541
39252W        W10923  18.744  25.703   0.740
39253W        W10924  16.132  31.035   2.638
39254W        W10925  33.945  16.803   1.497
39255W        W10926  11.896   4.513  10.752
39256W        W10927   4.912  31.590  11.958
39257W        W10928  11.787  36.970  11.788
39258W        W10929   2.255  42.882   1.811
39259W        W10930   4.310  13.272   0.738
39260W        W10931  42.815  12.661  14.888
39261W        W10932  43.830  27.017   4.420
39262W        W10933  19.821  32.950  14.585
39263W        W10934  28.078  13.827   3.434
39264W        W10935   0.351  34.833   3.692
39265W        W10936  18.100  40.158   0.793
39266W        W10937  28.701  11.432  10.635
39267W        W10938   5.139  27.591  12.619
39268W        W10939  16.283   9.615  12.019
39269W        W10940  21.184  42.732   0.466
39270W        W10941  14.299  21.532  12.400
39271W        W10942  25.114   7.252  12.461
39272W        W10943  27.032  33.917  13.278
39273W        W10944  40.407  37.310   3.121
39274W        W10945  13.474  35.672  10.183
39275W        W10946  17.707   7.642   0.747
39276W        W10947   5.893  39.440   3.307
39277W        W10948  17.601  24.519  10.742
39278W        W10949  23.266  41.900   2.363
39279W        W10950  15.343  37.882   4.478
39280W        W10951   9.827  31.594  14.287
39281W        W10952  36.833  30.617  12.126
39282W        W10953   2.241  34.627   9.850
39283W        W10954  23.747   4.767  12.944
39284W        W10955  39.607  18.233  11.914
39285W        W10956  15.668  28.611  10.669
39286W        W10957   8.110  19.214  12.477
39287W        W10958  27.520  39.549  12.585
39288W        W10959   2.890  27.202  14.812
39289W        W10960  29.244  34.102   4.306
39290W        W10961   7.452  29.539   4.840
39291W        W10962  42.905  16.853  14.667
39292W        W10963  41.989  18.478   3.145
39293W        W10964  44.453   9.330   2.937
39294W        W10965   7.387  33.907   2.303
39295W        W10966  33.388  44.881   4.189
39296W        W10967  18.976   4.384  13.680
39297W        W10968  35.394  21.087  11.595
39298W        W10969   0.604  39.022  10.652
39299W        W10970  42.575  19.729   4.715
39300W        W10971  36.590  37.525   0.521
39301W        W10972  25.736  32.629   4.140
39302W        W10973  36.769  26.669   4.317
39303W        W10974  34.385   8.149  13.995
39304W        W10975  25.111  42.827   2.905
39305W        W10976  41.804  25.073  13.577
39306W        W10977  43.491   7.717  10.886
39307W        W10978   4.714  13.215  10.058
39308W        W10979  19.943  19.087  14.786
39309W        W10980  12.994  25.020   4.217
39310W        W10981  43.234  35.815   2.776
39311W        W10982  31.729  17.207   0.022
39312W        W10983   3.666  22.285  12.105
39313W        W10984  12.370  29.932   3.845
39314W        W10985  28.306  37.029   2.344
39315W        W10986  12.861  36.348   3.720
39316W        W10987   4.761  28.056   3.248
39317W        W10988  37.606   6.305  12.564
39318W        W10989  42.318  42.019  12.107
39319W        W10990  37.068  30.643  13.628
39320W        W10991  11.195  17.350  13.556
39321W        W10992  36.524  11.971   0.783
39322W        W10993  10.563  26.366   0.354
39323W        W10994  21.331  42.991  12.455
39324W        W10995  15.618  36.740  12.528
39325W        W10996  39.577  34.486   3.749
39326W        W10997  25.306  33.648   0.380
39327W        W10998  18.604  33.025  12.071
39328W        W10999  30.430  44.068  12.557
39329W        W11000  14.074   4.734  10.324
39330W        W11001   5.360  42.903   1.694
39331W        W11002  12.027  24.585   0.103
39332W        W11003   2.904  23.462  11.467
39333W        W11004  23.263  26.152   2.463
39334W        W11005   9.268  42.374  11.643
39335W        W11006  29.882  39.415   2.688
39336W        W11007  25.760  25.054   2.859
39337W        W11008  27.200  24.480   0.906
39338W        W11009   9.689  34.631  13.016
39339W        W11010  13.723  13.812   1.178
39340W        W11011   6.890  31.206  14.576
39341W        W11012  32.595  18.333   0.889
39342W        W11013  41.463  10.322   4.411
39343W        W11014   6.782  17.227  14.361
39344W        W11015  18.799  22.063  12.608
39345W        W11016  34.060  12.287   3.243
39346W        W11017   0.759  37.463   4.186
39347W        W11018  23.444   6.764   4.427
39348W        W11019  42.498  17.533  11.661
39349W        W11020   0.984  36.358   4.169
39350W        W11021  24.299  40.031   2.055
39351W        W11022  36.512  26.971   4.666
39352W        W11023  10.101  28.106  12.145
39353W        W11024  43.845  25.040  12.045
39354W        W11025   8.370   5.320   4.698
39355W        W11026  13.951  23.962  12.158
39356W        W11027  29.952  37.059   4.052
39357W        W11028   3.675  18.814  14.523
39358W        W11029  24.679  31.700   4.038
39359W        W11030  20.014  28.176  10.264
39360W        W11031   8.691  32.405  11.542
39361W        W11032  34.168  34.903  14.364
39362W        W11033  19.178  19.145   2.895
39363W        W11034  10.359  43.688   0.849
39364W        W11035  11.243  43.711  13.087
39365W        W11036  35.110  14.385   1.833
39366W        W11037  14.451  22.387  13.378
39367W        W11038   6.874  25.802  11.151
39368W        W11039  22.038  29.348   3.315
39369W        W11040  28.331  29.191  11.623
39370W        W11041   7.244  29.578  13.978
39371W        W11042  30.225  15.783   0.834
39372W        W11043   5.107  13.403   0.373
39373W        W11044  20.128  19.969  11.185
39374W        W11045   2.845   7.283   4.647
39375W        W11046  42.100   2.727   1.200
39376W        W11047  33.530  34.058   1.940
39377W        W11048  19.814  33.726   4.119
39378W        W11049  11.097  42.545   4.581
39379W        W11050  16.772  22.064   2.612
39380W        W11051  22.797   6.406  13.115
39381W        W11052  11.064  26.181   0.976
39382W        W11053  18.615   0.509  11.678
39383W        W11054  11.692  11.702   2.768
39384W        W11055  40.004  19.087  13.539
39385W        W11056  23.022  10.772  14.446
39386W        W11057  22.951  13.700   1.936
39387W        W11058  26.691  34.193  12.544
39388W        W11059  41.100   0.994   2.317
39389W        W11060  17.016  28.477  11.231
39390W        W11061  17.452   4.900   4.731
39391W        W11062  11.890  27.936  10.587
39392W        W11063  14.678  22.091   4.814
39393W        W11064  15.731  19.178   1.098
39394W        W11065  10.889  43.310   2.760
39395W        W11066  29.156  44.252  11.628
39396W        W11067   8.365  12.762  10.830
39397W        W11068  43.230  22.215   2.770
39398W        W11069  26.461  31.428  14.824
39399W        W11070  36.532  31.905  12.185
39400W        W11071  15.428  16.737   1.676
39401W        W11072   4.097  38.499  12.853
39402W        W11073  13.114  30.335   4.614
39403W        W11074  19.111   4.216   3.869
39404W        W11075  21.495  32.683  13.365
39405W        W11076   3.654   3.690   4.180
39406W        W11077  44.227  40.133   3.224
39407W        W11078  10.733  42.939  10.955
39408W        W11079   9.441  44.272  11.951
39409W        W11080  44.237  16.056   2.359
39410W        W11081  11.734   2.180   0.483
39411W        W11082  17.053  35.198  10.231
39412W        W11083  17.193  15.358  11.979
39413W        W11084  40.790  22.080  12.156
39414W        W11085  34.011   6.138   1.153
39415W        W11086  39.038  42.762   0.860
39416W        W11087   5.921  36.560   1.560
39417W        W11088  19.026  25.167  12.834
39418W        W11089  25.817  16.271   0.783
39419W        W11090  35.337   1.654   1.709
39420W        W11091  33.598  31.149  12.053
39421W        W11092  13.273  13.009   4.930
39422W        W11093  19.542   6.698   3.245
39423W        W11094  28.250  43.886  12.377
39424W        W11095  10.779  18.068   1.708
39425W        W11096  21.038  42.656   3.747
39426W        W11097  25.548  31.155  13.901
39427W        W11098  26.289  21.359  14.876
39428W        W11099  28.736  24.582  13.843
39429W        W11100   0.246  41.348  10.642
39430W        W11101  33.305  24.759  13.971
39431W        W11102   0.125   9.041  12.155
39432W        W11103  10.693  11.951  11.739
39433W        W11104  24.014  42.349   3.668
39434W        W11105  27.845  15.811  12.436
39435W        W11106   0.405  24.583  13.838
39436W        W11107  32.839  33.262   3.092
39437W        W11108  34.913  21.681   2.804
39438W        W11109  21.104  24.177   2.161
39439W        W11110  20.835   5.773   4.832
39440W        W11111  37.554  12.524   1.867
39441W        W11112  30.417   3.243   1.596
39442W        W11113  22.153  34.869   1.489
39443W        W11114   3.715  10.897   0.798
39444W        W11115  10.414  31.653   2.183
39445W        W11116  29.980  24.379   1.616
39446W        W11117  23.729  19.147   3.258
39447W        W11118   7.206  38.167  14.916
39448W        W11119  30.012  33.186   1.355
39449W        W11120  18.742  23.237  14.680
39450W        W11121  12.805  39.530  11.633
39451W        W11122  24.528   0.272  11.966
39452W        W11123  32.523  20.200   3.180
39453W        W11124  20.689  36.730   1.404
39454W        W11125   6.104  10.436   2.273
39455W        W11126  26.181  20.588  10.732
39456W        W11127  41.818  44.958  10.634
39457W        W11128   5.048   9.993   2.801
39458W        W11129  13.851  14.521  14.886
39459W        W11130  44.974  22.248  12.112
39460W        W11131  30.410  23.905  12.433
39461W        W11132   2.275  43.746  10.587
39462W        W11133  34.023  27.906   3.579
39463W        W11134  24.602   4.902  14.474
39464W        W11135   0.683  27.160   3.710
39465W        W11136  29.021  20.386   0.725
39466W        W11137  19.531  17.463  13.237
39467W        W11138  16.574  44.491  12.746
39468W        W11139  33.541  18.032  14.431
39469W        W11140  24.532  33.843   0.781
39470W        W11141  11.249  36.572   3.818
39471W        W11142  21.715  15.859   2.298
39472W        W11143  33.987  26.806  11.678
39473W        W11144  20.203   0.940  13.282
39474W        W11145  42.387  24.456   4.906
39475W        W11146   3.851   1.373  12.539
39476W        W11147   0.054   0.540   2.227
39477W        W11148  16.678  14.814   0.819
39478W        W11149   3.372  29.716   3.218
39479W        W11150  16.544  36.587  14.951
39480W        W11151  31.565  28.976   1.835
39481W        W11152  35.092  19.634   1.773
39482W        W11153  23.507  19.877  11.588
39483W        W11154  14.304   6.919  14.935
39484W        W11155  26.633   9.137  13.623
39485W        W11156  42.273  18.303  11.955
39486W        W11157  20.573  20.571  14.528
39487W        W11158   0.906  33.334  14.819
39488W        W11159  22.247  28.432   0.392
39489W        W11160  21.857  31.896  14.276
39490W        W11161  28.834  29.372   4.661
39491W        W11162  24.099   2.153  11.114
39492W        W11163  31.108  14.857  12.032
39493W        W11164  19.695  22.886   2.183
39494W        W11165  32.439  21.210  11.479
39495W        W11166   2.987  13.215   4.855
39496W        W11167   1.805  11.751  11.060
39497W        W11168   0.224  12.543  14.070
39498W        W11169  33.543   6.229  12.512
39499W        W11170  34.586   1.459  14.963
39500W        W11171  40.366  40.275  12.972
39501W        W11172   9.692   4.910   0.329
39502W        W11173  13.880  27.711  11.815
39503W        W11174  11.770  38.937   1.485
39504W        W11175  10.246  43.408   1.331
39505W        W11176  33.115  36.495   4.977
39506W        W11177  17.728   7.206   4.164
39507W        W11178   8.267   9.284  11.447
39508W        W11179  31.217  40.269  14.533
39509W        W11180  25.740  14.512   4.456
39510W        W11181  40.313  21.090   4.203
39511W        W11182  38.866  30.037  11.661
39512W        W11183  43.755   8.183  10.841
39513W        W11184  15.612  44.004   1.794
39514W        W11185  29.182  42.545   1.343
39515W        W11186  44.887  34.967  12.542
39516W        W11187  25.364  12.378   2.294
39517W        W11188  33.356  12.191   1.240
39518W        W11189  18.310  11.145   2.905
39519W        W11190   6.632   9.292   3.435
39520W        W11191   0.974  41.464  12.433
39521W        W11192   3.465  34.852  10.437
39522W        W11193  37.651   2.002   3.806
39523W        W11194  13.438  38.223   0.897
39524W        W11195  33.584   1.734  14.477
39525W        W11196  42.756  27.410  13.816
39526W        W11197  34.107   9.688  13.441
39527W        W11198  19.133  28.693   0.704
39528W        W11199  16.556  17.518  14.766
39529W        W11200  23.194   5.547  13.287
39530W        W11201  40.373  11.879   4.077
39531W        W11202  21.587  19.715   3.026
39532W        W11203  33.542  37.801   1.975
39533W        W11204  39.876   9.729  11.444
39534W        W11205  23.913  10.187  13.830
39535W        W11206  19.056  31.426  13.081
39536W        W11207   3.977  24.766   4.017
39537W        W11208  34.822  24.467  12.980
39538W        W11209  32.063  29.504  13.274
39539W        W11210   8.412  40.430  12.893
39540W        W11211   0.147   3.677  10.615
39541W        W11212  36.076  21.506   4.318
39542W        W11213  30.891   2.236  14.569
39543W        W11214   1.408  12.307  14.311
39544W        W11215  29.039   1.772   1.951
39545W        W11216  33.155  33.535  14.347
39546W        W11217  42.497  23.941   2.181
39547W        W11218  40.762  16.036   2.450
39548W        W11219  24.985  17.332  12.170
39549W        W11220  34.869   0.770  12.451
39550W        W11221  12.525  43.171  11.693
39551W        W11222  29.040  10.608  14.903
39552W        W11223  11.288  25.550   3.649
39553W        W11224  27.132  26.054  11.645
39554W        W11225  29.334  22.870   3.424
39555W        W11226   8.395  40.551   4.707
39556W        W11227  24.230  19.102   2.284
39557W        W11228  16.202  37.961  12.797
39558W        W11229   7.703  18.195   0.441
39559W        W11230  41.041  38.334  12.772
39560W        W11231  16.581  17.871  12.824
39561W        W11232   2.385  15.810  14.335
39562W        W11233  36.060  42.955   4.413
39563W        W11234  11.407   8.292  11.902
39564W        W11235   8.657  20.650  12.915
39565W        W11236  42.972  10.369  13.419
39566W        W11237  22.777  17.044  14.598
39567W        W11238  32.515  32.007  13.400
39568W        W11239   4.555  28.452   2.338
39569W        W11240  13.674  28.505   3.122
39570W        W11241  14.161  33.946  11.495
39571W        W11242  32.118  10.703   0.925
39572W        W11243   0.192  42.148   3.332
39573W        W11244  34.542   0.996   2.780
39574W        W11245  28.340  41.042  12.421
39575W        W11246  30.735  24.525  13.586
39576W        W11247  19.057  36.541  12.041
39577W        W11248  12.356  11.408   3.310
39578W        W11249  42.367  15.715   1.386
39579W        W11250  15.775   8.918  11.494
39580W        W11251  21.275  11.614  12.066
39581W        W11252  30.606  25.890  14.256
39582W        W11253  25.049  35.971  11.309
39583W        W11254  41.287  40.008   1.167
39584W        W11255  15.472  23.170  11.117
39585W        W11256  18.763   8.947  11.543
39586W        W11257  24.579  15.344   2.419
39587W        W11258  15.848  42.064  12.933
39588W        W11259   1.945  38.409   4.847
39589W        W11260  33.157   3.477   0.398
39590W        W11261  37.313  12.762  12.374
39591W        W11262  20.010  36.557  11.977
39592W        W11263   2.308  13.790   0.853
39593W        W11264  32.814  16.120   4.615
39594W        W11265  24.418  22.558   0.269
39595W        W11266  34.999  39.913  14.288
39596W        W11267   1.662  18.550   4.151
39597W        W11268  27.977   0.586  12.840
39598W        W11269  28.442  44.418   3.835
39599W        W11270   4.394  21.662   2.447
39600W        W11271  11.666  34.020   1.042
39601W        W11272   0.042  38.976  11.451
39602W        W11273   3.929  38.940  12.073
39603W        W11274  30.937  16.812   2.761
39604W        W11275   4.400  35.169  10.710
39605W        W11276  39.898   5.964  12.954
39606W        W11277  27.617  13.626  12.039
39607W        W11278  20.244   0.964   5.045
39608W        W11279   4.302  34.493   2.589
39609W        W11280  29.636   6.982  12.134
39610W        W11281  43.948  24.221   0.744
39611W        W11282  26.060  30.860   4.121
39612W        W11283  43.951  36.453   0.786
39613W        W11284  38.493  27.804  10.703
39614W        W11285  26.865  38.297   2.718
39615W        W11286  43.779  27.057  14.401
39616W        W11287  35.181  16.746  12.510
39617W        W11288  13.937  10.071  10.727
39618W        W11289   6.732  44.685   1.322
39619W        W11290  14.703  42.373  13.429
39620W        W11291  17.862  23.927   0.322
39621W        W11292  28.515  27.581  13.586
39622W        W11293  13.327  31.058  11.455
39623W        W11294   1.212  34.870   0.346
39624W        W11295  26.389  36.963  13.843
39625W        W11296   2.204   6.662  12.896
39626W        W11297  39.278   3.027   4.217
39627W        W11298   0.523   0.345  13.328
39628W        W11299   7.972  38.545   0.130
39629W        W11300   7.756  27.491  14.860
39630W        W11301  20.162  34.025  12.076
39631W        W11302  17.139   4.486  10.028
39632W        W11303  11.615  10.483   1.718
39633W        W11304  35.906  14.901   1.458
39634W        W11305  19.147  19.211  10.649
39635W        W11306  23.008  16.054  13.284
39636W        W11307  32.972  30.150  12.631
39637W        W11308  18.673  33.869   0.722
39638W        W11309   7.491  43.213   0.384
39639W        W11310  35.121  42.488   0.266
39640W        W11311  13.202  42.065  13.389
39641W        W11312  18.882  17.465   4.307
39642W        W11313   3.751  22.574  10.655
39643W        W11314  20.654  35.346  13.294
39644W        W11315  25.441  17.154  12.350
39645W        W11316  36.802  26.510  10.718
39646W        W11317   6.231  40.829  14.887
39647W        W11318  11.351  41.345   0.946
39648W        W11319  17.519  38.931   4.610
39649W        W11320  18.480  44.504  11.601
39650W        W11321  19.868  11.263   0.840
39651W        W11322  10.914   1.305  13.137
39652W        W11323  14.052  10.389  13.063
39653W        W11324  40.011   1.962   4.642
39654W        W11325  13.081  18.621   4.363
39655W        W11326  18.899  24.989   2.207
39656W        W11327   7.427  13.205   0.057
39657W        W11328  26.532   9.409  11.701
39658W        W11329  44.463  27.012   2.746
39659W        W11330  38.765  42.502  10.798
39660W        W11331  19.113  36.313   3.660
39661W        W11332  15.847  13.832  12.131
39662W        W11333   1.036  33.060  11.538
39663W        W11334  40.990   1.518   0.862
39664W        W11335  16.589   0.397  10.706
39665W        W11336  14.694  21.499  13.257
39666W        W11337  23.575  31.647   3.057
39667W        W11338  36.055  37.635  13.810
39668W        W11339  43.299  12.708  10.405
39669W        W11340  16.954  20.181   2.329
39670W        W11341  40.402  27.742  10.764
39671W        W11342  35.548  42.541   5.138
39672W        W11343  17.762  35.834  10.970
39673W        W11344   7.694   2.771   0.387
39674W        W11345   3.464  21.010  11.102
39675W        W11346  38.715  19.662  12.532
39676W        W11347  38.098  18.700   1.398
39677W        W11348  34.378  37.070   0.878
39678W        W11349  44.339  20.729   2.883
39679W        W11350  24.688   8.111  12.532
39680W        W11351  36.670  39.597   0.536
39681W        W11352   2.389  26.590   0.790
39682W        W11353   2.913  33.801  14.030
39683W        W11354   9.806  32.018   0.976
39684W        W11355   5.911  13.520   4.550
39685W        W11356  31.356   5.227   1.920
39686W        W11357  24.784  27.532  12.934
39687W        W11358  20.703  33.255  14.390
39688W        W11359  42.105   7.706  12.649
39689W        W11360   2.899   5.001   2.029
39690W        W11361  37.305  28.918   0.438
39691W        W11362  13.147   1.342   1.730
39692W        W11363   6.821   0.747   3.760
39693W        W11364  11.700  22.004   3.522
39694W        W11365  34.272   9.904  11.455
39695W        W11366  26.970  13.855   2.127
39696W        W11367  34.042  34.690   1.400
39697W        W11368  36.855  41.006   1.878
39698W        W11369  24.680   5.165  11.073
39699W        W11370  23.582  21.044  13.997
39700W        W11371  18.324  16.255   4.561
39701W        W11372  17.426   4.205   4.186
39702W        W11373   9.120  32.851  12.192
39703W        W11374  19.688   1.346  14.946
39704W        W11375  41.532  22.644   3.159
39705W        W11376   9.088   8.871   4.066
39706W        W11377  21.193  20.042  14.382
39707W        W11378  30.049  30.644   0.726
39708W        W11379  29.656  33.391   1.665
39709W        W11380  27.139  20.740   1.724
39710W        W11381   2.140  18.004  10.757
39711W        W11382   4.361  19.345  12.996
39712W        W11383  33.709   7.076   2.016
39713W        W11384  11.704  29.251   3.605
39714W        W11385  16.675  14.191  13.472
39715W        W11386   2.458   4.604  13.025
39716W        W11387   1.539  14.874  13.074
39717W        W11388  27.768  38.947  11.104
39718W        W11389   3.716   6.750   3.291
39719W        W11390  21.021  24.084   1.650
39720W        W11391  27.103   3.402   4.038
39721W        W11392  26.257  12.225   1.848
39722W        W11393   9.220  37.917   1.980
39723W        W11394  33.018  10.800   1.835
39724W        W11395  15.097  26.817   0.468
39725W        W11396  37.475  34.326  14.525
39726W        W11397  14.081  15.057   1.115
39727W        W11398  41.906  36.669   0.010
39728W        W11399   0.881   4.466   4.176
39729W        W11400  42.908  30.363   2.442
39730W        W11401  28.176  44.947  14.865
39731W        W11402  11.736  41.766   4.654
39732W        W11403  43.249  31.062  12.122
39733W        W11404  13.320  38.849  12.132
39734W        W11405  23.677   3.670   4.598
39735W        W11406  38.944   7.431  13.927
39736W        W11407  18.121  34.283   3.725
39737W        W11408  42.151  25.014  13.974
39738W        W11409  42.212   6.679  11.290
39739W        W11410   9.748  37.125  13.589
39740W        W11411   6.745  31.682   3.343
39741W        W11412  32.623  13.072  10.546
39742W        W11413  13.842  25.728  11.630
39743W        W11414  16.328  13.773  10.646
39744W        W11415  24.814  33.088   0.845
39745W        W11416  12.032  33.533   3.192
39746W        W11417  34.592  27.464   1.622
39747W        W11418   3.530  19.667   5.142
39748W        W11419   2.876  25.653   0.405
39749W        W11420  12.411  32.571   0.014
39750W        W11421  29.287   9.918   5.562
39751W        W11422  39.175  28.462   3.216
39752W        W11423  12.252  37.335   1.464
39753W        W11424  41.318   7.232   2.353
39754W        W11425  31.915  28.706  10.751
39755W        W11426   4.431   6.211  10.985
39756W        W11427   1.890   7.301  12.652
39757W        W11428  36.472  25.924   1.330
39758W        W11429  14.150  26.700   1.396
39759W        W11430  41.967   6.207  10.748
39760W        W11431  23.208   6.449   3.601
39761W        W11432  28.201   3.949  12.371
39762W        W11433   1.939  11.893   4.077
39763W        W11434  30.554  12.305  14.832
39764W        W11435   9.873  17.644   3.247
39765W        W11436  24.973  33.393  11.913
39766W        W11437  44.357  17.171  10.842
39767W        W11438  10.874   6.905   4.581
39768W        W11439  15.873  22.755   3.805
39769W        W11440  44.936  16.063  10.677
39770W        W11441  18.211  15.586   3.412
39771W        W11442  12.598  35.992  14.941
39772W        W11443  14.176  24.072  13.904
39773W        W11444  10.246  15.325   3.266
39774W        W11445  44.068  20.513   4.631
39775W        W11446  29.214   7.438   1.386
39776W        W11447  37.833   1.524   4.067
39777W        W11448  26.461  28.406  10.534
39778W        W11449  11.923  10.659  14.793
39779W        W11450  30.542  33.232   0.613
39780W        W11451  44.337  44.939  13.885
39781W        W11452   4.982  11.986  11.162
39782W        W11453  23.481  25.061   4.147
39783W        W11454  39.589   3.021  12.466
39784W        W11455   9.762   9.716   1.656
39785W        W11456  10.704  14.700  11.492
39786W        W11457   7.124  43.933   4.127
39787W        W11458  35.541   8.923  11.273
39788W        W11459   5.723  23.631  14.904
39789W        W11460   1.490  14.619  14.950
39790W        W11461  10.178  44.505  12.397
39791W        W11462  11.082  16.605   3.740
39792W        W11463  43.963   3.761   1.165
39793W        W11464   1.272   0.338  11.997
39794W        W11465  44.000   0.802  11.032
39795W        W11466   2.776  41.205   1.287
39796W        W11467  28.202  23.409  14.244
39797W        W11468  28.202  14.460   1.210
39798W        W11469   9.456  27.200  11.173
39799W        W11470  14.114  22.182  12.090
39800W        W11471  32.899  18.670  11.589
39801W        W11472  44.283  24.524  14.819
39802W        W11473  16.060  38.556   0.643
39803W        W11474  43.892  14.225  13.999
39804W        W11475  16.461  43.587  12.666
39805W        W11476  37.590  37.213   2.681
39806W        W11477  24.106  26.191   3.043
39807W        W11478   9.303  23.491  13.483
39808W        W11479  30.995  43.468   1.671
39809W        W11480  41.812   7.883   4.010
39810W        W11481   3.573   1.692   4.135
39811W        W11482  15.769  31.115  12.363
39812W        W11483  18.819  13.723  14.309
39813W        W11484  41.739  17.592  13.451
39814W        W11485   0.789  13.281  10.981
39815W        W11486  21.019  18.778   1.747
39816W        W11487  31.497  19.575  12.032
39817W        W11488  41.308  26.133  12.030
39818W        W11489  15.045  29.199  13.651
39819W        W11490   5.703  14.524  12.117
39820W        W11491  41.327  17.792  13.246
39821W        W11492  18.812   8.892   2.705
39822W        W11493  24.526  17.278   2.424
39823W        W11494  26.489  10.751   4.642
39824W        W11495   6.281  42.420  14.460
39825W        W11496  28.163  13.183   2.173
39826W        W11497  44.960   8.155  14.737
39827W        W11498  28.951  18.088  10.772
39828W        W11499  13.812  20.104  11.899
39829W        W11500  27.604  10.156  10.015
39830W        W11501   5.399   9.032   0.907
39831W        W11502  20.529   9.159   1.234
39832W        W11503  18.354   3.083  12.827
39833W        W11504   8.238  35.189   1.728
39834W        W11505  13.420  21.211  10.702
39835W        W11506  14.591  27.513  12.514
39836W        W11507  33.287  14.104   4.834
39837W        W11508  34.652  24.009  13.142
39838W        W11509  28.120  25.059   0.665
39839W        W11510  35.029  14.816   1.438
39840W        W11511  39.934  44.008   3.304
39841W        W11512  39.852   2.231  11.210
39842W        W11513  34.018  11.853   2.564
39843W        W11514  19.110  14.691  10.579
39844W        W11515  21.764   2.466  12.132
39845W        W11516   2.936  15.549   0.432
39846W        W11517  24.579  25.060   1.493
39847W        W11518  44.849  36.106   0.275
39848W        W11519  23.464  11.376  11.596
39849W        W11520  12.697  32.358  11.044
39850W        W11521  37.023   8.083  14.892
39851W        W11522   3.880  12.415  10.671
39852W        W11523  43.234  29.386   3.040
39853W        W11524   6.995  15.931  12.492
39854W        W11525  12.009  42.903   4.199
39855W        W11526  29.538  10.985   0.290
39856W        W11527  28.521  19.660  14.970
39857W        W11528  40.181  32.457  10.970
39858W        W11529   0.940  36.466   1.725
39859W        W11530  17.542  14.412   0.906
39860W        W11531  27.667  41.326  11.851
39861W        W11532  11.814  15.179  12.552
39862W        W11533  15.741  37.935   0.854
39863W        W11534  18.125  41.026   4.094
39864W        W11535  41.953  37.414  11.075
39865W        W11536  21.641  33.845  11.164
39866W        W11537  43.261  14.367  12.193
39867W        W11538   6.816  18.014   3.668
39868W        W11539  34.031  44.007   1.793
39869W        W11540  14.564  41.447   4.589
39870W        W11541  17.419   6.856   1.948
39871W        W11542  24.033  15.969   1.415
39872W        W11543  35.084  16.247  13.526
39873W        W11544  30.121  41.347   0.361
39874W        W11545   8.215  20.292   2.586
39875W        W11546   8.868  17.856  12.035
39876W        W11547  41.363  12.258  11.580
39877W        W11548  33.968  33.619   1.332
39878W        W11549  11.394  19.681   0.972
39879W        W11550  30.019   9.132  14.074
39880W        W11551   7.661  21.087  11.237
39881W        W11552  10.547  35.869  11.561
39882W        W11553   0.573  34.130  13.486
39883W        W11554  15.662   5.854   0.716
39884W        W11555   8.707  17.537   0.607
39885W        W11556   0.772  41.858  14.175
39886W        W11557   8.760  25.683   2.934
39887W        W11558  44.215  32.382   1.658
39888W        W11559  19.274  15.793  11.874
39889W        W11560  21.425  21.505   0.298
39890W        W11561  31.659   7.861  13.120
39891W        W11562  23.571  27.466   4.074
39892W        W11563   5.214  16.339   2.866
39893W        W11564   5.759   2.831   2.255
39894W        W11565  13.372   8.606  10.655
39895W        W11566  15.757   5.935   2.119
39896W        W11567   8.654  12.227  12.905
39897W        W11568  33.143   8.642   2.749
39898W        W11569  18.692   6.946  14.613
39899W        W11570   6.166  37.383  12.540
39900W        W11571  37.215   6.251  12.108
39901W        W11572  23.649  18.289   3.867
39902W        W11573   4.408  18.658  12.343
39903W        W11574  40.859  41.007   3.214
39904W        W11575  18.759  26.128  13.052
39905W        W11576  25.145  16.647   3.216
39906W        W11577  32.446  42.240  11.148
39907W        W11578  20.702   7.157  10.594
39908W        W11579   7.818  36.584   0.615
39909W        W11580  28.679  39.421   2.139
39910W        W11581   2.525  10.279  14.760
39911W        W11582  10.252  31.950  14.648
39912W        W11583  44.028  26.544   4.358
39913W        W11584   2.548  17.830  12.024
39914W        W11585   1.720   2.656   2.600
39915W        W11586  28.830  16.745  10.651
39916W        W11587   9.264  43.580   3.577
39917W        W11588   4.733  10.751  11.157
39918W        W11589  14.223  43.593  13.759
39919W        W11590  35.502  39.326  14.109
39920W        W11591   7.789  27.713   0.824
39921W        W11592  44.863  28.233   0.760
39922W        W11593   5.236  34.494  11.116
39923W        W11594  32.215   3.235   1.837
39924W        W11595  35.920  32.459  13.977
39925W        W11596  21.608  36.032  12.912
39926W        W11597  33.610  10.721  11.553
39927W        W11598  30.953   9.042  13.542
39928W        W11599  11.863  28.656   2.367
39929W        W11600   6.619   5.279  14.067
39930W        W11601  24.123  38.622  12.953
39931W        W11602  29.938  36.106   4.130
39932W        W11603  39.822  10.322  13.583
39933W        W11604  10.270  14.907   0.397
39934W        W11605  33.402  23.320  14.999
39935W        W11606  34.185  20.652   4.098
39936W        W11607   7.695   5.196   2.398
39937W        W11608  30.713  31.490  14.010
39938W        W11609  23.078  22.805  13.437
39939W        W11610  37.158  30.971  14.052
39940W        W11611  26.478  20.046   0.749
39941W        W11612  41.022   3.354   0.748
39942W        W11613  25.329   8.805   0.709
39943W        W11614  15.549  15.159   3.613
39944W        W11615  23.631   6.689   0.986
39945W        W11616  14.444  29.569  14.352
39946W        W11617  39.470  44.420   0.968
39947W        W11618  21.556  17.208  11.232
39948W        W11619  32.080  34.022  12.975
39949W        W11620   8.928   8.302   0.429
39950W        W11621  25.023   7.096  11.552
39951W        W11622  44.456  16.199  10.902
39952W        W11623  23.052  37.480  13.775
39953W        W11624  39.778  39.986   2.923
39954W        W11625  34.828   4.919  10.191
39955W        W11626  18.163   1.208  11.250
39956W        W11627   4.901  26.064   0.760
39957W        W11628   7.201  36.289   2.911
39958W        W11629  44.519  42.047   2.848
39959W        W11630  35.090   9.157   1.155
39960W        W11631  42.763  21.886   0.701
39961W        W11632  40.553  27.013  12.947
39962W        W11633  34.408   6.668   3.264
39963W        W11634  35.298  42.239  14.274
39964W        W11635  37.924   9.830   2.353
39965W        W11636  35.589  11.788  10.689
39966W        W11637  39.790  20.985  11.265
39967W        W11638  32.004  16.542  11.497
39968W        W11639  44.292  13.319  13.929
39969W        W11640  32.564   5.346   3.257
39970W        W11641  32.235  24.992  14.449
39971W        W11642  44.558  33.545  10.940
39972W        W11643  44.745   7.819   3.090
39973W        W11644   8.560  32.109  10.460
39974W        W11645  28.493  44.204  11.953
39975W        W11646  37.619  26.195   2.295
39976W        W11647  40.781  16.102   4.202
39977W        W11648  31.137  33.574  14.941
39978W        W11649  11.505  24.557   0.219
39979W        W11650  42.343  20.395  11.764
39980W        W11651  27.173  15.281  14.526
39981W        W11652   6.853  39.624   2.200
39982W        W11653  12.673  32.245  13.439
39983W        W11654  20.621  26.493   2.414
39984W        W11655  31.587   9.898  11.946
39985W        W11656  26.651  15.619  13.850
39986W        W11657  12.051  37.313  11.510
39987W        W11658  23.464  41.048  14.912
39988W        W11659   2.220  36.390  12.759
39989W        W11660  19.542  14.595  12.536
39990W        W11661  37.575  35.629  12.860
39991W        W11662  23.047   4.501   3.297
39992W        W11663  35.526  30.009   4.599
39993W        W11664  20.041  27.064   4.733
39994W        W11665  25.252  24.129  12.359
39995W        W11666  15.549   0.937  11.378
39996W        W11667  38.084   6.544   3.871
39997W        W11668   1.305  14.373   1.523
39998W        W11669  35.834  19.669   4.217
39999W        W11670  44.758  42.002   2.212
40000W        W11671  30.248  29.154   3.260
40001W        W11672   7.242  30.048  14.395
40002W        W11673   7.165  37.904   1.946
40003W        W11674  38.344  11.336  10.894
40004W        W11675  14.634  21.647   4.068
40005W        W11676  31.745  18.147   1.171
40006W        W11677   4.042  39.048   3.293
40007W        W11678   5.966  39.898   3.541
40008W        W11679  23.067  30.582  14.060
40009W        W11680   4.344  27.124  12.563
40010W        W11681  31.136  13.847  11.183
40011W        W11682  32.761  13.162   4.868
40012W        W11683  15.644  39.579   3.616
40013W        W11684  18.531  10.075  12.555
40014W        W11685  16.922  10.739   1.999
40015W        W11686   8.181   2.985  14.250
40016W        W11687  32.534   1.504  14.662
40017W        W11688  28.496  38.881  12.953
40018W        W11689  34.485  22.208  10.414
40019W        W11690  34.079  37.505  11.525
40020W        W11691  14.147  39.377  13.000
40021W        W11692  17.468  19.753   0.006
40022W        W11693  44.424  20.615  10.184
40023W        W11694  16.233  44.686   2.795
40024W        W11695  30.209  26.067  13.339
40025W        W11696  21.192  20.775  14.777
40026W        W11697  17.213  20.927   0.549
40027W        W11698   7.869  30.234  11.995
40028W        W11699  20.630  22.137   1.854
40029W        W11700  30.419  31.603  13.543
40030W        W11701   0.385  23.012   4.289
40031W        W11702  35.339   5.320   4.811
40032W        W11703  43.076  44.157  12.468
40033W        W11704  22.042   3.246  13.076
40034W        W11705  26.632  20.390  10.826
40035W        W11706   0.295  34.502   0.872
40036W        W11707  44.879   2.440  14.800
40037W        W11708  23.902   0.893  14.955
40038W        W11709  21.489  29.468  12.113
40039W        W11710  17.838  12.339   0.818
40040W        W11711   0.885  22.697  11.895
40041W        W11712  15.507  10.667   2.333
40042W        W11713   8.426  23.595  14.080
40043W        W11714  14.608  27.045   0.227
40044W        W11715  15.287  15.795   0.194
40045W        W11716  14.065   3.265   2.689
40046W        W11717  37.045   0.222  11.208
40047W        W11718  41.340   2.787   1.722
40048W        W11719  38.056   4.388  12.103
40049W        W11720  16.813  12.632   3.739
40050W        W11721  38.951   4.959   0.396
40051W        W11722   0.523  37.060  12.063
40052W        W11723  14.682  26.885  11.528
40053W        W11724  36.596  15.562  11.661
40054W        W11725  22.536   7.762   2.785
40055W        W11726  33.831  33.823   3.564
40056W        W11727  36.341   1.240  13.408
40057W        W11728  39.258  24.089  10.637
40058W        W11729  12.073   8.322   4.360
40059W        W11730  31.427  24.457   3.371
40060W        W11731  15.578  39.465   0.296
40061W        W11732   1.849  16.706  10.640
40062W        W11733   7.810  23.446   2.933
40063W        W11734  40.353  18.686   4.415
40064W        W11735  16.446  20.339   0.938
40065W        W11736  34.986   7.155   4.605
40066W        W11737   9.376  18.643  10.662
40067W        W11738  10.824  12.153  14.990
40068W        W11739  43.728  33.993   3.135
40069W        W11740  29.222  38.941   3.947
40070W        W11741  21.783   9.639   3.386
40071W        W11742  20.242  42.331   1.932
40072W        W11743  23.106  30.547   4.233
40073W        W11744  13.595  23.582   3.120
40074W        W11745   4.697  20.333  10.981
40075W        W11746  11.090   8.203  14.188
40076W        W11747  16.037  15.749   0.975
40077W        W11748  27.014  10.349  13.564
40078W        W11749  31.958   1.072   0.803
40079W        W11750   7.928  29.671   1.282
40080W        W11751   6.257  30.831  12.058
40081W        W11752  42.137   5.477  12.937
40082W        W11753  43.092  34.621   3.701
40083W        W11754  20.296  34.134  14.906
40084W        W11755   3.487  32.566  11.189
40085W        W11756  15.360  17.200  13.410
40086W        W11757  17.126  35.569  12.456
40087W        W11758  22.157  37.451  10.657
40088W        W11759  14.221  41.745   2.234
40089W        W11760  37.805  23.807  12.887
40090W        W11761  11.734  37.417   3.181
40091W        W11762  10.478  28.606   4.217
40092W        W11763   8.828  25.663   4.637
40093W        W11764  12.887  13.923  11.048
40094W        W11765  19.564  42.228  12.529
40095W        W11766  34.581  44.370   1.949
40096W        W11767   9.754  44.770   0.488
40097W        W11768  21.479   6.154   2.470
40098W        W11769  13.931  24.482  12.093
40099W        W11770  38.842  23.077  12.671
40100W        W11771   4.054  37.613   3.549
40101W        W11772  19.629  27.653   1.694
40102W        W11773  10.710  14.693   0.550
40103W        W11774  35.475  22.049   0.775
40104W        W11775  20.035   6.770  10.608
40105W        W11776  24.744  24.232  13.346
40106W        W11777  32.166  37.075   4.519
40107W        W11778  37.817  23.272   1.806
40108W        W11779   8.635  17.489   3.761
40109W        W11780   0.513   8.789   1.297
40110W        W11781  38.014   8.357   2.813
40111W        W11782  28.035  15.315  12.547
40112W        W11783   1.796   3.665   4.583
40113W        W11784  36.374  14.067   4.199
40114W        W11785  10.084   2.427   2.167
40115W        W11786  29.761   9.589  13.999
40116W        W11787   7.427   1.495  11.073
40117W        W11788  11.638   2.522   3.715
40118W        W11789   7.185  30.984  10.670
40119W        W11790  32.657  22.104  11.072
40120W        W11791  42.945   4.486   4.620
40121W        W11792  42.945  38.766  14.478
40122W        W11793  23.915  38.476  10.676
40123W        W11794  36.107   1.384  12.933
40124W        W11795  19.719   5.626   3.941
40125W        W11796  41.556  21.395   1.174
40126W        W11797  33.111   0.372   4.183
40127W        W11798   5.314  23.188  12.775
40128W        W11799   8.995  43.287   0.238
40129W        W11800  11.781  40.890  10.014
40130W        W11801   7.202  38.808   1.854
40131W        W11802  43.429  17.638   3.403
40132W        W11803  11.655  42.525   0.405
40133W        W11804   4.739  41.914  13.760
40134W        W11805  35.321   4.501  12.491
40135W        W11806  42.787  36.347   4.074
40136W        W11807  31.110  37.844   1.455
40137W        W11808  25.235  25.421  13.451
40138W        W11809   0.082  30.018  13.832
40139W        W11810  11.183  37.369   9.832
40140W        W11811  35.509  10.157  11.471
40141W        W11812  32.469  20.342   3.697
40142W        W11813  14.112  33.574   4.431
40143W        W11814  10.282  23.047  12.053
40144W        W11815  12.751   0.014  11.646
40145W        W11816  42.078  39.919  12.723
40146W        W11817   9.414   0.017  12.434
40147W        W11818  11.796  15.881  14.375
40148W        W11819  11.030  15.322  11.762
40149W        W11820   4.295  37.427   0.707
40150W        W11821   5.024  15.179  14.311
40151W        W11822  34.770  43.017   1.702
40152W        W11823  15.841  26.398   2.313
40153W        W11824   2.779  18.371  13.063
40154W        W11825  20.178   5.767   3.185
40155W        W11826   6.562  33.899   0.581
40156W        W11827  20.608  24.289   0.761
40157W        W11828   7.316  39.903   4.271
40158W        W11829  12.319  14.274   0.300
40159W        W11830  22.776  24.794   1.420
40160W        W11831  20.217  34.912   2.208
40161W        W11832   5.902   1.724   4.856
40162W        W11833   8.504  40.372  11.593
40163W        W11834  11.715  43.300  11.143
40164W        W11835   0.400  15.309  13.828
40165W        W11836   9.234  42.568   2.791
40166W        W11837  33.453   1.257   0.401
40167W        W11838  10.366   7.944   3.309
40168W        W11839  21.788  42.971  14.498
40169W        W11840   1.802  44.538   4.349
40170W        W11841   0.283   6.842  12.648
40171W        W11842  42.313  41.499  13.386
40172W        W11843  16.585  20.886   1.869
40173W        W11844   9.772  11.692   4.562
40174W        W11845  23.042  33.369   0.540
40175W        W11846  43.439   7.858   0.512
40176W        W11847   1.910  18.820  14.280
40177W        W11848  20.249  12.318   0.885
40178W        W11849  38.383  43.541  12.204
40179W        W11850  11.117  26.045   3.590
40180W        W11851  39.082  38.406   2.543
40181W        W11852  24.553   8.902   1.800
40182W        W11853  33.948  40.791  10.562
40183W        W11854  20.619  39.525   5.060
40184W        W11855   5.672   2.758  13.572
40185W        W11856   0.765  35.803   0.493
40186W        W11857  15.222   5.414   3.300
40187W        W11858  16.282  21.867  14.399
40188W        W11859   4.897  21.286  10.033
40189W        W11860   2.037  32.953   4.587
40190W        W11861  40.802  36.876  12.662
40191W        W11862  12.081  15.742   1.302
40192W        W11863   0.510  31.070  11.076
40193W        W11864  10.747  43.360  12.216
40194W        W11865  10.629  29.467  11.180
40195W        W11866  22.134  12.698   1.281
40196W        W11867  33.826  42.482  14.800
40197W        W11868  34.897   0.514  12.889
40198W        W11869  22.222  38.258  13.367
40199W        W11870   2.638   3.223  14.349
40200W        W11871  16.086  39.391   3.306
40201W        W11872  32.476  21.237   0.954
40202W        W11873  18.978   3.359   3.119
40203W        W11874  10.599  40.222   2.203
40204W        W11875   2.249  36.912  12.641
40205W        W11876   3.366   1.271   3.286
40206W        W11877  35.865  37.857   3.718
40207W        W11878  26.034  35.136  12.956
40208W        W11879  23.704  21.618  12.218
40209W        W11880  20.208  15.762   2.245
40210W        W11881  22.105   3.458   4.290
40211W        W11882  29.676   5.748   1.278
40212W        W11883  22.189   3.491  13.506
40213W        W11884  17.573   6.145  13.532
40214W        W11885  21.652  23.142   4.697
40215W        W11886  36.079  43.531   4.510
40216W        W11887   3.922  23.545   0.369
40217W        W11888  30.017  30.475   1.757
40218W        W11889  26.254  22.596  14.950
40219W        W11890  32.122  36.367   0.751
40220W        W11891  41.924  28.275   1.353
40221W        W11892  13.326  18.133   0.054
40222W        W11893   7.386  40.856  10.741
40223W        W11894  16.942   5.944  10.259
40224W        W11895  19.237  37.980  12.020
40225W        W11896  41.294  35.598  14.508
40226W        W11897  11.006  25.116   3.193
40227W        W11898  27.422  12.173   4.080
40228W        W11899   2.955   6.618  14.299
40229W        W11900   2.753  10.916  11.142
40230W        W11901  40.897  27.402  12.953
40231W        W11902   5.912  20.291   1.270
40232W        W11903  38.810   7.477  11.452
40233W        W11904  33.784   4.914   1.376
40234W        W11905  24.997  14.094   1.204
40235W        W11906  42.539  10.405  10.840
40236W        W11907  12.699  17.902   5.003
40237W        W11908  33.938  12.403   1.768
40238W        W11909  28.271  20.766   0.077
40239W        W11910  31.999   6.579  13.157
40240W        W11911  42.293  16.813  13.363
40241W        W11912  38.921  42.063  12.558
40242W        W11913  27.017  15.292   2.340
40243W        W11914   6.342  27.696  13.483
40244W        W11915  26.217  19.244   4.081
40245W        W11916  34.566   8.287   1.249
40246W        W11917   4.894  30.376   3.235
40247W        W11918  36.997  26.642  14.298
40248W        W11919  44.068  14.258   0.319
40249W        W11920  38.569  36.986   0.857
40250W        W11921  21.684  19.537  13.055
40251W        W11922  17.142  16.852   2.468
40252W        W11923  15.069  30.033  12.251
40253W        W11924   6.161   9.428   4.565
40254W        W11925   9.201  32.225   2.230
40255W        W11926  36.329  30.891  14.241
40256W        W11927   0.978   1.971  13.979
40257W        W11928  39.541  24.173   2.181
40258W        W11929  33.160   6.386  11.621
40259W        W11930  16.286  39.856   0.357
40260W        W11931  28.169  24.064   0.902
40261W        W11932  28.441  12.389  11.568
40262W        W11933  21.686  23.407  13.082
40263W        W11934  34.626  28.159  10.474
40264W        W11935  31.423  35.646  14.372
40265W        W11936   8.202  15.643   3.243
40266W        W11937  16.630  14.996   1.301
40267W        W11938  32.574  30.340  13.559
40268W        W11939  38.531  14.645   0.841
40269W        W11940  35.533  13.055  11.125
40270W        W11941  42.293  21.862  10.223
40271W        W11942  14.537  21.778   2.372
40272W        W11943   6.514  30.155   4.158
40273W        W11944  10.336  27.944   2.417
40274W        W11945  16.248   9.296  13.808
40275W        W11946  18.580  42.020  12.151
40276W        W11947  30.349  27.635   0.263
40277W        W11948   9.182  35.884   3.241
40278W        W11949  37.899  31.686   4.702
40279W        W11950  30.436  43.669  13.071
40280W        W11951  21.200   9.358  12.820
40281W        W11952  25.103  42.333   3.151
40282W        W11953  21.600   4.808  14.351
40283W        W11954  12.686  24.848  11.177
40284W        W11955  44.947  15.762   3.298
40285W        W11956   9.506   5.758   2.863
40286W        W11957  30.452  38.315   0.760
40287W        W11958  29.487  21.438   4.997
40288W        W11959   9.888  15.639  11.150
40289W        W11960  23.443  43.613   2.547
40290W        W11961  24.201  19.669  12.906
40291W        W11962  29.286  24.145  14.721
40292W        W11963  26.624  28.773   1.359
40293W        W11964  14.717   2.698   2.079
40294W        W11965  26.617  23.173  13.801
40295W        W11966  39.679  26.130  10.937
40296W        W11967  37.258   7.948  13.543
40297W        W11968  43.991  11.900   3.778
40298W        W11969  12.564  38.439  14.529
40299W        W11970  28.902  14.989  11.087
40300W        W11971  20.705  20.257   4.161
40301W        W11972  12.799   2.276   3.159
40302W        W11973  15.837  26.546  10.101
40303W        W11974   6.685  12.923   3.285
40304W        W11975  32.736  32.584   0.668
40305W        W11976   1.780  16.123   3.668
40306W        W11977  38.886  13.606  11.330
40307W        W11978  19.530  30.603  12.114
40308W        W11979   8.124  30.996  14.471
40309W        W11980  19.128  10.093  14.613
40310W        W11981  41.047  14.170   0.580
40311W        W11982  21.794  34.439  12.533
40312W        W11983  10.204  10.048  13.421
40313W        W11984  37.893  41.804  14.864
40314W        W11985  19.884   7.749   1.222
40315W        W11986  30.429  36.973  12.068
40316W        W11987  36.528  27.213   1.479
40317W        W11988  12.276  35.518  13.828
40318W        W11989   4.258  17.203  11.206
40319W        W11990  19.268  29.625  13.871
40320W        W11991  13.465  36.483   3.053
40321W        W11992  32.741  33.375   4.315
40322W        W11993  12.864  20.742   1.214
40323W        W11994   6.774  12.611  13.516
40324W        W11995  42.579  39.875  12.574
40325W        W11996  23.481  13.685   1.924
40326W        W11997  36.708  12.329   0.245
40327W        W11998  21.658   6.714  13.419
40328W        W11999  31.422  34.986  12.544
40329W        W12000  30.920  25.488  13.285
40330W        W12001  16.955  23.661   3.383
40331W        W12002  27.345  13.648  12.491
40332W        W12003  37.379   0.829  10.749
40333W        W12004  43.327   0.547   0.289
40334W        W12005  22.211  34.599  11.217
40335W        W12006  22.114  43.235   1.002
40336W        W12007  41.196  42.987  13.908
40337W        W12008  13.309  25.136  13.575
40338W        W12009   0.237  14.682   2.203
40339W        W12010   4.578   2.849   3.890
40340W        W12011  26.623   6.684  12.844
40341W        W12012  44.255   3.413  14.541
40342W        W12013  34.642  43.756  14.010
40343W        W12014  41.373  24.376  11.544
40344W        W12015  22.109  34.355   1.600
40345W        W12016  13.587  26.566  13.452
40346W        W12017  12.750  10.441  11.620
40347W        W12018  13.544  14.673   1.828
40348W        W12019   3.226   6.923  11.877
40349W        W12020  30.607   0.697   1.921
40350W        W12021  29.552  31.537   3.984
40351W        W12022  30.811  16.316   4.510
40352W        W12023   0.718  32.906  12.341
40353W        W12024  12.247   6.664  13.414
40354W        W12025   3.848  16.344  13.252
40355W        W12026  42.955   2.770  11.240
40356W        W12027  26.622  42.085  14.461
40357W        W12028   4.406   5.263   4.127
40358W        W12029  43.314  11.586   4.302
40359W        W12030  16.265  23.183  13.384
40360W        W12031  37.964   0.777  14.409
40361W        W12032  43.887  43.515  14.754
40362W        W12033  26.439  15.900  13.423
40363W        W12034   9.669  42.467   3.610
40364W        W12035   9.119   0.146  11.059
40365W        W12036   2.888  31.150   3.229
40366W        W12037   5.900   9.126   1.836
40367W        W12038  35.982  31.364   0.497
40368W        W12039  16.805   4.906   2.000
40369W        W12040  43.589   1.458   0.542
40370W        W12041  40.221  32.062   2.765
40371W        W12042  17.708   8.999   0.919
40372W        W12043  40.824  40.817  10.862
40373W        W12044  34.502  37.154  14.532
40374W        W12045  42.010  36.271  10.202
40375W        W12046  36.107  13.391  11.041
40376W        W12047  23.947  38.719  13.444
40377W        W12048  37.342   7.962   1.283
40378W        W12049  38.914  12.290   0.398
40379W        W12050   9.748   1.011  12.944
40380W        W12051  31.113  40.882   1.484
40381W        W12052  26.297  42.580  11.170
40382W        W12053  20.651  28.023  11.077
40383W        W12054  33.444  34.431   4.058
40384W        W12055  18.325   9.489   3.795
40385W        W12056   3.701  34.589   1.206
40386W        W12057  30.183  40.503   1.913
40387W        W12058  15.091  27.562  14.246
40388W        W12059   2.107  22.042   2.141
40389W        W12060  36.887   6.410   3.259
40390W        W12061  13.033   2.237  13.961
40391W        W12062  32.827  41.410   3.560
40392W        W12063  18.966  24.704  10.695
40393W        W12064  29.091   2.758  12.893
40394W        W12065  37.287  39.730  14.337
40395W        W12066  17.196  20.803  14.546
40396W        W12067  41.541  10.257   3.102
40397W        W12068  25.167  25.657  12.421
40398W        W12069  11.058  34.443   1.277
40399W        W12070  10.372  11.697  12.694
40400W        W12071  16.254  20.433   4.245
40401W        W12072  16.627  43.575   1.829
40402W        W12073  20.451   7.078  14.485
40403W        W12074  40.462  15.721  13.947
40404W        W12075  17.239  31.352  11.612
40405W        W12076  29.022  17.344  14.875
40406W        W12077   2.492  11.809  11.563
40407W        W12078  24.155   5.313  11.072
40408W        W12079  44.702   0.902   2.849
40409W        W12080  26.629  30.716   4.920
40410W        W12081  37.588  25.633   3.505
40411W        W12082   2.990  36.915   4.065
40412W        W12083  10.326  11.665   0.958
40413W        W12084  16.315   2.740   0.817
40414W        W12085  17.599  24.622  14.744
40415W        W12086   7.700  37.578   3.834
40416W        W12087  29.519  27.852   3.571
40417W        W12088  27.167  26.473   4.817
40418W        W12089  43.258  29.996  10.695
40419W        W12090  39.721  32.640  12.187
40420W        W12091  44.758  44.277  14.497
40421W        W12092  34.036  21.144  12.139
40422W        W12093   2.277  10.632   3.101
40423W        W12094  15.399   8.295   2.638
40424W        W12095  20.372   1.403   1.509
40425W        W12096  25.840  32.584  13.324
40426W        W12097  35.953  31.630  10.818
40427W        W12098   9.141   0.554   1.382
40428W        W12099  42.359  42.463  11.218
40429W        W12100  23.083   6.435  14.382
40430W        W12101  44.022  14.168  10.014
40431W        W12102  18.620   2.374   2.270
40432W        W12103  17.864  25.604  11.565
40433W        W12104  31.052  22.852   0.758
40434W        W12105  31.075  28.604   3.614
40435W        W12106  14.807  44.019   3.348
40436W        W12107  42.946   4.975   2.324
40437W        W12108  13.398  10.606   3.451
40438W        W12109  31.998   5.235  12.524
40439W        W12110  27.209  40.062  12.097
40440W        W12111  17.822  11.788  12.462
40441W        W12112  16.188  42.331   2.680
40442W        W12113  34.116   3.368  10.715
40443W        W12114  10.409  40.269   4.543
40444W        W12115  28.234  32.767   3.703
40445W        W12116  15.765  30.641   0.652
40446W        W12117  29.586   9.575  11.084
40447W        W12118   7.092   5.443   1.133
40448W        W12119   8.343  11.791  12.922
40449W        W12120  36.825  11.797   4.709
40450W        W12121  29.237   8.869  12.341
40451W        W12122  42.153  38.393   1.046
40452W        W12123  18.743  27.886   3.246
40453W        W12124  33.366  27.244   1.777
40454W        W12125  28.641  18.744   2.430
40455W        W12126  12.940   4.795   2.685
40456W        W12127  18.373  38.415   1.413
40457W        W12128  33.647  13.330  12.336
40458W        W12129  34.922  24.554   3.411
40459W        W12130  44.887  42.094  12.957
40460W        W12131   4.877   4.666   5.013
40461W        W12132   5.342  43.252   1.267
40462W        W12133  21.154  41.601   2.861
40463W        W12134  13.904  37.892   4.564
40464W        W12135   5.637   4.916   2.871
40465W        W12136   4.069  35.566  14.762
40466W        W12137  14.556  19.349   4.752
40467W        W12138   3.376  17.153  14.677
40468W        W12139  43.702   7.399   0.908
40469W        W12140   7.649  44.997   2.745
40470W        W12141  15.063  15.257  12.702
40471W        W12142  30.241  25.260  12.802
40472W        W12143  38.007  40.741  14.828
40473W        W12144  33.433  43.282  13.065
40474W        W12145  11.314  44.018  10.722
40475W        W12146  40.250  12.414   0.815
40476W        W12147  39.426   4.759  11.188
40477W        W12148  11.386   8.200  12.866
40478W        W12149  25.313  34.442  14.332
40479W        W12150   9.880  32.244  12.418
40480W        W12151  27.426   9.747   0.846
40481W        W12152   8.306  20.507  13.991
40482W        W12153  18.313  14.854   4.620
40483W        W12154  25.634   8.927   1.115
40484W        W12155  35.459  40.846  12.920
40485W        W12156  10.816  29.526  14.736
40486W        W12157  22.906  36.553  13.915
40487W        W12158   3.944  14.816  14.289
40488W        W12159   2.530   0.526  10.587
40489W        W12160  10.638  37.119   2.465
40490W        W12161  17.247  44.366   1.872
40491W        W12162  18.265  37.437   0.375
40492W        W12163  10.781  10.698  13.789
40493W        W12164  37.335  13.643  12.330
40494W        W12165  42.855  15.432   0.066
40495W        W12166   2.431   2.046  11.895
40496W        W12167   7.427  17.440   0.831
40497W        W12168  18.287  15.136  10.610
40498W        W12169  35.451  15.577   2.398
40499W        W12170   0.072   6.928   3.509
40500W        W12171  44.355   8.434  11.576
40501W        W12172  11.606  18.119  14.580
40502W        W12173  44.693  28.494  12.260
40503W        W12174  41.374   3.394  11.172
40504W        W12175  11.691  29.278   0.389
40505W        W12176  36.124  24.136  10.645
40506W        W12177  34.343   5.929  12.887
40507W        W12178  24.586   5.259   2.785
40508W        W12179  39.611  20.079  13.294
40509W        W12180  37.596  26.503   0.835
40510W        W12181  42.544  11.690  13.172
40511W        W12182  15.552  15.107  11.593
40512W        W12183  44.948   3.338   0.361
40513W        W12184   0.876   9.451   0.397
40514W        W12185   8.149  30.162  11.567
40515W        W12186   5.140  26.473  14.437
40516W        W12187  15.141  33.600   3.940
40517W        W12188  20.107   5.279   4.558
40518W        W12189   2.826   2.754  13.271
40519W        W12190  37.530  29.042  14.456
40520W        W12191  34.553  42.532   1.825
40521W        W12192   3.430  23.096  10.751
40522W        W12193   4.175  35.044  14.822
40523W        W12194  27.510  31.985   3.823
40524W        W12195  43.470  31.618   4.585
40525W        W12196   2.052  37.227   1.467
40526W        W12197   1.717  22.436   1.474
40527W        W12198   9.277  25.236   3.559
40528W        W12199  15.298  20.826   3.172
40529W        W12200   6.620   7.462  13.767
40530W        W12201   0.957  42.065  12.907
40531W        W12202  26.976  26.109   4.529
40532W        W12203   4.700  27.415   0.620
40533W        W12204  28.445  30.934   2.723
40534W        W12205  13.170  14.977   3.586
40535W        W12206  15.683   7.672   1.943
40536W        W12207  44.219  20.093   1.293
40537W        W12208  12.789  17.678  10.848
40538W        W12209  26.600   9.218  12.178
40539W        W12210  22.225   9.396   3.349
40540W        W12211  42.884  30.629   2.927
40541W        W12212  11.590  14.993   0.218
40542W        W12213  11.537  11.800  13.891
40543W        W12214  32.539   4.863   3.092
40544W        W12215  25.585   4.178   3.545
40545W        W12216  19.411  41.025   0.286
40546W        W12217  13.846  38.541  14.028
40547W        W12218  38.113  31.951  11.601
40548W        W12219  43.986  28.528   3.634
40549W        W12220   5.124  15.640  14.900
40550W        W12221  44.204  21.159   2.180
40551W        W12222  14.741  36.789   3.161
40552W        W12223  34.588  32.576   3.699
40553W        W12224   5.381   2.636   0.307
40554W        W12225  15.858  43.956   0.392
40555W        W12226  27.136  41.405  13.931
40556W        W12227  33.564  18.698  10.714
40557W        W12228   1.660  29.355   2.615
40558W        W12229  27.239   2.824  11.103
40559W        W12230  11.651   8.427   3.606
40560W        W12231   2.742   0.752   0.224
40561W        W12232  26.203   0.495   4.978
40562W        W12233  24.252  27.714  12.879
40563W        W12234  29.540   2.151   4.081
40564W        W12235  21.647  20.514  10.555
40565W        W12236  42.049  41.503   1.221
40566W        W12237   6.698   1.930   0.023
40567W        W12238   2.749   8.517   2.319
40568W        W12239   7.790  44.308  10.188
40569W        W12240  19.237   7.350   3.663
40570W        W12241   0.384  40.003   2.914
40571W        W12242  27.280  12.655   4.151
40572W        W12243  33.504  27.948   3.600
40573W        W12244  31.360  17.767   0.303
40574W        W12245  14.049  36.617   2.423
40575W        W12246  38.843   9.317   0.458
40576W        W12247   4.355  39.106  14.390
40577W        W12248   5.491  33.185   4.800
40578W        W12249   4.205  43.996  13.238
40579W        W12250  24.053  16.219   4.024
40580W        W12251  27.947   6.455  13.357
40581W        W12252   6.205   7.908  10.566
40582W        W12253  26.957  44.202  10.505
40583W        W12254  25.476  40.302  10.350
40584W        W12255  13.251  43.793   3.300
40585W        W12256   8.703  25.262  14.246
40586W        W12257  14.034  36.843  12.069
40587W        W12258  34.323  16.248   4.621
40588W        W12259  40.678  14.486  13.625
40589W        W12260  21.679   2.362   3.346
40590W        W12261   6.670   6.151   3.769
40591W        W12262   9.843  43.998  10.454
40592W        W12263  24.577  17.708   0.033
40593W        W12264   9.679  43.892  13.087
40594W        W12265  17.098  22.810   4.025
40595W        W12266   5.233  37.237   3.774
40596W        W12267  39.828  28.193  13.071
40597W        W12268  17.655  40.477  13.761
40598W        W12269  27.554  39.062   2.815
40599W        W12270   7.739  39.289  14.327
40600W        W12271   5.000  35.012  14.371
40601W        W12272  44.247   7.739   3.258
40602W        W12273  20.489   2.005  10.768
40603W        W12274  10.851   7.158  11.032
40604W        W12275   2.865   5.190  11.241
40605W        W12276  31.753  36.633  14.396
40606W        W12277  41.233  10.667  13.960
40607W        W12278  12.895  29.508   3.241
40608W        W12279   2.124  29.228  11.167
40609W        W12280  16.012  44.234   2.767
40610W        W12281  24.050  37.229   2.276
40611W        W12282  19.445  34.897   4.062
40612W        W12283  35.694  20.553   0.098
40613W        W12284  26.979  26.510  11.818
40614W        W12285  17.843  34.919  13.408
40615W        W12286  31.216   7.946   2.204
40616W        W12287  30.565  26.991  14.473
40617W        W12288   7.265  22.992  12.061
40618W        W12289  40.512  24.431   3.917
40619W        W12290  18.143  30.455   4.765
40620W        W12291  38.748  15.455  11.953
40621W        W12292   5.947  19.100   1.308
40622W        W12293  37.931   6.759  13.856
40623W        W12294   4.765  41.418   2.831
40624W        W12295   0.733  43.996  12.983
40625W        W12296  43.941   8.123   4.538
40626W        W12297   5.743   8.974   0.470
40627W        W12298   9.177  22.582   0.875
40628W        W12299  32.915   8.668   1.344
40629W        W12300  20.714  25.236   1.819
40630W        W12301   6.211  34.610  12.084
40631W        W12302  15.608  24.220   4.667
40632W        W12303  23.451  31.172  10.634
40633W        W12304  19.032  33.821  13.023
40634W        W12305   2.279  16.448  10.801
40635W        W12306  44.951  40.907   4.997
40636W        W12307  11.514  44.663  13.177
40637W        W12308  10.420  22.857   3.415
40638W        W12309  41.306  21.186   3.236
40639W        W12310  33.517  25.325   3.704
40640W        W12311   4.667  44.328  14.954
40641W        W12312  42.795  27.630  10.792
40642W        W12313  20.896   4.869   4.638
40643W        W12314  21.125   5.847  14.143
40644W        W12315  24.329  16.853   0.371
40645W        W12316   3.206  15.296   3.189
40646W        W12317  43.584  18.564  14.922
40647W        W12318   5.427  41.417  13.548
40648W        W12319  27.875   5.412  14.915
40649W        W12320  37.001   1.440  11.184
40650W        W12321  33.594   3.178   1.692
40651W        W12322  43.802  35.682   3.238
40652W        W12323  33.391  35.527   4.636
40653W        W12324  38.136  44.936  13.775
40654W        W12325  18.005  33.495   2.734
40655W        W12326  21.885   5.857   0.382
40656W        W12327  26.690  27.910   0.292
40657W        W12328  19.996  33.614   1.339
40658W        W12329  42.280  41.056   4.099
40659W        W12330  34.448  24.249  14.354
40660W        W12331  41.006  41.894  12.483
40661W        W12332  32.554  41.993  13.824
40662W        W12333  32.020  35.937  10.697
40663W        W12334  40.341  11.779  14.803
40664W        W12335  36.235  21.167   1.955
40665W        W12336  24.046   6.768   3.826
40666W        W12337   6.271  36.501   1.993
40667W        W12338  23.523  28.613   4.479
40668W        W12339  24.799  19.587  12.092
40669W        W12340  35.479  32.924   4.294
40670W        W12341  15.791  34.284   2.851
40671W        W12342  27.548   6.991  13.329
40672W        W12343  22.140  11.835   3.247
40673W        W12344  17.255   8.722   2.426
40674W        W12345   6.181  17.271   1.382
40675W        W12346  34.931  22.219   1.001
40676W        W12347   3.905  34.505  13.053
40677W        W12348  11.865  33.546   3.707
40678W        W12349  10.029  40.993  12.544
40679W        W12350  36.365  18.594  14.779
40680W        W12351  28.958  18.365  14.760
40681W        W12352  44.967  17.047  13.945
40682W        W12353  38.910  26.948   1.213
40683W        W12354  26.468   1.996  12.956
40684W        W12355  13.042  14.832   0.395
40685W        W12356  23.504   2.119  12.333
40686W        W12357   9.484   4.942  13.941
40687W        W12358  21.014   6.977   1.236
40688W        W12359  14.504  37.438  13.545
40689W        W12360  22.479  24.986   0.911
40690W        W12361  10.289  38.181  11.461
40691W        W12362   1.798  33.901  10.592
40692W        W12363  38.355  13.366  11.997
40693W        W12364  32.937  20.292  12.888
40694W        W12365  39.315  15.533   2.360
40695W        W12366  25.724  37.172  11.467
40696W        W12367  20.377  29.613   2.662
40697W        W12368  40.066  17.957   3.389
40698W        W12369  38.452  29.017   1.704
40699W        W12370  38.054  38.202  12.856
40700W        W12371   0.394  28.928   0.966
40701W        W12372  13.683   8.748   2.702
40702W        W12373  27.984  21.095  12.895
40703W        W12374  31.338  16.121   2.283
40704W        W12375  37.784  28.375  10.886
40705W        W12376  22.493  33.473  14.739
40706W        W12377  42.881  36.281   1.084
40707W        W12378  41.403  19.029  14.522
40708W        W12379  36.847  44.033   0.485
40709W        W12380  29.696  23.965   4.485
40710W        W12381   8.374  34.164   4.768
40711W        W12382  14.150  37.133   1.315
40712W        W12383  11.631  23.044   1.001
40713W        W12384  41.788  28.456   2.500
40714W        W12385  38.929  31.713  10.221
40715W        W12386  18.574   9.306  14.220
40716W        W12387  17.694  33.451  10.671
40717W        W12388  24.998   3.407  14.385
40718W        W12389  41.770  44.411  12.729
40719W        W12390   7.705  17.912   5.160
40720W        W12391  21.303  39.411   0.239
40721W        W12392  44.704  25.596  14.360
40722W        W12393  37.526  19.551   2.224
40723W        W12394  43.093  36.705  14.448
40724W        W12395  10.198  15.400   0.337
40725W        W12396  41.793  32.650  10.913
40726W        W12397   4.338  10.582   3.253
40727W        W12398  43.959   3.183  11.575
40728W        W12399   7.780   9.220   0.746
40729W        W12400   9.713  29.355   4.140
40730W        W12401  39.225  21.261   9.954
40731W        W12402  12.136  29.518   3.595
40732W        W12403  21.107  30.036   4.087
40733W        W12404   4.137  43.493  13.454
40734W        W12405  11.720  26.240   3.206
40735W        W12406  33.577   3.450  11.840
40736W        W12407  18.251  10.811  10.692
40737W        W12408  43.936  39.454  10.165
40738W        W12409   4.608  20.995   3.662
40739W        W12410  10.896   0.913  12.820
40740W        W12411   6.227  35.565   0.991
40741W        W12412  42.270   5.271  13.840
40742W        W12413  27.066   2.957  10.647
40743W        W12414   2.524  37.845  11.615
40744W        W12415  32.897  26.940   0.376
40745W        W12416  43.997  20.041   3.411
40746W        W12417   7.575  10.310  11.212
40747W        W12418  23.752  34.458   2.875
40748W        W12419  23.171  26.671   2.498
40749W        W12420  19.246   9.318   2.871
40750W        W12421  25.546  30.423  14.879
40751W        W12422  39.502  33.418  11.160
40752W        W12423  16.184  11.675   2.387
40753W        W12424  13.616  26.488   3.247
40754W        W12425  37.039  32.155  11.031
40755W        W12426  38.899  15.147  12.652
40756W        W12427  33.174  39.838  13.618
40757W        W12428  20.205  14.549   5.644
40758W        W12429  31.473  17.486  13.366
40759W        W12430  33.374  40.451  12.556
40760W        W12431  42.449  37.584  13.415
40761W        W12432  22.918  42.299  14.776
40762W        W12433   9.332   8.817   4.526
40763W        W12434  16.767   5.167   3.656
40764W        W12435  11.416  28.077   1.225
40765W        W12436  22.487  13.069  12.469
40766W        W12437  21.757  42.533   1.879
40767W        W12438  36.027  20.004  10.978
40768W        W12439  42.108  24.753   4.260
40769W        W12440  18.280  27.165  13.889
40770W        W12441  12.339   0.463  14.331
40771W        W12442  32.421  34.920  13.755
40772W        W12443   5.073  40.832   3.510
40773W        W12444   6.221  31.838  12.107
40774W        W12445  19.131  15.380  14.921
40775W        W12446  36.858  38.054  12.666
40776W        W12447  30.538  19.321  14.924
40777W        W12448  41.928  22.090   5.109
40778W        W12449   8.801  10.146   0.824
40779W        W12450   5.904  43.944  10.899
40780W        W12451  19.199  20.711   2.287
40781W        W12452  30.641  27.713  12.915
40782W        W12453   7.423  10.842  11.076
40783W        W12454  17.634  33.496   2.235
40784W        W12455  20.622  33.547  11.595
40785W        W12456  36.732  37.132  14.746
40786W        W12457   9.587  26.018  11.901
40787W        W12458  37.509  16.602   5.056
40788W        W12459  36.104  12.166  12.075
40789W        W12460   7.363  41.761  12.941
40790W        W12461   8.559   7.133  14.023
40791W        W12462  35.513  19.947  10.883
40792W        W12463  38.046  20.971   1.255
40793W        W12464  22.595  25.159   4.358
40794W        W12465  25.417   5.104  14.822
40795W        W12466  26.166  41.136   2.045
40796W        W12467   0.317  15.219   0.273
40797W        W12468  40.794   5.198  12.197
40798W        W12469   0.246  22.245   3.770
40799W        W12470  19.150  12.630   1.750
40800W        W12471  15.870  14.849   3.301
40801W        W12472   8.050   4.250  13.582
40802W        W12473  25.430  39.472  13.389
40803W        W12474  19.818  12.851   4.069
40804W        W12475  35.415  27.692  10.623
40805W        W12476   4.761   7.224   2.721
40806W        W12477  18.649   8.764  12.401
40807W        W12478  24.118  27.273  13.929
40808W        W12479  20.173  28.160   5.014
40809W        W12480  24.611  14.642  13.171
40810W        W12481  26.486  44.925   2.383
40811W        W12482  11.812   7.083   3.249
40812W        W12483  11.699   3.892   3.179
40813W        W12484  38.976   8.210  12.520
40814W        W12485  28.767   4.658  12.954
40815W        W12486  18.591   1.967  11.717
40816W        W12487  21.385  26.452  11.666
40817W        W12488   3.998  38.761  13.370
40818W        W12489  32.999  24.737  14.911
40819W        W12490  43.309  29.444   0.253
40820W        W12491  13.266   1.012   4.693
40821W        W12492  25.316  41.063  10.733
40822W        W12493  27.087  32.413   2.193
40823W        W12494  21.082  17.189   4.676
40824W        W12495  26.738  11.311  14.532
40825W        W12496   9.292  27.130  14.428
40826W        W12497  26.639  20.266   4.537
40827W        W12498  32.398  16.655   1.836
40828W        W12499  17.871  20.932   3.153
40829W        W12500  30.949   5.260  12.547
40830W        W12501  40.018  34.046   3.644
40831W        W12502  28.434  29.657  11.002
40832W        W12503  25.225  14.231   2.185
40833W        W12504  35.030   2.066  12.201
40834W        W12505   6.688  12.148   1.599
40835W        W12506   7.259  44.790   1.692
40836W        W12507  11.644   2.668   1.831
40837W        W12508   4.065  38.987   2.321
40838W        W12509   5.022  35.237  12.923
40839W        W12510   1.122  36.540  14.840
40840W        W12511  26.878   9.186   1.316
40841W        W12512  39.465   3.010   3.339
40842W        W12513  30.448  13.088  11.168
40843W        W12514  24.020  43.808   0.711
40844W        W12515   7.818  12.128  12.886
40845W        W12516   6.374  39.656   3.309
40846W        W12517  42.799   8.122  12.360
40847W        W12518  21.695  24.221  11.534
40848W        W12519  17.742   5.204   5.045
40849W        W12520  43.228  42.318  14.549
40850W        W12521  29.070  41.208  14.062
40851W        W12522   0.990  13.602  11.551
40852W        W12523   0.969  13.111   1.905
40853W        W12524  35.032  17.688  12.950
40854W        W12525  19.979  25.901   0.331
40855W        W12526  27.373  16.140  12.947
40856W        W12527  26.199  12.594  12.974
40857W        W12528  11.880  22.689  12.607
40858W        W12529  35.127   5.701  10.762
40859W        W12530   7.155   5.693  13.302
40860W        W12531  21.876  39.452  11.455
40861W        W12532  31.137  15.428   4.145
40862W        W12533  29.892  13.317   4.571
40863W        W12534  25.169  22.435  13.274
40864W        W12535  15.128   9.164  14.261
40865W        W12536  28.579  44.559   3.377
40866W        W12537  26.714  39.327   1.727
40867W        W12538  29.838   2.747  12.438
40868W        W12539  27.036  14.424   2.756
40869W        W12540  29.251   4.276   1.319
40870W        W12541  44.006  39.775   0.217
40871W        W12542   4.376   3.830  12.816
40872W        W12543  12.219   8.786  11.833
40873W        W12544  20.551  36.342   4.399
40874W        W12545  41.588   5.690  11.267
40875W        W12546  25.340  40.902  13.266
40876W        W12547  22.772  15.500   4.056
40877W        W12548  17.803   5.238   0.090
40878W        W12549  31.384   2.200  10.614
40879W        W12550  16.709   1.401  11.691
40880W        W12551  20.515  30.472   0.424
40881W        W12552  31.967   9.957   1.377
40882W        W12553  15.872  42.511  13.228
40883W        W12554   8.137  37.103   0.009
40884W        W12555  10.353  26.099  10.724
40885W        W12556   9.618   9.224   1.679
40886W        W12557  25.435  30.788   3.267
40887W        W12558  31.815  32.950  10.751
40888W        W12559   4.424   1.498  11.876
40889W        W12560  38.971  35.124  13.620
40890W        W12561  22.573  41.981  13.936
40891W        W12562  40.902   8.848   3.072
40892W        W12563   4.030  21.681  13.468
40893W        W12564   2.607   7.809  11.423
40894W        W12565  22.112  40.794  13.539
40895W        W12566  31.083   8.304   0.196
40896W        W12567  36.835   9.015  14.058
40897W        W12568  11.426  20.114  12.070
40898W        W12569  40.676  43.348  14.401
40899W        W12570  33.104  22.630  10.981
40900W        W12571  31.383  35.835  11.470
40901W        W12572  39.267   6.148   2.905
40902W        W12573  14.806   6.665   3.251
40903W        W12574   3.684  22.503  11.164
40904W        W12575  35.511  17.584  12.838
40905W        W12576  43.765  24.207  12.361
40906W        W12577  41.105   1.551  10.393
40907W        W12578  20.248  17.866   0.847
40908W        W12579  27.544  19.674   1.418
40909W        W12580   5.956  31.059   4.623
40910W        W12581  38.805   6.947  12.676
40911W        W12582  37.779  15.309   3.021
40912W        W12583   4.353  21.478  11.154
40913W        W12584   4.613  12.361  11.117
40914W        W12585  10.689  27.488  13.588
40915W        W12586  19.321  12.064   4.343
40916W        W12587  32.882  41.072  11.966
40917W        W12588  43.608  17.863  12.035
40918W        W12589   1.391   3.592  12.873
40919W        W12590   3.962  36.392   1.452
40920W        W12591  14.875  34.356  10.828
40921W        W12592  23.130   1.771  11.136
40922W        W12593  34.188   8.829   3.910
40923W        W12594  15.279   5.730   3.889
40924W        W12595  43.274   8.847  11.932
40925W        W12596   6.861   5.233  14.516
40926W        W12597  17.882  20.177  14.830
40927W        W12598   4.169  41.933   1.951
40928W        W12599  23.770   3.267  14.810
40929W        W12600  39.370  25.220  12.006
40930W        W12601   0.067   1.005  13.912
40931W        W12602  10.751   6.620  14.446
40932W        W12603   4.002   3.805  10.610
40933W        W12604  39.981  19.898   4.146
40934W        W12605   0.290  33.587  14.517
40935W        W12606  38.330  10.313   1.223
40936W        W12607   6.865  11.528   1.896
40937W        W12608  34.947  31.469   0.297
40938W        W12609   5.485  28.498  12.181
40939W        W12610  36.514  40.789   3.832
40940W        W12611  22.537   0.177  14.500
40941W        W12612  31.192  30.768  12.415
40942W        W12613  13.877  40.412  12.178
40943W        W12614  17.753  10.325  13.509
40944W        W12615  15.103   5.172  10.416
40945W        W12616  23.504   7.517   1.835
40946W        W12617  36.061  20.030   1.418
40947W        W12618  13.312  25.137  14.089
40948W        W12619  10.832  40.626   4.587
40949W        W12620  14.189  10.164   1.216
40950W        W12621   6.168   4.315  14.869
40951W        W12622  36.905  28.702   0.202
40952W        W12623  32.325  37.428  10.040
40953W        W12624  38.573  44.254   4.158
40954W        W12625  31.447  31.155   4.383
40955W        W12626  43.137   2.526   4.133
40956W        W12627  16.045  24.696   2.772
40957W        W12628   3.173  16.233  11.116
40958W        W12629  32.053  32.543  12.979
40959W        W12630  43.393   8.633  13.575
40960W        W12631  11.731  33.004  10.709
40961W        W12632  12.236  18.027   0.388
40962W        W12633  18.194   2.114   3.796
40963W        W12634  44.300  44.450  10.672
40964W        W12635  16.744   7.864  12.171
40965W        W12636  37.466  32.630   3.308
40966W        W12637  17.834  36.552  12.507
40967W        W12638  14.628  22.509   0.807
40968W        W12639  20.293  39.136   4.669
40969W        W12640  35.626  30.340   0.916
40970W        W12641   2.959   7.410  11.979
40971W        W12642  17.554  23.166   1.770
40972W        W12643  14.103  17.524  11.352
40973W        W12644   7.684  13.149  10.417
40974W        W12645   5.186  26.560   0.923
40975W        W12646  30.661  34.909   2.084
40976W        W12647  11.826  36.393   0.745
40977W        W12648   0.330  16.553   0.007
40978W        W12649  25.636  22.779   3.146
40979W        W12650  27.049  37.619  12.405
40980W        W12651  22.122  26.999  11.727
40981W        W12652  15.344  19.505   4.481
40982W        W12653  31.704   4.853   3.808
40983W        W12654   8.875  16.752   1.722
40984W        W12655  36.960  28.503  13.942
40985W        W12656  19.544  42.740  12.461
40986W        W12657  38.514  36.700  13.269
40987W        W12658  36.039  36.809   4.589
40988W        W12659  29.697   7.774  13.898
40989W        W12660   8.601  21.877  12.573
40990W        W12661  33.667  14.063   4.483
40991W        W12662  15.119  41.354   0.230
40992W        W12663  24.072   4.452  14.466
40993W        W12664   8.352  18.117  14.626
40994W        W12665  31.892  30.397  11.633
40995W        W12666  14.149  38.442  14.521
40996W        W12667  41.801  28.672   3.316
40997W        W12668  29.640  32.185   0.377
40998W        W12669  26.517  14.684   0.656
40999W        W12670   5.974   1.429  13.287
41000W        W12671  25.572  27.128   0.295
41001W        W12672  19.100  20.291  12.404
41002W        W12673  10.922  11.747   4.477
41003W        W12674  25.829  42.570  11.816
41004W        W12675  41.284   7.821   1.716
41005W        W12676  23.777   7.120  12.990
41006W        W12677  25.705  42.842  12.532
41007W        W12678  23.506   0.341   0.316
41008W        W12679  23.520  19.227   2.764
41009W        W12680  40.503  31.353   1.813
41010W        W12681   7.438  16.165   0.341
41011W        W12682   2.274  32.106  13.858
41012W        W12683  38.895  37.396  10.650
41013W        W12684   2.469  24.303   1.192
41014W        W12685  43.877  14.644   2.442
41015W        W12686   0.624  29.973  13.606
41016W        W12687   2.721  43.909  10.369
41017W        W12688   2.802  44.888  14.675
41018W        W12689  25.134  44.316  11.875
41019W        W12690  23.723  37.838  11.137
41020W        W12691  16.171  34.936   4.599
41021W        W12692  20.457   0.457  12.598
41022W        W12693  37.131  17.170  12.468
41023W        W12694   7.787  17.401  12.025
41024W        W12695  26.098  40.773   2.429
41025W        W12696  18.343   4.674   4.268
41026W        W12697  35.650  31.470  13.460
41027W        W12698  10.300  10.708   1.819
41028W        W12699  11.888  18.957  14.933
41029W        W12700  10.803  17.969  11.098
41030W        W12701  15.906  15.829   3.926
41031W        W12702   0.244  23.593   0.873
41032W        W12703  25.319  14.515   1.359
41033W        W12704  17.304   0.851   1.539
41034W        W12705  27.422  12.672   1.153
41035W        W12706   2.625  15.658   5.198
41036W        W12707  26.612  43.412   2.271
41037W        W12708  28.098  22.111  10.979
41038W        W12709   5.538  15.250  14.287
41039W        W12710   9.714  30.112   1.851
41040W        W12711   1.980  32.321  13.496
41041W        W12712  10.920  20.906  14.562
41042W        W12713  32.684  39.536   1.693
41043W        W12714  20.276  18.391   2.905
41044W        W12715  20.895  22.048   3.578
41045W        W12716   3.770   8.853  10.344
41046W        W12717  32.864  16.926   1.827
41047W        W12718  31.392  18.488   4.127
41048W        W12719  22.278   8.918   0.452
41049W        W12720  24.663   8.118   2.323
41050W        W12721  29.849  29.212   0.814
41051W        W12722  36.582  19.179   4.362
41052W        W12723   0.813  10.723  12.018
41053W        W12724   2.303   1.009  14.438
41054W        W12725  18.872  18.329   4.683
41055W        W12726  27.424  24.068   1.831
41056W        W12727  19.575   3.351  14.973
41057W        W12728  36.598  16.042  14.530
41058W        W12729  20.491   5.340  13.699
41059W        W12730  41.690  38.720   1.246
41060W        W12731   8.744   2.274   3.869
41061W        W12732  31.622  36.548   3.958
41062W        W12733  22.220  28.529   4.066
41063W        W12734  12.824  39.568   3.618
41064W        W12735  38.125  27.440   1.874
41065W        W12736  24.081  25.142  14.993
41066W        W12737  38.527  17.773  10.524
41067W        W12738  26.375   0.930  11.198
41068W        W12739   1.185  41.852   4.080
41069W        W12740  38.849   3.556   0.489
41070W        W12741  35.745  35.401  12.582
41071W        W12742   0.491   4.375  13.712
41072W        W12743  16.548  34.559  11.544
41073W        W12744  40.901   3.545   3.233
41074W        W12745  30.114  35.877   2.827
41075W        W12746  26.965  19.361  12.017
41076W        W12747   6.459   6.082  11.075
41077W        W12748   9.167  35.798   0.477
41078W        W12749  40.396  43.416   2.636
41079W        W12750  24.459  23.229  11.391
41080W        W12751  24.030  22.414   3.220
41081W        W12752  10.996  34.024  10.584
41082W        W12753   1.743  22.804  12.136
41083W        W12754   6.615   4.305  12.043
41084W        W12755  26.909   4.170  11.134
41085W        W12756  11.384   0.019  12.840
41086W        W12757  24.812  33.746  11.538
41087W        W12758   3.251  21.558   9.798
41088W        W12759   3.446   0.774   3.085
41089W        W12760  21.985  23.234  11.526
41090W        W12761  18.146  34.449  14.521
41091W        W12762  15.032   2.370   2.729
41092W        W12763  39.488  22.932   4.234
41093W        W12764   5.272   7.711  13.548
41094W        W12765   2.747   8.355  13.983
41095W        W12766  10.231  30.387   2.844
41096W        W12767  32.594  21.308   0.056
41097W        W12768  12.258  34.706   0.028
41098W        W12769   9.685  33.570  14.172
41099W        W12770   5.234  12.286   1.434
41100W        W12771  26.905  20.326   1.900
41101W        W12772  24.170  27.259   0.982
41102W        W12773   5.437   4.929   2.375
41103W        W12774   4.046  25.760  13.974
41104W        W12775  39.128  25.135  10.268
41105W        W12776   4.292  31.784  11.691
41106W        W12777  16.144   5.994   1.421
41107W        W12778  28.978  41.887  13.920
41108W        W12779   7.588   2.212   4.199
41109W        W12780  44.377   4.985   4.568
41110W        W12781   3.022  21.991   4.610
41111W        W12782  30.028   2.061   3.711
41112W        W12783  30.930  23.387   2.269
41113W        W12784  42.340  34.566  14.557
41114W        W12785  28.393  29.903  10.101
41115W        W12786   0.335  23.959  11.683
41116W        W12787  34.890   3.274  14.820
41117W        W12788  32.091   9.341  12.077
41118W        W12789  22.560  14.375   4.989
41119W        W12790  18.338  14.416  10.217
41120W        W12791   7.470  24.433  12.079
41121W        W12792   8.578  33.633   3.244
41122W        W12793  27.060   2.660  12.908
41123W        W12794  33.995  15.306   3.890
41124W        W12795  42.815  25.409   4.640
41125W        W12796  42.920  26.025   3.017
41126W        W12797  26.687  32.704  12.974
41127W        W12798   5.880  16.486   3.821
41128W        W12799  13.137  11.368  11.289
41129W        W12800  42.273  26.493  11.195
41130W        W12801  13.829  27.193  12.531
41131W        W12802  40.303  18.266   2.584
41132W        W12803  32.783   7.380  11.838
41133W        W12804  16.740  29.155  14.249
41134W        W12805  40.434  41.173  14.448
41135W        W12806   0.099  21.157   3.818
41136W        W12807   0.737  37.471  12.555
41137W        W12808  19.786  20.015   2.711
41138W        W12809   8.670  31.554   1.081
41139W        W12810  19.209   8.934   1.459
41140W        W12811  29.155  37.890  14.563
41141W        W12812  43.460  31.856   2.736
41142W        W12813   7.322  42.570   2.911
41143W        W12814  16.168  17.939   2.179
41144W        W12815  27.900  18.659   1.608
41145W        W12816  20.636  10.734  10.679
41146W        W12817   8.390  23.108   4.725
41147W        W12818   9.719   2.372   1.316
41148W        W12819  10.002  15.334  14.023
41149W        W12820  28.016   4.896  14.042
41150W        W12821  29.502  39.347  12.517
41151W        W12822  38.931  37.980   4.879
41152W        W12823  12.749   7.027  14.895
41153W        W12824   4.966  42.458  10.784
41154W        W12825  18.591  39.528   4.616
41155W        W12826  34.665  20.100   2.467
41156W        W12827  31.562  14.153  10.959
41157W        W12828  12.173   4.257  11.115
41158W        W12829  14.173  10.370   4.693
41159W        W12830  13.632   9.638  13.454
41160W        W12831  44.028  29.223  13.049
41161W        W12832  38.469  25.640   3.297
41162W        W12833  17.808  18.224   3.867
41163W        W12834  19.342   8.853   4.569
41164W        W12835  39.902   1.743   0.822
41165W        W12836  22.765   6.164   4.720
41166W        W12837  24.350  11.220   4.951
41167W        W12838  27.988   6.615   2.398
41168W        W12839  26.549  14.530  13.158
41169W        W12840   6.944  10.374   0.767
41170W        W12841  39.808  29.173  12.455
41171W        W12842   5.763  36.418   2.141
41172W        W12843  21.837  29.088   4.528
41173W        W12844  11.144  23.086  13.205
41174W        W12845  11.726  24.536  12.385
41175W        W12846  30.361  43.758  14.818
41176W        W12847  28.681  12.605   1.149
41177W        W12848  40.565  27.512  12.173
41178W        W12849  44.946  37.048   2.363
41179W        W12850  24.070   1.809   1.858
41180W        W12851   0.552  36.997   1.296
41181W        W12852  19.537   8.107  14.404
41182W        W12853   4.290  10.696   1.887
41183W        W12854   3.187   6.514   4.490
41184W        W12855   7.472  27.002   0.781
41185W        W12856  34.072  44.888  13.511
41186W        W12857  22.975   2.900  13.934
41187W        W12858  33.524  17.310   0.525
41188W        W12859   5.779   6.399  13.416
41189W        W12860  37.521   0.300   2.795
41190W        W12861  28.482   7.464  11.575
41191W        W12862   0.535  29.114   3.418
41192W        W12863   3.750  18.053   4.107
41193W        W12864   4.177  14.012  12.989
41194W        W12865  31.360   5.860  14.404
41195W        W12866   6.291  28.989   0.327
41196W        W12867  32.673  22.897   0.884
41197W        W12868   3.435  37.986  10.596
41198W        W12869  19.662  41.028   2.086
41199W        W12870  15.270  32.149  11.187
41200W        W12871   4.322   4.554   0.448
41201W        W12872  26.722  39.665   0.666
41202W        W12873  14.029  11.125  12.986
41203W        W12874  28.432  14.517   2.875
41204W        W12875  36.743   9.186  11.150
41205W        W12876   4.222  21.614   4.379
41206W        W12877   9.757  44.372   1.745
41207W        W12878  28.024  15.056   2.311
41208W        W12879  10.635  28.661   2.261
41209W        W12880  20.315   8.907  14.989
41210W        W12881  37.246  26.460  13.889
41211W        W12882   7.579  23.932   3.797
41212W        W12883  17.693   0.712  13.975
41213W        W12884   9.776   6.802  14.815
41214W        W12885  22.451  23.009   4.538
41215W        W12886   1.300   9.144   3.300
41216W        W12887  33.498  20.995   9.971
41217W        W12888  13.692  21.558   4.296
41218W        W12889  22.590   9.246  12.614
41219W        W12890  36.197   2.102   3.726
41220W        W12891  40.898  29.602  11.980
41221W        W12892  41.861  21.704  11.551
41222W        W12893  37.392  31.499   0.374
41223W        W12894  17.943  13.695   4.991
41224W        W12895  32.634  17.912   1.226
41225W        W12896  27.242   2.765  11.962
41226W        W12897   0.020  16.844   3.287
41227W        W12898  24.442  41.351  10.984
41228W        W12899  36.361  34.579  12.821
41229W        W12900  13.655  43.307   2.798
41230W        W12901  13.038  43.070  11.460
41231W        W12902  25.683   6.356  12.552
41232W        W12903  29.159   1.540  13.484
41233W        W12904  20.029  20.755  11.632
41234W        W12905  22.194  40.863   4.707
41235W        W12906  11.660  29.076  11.671
41236W        W12907  10.454  18.191  10.752
41237W        W12908  33.963  41.012  13.052
41238W        W12909   4.750   5.459   0.300
41239W        W12910   5.270  32.651   4.735
41240W        W12911  43.723   2.547  10.765
41241W        W12912   3.218  21.167  12.470
41242W        W12913  16.839   9.167   5.295
41243W        W12914  18.891   4.383  11.446
41244W        W12915  15.305  11.260  10.699
41245W        W12916   1.960   8.301  12.555
41246W        W12917  42.224   2.279   2.807
41247W        W12918  36.998  37.573  14.708
41248W        W12919   0.658   1.457   4.216
41249W        W12920  41.391  32.087  14.543
41250W        W12921  26.871   1.005  11.209
41251W        W12922   9.945  21.092   2.756
41252W        W12923   1.237   5.460  12.263
41253W        W12924  32.510  15.025   3.469
41254W        W12925  23.312  20.930  13.002
41255W        W12926  29.097  18.790   4.473
41256W        W12927  42.398  11.327  10.511
41257W        W12928   4.648   0.630  13.350
41258W        W12929  25.097   2.033  12.880
41259W        W12930  21.471  29.971  10.948
41260W        W12931  26.889  24.142   1.157
41261W        W12932  40.569  16.904   3.340
41262W        W12933  27.136   4.759   1.968
41263W        W12934  12.163  35.044  14.030
41264W        W12935  16.140   9.016  12.972
41265W        W12936  42.138  37.099  10.210
41266W        W12937  26.175  20.022  12.031
41267W        W12938  37.490  39.768   0.798
41268W        W12939   2.962   6.336   1.496
41269W        W12940  37.526  44.715  11.917
41270W        W12941  44.499   5.552   3.715
41271W        W12942   0.729  25.715  11.965
41272W        W12943  31.469  19.674   2.755
41273W        W12944  27.874   6.407   2.857
41274W        W12945  18.772  21.725   1.648
41275W        W12946   9.588  26.341   4.497
41276W        W12947  35.462  43.725  14.384
41277W        W12948   9.410  26.655   3.342
41278W        W12949  14.839   5.322   0.683
41279W        W12950  11.836  40.317   2.326
41280W        W12951  24.448   5.649  13.774
41281W        W12952  10.052  26.415   0.372
41282W        W12953   6.850  38.951  13.617
41283W        W12954  21.024   8.413   2.730
41284W        W12955  32.551   8.173  12.508
41285W        W12956  43.994  30.524  10.611
41286W        W12957  40.548  14.836  12.060
41287W        W12958   1.034  20.700  10.148
41288W        W12959  16.188  17.037   2.207
41289W        W12960  35.900  35.956  14.967
41290W        W12961  12.523  22.002   1.327
41291W        W12962  10.251  23.252  10.691
41292W        W12963   5.268  26.442   1.939
41293W        W12964  10.238  12.741   5.036
41294W        W12965  25.571  10.745  12.209
41295W        W12966  21.894  11.018  12.437
41296W        W12967  35.425  21.636   2.756
41297W        W12968  39.500  36.395  12.115
41298W        W12969  14.201   0.439  11.546
41299W        W12970  17.694  26.626   3.788
41300W        W12971  39.497  13.090   4.182
41301W        W12972  43.403  33.457   4.696
41302W        W12973  41.580  21.224  14.937
41303W        W12974  29.515  17.472   0.608
41304W        W12975  30.616  42.847   2.296
41305W        W12976   0.929  42.982   0.809
41306W        W12977  29.958  12.902  11.134
41307W        W12978  40.798   9.813   3.376
41308W        W12979  21.084  23.788  10.803
41309W        W12980  29.839  13.709  14.333
41310W        W12981  21.519  11.107   3.331
41311W        W12982   0.691   7.456  14.409
41312W        W12983  40.273  44.934  11.526
41313W        W12984  18.111  15.815  10.873
41314W        W12985   3.959  16.199   2.728
41315W        W12986  39.830  40.561   2.226
41316W        W12987  40.785  40.761   0.027
41317W        W12988  22.491   4.880   1.629
41318W        W12989  35.912  22.946  12.179
41319W        W12990  16.347  10.735   1.885
41320W        W12991  21.544   3.864  14.193
41321W        W12992  43.027  22.243  10.236
41322W        W12993  31.112  39.201   5.156
41323W        W12994  18.143  39.588   1.401
41324W        W12995  25.213  16.249  11.180
41325W        W12996   0.439   7.870  14.842
41326W        W12997  30.031   3.081   2.799
41327W        W12998  18.419  10.658  11.191
41328W        W12999   5.150   5.187  11.563
41329W        W13000  22.644  35.509  13.225
41330W        W13001   1.636  38.893  10.645
41331W        W13002  21.620  40.807  12.861
41332W        W13003  36.951  34.617   1.467
41333W        W13004  11.792  41.412   5.113
41334W        W13005  25.773  15.150   0.680
41335W        W13006  28.181   8.512   4.057
41336W        W13007  26.394  24.634  11.943
41337W        W13008  44.862   0.698  11.139
41338W        W13009   6.858   4.989   1.357
41339W        W13010  17.643  30.854  10.446
41340W        W13011  21.734  31.767   1.965
41341W        W13012  43.511  21.777  12.572
41342W        W13013  41.634  24.519   4.477
41343W        W13014  38.409  22.189   0.159
41344W        W13015   2.193  21.294   0.778
41345W        W13016  39.576   7.766  13.962
41346W        W13017  29.997  34.941  13.629
41347W        W13018  18.095  22.008   0.789
41348W        W13019  27.682  19.802   4.789
41349W        W13020   5.038  20.980  14.014
41350W        W13021  32.342  21.780   0.025
41351W        W13022   8.071  24.555   3.326
41352W        W13023  32.842  15.757   1.689
41353W        W13024  19.168  35.585   3.168
41354W        W13025   0.299  29.137  11.311
41355W        W13026  35.731  36.899   0.037
41356W        W13027   3.446  32.584  14.041
41357W        W13028   5.236  33.964   1.844
41358W        W13029  11.404  12.164  10.703
41359W        W13030   6.666  29.786   1.923
41360W        W13031   0.323  27.771   4.124
41361W        W13032  23.575   6.760  13.351
41362W        W13033  42.076   8.672  11.206
41363W        W13034  31.549  36.442  14.833
41364W        W13035  10.220   8.964   3.320
41365W        W13036   8.193  42.461   3.682
41366W        W13037   1.853  39.350  10.776
41367W        W13038  30.357  29.476   0.485
41368W        W13039  22.140  20.363   3.612
41369W        W13040  28.156  19.607  12.396
41370W        W13041  44.426  12.547  11.121
41371W        W13042   6.823  14.712   3.120
41372W        W13043  34.554  10.172  13.832
41373W        W13044  43.652  20.548   2.114
41374W        W13045  11.496  15.498  11.641
41375W        W13046  19.555  38.055  12.415
41376W        W13047  28.054  41.442  12.955
41377W        W13048   0.393  36.850   3.685
41378W        W13049  27.137  21.625   4.591
41379W        W13050  17.244  30.184  13.862
41380W        W13051   6.324  27.147   0.852
41381W        W13052   6.972  40.982   0.406
41382W        W13053  19.471  42.873   3.161
41383W        W13054  18.778   4.073   0.946
41384W        W13055  19.219  14.435  14.030
41385W        W13056   1.665  29.640  12.112
41386W        W13057  20.783  27.076  12.004
41387W        W13058  28.927  14.961   0.045
41388W        W13059  14.721   2.894  12.586
41389W        W13060   3.011  13.758  10.613
41390W        W13061   5.105  16.440   0.873
41391W        W13062  10.724   6.243  13.889
41392W        W13063   7.752  35.428   2.171
41393W        W13064  12.387  38.947  12.431
41394W        W13065  22.130  35.411   3.567
41395W        W13066  33.623  26.672   0.911
41396W        W13067  21.202  17.649   0.885
41397W        W13068  39.424  25.023  11.538
41398W        W13069  40.045  36.499   2.335
41399W        W13070   8.311  26.611  13.752
41400W        W13071  11.544   7.447   1.606
41401W        W13072  26.197  14.658  12.192
41402W        W13073  33.433  35.276  14.793
41403W        W13074  34.535  32.153   0.548
41404W        W13075  20.175   8.454  10.672
41405W        W13076   8.199  28.630   4.822
41406W        W13077  27.662   5.937   2.728
41407W        W13078  13.515  25.479  12.036
41408W        W13079  21.303  40.762  11.106
41409W        W13080  21.624  37.320  13.149
41410W        W13081   7.372  28.432  12.476
41411W        W13082   6.758  32.577  14.473
41412W        W13083   8.430   0.546  14.470
41413W        W13084  31.185   7.484  14.894
41414W        W13085  20.625   5.658  13.311
41415W        W13086  36.862  15.905  11.941
41416W        W13087  13.160  18.353   3.902
41417W        W13088   9.197   5.389  10.969
41418W        W13089  17.058   6.486  14.749
41419W        W13090  22.635  33.809   3.182
41420W        W13091  18.298   7.746   4.555
41421W        W13092  44.438  34.913  13.376
41422W        W13093   0.456   5.419   3.729
41423W        W13094  33.817   3.962   2.627
41424W        W13095  34.433  26.796  13.974
41425W        W13096  30.788   2.137   0.957
41426W        W13097  24.401  25.996  14.424
41427W        W13098  44.457  21.716  13.424
41428W        W13099  26.496  18.962   2.908
41429W        W13100  30.428   9.903   1.083
41430W        W13101  39.035  27.955   0.436
41431W        W13102  31.430  28.934  11.562
41432W        W13103  22.727  40.987  12.441
41433W        W13104  21.241  18.209  10.567
41434W        W13105  14.198   8.752   2.730
41435W        W13106  38.352  28.165  13.882
41436W        W13107   6.941  10.723   1.221
41437W        W13108  43.255  37.256  11.938
41438W        W13109  15.809  31.632  14.970
41439W        W13110   1.610   7.676   5.067
41440W        W13111  20.834   5.683   0.373
41441W        W13112  11.391  34.970  12.489
41442W        W13113  18.769  17.037  12.946
41443W        W13114  13.444  13.124  14.518
41444W        W13115  35.025  29.400  13.957
41445W        W13116  31.840  14.744  13.535
41446W        W13117  31.422  11.766   2.764
41447W        W13118   4.286  24.079   0.261
41448W        W13119  29.973  20.687  11.429
41449W        W13120  16.110   0.923  14.474
41450W        W13121   7.712  15.634   3.097
41451W        W13122  29.197  19.085  14.075
41452W        W13123  28.186  40.390  14.443
41453W        W13124  35.901  12.404   0.502
41454W        W13125  21.733  12.223  14.826
41455W        W13126   1.386   5.790   0.072
41456W        W13127  21.809  27.169   0.182
41457W        W13128  13.020  23.580   4.311
41458W        W13129  24.579  33.714  10.840
41459W        W13130  27.877   9.921   2.904
41460W        W13131  36.576  32.823  11.000
41461W        W13132  41.297  25.462   3.661
41462W        W13133  19.201  10.158   0.127
41463W        W13134  40.269  10.911   2.004
41464W        W13135  20.767  14.412  13.332
41465W        W13136  11.089   8.375   2.271
41466W        W13137  35.994  11.214  14.306
41467W        W13138  14.180   6.951   9.945
41468W        W13139   6.314   6.933   2.893
41469W        W13140  43.224  33.085  11.021
41470W        W13141  20.184  19.547  14.999
41471W        W13142  38.295  30.649  12.472
41472W        W13143  38.908  15.759  12.899
41473W        W13144  22.020   1.175   2.152
41474W        W13145  11.999   6.198   3.190
41475W        W13146  34.983   9.772  14.890
41476W        W13147  34.565  20.675   4.494
41477W        W13148   0.155  25.079  13.033
41478W        W13149  41.568  27.632  12.069
41479W        W13150  27.990   8.168  14.445
41480W        W13151  43.543  26.837  12.589
41481W        W13152  29.539  34.386  12.020
41482W        W13153  43.227  38.783   3.784
41483W        W13154   5.186   9.322  14.968
41484W        W13155  31.461  18.940  13.390
41485W        W13156  12.588  27.687  11.187
41486W        W13157  10.964  16.626   2.775
41487W        W13158  27.546   1.660   3.117
41488W        W13159  15.196   4.658   1.330
41489W        W13160   0.570  23.534  12.392
41490W        W13161   4.799  14.501   0.771
41491W        W13162  17.776  10.651  13.892
41492W        W13163   7.890  38.563  10.495
41493W        W13164  17.081   4.706  14.058
41494W        W13165  44.454  23.750  14.398
41495W        W13166  18.636  41.507   0.278
41496W        W13167  24.752  36.187   4.173
41497W        W13168  36.960  37.342  11.030
41498W        W13169   0.420  33.462  13.068
41499W        W13170   5.332  14.804  14.027
41500W        W13171  21.574  22.663  14.757
41501W        W13172  25.655  15.295  11.637
41502W        W13173   5.230  29.671   2.224
41503W        W13174  22.703  23.729  11.942
41504W        W13175  43.382   1.071   1.562
41505W        W13176  32.076  18.491   2.933
41506W        W13177  10.560  33.984   1.949
41507W        W13178  23.178  23.978  11.874
41508W        W13179  15.691  23.126  10.646
41509W        W13180  23.606  28.425   3.338
41510W        W13181   2.885  23.064   2.480
41511W        W13182  22.754   3.870   2.716
41512W        W13183   2.812  26.008   1.859
41513W        W13184  32.104  40.539   4.089
41514W        W13185  18.560  32.020   4.645
41515W        W13186  38.036   3.834  11.591
41516W        W13187  39.538  10.721  13.407
41517W        W13188  11.199  31.457  13.765
41518W        W13189  21.280  38.760  10.841
41519W        W13190  26.350   4.381   4.552
41520W        W13191  19.401  13.710  11.459
41521W        W13192  30.384  31.527  11.711
41522W        W13193   9.847  12.798   3.401
41523W        W13194   2.225  44.320   1.469
41524W        W13195  39.508  15.836   4.166
41525W        W13196  24.098  24.692   4.618
41526W        W13197   7.802  35.468  13.721
41527W        W13198  28.109  25.971   1.171
41528W        W13199   1.287   3.358   2.355
41529W        W13200  26.220  44.238   0.410
41530W        W13201  23.555  20.092   3.161
41531W        W13202  10.730  27.615   2.180
41532W        W13203   0.881  11.263  12.736
41533W        W13204  25.615   5.440   3.592
41534W        W13205  32.986  24.176   0.886
41535W        W13206  27.670  13.223  10.983
41536W        W13207  20.092  36.039   1.474
41537W        W13208  29.287  39.606  14.999
41538W        W13209   1.328  20.235  14.351
41539W        W13210  24.442  19.604  13.367
41540W        W13211  42.476  15.520  13.840
41541W        W13212  32.983  38.421  10.572
41542W        W13213  28.135  39.781   4.018
41543W        W13214  32.920   2.726   0.820
41544W        W13215  25.715  24.662  14.417
41545W        W13216  29.805  30.903   1.538
41546W        W13217   4.581  26.586   3.607
41547W        W13218  24.712  29.444  10.737
41548W        W13219  30.032  10.661  11.973
41549W        W13220   5.365   5.850  14.067
41550W        W13221  15.467  14.467   5.424
41551W        W13222  15.231  38.227  13.072
41552W        W13223  28.366  30.246   4.948
41553W        W13224  43.522  36.055  10.735
41554W        W13225  21.506  43.991  12.861
41555W        W13226  41.305  36.334  12.943
41556W        W13227  23.123   9.154   2.467
41557W        W13228  35.381   7.084   3.268
41558W        W13229  30.107  25.618  14.262
41559W        W13230  38.491  38.523  12.915
41560W        W13231  18.712  34.775   1.235
41561W        W13232  42.000   7.237  14.950
41562W        W13233  27.592  29.978   4.760
41563W        W13234  17.561  33.480   0.358
41564W        W13235  13.859  36.176  11.356
41565W        W13236  18.344  36.155   4.537
41566W        W13237  35.651  41.404  13.868
41567W        W13238  21.525  41.739   1.923
41568W        W13239  35.268  39.361   4.559
41569W        W13240  20.673  42.807   0.891
41570W        W13241   7.724  23.123  13.840
41571W        W13242   1.121  19.204   3.482
41572W        W13243   9.034  36.388   3.154
41573W        W13244  19.490  21.080   4.802
41574W        W13245  33.312   5.923  10.489
41575W        W13246  19.727  41.362   4.897
41576W        W13247  28.543  38.923   0.373
41577W        W13248  37.418  24.047  11.668
41578W        W13249  27.216  22.344   0.902
41579W        W13250  35.434   3.706   0.821
41580W        W13251  16.406  15.570   0.076
41581W        W13252  10.471  32.302   3.113
41582W        W13253  39.756  43.484   1.440
41583W        W13254   2.017   8.589   5.121
41584W        W13255  17.306  24.693   4.577
41585W        W13256  31.643  30.403   3.783
41586W        W13257   3.018   9.752  11.106
41587W        W13258   1.987  43.839   3.364
41588W        W13259  18.119  19.732   0.027
41589W        W13260  17.621  21.504   1.375
41590W        W13261  10.828  30.394  12.026
41591W        W13262  17.067  33.915   3.347
41592W        W13263   5.672   6.719   4.386
41593W        W13264  18.078   6.081   0.783
41594W        W13265  19.240  25.056  14.271
41595W        W13266  25.631  37.145   4.161
41596W        W13267   4.797  34.633   4.601
41597W        W13268  39.395  43.105   0.658
41598W        W13269  27.042   1.491   3.125
41599W        W13270  12.902  18.665   1.104
41600W        W13271  22.616  42.551  14.377
41601W        W13272  38.311  23.962  11.857
41602W        W13273  15.963  22.149   2.814
41603W        W13274   7.921  39.391  12.064
41604W        W13275  39.050  25.992   4.466
41605W        W13276  18.182  26.029  10.839
41606W        W13277  22.524   0.771  11.584
41607W        W13278  17.172  22.007  12.494
41608W        W13279   1.106   6.377  11.135
41609W        W13280   8.887   2.006  11.844
41610W        W13281  36.537   7.418   0.920
41611W        W13282   2.946  27.936   1.878
41612W        W13283  19.075  21.057  11.885
41613W        W13284  44.661  41.358   1.431
41614W        W13285   7.918  17.554   4.845
41615W        W13286   2.256  16.981  10.779
41616W        W13287   7.355  19.786  13.659
41617W        W13288  19.554  10.806  11.364
41618W        W13289  42.591  10.573   3.572
41619W        W13290   7.934  38.560  13.235
41620W        W13291  24.569  25.940  12.092
41621W        W13292  23.555   1.006   4.524
41622W        W13293  37.054  18.744  13.410
41623W        W13294  35.414   4.278  12.944
41624W        W13295  31.869   6.711   3.659
41625W        W13296  16.326   7.122  13.842
41626W        W13297  34.428  18.916   2.104
41627W        W13298  22.640  16.201   2.187
41628W        W13299  29.218  31.074   4.747
41629W        W13300  18.786  25.692  13.382
41630W        W13301  32.907  15.415  13.816
41631W        W13302  27.052  31.663  11.762
41632W        W13303  24.069  18.733   0.691
41633W        W13304  43.057  38.031   4.540
41634W        W13305  32.448  10.541   3.724
41635W        W13306  36.251  16.513   4.051
41636W        W13307  29.982  37.334   4.740
41637W        W13308  15.598  15.813  12.376
41638W        W13309  19.319  17.061  12.930
41639W        W13310  21.541   0.212   1.271
41640W        W13311  36.793  29.674  13.427
41641W        W13312  25.491  27.034   4.412
41642W        W13313  18.985   8.077   1.009
41643W        W13314  20.723  39.604  13.432
41644W        W13315   2.494   8.775  14.811
41645W        W13316  38.957  42.105  14.752
41646W        W13317  33.603  30.834  12.530
41647W        W13318  34.669  40.859  12.507
41648W        W13319  26.642  36.539  13.917
41649W        W13320  19.386  28.446  12.951
41650W        W13321   1.787   1.300   1.396
41651W        W13322  16.377   1.436   2.638
41652W        W13323  13.941  32.870   1.056
41653W        W13324  11.901  40.241  11.146
41654W        W13325  29.570  13.310  14.937
41655W        W13326  43.413  25.310   3.507
41656W        W13327  35.881  11.884   3.239
41657W        W13328   5.829   5.271   2.290
41658W        W13329  41.497   4.480   1.190
41659W        W13330  18.092   8.443   4.193
41660W        W13331  35.449   1.795   3.602
41661W        W13332  13.871  43.441  14.825
41662W        W13333  28.032  23.249   4.205
41663W        W13334  24.957  34.929   4.524
41664W        W13335  32.434   8.234  14.041
41665W        W13336  17.564  24.867   0.394
41666W        W13337  26.097   1.904   0.556
41667W        W13338  44.395  35.933  11.895
41668W        W13339  40.967  36.759  14.508
41669W        W13340  21.612  41.094   1.151
41670W        W13341  30.971  38.986  10.124
41671W        W13342  11.695   1.640  12.490
41672W        W13343  42.244  38.840   3.246
41673W        W13344   0.528  34.884  14.481
41674W        W13345  42.954  18.806  14.901
41675W        W13346  22.976  38.002   9.571
41676W        W13347  14.739  32.880  13.537
41677W        W13348  17.813   3.755   3.578
41678W        W13349  22.927  44.061  14.940
41679W        W13350   4.238  11.255  14.523
41680W        W13351   5.490  13.868  13.562
41681W        W13352  15.241  38.054   2.184
41682W        W13353  36.375  41.786  14.579
41683W        W13354  32.724   3.313   1.791
41684W        W13355  11.965  15.108  13.857
41685W        W13356  10.086  42.303   4.769
41686W        W13357  24.218   7.649   1.248
41687W        W13358  21.620  44.519  12.322
41688W        W13359  26.730  30.752   2.251
41689W        W13360  33.461  20.704   2.543
41690W        W13361  12.299  39.542  11.720
41691W        W13362  14.377  10.369   1.652
41692W        W13363  11.817  19.772   3.882
41693W        W13364  26.184  38.527   3.251
41694W        W13365   2.363  41.779  14.074
41695W        W13366  12.058  35.549  11.435
41696W        W13367   4.411  23.640   2.273
41697W        W13368  35.373  11.684  11.992
41698W        W13369  12.282   3.907  12.095
41699W        W13370   9.875   9.316   3.620
41700W        W13371  15.614  44.897   0.450
41701W        W13372  29.372  17.060  11.209
41702W        W13373  28.124  37.833  13.317
41703W        W13374  36.088   2.905   0.744
41704W        W13375  33.187  23.450   0.856
41705W        W13376  33.980  10.574   0.317
41706W        W13377  42.949  31.133   1.420
41707W        W13378   3.890   4.416   0.690
41708W        W13379  33.447   6.145  12.007
41709W        W13380   9.409   8.306   3.144
41710W        W13381  26.009  38.017   3.203
41711W        W13382  30.673  37.416   4.116
41712W        W13383  37.831   2.883   3.694
41713W        W13384   0.960   8.368  10.818
41714W        W13385  38.370  20.185  11.623
41715W        W13386   8.482   3.196   0.449
41716W        W13387   0.474   2.874  14.889
41717W        W13388  28.551  32.649   1.351
41718W        W13389  41.228  35.323  12.053
41719W        W13390  19.542  37.509   1.483
41720W        W13391  18.591  20.957  11.140
41721W        W13392  14.144  19.736  10.249
41722W        W13393  21.520   0.005   0.375
41723W        W13394   5.189  20.679  12.413
41724W        W13395   4.652  28.608  10.601
41725W        W13396  29.415  24.257  11.705
41726W        W13397  35.937  16.998  14.029
41727W        W13398  25.497  36.017  14.227
41728W        W13399  42.072   4.932   1.165
41729W        W13400   6.986   4.367  13.800
41730W        W13401  33.111  29.604   1.601
41731W        W13402  33.505  20.547  11.644
41732W        W13403  20.040  25.731  14.382
41733W        W13404  42.788   1.290   0.269
41734W        W13405  14.767   7.835  11.389
41735W        W13406   9.289  39.116   4.352
41736W        W13407   3.886  37.288   1.230
41737W        W13408  25.175  20.112   1.721
41738W        W13409  17.590  41.603   2.252
41739W        W13410   4.299   2.902  14.403
41740W        W13411  12.694  18.209   2.628
41741W        W13412  11.308  27.591   3.888
41742W        W13413   8.381   2.452   3.131
41743W        W13414   0.262  38.501   2.193
41744W        W13415   9.203   4.926  12.669
41745W        W13416  22.737  19.719  13.926
41746W        W13417  16.363  25.151  10.655
41747W        W13418  19.461  44.824   0.368
41748W        W13419  14.005  43.188   0.921
41749W        W13420  25.783  28.401  12.272
41750W        W13421  12.392  38.799   3.128
41751W        W13422  40.828  31.150   2.920
41752W        W13423  10.112  20.087  14.947
41753W        W13424   1.247  36.498  13.105
41754W        W13425  29.384   7.266   4.124
41755W        W13426  43.543  28.632  13.659
41756W        W13427   8.152   1.184  13.017
41757W        W13428  14.384  14.666   3.276
41758W        W13429  20.185  27.074   9.978
41759W        W13430   0.173  37.359  14.103
41760W        W13431  30.703  12.814  14.853
41761W        W13432  26.913   9.879  14.263
41762W        W13433   8.738  10.814   4.642
41763W        W13434  44.709  44.876  10.684
41764W        W13435  14.625  37.678   2.777
41765W        W13436   9.125  36.928   0.023
41766W        W13437  31.014   3.170  14.801
41767W        W13438  18.765  38.715   4.982
41768W        W13439  29.867   1.373   0.292
41769W        W13440  31.026  32.356   1.288
41770W        W13441  44.973   3.314   4.983
41771W        W13442  11.714  17.999   2.827
41772W        W13443  10.768  32.654  11.644
41773W        W13444  27.046  12.486   3.689
41774W        W13445  38.416  13.601  13.316
41775W        W13446  12.406  31.941   4.163
41776W        W13447  35.032   4.265  14.164
41777W        W13448  15.862  37.149  14.747
41778W        W13449  11.425  20.118   3.914
41779W        W13450  36.944  19.027  13.839
41780W        W13451  41.578  12.019   0.225
41781W        W13452   2.462  37.075   4.706
41782W        W13453  44.646  20.694   5.434
41783W        W13454  40.890  15.283   0.020
41784W        W13455   2.681  30.568   1.030
41785W        W13456   6.928  11.540  14.478
41786W        W13457  44.608  25.518   4.884
41787W        W13458   1.975   7.743  12.060
41788W        W13459  13.774  27.595  13.870
41789W        W13460  33.978  18.738   1.937
41790W        W13461  18.260  38.549  14.369
41791W        W13462  26.085   5.407  11.945
41792W        W13463  42.977   9.853   4.156
41793W        W13464  41.992  42.450  12.085
41794W        W13465  21.641  40.985  13.377
41795W        W13466   7.380  35.629  12.988
41796W        W13467  32.271  13.604   2.919
41797W        W13468   9.099   8.348  10.690
41798W        W13469  42.465  27.463  14.860
41799W        W13470  32.760  20.070   2.724
41800W        W13471  35.348   7.707  14.406
41801W        W13472  15.361  16.079  10.520
41802W        W13473  35.147  36.333   1.704
41803W        W13474  17.330  44.098   2.350
41804W        W13475  42.302  44.626   5.119
41805W        W13476  29.408  28.629  11.880
41806W        W13477  41.016   7.856   4.517
41807W        W13478  15.579   9.075  13.056
41808W        W13479  38.413   7.730   1.311
41809W        W13480  39.922  33.686  14.990
41810W        W13481  18.556   0.849  14.260
41811W        W13482  39.739  29.368   1.631
41812W        W13483  28.082  43.412  14.522
41813W        W13484   9.342  28.473  14.135
41814W        W13485  24.583  19.772  14.295
41815W        W13486  32.408  35.954  10.346
41816W        W13487  24.242  44.520   2.256
41817W        W13488  33.158  40.093  14.537
41818W        W13489  43.491  26.198   3.129
41819W        W13490  10.039  36.016   0.021
41820W        W13491  39.834  11.349   4.578
41821W        W13492  28.989  38.745   0.931
41822W        W13493  32.866   8.251   1.741
41823W        W13494  44.794   4.152   2.413
41824W        W13495  24.953  37.305  13.971
41825W        W13496  39.344  23.052   3.753
41826W        W13497  29.426  38.832  11.446
41827W        W13498  40.304  42.898   4.280
41828W        W13499  26.321   2.424   3.342
41829W        W13500  25.701  31.829  12.932
41830W        W13501  42.917  36.437  13.853
41831W        W13502  28.083  14.629  13.932
41832W        W13503  27.384  25.249  10.761
41833W        W13504   5.905  33.494  14.391
41834W        W13505  29.091   3.794   1.507
41835W        W13506  33.931  26.015   2.984
41836W        W13507   8.694  25.885   1.372
41837W        W13508   6.877   2.949   4.978
41838W        W13509  38.546   3.681  14.151
41839W        W13510  42.701  14.158  14.531
41840W        W13511  13.199  10.301  10.124
41841W        W13512  12.813   2.960   3.682
41842W        W13513  31.135   2.123   0.016
41843W        W13514  17.991   1.448  11.668
41844W        W13515  10.577  27.218   0.721
41845W        W13516  21.743  10.650   0.362
41846W        W13517  15.798  15.758  12.867
41847W        W13518  29.448  15.785  12.023
41848W        W13519  42.871  38.817   4.994
41849W        W13520  38.054  31.947   1.886
41850W        W13521   1.557   7.808   4.573
41851W        W13522  42.526  10.750  12.113
41852W        W13523  43.001  32.811  10.601
41853W        W13524  16.013  10.366   2.773
41854W        W13525  39.750   1.349   1.760
41855W        W13526  36.870  20.362  10.630
41856W        W13527  41.103  26.011   0.023
41857W        W13528  17.096   8.291  10.604
41858W        W13529  41.402   8.180   1.344
41859W        W13530  17.764  33.997  10.750
41860W        W13531  28.241  15.610   0.928
41861W        W13532  26.409  40.989   0.365
41862W        W13533  33.549  21.818   2.241
41863W        W13534  10.799  11.672   2.192
41864W        W13535  16.656  19.353   0.919
41865W        W13536  41.467  33.912   0.533
41866W        W13537   7.132  44.925  13.339
41867W        W13538  30.301  37.935  12.353
41868W        W13539  33.584  21.309  12.391
41869W        W13540  42.568   9.692  11.168
41870W        W13541  17.601  26.442  13.884
41871W        W13542   0.672   0.917   1.248
41872W        W13543  44.832  29.078   0.062
41873W        W13544  44.524  13.316  10.674
41874W        W13545  28.980   0.040  11.219
41875W        W13546  15.409  26.096  14.901
41876W        W13547  24.974  28.826   4.655
41877W        W13548  15.373  36.485  12.077
41878W        W13549  39.117  26.028   0.754
41879W        W13550  24.141  13.373   3.743
41880W        W13551  22.310  15.372   2.367
41881W        W13552   1.632   4.455  10.678
41882W        W13553  44.270   4.445  12.047
41883W        W13554  40.089  24.808  14.222
41884W        W13555  33.117  34.062  13.937
41885W        W13556   0.471  11.787   1.755
41886W        W13557  33.300  35.908   1.776
41887W        W13558  26.952  10.833  13.319
41888W        W13559  42.794  13.778   3.773
41889W        W13560   4.714  31.217  13.991
41890W        W13561  24.457  35.073   0.264
41891W        W13562  10.090  32.424  14.746
41892W        W13563  21.478  32.909   2.378
41893W        W13564  31.484  26.180  10.751
41894W        W13565   7.432   9.851  13.242
41895W        W13566  17.573  16.545  14.029
41896W        W13567  35.344   2.909  14.481
41897W        W13568  34.422  34.435  14.500
41898W        W13569  40.350  35.683   3.672
41899W        W13570  24.040  42.327  14.693
41900W        W13571  38.896  40.562   0.191
41901W        W13572  23.159  22.108   1.408
41902W        W13573  34.158  29.674   0.034
41903W        W13574  27.306  28.684   0.933
41904W        W13575  38.659  10.294   0.755
41905W        W13576  32.332   2.237   4.250
41906W        W13577  30.508  34.605  11.984
41907W        W13578  31.066  15.173  11.623
41908W        W13579   9.580   9.540   0.687
41909W        W13580  37.931   0.225  12.878
41910W        W13581  24.049  10.438   4.589
41911W        W13582  14.804   8.157   1.757
41912W        W13583  12.043  26.149  11.614
41913W        W13584  28.678  28.208   1.411
41914W        W13585  41.305  43.337  11.472
41915W        W13586  43.408  36.624   2.287
41916W        W13587  33.631  19.796   0.372
41917W        W13588  12.695  15.835  14.258
41918W        W13589   5.727  44.198  14.364
41919W        W13590  23.277   2.877   0.782
41920W        W13591  36.399  26.681   1.870
41921W        W13592  26.027  32.959  12.261
41922W        W13593   2.534  19.205   4.818
41923W        W13594  42.878  40.811  13.532
41924W        W13595   4.693  37.882  11.108
41925W        W13596  29.058  25.466   3.750
41926W        W13597  41.988   4.286   3.769
41927W        W13598  16.720  44.887  13.898
41928W        W13599  11.809  36.093  12.688
41929W        W13600  43.482  14.108  12.611
41930W        W13601   9.253  29.914  12.621
41931W        W13602  16.941  22.048  13.906
41932W        W13603  24.030  38.498   4.211
41933W        W13604   2.256   0.430  13.513
41934W        W13605  20.015  34.482  11.870
41935W        W13606  32.392  20.815   2.307
41936W        W13607  14.410  19.662  13.658
41937W        W13608  12.441  37.508  11.206
41938W        W13609  18.842   5.222   2.724
41939W        W13610  37.360  17.465   3.287
41940W        W13611  12.332  21.715   0.745
41941W        W13612  44.861  33.571   0.924
41942W        W13613  19.189  21.420  10.743
41943W        W13614  43.886   3.549  10.608
41944W        W13615   0.384   7.932   1.267
41945W        W13616  20.226   7.452  10.712
41946W        W13617   4.348  10.194   0.715
41947W        W13618  43.016  23.550  13.044
41948W        W13619  25.189  37.859  11.131
41949W        W13620   6.816  19.227  12.092
41950W        W13621  31.407  29.746   1.222
41951W        W13622   5.938  17.713   2.125
41952W        W13623   3.399  32.452   3.296
41953W        W13624   5.179  37.127  10.713
41954W        W13625  27.221  33.464  12.532
41955W        W13626  18.836   6.668  12.587
41956W        W13627   3.811  41.877  13.285
41957W        W13628   5.884  25.960   0.958
41958W        W13629  13.869  40.569  11.143
41959W        W13630   0.939  28.681  11.798
41960W        W13631  44.889  30.638  13.432
41961W        W13632  33.865  41.928   0.784
41962W        W13633  35.587   9.257  14.341
41963W        W13634  19.539   2.500  12.487
41964W        W13635  43.324  12.583  11.479
41965W        W13636  21.319  43.232   0.418
41966W        W13637  18.477  27.620  12.137
41967W        W13638   1.808  11.405   4.169
41968W        W13639  19.108  36.092   0.476
41969W        W13640   3.234  35.970  12.377
41970W        W13641  36.303  19.484   5.144
41971W        W13642  35.272  30.093   4.118
41972W        W13643  18.178  17.795  14.989
41973W        W13644  10.947  11.257  11.543
41974W        W13645  28.970  15.088   0.911
41975W        W13646  18.370  32.219   0.335
41976W        W13647  13.888  16.729  12.556
41977W        W13648  11.396   0.992   1.880
41978W        W13649  30.033   3.611   1.454
41979W        W13650  11.547  13.327  13.768
41980W        W13651  20.933  23.653  13.478
41981W        W13652   5.846   6.668  12.971
41982W        W13653   6.985   0.136  13.789
41983W        W13654   6.288  16.200   4.059
41984W        W13655  15.748   0.881   3.181
41985W        W13656  12.564  12.610   2.231
41986W        W13657  42.160  15.196   0.417
41987W        W13658   6.783   9.186  13.014
41988W        W13659  12.173  11.591  12.055
41989W        W13660   0.438  39.570   0.635
41990W        W13661  39.906  17.529   0.888
41991W        W13662  18.839  18.763  12.820
41992W        W13663  44.302  34.989  14.280
41993W        W13664  35.794  36.041  13.065
41994W        W13665  35.020  30.666  12.426
41995W        W13666  20.375  21.915   2.774
41996W        W13667  31.218  32.102   3.129
41997W        W13668  31.264  21.123   1.513
41998W        W13669  26.631   0.069  12.061
41999W        W13670  35.593   2.264  14.552
42000W        W13671  16.046  42.923   0.784
42001W        W13672  34.177  40.810  14.476
42002W        W13673  42.512   2.721  10.821
42003W        W13674  19.370   7.096  11.447
42004W        W13675  12.420  20.822  13.731
42005W        W13676  10.594   9.644  11.211
42006W        W13677  34.375   2.428   4.221
42007W        W13678  26.504  17.885  10.605
42008W        W13679  21.107   5.149   3.682
42009W        W13680   5.105  30.114  11.493
42010W        W13681  28.814   1.974  13.456
42011W        W13682  37.744   9.186  14.010
42012W        W13683  22.695  35.693   4.880
42013W        W13684  10.309   3.708  11.158
42014W        W13685  40.572  36.918   0.049
42015W        W13686  15.189  13.819   1.153
42016W        W13687  40.262   5.949  12.105
42017W        W13688  17.742   1.255  13.098
42018W        W13689  29.240  30.480  12.599
42019W        W13690   5.674  29.973   2.298
42020W        W13691  24.144  30.102  12.615
42021W        W13692  39.076   4.782   3.298
42022W        W13693  26.635   4.458   0.059
42023W        W13694  41.964  37.882   0.319
42024W        W13695  37.321  15.554  14.016
42025W        W13696  13.170  34.206  12.335
42026W        W13697   0.921   8.739  14.800
42027W        W13698  43.379  12.256  10.621
42028W        W13699  33.990   0.246   4.566
42029W        W13700  13.248  29.202   1.236
42030W        W13701  35.330  37.438   1.785
42031W        W13702  23.047  37.326  12.877
42032W        W13703  10.647  17.352   0.850
42033W        W13704  24.075  38.868  14.352
42034W        W13705  31.528  10.217  13.123
42035W        W13706  13.170  18.769  12.036
42036W        W13707  13.687  33.167  13.945
42037W        W13708  29.124  35.080   0.217
42038W        W13709  43.797  43.336   0.807
42039W        W13710  18.989  23.974   5.149
42040W        W13711   8.687  44.888   0.898
42041W        W13712   2.006  22.965   2.142
42042W        W13713  24.547   4.986  13.268
42043W        W13714  29.656   9.331   1.888
42044W        W13715   8.090  42.500   4.202
42045W        W13716  29.667  16.814  12.069
42046W        W13717  34.925  23.124  12.541
42047W        W13718  33.354   5.905   4.452
42048W        W13719  17.174  37.367  14.074
42049W        W13720  18.708  22.825   1.451
42050W        W13721  38.400   1.537   1.509
42051W        W13722  13.666  16.225   4.162
42052W        W13723   9.448   1.356   1.947
42053W        W13724  43.127  21.194   0.004
42054W        W13725  32.130  11.641  14.030
42055W        W13726  14.324  27.183  14.355
42056W        W13727  30.445  34.230   0.368
42057W        W13728  39.535  17.257  13.991
42058W        W13729  40.381  34.281  13.996
42059W        W13730  36.567  22.456   2.148
42060W        W13731  22.247  44.816  13.081
42061W        W13732   3.347  25.441   4.280
42062W        W13733  31.886  43.060   0.517
42063W        W13734  10.635  11.198  11.126
42064W        W13735  18.918  23.673   0.923
42065W        W13736  29.138  18.739   2.369
42066W        W13737  44.742  38.086   4.792
42067W        W13738  20.186   0.893   4.168
42068W        W13739  29.712  44.542   3.164
42069W        W13740  14.387  40.345  14.441
42070W        W13741  42.431  42.754   0.441
42071W        W13742   4.821  10.711   1.278
42072W        W13743  37.645  33.170   2.323
42073W        W13744   1.335  16.290  13.906
42074W        W13745  10.356  41.479  12.370
42075W        W13746   9.704   0.652  11.079
42076W        W13747  38.461  11.428  12.037
42077W        W13748  37.070  32.070  13.030
42078W        W13749  36.053  43.396   3.627
42079W        W13750  11.473  21.133   4.550
42080W        W13751  27.216  26.501   0.882
42081W        W13752  28.431  15.332  14.347
42082W        W13753  33.228  34.884  10.798
42083W        W13754  27.527  28.759  11.644
42084W        W13755  17.818  26.944  13.942
42085W        W13756  36.586  18.616   3.105
42086W        W13757   7.441  21.088  11.714
42087W        W13758  40.315  16.829  13.785
42088W        W13759  25.885  30.496  12.557
42089W        W13760  34.927  23.217   4.574
42090W        W13761   1.801   9.564  11.932
42091W        W13762  24.222  21.994   0.689
42092W        W13763   5.040  43.750  12.526
42093W        W13764   4.378   9.827   4.543
42094W        W13765   1.016  39.028   0.319
42095W        W13766   2.935  15.260  13.452
42096W        W13767  29.398  38.969  10.127
42097W        W13768  28.967  17.187  10.916
42098W        W13769   0.974   3.165  13.359
42099W        W13770  22.583  37.522  13.090
42100W        W13771  30.140   2.310  13.535
42101W        W13772  12.371  34.909   4.264
42102W        W13773   6.343  16.882  13.097
42103W        W13774   0.005  27.816  12.931
42104W        W13775  44.470  29.381  11.320
42105W        W13776  10.827  31.546   4.732
42106W        W13777   9.399  16.699   1.832
42107W        W13778  21.229  35.135  12.889
42108W        W13779  25.032  37.437   1.745
42109W        W13780  37.430  25.428  11.085
42110W        W13781  41.767  20.778   4.139
42111W        W13782  36.872  16.448   2.298
42112W        W13783  39.877  41.282   0.619
42113W        W13784  12.281  16.724  13.617
42114W        W13785  10.842  41.911   1.789
42115W        W13786  19.395  25.805   1.762
42116W        W13787  30.614  32.530  10.714
42117W        W13788  21.167  44.483   1.220
42118W        W13789   2.298  32.993   0.779
42119W        W13790  18.259   7.343  10.941
42120W        W13791  39.780   9.725   4.163
42121W        W13792  34.201  12.300  14.090
42122W        W13793  28.875  43.756   4.256
42123W        W13794  20.353  14.129   0.379
42124W        W13795  23.700  20.651   2.882
42125W        W13796   8.727   9.379   1.232
42126W        W13797  23.286  38.948   1.480
42127W        W13798  35.567   2.682   3.166
42128W        W13799  11.134  43.884   1.126
42129W        W13800  28.024  42.978  10.239
42130W        W13801  23.952  42.857  13.457
42131W        W13802  30.043  39.885   1.784
42132W        W13803  13.168   4.928   1.777
42133W        W13804  23.034  28.723  12.533
42134W        W13805  12.364  37.967   0.311
42135W        W13806  40.744   4.241   2.749
42136W        W13807  10.752  23.719  12.925
42137W        W13808  32.873  26.394   4.073
42138W        W13809  25.984  19.009  13.600
42139W        W13810  26.839  31.227   3.689
42140W        W13811  37.912  30.465  13.504
42141W        W13812  38.316  18.664  13.754
42142W        W13813  10.510   7.873   3.813
42143W        W13814   3.294  10.346  10.402
42144W        W13815  12.436  21.862  12.907
42145W        W13816  36.024  23.263  10.829
42146W        W13817  33.794  29.010  11.473
42147W        W13818  28.734  43.793   3.746
42148W        W13819  34.900  10.876  14.987
42149W        W13820  24.723  11.078   3.962
42150W        W13821  10.690  32.876  14.818
42151W        W13822  42.640  33.618   1.358
42152W        W13823  29.383  27.030  12.530
42153W        W13824  44.074  39.224  10.601
42154W        W13825  19.719  21.625  14.562
42155W        W13826  25.611  26.021   1.874
42156W        W13827  33.929  29.932   1.415
42157W        W13828  28.536  40.714  11.221
42158W        W13829  39.482  21.677  13.292
42159W        W13830   7.491  30.361   4.144
42160W        W13831   5.653  17.115   0.337
42161W        W13832  11.387  24.540   0.741
42162W        W13833  22.358  22.290  10.266
42163W        W13834  25.734  38.617   4.092
42164W        W13835  24.691   2.276  12.650
42165W        W13836  41.836  12.065  10.683
42166W        W13837  38.133  16.106   0.012
42167W        W13838  19.207   7.295   2.222
42168W        W13839  15.395  26.497  12.966
42169W        W13840  28.459   2.415  14.294
42170W        W13841  23.482  42.359  12.640
42171W        W13842  43.273  41.643   2.234
42172W        W13843   3.462   6.242  14.848
42173W        W13844   4.475  27.928  12.969
42174W        W13845  28.716  37.841   2.454
42175W        W13846   1.555  10.323   0.968
42176W        W13847   4.736   1.889  14.840
42177W        W13848  44.191  42.020  13.350
42178W        W13849  20.877  24.007  12.875
42179W        W13850  33.345  27.516  10.695
42180W        W13851  20.797   0.944   2.273
42181W        W13852  44.994  38.864  11.950
42182W        W13853  17.748  41.876  11.843
42183W        W13854   5.644  35.883   2.195
42184W        W13855  25.499  34.671   3.184
42185W        W13856  30.481  25.174  13.239
42186W        W13857  43.525  31.355   2.821
42187W        W13858  10.426  34.382   0.672
42188W        W13859   5.970  15.598  13.207
42189W        W13860  29.834   2.247   1.789
42190W        W13861  31.888  31.098  10.148
42191W        W13862   6.158  29.413  13.511
42192W        W13863   8.887  10.360  13.779
42193W        W13864  10.187  28.114   0.502
42194W        W13865  40.649   2.229  11.617
42195W        W13866  38.077  23.563  11.149
42196W        W13867  31.594  35.074   0.524
42197W        W13868   1.417  32.110  13.489
42198W        W13869   0.999   7.133  14.889
42199W        W13870  39.950  30.283   1.348
42200W        W13871  38.887   5.736  13.078
42201W        W13872  23.039   1.920  12.400
42202W        W13873   4.193  28.020  12.054
42203W        W13874   5.343   3.608   5.055
42204W        W13875  13.068  19.071  11.220
42205W        W13876  24.554  38.899  10.350
42206W        W13877  31.892  10.847  12.166
42207W        W13878  19.287   7.212  13.024
42208W        W13879  25.468   5.861   3.900
42209W        W13880  12.830  25.970   4.256
42210W        W13881  26.021  33.554   3.424
42211W        W13882  37.434  17.851  11.897
42212W        W13883  17.297  14.189  11.555
42213W        W13884  24.599  28.088   4.438
42214W        W13885  37.389  40.908   1.245
42215W        W13886  44.349  17.575  14.336
42216W        W13887  41.436  32.911  12.114
42217W        W13888  32.364  19.369  11.528
42218W        W13889   4.052  14.051   4.041
42219W        W13890  32.661  19.435  12.415
42220W        W13891  27.178  22.377  11.393
42221W        W13892  24.977  30.517   3.199
42222W        W13893  31.746  41.359   1.719
42223W        W13894  30.238  38.087   3.076
42224W        W13895  32.595  13.052   2.328
42225W        W13896  33.165  16.311  12.532
42226W        W13897  18.513  29.679  13.410
42227W        W13898  24.598  23.048   4.656
42228W        W13899  33.000   7.299   4.436
42229W        W13900  15.451   9.290  10.181
42230W        W13901  12.012  44.051  12.580
42231W        W13902   1.349   5.136   3.340
42232W        W13903  30.403  12.603  12.295
42233W        W13904  23.133  42.663  11.833
42234W        W13905  38.395  10.735   0.915
42235W        W13906  33.006  31.165  13.002
42236W        W13907  37.392  11.077   1.705
42237W        W13908  18.201  24.412   4.164
42238W        W13909  10.165  15.064  12.209
42239W        W13910  21.444  30.091  14.590
42240W        W13911  19.173  34.820  11.166
42241W        W13912  34.269  41.385  14.315
42242W        W13913   6.464   7.417   0.904
42243W        W13914  31.075  29.119   4.934
42244W        W13915  41.873  38.483  14.027
42245W        W13916   3.703  23.608   2.660
42246W        W13917  15.881  21.518   3.651
42247W        W13918  20.755  10.792  12.040
42248W        W13919  32.430  34.425  13.524
42249W        W13920  42.540  11.176  14.799
42250W        W13921  17.538  29.635   0.458
42251W        W13922  15.104  29.053  12.764
42252W        W13923  35.333  35.400   0.851
42253W        W13924  17.881  16.221  13.380
42254W        W13925   5.625  32.973   0.680
42255W        W13926  26.958   1.836   0.007
42256W        W13927  26.711  14.612   4.899
42257W        W13928  25.968  28.600   3.329
42258W        W13929  39.409  13.720  11.189
42259W        W13930   6.929  17.703  14.234
42260W        W13931  11.254  17.783   0.753
42261W        W13932  19.289  40.965  14.017
42262W        W13933  14.205  15.108  14.555
42263W        W13934   8.062  37.435   1.892
42264W        W13935  41.480  42.121  12.500
42265W        W13936  33.131  26.706   3.740
42266W        W13937  33.374  31.706  11.318
42267W        W13938   7.879  34.652  11.172
42268W        W13939   4.136  13.442   0.290
42269W        W13940  13.227   8.421  13.333
42270W        W13941  30.591  11.370   1.865
42271W        W13942  44.967  41.808   2.698
42272W        W13943  18.591   1.499   0.376
42273W        W13944  13.701  26.452  14.481
42274W        W13945  28.230  44.331  10.659
42275W        W13946  13.231  11.677   2.873
42276W        W13947  32.935   8.173   2.665
42277W        W13948  32.852  31.126  11.350
42278W        W13949  14.849  32.353   1.795
42279W        W13950   6.444   6.702   2.447
42280W        W13951  41.195  37.601  12.037
42281W        W13952  22.207  14.837  12.684
42282W        W13953   1.475   3.106   1.191
42283W        W13954  38.397  38.281   1.428
42284W        W13955  20.977  16.211   0.781
42285W        W13956  37.615  14.118  11.061
42286W        W13957   3.246  34.904   1.139
42287W        W13958  13.369  43.119   4.689
42288W        W13959   6.171  13.358  12.118
42289W        W13960  23.633  43.710   2.079
42290W        W13961  15.194  36.694  13.420
42291W        W13962  43.190  25.666  14.218
42292W        W13963  19.638   6.658  13.594
42293W        W13964  38.407  33.569   0.346
42294W        W13965  20.660   1.238  12.988
42295W        W13966   7.701  29.725   4.035
42296W        W13967  10.688  32.948  12.297
42297W        W13968   5.666  10.914   2.209
42298W        W13969  23.796  36.375   4.130
42299W        W13970  12.206  27.453  12.841
42300W        W13971  17.821  12.752  10.081
42301W        W13972  34.628  12.206  11.035
42302W        W13973  29.355   7.808  14.958
42303W        W13974  24.736  15.831   2.283
42304W        W13975  30.031   7.126  13.380
42305W        W13976  12.580  39.866  14.496
42306W        W13977  36.555   5.988   4.048
42307W        W13978  36.792  23.692   2.824
42308W        W13979  44.471  16.811   1.163
42309W        W13980   6.832   9.595   0.478
42310W        W13981  43.838  36.828  14.089
42311W        W13982  23.340  28.607   3.714
42312W        W13983   1.207   4.454  12.344
42313W        W13984  15.236  13.894   0.119
42314W        W13985  42.898   4.781  12.891
42315W        W13986   6.132  13.281   0.331
42316W        W13987  42.294  24.276   1.846
42317W        W13988  33.727  43.561  11.366
42318W        W13989  10.094   9.372  14.825
42319W        W13990  17.822  12.095  14.923
42320W        W13991  25.140  26.927   3.993
42321W        W13992   7.213  15.677  10.738
42322W        W13993  11.907   3.279   0.056
42323W        W13994  20.839  16.713  12.441
42324W        W13995  35.405  23.927  13.401
42325W        W13996  27.142   0.353   1.722
42326W        W13997  43.472  28.583   0.937
42327W        W13998  17.816  14.842   0.741
42328W        W13999  13.707  29.122  13.367
42329W        W14000  14.576  34.174  13.897
42330W        W14001  36.212  34.189  12.005
42331W        W14002  41.179  44.261   3.435
42332W        W14003  34.518  18.691   4.590
42333W        W14004  34.009  26.473  14.049
42334W        W14005  34.883  34.039   2.386
42335W        W14006  23.163  16.631   3.074
42336W        W14007   6.277  29.126   3.543
42337W        W14008  24.055  44.715  10.651
42338W        W14009  43.471   3.367   4.116
42339W        W14010   8.777  42.503  12.870
42340W        W14011   2.559  18.598  13.475
42341W        W14012  27.214  39.905   2.437
42342W        W14013   8.373  23.943   1.840
42343W        W14014   9.777  16.603  11.238
42344W        W14015   4.238  33.965   4.205
42345W        W14016   9.144  15.778   2.911
42346W        W14017  11.614  34.623  11.649
42347W        W14018  14.442  16.100  10.777
42348W        W14019  29.493  41.623  13.086
42349W        W14020  35.011  42.690   5.266
42350W        W14021  25.336  15.333  12.032
42351W        W14022  33.618  44.850  13.800
42352W        W14023   7.956  27.764   4.350
42353W        W14024  23.524  39.342   0.616
42354W        W14025   9.440  19.757   0.711
42355W        W14026  10.763  17.451  14.799
42356W        W14027  39.822   6.867  10.819
42357W        W14028  30.339  39.497  14.930
42358W        W14029  19.751  29.452  11.368
42359W        W14030   1.330  37.758  12.541
42360W        W14031  40.955  42.525   0.296
42361W        W14032  25.270  22.666  11.254
42362W        W14033  32.729  36.808   4.598
42363W        W14034   0.520  35.329  11.639
42364W        W14035  40.784  26.320   4.032
42365W        W14036  22.948  32.006   4.119
42366W        W14037  12.654  22.529   0.523
42367W        W14038   2.520  37.009   1.429
42368W        W14039  44.475  34.388   0.220
42369W        W14040   5.935  10.464   4.262
42370W        W14041  43.959  26.211   2.135
42371W        W14042  34.203  42.595  11.267
42372W        W14043  15.266  20.853  10.708
42373W        W14044  12.532  31.099  12.585
42374W        W14045  20.546  15.479  12.147
42375W        W14046   4.758  30.076   3.647
42376W        W14047  39.887   2.938  12.873
42377W        W14048  23.506  21.277   1.189
42378W        W14049  25.679  36.796   2.015
42379W        W14050  40.427  32.817   4.027
42380W        W14051   7.698  19.569  13.335
42381W        W14052   8.109  43.669  12.546
42382W        W14053  19.244   9.934  10.644
42383W        W14054   5.254  16.161  11.119
42384W        W14055  38.572  27.950   0.258
42385W        W14056  13.996  20.780   2.792
42386W        W14057  34.002   5.105   0.200
42387W        W14058  32.976  37.641  12.399
42388W        W14059  29.537  28.413   1.197
42389W        W14060  42.282  20.477   2.931
42390W        W14061  22.694   0.662  12.580
42391W        W14062  36.624  36.580  13.234
42392W        W14063  18.310   5.421   1.366
42393W        W14064  42.044  34.162  12.065
42394W        W14065  41.543   4.258   0.231
42395W        W14066  38.484  29.421  10.699
42396W        W14067  13.564  23.477  11.037
42397W        W14068  18.508  35.062   1.640
42398W        W14069  41.550  34.981  11.120
42399W        W14070  33.055  28.553  13.098
42400W        W14071   2.457  14.282   0.888
42401W        W14072  12.304   3.241   2.844
42402W        W14073  17.682  12.276   9.889
42403W        W14074  15.820   3.938  14.046
42404W        W14075   6.590   0.021  13.039
42405W        W14076  26.365  34.109   1.012
42406W        W14077  43.909  42.604  13.902
42407W        W14078   0.761   0.509  11.142
42408W        W14079  38.975   4.012   0.242
42409W        W14080   4.881  23.454   3.335
42410W        W14081  35.828  14.554  12.988
42411W        W14082  34.647  29.458   0.941
42412W        W14083   7.073  25.124   4.594
42413W        W14084  33.062  18.745   3.331
42414W        W14085   0.009  18.177   2.764
42415W        W14086  29.467   6.969   1.304
42416W        W14087  23.239  38.465   1.756
42417W        W14088   4.720  36.049  14.205
42418W        W14089  22.646  37.920  13.441
42419W        W14090   3.724  21.692   9.970
42420W        W14091  23.256   9.127   1.422
42421W        W14092  32.066  28.177  14.706
42422W        W14093  37.587  42.578   4.200
42423W        W14094  35.487  14.284  13.868
42424W        W14095  27.089  18.358   4.446
42425W        W14096  20.544  11.153  10.393
42426W        W14097  38.059  42.448   3.848
42427W        W14098  35.131  31.050   1.312
42428W        W14099  39.434   7.577   3.178
42429W        W14100  29.055  25.629  10.333
42430W        W14101  13.386  29.074   2.696
42431W        W14102   4.477  14.309   2.783
42432W        W14103  10.865  21.006   2.725
42433W        W14104  44.102   2.719   4.083
42434W        W14105  29.632  37.363   0.920
42435W        W14106  10.107  32.553  10.565
42436W        W14107  40.734   6.163  12.192
42437W        W14108  21.966  30.319  11.649
42438W        W14109   9.882  35.509  10.534
42439W        W14110  11.975  21.110   4.531
42440W        W14111   2.465  17.566  13.370
42441W        W14112  12.997  37.536   3.736
42442W        W14113  43.899  13.755   2.317
42443W        W14114  22.014  17.710  13.844
42444W        W14115  12.335  17.519   3.124
42445W        W14116   7.762  40.929   0.010
42446W        W14117   8.947   3.933   2.692
42447W        W14118  19.893  18.679   3.775
42448W        W14119  20.952  15.790  14.591
42449W        W14120  30.688  27.977  13.393
42450W        W14121   0.658  12.214   2.811
42451W        W14122  28.583  40.380   1.625
42452W        W14123  30.056   3.131  10.906
42453W        W14124  42.367   4.884   3.581
42454W        W14125  14.371  12.212  10.647
42455W        W14126  22.917  19.487   5.051
42456W        W14127   9.699  24.613  14.889
42457W        W14128  41.971  32.165  11.143
42458W        W14129  40.458   9.705   0.396
42459W        W14130  18.881  32.467   2.901
42460W        W14131  41.262  21.267   0.775
42461W        W14132  24.755  31.910  13.919
42462W        W14133  38.570   9.329  10.639
42463W        W14134   4.802  33.319  10.607
42464W        W14135  11.036  12.178  14.510
42465W        W14136  27.141   4.847   0.519
42466W        W14137   8.163   6.732   3.372
42467W        W14138  37.874  20.002  10.767
42468W        W14139  40.961  22.046   4.919
42469W        W14140  36.272  35.392  12.613
42470W        W14141  13.428   1.154   1.328
42471W        W14142  21.052  15.586  11.444
42472W        W14143   2.403  41.992  11.640
42473W        W14144  20.652  20.215   2.172
42474W        W14145  39.586  12.789  12.777
42475W        W14146  25.837  34.389  14.393
42476W        W14147  37.022  18.701   4.833
42477W        W14148  38.948   4.717  11.427
42478W        W14149  23.807  12.170  14.981
42479W        W14150  25.056  30.801  11.162
42480W        W14151  11.457   4.641  13.815
42481W        W14152  14.615  32.733  11.824
42482W        W14153  37.769  22.050  13.512
42483W        W14154  24.764   4.753  14.015
42484W        W14155  23.657   4.062   3.729
42485W        W14156   7.981  15.129  13.644
42486W        W14157  24.161  23.714   0.565
42487W        W14158  32.934  16.851   3.178
42488W        W14159  17.193   5.849   2.329
42489W        W14160   5.741  22.932  12.944
42490W        W14161   7.128  14.786   0.022
42491W        W14162   6.441  27.486   2.679
42492W        W14163  14.739  19.308  14.901
42493W        W14164  44.564  40.495   4.964
42494W        W14165  35.564  10.604  12.528
42495W        W14166  36.585  41.890   0.583
42496W        W14167  16.493  25.741  11.525
42497W        W14168  37.462  42.860   0.465
42498W        W14169  44.737  30.530  11.943
42499W        W14170  22.245  35.885  13.308
42500W        W14171  38.204  14.231   0.879
42501W        W14172  43.531  17.890   0.937
42502W        W14173   7.493  16.324   4.859
42503W        W14174   7.222  29.491  13.465
42504W        W14175  14.647  31.595   3.219
42505W        W14176  34.937  34.403   1.697
42506W        W14177  26.333  30.390   0.462
42507W        W14178  23.086  27.589   2.672
42508W        W14179  31.812  11.968   3.585
42509W        W14180  12.245   9.406   0.505
42510W        W14181  12.331   6.695  14.124
42511W        W14182   2.364   3.482  13.995
42512W        W14183  35.557  36.603  14.357
42513W        W14184  18.057   5.148   2.498
42514W        W14185   3.299   1.576   2.218
42515W        W14186  20.538  11.639  14.781
42516W        W14187  31.526  17.333   2.884
42517W        W14188  39.434   1.968   2.370
42518W        W14189  44.412  11.625  10.927
42519W        W14190  25.396  33.095   2.305
42520W        W14191   3.076  23.480  13.031
42521W        W14192  26.422  40.308   2.736
42522W        W14193  13.643  19.059   0.483
42523W        W14194  33.399   8.299  10.631
42524W        W14195  36.522  17.243  12.054
42525W        W14196   2.936  30.085   0.304
42526W        W14197  17.393  25.517  11.013
42527W        W14198  19.619  41.855   3.069
42528W        W14199  26.864  17.061  12.865
42529W        W14200   3.392  14.264  11.846
42530W        W14201   5.842   1.179  12.841
42531W        W14202  44.414   1.998  12.014
42532W        W14203  10.597  36.813  13.864
42533W        W14204  38.964  35.067  14.963
42534W        W14205  19.203   9.105  14.970
42535W        W14206  25.560  35.461  12.015
42536W        W14207  32.324  41.430   0.451
42537W        W14208  13.715  40.836   4.634
42538W        W14209  44.269  38.829  14.371
42539W        W14210  13.648  28.601   2.593
42540W        W14211  19.375  19.204  13.915
42541W        W14212  17.355  19.124   4.096
42542W        W14213   8.199  21.158   3.752
42543W        W14214  40.017  44.485   2.346
42544W        W14215   9.707  34.931  12.597
42545W        W14216  29.127  26.036   3.106
42546W        W14217  44.474   3.270  11.603
42547W        W14218  17.743  25.933  13.747
42548W        W14219  40.484  20.529  14.338
42549W        W14220   1.338   1.282  13.665
42550W        W14221  29.327  41.853  11.258
42551W        W14222  43.732  26.953   3.763
42552W        W14223  33.572  13.647   4.762
42553W        W14224  38.704  16.195   1.398
42554W        W14225  13.740  38.073   2.797
42555W        W14226   3.254  14.347   1.346
42556W        W14227  19.750  17.024   2.691
42557W        W14228   0.848  30.695   2.795
42558W        W14229  34.290  29.984  11.579
42559W        W14230   6.329  26.335  11.500
42560W        W14231   7.831  17.672   0.170
42561W        W14232  21.734  13.967  11.183
42562W        W14233  16.781  23.204   4.080
42563W        W14234  36.286   5.733   2.818
42564W        W14235  15.626   9.834   2.828
42565W        W14236  40.470   0.685  13.271
42566W        W14237  12.207   2.345   1.317
42567W        W14238  27.664   0.464   3.169
42568W        W14239  18.575  38.189  11.174
42569W        W14240  44.440   1.679  12.454
42570W        W14241  20.059  28.702  14.903
42571W        W14242  14.655  22.998   0.926
42572W        W14243  38.711  10.349  14.460
42573W        W14244  26.558  19.798  12.544
42574W        W14245  37.567  11.544   4.156
42575W        W14246  10.830   0.913   3.892
42576W        W14247   0.203   1.496  14.093
42577W        W14248  19.502  13.376   0.843
42578W        W14249  17.316  18.660   2.356
42579W        W14250  19.293  30.896  13.837
42580W        W14251  21.671  22.222  13.528
42581W        W14252  32.625  42.542  10.466
42582W        W14253   9.447  10.317   2.111
42583W        W14254  18.040  32.082   4.708
42584W        W14255  10.638  18.766  13.064
42585W        W14256  15.134  16.381   3.618
42586W        W14257  41.883  44.992   4.480
42587W        W14258  38.368  35.574   1.303
42588W        W14259  44.467   0.695  14.866
42589W        W14260  17.213   5.183  11.935
42590W        W14261  37.073  27.422  12.977
42591W        W14262  35.652   7.945   4.235
42592W        W14263  41.003  32.577  11.337
42593W        W14264   0.259  25.505  11.237
42594W        W14265  38.885  18.296  11.094
42595W        W14266  35.557  16.722   4.563
42596W        W14267  36.167  39.604   0.787
42597W        W14268  20.769  16.464  11.944
42598W        W14269  28.418   2.332   0.974
42599W        W14270  44.445   2.804  10.705
42600W        W14271  19.570  40.448   3.281
42601W        W14272  32.194  15.740   2.218
42602W        W14273  41.234   1.326   2.705
42603W        W14274  14.712  44.660   4.115
42604W        W14275  35.591  22.001  12.427
42605W        W14276   5.467  10.180  12.733
42606W        W14277   7.847   7.385  13.112
42607W        W14278  28.873  15.164  12.037
42608W        W14279  36.426  19.046   2.838
42609W        W14280  43.578  23.894   9.763
42610W        W14281  14.712   0.576   3.200
42611W        W14282  43.312  20.263   1.411
42612W        W14283  27.892   5.689  14.479
42613W        W14284   3.685  25.042   0.270
42614W        W14285  19.144  38.384  13.772
42615W        W14286  41.648  32.968   0.996
42616W        W14287  11.740  10.052  10.801
42617W        W14288  28.873  26.119   1.730
42618W        W14289  33.230  17.861   3.367
42619W        W14290  19.780  39.039   1.315
42620W        W14291  18.204  18.002   3.574
42621W        W14292  39.020   3.156   5.182
42622W        W14293  18.212  36.203   4.005
42623W        W14294  35.297  31.859  10.245
42624W        W14295  36.576  25.885  13.766
42625W        W14296   1.785  38.617   2.816
42626W        W14297  30.092  27.901   1.833
42627W        W14298  19.575  39.573  12.504
42628W        W14299  43.906   9.559   3.147
42629W        W14300   2.767  13.740   2.752
42630W        W14301  33.977  21.483   1.391
42631W        W14302  34.730   0.209   5.130
42632W        W14303  30.156  18.845   3.667
42633W        W14304  29.483  31.689   3.506
42634W        W14305   8.731  14.479   2.398
42635W        W14306  19.556  18.074  13.129
42636W        W14307  37.836  25.072  11.084
42637W        W14308  23.088  16.710  12.112
42638W        W14309  27.672  10.788  12.884
42639W        W14310   3.706  18.753   0.415
42640W        W14311  42.996   7.818   5.055
42641W        W14312  40.788  23.167  12.918
42642W        W14313  38.357  29.971   1.254
42643W        W14314  15.753  24.094  12.943
42644W        W14315  39.283  39.905   4.054
42645W        W14316  37.051   2.491  12.584
42646W        W14317  38.310  38.008   0.977
42647W        W14318  28.483  28.513  14.034
42648W        W14319  34.546  36.876  13.602
42649W        W14320  26.049  21.323   3.186
42650W        W14321  39.478  27.715   2.289
42651W        W14322   9.795   4.365  14.374
42652W        W14323  42.211   4.764   4.937
42653W        W14324  25.604  25.747   4.714
42654W        W14325  31.915  18.789  11.633
42655W        W14326  38.900  42.531   1.306
42656W        W14327  41.534   9.748   4.591
42657W        W14328  39.610  13.338  11.567
42658W        W14329  26.412  27.891  12.031
42659W        W14330  37.437  38.531   1.692
42660W        W14331   5.213  28.827   0.972
42661W        W14332  37.958  42.788  11.758
42662W        W14333  32.690  41.444  13.914
42663W        W14334   4.990  44.775   0.852
42664W        W14335   7.344  21.044  13.895
42665W        W14336   2.274  21.486   2.916
42666W        W14337   3.690  38.980  10.724
42667W        W14338   6.720  40.550   3.351
42668W        W14339  44.258  14.149   4.940
42669W        W14340  26.208  19.444  14.535
42670W        W14341  21.441  41.635   2.436
42671W        W14342  16.986  44.212   4.735
42672W        W14343   6.122  11.265   4.719
42673W        W14344  27.883  39.925   3.156
42674W        W14345  21.523  14.243  10.518
42675W        W14346   2.577   7.763   4.574
42676W        W14347  35.818  41.388  14.410
42677W        W14348  34.559  10.279   3.602
42678W        W14349  36.843  26.389  12.954
42679W        W14350   9.866  33.726  11.656
42680W        W14351  25.301  17.540   3.087
42681W        W14352   8.449   4.889  14.811
42682W        W14353  16.134   8.317  11.170
42683W        W14354  13.239  16.551   4.230
42684W        W14355  31.491  23.005   3.851
42685W        W14356  22.733  15.692   2.280
42686W        W14357   4.893  28.101  14.818
42687W        W14358  27.541   5.942  13.309
42688W        W14359  18.287  33.098   0.312
42689W        W14360  14.583   5.790   0.725
42690W        W14361  20.146   1.888   0.182
42691W        W14362   8.456  33.480   0.424
42692W        W14363  37.362  12.682   1.418
42693W        W14364  29.009  12.278   2.915
42694W        W14365  14.017  39.320   4.071
42695W        W14366  15.834  32.203   1.686
42696W        W14367  19.243  33.025   2.917
42697W        W14368  21.570  39.556   1.620
42698W        W14369   6.223  22.769   1.876
42699W        W14370  13.389  43.293   3.262
42700W        W14371  31.140  17.208  14.407
42701W        W14372  44.353  15.696   2.003
42702W        W14373  28.155   8.271   4.511
42703W        W14374  19.561  31.622   0.495
42704W        W14375  31.180  12.211   2.850
42705W        W14376  34.787  34.500   9.868
42706W        W14377  25.956  31.170  13.408
42707W        W14378  16.680  44.585  11.144
42708W        W14379  36.779  41.974   2.748
42709W        W14380  38.046  11.284   3.270
42710W        W14381  23.112  36.643   3.729
42711W        W14382   3.667  16.200  14.171
42712W        W14383  25.807   4.363   1.631
42713W        W14384  44.520  35.448   3.716
42714W        W14385  30.424   0.274  12.959
42715W        W14386  17.850   7.460  11.485
42716W        W14387  13.675  14.340   1.312
42717W        W14388  36.828  29.680  12.023
42718W        W14389  42.054  16.303   2.872
42719W        W14390  18.192  18.151  12.591
42720W        W14391  27.519  10.668   0.480
42721W        W14392  44.323  30.092   4.396
42722W        W14393   7.845   3.012   3.213
42723W        W14394  35.647  34.038  13.024
42724W        W14395  34.931   8.184   3.740
42725W        W14396   1.923  33.664  12.908
42726W        W14397   5.071   4.208  10.400
42727W        W14398   3.371   0.590  14.120
42728W        W14399  11.609  37.863   0.958
42729W        W14400  36.999  33.869  11.619
42730W        W14401  40.424  35.943   4.156
42731W        W14402  32.001  12.390  11.022
42732W        W14403   6.374   1.552   3.727
42733W        W14404  35.911  41.452  12.051
42734W        W14405  21.254  38.593  14.849
42735W        W14406   1.340  42.585   2.460
42736W        W14407  44.163  39.759  14.336
42737W        W14408   3.096  28.769  13.748
42738W        W14409  31.620  17.966  10.691
42739W        W14410  36.575  41.335  14.861
42740W        W14411  27.846  31.788   4.708
42741W        W14412  41.897  33.649   2.723
42742W        W14413  31.419   6.514  13.616
42743W        W14414  34.933  22.872   1.824
42744W        W14415  41.746  44.463  13.572
42745W        W14416  19.721   8.975  14.854
42746W        W14417  39.512  27.023   2.329
42747W        W14418   8.423  42.217   1.754
42748W        W14419  20.638   0.454  10.818
42749W        W14420   7.270   1.177   1.208
42750W        W14421  29.467  18.110  13.040
42751W        W14422  13.134   5.749  12.013
42752W        W14423  29.606  41.023  12.101
42753W        W14424  23.727  40.945   2.373
42754W        W14425  13.321  20.046   1.212
42755W        W14426   5.824  36.421   4.116
42756W        W14427  36.982  41.730  13.849
42757W        W14428  17.680  10.614   3.625
42758W        W14429  19.622  25.696  10.434
42759W        W14430  28.504   7.475   3.624
42760W        W14431  43.795  15.626   1.789
42761W        W14432  25.646  16.871   2.370
42762W        W14433  40.379  23.607  13.843
42763W        W14434   4.847   8.121   1.209
42764W        W14435  43.830  25.248   3.794
42765W        W14436   2.296  26.204   1.596
42766W        W14437   9.622  43.076   0.472
42767W        W14438  17.969   8.659  11.233
42768W        W14439  26.387   5.540   4.620
42769W        W14440  40.438  38.518   2.899
42770W        W14441  19.740  28.855  14.483
42771W        W14442  29.838  32.931  11.617
42772W        W14443  30.876  43.969  13.902
42773W        W14444   1.267  44.743  11.845
42774W        W14445   4.440  24.925   1.865
42775W        W14446  22.651  15.552   1.767
42776W        W14447  13.808  35.345   3.397
42777W        W14448  34.411  18.508  11.034
42778W        W14449  42.100  24.014   2.666
42779W        W14450  30.120  25.042   0.583
42780W        W14451  44.077  35.986  10.147
42781W        W14452  28.153  13.352  13.930
42782W        W14453  26.983  17.231   1.372
42783W        W14454  22.139  26.906   1.428
42784W        W14455  32.157  42.742  11.138
42785W        W14456  40.463   1.929   0.211
42786W        W14457  28.577  26.069   3.610
42787W        W14458  38.774   9.827  14.411
42788W        W14459  24.776  34.612  14.388
42789W        W14460  14.187  21.489  13.337
42790W        W14461  27.672  40.785  13.023
42791W        W14462  39.083  30.026   0.456
42792W        W14463  12.762  22.475   1.891
42793W        W14464   0.743   3.130   1.775
42794W        W14465  11.249  41.027  12.509
42795W        W14466  18.471  33.554  13.049
42796W        W14467  30.503  40.750  14.247
42797W        W14468  41.211  39.310  10.019
42798W        W14469   3.396  23.273  11.228
42799W        W14470  43.699  17.321   4.468
42800W        W14471  26.977   1.857  14.490
42801W        W14472  15.187  37.306   0.300
42802W        W14473  18.181  31.745   0.435
42803W        W14474  19.552  18.752  12.142
42804W        W14475  43.620  38.259   0.971
42805W        W14476  36.077  18.507  10.440
42806W        W14477   7.619   6.683  10.733
42807W        W14478  15.526  34.691  11.558
42808W        W14479  34.846  21.817   0.650
42809W        W14480   1.329  18.092  10.468
42810W        W14481  15.112  16.817  12.443
42811W        W14482  21.320  17.914   1.606
42812W        W14483  17.065   6.829   1.008
42813W        W14484  12.656  24.910   2.194
42814W        W14485  10.637  21.244  11.311
42815W        W14486  29.698   2.935  10.564
42816W        W14487  40.614  17.800  14.524
42817W        W14488  20.751  11.278  11.890
42818W        W14489   0.419   5.746  14.665
42819W        W14490  39.138  26.161  10.856
42820W        W14491  44.313  15.411   0.678
42821W        W14492   0.911  11.333   1.489
42822W        W14493  40.395   7.933  13.086
42823W        W14494   9.539   7.736  11.938
42824W        W14495  40.089  35.574  10.529
42825W        W14496   5.894  21.344   4.108
42826W        W14497   1.271  44.500   1.301
42827W        W14498  16.612   6.890  11.475
42828W        W14499  44.826  33.792   2.872
42829W        W14500  25.487  21.385   0.372
42830W        W14501  15.358  15.657   3.777
42831W        W14502   5.367  29.039   0.521
42832W        W14503   2.981  43.791  13.924
42833W        W14504  35.009  33.117   4.131
42834W        W14505   2.642  34.738  14.922
42835W        W14506   0.941  23.769   1.347
42836W        W14507  27.480  20.130  14.220
42837W        W14508   6.387  12.790   1.951
42838W        W14509  28.081  20.682  14.614
42839W        W14510  16.225  35.129  14.791
42840W        W14511   6.264  42.407   1.352
42841W        W14512  36.566  33.379   1.743
42842W        W14513  33.992  34.384   2.871
42843W        W14514  24.333  40.575   2.015
42844W        W14515   3.191  41.096  14.082
42845W        W14516  26.632  29.886  13.387
42846W        W14517  35.311   2.188  13.476
42847W        W14518  42.774  33.667   3.672
42848W        W14519  16.221  30.074   1.168
42849W        W14520   8.128   0.177  10.719
42850W        W14521  16.078  40.399   2.880
42851W        W14522  37.937   0.929  12.237
42852W        W14523  38.866   4.718  14.341
42853W        W14524   7.244  26.969   2.909
42854W        W14525   6.771  26.139   1.296
42855W        W14526  29.323   0.866   1.188
42856W        W14527  21.167   8.687  13.598
42857W        W14528  40.313  35.313   0.200
42858W        W14529   7.334  43.512   2.855
42859W        W14530  41.979  19.296  12.453
42860W        W14531   1.464  14.571   3.681
42861W        W14532  26.859  18.816   4.180
42862W        W14533  38.048  34.920   2.375
42863W        W14534  18.763  29.904   2.364
42864W        W14535   5.831  13.116  14.293
42865W        W14536   4.917  26.999   0.834
42866W        W14537   4.604   2.338   2.630
42867W        W14538   7.174  41.897  13.536
42868W        W14539  41.942  44.386  11.754
42869W        W14540  15.843   1.278   3.789
42870W        W14541  14.242  40.482  11.635
42871W        W14542   4.483  28.477  11.982
42872W        W14543  13.969  20.960   0.493
42873W        W14544  10.699  41.684   3.869
42874W        W14545   6.581  25.573  11.680
42875W        W14546  43.348   7.216   2.766
42876W        W14547  19.054  25.875   2.169
42877W        W14548  22.413  34.154   5.072
42878W        W14549  24.559   9.693   0.754
42879W        W14550  12.799   8.760  11.233
42880W        W14551  31.559  27.114   1.976
42881W        W14552  23.570  29.215  14.818
42882W        W14553   1.660  36.767  11.273
42883W        W14554  15.672  40.206   2.531
42884W        W14555  35.826  15.317   0.521
42885W        W14556  30.090  42.888  14.716
42886W        W14557   9.089  43.546   1.683
42887W        W14558  36.823  38.558  13.343
42888W        W14559  25.836  17.044  10.171
42889W        W14560  30.058   3.176   5.017
42890W        W14561   9.967  23.993  13.130
42891W        W14562   1.213   8.665  11.331
42892W        W14563  14.183  23.038   0.073
42893W        W14564   6.196   1.775   0.065
42894W        W14565  14.659  39.336   1.245
42895W        W14566  30.795  13.071  11.572
42896W        W14567  27.703   5.893   3.596
42897W        W14568   9.734  26.042  12.547
42898W        W14569  35.927  18.384   4.202
42899W        W14570  11.683  29.094  13.576
42900W        W14571   6.150  13.609   3.707
42901W        W14572  30.116   3.849   0.990
42902W        W14573  28.910  44.913   3.235
42903W        W14574  33.326  24.702  13.079
42904W        W14575   5.497   4.849  12.958
42905W        W14576  28.284  28.891  13.038
42906W        W14577  41.718  36.008  11.180
42907W        W14578  43.952  43.114  14.013
42908W        W14579   4.171  12.880   1.235
42909W        W14580  10.257  41.473   9.620
42910W        W14581  10.816  16.879   0.691
42911W        W14582  40.854  28.519  11.055
42912W        W14583  24.457  30.189   3.248
42913W        W14584  42.527  21.614  14.959
42914W        W14585  20.148  22.697  13.798
42915W        W14586  41.307   6.615   1.374
42916W        W14587  22.161  25.244   9.943
42917W        W14588  41.013  18.909   4.981
42918W        W14589  11.120  20.760  12.294
42919W        W14590   6.399  15.735  11.119
42920W        W14591  11.273  15.613  12.109
42921W        W14592   5.978  33.413   3.651
42922W        W14593   9.108  39.572   4.093
42923W        W14594   6.849  44.025  14.631
42924W        W14595  39.048  24.187  11.450
42925W        W14596  24.481  43.976   2.620
42926W        W14597  10.268  40.024  11.226
42927W        W14598  11.590   3.428   3.487
42928W        W14599   3.299  42.077   2.145
42929W        W14600  19.138   3.750  12.857
42930W        W14601  44.230   4.295   1.236
42931W        W14602  43.903   2.466  14.405
42932W        W14603  30.557  20.682  12.454
42933W        W14604  43.643  32.707  12.414
42934W        W14605  44.499  28.585   0.546
42935W        W14606   3.184  14.921   4.568
42936W        W14607   7.812  18.103   3.782
42937W        W14608  20.360  19.057  11.994
42938W        W14609  44.236  35.373  13.197
42939W        W14610  28.549  24.940   1.779
42940W        W14611   7.587  40.378   4.291
42941W        W14612  35.388  29.216   1.382
42942W        W14613  42.362  12.836  11.502
42943W        W14614  21.734  18.185  10.786
42944W        W14615  28.899  35.547  10.736
42945W        W14616  41.062  39.628   5.398
42946W        W14617  33.427  14.800   3.725
42947W        W14618  26.375  35.442   4.580
42948W        W14619   3.556  13.674  12.415
42949W        W14620  19.011   2.702  10.787
42950W        W14621   0.520  15.337   3.317
42951W        W14622   6.673  37.397  11.586
42952W        W14623  13.257  28.942  10.649
42953W        W14624   0.967   5.439   0.298
42954W        W14625  14.657  36.118   4.752
42955W        W14626  43.308   3.747   3.339
42956W        W14627  43.897  13.212  10.423
42957W        W14628  39.995  14.542   2.898
42958W        W14629  18.122  20.376  13.944
42959W        W14630  32.021  17.302   4.586
42960W        W14631  40.907  21.265  11.529
42961W        W14632   2.817   8.079   1.407
42962W        W14633   2.418  16.511   2.401
42963W        W14634   9.300  37.897   1.480
42964W        W14635   6.341   6.450   5.177
42965W        W14636  23.548  13.297   2.271
42966W        W14637  41.462  22.500  11.602
42967W        W14638  29.617  35.954  11.409
42968W        W14639  34.996   1.450  10.840
42969W        W14640  34.169  26.975   3.246
42970W        W14641  11.486  24.292   3.346
42971W        W14642   8.330   5.617   0.331
42972W        W14643  41.393  23.101   4.294
42973W        W14644  11.539   7.340  10.406
42974W        W14645  43.553  13.037   1.314
42975W        W14646   0.507  32.448   3.911
42976W        W14647  43.713   1.848   0.870
42977W        W14648  30.115   7.643   2.383
42978W        W14649  13.105  20.544   4.895
42979W        W14650  10.151  30.034  13.783
42980W        W14651   9.243  34.879  10.599
42981W        W14652  19.542  22.399   4.752
42982W        W14653  22.232  37.371   4.456
42983W        W14654  22.877   8.318  13.479
42984W        W14655  33.857  35.564   1.395
42985W        W14656  10.072  35.618   0.366
42986W        W14657  32.427  17.027  11.408
42987W        W14658  11.870   1.289  11.154
42988W        W14659  14.863  22.991   3.630
42989W        W14660   7.947  38.895  11.861
42990W        W14661  43.653  10.280   0.841
42991W        W14662  29.241  22.693   0.953
42992W        W14663  39.362   7.821  11.280
42993W        W14664   1.967  22.440  10.546
42994W        W14665  34.764   4.583   4.233
42995W        W14666  10.082  26.196   3.432
42996W        W14667   3.760  44.829  14.998
42997W        W14668   2.912  13.689  11.608
42998W        W14669  12.157  16.647  12.217
42999W        W14670   5.240  44.451   2.091
43000W        W14671  22.338  24.744   4.630
43001W        W14672   3.853   4.217   3.345
43002W        W14673  19.325  34.107   2.651
43003W        W14674  44.051   2.889   3.615
43004W        W14675  37.679  14.986   1.147
43005W        W14676  36.941   0.326   4.588
43006W        W14677   9.887  21.619  12.917
43007W        W14678   5.283  28.493  11.203
43008W        W14679  16.818  41.864   4.862
43009W        W14680  44.513  14.068  12.495
43010W        W14681  32.886  27.527   1.764
43011W        W14682  37.436  35.195  14.962
43012W        W14683  24.007  23.424   3.505
43013W        W14684  38.574  24.072  12.810
43014W        W14685   9.468   9.424  12.471
43015W        W14686  40.554  41.883   3.131
43016W        W14687  25.404  37.338   2.225
43017W        W14688  10.079  12.135   0.907
43018W        W14689   1.944  44.842  12.415
43019W        W14690  43.278  31.808  11.114
43020W        W14691   1.357   2.014  12.695
43021W        W14692  42.408  40.836  12.520
43022W        W14693  41.048  36.988  13.514
43023W        W14694  13.858   2.991  10.727
43024W        W14695  34.432   9.710  11.902
43025W        W14696  29.550   2.272   3.578
43026W        W14697  42.340  10.092   0.770
43027W        W14698  29.527  27.460   3.919
43028W        W14699  19.788  42.929   0.810
43029W        W14700   8.756  12.879  12.600
43030W        W14701  44.906  22.272   5.168
43031W        W14702  32.814  25.697   4.737
43032W        W14703   9.695  37.286   0.386
43033W        W14704  39.631  15.563   3.244
43034W        W14705   1.935  34.552  13.396
43035W        W14706  13.216  44.886   4.490
43036W        W14707   4.806  24.614  13.518
43037W        W14708   7.798   5.931   1.810
43038W        W14709  21.422   5.906   3.630
43039W        W14710  24.652   0.061  12.404
43040W        W14711   5.096  24.756  12.033
43041W        W14712   4.135  13.720  14.397
43042W        W14713  19.970  26.485  13.910
43043W        W14714   9.421  22.453  14.419
43044W        W14715  35.408  21.628   4.558
43045W        W14716  40.446  14.301   1.619
43046W        W14717  15.145  12.519   4.237
43047W        W14718  22.553  11.622  11.582
43048W        W14719  24.047  33.621  13.265
43049W        W14720   4.387   8.537   5.142
43050W        W14721  36.475  18.709   1.173
43051W        W14722   1.669  23.589   2.838
43052W        W14723  20.584   8.136  12.526
43053W        W14724  10.200  19.614   0.111
43054W        W14725   8.592  38.386   2.994
43055W        W14726  41.080  42.783  12.573
43056W        W14727  11.615  17.370   0.734
43057W        W14728  16.350  18.815  10.785
43058W        W14729   8.379   3.532  12.576
43059W        W14730   2.801  17.822   4.356
43060W        W14731  39.490  42.529  12.078
43061W        W14732  17.074   2.658  11.585
43062W        W14733  21.727  19.133  14.533
43063W        W14734  39.005  14.212   2.297
43064W        W14735  22.259  38.127   1.778
43065W        W14736  30.748   4.703  14.777
43066W        W14737  12.900  15.537   1.876
43067W        W14738  31.535  10.148  14.037
43068W        W14739  27.875   6.630  12.526
43069W        W14740  25.681  14.086  10.884
43070W        W14741  15.786   2.317  10.646
43071W        W14742  37.942  28.094  13.567
43072W        W14743  35.820  11.073  10.759
43073W        W14744  29.008   4.237  14.248
43074W        W14745  10.480  21.499   4.102
43075W        W14746  36.257  28.668  11.316
43076W        W14747  26.614   3.974  14.876
43077W        W14748  24.894  34.838  12.154
43078W        W14749   0.484  33.364  13.948
43079W        W14750  19.390  22.031  13.831
43080W        W14751  20.008  41.928   1.691
43081W        W14752  14.630  43.694   1.362
43082W        W14753  13.644  14.729   3.629
43083W        W14754  13.760  31.330  14.532
43084W        W14755   6.004  11.628   3.612
43085W        W14756  12.170  24.739  14.627
43086W        W14757  44.567  11.731  11.380
43087W        W14758  27.819  25.072  12.136
43088W        W14759  16.500  12.593   2.359
43089W        W14760  28.953  42.229   0.992
43090W        W14761  17.260  22.620   5.048
43091W        W14762  31.823  41.766  11.110
43092W        W14763  25.984  36.431   2.303
43093W        W14764  25.301   3.328  12.905
43094W        W14765  39.756  34.625   4.276
43095W        W14766  42.357  13.980   3.548
43096W        W14767  42.500  26.867   0.703
43097W        W14768   0.470  38.736  12.956
43098W        W14769  32.347  38.438   3.301
43099W        W14770   5.926  25.359  13.531
43100W        W14771  22.930  38.585   0.213
43101W        W14772  41.078   8.678   3.518
43102W        W14773  22.547  34.605   1.737
43103W        W14774  27.564   4.871  14.279
43104W        W14775  25.716  18.600  11.968
43105W        W14776  14.165  36.548  13.272
43106W        W14777  34.127   1.379   3.547
43107W        W14778  18.993  22.255   2.330
43108W        W14779  39.562  37.325  11.157
43109W        W14780  10.133  15.601  10.701
43110W        W14781  20.342  32.035  12.586
43111W        W14782  42.197  11.823  10.336
43112W        W14783  31.023  13.582   0.860
43113W        W14784   9.197   2.664   3.729
43114W        W14785  10.893  27.230   1.526
43115W        W14786  10.357   6.750   2.189
43116W        W14787  23.216  35.372  14.405
43117W        W14788  41.290   4.850  12.071
43118W        W14789  44.138  10.658  10.178
43119W        W14790  30.966  40.012   1.963
43120W        W14791  37.868  35.627  13.633
43121W        W14792   8.388   6.427  14.890
43122W        W14793  18.682  42.774   3.584
43123W        W14794   0.944  38.113   2.049
43124W        W14795  24.961  29.521  12.049
43125W        W14796   3.506  13.436   2.369
43126W        W14797  14.753   9.409   3.815
43127W        W14798   6.915  17.774   0.200
43128W        W14799  33.287  13.036   3.327
43129W        W14800   0.751  36.529   2.776
43130W        W14801  34.816  28.791   4.470
43131W        W14802  32.257  30.462   1.194
43132W        W14803   6.269  16.819   2.370
43133W        W14804  36.954   2.384   3.397
43134W        W14805  38.565  13.733   0.060
43135W        W14806  13.722  36.263   2.639
43136W        W14807  23.143  30.164   3.738
43137W        W14808  27.969  17.172  10.602
43138W        W14809  35.898   8.745   0.842
43139W        W14810   0.601   1.390   2.042
43140W        W14811  44.200  32.924  12.989
43141W        W14812  31.220  30.607  13.754
43142W        W14813  28.439   1.662   0.240
43143W        W14814  19.738   7.427   0.836
43144W        W14815  15.815  32.739  12.432
43145W        W14816  21.090  32.495   0.671
43146W        W14817  25.673  34.103  11.134
43147W        W14818   7.657  17.215   0.349
43148W        W14819  19.535   9.956  11.537
43149W        W14820  26.882  25.551  10.757
43150W        W14821  20.801  40.835  14.138
43151W        W14822  10.896  39.416   4.696
43152W        W14823  21.657  12.334   5.009
43153W        W14824  33.791  29.493   3.246
43154W        W14825   7.757   5.334   3.378
43155W        W14826  40.643  15.846  14.442
43156W        W14827  34.412  10.309   1.526
43157W        W14828  28.599  36.071  13.315
43158W        W14829  18.722  26.225  14.030
43159W        W14830  36.577  35.302   3.233
43160W        W14831  12.715  28.626   3.304
43161W        W14832  32.279  33.931   4.684
43162W        W14833  20.027  34.678   0.727
43163W        W14834   5.906  21.148  13.531
43164W        W14835  42.393  42.928   1.858
43165W        W14836  20.175  23.761   2.295
43166W        W14837  32.468  17.932  12.555
43167W        W14838  20.629  30.709  14.404
43168W        W14839  41.858   8.424   4.219
43169W        W14840   5.314   7.465   2.011
43170W        W14841  15.636   7.232  10.638
43171W        W14842   1.290  41.576   0.876
43172W        W14843  36.474   7.255   4.622
43173W        W14844  17.683  22.167  13.325
43174W        W14845  27.896  23.830  14.402
43175W        W14846  42.373  35.046   3.626
43176W        W14847   7.825  39.827  11.808
43177W        W14848  18.873  25.781   2.685
43178W        W14849  37.998  15.340   3.527
43179W        W14850  40.280  19.754  11.107
43180W        W14851  43.568  24.752  14.283
43181W        W14852  33.351   4.689   4.187
43182W        W14853  21.198  42.582   4.674
43183W        W14854  35.016  44.350  14.621
43184W        W14855  19.586  19.509   2.785
43185W        W14856  19.100  39.532   4.301
43186W        W14857  44.338   3.257  13.381
43187W        W14858  24.998   2.146  11.975
43188W        W14859  11.090  23.907  12.531
43189W        W14860  22.298  15.441   4.300
43190W        W14861   7.053   2.469  13.562
43191W        W14862  24.442  37.374   5.007
43192W        W14863  23.999  27.106   4.586
43193W        W14864  33.883  31.621  12.036
43194W        W14865  31.907  31.920  12.733
43195W        W14866  44.910   1.395  12.483
43196W        W14867  43.879   2.893   1.358
43197W        W14868  21.571  21.494  14.464
43198W        W14869  41.025   6.720  13.031
43199W        W14870  43.678  39.320   1.747
43200W        W14871   3.364  23.669  13.449
43201W        W14872  15.170  26.560   4.117
43202W        W14873  10.236  39.429  13.885
43203W        W14874  44.271  35.513   4.159
43204W        W14875  14.694  18.917   4.982
43205W        W14876  19.320   9.288  13.427
43206W        W14877   4.505  19.367  10.990
43207W        W14878   1.487  32.926   0.545
43208W        W14879  16.260  30.555   1.910
43209W        W14880  41.347  21.003  11.590
43210W        W14881  28.193   9.782  13.845
43211W        W14882  28.792  10.101  14.531
43212W        W14883  44.483  19.467   3.760
43213W        W14884  28.961  33.255   0.750
43214W        W14885  44.261  16.152  11.802
43215W        W14886  12.574   9.677  12.322
43216W        W14887  23.498  42.316  10.691
43217W        W14888  23.644  33.625   4.582
43218W        W14889  40.801  23.631   2.713
43219W        W14890  44.106  33.159   2.615
43220W        W14891  44.841  41.617  10.385
43221W        W14892  22.546  36.861   2.601
43222W        W14893  39.688  10.289   1.010
43223W        W14894  23.632  25.058  10.632
43224W        W14895  21.084  19.716  14.841
43225W        W14896  37.419  16.570  13.090
43226W        W14897  26.071  13.804   3.990
43227W        W14898  17.017   6.019   1.766
43228W        W14899  22.189  19.712  13.935
43229W        W14900  19.796   5.711   1.310
43230W        W14901  31.445  23.471   3.622
43231W        W14902   1.197  41.796  10.578
43232W        W14903  44.841  44.213   0.523
43233W        W14904  29.114  19.232  13.536
43234W        W14905  12.771  12.178   1.515
43235W        W14906  41.840  22.982  14.902
43236W        W14907  39.924  16.699  12.268
43237W        W14908   2.784  20.486   2.701
43238W        W14909  40.586  16.544   2.449
43239W        W14910   4.969  34.270  12.709
43240W        W14911  33.206  40.301  11.605
43241W        W14912  12.173   0.299   3.588
43242W        W14913  31.423  42.334  12.549
43243W        W14914  33.563  23.683   1.273
43244W        W14915  33.836  26.591  13.561
43245W        W14916  25.908  43.834  12.329
43246W        W14917  12.656  19.324   4.125
43247W        W14918  44.450   5.019   2.032
43248W        W14919  26.354  32.456   3.285
43249W        W14920  42.545  39.391  13.864
43250W        W14921  35.862  14.280   2.433
43251W        W14922   5.904  41.755  11.947
43252W        W14923  41.272  27.970   2.701
43253W        W14924  28.113   9.192   0.369
43254W        W14925  15.108  18.994   2.750
43255W        W14926  15.177  44.711   0.925
43256W        W14927  36.000  37.885  11.924
43257W        W14928  12.799  11.219   4.892
43258W        W14929  11.471  16.104  12.979
43259W        W14930  20.556  13.575   4.310
43260W        W14931  15.795  22.096  10.262
43261W        W14932  26.155  29.910  12.984
43262W        W14933  27.064   6.111  13.435
43263W        W14934  39.312   3.918  13.553
43264W        W14935   8.792  29.597   1.749
43265W        W14936  24.887  19.247   1.513
43266W        W14937  12.393  24.225  13.784
43267W        W14938  11.029   3.409  14.533
43268W        W14939  18.560  37.140   1.548
43269W        W14940  34.643  37.123   3.156
43270W        W14941  40.310  40.056   0.234
43271W        W14942  13.675   1.162   0.308
43272W        W14943  14.249  22.800   2.609
43273W        W14944  32.595  13.328   4.153
43274W        W14945  43.988  42.248  14.892
43275W        W14946  34.708   3.711  11.511
43276W        W14947   5.425  12.368   0.903
43277W        W14948   7.376   3.330  14.956
43278W        W14949  16.201  13.469  14.281
43279W        W14950   6.465  32.631   2.768
43280W        W14951   2.445  26.647   1.329
43281W        W14952  32.065   3.283  13.548
43282W        W14953   2.629  40.023  10.657
43283W        W14954   6.322  15.042  12.457
43284W        W14955  26.554  15.022   1.781
43285W        W14956   3.732  23.453  12.459
43286W        W14957  35.346  32.044   1.637
43287W        W14958  31.962  14.318   0.372
43288W        W14959  36.613  39.224  11.485
43289W        W14960  30.425  37.551   4.546
43290W        W14961  31.845  19.075  12.081
43291W        W14962   5.409  15.279   2.209
43292W        W14963  31.898  11.536  10.173
43293W        W14964   4.818   0.808   3.226
43294W        W14965  32.953  31.417   0.248
43295W        W14966  29.518  12.619   1.604
43296W        W14967  29.032  17.864  14.865
43297W        W14968  35.171   8.005  11.168
43298W        W14969  33.342  25.681  13.464
43299W        W14970  34.452  25.987   4.579
43300W        W14971  35.481  44.792   1.415
43301W        W14972  17.753  11.118   2.861
43302W        W14973   0.212  40.879  13.927
43303W        W14974   7.506   8.866   3.284
43304W        W14975  19.431  22.362  12.923
43305W        W14976  35.438  35.592   2.411
43306W        W14977  31.498  14.138   5.074
43307W        W14978  29.527  19.487   4.143
43308W        W14979  31.087  22.053  13.417
43309W        W14980  10.875  19.726   0.916
43310W        W14981  34.663  29.771  12.494
43311W        W14982  30.522  40.017   1.667
43312W        W14983   9.815  25.138  14.883
43313W        W14984   5.057  22.689   0.739
43314W        W14985   4.468   4.362  13.511
43315W        W14986  25.377  36.748  10.645
43316W        W14987  44.696   6.794   1.410
43317W        W14988  22.693  17.508  14.398
43318W        W14989   9.741  24.929   4.749
43319W        W14990   0.786  17.889   1.953
43320W        W14991  36.575  30.880   4.005
43321W        W14992  11.891  33.367  13.532
43322W        W14993  26.035  23.605   2.113
43323W        W14994  24.488  33.795   1.929
43324W        W14995  20.264   8.637  13.530
43325W        W14996   7.427   6.755  12.418
43326W        W14997   3.301  39.554   3.311
43327W        W14998  22.220  35.552   0.095
43328W        W14999   3.314  18.824   2.193
43329W        W15000  22.597  18.759  14.246
43330W        W15001  36.629  42.705   0.717
43331W        W15002  44.299  12.047  13.071
43332W        W15003  14.239   4.720  12.891
43333W        W15004  30.091  15.335  13.915
43334W        W15005  23.452   7.826   2.266
43335W        W15006  17.437   3.863  11.560
43336W        W15007  18.884  19.171  11.088
43337W        W15008  30.734  29.547  11.795
43338W        W15009  22.410   2.678   4.143
43339W        W15010   4.712  11.190  11.531
43340W        W15011  15.875  31.468  13.955
43341W        W15012  13.487   0.730   2.481
43342W        W15013   1.976  10.271   2.874
43343W        W15014  16.245  21.169  11.695
43344W        W15015  32.516   4.192  14.522
43345W        W15016   9.250  29.010   4.634
43346W        W15017  12.182  16.028   4.839
43347W        W15018  22.669   3.495   3.156
43348W        W15019  16.928  20.937   4.210
43349W        W15020  39.546   1.092  13.489
43350W        W15021  38.907  28.039  13.551
43351W        W15022  16.048  24.525  12.936
43352W        W15023   3.837  30.542   4.755
43353W        W15024   6.399   0.772  14.613
43354W        W15025  12.186  36.545  10.927
43355W        W15026  19.331  21.533  11.965
43356W        W15027   8.176  26.689   2.625
43357W        W15028  12.106  17.550  12.560
43358W        W15029  31.487  10.580  12.374
43359W        W15030  27.860   7.724   0.400
43360W        W15031  29.378  26.466   2.454
43361W        W15032  35.067   8.594  14.336
43362W        W15033  36.463   9.456  14.500
43363W        W15034  28.472  27.246   1.271
43364W        W15035  16.388  23.912   2.052
43365W        W15036   2.983  30.110   3.236
43366W        W15037  12.640  38.521  13.629
43367W        W15038  22.999  17.217   2.343
43368W        W15039   5.854  25.158  11.732
43369W        W15040  16.999  28.907  14.982
43370W        W15041  41.875  29.049  13.861
43371W        W15042  11.190   7.504   0.427
43372W        W15043  31.089  17.291  10.103
43373W        W15044  25.545   5.242   2.636
43374W        W15045  29.850  19.221   4.944
43375W        W15046  41.227  13.174   1.310
43376W        W15047  23.554  39.267  11.645
43377W        W15048  31.632   3.612   4.540
43378W        W15049  25.388  34.052   2.348
43379W        W15050  16.233   9.717   4.908
43380W        W15051   8.904   4.437   2.767
43381W        W15052  39.332  44.386   0.460
43382W        W15053   4.476  32.287   0.521
43383W        W15054  12.278  21.955  12.400
43384W        W15055  13.785  12.618   2.774
43385W        W15056  42.889  24.048  11.534
43386W        W15057  12.689  30.494   1.351
43387W        W15058  32.536  31.692   0.873
43388W        W15059  35.626  26.694   2.323
43389W        W15060  26.111  35.792   0.188
43390W        W15061  21.590  38.444  14.037
43391W        W15062  28.219   5.252  12.797
43392W        W15063  26.545  18.318   3.677
43393W        W15064  34.232  38.057   3.193
43394W        W15065  29.363  34.061  13.747
43395W        W15066  24.048   2.435  13.011
43396W        W15067   1.278  16.670  13.533
43397W        W15068   9.593  10.471  10.607
43398W        W15069  14.241  31.205  12.028
43399W        W15070   0.451  35.055   4.141
43400W        W15071   9.835  35.263   3.289
43401W        W15072   2.057  36.176   2.770
43402W        W15073  18.280  13.125   3.289
43403W        W15074  11.624  32.480  12.493
43404W        W15075   8.371   6.711  14.305
43405W        W15076  41.924  29.296  10.773
43406W        W15077  39.091  24.102   2.893
43407W        W15078  41.333   0.003   4.547
43408W        W15079  15.168   2.885  13.874
43409W        W15080   5.657  14.746  13.578
43410W        W15081  31.212  37.998   3.787
43411W        W15082  33.268  10.372  12.302
43412W        W15083   6.230  39.254   0.844
43413W        W15084  21.672   7.709  11.524
43414W        W15085  37.674  39.891   3.245
43415W        W15086   3.847   8.220   4.608
43416W        W15087  44.578  22.584   3.316
43417W        W15088  19.616  29.567  10.874
43418W        W15089  16.797  41.895   2.859
43419W        W15090   0.397   4.815   4.822
43420W        W15091   7.966   7.364  14.998
43421W        W15092  16.335  11.101   2.332
43422W        W15093  16.874  37.577  10.806
43423W        W15094  38.458  11.293   1.751
43424W        W15095  20.381  15.605  13.934
43425W        W15096  33.854  17.127  11.949
43426W        W15097   6.257  33.915  13.854
43427W        W15098  42.928  42.924   1.920
43428W        W15099  11.249  12.817   2.622
43429W        W15100  35.748  25.576  13.939
43430W        W15101   2.870  21.766   3.212
43431W        W15102  18.754  38.156  12.082
43432W        W15103   4.381  42.500  12.013
43433W        W15104  38.478  41.433   0.056
43434W        W15105   2.635  44.023   4.102
43435W        W15106  26.452  34.136  14.947
43436W        W15107  42.251  28.248   0.925
43437W        W15108   2.844   4.738   4.665
43438W        W15109  24.223  36.076   0.910
43439W        W15110  13.140  36.825  12.085
43440W        W15111  36.301  13.034   4.352
43441W        W15112  33.477  17.066  14.249
43442W        W15113  11.993  14.077  11.505
43443W        W15114  36.351  15.137  14.317
43444W        W15115  16.014  40.133  11.819
43445W        W15116  32.889  31.377   3.292
43446W        W15117   9.185  10.895  11.899
43447W        W15118  25.860  37.558  13.044
43448W        W15119  16.090  27.604   2.586
43449W        W15120  16.101  31.549  13.491
43450W        W15121   7.617  14.294   3.259
43451W        W15122  42.085  40.294   0.037
43452W        W15123  10.933  33.107   4.180
43453W        W15124  42.470  43.678  10.728
43454W        W15125   1.436  24.920   4.857
43455W        W15126   0.973  42.966  13.859
43456W        W15127   3.721  27.410   2.396
43457W        W15128  35.391   7.997   3.571
43458W        W15129  13.339  43.736  11.450
43459W        W15130  30.021  39.631   1.334
43460W        W15131  14.565  14.138   2.666
43461W        W15132  25.009   8.705   0.305
43462W        W15133  14.827   1.336  12.641
43463W        W15134  16.770  43.458   2.730
43464W        W15135  21.474  20.816  12.888
43465W        W15136  29.592   3.119   2.506
43466W        W15137  29.691  15.118  10.798
43467W        W15138   9.542  27.176   3.437
43468W        W15139   4.753  10.057   0.334
43469W        W15140  19.027   5.640  13.952
43470W        W15141   7.740  32.499  11.472
43471W        W15142   9.811  21.214  10.681
43472W        W15143  27.739   6.934   1.580
43473W        W15144  14.617  33.490   1.183
43474W        W15145  15.885  29.720   0.381
43475W        W15146  29.102  12.208   3.434
43476W        W15147  39.938   0.511  13.000
43477W        W15148   6.508  29.590   4.816
43478W        W15149  13.818  24.200  14.305
43479W        W15150  28.576  42.296  14.796
43480W        W15151  36.987  25.882  13.143
43481W        W15152  33.236  25.442   4.613
43482W        W15153  41.026  11.112  13.748
43483W        W15154  34.269  44.475   2.707
43484W        W15155   4.999  14.374  10.643
43485W        W15156  16.794  44.521   1.606
43486W        W15157   0.331   0.165  13.754
43487W        W15158  35.052   2.468  11.850
43488W        W15159  12.775  36.557   2.436
43489W        W15160  26.012  15.784   3.662
43490W        W15161   6.314  11.786  14.728
43491W        W15162  28.364  33.098   1.565
43492W        W15163   1.381  32.350   3.167
43493W        W15164  27.173  18.130   0.243
43494W        W15165  23.127  27.860   0.851
43495W        W15166  38.502  14.582   4.588
43496W        W15167   4.252  41.056   2.732
43497W        W15168  44.017  22.977   1.371
43498W        W15169  10.338  40.020   2.639
43499W        W15170  43.878   3.483   0.500
43500W        W15171   8.838  32.406  14.029
43501W        W15172   2.828  26.417  14.440
43502W        W15173   1.337  43.092   2.818
43503W        W15174  32.349   5.196  11.176
43504W        W15175  29.268  37.397   2.898
43505W        W15176  27.815   4.220   1.413
43506W        W15177   9.226  39.321  10.594
43507W        W15178  11.183   6.172  10.824
43508W        W15179  30.988  32.948   0.692
43509W        W15180  16.793  24.486  11.177
43510W        W15181  11.319  17.887   3.175
43511W        W15182  37.842   3.820   1.961
43512W        W15183  31.844  38.998   9.985
43513W        W15184  14.053  33.798  12.769
43514W        W15185  27.988  17.477   2.296
43515W        W15186  37.314  34.357  12.430
43516W        W15187  29.436   2.661   0.792
43517W        W15188  43.672  42.914   4.124
43518W        W15189   2.666  39.542   0.410
43519W        W15190   8.785   5.650  10.409
43520W        W15191  27.954   3.206   2.544
43521W        W15192   3.422  17.689  14.753
43522W        W15193  34.142  20.741   0.891
43523W        W15194  10.076  24.215   0.950
43524W        W15195  24.717  44.874  12.960
43525W        W15196   3.833  18.309  11.310
43526W        W15197   2.158   0.796  11.273
43527W        W15198   1.027  25.869  11.139
43528W        W15199  27.569  28.103  13.989
43529W        W15200  19.829  36.076   4.641
43530W        W15201  11.080  22.832   4.150
43531W        W15202  14.873   2.525   0.939
43532W        W15203  28.246   3.439  11.576
43533W        W15204  12.654  25.014  14.750
43534W        W15205  13.736  22.603   1.194
43535W        W15206  30.191  17.355   3.296
43536W        W15207  24.910  13.120   0.126
43537W        W15208   5.951  38.794   5.133
43538W        W15209  28.615   7.377  10.252
43539W        W15210   1.939   5.920   1.688
43540W        W15211  21.994  29.389  12.022
43541W        W15212  41.792   1.322  11.060
43542W        W15213  30.569   6.967  11.410
43543W        W15214  32.359   9.306  13.371
43544W        W15215  29.031   6.914   0.371
43545W        W15216  20.550   2.239   0.239
43546W        W15217  26.061  44.912   2.758
43547W        W15218  38.626  36.489   4.132
43548W        W15219   6.253  22.303   4.145
43549W        W15220  31.836  40.071   4.803
43550W        W15221  32.962  17.203  14.279
43551W        W15222  10.613   5.830  12.965
43552W        W15223  25.618  31.666  13.882
43553W        W15224  41.277   9.611  12.876
43554W        W15225  42.229  15.129  14.051
43555W        W15226  12.279   6.377   0.943
43556W        W15227  19.886  21.977  13.179
43557W        W15228   0.954  42.958   4.084
43558W        W15229   5.421  38.296  12.648
43559W        W15230   3.218  19.028  14.649
43560W        W15231   9.309  11.757   4.335
43561W        W15232   7.216   0.783   1.975
43562W        W15233  35.033  29.326   2.134
43563W        W15234  43.745  38.333   5.139
43564W        W15235  38.548  32.986  12.391
43565W        W15236  40.758  29.542   3.160
43566W        W15237  25.504   0.806   3.588
43567W        W15238  15.571  31.695  12.466
43568W        W15239  21.239   6.918   4.258
43569W        W15240  17.908   7.490   2.704
43570W        W15241  26.696   6.836  14.901
43571W        W15242  21.147  28.759  11.591
43572W        W15243  26.543  11.581   1.247
43573W        W15244  39.086  33.919  12.557
43574W        W15245  24.261  15.737   0.892
43575W        W15246  30.635  16.238  13.823
43576W        W15247   8.694  42.312  10.605
43577W        W15248   4.431   7.725   1.870
43578W        W15249   7.265   5.466   2.404
43579W        W15250   5.371  36.023   2.676
43580W        W15251  37.496   6.678  12.201
43581W        W15252  14.739  31.851   1.737
43582W        W15253  15.837   0.305  11.627
43583W        W15254  28.020  23.278   3.291
43584W        W15255  26.388  37.418   2.164
43585W        W15256  21.764   0.541   4.686
43586W        W15257  11.646  30.592   1.223
43587W        W15258   3.794  24.507   3.574
43588W        W15259  15.228   1.079  10.979
43589W        W15260   2.859  11.139  14.729
43590W        W15261  44.775  22.170  10.665
43591W        W15262  19.053  27.898   1.349
43592W        W15263  15.344   1.797   1.545
43593W        W15264  17.015  12.469  14.362
43594W        W15265  31.543  21.473   0.952
43595W        W15266  12.122  20.921   0.269
43596W        W15267  38.576   8.906  11.023
43597W        W15268  44.421  12.981  13.398
43598W        W15269  22.331  26.328   2.773
43599W        W15270   0.490  27.611  12.972
43600W        W15271  43.865   5.403  11.165
43601W        W15272  42.373  38.965  12.274
43602W        W15273  37.069  38.949  12.586
43603W        W15274  41.289   3.380  13.805
43604W        W15275  28.574   0.733   4.292
43605W        W15276   8.144  14.361  11.114
43606W        W15277  36.074  34.110   1.279
43607W        W15278  42.396   6.014  12.220
43608W        W15279  43.971  23.248  11.549
43609W        W15280   7.965  18.032   1.887
43610W        W15281  19.516   3.458   1.794
43611W        W15282  10.624   9.777   0.757
43612W        W15283   1.830  42.346  12.135
43613W        W15284  30.095  24.676  12.114
43614W        W15285  10.921  11.254   0.460
43615W        W15286  26.949  30.961  12.961
43616W        W15287  17.388  44.767   4.166
43617W        W15288   8.074  21.957   1.791
43618W        W15289   0.280  37.470   0.602
43619W        W15290  43.789  13.385   5.046
43620W        W15291  21.564  36.685   4.513
43621W        W15292   3.671   2.086  11.990
43622W        W15293  15.545  18.754  11.216
43623W        W15294   9.718  22.456  12.558
43624W        W15295  18.746  10.658  10.767
43625W        W15296  32.028   1.840   2.028
43626W        W15297  36.836   3.023  11.507
43627W        W15298  37.486  22.485   3.693
43628W        W15299   8.959  30.144   4.124
43629W        W15300  38.008  14.386   4.547
43630W        W15301  39.354  40.457  12.972
43631W        W15302  39.135  34.409   1.788
43632W        W15303  10.311  29.698   0.465
43633W        W15304  17.304   7.579   4.555
43634W        W15305   0.973  40.956  14.650
43635W        W15306  30.515  25.674  12.977
43636W        W15307  41.564  24.996  10.810
43637W        W15308  42.814  29.961  14.708
43638W        W15309  26.353  32.065   4.613
43639W        W15310  18.256  10.262  14.847
43640W        W15311  15.263  42.840  11.160
43641W        W15312  38.589  26.157   2.518
43642W        W15313  16.106  15.198   2.748
43643W        W15314  22.289  44.418  13.986
43644W        W15315   5.328  37.521   3.282
43645W        W15316  41.386  38.625   3.394
43646W        W15317   4.169  31.897  10.856
43647W        W15318  13.627  19.037  13.024
43648W        W15319   6.130  32.325  12.216
43649W        W15320  10.191  15.785   2.878
43650W        W15321  24.282  26.470   3.884
43651W        W15322  22.401  20.858   3.160
43652W        W15323  20.420  19.794  11.649
43653W        W15324  13.284  43.543  12.912
43654W        W15325  30.598  32.453  14.046
43655W        W15326  11.381  39.529  12.536
43656W        W15327  37.460  33.097   0.535
43657W        W15328  16.236   2.339  12.346
43658W        W15329   9.191  32.474  11.437
43659W        W15330  36.897  11.259  13.233
43660W        W15331  44.803  40.627   1.909
43661W        W15332  29.151  10.640  12.086
43662W        W15333  39.353  28.788  11.787
43663W        W15334  30.045   4.405  13.048
43664W        W15335  35.612   7.241  14.320
43665W        W15336  41.253  34.345  13.895
43666W        W15337  14.213   2.777   1.278
43667W        W15338  25.143  21.469   1.268
43668W        W15339   3.991  33.907   4.664
43669W        W15340  12.720  36.397  12.995
43670W        W15341  20.701  27.588   1.426
43671W        W15342  21.878  35.120  14.375
43672W        W15343  21.559  44.045   3.232
43673W        W15344  26.903  15.580  13.388
43674W        W15345  11.718  15.621   0.062
43675W        W15346  24.315  10.792   0.611
43676W        W15347   4.295  12.805   4.268
43677W        W15348  41.200  11.923  14.899
43678W        W15349  32.547  42.029  10.652
43679W        W15350   5.400   7.198  14.478
43680W        W15351  32.667   5.214   0.693
43681W        W15352  40.836  39.065   2.172
43682W        W15353   1.690  41.320  11.140
43683W        W15354   2.159  20.565  12.202
43684W        W15355   6.268  37.605  13.459
43685W        W15356  14.274  13.677  14.371
43686W        W15357  23.932  28.543  12.730
43687W        W15358  31.654  28.718   1.333
43688W        W15359  29.406  26.658   3.285
43689W        W15360  11.909  15.714   5.624
43690W        W15361  19.077  42.583   4.273
43691W        W15362  44.777  41.269  11.881
43692W        W15363  33.954  23.985   0.999
43693W        W15364  40.846  21.558   1.515
43694W        W15365   5.847  32.131  11.110
43695W        W15366   0.579  26.573  11.562
43696W        W15367  44.320  35.420   0.168
43697W        W15368  35.023  44.452  13.554
43698W        W15369   4.912  27.575   1.484
43699W        W15370  13.059  19.660   3.359
43700W        W15371   7.715  14.755  11.395
43701W        W15372   5.829  13.297   3.104
43702W        W15373  27.407  25.121   4.406
43703W        W15374  42.879  29.128   2.757
43704W        W15375   3.856  17.290   4.519
43705W        W15376  32.922   9.135   2.754
43706W        W15377  21.015  42.708  14.190
43707W        W15378  31.778  10.160   4.094
43708W        W15379  25.794  39.338   0.880
43709W        W15380  21.546  11.242  10.195
43710W        W15381  16.741  44.854  14.900
43711W        W15382  25.566  21.556  12.932
43712W        W15383   2.937  11.127   3.574
43713W        W15384   4.829   6.973  10.724
43714W        W15385  29.759  29.673   1.954
43715W        W15386  24.727  30.099  14.799
43716W        W15387   4.611  35.832  13.455
43717W        W15388  17.573   7.948   4.837
43718W        W15389  24.217  38.174   2.403
43719W        W15390  32.896   5.480   1.923
43720W        W15391  40.038   0.856   3.587
43721W        W15392  27.202  11.282  10.715
43722W        W15393  39.622  32.667  13.071
43723W        W15394  43.388  29.183  11.797
43724W        W15395  37.154  13.678   0.475
43725W        W15396  23.573  42.667   3.706
43726W        W15397   8.272   6.278   4.760
43727W        W15398  42.416  39.818   0.905
43728W        W15399  40.993  26.417  14.069
43729W        W15400  13.886  36.419  12.334
43730W        W15401  13.798  23.504  10.563
43731W        W15402  34.140  36.613  11.156
43732W        W15403  33.044   7.900  13.781
43733W        W15404  32.575   2.712  12.535
43734W        W15405  33.495  26.045   1.167
43735W        W15406  20.079  21.040  11.172
43736W        W15407  41.866  20.156  14.309
43737W        W15408   3.498   8.595   0.842
43738W        W15409  17.702  18.972   2.236
43739W        W15410  14.782  10.381   1.964
43740W        W15411  14.290  37.372   4.130
43741W        W15412  31.127  25.972   3.134
43742W        W15413  23.964  37.725  10.327
43743W        W15414  13.083  22.591   4.124
43744W        W15415   5.855  13.785   5.020
43745W        W15416   8.697  35.155  11.246
43746W        W15417  25.955  26.937  13.527
43747W        W15418   0.941  12.601  12.573
43748W        W15419  17.076  10.059   0.283
43749W        W15420  17.824   2.772   3.243
43750W        W15421  43.359  42.165   2.268
43751W        W15422   0.961  35.671   2.803
43752W        W15423  28.676  41.922   4.894
43753W        W15424  32.341  12.689  14.281
43754W        W15425  31.003   1.738  14.688
43755W        W15426  31.489  32.124   0.655
43756W        W15427  26.246  34.465   4.683
43757W        W15428   6.469   1.794   2.744
43758W        W15429  32.164  28.552  13.386
43759W        W15430  13.201  33.501   4.318
43760W        W15431  42.741  37.973   0.745
43761W        W15432  36.077  40.888   2.773
43762W        W15433  41.363  40.928   3.104
43763W        W15434   9.173  20.049  14.810
43764W        W15435   3.737  13.814   3.290
43765W        W15436  17.250   4.815  13.583
43766W        W15437   9.719  39.455  14.057
43767W        W15438   0.422  34.512   4.075
43768W        W15439  25.058   0.286   3.280
43769W        W15440  18.020  35.876   2.256
43770W        W15441  24.155  37.739   1.987
43771W        W15442  43.751  34.837   4.537
43772W        W15443  26.177  23.020  13.400
43773W        W15444  41.446  30.130  14.571
43774W        W15445  37.236  38.773  13.075
43775W        W15446  28.683   3.662   4.460
43776W        W15447  10.918   5.407  12.887
43777W        W15448  24.627  24.958  12.366
43778W        W15449  43.880  40.517   2.327
43779W        W15450   2.220   8.607  14.374
43780W        W15451  28.309  18.231  13.936
43781W        W15452  21.710  27.955  12.901
43782W        W15453   9.631  30.879  14.293
43783W        W15454  33.866  39.513   4.238
43784W        W15455  32.006  43.619  11.518
43785W        W15456  35.465   9.570   2.290
43786W        W15457   8.203  11.662   3.857
43787W        W15458  10.166   0.703  14.000
43788W        W15459  13.745   1.970  10.677
43789W        W15460  14.330  14.368   1.808
43790W        W15461   0.113  33.354   0.493
43791W        W15462  18.740  18.855   4.476
43792W        W15463   0.369  23.260  14.579
43793W        W15464   6.225  10.234  10.910
43794W        W15465  23.844   1.019   2.369
43795W        W15466  28.642  24.767   4.220
43796W        W15467  43.054  41.808  11.540
43797W        W15468  40.008  39.552   2.668
43798W        W15469   6.160  41.344  12.166
43799W        W15470   3.183   1.084  14.124
43800W        W15471  37.124   1.279  12.934
43801W        W15472   3.443  35.658   2.931
43802W        W15473   0.210   2.782   0.397
43803W        W15474  36.685  44.761   2.926
43804W        W15475  34.101  21.606  14.791
43805W        W15476  29.932  20.721   1.353
43806W        W15477   0.966  22.071  11.103
43807W        W15478  44.485  41.988   0.904
43808W        W15479  42.274  26.651   2.171
43809W        W15480  16.862  38.251  14.452
43810W        W15481  13.437  10.160   1.960
43811W        W15482   6.048  24.191  12.147
43812W        W15483  22.478  33.077   4.790
43813W        W15484  21.683  44.185  14.875
43814W        W15485  22.504  41.197  12.842
43815W        W15486  39.910  37.965  12.038
43816W        W15487  21.870  44.865  11.928
43817W        W15488  23.773  32.580  14.624
43818W        W15489   1.513   4.365   1.949
43819W        W15490  41.882  41.309  12.441
43820W        W15491   8.273  41.593   0.347
43821W        W15492  22.586  23.414   4.922
43822W        W15493  36.410   2.972   0.250
43823W        W15494   0.694  43.327  14.100
43824W        W15495   2.024  18.729  11.991
43825W        W15496  22.418  28.862  11.194
43826W        W15497  21.569   0.491   1.692
43827W        W15498   6.247   0.733   1.917
43828W        W15499  24.979  27.291  14.866
43829W        W15500  26.928   1.953   1.913
43830W        W15501   9.162  36.122   0.031
43831W        W15502   3.443  34.675  12.893
43832W        W15503   6.102  37.310  10.509
43833W        W15504   4.202   5.760  13.799
43834W        W15505  39.925  14.767   0.961
43835W        W15506   5.271  17.747   0.241
43836W        W15507  43.984  24.535  10.235
43837W        W15508  11.075  37.916   0.918
43838W        W15509  33.099  19.329  12.139
43839W        W15510  11.330  28.404  12.921
43840W        W15511  40.399  16.068  14.856
43841W        W15512  11.726  17.105  10.662
43842W        W15513  13.083  34.910   1.258
43843W        W15514  11.748   6.021  10.588
43844W        W15515  43.597  27.621   0.302
43845W        W15516  43.026  31.067  14.416
43846W        W15517  17.504   4.252  14.772
43847W        W15518  16.569  35.847  11.928
43848W        W15519   9.882   8.938  10.774
43849W        W15520  31.784  43.080   4.076
43850W        W15521   3.816  41.420  11.943
43851W        W15522  41.758   7.936  13.827
43852W        W15523  16.123   0.135  10.636
43853W        W15524  23.379  28.994   2.151
43854W        W15525  27.808  38.406  10.588
43855W        W15526   3.236  15.853   1.321
43856W        W15527  33.566  43.413  14.797
43857W        W15528  23.099  13.523  14.819
43858W        W15529  11.765  28.939   0.782
43859W        W15530  29.369  12.971  11.744
43860W        W15531  25.591  41.813  13.463
43861W        W15532   1.263   4.757   3.791
43862W        W15533  36.388   6.527   2.632
43863W        W15534   6.939  25.201   4.105
43864W        W15535  39.382  41.455  13.971
43865W        W15536  10.832  28.179  14.844
43866W        W15537  19.966  43.018  12.277
43867W        W15538  39.111  23.514   3.728
43868W        W15539  40.364  10.044   3.615
43869W        W15540  13.158  30.701  11.124
43870W        W15541   8.579  42.158  12.207
43871W        W15542   1.229  12.545  11.165
43872W        W15543  40.845  38.008   1.299
43873W        W15544   6.386  21.075   0.344
43874W        W15545  21.360  35.026   3.769
43875W        W15546  12.312  11.186  10.631
43876W        W15547  33.322  19.696   2.312
43877W        W15548   0.450  11.921  12.933
43878W        W15549  24.475   4.877   3.347
43879W        W15550  23.703   1.826  11.145
43880W        W15551  13.630  21.170  14.089
43881W        W15552  28.061  34.615   0.368
43882W        W15553   2.831  30.556   0.542
43883W        W15554  24.132   9.015   3.920
43884W        W15555  43.025  25.246   3.144
43885W        W15556  36.306  30.236  13.430
43886W        W15557  38.459  27.727   3.065
43887W        W15558  25.683  28.729   2.248
43888W        W15559  40.976  10.129  14.173
43889W        W15560  36.557   6.760  13.434
43890W        W15561  37.844  17.982  11.124
43891W        W15562  35.947  21.054  13.337
43892W        W15563   3.813   7.692  13.824
43893W        W15564  34.176  18.989   3.821
43894W        W15565  15.857   6.938   4.993
43895W        W15566   2.825  37.670   4.749
43896W        W15567   3.425  20.617  14.251
43897W        W15568  31.010  18.059  13.744
43898W        W15569   8.071  35.369   0.456
43899W        W15570  36.563   2.199   0.635
43900W        W15571   8.887  26.658   1.868
43901W        W15572  22.598  37.350  12.602
43902W        W15573  24.272  33.057  11.573
43903W        W15574  37.987  39.083  11.327
43904W        W15575  36.608  18.091   4.733
43905W        W15576  32.567   0.766   0.474
43906W        W15577   8.355   2.659  12.170
43907W        W15578   0.790  34.867  14.979
43908W        W15579   1.841  24.810   0.751
43909W        W15580  36.661  22.767  12.381
43910W        W15581  21.097  16.987   2.440
43911W        W15582  36.312  40.258  14.670
43912W        W15583  29.838  40.166  11.168
43913W        W15584  25.532  19.495   5.139
43914W        W15585  39.936  39.364   0.694
43915W        W15586  18.285   0.840  12.422
43916W        W15587  44.655  39.589   4.613
43917W        W15588  14.196   6.688  11.439
43918W        W15589  39.877  18.977  10.588
43919W        W15590  24.610   1.778   4.369
43920W        W15591  33.306  22.247   1.979
43921W        W15592   5.766   6.445   0.313
43922W        W15593  28.913  17.175  11.427
43923W        W15594  26.657  12.160   3.668
43924W        W15595  32.380  16.193   2.380
43925W        W15596  42.861  28.586   0.946
43926W        W15597   1.983   7.415  14.005
43927W        W15598   2.943   4.805  13.943
43928W        W15599   4.788  34.066   0.879
43929W        W15600  35.690  21.190   4.493
43930W        W15601   4.860  20.604   3.851
43931W        W15602   0.353  34.010  13.982
43932W        W15603  36.863  33.808   3.878
43933W        W15604  44.666  22.311   0.391
43934W        W15605  12.849  44.529  11.560
43935W        W15606  13.026  23.423   9.721
43936W        W15607  18.788  29.294   0.994
43937W        W15608  11.954  27.661   1.252
43938W        W15609  40.664   1.762  11.233
43939W        W15610  39.929   6.498  11.608
43940W        W15611   6.865  12.558   1.892
43941W        W15612  25.707  31.589   2.843
43942W        W15613  17.260  30.022   1.302
43943W        W15614  38.944  44.026  10.706
43944W        W15615   1.428  16.809  14.002
43945W        W15616  25.022  34.018  14.585
43946W        W15617  28.968  37.875   0.610
43947W        W15618   6.351  19.884  12.499
43948W        W15619   2.400  21.605   5.112
43949W        W15620  36.976  32.990  12.370
43950W        W15621   1.732   7.852   1.348
43951W        W15622  11.602  19.620   2.380
43952W        W15623  14.179  16.785   4.531
43953W        W15624  40.129   2.298  14.973
43954W        W15625  25.723  24.677   4.573
43955W        W15626   6.288  19.126   4.490
43956W        W15627  17.508  32.539  12.258
43957W        W15628  11.504  32.057   4.514
43958W        W15629  13.119  36.027  14.939
43959W        W15630  34.864  30.589   1.344
43960W        W15631  39.265  43.168   3.233
43961W        W15632  28.428  16.170  13.852
43962W        W15633  32.293  27.517  14.872
43963W        W15634  41.976  24.088  13.107
43964W        W15635   7.938   5.210   1.442
43965W        W15636  40.885  34.126  12.372
43966W        W15637  32.826  27.175   0.837
43967W        W15638  10.165  42.801   4.872
43968W        W15639   3.892  23.460   3.145
43969W        W15640  26.600  38.742   2.713
43970W        W15641  26.100  15.059  11.652
43971W        W15642  10.643  38.143  11.977
43972W        W15643  40.004  44.000  12.895
43973W        W15644  35.961  29.743  10.724
43974W        W15645   5.844   7.176  14.821
43975W        W15646  30.953   8.229  12.484
43976W        W15647  14.993  12.279   2.821
43977W        W15648  24.040   5.158  11.575
43978W        W15649  29.442  14.641  10.791
43979W        W15650   3.248  41.931   5.028
43980W        W15651  19.128  12.127   4.933
43981W        W15652   2.314   7.798   4.104
43982W        W15653   2.572  26.543   4.729
43983W        W15654  32.162  34.729   4.006
43984W        W15655  37.679  39.954  14.953
43985W        W15656  16.774  36.028   0.300
43986W        W15657  39.058  16.475   1.889
43987W        W15658  41.541   6.821   0.540
43988W        W15659  29.050  10.634  10.630
43989W        W15660   6.439  38.368   2.195
43990W        W15661  24.505  23.983  14.266
43991W        W15662  31.316  10.355   4.975
43992W        W15663   8.191  24.650   2.845
43993W        W15664  20.049  25.442   4.252
43994W        W15665  33.997  17.148   4.689
43995W        W15666  17.731  34.708  14.308
43996W        W15667  10.401  10.537  13.448
43997W        W15668  15.703  43.883  11.537
43998W        W15669  17.057  29.459  10.796
43999W        W15670  44.286  14.342  11.536
44000W        W15671  18.593  42.318   1.202
44001W        W15672  35.147  29.803  12.607
44002W        W15673   9.889  27.079   1.240
44003W        W15674  28.882  19.769   4.079
44004W        W15675  17.611  32.285  13.826
44005W        W15676  14.253  41.500   1.748
44006W        W15677   8.238  15.665   4.518
44007W        W15678  37.932  37.626   1.780
44008W        W15679  25.299  25.877   1.426
44009W        W15680  32.015   3.443   2.789
44010W        W15681  10.509  27.256  14.756
44011W        W15682  26.335   8.424   5.223
44012W        W15683  22.945  40.418   1.421
44013W        W15684  10.303   0.849  10.595
44014W        W15685  25.483   1.173  14.900
44015W        W15686  23.449  11.820   1.807
44016W        W15687  35.734  24.963   1.916
44017W        W15688  43.329   4.940   2.669
44018W        W15689  26.996  34.935   0.953
44019W        W15690  36.799   1.732  11.586
44020W        W15691  10.905  23.619   3.302
44021W        W15692  35.077  37.481  10.602
44022W        W15693  19.205  30.909  13.334
44023W        W15694  23.280  20.260   4.034
44024W        W15695  32.705   1.361   1.774
44025W        W15696  16.095  23.536  14.545
44026W        W15697  20.553  20.208   3.665
44027W        W15698  26.927  18.806  12.563
44028W        W15699   5.861   7.421  14.368
44029W        W15700  10.454   6.814  11.038
44030W        W15701  28.222  37.347   1.900
44031W        W15702   2.138  31.515   0.004
44032W        W15703   7.420   4.257   3.672
44033W        W15704  36.573  40.949   4.378
44034W        W15705  14.578   3.297  11.201
44035W        W15706   3.090  19.797   0.385
44036W        W15707  23.236  18.006  14.516
44037W        W15708  19.499  35.148  12.624
44038W        W15709   8.767  24.747  14.281
44039W        W15710  19.614  28.271   4.170
44040W        W15711  40.305  33.882   4.069
44041W        W15712  10.775  31.142   3.807
44042W        W15713  36.513  43.211   0.653
44043W        W15714   7.295  34.799  13.960
44044W        W15715  39.790   9.286   1.424
44045W        W15716   8.756  25.050   0.743
44046W        W15717  29.534  44.839   3.845
44047W        W15718   3.308  23.165  11.725
44048W        W15719   9.732  34.422  12.530
44049W        W15720  43.871  26.653   2.399
44050W        W15721  26.347  23.476   3.656
44051W        W15722  39.619  26.108   0.654
44052W        W15723  38.974  11.400   2.459
44053W        W15724  33.439  20.498  14.537
44054W        W15725  11.523  39.251   0.138
44055W        W15726  32.756  23.414  11.528
44056W        W15727  35.467  37.296   4.092
44057W        W15728   0.947  41.449   4.503
44058W        W15729  35.781   9.759   3.208
44059W        W15730  42.465  17.634   1.586
44060W        W15731   4.498   7.388  12.702
44061W        W15732  17.781  41.883  13.876
44062W        W15733  41.512  39.610   1.652
44063W        W15734  39.834  30.011   4.713
44064W        W15735  39.404  38.108   0.538
44065W        W15736   1.000  29.429  10.735
44066W        W15737  24.683  10.283  13.489
44067W        W15738  34.952  21.505  13.855
44068W        W15739  37.529  40.989   3.739
44069W        W15740  15.086  41.008  13.384
44070W        W15741  37.425  44.317  12.756
44071W        W15742  32.426  14.364  10.424
44072W        W15743  10.141  40.030   0.698
44073W        W15744  32.317  39.910   4.764
44074W        W15745  38.166  29.430   1.890
44075W        W15746  27.083   7.219  14.956
44076W        W15747  11.763  35.352  10.578
44077W        W15748  35.571  16.692  10.698
44078W        W15749  34.893   6.886  13.901
44079W        W15750  17.697  16.307  11.979
44080W        W15751  41.393  29.089   2.272
44081W        W15752  24.845  35.069   2.494
44082W        W15753   4.680  12.309  12.614
44083W        W15754   2.270  38.725   4.068
44084W        W15755   2.422  40.169   2.834
44085W        W15756   2.001  17.027   3.197
44086W        W15757   0.475  35.506   2.776
44087W        W15758  10.904   4.665   3.282
44088W        W15759  28.145   1.216   0.224
44089W        W15760  11.324  30.402  14.469
44090W        W15761  43.976  24.705  12.466
44091W        W15762  26.800  25.247   2.426
44092W        W15763  25.137  10.381   4.432
44093W        W15764   7.701  32.069   1.340
44094W        W15765  44.944  32.428   2.175
44095W        W15766  25.933  19.244  11.221
44096W        W15767  14.223   0.963  13.337
44097W        W15768   0.279  31.408   0.321
44098W        W15769  23.653  27.033  13.434
44099W        W15770  17.971  27.101   2.273
44100W        W15771  17.929  23.054  13.125
44101W        W15772   9.228  13.839   4.201
44102W        W15773  20.982  32.016  11.774
44103W        W15774  32.883  36.429  12.945
44104W        W15775  12.181  15.572  10.466
44105W        W15776  11.150  25.497   0.352
44106W        W15777  36.341  42.752  14.363
44107W        W15778   4.906  35.285  13.883
44108W        W15779  34.798  19.480  11.076
44109W        W15780  28.362  21.306  14.172
44110W        W15781  34.037  15.762  14.045
44111W        W15782  39.574  32.431   3.915
44112W        W15783  22.031   6.477  10.703
44113W        W15784   1.447   5.003   9.932
44114W        W15785  10.428  34.262  14.832
44115W        W15786  16.863  19.429  10.273
44116W        W15787  23.414  39.604   2.345
44117W        W15788  27.036  27.188  13.711
44118W        W15789  42.550  38.300  10.654
44119W        W15790   6.190  37.822   4.728
44120W        W15791  29.283  35.412   1.395
44121W        W15792  32.892   2.521   0.340
44122W        W15793  13.213  32.430   3.487
44123W        W15794  35.619  22.475  14.846
44124W        W15795   5.699   7.965  13.453
44125W        W15796  26.570  38.841  14.962
44126W        W15797  35.621  16.427  14.412
44127W        W15798   1.526  27.149   2.849
44128W        W15799  26.720  27.534   1.676
44129W        W15800  23.081  31.359   2.917
44130W        W15801  38.398   0.273  10.738
44131W        W15802  34.512  13.293   4.361
44132W        W15803  24.441  41.183   0.930
44133W        W15804  35.215  27.607  12.404
44134W        W15805  25.953  34.664   1.073
44135W        W15806  34.114  39.900   4.716
44136W        W15807  22.469   1.892   4.246
44137W        W15808  44.764   3.977   4.146
44138W        W15809  25.573   9.237  14.590
44139W        W15810  17.222  15.589  13.514
44140W        W15811  38.310  12.834  12.035
44141W        W15812  36.200  27.594   0.877
44142W        W15813  11.705  36.886  10.307
44143W        W15814  23.227   4.961  13.882
44144W        W15815  43.973  32.809   1.268
44145W        W15816  40.096   3.046  12.385
44146W        W15817  30.618   1.566  10.557
44147W        W15818  21.257   7.768  10.602
44148W        W15819  20.896  14.124  14.309
44149W        W15820  20.958   0.908  11.487
44150W        W15821  17.968  26.483  14.595
44151W        W15822  29.557  25.498  12.221
44152W        W15823  22.089  21.550  14.513
44153W        W15824  22.333  27.861   2.334
44154W        W15825  35.082  33.083  13.397
44155W        W15826  15.657  18.130  11.521
44156W        W15827   2.210  26.629   2.772
44157W        W15828  39.436  25.711  10.769
44158W        W15829  35.957  33.518   0.307
44159W        W15830   2.769   6.699   1.167
44160W        W15831   5.778  20.256  13.543
44161W        W15832  17.553   5.973   2.754
44162W        W15833   1.378  38.070  13.914
44163W        W15834  17.766  43.823   1.285
44164W        W15835  34.534   7.259  12.153
44165W        W15836  36.504  39.370   2.663
44166W        W15837  39.919  40.001   1.436
44167W        W15838  37.641   8.752   5.094
44168W        W15839   4.756  17.740  13.579
44169W        W15840   9.310  27.499  11.588
44170W        W15841  21.766  37.858   3.197
44171W        W15842  26.506  29.578  11.134
44172W        W15843  41.439  41.601   9.697
44173W        W15844  30.198   4.211   4.153
44174W        W15845  12.552  34.001   3.641
44175W        W15846  29.152  20.298   1.782
44176W        W15847   9.871  11.705   2.242
44177W        W15848  38.528  28.772   3.746
44178W        W15849  16.983   2.877  12.034
44179W        W15850  29.481  40.117  10.609
44180W        W15851  39.053  28.638   2.319
44181W        W15852  25.287   5.687   2.667
44182W        W15853  22.616   9.693   3.589
44183W        W15854  39.699  24.221  12.276
44184W        W15855   4.836  27.594   4.216
44185W        W15856  23.185  29.770  14.492
44186W        W15857  34.522  40.028  14.479
44187W        W15858   3.025  17.110   3.273
44188W        W15859   3.795  19.083  13.434
44189W        W15860  21.198  13.645  13.433
44190W        W15861  32.681   3.884  13.343
44191W        W15862  37.596  25.248   0.047
44192W        W15863  41.324  36.017   1.748
44193W        W15864  31.849  23.649   4.371
44194W        W15865  25.382  29.013   1.142
44195W        W15866  26.926   3.975   2.347
44196W        W15867   4.484  35.293  11.939
44197W        W15868  26.695   0.626  10.896
44198W        W15869  36.064   9.121  14.518
44199W        W15870  18.080  19.681   4.911
44200W        W15871  19.724  25.436   0.322
44201W        W15872  41.106  14.850  14.816
44202W        W15873  12.901  22.894   3.733
44203W        W15874  23.183  16.706   4.190
44204W        W15875  18.003   7.218   0.240
44205W        W15876  41.336  39.963  14.563
44206W        W15877   8.805  11.407   0.226
44207W        W15878  18.811  35.864  12.434
44208W        W15879   0.790  14.327  14.365
44209W        W15880  29.807   2.995  11.339
44210W        W15881  37.545  44.867  10.515
44211W        W15882  30.006   5.449   0.439
44212W        W15883   8.300  15.520   1.390
44213W        W15884  38.393  14.529  10.508
44214W        W15885  21.275   9.717  13.859
44215W        W15886  36.731   4.351   1.338
44216W        W15887  43.895   6.683  13.476
44217W        W15888  36.589   0.638   2.213
44218W        W15889  31.633  24.628   4.232
44219W        W15890  10.184  13.172   0.786
44220W        W15891  39.900  33.105  12.018
44221W        W15892  36.088  21.677  14.771
44222W        W15893  36.439   5.823  13.426
44223W        W15894  25.013  35.805  14.151
44224W        W15895  26.440  19.523   0.700
44225W        W15896  27.781  24.640   0.390
44226W        W15897  39.265   9.219   1.403
44227W        W15898  28.144   3.521   1.762
44228W        W15899   2.256   1.308   0.206
44229W        W15900  27.206  30.630   0.333
44230W        W15901  36.782  22.526  10.092
44231W        W15902  31.359  29.786  14.546
44232W        W15903   4.819   7.692  12.957
44233W        W15904  17.030  32.625  12.087
44234W        W15905  21.720  20.040  14.328
44235W        W15906  15.867   3.205  11.311
44236W        W15907   6.221  14.827  11.050
44237W        W15908  33.480  30.717   3.939
44238W        W15909  41.026  30.036  13.373
44239W        W15910  33.951   2.043   0.448
44240W        W15911   1.386  31.525   1.486
44241W        W15912  40.621   7.220   1.508
44242W        W15913  27.991  36.912   2.732
44243W        W15914  27.279  29.889   0.976
44244W        W15915  43.074   6.372   2.970
44245W        W15916  19.539   5.117  12.511
44246W        W15917  41.584  39.478  11.632
44247W        W15918  12.511  42.304   3.593
44248W        W15919  27.163  32.810  13.140
44249W        W15920  12.687  32.993  12.653
44250W        W15921  30.982  23.902   2.230
44251W        W15922   4.342  18.067   3.776
44252W        W15923  25.614  36.440   1.015
44253W        W15924  15.711  42.608   3.221
44254W        W15925  21.498   9.311   0.239
44255W        W15926   9.173   8.212   1.415
44256W        W15927  33.978   7.204   3.493
44257W        W15928  30.245  30.399  14.339
44258W        W15929  17.020  19.218  12.875
44259W        W15930  18.157  35.312   3.667
44260W        W15931  13.098  21.675   2.155
44261W        W15932  32.853  42.844   4.765
44262W        W15933  38.982  44.839   4.519
44263W        W15934   6.475   5.713  14.718
44264W        W15935  12.150  29.166  11.364
44265W        W15936   4.699   3.317  13.346
44266W        W15937  39.093  38.946  14.980
44267W        W15938  14.492   2.025  14.788
44268W        W15939  30.100  22.665  13.567
44269W        W15940   7.500   8.200   4.437
44270W        W15941  34.071  23.663  14.231
44271W        W15942  22.192  40.439   5.020
44272W        W15943  11.622   4.243  14.670
44273W        W15944  36.821  39.101   4.549
44274W        W15945  24.720   1.177  11.773
44275W        W15946   7.617  31.860   3.277
44276W        W15947  14.900   5.186  13.417
44277W        W15948  18.606   2.285  13.260
44278W        W15949  43.490  30.174   4.626
44279W        W15950  23.711  43.277   4.317
44280W        W15951  37.814  39.007   1.676
44281W        W15952   1.907   0.987  13.761
44282W        W15953   6.300  24.200  12.613
44283W        W15954  22.178  25.947  13.423
44284W        W15955  15.189  14.864  10.968
44285W        W15956  16.665   1.329  11.195
44286W        W15957  31.991  15.006  13.089
44287W        W15958  36.230  31.497  12.154
44288W        W15959  26.033  23.695  11.192
44289W        W15960   9.915  38.447  13.323
44290W        W15961  40.471  43.197  13.961
44291W        W15962  44.966  32.457  11.146
44292W        W15963   3.435  37.798   0.403
44293W        W15964  25.107  11.358   2.392
44294W        W15965   7.968  38.957  11.357
44295W        W15966  32.448   0.767   2.513
44296W        W15967  26.544  11.997  11.091
44297W        W15968  21.577   7.242  13.049
44298W        W15969  21.061  42.199   5.057
44299W        W15970  11.868  37.034  14.503
44300W        W15971  22.246  33.361   9.748
44301W        W15972  10.328   7.169   2.536
44302W        W15973  24.782  40.776  12.923
44303W        W15974  31.879  44.823  12.168
44304W        W15975  32.413  28.612   2.598
44305W        W15976  25.201  15.090   4.152
44306W        W15977  41.586  39.085   4.823
44307W        W15978  12.388   3.444  11.893
44308W        W15979  37.083  30.149  12.011
44309W        W15980  19.447  38.105  11.080
44310W        W15981   7.209  28.444  11.951
44311W        W15982  30.466  20.809  11.548
44312W        W15983   9.243  11.252  10.922
44313W        W15984   2.663  31.355  14.506
44314W        W15985   5.451  44.921   3.857
44315W        W15986   1.785  11.915  14.423
44316W        W15987   2.822   4.312  14.052
44317W        W15988  41.578  21.753  14.910
44318W        W15989  11.433   5.024   0.417
44319W        W15990  43.200  19.337  12.009
44320W        W15991  15.250  35.283  13.420
44321W        W15992   0.795  35.362   3.189
44322W        W15993  15.617   4.849  14.079
44323W        W15994  36.947   5.770  13.352
44324W        W15995   9.655  24.022  12.316
44325W        W15996  28.017  32.700   1.538
44326W        W15997   7.665  38.399  14.747
44327W        W15998  22.168  20.679   0.885
44328W        W15999   7.389  38.844   2.857
44329W        W16000  19.055  39.276   2.416
44330W        W16001  22.502   6.220  12.541
44331W        W16002  21.318  21.295  10.279
44332W        W16003  27.023   7.069   5.008
44333W        W16004  36.555  20.643  11.295
44334W        W16005  33.049  29.936   2.890
44335W        W16006  31.183  40.082   2.417
44336W        W16007  14.172  30.050  12.957
44337W        W16008  15.796   3.875   2.873
44338W        W16009  20.767  28.194  13.093
44339W        W16010  10.347  32.622   3.493
44340W        W16011   8.383  15.050   1.223
44341W        W16012   9.663  18.346   4.889
44342W        W16013  18.014  14.982   5.026
44343W        W16014  30.026  19.698  12.554
44344W        W16015  24.808   7.947  14.321
44345W        W16016  33.585   2.847  12.531
44346W        W16017   8.229  37.420   0.413
44347W        W16018   7.666  32.495  14.991
44348W        W16019   5.608  23.313  13.976
44349W        W16020   1.458  11.926  12.862
44350W        W16021  21.980  41.540   0.839
44351W        W16022  20.491   6.303   1.882
44352W        W16023  21.246  24.489   0.890
44353W        W16024  35.076  20.681  10.620
44354W        W16025  12.781  33.682   0.421
44355W        W16026  34.939  29.293  10.683
44356W        W16027  27.743   3.745  11.129
44357W        W16028  19.518  32.059  14.765
44358W        W16029  15.135  12.710  13.791
44359W        W16030   1.543   7.821   2.860
44360W        W16031  15.750  40.335  13.350
44361W        W16032   5.078  21.240   2.881
44362W        W16033   6.915  15.689  12.025
44363W        W16034  39.160  33.947   0.362
44364W        W16035   8.797   1.185  14.437
44365W        W16036   4.241   6.895   3.778
44366W        W16037  16.347   5.383   4.054
44367W        W16038  22.108  16.838  11.862
44368W        W16039  20.559   7.359  12.057
44369W        W16040   0.578  28.056  12.428
44370W        W16041   0.850  37.181   4.608
44371W        W16042  14.554  33.756  14.685
44372W        W16043   8.547  41.659  12.364
44373W        W16044  12.589  18.416   3.169
44374W        W16045   4.521  33.168   4.607
44375W        W16046  41.274  35.946   4.494
44376W        W16047  30.651  39.935  10.917
44377W        W16048  27.727  43.505  13.160
44378W        W16049  15.163   8.217   1.367
44379W        W16050  34.927  35.044   4.078
44380W        W16051  25.539  13.095  14.055
44381W        W16052  27.766   0.975  14.957
44382W        W16053  39.964  38.563   1.636
44383W        W16054  43.868  39.431  13.608
44384W        W16055   2.894  17.461   4.797
44385W        W16056   2.368  33.888  14.693
44386W        W16057   7.406  37.768  14.017
44387W        W16058   8.216  18.236  12.769
44388W        W16059   6.187  31.534   0.840
44389W        W16060   1.267   0.734   1.840
44390W        W16061  44.974  29.728   0.732
44391W        W16062  14.203  32.100   3.636
44392W        W16063  44.795  14.120   0.832
44393W        W16064  37.823  33.767   1.656
44394W        W16065  35.389  30.632  11.674
44395W        W16066  37.524  30.434  12.039
44396W        W16067  16.396   7.562  12.894
44397W        W16068   3.321  34.450   2.157
44398W        W16069  19.319   4.897   2.818
44399W        W16070  29.434  18.228  10.691
44400W        W16071  12.601  40.002  11.705
44401W        W16072  36.568  24.026   1.305
44402W        W16073  18.055  17.808  11.490
44403W        W16074  44.887  23.342   2.358
44404W        W16075  30.052  26.842  12.574
44405W        W16076  16.293   8.529  13.019
44406W        W16077  38.080   0.940   2.254
44407W        W16078   6.212   2.259   0.879
44408W        W16079   2.286  10.212  10.714
44409W        W16080   7.491  37.966   4.130
44410W        W16081  18.857  14.338   4.105
44411W        W16082  33.150  20.668  12.557
44412W        W16083  24.151  12.081  14.319
44413W        W16084  37.104  16.873  10.899
44414W        W16085  41.298  43.989   1.828
44415W        W16086  44.958  41.353   3.952
44416W        W16087  17.213  33.846   1.790
44417W        W16088  37.399   2.766   1.013
44418W        W16089   6.414  12.433  11.106
44419W        W16090  35.415   3.851  10.513
44420W        W16091  16.731  35.986  12.839
44421W        W16092  17.493  31.836   1.317
44422W        W16093   4.852  14.619  14.113
44423W        W16094  15.222   2.452  10.752
44424W        W16095  43.518  14.275   9.853
44425W        W16096  42.944   8.953   3.862
44426W        W16097   5.778  26.571  10.732
44427W        W16098  32.875   1.368  13.428
44428W        W16099  42.236  13.724   4.436
44429W        W16100  34.107  41.250   1.747
44430W        W16101  20.002  10.598   2.836
44431W        W16102  34.896   7.402  13.895
44432W        W16103  31.922  15.065   1.771
44433W        W16104  30.145  26.110  14.403
44434W        W16105  25.188   6.297  12.360
44435W        W16106  39.473  30.467   1.175
44436W        W16107   6.948  11.857  12.170
44437W        W16108   0.158  16.042   2.188
44438W        W16109  25.300  32.581  13.127
44439W        W16110  44.213  10.822   3.147
44440W        W16111  31.621  20.968   1.005
44441W        W16112   4.962  13.650  13.560
44442W        W16113  38.608  26.159  10.983
44443W        W16114   9.144  19.072  11.485
44444W        W16115  14.682  34.000   1.355
44445W        W16116  11.895  28.430  12.074
44446W        W16117   8.917   2.078   2.907
44447W        W16118   7.649  33.136   2.757
44448W        W16119   1.189  19.978  10.621
44449W        W16120  15.802  27.565  11.810
44450W        W16121  30.095  35.419   2.638
44451W        W16122  35.066  30.625   1.804
44452W        W16123   4.228  38.362   2.293
44453W        W16124   4.128  41.120  14.441
44454W        W16125  35.547  12.364   2.311
44455W        W16126  13.720  22.682  14.944
44456W        W16127  25.076  21.427  13.016
44457W        W16128   2.902  28.717  10.693
44458W        W16129  10.215   3.239   0.476
44459W        W16130  14.854   5.433  14.717
44460W        W16131  29.652   7.955  14.390
44461W        W16132  34.438  43.285  11.783
44462W        W16133  31.280  20.185   3.627
44463W        W16134   1.230  20.019   4.106
44464W        W16135  27.587  21.448   0.807
44465W        W16136   9.792  27.428  13.403
44466W        W16137  42.984  34.624  11.135
44467W        W16138  19.482  12.785  13.400
44468W        W16139  37.362  25.935   1.495
44469W        W16140  16.822  16.887  12.885
44470W        W16141  36.316  39.289   4.577
44471W        W16142   4.309  15.745  10.680
44472W        W16143   5.857  21.282   0.386
44473W        W16144   5.632  17.066  11.522
44474W        W16145   8.070  10.203  11.015
44475W        W16146  26.883  40.982  13.570
44476W        W16147  15.555  33.777  10.563
44477W        W16148   6.472  10.083   0.822
44478W        W16149  31.189   8.867  12.894
44479W        W16150   0.287  32.038  11.985
44480W        W16151  34.812  30.868   5.259
44481W        W16152  12.116  23.753  14.491
44482W        W16153  25.688  17.594   3.467
44483W        W16154  22.660  44.723   3.376
44484W        W16155  11.796   9.778   3.316
44485W        W16156  20.142  40.391  10.578
44486W        W16157   3.227  15.088  12.087
44487W        W16158  44.474  13.326  11.564
44488W        W16159  38.794  16.236   2.859
44489W        W16160  20.538  44.293  13.300
44490W        W16161  36.203  34.663  14.547
44491W        W16162  11.313  16.839  13.751
44492W        W16163   3.291  40.004   4.873
44493W        W16164  27.662  14.459  13.659
44494W        W16165   9.072  21.552  12.496
44495W        W16166  22.254  32.462  10.395
44496W        W16167  26.682  35.278  11.140
44497W        W16168  40.850  27.163  12.491
44498W        W16169  37.873  34.195  14.240
44499W        W16170  31.503  19.444  13.269
44500W        W16171  11.807  18.248   1.959
44501W        W16172  27.418   4.147  11.107
44502W        W16173   9.953  20.050   0.454
44503W        W16174  26.026  25.076   0.151
44504W        W16175  38.280  13.215   2.193
44505W        W16176  14.182  32.492   3.161
44506W        W16177  23.530  43.225  13.816
44507W        W16178  18.982  35.907  11.454
44508W        W16179  39.519  25.707  12.056
44509W        W16180  43.048   2.973  11.711
44510W        W16181  43.503  12.223  13.827
44511W        W16182  18.074  17.583  13.338
44512W        W16183  12.024  33.570  13.998
44513W        W16184  15.644  14.697   4.618
44514W        W16185  13.275  41.070   4.812
44515W        W16186  11.773  14.288   2.378
44516W        W16187  17.560  22.747   0.428
44517W        W16188  13.835  24.478   3.589
44518W        W16189   4.932  34.829   0.309
44519W        W16190  13.661  38.304   3.280
44520W        W16191   8.115  18.752  13.499
44521W        W16192  14.825  13.406  11.486
44522W        W16193  13.671   5.407  11.941
44523W        W16194  16.711  19.573   3.057
44524W        W16195   3.234  16.071  11.988
44525W        W16196  41.886  36.335  12.497
44526W        W16197  18.211  11.688   2.225
44527W        W16198  33.416  25.614  10.228
44528W        W16199  14.677  21.565  14.232
44529W        W16200  18.735  37.554   3.150
44530W        W16201   3.893   2.208  14.474
44531W        W16202  17.201  40.397  10.506
44532W        W16203  13.828  19.188   2.440
44533W        W16204  26.203  12.127   0.509
44534W        W16205  15.631  22.131   1.774
44535W        W16206  20.038  29.700  12.420
44536W        W16207  37.282  24.967  11.899
44537W        W16208   4.925   5.954   2.495
44538W        W16209  32.227   8.395  14.509
44539W        W16210   0.436  42.253  14.352
44540W        W16211   7.826  14.185  13.789
44541W        W16212  37.132   8.825  14.480
44542W        W16213  33.874  40.660   3.306
44543W        W16214   0.387  18.465  11.215
44544W        W16215   4.836   4.690   4.172
44545W        W16216   6.928  39.108   2.246
44546W        W16217  27.105  22.525   2.879
44547W        W16218  17.630   8.169   4.317
44548W        W16219   0.364  37.411   4.563
44549W        W16220  10.638  36.032   1.824
44550W        W16221  15.521  30.114   2.285
44551W        W16222   3.482  41.788  14.958
44552W        W16223  24.135  25.664  12.040
44553W        W16224  39.269   4.728   2.710
44554W        W16225  22.569  11.694   3.490
44555W        W16226  16.123  37.094   0.906
44556W        W16227   7.802  33.795  10.452
44557W        W16228   6.367  34.423  13.769
44558W        W16229  38.303  33.350   0.822
44559W        W16230  18.539  20.209   1.746
44560W        W16231  31.634  22.892   1.265
44561W        W16232  25.237  34.919  12.606
44562W        W16233   3.394  19.179  13.121
44563W        W16234  36.922  11.829  12.385
44564W        W16235  35.745  14.040  12.182
44565W        W16236  35.134   5.497   2.159
44566W        W16237  22.242   8.800   4.569
44567W        W16238  44.053   6.452  13.950
44568W        W16239  19.795  36.408   2.553
44569W        W16240  22.125  23.200   4.873
44570W        W16241  38.642  31.858  11.682
44571W        W16242  18.122  29.424   4.586
44572W        W16243  25.583  20.759  12.089
44573W        W16244  19.606   9.270   1.681
44574W        W16245   4.988  32.495  13.535
44575W        W16246  18.795   0.719   0.021
44576W        W16247  16.770  16.669   1.498
44577W        W16248   4.415  15.560  12.497
44578W        W16249  34.168  43.033   2.351
44579W        W16250  41.137   2.351   1.920
44580W        W16251  26.060  10.860  10.571
44581W        W16252  34.015   7.789   0.818
44582W        W16253   7.820  34.887   4.635
44583W        W16254   2.459  14.910   2.197
44584W        W16255  37.352  33.601   2.233
44585W        W16256  26.218   9.264  12.505
44586W        W16257  19.087  22.708  11.127
44587W        W16258  35.873  16.859  11.641
44588W        W16259  34.041  13.812  12.834
44589W        W16260  43.303  27.229  13.510
44590W        W16261  36.298  16.766   3.588
44591W        W16262  23.748  25.207   3.713
44592W        W16263   5.121  21.029   3.758
44593W        W16264   2.107  30.131  11.057
44594W        W16265  27.613  29.006   0.119
44595W        W16266  44.992  35.442   4.708
44596W        W16267  42.282  18.166   0.297
44597W        W16268  43.493  41.983  14.857
44598W        W16269  32.589   9.295  13.846
44599W        W16270  38.108   3.465  12.443
44600W        W16271  39.515   3.767   2.872
44601W        W16272  31.363  25.528   3.274
44602W        W16273  19.451  39.036  14.848
44603W        W16274   5.436  27.012   0.686
44604W        W16275  26.472  36.905  14.751
44605W        W16276  12.258  43.406   4.744
44606W        W16277  30.400  32.902   0.257
44607W        W16278  22.734  15.532  11.981
44608W        W16279  13.371  23.159   0.467
44609W        W16280  35.124  12.477  13.362
44610W        W16281   9.874  15.209  13.097
44611W        W16282  25.176  33.888   4.162
44612W        W16283  21.048  39.304  14.386
44613W        W16284   9.672   0.738   2.222
44614W        W16285   7.821  34.953   1.935
44615W        W16286  11.600  39.885   2.180
44616W        W16287  19.079  38.753   2.275
44617W        W16288  20.346  11.836   3.678
44618W        W16289   2.660  30.090  14.332
44619W        W16290  35.541   0.997  13.852
44620W        W16291  19.318  31.999   0.235
44621W        W16292  31.243  22.106   1.454
44622W        W16293  14.289  18.581  13.553
44623W        W16294  29.169  19.572   2.183
44624W        W16295  23.942  19.658  12.472
44625W        W16296  15.452  16.504   3.219
44626W        W16297   5.709  30.162  13.106
44627W        W16298  23.598  16.795   3.381
44628W        W16299  12.718  22.993  11.482
44629W        W16300   7.182  11.207  14.881
44630W        W16301  41.461  20.440  14.534
44631W        W16302  35.814   4.323  12.425
44632W        W16303  29.149  13.320   3.860
44633W        W16304  10.326  43.865   4.557
44634W        W16305  27.212  21.630  12.389
44635W        W16306  20.116  18.317  10.626
44636W        W16307  26.555  40.137   3.601
44637W        W16308  28.950   1.028   4.126
44638W        W16309   7.081   8.666  10.752
44639W        W16310  11.729   8.160  14.452
44640W        W16311  24.324  26.107   1.333
44641W        W16312  10.731  16.454   1.964
44642W        W16313  37.055  35.509  10.765
44643W        W16314  41.916  40.011   4.238
44644W        W16315  28.232  43.766  11.465
44645W        W16316  33.874  36.903   0.312
44646W        W16317  22.696  43.804   0.749
44647W        W16318  37.673  24.527  13.042
44648W        W16319  15.116  17.241   4.884
44649W        W16320   4.108  15.880  14.910
44650W        W16321  24.272  19.116   3.203
44651W        W16322  39.411  16.195   0.570
44652W        W16323  42.772   1.989   3.238
44653W        W16324  43.626  10.379  11.586
44654W        W16325  13.114  32.291  13.066
44655W        W16326  31.422  25.108  14.927
44656W        W16327  16.327  26.201  13.538
44657W        W16328  31.499  31.490   1.809
44658W        W16329   5.221  28.019  13.420
44659W        W16330  30.165  33.357   0.082
44660W        W16331  39.439  22.622  13.275
44661W        W16332   4.337  21.831  11.550
44662W        W16333  35.147  44.895  13.837
44663W        W16334  40.251   4.903  12.849
44664W        W16335  41.587  33.089  10.755
44665W        W16336  40.335   1.695   2.851
44666W        W16337  22.603  37.307   3.287
44667W        W16338  36.420   0.531   3.642
44668W        W16339  35.890  13.228  11.466
44669W        W16340  19.586  11.478   5.494
44670W        W16341  15.808  13.134  13.399
44671W        W16342   8.709  38.595   2.008
44672W        W16343   0.470   5.891   1.190
44673W        W16344   2.305  13.306   3.719
44674W        W16345  32.452   1.744   4.167
44675W        W16346  39.231  23.713  11.836
44676W        W16347  12.380   5.416   2.849
44677W        W16348  21.966  40.496  13.973
44678W        W16349   3.591  41.337   0.914
44679W        W16350  13.218  24.223  12.555
44680W        W16351   7.531  22.704  10.248
44681W        W16352  37.387  30.187  14.902
44682W        W16353   8.616  38.581  13.842
44683W        W16354  31.595  26.603   0.023
44684W        W16355  40.585  33.037  12.586
44685W        W16356  13.831  22.841   4.738
44686W        W16357  21.103  18.206  13.787
44687W        W16358  10.486   5.943   0.020
44688W        W16359  28.138   8.546  11.444
44689W        W16360  11.898  34.055  13.215
44690W        W16361   8.834  12.190  11.405
44691W        W16362   1.295   1.525  12.575
44692W        W16363  39.460  38.257   4.519
44693W        W16364  18.884  18.290  11.996
44694W        W16365  40.971  44.462  12.607
44695W        W16366  17.300   1.050  13.320
44696W        W16367  14.341  26.959   4.209
44697W        W16368  19.208  23.335  14.887
44698W        W16369  33.881  23.094  12.492
44699W        W16370   4.909  10.254  13.049
44700W        W16371   9.295  21.687  11.501
44701W        W16372   1.839  12.775   2.308
44702W        W16373  28.588  26.134   0.030
44703W        W16374  15.558  25.398  13.702
44704W        W16375  36.100  28.107  14.371
44705W        W16376  33.981  27.760   2.223
44706W        W16377  23.707  44.572   2.268
44707W        W16378  41.970  31.567   4.570
44708W        W16379  35.880  42.870   0.407
44709W        W16380  43.283  38.022  14.435
44710W        W16381  30.796  10.229  12.507
44711W        W16382  38.282  14.663   2.261
44712W        W16383  11.149  38.516   4.684
44713W        W16384  44.224  24.604  11.152
44714W        W16385  44.042  16.374  13.063
44715W        W16386  16.112   3.659   0.492
44716W        W16387   1.881  19.833  14.391
44717W        W16388  38.077  10.768   1.333
44718W        W16389   9.401  13.162   1.430
44719W        W16390  34.828  38.633   4.935
44720W        W16391  29.532   2.345  14.889
44721W        W16392  34.528  37.954   2.755
44722W        W16393  34.949  22.811   3.738
44723W        W16394   5.915  20.518  14.728
44724W        W16395  15.114  24.576   4.349
44725W        W16396  12.704   3.166   4.152
44726W        W16397  33.489  12.436  11.260
44727W        W16398   7.251  16.130  11.000
44728W        W16399   8.729   7.916   3.260
44729W        W16400  25.066  28.979  11.347
44730W        W16401  31.133  17.023  14.905
44731W        W16402  33.342  19.489  10.967
44732W        W16403  21.235  17.213  13.007
44733W        W16404  17.278  35.197   3.720
44734W        W16405  13.630   3.857   4.271
44735W        W16406   9.123  10.323   1.230
44736W        W16407   4.989  15.344  10.644
44737W        W16408  26.539   7.271  13.497
44738W        W16409  36.008   8.917   0.334
44739W        W16410  44.080  39.182  13.999
44740W        W16411  38.238  30.928   2.763
44741W        W16412   8.973  26.360  12.740
44742W        W16413  24.748  44.728   0.751
44743W        W16414  32.144  34.531  14.962
44744W        W16415  28.922  42.422  12.705
44745W        W16416  22.641  40.209   2.801
44746W        W16417  10.258  37.678  11.511
44747W        W16418  37.908  14.283  13.266
44748W        W16419  34.901  22.717  12.891
44749W        W16420  16.693   7.868  11.629
44750W        W16421  21.639  42.763  10.924
44751W        W16422  20.342  32.465  11.172
44752W        W16423   6.658   8.375   3.265
44753W        W16424  44.598   1.341   2.132
44754W        W16425   6.397  43.542  13.947
44755W        W16426  41.022  42.445  11.695
44756W        W16427  23.480  26.519   2.119
44757W        W16428   2.832  30.587   4.637
44758W        W16429  16.377  32.915   3.430
44759W        W16430   9.172   1.861  12.830
44760W        W16431   9.307   0.001   1.890
44761W        W16432  38.322  30.554  13.837
44762W        W16433  27.428  31.631  10.455
44763W        W16434  20.593  30.443  11.224
44764W        W16435  26.148  34.413   2.520
44765W        W16436  26.845  15.171  12.013
44766W        W16437   3.317   3.379   4.877
44767W        W16438   7.151  43.874   3.229
44768W        W16439  22.927  41.837  11.170
44769W        W16440  15.649  37.062  10.351
44770W        W16441  38.346  16.169   3.131
44771W        W16442  31.142  40.318   2.878
44772W        W16443   7.091   7.753   4.416
44773W        W16444   6.371  10.231   4.126
44774W        W16445  31.622  43.433   0.782
44775W        W16446   9.362   2.422  14.843
44776W        W16447  30.401  16.607   1.793
44777W        W16448  10.015  24.836   0.267
44778W        W16449   3.868  37.125   2.150
44779W        W16450  37.910  11.377  12.779
44780W        W16451  12.874  42.962   4.613
44781W        W16452   0.499  42.738  11.169
44782W        W16453  11.550   2.430  12.760
44783W        W16454  38.582  36.007  11.569
44784W        W16455  38.546  42.119  12.161
44785W        W16456  24.597  26.706   0.431
44786W        W16457  23.121  15.220   2.916
44787W        W16458  31.043  27.447   2.045
44788W        W16459  33.128  16.095   3.631
44789W        W16460  13.757  12.655   4.315
44790W        W16461  22.589  37.841   9.878
44791W        W16462  35.002  34.383  13.850
44792W        W16463   1.965   6.897   2.385
44793W        W16464  11.811  27.091  13.559
44794W        W16465   6.371   3.152   4.018
44795W        W16466  34.140  24.680   1.218
44796W        W16467  40.095  25.216  13.872
44797W        W16468   3.807  11.773   2.060
44798W        W16469   3.059  30.453  11.681
44799W        W16470  27.096  23.594  12.046
44800W        W16471  26.262  30.132   2.762
44801W        W16472  17.758  28.817   1.011
44802W        W16473  38.029  37.620   4.584
44803W        W16474   8.692  22.673   0.307
44804W        W16475  15.663  35.110   3.220
44805W        W16476  27.060  27.449  14.698
44806W        W16477  29.186  27.214   0.868
44807W        W16478  27.852  15.183  10.269
44808W        W16479  13.007  27.963  11.518
44809W        W16480   9.703  33.686   4.180
44810W        W16481   9.601   9.394   1.177
44811W        W16482  33.743  14.068  10.032
44812W        W16483  10.330  28.541  10.646
44813W        W16484  22.070  31.780   4.781
44814W        W16485  38.966  41.017  12.490
44815W        W16486  18.093  30.571  12.568
44816W        W16487  30.231   0.892   4.483
44817W        W16488  37.277  12.028  13.838
44818W        W16489  12.584  17.142   1.670
44819W        W16490  25.263  31.549  13.008
44820W        W16491   7.108  29.528   0.300
44821W        W16492   6.974  17.125   3.372
44822W        W16493  29.450  31.521  13.531
44823W        W16494  13.816  19.044  12.002
44824W        W16495  24.441  16.252   2.897
44825W        W16496  13.817   2.856   4.354
44826W        W16497  34.012  39.558   2.376
44827W        W16498   8.912   4.373  13.163
44828W        W16499  27.227  41.553   0.813
44829W        W16500  38.520  43.468  11.719
44830W        W16501  27.755  26.594  10.737
44831W        W16502  29.650  24.243   3.635
44832W        W16503   1.428  16.726   0.996
44833W        W16504   4.824   5.695  14.831
44834W        W16505  27.612  15.254  14.232
44835W        W16506  38.605   0.132   4.252
44836W        W16507  21.598  28.414  14.905
44837W        W16508  23.970  29.729  11.077
44838W        W16509  31.221   1.719  11.953
44839W        W16510  11.227  36.816  10.490
44840W        W16511   3.284   8.760  12.497
44841W        W16512  41.626   6.599   3.627
44842W        W16513   9.627  35.510  10.995
44843W        W16514  10.696   6.155   0.435
44844W        W16515  42.303  42.228   0.879
44845W        W16516  22.279   3.245   1.722
44846W        W16517  33.022  12.255  11.573
44847W        W16518  44.102  42.323   4.238
44848W        W16519   8.884  15.211   3.391
44849W        W16520  23.728  10.349   3.258
44850W        W16521  35.332   8.481  11.141
44851W        W16522  32.212  43.245   3.851
44852W        W16523  30.749  39.591   1.787
44853W        W16524  40.939  34.940   4.571
44854W        W16525  13.397  37.916   0.228
44855W        W16526  35.974   4.237  10.918
44856W        W16527  38.302  24.992   0.463
44857W        W16528  29.105  21.712  14.321
44858W        W16529  25.473  39.915  12.116
44859W        W16530  10.109  42.236   4.261
44860W        W16531  41.998   1.898   4.593
44861W        W16532  13.815  10.788   0.281
44862W        W16533  27.015  44.074  14.282
44863W        W16534   3.257  14.814  10.665
44864W        W16535  24.643  36.822  14.060
44865W        W16536  10.332  11.450   2.304
44866W        W16537  13.696  24.702  13.629
44867W        W16538  14.756  35.589   3.694
44868W        W16539  29.893  23.885   1.495
44869W        W16540  41.498  28.073  10.844
44870W        W16541  10.881  15.707   0.513
44871W        W16542  39.070  18.789  11.155
44872W        W16543  17.192  29.395  14.469
44873W        W16544  41.844  16.730  10.751
44874W        W16545  43.215   3.346  14.677
44875W        W16546  27.083  29.264  13.824
44876W        W16547  26.997   2.735  13.789
44877W        W16548   5.186  18.186  14.356
44878W        W16549   3.336   9.288   3.084
44879W        W16550  13.152  41.780  11.178
44880W        W16551  35.290   4.704   4.106
44881W        W16552  32.009  27.687   4.553
44882W        W16553  38.396  15.662  13.824
44883W        W16554   0.842  31.606  10.481
44884W        W16555   1.288   6.446   3.818
44885W        W16556  12.235  22.439   4.612
44886W        W16557  15.945   5.371   4.380
44887W        W16558  24.473  29.694   1.720
44888W        W16559  11.344  37.618  12.839
44889W        W16560  39.702   6.221   3.173
44890W        W16561  29.441  27.933  11.235
44891W        W16562  31.921  33.028   0.788
44892W        W16563  33.037  25.915  13.085
44893W        W16564   7.471  44.453  11.700
44894W        W16565  30.076  23.872   2.920
44895W        W16566  24.506  35.906  14.900
44896W        W16567  25.598  38.735   4.589
44897W        W16568   5.712  43.423  10.687
44898W        W16569  29.683  42.760  12.431
44899W        W16570  42.061   1.429   3.201
44900W        W16571  36.854  36.825  14.296
44901W        W16572  10.335  10.884  10.062
44902W        W16573   2.779   2.608   4.052
44903W        W16574  19.521  32.479  12.861
44904W        W16575   7.290  30.497   2.867
44905W        W16576  29.636  12.128   2.604
44906W        W16577   9.621  10.706   4.641
44907W        W16578  29.839  40.859   3.977
44908W        W16579  29.996   0.147  14.723
44909W        W16580  41.293  37.674   3.243
44910W        W16581  22.683  44.471   2.909
44911W        W16582  33.491  23.960  14.670
44912W        W16583  29.214  31.415  12.865
44913W        W16584  37.575  20.643   1.248
44914W        W16585  20.439  43.347  12.349
44915W        W16586   5.184  40.682  13.386
44916W        W16587  40.807   2.342  12.524
44917W        W16588  15.690  12.390   4.050
44918W        W16589  36.866  11.035   1.682
44919W        W16590  37.011   5.406   0.903
44920W        W16591  39.288  42.475  10.690
44921W        W16592  32.708  14.177   3.346
44922W        W16593  23.389   4.660  11.749
44923W        W16594  37.476  40.866  13.429
44924W        W16595  37.592  35.085  12.871
44925W        W16596  26.425  14.771   2.291
44926W        W16597  38.401  19.152  10.666
44927W        W16598  25.207  36.388   3.476
44928W        W16599  18.649  43.671   4.193
44929W        W16600   7.768  37.360   2.910
44930W        W16601  14.287  16.160  12.140
44931W        W16602  42.345  13.815  13.735
44932W        W16603  35.146  23.166  12.998
44933W        W16604  10.516  28.437   4.720
44934W        W16605  24.927  18.444   2.766
44935W        W16606  32.255  18.612   0.003
44936W        W16607   4.770  25.013  11.724
44937W        W16608  12.330  12.220  11.846
44938W        W16609  28.175  43.384   3.039
44939W        W16610  12.312   4.894   4.655
44940W        W16611  26.070   6.676   4.177
44941W        W16612  11.567  13.281  11.075
44942W        W16613   8.972   3.283   1.360
44943W        W16614   8.589   8.135   3.702
44944W        W16615   2.101   6.233  14.167
44945W        W16616  13.586  12.404   0.658
44946W        W16617   5.362  42.328   3.607
44947W        W16618  38.940   8.793   3.841
44948W        W16619  37.838  19.739  14.066
44949W        W16620  40.045  25.411   2.774
44950W        W16621  26.186  19.813  14.896
44951W        W16622  18.144  38.217   3.605
44952W        W16623  44.336   0.943   4.741
44953W        W16624  22.575   3.042  12.988
44954W        W16625  27.867   2.070  13.062
44955W        W16626   7.365  18.720   1.895
44956W        W16627  29.632  17.476   1.125
44957W        W16628  26.950  16.845  13.330
44958W        W16629  42.545  13.308  12.375
44959W        W16630  36.052  19.305   0.900
44960W        W16631  33.608  27.493  11.139
44961W        W16632  20.476  40.151  12.545
44962W        W16633   3.914  42.502   4.103
44963W        W16634  14.749   1.189  10.729
44964W        W16635  20.465   8.837   1.948
44965W        W16636  20.848  43.968   3.922
44966W        W16637  17.832   6.948   2.721
44967W        W16638  41.828  27.248   1.418
44968W        W16639  11.812   2.993  11.650
44969W        W16640  15.017  23.217   0.610
44970W        W16641   8.666  36.418  11.579
44971W        W16642  40.229  19.606   1.753
44972W        W16643   1.378   2.020   0.375
44973W        W16644   4.382  35.791  11.715
44974W        W16645  32.578  33.367   3.829
44975W        W16646  16.590  41.084   0.336
44976W        W16647  42.011  21.166   4.407
44977W        W16648  13.127  35.902  14.050
44978W        W16649  35.805  16.478   3.364
44979W        W16650  15.124  21.728   0.668
44980W        W16651  31.909   5.780   1.893
44981W        W16652  22.660  40.750  11.163
44982W        W16653  18.233  26.965   0.784
44983W        W16654  13.670  16.304  11.186
44984W        W16655   8.815  16.713   3.202
44985W        W16656   7.829  24.681   4.844
44986W        W16657  38.038   3.831   1.481
44987W        W16658   2.438  26.661  14.183
44988W        W16659  13.861  41.366   3.399
44989W        W16660  26.958   1.754   1.435
44990W        W16661  11.128   4.356  11.153
44991W        W16662  10.202  35.445   2.250
44992W        W16663  31.119   0.886   1.308
44993W        W16664  40.813  38.559   2.177
44994W        W16665  13.258  23.475  10.597
44995W        W16666  18.790   2.390   4.561
44996W        W16667  14.235  14.816  12.537
44997W        W16668   6.758  26.715  13.108
44998W        W16669  37.576  25.610   0.843
44999W        W16670  13.394   9.731  13.920
45000W        W16671  30.850  38.349  13.544
45001W        W16672  36.220   4.478   1.376
45002W        W16673  19.639   4.196   0.423
45003W        W16674  39.248  12.680   4.810
45004W        W16675  21.444  20.329  14.005
45005W        W16676  23.584  36.721  12.618
45006W        W16677  15.239  20.737   0.557
45007W        W16678  30.922  27.416   2.549
45008W        W16679   3.764  35.648   2.198
45009W        W16680  29.161  36.005  10.672
45010W        W16681  44.280  28.708   3.245
45011W        W16682  37.867  20.284  13.056
45012W        W16683  23.675   1.528   3.782
45013W        W16684  34.495  22.575   3.036
45014W        W16685  21.860  44.413   1.820
45015W        W16686  29.044   3.263   4.453
45016W        W16687  40.759  33.509  12.473
45017W        W16688   0.436  43.217   4.338
45018W        W16689  10.863  12.818   1.190
45019W        W16690  35.416  23.206  13.806
45020W        W16691  29.143   0.010   1.532
45021W        W16692   4.647  20.138   3.802
45022W        W16693  37.213  41.574  12.968
45023W        W16694  30.415   9.106   3.937
45024W        W16695  35.094  25.749   2.892
45025W        W16696  32.432   4.019   2.169
45026W        W16697  36.706  30.695   2.304
45027W        W16698  36.123  17.681   2.894
45028W        W16699  11.763  13.528   0.954
45029W        W16700  35.740   6.960   4.220
45030W        W16701  20.877   9.814   0.794
45031W        W16702  22.722  44.334   3.766
45032W        W16703  30.626  33.577   4.484
45033W        W16704  13.781  22.326  12.455
45034W        W16705  32.856  22.316   2.848
45035W        W16706  35.983  19.490   1.403
45036W        W16707   4.874  36.243  13.614
45037W        W16708  24.013  41.049   1.878
45038W        W16709  41.195   2.631   3.631
45039W        W16710  20.297  42.378  12.039
45040W        W16711   3.997   3.425  11.581
45041W        W16712   4.358  26.685  12.962
45042W        W16713   6.860  16.291   1.821
45043W        W16714  37.630  12.251  11.164
45044W        W16715  22.735  33.554  12.973
45045W        W16716  14.503  25.941  10.602
45046W        W16717  26.567  41.915  14.958
45047W        W16718   5.631  37.990   4.708
45048W        W16719  40.353  11.066  13.015
45049W        W16720   4.831  20.641   1.101
45050W        W16721  35.672  22.536  12.493
45051W        W16722  28.943  41.281   1.689
45052W        W16723  39.348  30.095   4.528
45053W        W16724  36.486  15.687   4.147
45054W        W16725   3.348   6.535   0.719
45055W        W16726   5.963  43.201  14.042
45056W        W16727   1.763  26.832  13.548
45057W        W16728  12.503   5.157   4.094
45058W        W16729  36.413  25.419  11.992
45059W        W16730  37.413   6.222   0.003
45060W        W16731  30.073   0.748  10.624
45061W        W16732  24.912  20.967   1.423
45062W        W16733  17.858  24.488   1.734
45063W        W16734  29.390  33.522  14.401
45064W        W16735  26.755   7.629  10.216
45065W        W16736  36.464  39.003   1.395
45066W        W16737   2.329  21.521   1.325
45067W        W16738   8.144   3.436   3.143
45068W        W16739   6.540  31.379   0.331
45069W        W16740  38.790   1.226  11.185
45070W        W16741  13.981  29.549   4.326
45071W        W16742   8.144  30.604  10.675
45072W        W16743  39.504  41.516   0.965
45073W        W16744  16.153  35.317  11.221
45074W        W16745  27.598  12.698  14.129
45075W        W16746  38.374  24.509  12.590
45076W        W16747  32.560   2.489  14.954
45077W        W16748  20.499  39.358  13.846
45078W        W16749  41.083   7.413  13.461
45079W        W16750  19.866   2.413  10.802
45080W        W16751  29.462   4.678   3.147
45081W        W16752  17.372  24.172   2.206
45082W        W16753  37.892  41.960   3.951
45083W        W16754  14.512  25.713  11.072
45084W        W16755   7.338  29.033   4.661
45085W        W16756  12.926  13.649  13.348
45086W        W16757   2.473  44.231   1.922
45087W        W16758  25.929  17.209  12.507
45088W        W16759  31.603  40.372   2.478
45089W        W16760  23.523  11.367   2.778
45090W        W16761   8.597  35.438   1.449
45091W        W16762   7.971   2.788  13.393
45092W        W16763  36.192  18.777   1.686
45093W        W16764  20.801  10.194  12.727
45094W        W16765   5.650  11.259   3.723
45095W        W16766  36.503  17.683  12.893
45096W        W16767  12.790  17.520  14.648
45097W        W16768  20.270   8.133  13.335
45098W        W16769  36.250  42.800   1.577
45099W        W16770   2.499  18.999  11.506
45100W        W16771  44.174   0.886   2.851
45101W        W16772  38.654   9.504  10.035
45102W        W16773  17.272  24.344  14.440
45103W        W16774  16.081  32.478  12.056
45104W        W16775  32.122  14.078   4.200
45105W        W16776  21.203   9.153   3.206
45106W        W16777  14.562  42.904  12.561
45107W        W16778  29.246  23.645  12.136
45108W        W16779  18.352  26.576   0.312
45109W        W16780  42.041  16.098  14.964
45110W        W16781   3.983   0.938   1.343
45111W        W16782   8.425  40.430   2.431
45112W        W16783  22.106  32.366   1.841
45113W        W16784   7.107  31.055   0.559
45114W        W16785  35.120  36.972  10.709
45115W        W16786  16.767  26.975  12.567
45116W        W16787  20.290  21.518  11.145
45117W        W16788   5.621   7.956   4.607
45118W        W16789   2.510   0.535   2.772
45119W        W16790   1.234  40.128  12.949
45120W        W16791  31.050  23.555   0.146
45121W        W16792   1.273  22.266   5.439
45122W        W16793   3.820   5.047  14.364
45123W        W16794  16.406  17.294   2.655
45124W        W16795   4.273  42.078  13.497
45125W        W16796   2.281  39.867   0.542
45126W        W16797   1.246  35.352  10.501
45127W        W16798   1.556  28.040  11.215
45128W        W16799   8.375  22.133  11.515
45129W        W16800  18.398  18.990   0.056
45130W        W16801  12.331  18.891  13.363
45131W        W16802  42.193  33.019  11.622
45132W        W16803   2.314   0.679   1.055
45133W        W16804  15.307  42.309   3.341
45134W        W16805   3.400  11.506  12.638
45135W        W16806  20.265   2.162  14.759
45136W        W16807  30.903  38.328  11.992
45137W        W16808  28.552   6.994   5.067
45138W        W16809  37.933  24.551   4.293
45139W        W16810  41.228  39.607  12.477
45140W        W16811  14.815  38.053  13.360
45141W        W16812  17.547  15.106   0.328
45142W        W16813   1.187  14.723   1.883
45143W        W16814   1.862  36.987   3.694
45144W        W16815  40.054  23.161   1.472
45145W        W16816  20.152  17.594  12.064
45146W        W16817   1.331  28.021  12.904
45147W        W16818  25.736  24.006  14.829
45148W        W16819  10.848  35.532  14.762
45149W        W16820   0.927   0.731   2.239
45150W        W16821  39.020  16.974   1.707
45151W        W16822  26.209   8.337   0.927
45152W        W16823  41.149   1.177  11.476
45153W        W16824  35.886   6.391   1.281
45154W        W16825  28.665  14.272  12.423
45155W        W16826   2.830  44.763   3.611
45156W        W16827   7.123  17.028   2.908
45157W        W16828  18.340  28.065  12.471
45158W        W16829  43.978   9.867   3.571
45159W        W16830  18.158   7.159   1.870
45160W        W16831  18.284  30.073   3.817
45161W        W16832  28.200  31.980  11.605
45162W        W16833  38.403  27.364  14.429
45163W        W16834  20.206  37.938  11.382
45164W        W16835  10.132  42.334  12.792
45165W        W16836  40.318  39.234  12.131
45166W        W16837  27.472  37.626   2.773
45167W        W16838   4.172   3.375   0.982
45168W        W16839  41.505  15.865   1.841
45169W        W16840  28.934   6.709   0.931
45170W        W16841  11.846  20.211   3.632
45171W        W16842  28.869  26.131   2.646
45172W        W16843  32.505  36.596  14.822
45173W        W16844  34.349  14.554   2.969
45174W        W16845  39.020  21.188   1.782
45175W        W16846   4.301  34.896   2.209
45176W        W16847   2.448  37.161   0.063
45177W        W16848  42.886  32.091  10.297
45178W        W16849  18.823  17.720  12.669
45179W        W16850  13.641  39.496  10.545
45180W        W16851  44.431   0.787   2.405
45181W        W16852   8.429  17.969  11.302
45182W        W16853  35.377  37.352  11.137
45183W        W16854  21.608  42.560  14.207
45184W        W16855   5.966  35.958  13.895
45185W        W16856  16.557   2.349  13.308
45186W        W16857  27.279  13.622  11.622
45187W        W16858  44.250  41.169   9.820
45188W        W16859   2.039  10.742  11.544
45189W        W16860  22.445  29.477  12.719
45190W        W16861  44.471  31.925   4.687
45191W        W16862  39.931  35.617   0.971
45192W        W16863  35.843  40.422   2.875
45193W        W16864  17.226  41.277  13.799
45194W        W16865  37.117   6.766  10.710
45195W        W16866  36.049  41.632   3.811
45196W        W16867  21.854   8.959   2.634
45197W        W16868  31.173  32.934   3.732
45198W        W16869  35.192   0.522   1.429
45199W        W16870  13.604   9.655   4.791
45200W        W16871  20.666   5.160   1.295
45201W        W16872  25.471  11.728   3.201
45202W        W16873  11.377   8.889  14.872
45203W        W16874   9.524  30.298   3.321
45204W        W16875   8.852  18.587   0.226
45205W        W16876  43.823   9.358  11.917
45206W        W16877  10.677  10.893  12.362
45207W        W16878  19.095  33.523  14.405
45208W        W16879   1.196  29.221  11.207
45209W        W16880   0.548  21.711  10.635
45210W        W16881  43.888  27.204   0.202
45211W        W16882   0.051   5.410  14.756
45212W        W16883  17.609  31.594  12.424
45213W        W16884  39.490  26.229   2.735
45214W        W16885  39.082  16.332   4.731
45215W        W16886  29.475   6.863  10.142
45216W        W16887  15.651  35.957   3.889
45217W        W16888   3.935  24.904   3.251
45218W        W16889  30.098   7.840  11.181
45219W        W16890  44.030  26.924  14.818
45220W        W16891   8.331   2.221   1.806
45221W        W16892   1.537  27.143  10.964
45222W        W16893  41.902   9.268   1.955
45223W        W16894  27.121  35.253   2.219
45224W        W16895   0.295  36.879  13.925
45225W        W16896  33.304   4.505  11.590
45226W        W16897  31.457  39.251  10.199
45227W        W16898  16.294  10.133   2.357
45228W        W16899  22.665  16.711   0.403
45229W        W16900  44.818  26.491  13.888
45230W        W16901  30.168   0.846   1.680
45231W        W16902  25.680   8.673  14.828
45232W        W16903  19.560   6.995   4.567
45233W        W16904  17.595  30.685  13.406
45234W        W16905  34.892  29.948  13.036
45235W        W16906  35.270  34.135  10.655
45236W        W16907  14.318  31.521   0.672
45237W        W16908  44.550  23.501  14.853
45238W        W16909  14.377  40.537   3.671
45239W        W16910  31.215  35.927  13.097
45240W        W16911  20.262   5.974   1.366
45241W        W16912  15.594  27.879   0.993
45242W        W16913   5.869  25.138  12.635
45243W        W16914  16.534   4.813   4.759
45244W        W16915  20.961   7.984   0.988
45245W        W16916   3.287   5.992   4.603
45246W        W16917  41.924  35.480   1.333
45247W        W16918  17.623  30.594   2.013
45248W        W16919  41.120  42.088  12.933
45249W        W16920  25.450  25.996   0.936
45250W        W16921  28.685  40.519   0.223
45251W        W16922   8.546  31.812  12.924
45252W        W16923   0.405  19.812   3.718
45253W        W16924  15.150  15.387  10.943
45254W        W16925   3.449  16.687  11.076
45255W        W16926  40.419  39.031  12.597
45256W        W16927  18.142   7.202   4.527
45257W        W16928   1.156  19.747   5.105
45258W        W16929   1.097  31.507   2.426
45259W        W16930  41.855  20.680  14.267
45260W        W16931  34.158  35.368   2.688
45261W        W16932  18.514   0.975   0.405
45262W        W16933   8.252  43.278  10.683
45263W        W16934  16.897   6.447   5.454
45264W        W16935  20.489  22.612   4.285
45265W        W16936   8.616  28.003   1.705
45266W        W16937  19.635  44.804  12.894
45267W        W16938  43.964  14.330   1.362
45268W        W16939  25.864  43.399  13.871
45269W        W16940  14.189  40.396   1.858
45270W        W16941   5.437   7.772  12.651
45271W        W16942  25.172  18.512  11.576
45272W        W16943  22.878  26.420  10.280
45273W        W16944  29.480  20.799  13.638
45274W        W16945  36.473  29.650   4.661
45275W        W16946  15.781  11.300  13.891
45276W        W16947   1.988  30.039  14.937
45277W        W16948   1.712  11.074   3.786
45278W        W16949  43.770   5.397   4.194
45279W        W16950  43.358   0.982  13.016
45280W        W16951  16.850  42.259   3.660
45281W        W16952  25.634  16.998   1.178
45282W        W16953  25.401  41.866   3.639
45283W        W16954  20.737  13.078   3.778
45284W        W16955  34.866  19.071   0.368
45285W        W16956   6.288  15.237  10.726
45286W        W16957  44.521  19.551  11.059
45287W        W16958  40.606  13.054  11.551
45288W        W16959  14.741  24.513  12.458
45289W        W16960   2.899  31.817  14.453
45290W        W16961   2.421  19.032  10.714
45291W        W16962  40.204   0.992  14.693
45292W        W16963   1.271  42.316   1.267
45293W        W16964  30.293  15.027   2.632
45294W        W16965  12.249  18.590  11.158
45295W        W16966  15.124  36.752   1.883
45296W        W16967   1.418  37.345   2.587
45297W        W16968  10.871   0.622  10.620
45298W        W16969  21.512  35.436  12.331
45299W        W16970  23.985   8.992  12.157
45300W        W16971  41.419  24.263   1.809
45301W        W16972  32.962  31.198  14.555
45302W        W16973  16.169  33.544  11.130
45303W        W16974  38.374  18.290   1.235
45304W        W16975  26.936  33.123   2.464
45305W        W16976   2.442   3.957  11.708
45306W        W16977  20.697  35.309   3.280
45307W        W16978  16.781  25.154  12.924
45308W        W16979  43.050   2.005   3.666
45309W        W16980  17.614  43.421   2.450
45310W        W16981  44.236  10.567  14.792
45311W        W16982   9.321  25.030   5.065
45312W        W16983   7.163  21.112  11.298
45313W        W16984  15.243  23.750  12.458
45314W        W16985  35.313   8.381  14.755
45315W        W16986  22.836  44.798  10.232
45316W        W16987   0.448  42.978   4.791
45317W        W16988  40.934  16.120  11.559
45318W        W16989  34.443  30.658  12.649
45319W        W16990   0.108  16.221   3.065
45320W        W16991  41.609  15.600   3.243
45321W        W16992  23.900  16.203  12.898
45322W        W16993  35.514  37.940  13.926
45323W        W16994   1.004  11.725  14.803
45324W        W16995  24.052  17.492   3.703
45325W        W16996   9.112  15.603  12.909
45326W        W16997  41.520  30.863  14.680
45327W        W16998  18.786  19.962   2.117
45328W        W16999  23.201  30.800  12.836
45329W        W17000   3.094   7.753   4.633
45330W        W17001  15.553  32.949  11.500
45331W        W17002  22.214  27.678  11.267
45332W        W17003  30.159  23.748   0.218
45333W        W17004   2.893   0.249   0.856
45334W        W17005  21.548  42.834   4.379
45335W        W17006  39.074   8.508  13.411
45336W        W17007   3.229  31.569   3.149
45337W        W17008  15.891  21.007   4.029
45338W        W17009  41.425  23.226   1.730
45339W        W17010  27.430  12.808   0.639
45340W        W17011  44.770  44.881   2.251
45341W        W17012  39.025   5.660   3.079
45342W        W17013  20.926  23.046   9.655
45343W        W17014  41.002  24.803   3.218
45344W        W17015  12.070  25.902  12.079
45345W        W17016  19.879  17.347  14.618
45346W        W17017   1.660  23.992  10.554
45347W        W17018  32.625   0.342  13.392
45348W        W17019  22.977  16.267   2.561
45349W        W17020  14.012   6.143   4.822
45350W        W17021  33.780  12.912   3.295
45351W        W17022   7.438  31.674  10.507
45352W        W17023   8.155  34.697   1.618
45353W        W17024  43.726  19.664  11.163
45354W        W17025  26.041   0.701   3.223
45355W        W17026   8.900  24.773  13.347
45356W        W17027  12.685   1.928   3.685
45357W        W17028  20.134  27.620  11.606
45358W        W17029   3.938  19.828   5.513
45359W        W17030  31.435  38.128  12.862
45360W        W17031  14.954  27.053  14.282
45361W        W17032   4.609  22.016   0.430
45362W        W17033  33.437   8.149   3.615
45363W        W17034  38.975  23.523  10.839
45364W        W17035  29.677  31.221   3.323
45365W        W17036  41.273  40.976   5.113
45366W        W17037   4.005  42.363   1.707
45367W        W17038  43.983  15.762   3.655
45368W        W17039   6.258  18.916  13.974
45369W        W17040  25.298   9.022  11.571
45370W        W17041  34.707  15.766  11.618
45371W        W17042   4.820  27.845  11.474
45372W        W17043  39.461  20.156   1.209
45373W        W17044  42.102   1.946  13.213
45374W        W17045   2.276  39.975   4.720
45375W        W17046  34.743   2.777   4.172
45376W        W17047  19.651   5.808   3.069
45377W        W17048   4.708  41.050   3.803
45378W        W17049  33.812  44.519  11.661
45379W        W17050   9.879  27.624  12.161
45380W        W17051  10.461   9.569  13.474
45381W        W17052  10.213   2.222   1.243
45382W        W17053  34.121  41.356  11.565
45383W        W17054  39.109  28.397   4.556
45384W        W17055  42.981   5.991   0.972
45385W        W17056  16.367   2.326  12.834
45386W        W17057  13.031  44.761   1.772
45387W        W17058   7.172  37.009   3.270
45388W        W17059  35.409   6.943  11.116
45389W        W17060  32.649  33.488   0.830
45390W        W17061  12.629  23.392  11.168
45391W        W17062  42.877  29.582  12.307
45392W        W17063  21.503   2.302  13.460
45393W        W17064  30.478   3.241  13.951
45394W        W17065  24.439  42.946   3.265
45395W        W17066   9.195   6.365   1.803
45396W        W17067  13.048  38.946  11.699
45397W        W17068  38.272  33.069   3.340
45398W        W17069   3.532  31.131   0.973
45399W        W17070  37.915  34.967  14.886
45400W        W17071  40.232  16.226  12.042
45401W        W17072  33.016  31.832   1.320
45402W        W17073  40.004  10.924  14.841
45403W        W17074   7.295  36.804  11.517
45404W        W17075  41.437   7.869   3.160
45405W        W17076  39.888  17.510  12.638
45406W        W17077  23.511  16.727  13.906
45407W        W17078  24.129  39.010   4.186
45408W        W17079  29.110  27.111   2.937
45409W        W17080   7.092   6.193  14.608
45410W        W17081  44.188  12.067  11.180
45411W        W17082  26.951  27.667   2.938
45412W        W17083  29.150  27.729   0.835
45413W        W17084  36.503   2.937  11.889
45414W        W17085  18.083  27.013   0.273
45415W        W17086  10.725  41.381   2.326
45416W        W17087  35.909  13.635  13.034
45417W        W17088  29.165  34.374  14.928
45418W        W17089   7.191  13.182  10.624
45419W        W17090   8.780   9.103  13.320
45420W        W17091   3.098  28.548   1.550
45421W        W17092  23.028  40.801  14.760
45422W        W17093   4.859  29.168   0.766
45423W        W17094  19.524  11.310   3.339
45424W        W17095  25.628  34.485   2.646
45425W        W17096   1.623  12.949  12.099
45426W        W17097  13.169  43.338  13.415
45427W        W17098  29.854  18.256  13.986
45428W        W17099  22.644  25.649   5.145
45429W        W17100  17.574  38.437  12.029
45430W        W17101  20.652  34.068  10.443
45431W        W17102   8.709  18.610   2.718
45432W        W17103  18.889  23.070  11.833
45433W        W17104  22.146  36.792  14.373
45434W        W17105  11.796   9.446  12.868
45435W        W17106  16.938  26.236   4.811
45436W        W17107  23.751  21.067   2.214
45437W        W17108   7.382  19.495   2.827
45438W        W17109  21.722  24.663  14.443
45439W        W17110   8.573   7.824   4.123
45440W        W17111  13.151  43.780   0.103
45441W        W17112  14.635  24.854  12.845
45442W        W17113  19.033  29.692   2.768
45443W        W17114   7.738  28.024   2.027
45444W        W17115  15.562  17.120   0.380
45445W        W17116   7.177  16.896   2.039
45446W        W17117  23.183  14.743  12.973
45447W        W17118  14.095  34.328   0.435
45448W        W17119  16.615   3.421  14.173
45449W        W17120  36.982   3.429   1.695
45450W        W17121  14.094  30.508   0.605
45451W        W17122   2.510  29.907   3.102
45452W        W17123  21.299  34.385  13.935
45453W        W17124  10.905   1.411  11.067
45454W        W17125  39.769  11.659   1.840
45455W        W17126  34.625   1.253   3.796
45456W        W17127  31.471  33.617   3.631
45457W        W17128   2.318   2.554   4.568
45458W        W17129  35.002   4.163  13.651
45459W        W17130   8.936  10.899  13.053
45460W        W17131  29.917  31.883  10.336
45461W        W17132  37.282  22.001   3.706
45462W        W17133   5.176  18.217   0.471
45463W        W17134  42.975  21.830   0.092
45464W        W17135  20.474   3.563   0.344
45465W        W17136  36.525  28.468   2.373
45466W        W17137  14.845   8.670  11.936
45467W        W17138  34.954  29.677   3.997
45468W        W17139  18.104  12.456   0.364
45469W        W17140  39.546  36.456   3.245
45470W        W17141  42.159  30.624  11.118
45471W        W17142  36.570  22.462  11.418
45472W        W17143  24.062  31.039  13.526
45473W        W17144  39.266  14.383   4.257
45474W        W17145  14.177  17.389   0.185
45475W        W17146  35.911  16.282  13.142
45476W        W17147  12.277  35.989  13.590
45477W        W17148  40.586  17.276   2.766
45478W        W17149  14.205  14.215  14.172
45479W        W17150  29.529  16.810   2.071
45480W        W17151  15.819   3.753  10.095
45481W        W17152  12.306  24.184   0.311
45482W        W17153  36.444  41.247   2.283
45483W        W17154  10.578  15.554  11.644
45484W        W17155  13.643   7.400   1.005
45485W        W17156   5.687  16.606  11.720
45486W        W17157  37.754  18.713   1.779
45487W        W17158  43.415  12.655  13.531
45488W        W17159  31.456   0.816  13.924
45489W        W17160  37.581   2.918  14.198
45490W        W17161  11.269  13.795   3.252
45491W        W17162  13.324   7.870  13.915
45492W        W17163   4.487  32.896  10.693
45493W        W17164   8.271   7.670  13.358
45494W        W17165  28.555  26.995  10.694
45495W        W17166  17.715   0.435  11.680
45496W        W17167  11.297   6.153   3.343
45497W        W17168   2.946  34.640   0.799
45498W        W17169  24.403  13.792   4.145
45499W        W17170  26.603  11.851   0.315
45500W        W17171   3.371  44.923  12.847
45501W        W17172   0.457  12.352  12.090
45502W        W17173  33.913  10.795  13.879
45503W        W17174  27.277  12.807  12.886
45504W        W17175  36.434   8.282   4.556
45505W        W17176  24.028  24.635   0.123
45506W        W17177  29.550  27.991   1.901
45507W        W17178  29.956   8.211  14.015
45508W        W17179  12.413  17.031   3.878
45509W        W17180  17.092  27.538   0.003
45510W        W17181   0.992  22.723   3.830
45511W        W17182   1.057  19.271  12.928
45512W        W17183   7.936  10.683  11.118
45513W        W17184   7.465  31.035  13.705
45514W        W17185  16.959  17.302   3.651
45515W        W17186  23.548  17.815   3.613
45516W        W17187  36.672  38.556   3.213
45517W        W17188  27.192  23.222  11.106
45518W        W17189  16.825  24.108   2.279
45519W        W17190  41.822   9.680  11.923
45520W        W17191  36.718  24.742  13.978
45521W        W17192  30.031  13.344  12.077
45522W        W17193  10.711  24.012   4.574
45523W        W17194  11.978  32.786   3.205
45524W        W17195   7.899  12.699  10.604
45525W        W17196  28.148  15.613  12.979
45526W        W17197  36.624   0.052   3.751
45527W        W17198  13.350  41.003  14.909
45528W        W17199  22.710  20.553   0.846
45529W        W17200  29.428   8.245  13.932
45530W        W17201  11.952  37.361  10.355
45531W        W17202  43.683  15.206   0.455
45532W        W17203   8.897  44.968  13.006
45533W        W17204   4.832  35.491  10.769
45534W        W17205  44.949   3.358  11.389
45535W        W17206  42.409  19.468  13.151
45536W        W17207  11.911   2.375   0.040
45537W        W17208  21.923  25.238   2.370
45538W        W17209  21.011  20.639   4.893
45539W        W17210   2.785  19.821  14.428
45540W        W17211  28.031  33.356  12.782
45541W        W17212  21.810  36.054  14.261
45542W        W17213   8.224  26.022   0.307
45543W        W17214  21.212  18.210  14.807
45544W        W17215   2.722  16.641  14.778
45545W        W17216  29.762  40.581   4.587
45546W        W17217  14.392   5.295   0.914
45547W        W17218  31.832  11.723   4.035
45548W        W17219  27.974  27.775   3.797
45549W        W17220  42.521  17.759  10.760
45550W        W17221  26.176   7.210   1.404
45551W        W17222  10.339  25.024  12.112
45552W        W17223  13.242  25.564  10.560
45553W        W17224  19.720  43.451  12.080
45554W        W17225  34.423  24.748   2.715
45555W        W17226  36.136  18.968   3.291
45556W        W17227  13.193  35.736   1.864
45557W        W17228  25.613   6.599  12.982
45558W        W17229   0.433  28.320   4.046
45559W        W17230  30.150  11.775   0.663
45560W        W17231  26.215  21.509   1.280
45561W        W17232  32.532  31.232   1.664
45562W        W17233  21.105  29.099   2.351
45563W        W17234  20.171  38.425  13.314
45564W        W17235  32.899  34.438  13.308
45565W        W17236  16.310   3.034  14.367
45566W        W17237  41.564   7.392  13.241
45567W        W17238   8.259  28.585   4.316
45568W        W17239  12.781  30.359  11.132
45569W        W17240  15.167  11.721  10.919
45570W        W17241  12.925  19.588  11.026
45571W        W17242  14.117  30.903   2.353
45572W        W17243   8.371  16.638  14.295
45573W        W17244  42.226   6.686  10.791
45574W        W17245   1.487  18.317   3.000
45575W        W17246  34.233  24.048   3.694
45576W        W17247  20.804  20.673  12.152
45577W        W17248   3.439  26.923   1.363
45578W        W17249   1.871  42.995  12.495
45579W        W17250   7.643  34.827  13.576
45580W        W17251  16.045  13.556   0.631
45581W        W17252  30.087   5.188  12.585
45582W        W17253  17.046  32.363   0.339
45583W        W17254  33.394  20.777  12.137
45584W        W17255  20.669  32.806   0.816
45585W        W17256  41.808   9.163  12.047
45586W        W17257  30.621   5.339   3.791
45587W        W17258   5.987  25.537   1.241
45588W        W17259  41.398  20.747  14.045
45589W        W17260  21.183  22.041  11.883
45590W        W17261  39.307  10.869   1.865
45591W        W17262  10.713  35.411  11.441
45592W        W17263  32.067  39.392   2.189
45593W        W17264  19.109  41.029  11.216
45594W        W17265  19.015  18.640   3.174
45595W        W17266  36.142  32.603   2.849
45596W        W17267  35.985  25.171   4.842
45597W        W17268  37.816  28.707   2.775
45598W        W17269  30.521  13.725   0.863
45599W        W17270  21.230  16.178   1.231
45600W        W17271   2.060  10.767  12.417
45601W        W17272  32.469   1.370   4.795
45602W        W17273  37.571  15.519  13.065
45603W        W17274   9.295  14.809   1.806
45604W        W17275  14.566  32.141  13.955
45605W        W17276  18.140  34.927  14.722
45606W        W17277  40.807  33.696   1.765
45607W        W17278  11.847  29.641  13.016
45608W        W17279  28.323  27.602  12.666
45609W        W17280  20.052  44.749  10.644
45610W        W17281   2.491  11.701  12.466
45611W        W17282  13.563  21.523  12.070
45612W        W17283   0.157  19.090   2.602
45613W        W17284  33.959  10.195   2.339
45614W        W17285  27.222  26.837   3.900
45615W        W17286  15.250  44.514  14.028
45616W        W17287  30.907   0.711  14.742
45617W        W17288  31.979  13.619  13.044
45618W        W17289   4.955  37.578  12.997
45619W        W17290   2.053  15.571   0.320
45620W        W17291  11.901  13.608   4.056
45621W        W17292  20.985  18.598  10.851
45622W        W17293  40.086   3.119   0.408
45623W        W17294  25.339  44.786  11.998
45624W        W17295  39.367  20.617   4.372
45625W        W17296  30.469  28.561   0.213
45626W        W17297  11.754  41.697   0.325
45627W        W17298  27.362   6.363   2.731
45628W        W17299  18.714  14.314   1.397
45629W        W17300  30.383   7.936  14.859
45630W        W17301   9.763  14.835  10.517
45631W        W17302  44.819  37.532   3.845
45632W        W17303  24.541  25.124  13.859
45633W        W17304  27.761  35.612  12.012
45634W        W17305  28.310  17.032   1.033
45635W        W17306   5.951  28.592   0.314
45636W        W17307  16.538  29.965  12.178
45637W        W17308  19.258  26.174  13.839
45638W        W17309  18.850  12.185  10.635
45639W        W17310  35.221  43.154  12.574
45640W        W17311  42.474   9.830   1.448
45641W        W17312   8.935   7.202  10.811
45642W        W17313  10.424   0.135  11.594
45643W        W17314  15.644  19.652   0.868
45644W        W17315  37.555   0.944   3.588
45645W        W17316  13.181  42.580  11.602
45646W        W17317  28.519   0.375   4.671
45647W        W17318  17.354  38.752   2.818
45648W        W17319  42.924   9.862  13.499
45649W        W17320  19.438  13.138   2.603
45650W        W17321  22.965  33.641   0.999
45651W        W17322  23.148  24.936  10.777
45652W        W17323  29.156  37.052   4.116
45653W        W17324   6.967  24.491   0.722
45654W        W17325  19.092  19.543  13.637
45655W        W17326  10.908  21.994   1.726
45656W        W17327   4.872  43.377  12.921
45657W        W17328   5.719  30.667   3.645
45658W        W17329  36.913  24.043  13.228
45659W        W17330   3.253  27.280   5.179
45660W        W17331   3.434  25.330   2.396
45661W        W17332  33.818  19.284  10.747
45662W        W17333  20.655   4.194   2.656
45663W        W17334  11.376  28.566  12.053
45664W        W17335  15.663  25.540   2.934
45665W        W17336  10.985  15.729   2.839
45666W        W17337  39.076   7.473  11.021
45667W        W17338  12.606  43.515  14.347
45668W        W17339  16.837  21.047  11.939
45669W        W17340   8.216  17.058  10.596
45670W        W17341  42.262  28.214   4.622
45671W        W17342  20.174  40.568  14.900
45672W        W17343  22.046   0.698  12.846
45673W        W17344  19.189   3.733   0.873
45674W        W17345  43.256  24.642  14.835
45675W        W17346  40.498  27.472  13.674
45676W        W17347  22.762  32.725   3.944
45677W        W17348  18.654   3.347   4.902
45678W        W17349  29.902  28.948   1.861
45679W        W17350  34.330  29.699   2.270
45680W        W17351  24.051  31.893   9.955
45681W        W17352   4.450   4.269   4.147
45682W        W17353  30.626  16.029  12.320
45683W        W17354  37.030  13.338   4.082
45684W        W17355  27.658   7.314   0.158
45685W        W17356   2.200  11.338  12.903
45686W        W17357  13.829  22.616  10.691
45687W        W17358  41.612  19.028   3.186
45688W        W17359  40.649  24.425   4.889
45689W        W17360   4.254  32.185  14.304
45690W        W17361  44.402  13.089  11.126
45691W        W17362  26.240  33.216   3.114
45692W        W17363   8.181  13.156  10.566
45693W        W17364  44.282  10.632  11.875
45694W        W17365  24.121  26.126   0.722
45695W        W17366  18.657  41.795  12.605
45696W        W17367  25.186  40.175   2.471
45697W        W17368   6.020  25.092  10.697
45698W        W17369  29.474  30.979   0.234
45699W        W17370  17.242  43.512  10.965
45700W        W17371  11.122  37.115  14.918
45701W        W17372  22.435   6.383  11.494
45702W        W17373  18.149   4.856   2.077
45703W        W17374  42.249  12.936  13.827
45704W        W17375  36.932  29.383  12.544
45705W        W17376  23.188   3.057   1.934
45706W        W17377  32.357  11.207  10.754
45707W        W17378  15.062  22.176  10.623
45708W        W17379  30.906  20.598   3.673
45709W        W17380  23.170  18.234   4.329
45710W        W17381  42.259  32.301   1.772
45711W        W17382  33.764  10.670   2.308
45712W        W17383   7.847  43.753   2.729
45713W        W17384  32.947  44.721   1.159
45714W        W17385  12.539  39.554  10.790
45715W        W17386  19.621  29.054   1.377
45716W        W17387  40.878  30.169   0.839
45717W        W17388   7.246   1.351   2.257
45718W        W17389   2.524  17.290  13.811
45719W        W17390   5.728   7.902  12.067
45720W        W17391  40.833  33.874  10.775
45721W        W17392  25.711   1.504   2.193
45722W        W17393  33.569  12.976  11.387
45723W        W17394   6.321  20.483   4.699
45724W        W17395  27.039  33.455  13.493
45725W        W17396  40.271  25.664   0.555
45726W        W17397  43.878  35.516  14.022
45727W        W17398   2.922  38.527   4.438
45728W        W17399  17.228  21.882   4.292
45729W        W17400  24.047  35.643   3.550
45730W        W17401  31.874   6.006   3.243
45731W        W17402   0.426  22.090   4.215
45732W        W17403  40.784   9.666  13.026
45733W        W17404   2.317  16.706   2.881
45734W        W17405  37.992  37.434  10.178
45735W        W17406  18.694  27.502  11.434
45736W        W17407  18.319   2.353   4.785
45737W        W17408   2.287  40.221   4.269
45738W        W17409  29.747   3.254   3.356
45739W        W17410   8.367   3.808  12.088
45740W        W17411  31.071  24.251  13.938
45741W        W17412  35.451   2.402   4.820
45742W        W17413  23.497  44.118   2.405
45743W        W17414   9.935   3.454   2.771
45744W        W17415  36.616  27.053   3.844
45745W        W17416  25.458  42.801  12.090
45746W        W17417  21.737  17.263   3.141
45747W        W17418   6.455  29.231   3.065
45748W        W17419  28.432   5.514   1.695
45749W        W17420  18.248  44.980  10.490
45750W        W17421  18.035  22.753   1.922
45751W        W17422  21.716   7.354  14.057
45752W        W17423  38.486  39.338   4.414
45753W        W17424   2.667  40.778   2.825
45754W        W17425  44.871   3.530   3.269
45755W        W17426  35.154  17.262   0.512
45756W        W17427  30.092  20.187  11.707
45757W        W17428  12.129  25.703  11.299
45758W        W17429   5.430  19.555   4.876
45759W        W17430   6.247  36.386   3.782
45760W        W17431  34.227  40.432  11.577
45761W        W17432   8.776  34.445   4.918
45762W        W17433   0.602  20.485  14.757
45763W        W17434   3.023  44.473  12.910
45764W        W17435   4.234  34.890  11.111
45765W        W17436  31.449   9.795   1.888
45766W        W17437  27.507   6.959  12.349
45767W        W17438  15.241  44.180  11.119
45768W        W17439  26.846  26.902   0.942
45769W        W17440  39.915  16.666   3.860
45770W        W17441   3.265  21.738  12.574
45771W        W17442  33.048  33.935   2.147
45772W        W17443  31.501  31.884  14.784
45773W        W17444  38.493  16.863   0.472
45774W        W17445  14.743  18.078  10.270
45775W        W17446  10.323  40.036  14.802
45776W        W17447  30.200  23.358   2.812
45777W        W17448  14.264  16.172  13.139
45778W        W17449  43.462  25.421  13.866
45779W        W17450  28.198   6.455  12.898
45780W        W17451  30.589  13.814   4.454
45781W        W17452  37.618  27.541   1.831
45782W        W17453  44.319  24.726  12.068
45783W        W17454  34.617  17.170  12.784
45784W        W17455  13.977  33.359  14.407
45785W        W17456  33.658  18.826   4.249
45786W        W17457  14.712   9.362  13.995
45787W        W17458  32.861  39.893  12.593
45788W        W17459  33.338  21.715  12.128
45789W        W17460  40.586  12.292  14.476
45790W        W17461   2.001  43.343  11.619
45791W        W17462   8.453   5.207  13.514
45792W        W17463  31.024  29.676  14.944
45793W        W17464   8.443  15.738  11.219
45794W        W17465  20.602  29.034   1.289
45795W        W17466  28.453  19.949   4.309
45796W        W17467   1.450  43.290   1.889
45797W        W17468  24.004  43.952   2.361
45798W        W17469  44.237  42.490   3.381
45799W        W17470  13.152  13.081   1.349
45800W        W17471  28.840   2.214  14.578
45801W        W17472  30.615  39.339   4.245
45802W        W17473   3.921  16.786   4.653
45803W        W17474  11.327  28.667  14.915
45804W        W17475  27.028  14.170   4.946
45805W        W17476  30.599  29.556   3.189
45806W        W17477  14.168  40.973   4.913
45807W        W17478  39.278  13.884  13.012
45808W        W17479  34.964  11.390  13.240
45809W        W17480   0.902   5.442  13.060
45810W        W17481  35.570  38.026  11.144
45811W        W17482  11.126  36.989   0.837
45812W        W17483  24.775  29.951  11.179
45813W        W17484   4.225   5.962  12.548
45814W        W17485  15.602  10.595  11.748
45815W        W17486  43.519  43.168  14.884
45816W        W17487  39.317   5.963   0.319
45817W        W17488  44.542   7.214  14.974
45818W        W17489   1.103  17.640  11.688
45819W        W17490  33.644  18.802  13.877
45820W        W17491  31.379   6.820  14.899
45821W        W17492  34.673   8.820  11.463
45822W        W17493   6.778  19.092  10.740
45823W        W17494  44.549  27.004  13.863
45824W        W17495  15.702   0.629  13.416
45825W        W17496  41.227   7.112  11.033
45826W        W17497   2.462  12.534  12.005
45827W        W17498  12.738  41.861   4.721
45828W        W17499  34.955  31.443  11.674
45829W        W17500   4.688  19.122   4.567
45830W        W17501   2.368  12.160   4.149
45831W        W17502   2.709  12.277   4.561
45832W        W17503   5.384  25.892   4.450
45833W        W17504  43.964  19.563   5.029
45834W        W17505  18.225   9.257  13.374
45835W        W17506   1.790  31.077  14.298
45836W        W17507   6.329  36.393   2.853
45837W        W17508  27.477  36.826   3.202
45838W        W17509  43.905  21.040  12.002
45839W        W17510  16.000  27.576   0.770
45840W        W17511  10.665  34.827  13.982
45841W        W17512   8.870  36.012  13.793
45842W        W17513  21.698  17.488  14.908
45843W        W17514   0.922   0.402   4.578
45844W        W17515   0.277  10.415   4.967
45845W        W17516  33.139   8.677  11.667
45846W        W17517  18.225   5.981   3.602
45847W        W17518  14.496   0.040  13.543
45848W        W17519   2.356  33.907  13.676
45849W        W17520  17.814  24.863   3.036
45850W        W17521  11.119   9.499   3.113
45851W        W17522   9.800  17.314  14.823
45852W        W17523   9.216  38.333   0.293
45853W        W17524  14.628  14.581   1.240
45854W        W17525  20.661  33.982  11.990
45855W        W17526  38.303  35.608  11.459
45856W        W17527  19.307  24.786  13.824
45857W        W17528  34.663  35.107   1.284
45858W        W17529  18.083  37.500  12.857
45859W        W17530  40.928  15.610  10.743
45860W        W17531   0.742  27.671   3.827
45861W        W17532  31.731   1.653  11.781
45862W        W17533  41.992  15.172  11.549
45863W        W17534  23.496  39.392  13.065
45864W        W17535   8.771  41.160  12.464
45865W        W17536  11.325   0.274   1.096
45866W        W17537  28.465  11.420  14.881
45867W        W17538  18.339  22.219  10.709
45868W        W17539   6.180   0.350  13.036
45869W        W17540  14.964  27.094  11.154
45870W        W17541  15.343  11.823  14.561
45871W        W17542  29.466  15.071   0.808
45872W        W17543   7.189  23.187   1.035
45873W        W17544  12.455  17.554  13.385
45874W        W17545  16.154   6.879   2.946
45875W        W17546  12.618   7.819  13.303
45876W        W17547  29.977  18.920   0.997
45877W        W17548   5.592  34.137   4.384
45878W        W17549  20.096   1.378  11.870
45879W        W17550  31.406  19.868  11.110
45880W        W17551   5.878  29.882   1.396
45881W        W17552   3.197  20.327  14.812
45882W        W17553  37.589  28.448  13.478
45883W        W17554   8.317  12.644  13.523
45884W        W17555  33.971  10.706   0.955
45885W        W17556  37.825  43.141   1.217
45886W        W17557  32.410  26.669  11.005
45887W        W17558  16.054  22.046  12.154
45888W        W17559   9.619  36.790   2.160
45889W        W17560  14.724  30.945   2.879
45890W        W17561   1.435  19.100   2.263
45891W        W17562   0.825  27.796  13.550
45892W        W17563  27.528  14.864  13.319
45893W        W17564  24.616  32.119  14.864
45894W        W17565  19.979   1.696  12.324
45895W        W17566  11.366  28.771   1.736
45896W        W17567  19.904  39.871   1.909
45897W        W17568  28.080  13.998   0.319
45898W        W17569  22.058  17.326   2.092
45899W        W17570  29.622  22.404  13.567
45900W        W17571  43.514  33.133   3.421
45901W        W17572  34.461  33.399   1.373
45902W        W17573  23.799  35.591   2.810
45903W        W17574  24.391   7.947   3.790
45904W        W17575   2.651  42.559  11.506
45905W        W17576  24.235  12.764  10.791
45906W        W17577  24.247  44.014  14.383
45907W        W17578   4.924  43.057  14.464
45908W        W17579  30.918  22.242  12.944
45909W        W17580  34.883  25.551   1.932
45910W        W17581   2.491  32.123  14.323
45911W        W17582  22.136  43.228   2.893
45912W        W17583   3.344  21.779  11.529
45913W        W17584  15.610   6.896   2.845
45914W        W17585  17.228  31.342   1.311
45915W        W17586   7.884   5.836   0.627
45916W        W17587   1.947  33.845   1.459
45917W        W17588  43.077  13.768   1.346
45918W        W17589  22.165  38.501   2.150
45919W        W17590  39.061   7.510  13.428
45920W        W17591  30.064  19.392  10.790
45921W        W17592  13.642  39.091   4.319
45922W        W17593  35.141   0.324  12.466
45923W        W17594  21.836  22.173   1.752
45924W        W17595  27.685   8.969   5.097
45925W        W17596  44.369  33.329   4.658
45926W        W17597  27.997  14.191  13.070
45927W        W17598   1.468  19.822  11.155
45928W        W17599  21.501   4.290  14.502
45929W        W17600  38.517  34.590   0.405
45930W        W17601   0.387  13.194   3.909
45931W        W17602  17.742  39.465   2.606
45932W        W17603   7.193  32.187  12.895
45933W        W17604  21.764  42.483  12.864
45934W        W17605   5.701  38.504  12.236
45935W        W17606  26.602  17.021  10.904
45936W        W17607  15.762  22.590   1.940
45937W        W17608  35.398  28.971   0.899
45938W        W17609  32.454  29.958   3.221
45939W        W17610  42.504   7.365   4.588
45940W        W17611   5.937  13.602  10.506
45941W        W17612   6.995  23.570  13.711
45942W        W17613  19.477  44.389   0.063
45943W        W17614  19.928   4.050  13.340
45944W        W17615  18.609  44.682  14.894
45945W        W17616  16.315  33.512  13.058
45946W        W17617  21.374   8.213  13.527
45947W        W17618  38.386  30.239  13.410
45948W        W17619   7.280   4.729  11.652
45949W        W17620  16.251  14.535  11.332
45950W        W17621  16.122  25.495   2.069
45951W        W17622  14.002   4.438   1.687
45952W        W17623  36.880  16.839  12.039
45953W        W17624  31.430   0.938  11.520
45954W        W17625  27.726  32.972   3.827
45955W        W17626   7.188   4.703   0.296
45956W        W17627  44.376  15.037   3.298
45957W        W17628  34.989   1.166   2.290
45958W        W17629  32.169   5.090   0.875
45959W        W17630  26.544  11.205   2.598
45960W        W17631   2.933  29.675   4.154
45961W        W17632  22.955  32.461  12.442
45962W        W17633   3.322  33.117  11.998
45963W        W17634   7.909  10.727   1.056
45964W        W17635  41.057   1.395  14.957
45965W        W17636  11.282  42.402   3.992
45966W        W17637   2.455  27.550  11.969
45967W        W17638   7.226  30.473   3.715
45968W        W17639  19.829  25.952   2.890
45969W        W17640  38.730  35.557  11.731
45970W        W17641  44.920  36.366  12.878
45971W        W17642  18.379  20.222  13.530
45972W        W17643  20.652  24.430   1.742
45973W        W17644  36.459  24.526  10.729
45974W        W17645  37.893  18.017   2.192
45975W        W17646   6.910  22.624   2.927
45976W        W17647   4.358  43.086  13.196
45977W        W17648  26.128  21.809   2.115
45978W        W17649  32.346  39.071  10.686
45979W        W17650  27.737  29.228   3.414
45980W        W17651  31.212   7.996  11.286
45981W        W17652  34.422  18.238  11.933
45982W        W17653  36.546  20.899  13.904
45983W        W17654  33.650   0.474   2.761
45984W        W17655   3.142  35.863   3.371
45985W        W17656  23.582   8.762  14.981
45986W        W17657  41.985   4.366   1.061
45987W        W17658  17.090  21.259   0.165
45988W        W17659  15.248  39.803   3.295
45989W        W17660  20.971  20.763  13.047
45990W        W17661  40.375   4.802   2.689
45991W        W17662  15.220   8.795  13.451
45992W        W17663   9.721  28.700   2.141
45993W        W17664   4.502  14.597   3.376
45994W        W17665  28.119   6.258   3.837
45995W        W17666  37.816  30.187   2.343
45996W        W17667   0.852   4.040   0.756
45997W        W17668  38.918  24.620   4.490
45998W        W17669  39.434  37.103   3.199
45999W        W17670   4.088  40.050   3.063
46000W        W17671  34.121  20.142   2.397
46001W        W17672   7.350   7.407  13.394
46002W        W17673  24.587  43.209  14.693
46003W        W17674  44.242   6.788   2.924
46004W        W17675  29.446  28.168  13.986
46005W        W17676  19.856   3.384  14.052
46006W        W17677   1.523  14.287  11.973
46007W        W17678   7.619   8.392   3.634
46008W        W17679  19.545  39.345   4.588
46009W        W17680   0.821  17.239   0.661
46010W        W17681   5.945  15.879  12.173
46011W        W17682  22.022  27.989  11.931
46012W        W17683  34.703   4.804  14.294
46013W        W17684   7.431   5.963  12.047
46014W        W17685   2.448  30.638   3.623
46015W        W17686  16.372  24.536   1.013
46016W        W17687  22.732  36.491  11.244
46017W        W17688  38.354   3.298  10.497
46018W        W17689  19.288  29.745   4.314
46019W        W17690  38.549   4.367  12.009
46020W        W17691   2.448  20.222   2.160
46021W        W17692  14.466  30.895  13.362
46022W        W17693  42.489  31.617   4.246
46023W        W17694  39.954  41.946  12.487
46024W        W17695  37.424  18.388   5.039
46025W        W17696  13.823  27.009  13.368
46026W        W17697  43.929  41.614   3.680
46027W        W17698  43.439   1.566  14.337
46028W        W17699  44.959  13.564  10.617
46029W        W17700  34.867  15.414  11.163
46030W        W17701  10.266  14.058   3.661
46031W        W17702  42.302  37.109   3.640
46032W        W17703  28.239   0.740  10.302
46033W        W17704   6.293   1.508   2.327
46034W        W17705  19.017  36.793  13.921
46035W        W17706   6.145  27.969   1.248
46036W        W17707   5.969   5.896   4.536
46037W        W17708  24.784  43.003   3.857
46038W        W17709  20.671   8.659  12.484
46039W        W17710  20.149  29.921  13.405
46040W        W17711   8.946  25.222   2.763
46041W        W17712  19.551  15.104   4.069
46042W        W17713  32.562  13.885  14.660
46043W        W17714  34.724   0.899  11.969
46044W        W17715   9.774  34.596  13.729
46045W        W17716  34.067  43.911  12.602
46046W        W17717   3.216  43.176   2.659
46047W        W17718  13.906  44.422  14.300
46048W        W17719  36.701  17.328   1.440
46049W        W17720   2.839  25.359   1.263
46050W        W17721   7.134   8.964  11.969
46051W        W17722   7.674   4.464   0.005
46052W        W17723  30.481  26.242   1.790
46053W        W17724   2.864  21.134  12.897
46054W        W17725  19.622  24.129   1.066
46055W        W17726  27.006  36.537   4.083
46056W        W17727  12.312  43.560  14.789
46057W        W17728  25.763  25.968  14.940
46058W        W17729  32.483  44.405  13.722
46059W        W17730  11.672  12.182   2.578
46060W        W17731  26.261  16.557  11.623
46061W        W17732  15.058  18.178   1.386
46062W        W17733  44.419  25.002  13.819
46063W        W17734  37.980  43.022  10.294
46064W        W17735  26.501  15.496   0.844
46065W        W17736  33.142  15.674  12.833
46066W        W17737  39.367   4.742  14.426
46067W        W17738  20.187  41.929  14.686
46068W        W17739  22.971  25.167   0.054
46069W        W17740  17.428   8.465   4.703
46070W        W17741  22.584  24.643  13.334
46071W        W17742  26.614  26.302  13.469
46072W        W17743   2.381  29.892  11.605
46073W        W17744  26.967  44.868   1.642
46074W        W17745  42.384   3.743  12.530
46075W        W17746  14.826  10.548   1.462
46076W        W17747  15.313  22.139   0.320
46077W        W17748  16.128  22.732  13.041
46078W        W17749  40.051  19.446  10.728
46079W        W17750  36.657  34.067   0.485
46080W        W17751  40.366  36.823  12.966
46081W        W17752   6.614  15.783   1.321
46082W        W17753   5.753   7.639  11.619
46083W        W17754  11.946  28.169   1.170
46084W        W17755   7.430  30.626   2.365
46085W        W17756  39.041  41.976  10.623
46086W        W17757   4.269  38.582   4.560
46087W        W17758  16.935  22.630   9.885
46088W        W17759  33.485   3.180  13.477
46089W        W17760  32.916  19.505  14.843
46090W        W17761   7.450  41.423   0.868
46091W        W17762  19.683   7.426   2.510
46092W        W17763  14.935  14.724  13.163
46093W        W17764  28.246  11.922  12.595
46094W        W17765  41.123  34.213  11.931
46095W        W17766  28.678  27.963   0.779
46096W        W17767  26.533  17.898   1.875
46097W        W17768  11.195  22.172  12.853
46098W        W17769  17.777  37.527   0.514
46099W        W17770  21.137  28.216  11.095
46100W        W17771  33.607  29.588   1.791
46101W        W17772  19.008  16.779  12.025
46102W        W17773  23.000  40.444   2.468
46103W        W17774   5.383  41.893  14.424
46104W        W17775  38.056  19.486  12.180
46105W        W17776  14.136  43.441  12.877
46106W        W17777  22.976  16.758  14.990
46107W        W17778  32.722  20.442  12.427
46108W        W17779  11.051   7.927  10.681
46109W        W17780  10.653  33.006   0.926
46110W        W17781  13.575  12.128   2.683
46111W        W17782   3.912  10.325  13.394
46112W        W17783  37.604  15.030   3.426
46113W        W17784   6.336  14.136   1.687
46114W        W17785  15.778  21.448  11.064
46115W        W17786   2.103   5.783  13.868
46116W        W17787  41.385  34.434  14.932
46117W        W17788  31.220  31.954   0.258
46118W        W17789  16.039   8.818   0.655
46119W        W17790  27.868  43.873  14.664
46120W        W17791  17.301  21.006  14.003
46121W        W17792  25.288  13.697   1.444
46122W        W17793  32.339  10.509  11.496
46123W        W17794   9.068  30.094  13.070
46124W        W17795  27.138   0.311  12.528
46125W        W17796  44.123  12.670  10.243
46126W        W17797  11.304  34.398  13.374
46127W        W17798  20.713  43.865   0.059
46128W        W17799  31.070   2.284   1.953
46129W        W17800   1.751   9.711   2.685
46130W        W17801   4.246  43.151   1.226
46131W        W17802  13.340  38.778   3.526
46132W        W17803  25.197  21.683  12.585
46133W        W17804  19.148   3.924  14.260
46134W        W17805  19.799  25.589  11.062
46135W        W17806  23.907   1.823   0.452
46136W        W17807  18.200  17.242  12.062
46137W        W17808  17.271  14.430  12.017
46138W        W17809  38.847   1.053   0.054
46139W        W17810  34.187  34.933  13.267
46140W        W17811  34.410  37.612   0.905
46141W        W17812  18.642  10.448   1.318
46142W        W17813  43.189  19.653  14.415
46143W        W17814  26.554  38.771  12.981
46144W        W17815  42.962   2.928   3.859
46145W        W17816  31.666  27.690  10.926
46146W        W17817   7.705  27.061   2.241
46147W        W17818   7.089  24.017  12.089
46148W        W17819  15.736  28.403  11.757
46149W        W17820  25.642  15.821  12.987
46150W        W17821   4.224   4.274  14.489
46151W        W17822  29.880   9.158  10.503
46152W        W17823  42.108   5.196   0.613
46153W        W17824  22.785  13.078  14.794
46154W        W17825  26.364   4.917   4.546
46155W        W17826  44.952   2.952   4.168
46156W        W17827   6.110  39.071   0.373
46157W        W17828   0.253   9.227   3.969
46158W        W17829  44.274  33.889   0.267
46159W        W17830   0.992  35.936  11.140
46160W        W17831  39.433   3.498  10.561
46161W        W17832  19.225  21.273  11.462
46162W        W17833  20.908  40.965   4.226
46163W        W17834  18.614  15.610  13.704
46164W        W17835  20.125   1.370  12.994
46165W        W17836  32.078  26.396  14.932
46166W        W17837   1.501  17.144   4.088
46167W        W17838   9.603  35.044  13.968
46168W        W17839   1.726  31.465  12.868
46169W        W17840  42.770  40.346  11.638
46170W        W17841  37.460  13.593   4.147
46171W        W17842  15.612  36.481   3.132
46172W        W17843  14.672  25.860  12.807
46173W        W17844   0.038  40.178   1.990
46174W        W17845  14.126  23.471   3.886
46175W        W17846  29.568  15.799   2.328
46176W        W17847   2.630  21.287   3.210
46177W        W17848  35.519  43.389   0.715
46178W        W17849   8.277  25.516  14.374
46179W        W17850  15.399   5.721   0.294
46180W        W17851  33.282  25.184  13.276
46181W        W17852   5.511   5.598  11.521
46182W        W17853  28.122  17.489   0.833
46183W        W17854  35.981   9.869   1.416
46184W        W17855  41.911  36.481   4.618
46185W        W17856  36.296  40.087   9.745
46186W        W17857  21.630  32.438   0.404
46187W        W17858  12.809  24.681  12.969
46188W        W17859  38.897  11.639  11.566
46189W        W17860  27.952  39.439   2.747
46190W        W17861  36.067  41.507  14.871
46191W        W17862   5.621   7.577   2.412
46192W        W17863  40.478  27.323   3.816
46193W        W17864   4.011   2.218   0.519
46194W        W17865  32.391   4.671  10.488
46195W        W17866  23.754  24.074   3.283
46196W        W17867  33.133  40.916   2.778
46197W        W17868   0.520   2.104   2.739
46198W        W17869  33.958  17.120  14.658
46199W        W17870  41.751   5.287  12.664
46200W        W17871  33.386  30.070  13.091
46201W        W17872  25.736  16.081   2.791
46202W        W17873  29.507  18.600  13.793
46203W        W17874  23.402  33.331   0.912
46204W        W17875  42.562  42.261  14.867
46205W        W17876  41.789   2.660  12.190
46206W        W17877  43.092  41.876  10.581
46207W        W17878  13.708  16.104  14.855
46208W        W17879  26.340  14.364   1.015
46209W        W17880  19.449  23.844  13.703
46210W        W17881  24.225  31.955  13.027
46211W        W17882  15.600  31.292  14.355
46212W        W17883  37.986   1.611  12.971
46213W        W17884   3.475  19.662   4.185
46214W        W17885  37.439   5.744   0.844
46215W        W17886   8.925  27.123  13.998
46216W        W17887   8.139  44.725  11.964
46217W        W17888   7.774  37.838   3.224
46218W        W17889  23.689  35.302   2.385
46219W        W17890   0.785  10.536   3.456
46220W        W17891  41.319  29.977   0.073
46221W        W17892  18.092   1.895   4.595
46222W        W17893   2.519  44.835  14.245
46223W        W17894   4.497  37.562  13.221
46224W        W17895  37.267  28.135  12.545
46225W        W17896  38.395  42.807   2.450
46226W        W17897   0.498  38.154  10.991
46227W        W17898  11.221   8.510  13.805
46228W        W17899  35.298  36.177  13.210
46229W        W17900   5.239  35.004  13.348
46230W        W17901   5.849  14.791  12.585
46231W        W17902  25.070  34.951   3.214
46232W        W17903   2.802   8.113   3.299
46233W        W17904   4.358  22.608   3.958
46234W        W17905  16.841   5.701  13.427
46235W        W17906  25.880  37.569   2.164
46236W        W17907  31.829  12.892  11.078
46237W        W17908  44.243  39.521   4.251
46238W        W17909  15.699  22.449  12.066
46239W        W17910   9.190   8.193  13.712
46240W        W17911  32.735  19.704  14.117
46241W        W17912  31.679   4.871   0.809
46242W        W17913  25.208  10.368   4.930
46243W        W17914  18.760  26.774  10.027
46244W        W17915  37.629  40.597   2.954
46245W        W17916  42.931  15.777  10.628
46246W        W17917  34.649  42.141  13.076
46247W        W17918  42.062  22.795  12.200
46248W        W17919  13.055  37.063  12.540
46249W        W17920  32.137   1.487   0.396
46250W        W17921   0.261  10.809  14.947
46251W        W17922  12.805  15.860   2.824
46252W        W17923   9.907  17.287  14.300
46253W        W17924  33.306  44.762  14.244
46254W        W17925  33.970   0.435   2.174
46255W        W17926  32.677  31.448  10.544
46256W        W17927  41.926  33.655   1.751
46257W        W17928  38.979   8.762   4.711
46258W        W17929  38.420  22.177   4.583
46259W        W17930  19.579  22.427   2.368
46260W        W17931  26.881  34.859   1.901
46261W        W17932  41.951  33.667   4.677
46262W        W17933  27.531  26.128   0.732
46263W        W17934  21.213   2.463   0.602
46264W        W17935   9.836  18.693  10.896
46265W        W17936  33.585  12.133   3.093
46266W        W17937  19.618  16.101   0.968
46267W        W17938  20.077   8.250  14.373
46268W        W17939   0.910  26.538  14.828
46269W        W17940   8.345  12.148  14.831
46270W        W17941   3.185  32.633  12.170
46271W        W17942  14.079  22.219   0.115
46272W        W17943  28.185  33.530   2.760
46273W        W17944  34.423   5.047   0.776
46274W        W17945   3.666   1.255  13.418
46275W        W17946  37.082  40.573  13.224
46276W        W17947   1.620  15.628   3.749
46277W        W17948  12.081   6.798   1.191
46278W        W17949  31.316  22.647   3.039
46279W        W17950   3.727  13.782   4.329
46280W        W17951  11.110  42.913   0.236
46281W        W17952  21.115   8.277   1.398
46282W        W17953  36.418   7.405  10.763
46283W        W17954  16.009   6.690  13.860
46284W        W17955  39.875   9.291  14.769
46285W        W17956  37.022  20.701  13.767
46286W        W17957  35.374  37.149   0.461
46287W        W17958  26.296  24.227   0.660
46288W        W17959  20.923  19.751   1.304
46289W        W17960  16.923  31.064   0.377
46290W        W17961  34.849  11.191   3.827
46291W        W17962  25.007  42.930   2.401
46292W        W17963  12.421  34.982   2.015
46293W        W17964   0.077  37.741   2.930
46294W        W17965  15.109  19.592  10.869
46295W        W17966   8.129   3.050   1.225
46296W        W17967  30.564  35.960   2.135
46297W        W17968  24.271  12.029  14.809
46298W        W17969  33.095  12.178  12.532
46299W        W17970  36.515  11.157   2.486
46300W        W17971  37.304  28.683   4.598
46301W        W17972  32.523  10.870   1.723
46302W        W17973  25.083  27.464  12.450
46303W        W17974  44.162  26.457   0.326
46304W        W17975  24.284  17.946  11.140
46305W        W17976  41.871  20.932   9.995
46306W        W17977  18.965  17.545   2.206
46307W        W17978   7.140  41.069   2.781
46308W        W17979  23.639  34.494   4.751
46309W        W17980  14.286  12.714   4.240
46310W        W17981  40.627   6.831   4.569
46311W        W17982  14.753   3.674  10.634
46312W        W17983  33.611   3.818   1.781
46313W        W17984  38.450   0.386   0.411
46314W        W17985  31.233  33.874  13.359
46315W        W17986  36.865  14.854   4.383
46316W        W17987  28.724  26.923   0.855
46317W        W17988  22.510  31.736   2.860
46318W        W17989   2.760   7.947   0.324
46319W        W17990  19.936  23.725   0.949
46320W        W17991  22.366  16.558   1.947
46321W        W17992  29.460   8.536  12.672
46322W        W17993  42.926  17.652  13.880
46323W        W17994   7.730  11.918  11.140
46324W        W17995  17.131  24.418   4.985
46325W        W17996  11.628  24.002  14.556
46326W        W17997  31.563  29.431  13.457
46327W        W17998   3.850  42.433  12.583
46328W        W17999  30.371  26.986   1.309
46329W        W18000   4.418  40.396  10.690
46330W        W18001  43.954  26.726   4.845
46331W        W18002   3.468   8.693  11.123
46332W        W18003  15.340   6.464   2.783
46333W        W18004  14.277  23.095   3.086
46334W        W18005  13.023  22.770   2.247
46335W        W18006  42.553  17.504  12.202
46336W        W18007  38.490   8.916   0.878
46337W        W18008   6.242  40.434   4.645
46338W        W18009  13.417  25.452   4.827
46339W        W18010  41.482  27.592   1.664
46340W        W18011  24.968   5.314   4.375
46341W        W18012  28.476  16.700   4.169
46342W        W18013  42.985  38.451   1.471
46343W        W18014  12.054  19.606   4.634
46344W        W18015  32.600  36.563  10.975
46345W        W18016   3.682  27.476   0.731
46346W        W18017  28.485  22.698   3.349
46347W        W18018  37.046  33.950   2.937
46348W        W18019  11.164  29.767   1.786
46349W        W18020  36.974  17.529   2.391
46350W        W18021  41.509  15.602   3.761
46351W        W18022  28.738  43.502  10.632
46352W        W18023  35.714  15.108  11.611
46353W        W18024  13.227   4.279   3.236
46354W        W18025  40.352  13.377  10.772
46355W        W18026  32.111  15.208  10.661
46356W        W18027  26.988  20.589   1.011
46357W        W18028  16.219  34.820   0.209
46358W        W18029  43.468  28.949  14.103
46359W        W18030  23.221  22.686  11.545
46360W        W18031  27.384  31.092   3.677
46361W        W18032  29.972  13.264  13.524
46362W        W18033   1.304  17.550   1.248
46363W        W18034  34.373   1.483  11.984
46364W        W18035  11.194   4.827  10.717
46365W        W18036  15.236  25.023  13.948
46366W        W18037  20.422  31.537  10.734
46367W        W18038  23.591  15.282   3.282
46368W        W18039  31.483  37.970   1.815
46369W        W18040   3.773  32.900   2.274
46370W        W18041  31.283  37.374  10.321
46371W        W18042  12.179  12.375   2.805
46372W        W18043  13.429   1.663   1.219
46373W        W18044  32.798   7.906   3.122
46374W        W18045   7.822  17.732   0.688
46375W        W18046  13.765  22.557  12.009
46376W        W18047  44.919  14.349   1.324
46377W        W18048  42.864  22.085   3.534
46378W        W18049  21.073  13.249  10.513
46379W        W18050  22.482  20.513  14.399
46380W        W18051  21.809  37.982  10.315
46381W        W18052  37.560  30.965   5.120
46382W        W18053  31.098  19.726   0.527
46383W        W18054   8.403  22.474  13.272
46384W        W18055  31.081  41.011   4.228
46385W        W18056   5.346  31.441   1.910
46386W        W18057  12.880  22.718  14.601
46387W        W18058  15.806  25.597   0.714
46388W        W18059  33.890  38.569  13.319
46389W        W18060  25.913   3.142  11.249
46390W        W18061   8.364  23.473  10.706
46391W        W18062  29.639  43.386  11.415
46392W        W18063  25.466  18.890  12.445
46393W        W18064  36.421   1.634  14.707
46394W        W18065  36.684  17.756   1.149
46395W        W18066  26.190  32.489   1.691
46396W        W18067  20.200  27.496  13.049
46397W        W18068  19.672   1.002   4.295
46398W        W18069   5.841  28.565  12.888
46399W        W18070  30.485   6.666  11.016
46400W        W18071  15.608  34.520   1.387
46401W        W18072  27.046  41.943  10.898
46402W        W18073  43.887  14.021  11.476
46403W        W18074   4.228  12.252  14.372
46404W        W18075   9.544  31.507  12.795
46405W        W18076  33.795   6.672  13.357
46406W        W18077  14.986  21.186   2.473
46407W        W18078  13.778   1.331   4.598
46408W        W18079  22.747   4.867   3.099
46409W        W18080  13.492  11.706   4.139
46410W        W18081  44.475  19.923   0.463
46411W        W18082   5.736  40.770  14.768
46412W        W18083  42.181  39.492  12.427
46413W        W18084  33.519  41.445  12.238
46414W        W18085  18.033  34.484  10.431
46415W        W18086   4.196  37.577  10.796
46416W        W18087  33.557   5.598   2.304
46417W        W18088  19.679  31.085  12.026
46418W        W18089   2.481  37.889  12.536
46419W        W18090  32.618  31.750  14.947
46420W        W18091  37.627  17.020   0.649
46421W        W18092  35.611   2.757   2.642
46422W        W18093  21.758   6.292   3.835
46423W        W18094  37.112  41.079  13.107
46424W        W18095  31.904  17.639   0.925
46425W        W18096  24.047   1.854  14.935
46426W        W18097  41.918  25.120  11.615
46427W        W18098  33.762  11.738   0.399
46428W        W18099   7.765  32.639   2.816
46429W        W18100  21.481  28.199   3.781
46430W        W18101  26.075  11.626  13.223
46431W        W18102  38.781  28.588   4.170
46432W        W18103  31.992  20.501  12.871
46433W        W18104  27.911  12.330   4.121
46434W        W18105  34.602   1.271  11.140
46435W        W18106  22.064  24.207   2.327
46436W        W18107  32.034   1.230   1.309
46437W        W18108   7.846  12.781  10.049
46438W        W18109  40.033  24.149   1.468
46439W        W18110   6.038  29.878  11.834
46440W        W18111  42.409  31.206   1.274
46441W        W18112  17.820  27.584  14.773
46442W        W18113  44.746  27.831   1.737
46443W        W18114  28.494  25.648  11.121
46444W        W18115  33.424  44.902  11.496
46445W        W18116  44.693  16.919  10.522
46446W        W18117  39.851  30.672   0.290
46447W        W18118  12.644  14.305   2.704
46448W        W18119  36.443  15.081  11.806
46449W        W18120   6.921  33.557   0.422
46450W        W18121  32.583   2.012  13.534
46451W        W18122   7.242   6.580  14.274
46452W        W18123  17.958  19.666  12.952
46453W        W18124  21.575  22.713   4.353
46454W        W18125  40.162  26.680  12.913
46455W        W18126  13.611  41.439   2.939
46456W        W18127  44.722  39.843  11.086
46457W        W18128  17.429   0.772  14.408
46458W        W18129  11.899   8.209  12.077
46459W        W18130   3.812  21.403   3.660
46460W        W18131  26.392   3.730   3.165
46461W        W18132   4.245   6.134   3.618
46462W        W18133  42.517  23.497  13.131
46463W        W18134  18.285  36.681   3.818
46464W        W18135  36.910   6.244   4.348
46465W        W18136   0.877  30.096  10.530
46466W        W18137  21.460   8.492   0.379
46467W        W18138  12.833  26.679  12.112
46468W        W18139   6.872   9.845  14.924
46469W        W18140   6.417  39.356   4.679
46470W        W18141  24.024  29.185   0.312
46471W        W18142  26.761   1.049   0.088
46472W        W18143  43.257   0.356   2.663
46473W        W18144  16.174  22.210  13.116
46474W        W18145  10.787  24.539  10.902
46475W        W18146  40.981   0.968  12.376
46476W        W18147   0.271  41.796   0.354
46477W        W18148   8.679   9.632   0.771
46478W        W18149  41.841   4.271   4.787
46479W        W18150  12.794  41.557   2.092
46480W        W18151  16.177  15.884  11.007
46481W        W18152  44.023   7.320  14.939
46482W        W18153  18.419  15.721  12.090
46483W        W18154  17.756  35.024  11.567
46484W        W18155  25.475  11.341  10.552
46485W        W18156  19.103  23.122   3.827
46486W        W18157  25.560   6.304   4.681
46487W        W18158  32.578  28.995  13.871
46488W        W18159  17.534  31.534   1.738
46489W        W18160  15.079  15.742   0.664
46490W        W18161  16.139  43.377   3.668
46491W        W18162  41.897  24.574  10.848
46492W        W18163  22.210   5.923  13.929
46493W        W18164   5.746  15.527   3.558
46494W        W18165  44.515  17.986  11.122
46495W        W18166   5.352  32.559  13.901
46496W        W18167  30.265  22.990  13.207
46497W        W18168   0.647  40.827  14.269
46498W        W18169  12.872   5.250   2.911
46499W        W18170   9.824  18.014   4.094
46500W        W18171  36.007  43.116   2.772
46501W        W18172  11.701   4.295   0.370
46502W        W18173  11.126   2.228   4.710
46503W        W18174  13.829  25.242   2.820
46504W        W18175  21.219  37.506   1.400
46505W        W18176  21.567  23.381   9.811
46506W        W18177  37.941  35.369  12.600
46507W        W18178  26.465  36.023   1.380
46508W        W18179   1.735  42.532  14.853
46509W        W18180  20.515  39.218   3.730
46510W        W18181  41.258  27.768  12.949
46511W        W18182  10.428  24.076  11.944
46512W        W18183  28.538  39.891   1.231
46513W        W18184  10.290   6.605  10.585
46514W        W18185  35.310   8.819  13.008
46515W        W18186  35.164  43.871  12.777
46516W        W18187  24.961  27.979  10.583
46517W        W18188  33.874   2.150  14.690
46518W        W18189  23.635   4.360   4.167
46519W        W18190  44.342  24.491   9.596
46520W        W18191  19.487  26.460   3.717
46521W        W18192   1.284   5.655   3.322
46522W        W18193  21.667  42.673   2.384
46523W        W18194   7.388  23.168   3.146
46524W        W18195  34.003  10.008  11.032
46525W        W18196  30.873   2.266  13.069
46526W        W18197  32.662  39.711   3.450
46527W        W18198  29.509  13.288  12.143
46528W        W18199  30.933   3.350  12.974
46529W        W18200   9.629  39.954   3.663
46530W        W18201   8.374  36.232   4.630
46531W        W18202  23.802  32.662  12.041
46532W        W18203  17.188  32.814  11.426
46533W        W18204  30.007  13.054   0.083
46534W        W18205   2.176  11.112   0.913
46535W        W18206   6.933  44.686   2.086
46536W        W18207  10.746  16.620   3.227
46537W        W18208  44.807   9.367   0.152
46538W        W18209  34.429  34.949  11.612
46539W        W18210  36.646  17.220   0.936
46540W        W18211  31.168  25.978  13.084
46541W        W18212   7.914  33.532  12.502
46542W        W18213   7.331  35.542   2.472
46543W        W18214   5.970  19.137   2.669
46544W        W18215   5.311   6.386   0.013
46545W        W18216  43.363  16.282  11.933
46546W        W18217  14.339  31.594   3.677
46547W        W18218  13.993  34.940  10.730
46548W        W18219  38.461  40.533  14.930
46549W        W18220  24.061  20.615   0.926
46550W        W18221   0.532   9.821   1.839
46551W        W18222   0.784  22.753   1.409
46552W        W18223  26.952  13.208  12.893
46553W        W18224  42.495   4.836   2.600
46554W        W18225  16.378  28.022   2.383
46555W        W18226   5.291   4.342  10.851
46556W        W18227   5.152  11.144   2.830
46557W        W18228  36.398  44.093  11.200
46558W        W18229  35.738  41.205   1.601
46559W        W18230  13.101  13.832  14.767
46560W        W18231   3.945  22.166   1.366
46561W        W18232  15.102  38.418   4.347
46562W        W18233  43.415  21.534   0.264
46563W        W18234  24.021  25.974   0.228
46564W        W18235  29.609   8.267  10.050
46565W        W18236   6.735  33.005  10.767
46566W        W18237  13.856  18.370   2.094
46567W        W18238  14.246   1.015  12.379
46568W        W18239  30.379   4.845  14.416
46569W        W18240   5.776  26.993   2.466
46570W        W18241  30.335  26.853   3.864
46571W        W18242  37.368  27.207  12.552
46572W        W18243  40.789  24.015   3.655
46573W        W18244  36.931   9.365   4.316
46574W        W18245  40.822  33.879   3.036
46575W        W18246  32.206  30.638   2.370
46576W        W18247  42.940   4.974   4.785
46577W        W18248  27.991  33.816  12.998
46578W        W18249  31.507  28.702  12.978
46579W        W18250  27.677  24.695   3.707
46580W        W18251  36.019  40.948   0.710
46581W        W18252  26.245  20.768  12.625
46582W        W18253   1.729  16.829  13.352
46583W        W18254  41.341  44.766  12.802
46584W        W18255  36.563  33.407  14.238
46585W        W18256  37.886   0.756  10.633
46586W        W18257  18.974  38.911  12.989
46587W        W18258  13.264  35.493   3.738
46588W        W18259  28.202   0.253  12.512
46589W        W18260  33.939  17.307   0.849
46590W        W18261  41.445  26.277  13.799
46591W        W18262   8.902  25.518   3.766
46592W        W18263  39.083  28.903   4.457
46593W        W18264  41.911   4.585   1.510
46594W        W18265  28.459  33.061  12.775
46595W        W18266  15.756  11.839   1.281
46596W        W18267  17.818  28.073  12.539
46597W        W18268  18.790  42.844   0.073
46598W        W18269  26.945  37.848   3.592
46599W        W18270  34.051   6.485   4.559
46600W        W18271  43.789  20.990   4.222
46601W        W18272  43.210  37.924  10.642
46602W        W18273   9.474  40.169   0.044
46603W        W18274  31.122   6.490  12.922
46604W        W18275  27.092  22.897  11.501
46605W        W18276   2.340  24.102  12.923
46606W        W18277  18.619  44.250   3.213
46607W        W18278   1.888  10.310   1.370
46608W        W18279  30.039   7.946   1.985
46609W        W18280  33.286  10.555  11.124
46610W        W18281   0.512  29.667   3.804
46611W        W18282  21.808  12.342  12.398
46612W        W18283   4.873   6.676  13.906
46613W        W18284   5.266   7.188   3.881
46614W        W18285  12.817  39.411  14.456
46615W        W18286   5.955  38.294   0.339
46616W        W18287   6.297  37.785  10.374
46617W        W18288   1.359  38.543  11.906
46618W        W18289   4.724  43.914  10.760
46619W        W18290   8.776   7.089   3.666
46620W        W18291  13.834   7.333   2.767
46621W        W18292   8.976  43.205   3.353
46622W        W18293   7.361  12.387  12.773
46623W        W18294   8.117  12.997  13.921
46624W        W18295  40.411  19.087   3.172
46625W        W18296  18.972  31.844   3.258
46626W        W18297   6.628  41.297  14.363
46627W        W18298  32.041  33.599   3.789
46628W        W18299  28.912  14.768   1.761
46629W        W18300  16.630  28.134  11.185
46630W        W18301  37.810  41.477  13.950
46631W        W18302  31.375  14.332   0.845
46632W        W18303   1.987  11.555  13.927
46633W        W18304   7.263  13.356  12.653
46634W        W18305   6.300  31.427   4.797
46635W        W18306   0.864  15.530  13.840
46636W        W18307  44.213  18.090   3.317
46637W        W18308  12.803  32.586  13.835
46638W        W18309  15.373   1.255   2.417
46639W        W18310  16.183  33.964   2.035
46640W        W18311  21.020  33.373   4.697
46641W        W18312  22.454  41.058   9.795
46642W        W18313  12.124   8.050  13.420
46643W        W18314  18.466  23.062   1.866
46644W        W18315  11.752  18.641  11.127
46645W        W18316  12.776  12.093   4.829
46646W        W18317  33.358  43.007   0.332
46647W        W18318   9.280  21.967  11.922
46648W        W18319  10.407  35.112   4.553
46649W        W18320  29.525  33.936   0.297
46650W        W18321  21.024  11.260   3.445
46651W        W18322  35.564  12.169   1.833
46652W        W18323  32.505  31.120  13.120
46653W        W18324   1.862   3.271  14.009
46654W        W18325  37.418  44.734   0.477
46655W        W18326  12.843  36.060  14.471
46656W        W18327  25.529  37.801  13.374
46657W        W18328  29.600  35.516  13.877
46658W        W18329  37.602  10.652   2.607
46659W        W18330  10.826  43.778  11.437
46660W        W18331  36.653  28.750  13.596
46661W        W18332  18.754   5.347   0.281
46662W        W18333  36.117   1.219  10.702
46663W        W18334  40.857   5.529   4.631
46664W        W18335  23.247  40.948   3.189
46665W        W18336  36.842  34.756   4.205
46666W        W18337  32.401  16.776  14.973
46667W        W18338   5.213  13.265   4.894
46668W        W18339  38.291  38.848   3.604
46669W        W18340  22.177  19.219  13.755
46670W        W18341  19.184   5.742   4.847
46671W        W18342  18.365  11.883  10.489
46672W        W18343   3.843  14.147  14.915
46673W        W18344  39.757  36.917  11.720
46674W        W18345  24.636  17.521  13.583
46675W        W18346  11.802  26.580  13.674
46676W        W18347  13.222   5.394  11.599
46677W        W18348   6.919  20.755   0.356
46678W        W18349  37.473  27.221   2.984
46679W        W18350  29.217   6.346   3.997
46680W        W18351  37.028  44.223   4.861
46681W        W18352  38.680  32.591  12.033
46682W        W18353  43.807  41.028   2.380
46683W        W18354  27.466   2.147  10.629
46684W        W18355  37.532   9.907   1.201
46685W        W18356  17.498  28.641   2.034
46686W        W18357  41.201   5.275   4.301
46687W        W18358   7.209  16.402   2.171
46688W        W18359  41.388  10.175   9.997
46689W        W18360  35.624   7.660  13.415
46690W        W18361  22.271  44.470  13.457
46691W        W18362  24.208  43.891  12.169
46692W        W18363  34.555  13.701   2.084
46693W        W18364  13.525  13.098   2.778
46694W        W18365   1.445  14.243  11.131
46695W        W18366   8.330  32.379  10.822
46696W        W18367  26.372   2.032   4.939
46697W        W18368  23.272  11.064  11.163
46698W        W18369  40.018  44.238   2.798
46699W        W18370  20.067  32.658   0.870
46700W        W18371  32.291  27.568  13.031
46701W        W18372  16.301  11.395   3.248
46702W        W18373  27.444  16.237  14.327
46703W        W18374  22.655  43.360   4.829
46704W        W18375  34.373  22.687  11.989
46705W        W18376  36.892  10.225  14.960
46706W        W18377   7.292   6.034  12.914
46707W        W18378  28.500  35.564   4.741
46708W        W18379  20.532   6.864  14.002
46709W        W18380   6.719   3.834   3.200
46710W        W18381  33.149  35.096   4.824
46711W        W18382  35.442  34.904   0.685
46712W        W18383   2.654   3.835   1.471
46713W        W18384  12.397  12.297  10.698
46714W        W18385  13.323  35.508  11.583
46715W        W18386  11.627  21.431  13.479
46716W        W18387  20.672  39.812  14.813
46717W        W18388  27.530  19.097   4.644
46718W        W18389  29.050  16.154   3.608
46719W        W18390  43.013  12.375  12.612
46720W        W18391   9.722  30.169  12.508
46721W        W18392   7.206  10.047   3.817
46722W        W18393   4.933  15.771   0.356
46723W        W18394  31.169  26.147   3.747
46724W        W18395  15.422  26.950  11.268
46725W        W18396  17.231  34.388  12.189
46726W        W18397  29.550  39.872   1.998
46727W        W18398   5.219  18.986   2.179
46728W        W18399  22.240  29.739  13.126
46729W        W18400  37.929   4.390  11.606
46730W        W18401   4.369  30.985  11.044
46731W        W18402  24.416  12.625   5.121
46732W        W18403  41.894   7.466  14.003
46733W        W18404   4.630  41.262  14.483
46734W        W18405  23.976  40.452   2.355
46735W        W18406  21.464   5.916  11.519
46736W        W18407   4.144  17.002  11.655
46737W        W18408  14.349  30.109  13.902
46738W        W18409  10.091  17.676   2.730
46739W        W18410  32.083  32.385   1.959
46740W        W18411   4.804  14.825   1.196
46741W        W18412   7.116   6.944  13.396
46742W        W18413  11.284   6.684  10.724
46743W        W18414  38.956  35.848   0.342
46744W        W18415  11.337  15.191  10.824
46745W        W18416  26.666   9.358   5.009
46746W        W18417  13.890  11.089  10.646
46747W        W18418  41.148  35.504   1.829
46748W        W18419  33.938  17.600   3.632
46749W        W18420  13.114  22.724   0.520
46750W        W18421  32.831  37.350  13.354
46751W        W18422   1.654   9.975   3.181
46752W        W18423  41.393  32.082   1.017
46753W        W18424  20.514  44.329   4.047
46754W        W18425  16.277  13.831   3.583
46755W        W18426  16.687  42.510   2.726
46756W        W18427  42.885  32.566   4.521
46757W        W18428   7.265   3.758   1.849
46758W        W18429  44.953   8.191   0.773
46759W        W18430  37.440   9.193   4.398
46760W        W18431  17.738  39.368  12.066
46761W        W18432  17.293  20.524   4.176
46762W        W18433  10.769   6.640   1.871
46763W        W18434  35.533  32.224   2.195
46764W        W18435  27.914  34.258  11.080
46765W        W18436  12.090  30.426  13.315
46766W        W18437  26.141  35.843  10.484
46767W        W18438  21.481   4.001   3.170
46768W        W18439  38.106  36.721   5.503
46769W        W18440  10.732   1.417   4.581
46770W        W18441  19.932  30.127   4.560
46771W        W18442   6.138  30.551   4.475
46772W        W18443  42.340  22.781   4.073
46773W        W18444  38.455  38.347   3.715
46774W        W18445  20.261  38.862  13.575
46775W        W18446  40.736  34.755   1.388
46776W        W18447  32.488   1.732   2.833
46777W        W18448  19.471  21.907   3.730
46778W        W18449   8.915  29.423  14.320
46779W        W18450  43.284   6.729   2.607
46780W        W18451  14.679   4.417   0.258
46781W        W18452  25.114   8.343  12.326
46782W        W18453  30.224  27.710  11.216
46783W        W18454   5.319  11.198   0.051
46784W        W18455   3.334  24.452   2.621
46785W        W18456   5.425  44.574   0.684
46786W        W18457   2.464  23.497   4.054
46787W        W18458   0.934  14.252  11.092
46788W        W18459  14.986  25.157  11.000
46789W        W18460  26.968  19.245   2.817
46790W        W18461  28.445   2.621   1.806
46791W        W18462  42.208  32.392  10.746
46792W        W18463  19.320   0.456  11.006
46793W        W18464  25.525  16.100   1.672
46794W        W18465  44.327   9.456   3.426
46795W        W18466  28.539   0.985  13.367
46796W        W18467  42.555  17.604   2.091
46797W        W18468  20.653   7.678  11.527
46798W        W18469  24.795  20.882   5.040
46799W        W18470  44.427   2.046  11.176
46800W        W18471  35.650  37.440  14.048
46801W        W18472  29.164   0.934   1.719
46802W        W18473  31.866  20.561   1.192
46803W        W18474   2.707  22.595   2.325
46804W        W18475  22.390   8.029   1.374
46805W        W18476   8.967  41.166  10.295
46806W        W18477  12.600  35.095  14.883
46807W        W18478  31.855   4.963  12.002
46808W        W18479  15.157  14.312   1.787
46809W        W18480  41.666  44.849   0.470
46810W        W18481  38.234   2.215   3.921
46811W        W18482  17.311  40.431   3.769
46812W        W18483  25.288  29.837  11.176
46813W        W18484  38.065  25.263   3.341
46814W        W18485  34.968  22.188  10.714
46815W        W18486   8.667  18.115  12.476
46816W        W18487  25.015  24.512  10.620
46817W        W18488  28.388  23.724  13.769
46818W        W18489  44.230  15.606  10.927
46819W        W18490  19.669  20.222  11.486
46820W        W18491   7.710  41.649   0.461
46821W        W18492  28.231  38.268  11.582
46822W        W18493  19.771  16.704   3.665
46823W        W18494  13.268  17.658  14.844
46824W        W18495   0.977  28.202   0.602
46825W        W18496   5.866   0.413  11.484
46826W        W18497   6.496  36.132  12.037
46827W        W18498  37.983  38.916   3.175
46828W        W18499  18.681  29.096  12.061
46829W        W18500  14.646  25.077   5.094
46830W        W18501  16.260   1.224   4.099
46831W        W18502  40.548  30.955  13.516
46832W        W18503   7.847  25.983   4.414
46833W        W18504  29.986  33.451  14.219
46834W        W18505   8.594  32.150  12.097
46835W        W18506  18.593  35.604   3.773
46836W        W18507  33.576  42.237  10.701
46837W        W18508   6.302  17.755   3.706
46838W        W18509   4.568  15.299   1.905
46839W        W18510  42.422  38.853  10.598
46840W        W18511  37.024   7.211   0.932
46841W        W18512  34.793  18.313  13.581
46842W        W18513   7.927  43.427  12.098
46843W        W18514  26.073  26.494   1.234
46844W        W18515  23.989   6.415  12.402
46845W        W18516  22.587   4.484  11.884
46846W        W18517  26.094  13.832  14.398
46847W        W18518  27.050  22.814   0.316
46848W        W18519  37.894  16.927   0.207
46849W        W18520  14.218  27.242  14.897
46850W        W18521   0.173  19.605   2.431
46851W        W18522  36.994  40.280   3.608
46852W        W18523   2.823   8.193   4.705
46853W        W18524  29.763   1.734   3.226
46854W        W18525  42.860   7.935  13.543
46855W        W18526  11.598   4.701   4.295
46856W        W18527  40.811  41.832   0.891
46857W        W18528  31.024  21.356   4.146
46858W        W18529  11.265  35.794  13.590
46859W        W18530  13.854  28.356   1.074
46860W        W18531  26.947  25.596   1.956
46861W        W18532   1.795   8.773   2.008
46862W        W18533  12.985  41.547  10.747
46863W        W18534  23.811  29.026  11.628
46864W        W18535   8.625  44.814   1.403
46865W        W18536  19.103  27.446   4.591
46866W        W18537  25.552   3.521   2.507
46867W        W18538  43.371  15.304  14.999
46868W        W18539  36.647  39.905   3.426
46869W        W18540  23.459   0.377   2.788
46870W        W18541  15.532   2.417  11.594
46871W        W18542   6.148   8.824   0.914
46872W        W18543  28.529  23.545  10.685
46873W        W18544   0.982  10.344   0.077
46874W        W18545  39.934  17.038   1.783
46875W        W18546  10.259   5.901   4.194
46876W        W18547  29.096   4.132   3.647
46877W        W18548  10.826  16.206  11.943
46878W        W18549  16.738  28.433   4.739
46879W        W18550  44.074  14.789  12.923
46880W        W18551  24.050  41.261   4.897
46881W        W18552  18.262  27.704  11.674
46882W        W18553  40.579   4.642   4.122
46883W        W18554  26.893   8.727   3.625
46884W        W18555  30.792   9.188   5.011
46885W        W18556  31.902  38.141  11.219
46886W        W18557  15.610  15.394   0.036
46887W        W18558  14.618  26.634  12.354
46888W        W18559   5.472  24.934   0.787
46889W        W18560  13.308  29.715   1.228
46890W        W18561  22.596  33.671  13.461
46891W        W18562  34.055  40.771   4.914
46892W        W18563   5.786   4.433  11.641
46893W        W18564   4.810  33.933   5.041
46894W        W18565  24.460  17.356   3.421
46895W        W18566  31.728  20.294  12.442
46896W        W18567   1.012   3.299   1.352
46897W        W18568  26.638   9.399  14.090
46898W        W18569   8.033  27.050  14.921
46899W        W18570  19.322   3.282  12.000
46900W        W18571  14.157  36.074  13.486
46901W        W18572  33.429  15.796  11.571
46902W        W18573  18.971  20.187   4.735
46903W        W18574   3.320  29.923  11.659
46904W        W18575   6.698  32.320  10.710
46905W        W18576  24.957  39.585  11.444
46906W        W18577  17.122  27.958  11.220
46907W        W18578  15.989  26.983   3.135
46908W        W18579  21.335  20.981   3.354
46909W        W18580  31.331  22.748  11.127
46910W        W18581   3.945   8.708   3.338
46911W        W18582  15.119  35.195   3.781
46912W        W18583  10.881  31.497   2.883
46913W        W18584  11.685  26.221  12.916
46914W        W18585   0.168  18.273  13.420
46915W        W18586   4.884   0.773  10.903
46916W        W18587   6.250   3.292  10.261
46917W        W18588   0.940  42.344  14.436
46918W        W18589  34.552  36.335  11.124
46919W        W18590  36.419  36.524  10.196
46920W        W18591  38.458  23.723   4.504
46921W        W18592  15.797  26.551  13.999
46922W        W18593  34.948  30.060  12.173
46923W        W18594  12.212  13.578  12.105
46924W        W18595  35.488  41.667   1.625
46925W        W18596  27.721   5.308  11.523
46926W        W18597  37.382  19.085   0.886
46927W        W18598  13.868  30.256  13.433
46928W        W18599  14.705  19.050  14.452
46929W        W18600   2.553  37.707  13.923
46930W        W18601  29.134  15.869   2.673
46931W        W18602  21.328  37.582  12.845
46932W        W18603  29.249  39.461  11.528
46933W        W18604  30.643  27.174   1.729
46934W        W18605  29.497  12.114   1.622
46935W        W18606  33.855   8.320   0.778
46936W        W18607  32.465   8.208  14.934
46937W        W18608  12.037  18.342  14.419
46938W        W18609  31.381  13.416   3.934
46939W        W18610  26.461  27.751   3.622
46940W        W18611  32.421  24.899   4.663
46941W        W18612  32.113  26.657  10.520
46942W        W18613  33.426  11.211  14.821
46943W        W18614  15.329  12.278  13.032
46944W        W18615   6.352  30.527  12.516
46945W        W18616  35.857  23.821   2.831
46946W        W18617   4.712  23.989  13.896
46947W        W18618  20.075  20.741  14.227
46948W        W18619   3.298  21.241  14.871
46949W        W18620  18.523  21.250   0.464
46950W        W18621   1.786  44.386  12.619
46951W        W18622  10.890  12.338  12.041
46952W        W18623   0.279  41.257  11.693
46953W        W18624   5.203  18.736  14.177
46954W        W18625  41.062  16.282  14.744
46955W        W18626  22.586  26.744   1.199
46956W        W18627  22.200  20.812   4.742
46957W        W18628  13.863  26.977  11.255
46958W        W18629  17.774  44.808   9.852
46959W        W18630  33.530   2.889  10.730
46960W        W18631  12.012  11.525  14.806
46961W        W18632  17.210  12.065   2.756
46962W        W18633  33.115  44.227   3.522
46963W        W18634  28.455  30.895  13.788
46964W        W18635  27.581  23.430  11.963
46965W        W18636  26.740  43.716   2.841
46966W        W18637  34.851  33.975  14.778
46967W        W18638  12.702  28.135  13.324
46968W        W18639  11.731  43.527   4.696
46969W        W18640  10.755   0.727  14.321
46970W        W18641   0.905  38.650  12.669
46971W        W18642  24.610  22.834  10.595
46972W        W18643  40.737  14.695   4.175
46973W        W18644  14.823  24.496  10.758
46974W        W18645  43.402   1.057   0.261
46975W        W18646  25.905   1.944   1.932
46976W        W18647  14.451  44.956  12.567
46977W        W18648  17.307  38.966  11.942
46978W        W18649   8.792  26.330  12.251
46979W        W18650   5.501  20.710  12.826
46980W        W18651   9.930  16.091   1.444
46981W        W18652  30.576  27.418  13.327
46982W        W18653  32.973  23.521  13.023
46983W        W18654  25.601  41.549  14.816
46984W        W18655  16.199  20.160   0.498
46985W        W18656  37.846   1.036   2.706
46986W        W18657   9.204  10.382  11.957
46987W        W18658  10.187  36.380   2.635
46988W        W18659  28.266  29.918   0.887
46989W        W18660  12.387   5.227   1.437
46990W        W18661   6.818  13.570  10.568
46991W        W18662  34.553   0.446   2.780
46992W        W18663  39.898   3.370   4.147
46993W        W18664   4.237  17.300  12.130
46994W        W18665  16.809  27.945  11.629
46995W        W18666  20.172  39.316  14.265
46996W        W18667  21.765  16.653  13.631
46997W        W18668  35.882   2.719  10.675
46998W        W18669  17.807  36.613   1.619
46999W        W18670   3.908  15.275  13.338
47000W        W18671  12.658  21.429   2.373
47001W        W18672  28.375  36.071   2.882
47002W        W18673  13.304  37.024   4.593
47003W        W18674  26.075   9.236  11.998
47004W        W18675  14.812  33.215  11.820
47005W        W18676  44.348  38.686   9.980
47006W        W18677  21.364  25.691  12.630
47007W        W18678  24.538   8.458   4.080
47008W        W18679  21.939  30.335   1.646
47009W        W18680   1.455   9.251  10.708
47010W        W18681  24.407  15.159  12.000
47011W        W18682   1.941  24.164   4.640
47012W        W18683  36.926  44.244  10.256
47013W        W18684  24.029  24.204   3.693
47014W        W18685  38.924  37.404   0.125
47015W        W18686   3.227   0.079  13.330
47016W        W18687  38.574   0.233  14.905
47017W        W18688  21.703  16.086  11.953
47018W        W18689   0.976  29.672   1.227
47019W        W18690  29.640  23.781  14.878
47020W        W18691   5.199  30.567  14.590
47021W        W18692  42.009  31.448   4.059
47022W        W18693  27.501  32.112   2.750
47023W        W18694  18.619  13.572  13.859
47024W        W18695  31.551   7.905   4.793
47025W        W18696  15.661  32.568   3.271
47026W        W18697  41.823  30.704   5.077
47027W        W18698  27.686  28.169  10.722
47028W        W18699  39.044   9.340  12.939
47029W        W18700   3.383   8.803   3.429
47030W        W18701  14.286  17.461   3.614
47031W        W18702  35.434  44.778   0.368
47032W        W18703   9.397   2.996   2.149
47033W        W18704  44.913  18.711   4.838
47034W        W18705  36.837  14.700  12.826
47035W        W18706  20.147  15.546  12.473
47036W        W18707  22.206  20.777  13.330
47037W        W18708   3.011  37.434  13.820
47038W        W18709   4.750  18.020   2.679
47039W        W18710  39.726  19.440   4.156
47040W        W18711  21.513  29.977   2.294
47041W        W18712  19.044   7.870  14.363
47042W        W18713   9.595  36.550  10.949
47043W        W18714   9.903  15.706   4.687
47044W        W18715  32.160  13.876  11.156
47045W        W18716   1.221   8.392   2.768
47046W        W18717  16.114   4.513   3.664
47047W        W18718   0.997  32.591   2.834
47048W        W18719  10.168   8.325   2.365
47049W        W18720   5.104  14.703  12.125
47050W        W18721   7.709  18.074  13.881
47051W        W18722  36.635   1.759   1.871
47052W        W18723  14.765  34.740  12.262
47053W        W18724  12.747  15.394   1.355
47054W        W18725  15.376  17.589  14.051
47055W        W18726  35.119  37.107   1.346
47056W        W18727  39.938  33.333  12.839
47057W        W18728  39.484  24.116  13.287
47058W        W18729  14.557   9.862   0.294
47059W        W18730   4.779  34.581   3.293
47060W        W18731   3.445  36.602  12.045
47061W        W18732   7.349   9.427  11.968
47062W        W18733   9.361  36.839   0.476
47063W        W18734   2.334  25.721   1.888
47064W        W18735  21.164  40.652   2.718
47065W        W18736  10.511   7.794  12.148
47066W        W18737   6.357   6.957  12.333
47067W        W18738   6.370   2.239   4.435
47068W        W18739  41.272  14.095  12.866
47069W        W18740  16.149  13.107   0.239
47070W        W18741  28.478  31.689   3.127
47071W        W18742  26.131   6.812  11.967
47072W        W18743  43.939   9.391   3.771
47073W        W18744  30.976  18.037  14.971
47074W        W18745  31.562  37.030  14.941
47075W        W18746  30.408  33.056  10.643
47076W        W18747  15.732  30.929   2.954
47077W        W18748   3.628  40.130   1.477
47078W        W18749  27.482  40.171   0.961
47079W        W18750  14.756  19.818  14.903
47080W        W18751   7.691  15.081   3.791
47081W        W18752  10.592  28.611   3.504
47082W        W18753  31.088  42.091  13.442
47083W        W18754   1.890   5.574  12.093
47084W        W18755  32.223  28.113  12.068
47085W        W18756   8.389  13.117  11.470
47086W        W18757   4.943  42.879   0.768
47087W        W18758  20.415   1.736   3.242
47088W        W18759   1.708  11.650   1.209
47089W        W18760  33.852  36.836  13.952
47090W        W18761  27.459   9.629   3.435
47091W        W18762   7.338  35.638  11.996
47092W        W18763  14.371  15.617  14.504
47093W        W18764  15.075  17.866   4.108
47094W        W18765  44.284  14.210   4.076
47095W        W18766  26.224  36.102  11.968
47096W        W18767  34.389  40.757   3.801
47097W        W18768  36.169  16.745  14.947
47098W        W18769  15.138   9.701  14.549
47099W        W18770  25.204  19.118   4.288
47100W        W18771  19.501  16.118  11.559
47101W        W18772  14.284  20.310  11.092
47102W        W18773  23.969  21.340   4.314
47103W        W18774  43.317  15.394   3.664
47104W        W18775   4.977  33.705   3.745
47105W        W18776  24.189   9.140  13.914
47106W        W18777  42.979  36.829   4.049
47107W        W18778  33.029  14.772  12.931
47108W        W18779  29.440  26.734  11.376
47109W        W18780  28.076  32.267   4.611
47110W        W18781  34.668  14.086   0.241
47111W        W18782  40.347  26.095   0.251
47112W        W18783   9.141  22.988  12.182
47113W        W18784  14.692  38.859  14.679
47114W        W18785  19.203   7.500   1.202
47115W        W18786  20.496  26.252  11.201
47116W        W18787  21.999  26.631  13.082
47117W        W18788   3.904  19.766   1.380
47118W        W18789  34.379  25.972  14.965
47119W        W18790  21.734  35.457  14.928
47120W        W18791  33.966  36.187  11.971
47121W        W18792  19.242  32.080   4.214
47122W        W18793   4.252  19.213  10.569
47123W        W18794  13.349   2.527   2.230
47124W        W18795  17.999   2.638   4.128
47125W        W18796  15.296  32.124  13.613
47126W        W18797  44.782  18.218   4.359
47127W        W18798  29.543  41.260  14.335
47128W        W18799  38.513  27.424   1.169
47129W        W18800  30.718  28.908  14.705
47130W        W18801  33.302   0.372  10.244
47131W        W18802   3.442  14.163   1.806
47132W        W18803  40.702  29.686   5.036
47133W        W18804  28.025  17.206   1.829
47134W        W18805  26.981  35.856  10.710
47135W        W18806   8.986  37.832  10.638
47136W        W18807  15.463  20.149   4.262
47137W        W18808  42.551  37.887   2.156
47138W        W18809  23.985  35.097  13.443
47139W        W18810  30.139   7.088   4.668
47140W        W18811  15.788  40.253  12.474
47141W        W18812   9.283  24.461  13.481
47142W        W18813  26.935  19.065  11.597
47143W        W18814   4.510  43.164   0.789
47144W        W18815  42.851   7.652   3.363
47145W        W18816  33.658  24.691   1.449
47146W        W18817  34.418  18.887   3.328
47147W        W18818  38.854   3.792  13.365
47148W        W18819  20.357   9.201  14.520
47149W        W18820   5.788  44.472   4.924
47150W        W18821  32.668  13.044  14.469
47151W        W18822  23.151  17.110   4.686
47152W        W18823   6.218  42.954   2.598
47153W        W18824  24.349  34.046  12.295
47154W        W18825  37.967  35.671   1.691
47155W        W18826  40.902  17.655   4.975
47156W        W18827  24.258  38.145   3.914
47157W        W18828  22.247  24.553   0.225
47158W        W18829  32.460   0.029   3.120
47159W        W18830  19.583  44.553  14.561
47160W        W18831   4.804  21.681  12.773
47161W        W18832  28.870  43.757  14.410
47162W        W18833  41.940  44.064   3.961
47163W        W18834  14.162  23.538  11.926
47164W        W18835   3.657  34.046  11.881
47165W        W18836  13.284  28.971   4.100
47166W        W18837  33.672  13.358   1.053
47167W        W18838   1.415  25.688   1.896
47168W        W18839  23.958  11.867  11.399
47169W        W18840  37.634  43.963   3.746
47170W        W18841  28.930  27.026   4.337
47171W        W18842   3.296  38.884   1.909
47172W        W18843  42.127   5.765   4.529
47173W        W18844  31.645  34.885   3.902
47174W        W18845  20.036   6.978   3.683
47175W        W18846  36.026   5.338  11.617
47176W        W18847  13.401  25.957   0.357
47177W        W18848   4.759  44.121   2.783
47178W        W18849  13.577  19.819  13.550
47179W        W18850  28.975   4.674   4.538
47180W        W18851  19.115  18.121   0.370
47181W        W18852   1.012  13.135   2.426
47182W        W18853  36.163  42.185  12.350
47183W        W18854  35.695  11.855  11.604
47184W        W18855  33.412  20.203  11.257
47185W        W18856  25.718  38.546   3.591
47186W        W18857  27.627  20.037  13.402
47187W        W18858  13.324   9.637  11.629
47188W        W18859  40.613  18.048  11.738
47189W        W18860  25.723  37.527  10.451
47190W        W18861   6.329  39.071   4.241
47191W        W18862  18.523  32.422  12.851
47192W        W18863  40.065  43.154   1.743
47193W        W18864   9.416  33.564  10.332
47194W        W18865  42.294  31.937   3.320
47195W        W18866   7.465  16.590  10.916
47196W        W18867  30.632  29.685   1.735
47197W        W18868  33.082  18.293  12.922
47198W        W18869  26.389  27.945   2.630
47199W        W18870   3.439  10.573   0.440
47200W        W18871   7.659  12.139  12.380
47201W        W18872   8.843  28.820  10.762
47202W        W18873  10.220  18.257   1.668
47203W        W18874  41.036   9.291   0.999
47204W        W18875   4.513  16.169   3.578
47205W        W18876  14.227   1.810  14.368
47206W        W18877   4.277  13.266  10.379
47207W        W18878  44.901   9.850  14.928
47208W        W18879  40.305  42.034   2.636
47209W        W18880   0.691  19.152  13.346
47210W        W18881  13.716  14.357  14.384
47211W        W18882  18.219  25.429   0.732
47212W        W18883  33.294  29.145   1.664
47213W        W18884  41.079   0.442   0.886
47214W        W18885  42.639  10.390   1.744
47215W        W18886  33.065  21.787  10.910
47216W        W18887  10.172  35.314   2.776
47217W        W18888   0.523  25.967  12.384
47218W        W18889  39.382  37.065   4.089
47219W        W18890  30.719  25.900   3.772
47220W        W18891   8.393   4.239   3.549
47221W        W18892  41.051  36.994   1.040
47222W        W18893  24.661  40.305  14.095
47223W        W18894  11.966  25.124   2.699
47224W        W18895  18.812   1.669   4.081
47225W        W18896   0.223  30.930   3.323
47226W        W18897   5.291  14.210   3.142
47227W        W18898  26.237  39.079   0.888
47228W        W18899   0.323  20.279   4.975
47229W        W18900   8.628  32.660   2.732
47230W        W18901   0.516  35.321   3.688
47231W        W18902   2.323   9.362   3.300
47232W        W18903  36.144   4.742  12.387
47233W        W18904  19.608  19.796  11.180
47234W        W18905   4.398  19.956  11.148
47235W        W18906  41.795   7.484   3.218
47236W        W18907  24.706   3.221   0.882
47237W        W18908  28.488  40.737  14.785
47238W        W18909  32.441  22.005   4.503
47239W        W18910  40.566  36.886  11.194
47240W        W18911  20.738  21.053   1.795
47241W        W18912  36.054  12.651   3.847
47242W        W18913  34.387  14.808  11.555
47243W        W18914  18.541  29.451   1.454
47244W        W18915  35.582  30.065  12.516
47245W        W18916   4.211  32.566  14.678
47246W        W18917   9.188  39.317   1.205
47247W        W18918  41.936  17.874   1.387
47248W        W18919  16.275  32.218   4.463
47249W        W18920  16.772  20.693  12.386
47250W        W18921   9.503  23.466   0.998
47251W        W18922  21.675  23.192  10.273
47252W        W18923  15.170   3.625   0.615
47253W        W18924  17.024  27.200   1.287
47254W        W18925  17.060  33.488   2.996
47255W        W18926  35.012  40.513  10.526
47256W        W18927  28.773  14.009   4.990
47257W        W18928  37.841  18.372   0.461
47258W        W18929  21.828  31.008  10.737
47259W        W18930   8.635  10.852  13.913
47260W        W18931  33.924  36.798  10.717
47261W        W18932  37.386  15.143   4.335
47262W        W18933   6.798   6.769  12.985
47263W        W18934  15.756  13.080  11.544
47264W        W18935  20.090  42.944  13.562
47265W        W18936   0.891  16.193   4.243
47266W        W18937   1.340   6.841  11.018
47267W        W18938  43.944  20.272   0.722
47268W        W18939  33.653  34.819  14.481
47269W        W18940   4.154  31.406  14.976
47270W        W18941  40.400  41.966   4.664
47271W        W18942  10.787   1.615   1.953
47272W        W18943  21.770  41.923  12.880
47273W        W18944  38.934   7.731   3.088
47274W        W18945   8.716   8.984  14.579
47275W        W18946  41.486  37.048   3.884
47276W        W18947  25.114  16.591  11.584
47277W        W18948  35.618  41.343   2.980
47278W        W18949  17.584  32.479   1.282
47279W        W18950   8.126  10.267   3.639
47280W        W18951  35.342  11.813  12.916
47281W        W18952  38.801   5.194   3.436
47282W        W18953  36.952  25.687   1.268
47283W        W18954  24.462   9.900   5.056
47284W        W18955  41.533   9.112  12.901
47285W        W18956   6.936  39.769   2.905
47286W        W18957  40.277  31.191  13.136
47287W        W18958   0.181  20.309  11.577
47288W        W18959  34.935  11.769   0.049
47289W        W18960   3.861   9.603  11.402
47290W        W18961  12.728   5.762   2.713
47291W        W18962  30.377  11.136   2.275
47292W        W18963  43.301   7.165  14.407
47293W        W18964  42.806  36.058  13.495
47294W        W18965   8.773   4.799   4.127
47295W        W18966  15.344  25.578  11.423
47296W        W18967  32.642  32.700  12.394
47297W        W18968   9.638  44.501  14.742
47298W        W18969  36.931  16.809  13.442
47299W        W18970  19.510  15.374  11.074
47300W        W18971  19.717   1.745   3.842
47301W        W18972   8.876   7.890   2.235
47302W        W18973  26.495  19.045  12.904
47303W        W18974  22.941   9.478  12.986
47304W        W18975  30.903   5.440   2.806
47305W        W18976  29.606   1.101  11.689
47306W        W18977  30.321   6.603   4.642
47307W        W18978   6.857  15.021  10.751
47308W        W18979  42.041   0.886  14.878
47309W        W18980  12.950  42.839   0.427
47310W        W18981  38.790  38.773   3.729
47311W        W18982  25.622  34.083  12.098
47312W        W18983  33.340   0.874  12.855
47313W        W18984  26.138  26.149  11.679
47314W        W18985   1.580  40.597   4.579
47315W        W18986  22.774  10.439   1.861
47316W        W18987  27.691   3.760  12.450
47317W        W18988   2.647   2.310   3.638
47318W        W18989  18.255  18.225  10.716
47319W        W18990  43.541  19.203   4.622
47320W        W18991  37.382  21.686   3.261
47321W        W18992  25.994  29.645   2.743
47322W        W18993  36.030  23.924   3.648
47323W        W18994  27.069  13.764   1.635
47324W        W18995  20.650  14.906   4.195
47325W        W18996  25.964   9.295   0.943
47326W        W18997  39.917   1.848  12.498
47327W        W18998  22.722  42.876   3.623
47328W        W18999  18.838  33.687   9.774
47329W        W19000  22.135  32.426   0.270
47330W        W19001  10.632  43.424  10.667
47331W        W19002  14.835  10.363   4.664
47332W        W19003  18.611  31.427   0.458
47333W        W19004   6.119  40.363  10.760
47334W        W19005  37.606  39.400  10.535
47335W        W19006  29.919  26.566   2.590
47336W        W19007   6.181  25.683   3.234
47337W        W19008  24.702   0.389   3.759
47338W        W19009  43.722  37.458  11.835
47339W        W19010  20.976  14.713  13.742
47340W        W19011  14.118  29.823   2.607
47341W        W19012  21.048  11.864   1.310
47342W        W19013  37.470  30.989   0.507
47343W        W19014  21.843   1.070   4.625
47344W        W19015   1.906  38.936  11.096
47345W        W19016  27.392   8.712  13.475
47346W        W19017  28.726  11.235  11.177
47347W        W19018  40.380  29.327   2.391
47348W        W19019  33.968   9.589   1.257
47349W        W19020  39.246  23.515   2.917
47350W        W19021   7.315  29.029  11.636
47351W        W19022  30.620  27.716   1.734
47352W        W19023  27.948  43.483  11.088
47353W        W19024  10.184  18.557   2.264
47354W        W19025  18.541   2.548  12.406
47355W        W19026  27.038   1.875  10.669
47356W        W19027  24.656  19.446  10.509
47357W        W19028  25.619  44.320  10.246
47358W        W19029  20.825  26.220   2.790
47359W        W19030   4.869  28.940   0.264
47360W        W19031   2.833   6.580   3.214
47361W        W19032  14.387   1.851   0.590
47362W        W19033  32.644  43.446   3.617
47363W        W19034  25.242  24.915   3.700
47364W        W19035  15.823  27.861   0.246
47365W        W19036  28.663  23.528  13.369
47366W        W19037  39.076  11.328   1.957
47367W        W19038  27.160  23.733   4.986
47368W        W19039  44.358  14.620  10.027
47369W        W19040  21.263  10.372  12.591
47370W        W19041  15.257  41.800  11.347
47371W        W19042  24.511  17.101   0.825
47372W        W19043  38.076  20.704   2.775
47373W        W19044  16.229  28.174  12.502
47374W        W19045  20.320  20.296   2.870
47375W        W19046   7.888   4.235  11.062
47376W        W19047  10.373  16.849   4.362
47377W        W19048  43.490  23.559   3.616
47378W        W19049  27.140  29.036  12.465
47379W        W19050  16.918  13.391   9.916
47380W        W19051  42.287  31.314  12.072
47381W        W19052   6.200  13.945  12.189
47382W        W19053   1.903  19.540   3.160
47383W        W19054  29.696  11.428   0.496
47384W        W19055  42.866  44.611  13.331
47385W        W19056  38.200  22.493   2.367
47386W        W19057   9.380  36.884  11.303
47387W        W19058  12.585  38.540   1.442
47388W        W19059  39.492  41.503  14.514
47389W        W19060   3.325  28.509  11.676
47390W        W19061  27.951  13.197  12.956
47391W        W19062  23.179   2.493   4.153
47392W        W19063   9.783  36.097  14.332
47393W        W19064  27.508   2.373   2.369
47394W        W19065   2.641  43.131  13.660
47395W        W19066  43.890   1.773  14.052
47396W        W19067   6.755  28.989  13.650
47397W        W19068  17.830  27.050  14.818
47398W        W19069  22.532  28.355  11.144
47399W        W19070  29.906  42.348  13.747
47400W        W19071   7.763   7.238   4.122
47401W        W19072  32.669  14.675  11.651
47402W        W19073  28.680  17.954   0.931
47403W        W19074  21.557   5.203  13.537
47404W        W19075   3.543  12.833  10.726
47405W        W19076  30.634  44.476   3.318
47406W        W19077  34.105  23.845   4.324
47407W        W19078   6.943   6.500  12.157
47408W        W19079  17.138  35.447   4.618
47409W        W19080  34.336  38.572   0.037
47410W        W19081  37.077  17.080   1.732
47411W        W19082  38.597  30.064  13.870
47412W        W19083  16.264   3.866  10.629
47413W        W19084  30.594   7.981   2.896
47414W        W19085  26.640  44.376   3.179
47415W        W19086   1.448  43.927   3.335
47416W        W19087   1.791  15.977   3.165
47417W        W19088   3.314  22.559   0.429
47418W        W19089   3.453  22.889   5.140
47419W        W19090   6.482  31.912  13.459
47420W        W19091   7.590  14.634  14.862
47421W        W19092   2.134   8.229   3.933
47422W        W19093   8.637  40.492  11.085
47423W        W19094  10.794  12.860  11.253
47424W        W19095   1.748  34.854   0.337
47425W        W19096  12.363  32.889   0.428
47426W        W19097  15.888  44.829  14.718
47427W        W19098   3.804  30.042   2.651
47428W        W19099  32.931   9.146  12.522
47429W        W19100  16.590   0.925  11.489
47430W        W19101  13.861  44.263   0.194
47431W        W19102  20.319  10.417  11.524
47432W        W19103  38.462  13.856  11.512
47433W        W19104  31.082  31.198   3.672
47434W        W19105  39.918  26.932   0.504
47435W        W19106  41.488  14.037  14.455
47436W        W19107  15.349   1.495   1.964
47437W        W19108   3.797  22.596   2.644
47438W        W19109   2.403  18.076  13.277
47439W        W19110  15.812  32.079   3.626
47440W        W19111  33.937   3.327  12.214
47441W        W19112  22.169  43.390  14.347
47442W        W19113   0.518  24.745   3.793
47443W        W19114  14.074  35.903   1.763
47444W        W19115  43.747   6.207   3.834
47445W        W19116   9.357  30.886  11.177
47446W        W19117  27.562  11.809   3.373
47447W        W19118   5.995   3.490  11.527
47448W        W19119  12.112  17.775   4.617
47449W        W19120  18.566   2.063  12.246
47450W        W19121  19.105   6.746  10.510
47451W        W19122  39.416  43.972   1.212
47452W        W19123  13.745  43.733  11.104
47453W        W19124   1.448  25.021   4.331
47454W        W19125  33.554  24.895  11.472
47455W        W19126  14.993   1.119   5.108
47456W        W19127  26.297   4.632   0.423
47457W        W19128   8.151  14.486  13.047
47458W        W19129   9.761  10.674   4.121
47459W        W19130  15.333  30.416  14.078
47460W        W19131  30.416  36.943   0.875
47461W        W19132  26.831  11.109   4.098
47462W        W19133  33.370  21.055  10.951
47463W        W19134   4.869  12.574  13.397
47464W        W19135  22.724   6.327  11.046
47465W        W19136  37.949  41.352   2.832
47466W        W19137  25.039  34.417   3.391
47467W        W19138  12.730  33.122  10.637
47468W        W19139  43.501  31.455  11.436
47469W        W19140  18.383  29.380   4.152
47470W        W19141  22.620  34.636   0.332
47471W        W19142   9.874  29.901   0.197
47472W        W19143  22.510  29.271   5.173
47473W        W19144   1.987  28.014  14.118
47474W        W19145  31.678  36.103  13.381
47475W        W19146   0.221  26.753   0.705
47476W        W19147   3.251   2.830  14.439
47477W        W19148  22.957  21.349  14.860
47478W        W19149  23.464  13.195   1.249
47479W        W19150  23.836  25.204   4.575
47480W        W19151   1.689   8.208  12.130
47481W        W19152  29.009  22.763   4.956
47482W        W19153  40.276  18.650  14.257
47483W        W19154  26.937  34.465  11.736
47484W        W19155  14.487  23.164  12.037
47485W        W19156  19.239  23.719   2.067
47486W        W19157  37.880  35.050   0.875
47487W        W19158  12.720  21.223   4.184
47488W        W19159  22.153   2.730   3.206
47489W        W19160  33.137   2.446   3.755
47490W        W19161  42.284  30.464  14.853
47491W        W19162  40.345  17.827   3.831
47492W        W19163   7.788  23.681   1.500
47493W        W19164  20.501   8.541  13.081
47494W        W19165  40.636  37.545  11.096
47495W        W19166  38.732  40.542   4.555
47496W        W19167  43.922   6.059   3.309
47497W        W19168  35.791  35.810  11.867
47498W        W19169  24.604   7.420  11.671
47499W        W19170  21.605  43.666  14.974
47500W        W19171  31.339  28.519   1.720
47501W        W19172  27.923   6.882  14.985
47502W        W19173   6.334   9.723   2.784
47503W        W19174  10.437   4.271  11.622
47504W        W19175  22.049  34.793   4.244
47505W        W19176  41.263  38.381   1.289
47506W        W19177  38.263  32.923   4.613
47507W        W19178  36.531  27.311   4.285
47508W        W19179  14.298  28.256  14.639
47509W        W19180   1.663  21.331   3.990
47510W        W19181  34.711  10.057  11.639
47511W        W19182   9.881  27.577   3.611
47512W        W19183  31.010  27.753   4.654
47513W        W19184  37.824  15.719   2.681
47514W        W19185  15.340  16.440   0.689
47515W        W19186  42.705  32.563   1.893
47516W        W19187  33.818  31.472  13.140
47517W        W19188  38.106  10.281   0.751
47518W        W19189  20.548  19.072   2.887
47519W        W19190   1.084  10.193   4.122
47520W        W19191  11.102   1.880  12.115
47521W        W19192   6.796  13.614  12.877
47522W        W19193   1.849  41.953   0.992
47523W        W19194  20.937  11.822   0.379
47524W        W19195   9.694   4.487  12.093
47525W        W19196  13.147  16.215  11.135
47526W        W19197  40.569   7.689   1.258
47527W        W19198  27.784  36.384   0.384
47528W        W19199  18.761  44.935  12.545
47529W        W19200  26.824  28.064   1.775
47530W        W19201  44.748  44.991   0.378
47531W        W19202  32.366  42.023   2.772
47532W        W19203  21.016  11.632   1.755
47533W        W19204  32.038  32.232   3.837
47534W        W19205   6.849  30.998  12.403
47535W        W19206   6.398   8.396   2.671
47536W        W19207  10.158  35.298   4.968
47537W        W19208  25.467  14.753   0.853
47538W        W19209   2.765   2.914   1.293
47539W        W19210  25.125  37.345  14.484
47540W        W19211  12.739  27.075  14.792
47541W        W19212  23.109  19.990   1.303
47542W        W19213  22.752  21.038  11.178
47543W        W19214  31.030  13.850   1.301
47544W        W19215  25.006  13.171   2.167
47545W        W19216  40.541  18.729  14.706
47546W        W19217  44.272  11.228  10.628
47547W        W19218  37.851   1.988   4.272
47548W        W19219  19.461  42.371   4.011
47549W        W19220   7.944  13.766   3.673
47550W        W19221  28.092  27.293   2.563
47551W        W19222  24.039  14.972  11.480
47552W        W19223  30.960  13.615   3.659
47553W        W19224  43.419  20.272  13.380
47554W        W19225  37.330  40.014   0.333
47555W        W19226  25.064   7.175  13.514
47556W        W19227  28.496  33.959  12.238
47557W        W19228  40.346  30.404   1.993
47558W        W19229  18.281  14.779   3.684
47559W        W19230  41.243  44.917  14.704
47560W        W19231  11.713  26.136  10.471
47561W        W19232  40.504  38.394  14.990
47562W        W19233  35.708   0.878   3.462
47563W        W19234  39.989   5.478  13.110
47564W        W19235  24.282  28.357   1.407
47565W        W19236  17.857  17.515  12.404
47566W        W19237  20.008  37.617   1.248
47567W        W19238  44.796  37.496   1.341
47568W        W19239  11.749  43.775   4.228
47569W        W19240   6.872   4.213   4.901
47570W        W19241  26.662  42.961  14.104
47571W        W19242   4.949  11.738   1.505
47572W        W19243  16.795  37.630  11.553
47573W        W19244  13.786   6.200   4.352
47574W        W19245  36.354  15.099  13.293
47575W        W19246  16.204   0.233  12.007
47576W        W19247  16.662  35.280   0.933
47577W        W19248  26.155   4.945  13.019
47578W        W19249  19.669  35.791  13.514
47579W        W19250  11.322   3.949   3.706
47580W        W19251  33.862   5.929   4.346
47581W        W19252  43.722  19.589  14.552
47582W        W19253  28.513  24.161  14.987
47583W        W19254  36.606   8.095  12.557
47584W        W19255  25.665  41.151  12.911
47585W        W19256  27.178   8.932   2.333
47586W        W19257  19.737   2.914   0.922
47587W        W19258  37.913   8.223   4.246
47588W        W19259   6.750  12.063   4.213
47589W        W19260  41.902  14.539   2.165
47590W        W19261  21.605  44.226   1.370
47591W        W19262  33.640  27.599   0.961
47592W        W19263  38.269  27.252   0.736
47593W        W19264  43.859  29.513   1.197
47594W        W19265  13.846  28.661  12.970
47595W        W19266  36.367  41.290   4.736
47596W        W19267  42.378  22.272   3.046
47597W        W19268   1.591  23.911   4.311
47598W        W19269  40.230  37.968   3.751
47599W        W19270  26.514   2.036  14.768
47600W        W19271  23.679   5.427  14.203
47601W        W19272   4.705  29.889  14.307
47602W        W19273  44.454   8.278  14.505
47603W        W19274   0.426   9.817  11.398
47604W        W19275  15.365  21.283   1.007
47605W        W19276  19.151  16.092  13.125
47606W        W19277   8.986  29.513  13.509
47607W        W19278  27.661   6.731   0.669
47608W        W19279  38.896  19.327  10.952
47609W        W19280  43.522   1.951  10.992
47610W        W19281   8.810   7.356   4.096
47611W        W19282  39.479  13.343  13.862
47612W        W19283  42.920   1.593  14.261
47613W        W19284   0.056  35.855   2.919
47614W        W19285  30.864  25.600   3.382
47615W        W19286   3.325  18.135  13.371
47616W        W19287  42.005   1.260  11.529
47617W        W19288  30.433  42.921  10.520
47618W        W19289  24.533  32.131   0.804
47619W        W19290  34.463  40.554  14.821
47620W        W19291  27.620  37.607   3.712
47621W        W19292  24.295  42.494   1.855
47622W        W19293   0.796   0.279  14.528
47623W        W19294  12.404   5.749   2.225
47624W        W19295  25.962  17.730   0.003
47625W        W19296  28.179  29.549  10.451
47626W        W19297   6.287  13.654  14.992
47627W        W19298  41.232  40.803  12.016
47628W        W19299  37.083  15.990   2.105
47629W        W19300  19.024  13.569   0.311
47630W        W19301  41.762  28.102   4.836
47631W        W19302  14.526  15.543   0.420
47632W        W19303  32.846  26.583   4.563
47633W        W19304   8.675  38.396  14.351
47634W        W19305  27.735  18.666  14.280
47635W        W19306  27.571   7.642   3.278
47636W        W19307  34.512   6.952  11.617
47637W        W19308  37.945  27.724  13.236
47638W        W19309  41.274  41.934   3.105
47639W        W19310  32.574  17.127  12.401
47640W        W19311  39.440  28.049   1.726
47641W        W19312  22.131  35.287   2.344
47642W        W19313   6.474  41.894   4.893
47643W        W19314  19.591  15.171   2.686
47644W        W19315   6.473   6.797   1.814
47645W        W19316   1.955  32.362   1.573
47646W        W19317  17.629   2.474  10.538
47647W        W19318  11.591  31.544  10.851
47648W        W19319  34.078   8.211   3.451
47649W        W19320  37.110  25.117  10.637
47650W        W19321  20.163   9.831   5.043
47651W        W19322  35.576  18.236   1.372
47652W        W19323  24.267  40.976  10.681
47653W        W19324  12.056   2.322  12.916
47654W        W19325  39.513  30.853   2.090
47655W        W19326  32.496  18.210   2.851
47656W        W19327   5.985  43.470   4.422
47657W        W19328  42.993  31.120  12.588
47658W        W19329  30.738  41.928  13.869
47659W        W19330  16.284   3.289  11.575
47660W        W19331   4.279   0.309  11.902
47661W        W19332  19.112  29.182  12.538
47662W        W19333  18.879   7.946   2.896
47663W        W19334  35.091  17.086  14.080
47664W        W19335  16.782  37.788  13.456
47665W        W19336  43.565  36.343  11.156
47666W        W19337  19.657   7.585  10.766
47667W        W19338  43.740  31.722  13.526
47668W        W19339  12.666  27.821   3.729
47669W        W19340  21.268  19.247   1.725
47670W        W19341  22.640   8.804  11.157
47671W        W19342  44.134  19.275   2.709
47672W        W19343  13.756  19.513  11.096
47673W        W19344   6.649  44.468  10.628
47674W        W19345  43.806  18.356   0.880
47675W        W19346  44.827  29.074  11.505
47676W        W19347   0.799   8.952   0.254
47677W        W19348  14.213   0.489   0.245
47678W        W19349  37.152  43.842  11.533
47679W        W19350  19.869  35.392   2.709
47680W        W19351  42.949  38.136   0.262
47681W        W19352   4.017  12.863  10.896
47682W        W19353   0.881  42.979  14.941
47683W        W19354  18.386  16.690  11.278
47684W        W19355  30.244  34.859   4.277
47685W        W19356   1.963   3.797  14.012
47686W        W19357  34.921  14.776  10.658
47687W        W19358  19.912  14.020   2.706
47688W        W19359  33.268  31.826   0.455
47689W        W19360  40.004  25.080  12.584
47690W        W19361  32.659  29.309  13.468
47691W        W19362  25.203  33.933  12.391
47692W        W19363   3.415  13.601  11.048
47693W        W19364  26.020  23.207   3.312
47694W        W19365  36.986  35.326  12.247
47695W        W19366  20.131  23.563  12.673
47696W        W19367   6.379  40.426   2.186
47697W        W19368  25.932  24.187  11.090
47698W        W19369  36.957  29.187   3.905
47699W        W19370  16.076  36.069  11.212
47700W        W19371   0.488   5.722   0.164
47701W        W19372   5.163  18.173   2.937
47702W        W19373   6.332  19.033  12.131
47703W        W19374  27.140  30.559  14.322
47704W        W19375   6.876  35.832  11.866
47705W        W19376  10.332  12.331  11.991
47706W        W19377  26.575  34.563   2.233
47707W        W19378  11.175   6.833  13.046
47708W        W19379  15.344   6.723   3.275
47709W        W19380  38.883  20.167   2.774
47710W        W19381  37.959  20.026   2.257
47711W        W19382   8.322  10.260  14.491
47712W        W19383  14.248  27.939   2.772
47713W        W19384  44.781  20.741   0.436
47714W        W19385  14.591  43.772   3.762
47715W        W19386  13.334  12.266  12.877
47716W        W19387  32.480  43.444  10.602
47717W        W19388  22.275  25.180   5.302
47718W        W19389  22.626  30.659   4.074
47719W        W19390  31.568  12.251  10.767
47720W        W19391  25.617  12.062  14.330
47721W        W19392  13.458  20.093   0.192
47722W        W19393  18.107  20.835  13.045
47723W        W19394  36.093  36.622  14.327
47724W        W19395  41.788  44.026  14.774
47725W        W19396   9.253  34.663   4.654
47726W        W19397  22.925  12.912   5.195
47727W        W19398  11.071  28.934  14.200
47728W        W19399  42.503  37.544   0.986
47729W        W19400  25.789   5.803  12.531
47730W        W19401  30.939  12.148   1.478
47731W        W19402  17.208   2.204  10.689
47732W        W19403   0.765  28.675  13.699
47733W        W19404  36.364  21.253  13.566
47734W        W19405  24.674  31.095   0.808
47735W        W19406  21.792  40.020  10.224
47736W        W19407  17.746  33.025   2.462
47737W        W19408  38.354  12.420  14.717
47738W        W19409   2.863  23.512  10.537
47739W        W19410   9.280  33.621  13.847
47740W        W19411   1.363  26.667  12.139
47741W        W19412  41.779   5.854   0.793
47742W        W19413  32.334  41.751  11.042
47743W        W19414  32.895  15.314   3.239
47744W        W19415  23.879  44.917  14.872
47745W        W19416   2.345  32.338   0.716
47746W        W19417  19.316  10.250   5.045
47747W        W19418  10.750  25.616   4.871
47748W        W19419  43.244  18.296   4.145
47749W        W19420  26.598   1.341  13.049
47750W        W19421  26.046  44.790  13.790
47751W        W19422  34.921  18.961  12.058
47752W        W19423  23.584   5.871   3.458
47753W        W19424  10.181  17.774  11.657
47754W        W19425  20.239  38.973  11.514
47755W        W19426   2.894  26.935  14.349
47756W        W19427   9.328  32.921   4.340
47757W        W19428  40.944   6.349   4.881
47758W        W19429  41.075   7.164  12.020
47759W        W19430  33.581  14.165  14.014
47760W        W19431  39.564  23.209   0.704
47761W        W19432   8.471  30.458  12.905
47762W        W19433  23.669   1.488  14.566
47763W        W19434  27.563  39.354   3.247
47764W        W19435   6.088   2.630   2.674
47765W        W19436  12.193  33.340   4.129
47766W        W19437  22.583  36.517   0.824
47767W        W19438   1.165   9.785   2.620
47768W        W19439  30.612   2.263   2.737
47769W        W19440  15.561  28.662   1.477
47770W        W19441  43.001  41.500   2.665
47771W        W19442  29.126  33.007  14.436
47772W        W19443  33.532  43.239  10.852
47773W        W19444  37.519  19.012   3.429
47774W        W19445  25.569  28.037   2.788
47775W        W19446  25.574  19.084   2.925
47776W        W19447  14.355  33.332  11.016
47777W        W19448  26.726  19.335   5.190
47778W        W19449  39.026  26.151   3.598
47779W        W19450  20.105  26.534  12.047
47780W        W19451  39.030   5.468   1.798
47781W        W19452  25.970  28.146   0.422
47782W        W19453  36.529   6.285   3.618
47783W        W19454   3.128  21.800  10.254
47784W        W19455  41.678   1.680  13.364
47785W        W19456  32.532  40.835   1.253
47786W        W19457  38.902  18.311   1.221
47787W        W19458  32.675   3.499   0.595
47788W        W19459  14.768  15.794  10.530
47789W        W19460  32.507   3.434   0.098
47790W        W19461  41.624   0.942   2.392
47791W        W19462  35.129  28.474   4.193
47792W        W19463  24.524  38.871   2.316
47793W        W19464  41.366  35.062   2.371
47794W        W19465  16.082  44.168  14.955
47795W        W19466  34.961  37.988  13.039
47796W        W19467  18.225  19.796   1.905
47797W        W19468   2.927  36.954   3.551
47798W        W19469  37.864  34.528   2.092
47799W        W19470   0.722   5.320   3.301
47800W        W19471  21.989  40.752   1.272
47801W        W19472   8.358  23.338  14.532
47802W        W19473  37.125  12.733   0.511
47803W        W19474  21.249  22.300  13.831
47804W        W19475  34.046   6.136  14.193
47805W        W19476  18.191  14.072   3.057
47806W        W19477  35.628   3.723   0.323
47807W        W19478  13.170  15.673  11.014
47808W        W19479   5.788   2.841   3.127
47809W        W19480  16.019  10.032  14.521
47810W        W19481  21.663  35.578  14.431
47811W        W19482  24.601  39.423  10.078
47812W        W19483   1.048  29.776  12.712
47813W        W19484  19.742   2.518   4.104
47814W        W19485  10.241  23.208   1.007
47815W        W19486   1.734  25.142  12.082
47816W        W19487  19.680  41.894  14.817
47817W        W19488  16.044  13.137  12.932
47818W        W19489  16.831  31.417   0.961
47819W        W19490  19.630   9.926   0.298
47820W        W19491  16.682   5.278   5.020
47821W        W19492   2.910  42.051   0.276
47822W        W19493  22.709  31.616   4.752
47823W        W19494   5.490   9.684  14.706
47824W        W19495  27.767  19.335  11.194
47825W        W19496  24.072  39.048   2.498
47826W        W19497  13.596   8.208  10.923
47827W        W19498   2.360   8.200   2.485
47828W        W19499  21.042  13.278  12.788
47829W        W19500   9.129  17.485  11.693
47830W        W19501   0.002  41.311  14.181
47831W        W19502  35.301  41.742  11.133
47832W        W19503  17.242  26.006   0.010
47833W        W19504   5.521  27.211   4.998
47834W        W19505  26.210   3.084   4.520
47835W        W19506  36.938   3.908  11.556
47836W        W19507  35.977   6.361   2.934
47837W        W19508  21.199  32.316   4.573
47838W        W19509   3.399  20.931   4.123
47839W        W19510  27.449   7.849   1.370
47840W        W19511   7.312   6.678   2.852
47841W        W19512  11.895  30.149   2.221
47842W        W19513  24.612  21.974  10.542
47843W        W19514  10.409  15.187  13.115
47844W        W19515  39.370  36.637   0.406
47845W        W19516  31.350   9.734  13.049
47846W        W19517  32.560   1.236   0.208
47847W        W19518  37.492  43.234   2.854
47848W        W19519  21.677  35.047   2.265
47849W        W19520  33.613  37.970  10.296
47850W        W19521  37.174  18.632  10.687
47851W        W19522  31.538  16.587  10.251
47852W        W19523   0.313  42.230  13.295
47853W        W19524   2.352  40.781  14.116
47854W        W19525  33.575  20.298   0.482
47855W        W19526  23.813  13.332   2.762
47856W        W19527   4.342  19.175  12.206
47857W        W19528   6.944  27.520   1.439
47858W        W19529   5.666   7.357   1.598
47859W        W19530  10.066   6.858  11.899
47860W        W19531   3.222  30.292   0.802
47861W        W19532   4.719  29.699  13.065
47862W        W19533  44.839  39.794  10.135
47863W        W19534  30.670   8.664   3.974
47864W        W19535  37.982  21.802  12.943
47865W        W19536   6.965  35.619  11.060
47866W        W19537  19.646  26.144  12.595
47867W        W19538   9.423  17.970   2.136
47868W        W19539  28.986   1.756  13.044
47869W        W19540   5.109  39.604   3.677
47870W        W19541   3.767  38.590   2.362
47871W        W19542  21.854  21.114  13.021
47872W        W19543  33.308  42.340   3.803
47873W        W19544  27.496  30.066   2.333
47874W        W19545  34.390  18.416   1.970
47875W        W19546  38.113  11.069  11.273
47876W        W19547  18.094  29.028   0.645
47877W        W19548  19.772  28.328  14.425
47878W        W19549  18.806  27.439   1.455
47879W        W19550  14.349  10.647   1.211
47880W        W19551  15.365   6.246   4.119
47881W        W19552  16.082  13.798   4.522
47882W        W19553  27.114  40.978   2.902
47883W        W19554  25.651   7.121  13.003
47884W        W19555  15.130  27.908  11.085
47885W        W19556  22.089   2.909  11.221
47886W        W19557   0.649  38.490  14.228
47887W        W19558   8.301  18.319   3.804
47888W        W19559   8.663  35.014   4.136
47889W        W19560   8.853   4.265   4.505
47890W        W19561  12.102   1.900  14.836
47891W        W19562  21.493  36.014   2.445
47892W        W19563  35.890  10.206  13.537
47893W        W19564  12.200  35.372  12.380
47894W        W19565  17.252  10.446   5.355
47895W        W19566  16.816  21.016  14.797
47896W        W19567  17.883  25.351   2.875
47897W        W19568  16.161  39.560   0.785
47898W        W19569  32.219  32.968   4.602
47899W        W19570  35.758  21.696   0.213
47900W        W19571  43.056  25.206  12.269
47901W        W19572  27.495  20.714   4.916
47902W        W19573  18.678   1.759  10.716
47903W        W19574   7.437  12.201  14.727
47904W        W19575  24.495  23.166  12.371
47905W        W19576  42.496  14.683  14.208
47906W        W19577  14.822  20.515   0.813
47907W        W19578  33.926   4.394   4.244
47908W        W19579   0.005  44.477  14.002
47909W        W19580  15.151  21.994  11.585
47910W        W19581  10.277  39.019  14.868
47911W        W19582  43.282   6.465   1.785
47912W        W19583  29.609  10.943  12.123
47913W        W19584  33.596  35.940   2.344
47914W        W19585  32.451  21.728  11.596
47915W        W19586  14.152  14.177  13.041
47916W        W19587  12.104  20.915  11.130
47917W        W19588  35.645   5.783  13.010
47918W        W19589  42.546  36.030   0.285
47919W        W19590  38.072   0.037  11.134
47920W        W19591  41.544  35.062   4.603
47921W        W19592  10.299  31.044   1.361
47922W        W19593  28.600   9.858   5.156
47923W        W19594   8.387  27.073  13.991
47924W        W19595  39.991   0.910  13.329
47925W        W19596   2.366  30.331   0.695
47926W        W19597   3.993  40.790  13.918
47927W        W19598  24.544   6.939  11.472
47928W        W19599   5.303  29.180  12.473
47929W        W19600  33.601  17.834  10.384
47930W        W19601   8.839   0.557  11.946
47931W        W19602  23.137   8.675   4.253
47932W        W19603   0.228  39.574  11.198
47933W        W19604  23.055  18.483  14.401
47934W        W19605  21.251  27.928  14.824
47935W        W19606  25.632  38.089  13.794
47936W        W19607   9.464  30.155   4.088
47937W        W19608  10.603  42.993   4.013
47938W        W19609  16.111  35.656  12.169
47939W        W19610  23.062  44.884  12.699
47940W        W19611  34.142  21.775  12.595
47941W        W19612  27.915  29.533  13.970
47942W        W19613   8.931  16.178   4.218
47943W        W19614  38.075  22.655  14.372
47944W        W19615   7.800   1.207  13.399
47945W        W19616  27.641  24.766   0.865
47946W        W19617   4.198   7.474   3.680
47947W        W19618  40.600  39.254  14.370
47948W        W19619  28.997  18.173  11.270
47949W        W19620   0.655  31.740   2.322
47950W        W19621  23.247  44.910   2.813
47951W        W19622  41.431  30.698   0.552
47952W        W19623  10.850  34.617  10.970
47953W        W19624  42.915   7.191  11.792
47954W        W19625  16.301  20.655  12.562
47955W        W19626   9.268  34.624  13.800
47956W        W19627  39.602   4.940   1.420
47957W        W19628  12.359  30.013   1.312
47958W        W19629  35.825   2.817  11.503
47959W        W19630  10.242   7.324   0.818
47960W        W19631   3.192  16.159   0.894
47961W        W19632   2.874   0.877  12.785
47962W        W19633   3.787  36.962   2.702
47963W        W19634  20.741  12.670   4.102
47964W        W19635  17.160  16.809  10.655
47965W        W19636  16.741  37.507  10.310
47966W        W19637   1.485  43.009  14.957
47967W        W19638  23.944  15.746   2.818
47968W        W19639  41.353   4.878   3.688
47969W        W19640   5.489  43.485   0.817
47970W        W19641  12.716   4.241   3.336
47971W        W19642  36.985  17.960  12.914
47972W        W19643  32.289  32.139   4.670
47973W        W19644  17.665  33.879   2.597
47974W        W19645  21.235  11.908   5.081
47975W        W19646  44.635  43.500   2.098
47976W        W19647  31.459   5.743   0.442
47977W        W19648  19.669  18.963   4.770
47978W        W19649   6.681  10.046   1.305
47979W        W19650  11.893  22.515   0.997
47980W        W19651  33.436  11.621  11.922
47981W        W19652   8.083  31.334   1.838
47982W        W19653  21.062  37.972   4.682
47983W        W19654  20.146  15.896   4.537
47984W        W19655  24.022  43.959  11.602
47985W        W19656  12.370  36.451  13.370
47986W        W19657  32.557  19.171  13.567
47987W        W19658  36.570  31.674  14.915
47988W        W19659  16.505  42.853  13.143
47989W        W19660  29.602   3.219  12.429
47990W        W19661  34.141   3.731  11.955
47991W        W19662   9.364  22.626   2.919
47992W        W19663  22.587  26.516  11.131
47993W        W19664  25.454   0.129   4.089
47994W        W19665  29.138  30.623   2.832
47995W        W19666   1.709  39.804  12.181
47996W        W19667  17.651  34.564  14.797
47997W        W19668   8.408  17.157   2.364
47998W        W19669  43.731  39.925   3.189
47999W        W19670  23.598  11.330  14.531
48000W        W19671  32.458  41.860   0.744
48001W        W19672  30.555  30.720   0.521
48002W        W19673  24.573   8.393   4.584
48003W        W19674  30.101  43.968   1.661
48004W        W19675   4.442  40.597   1.842
48005W        W19676  39.401  28.527  13.046
48006W        W19677  16.727  27.730  13.744
48007W        W19678  34.412  29.911  12.061
48008W        W19679   9.270   3.635  11.691
48009W        W19680   0.829  27.209   2.290
48010W        W19681  13.182  36.519   2.100
48011W        W19682  41.544  39.477  10.659
48012W        W19683  19.663  36.574   4.676
48013W        W19684  20.990  28.242   0.740
48014W        W19685  17.552  17.307   1.585
48015W        W19686  13.670   0.264   4.625
48016W        W19687  41.469  20.231  13.951
48017W        W19688  35.990  40.352   1.481
48018W        W19689  35.236  13.678   4.246
48019W        W19690  44.248  13.267   3.540
48020W        W19691   2.942  37.749   4.174
48021W        W19692   5.876   5.043   4.852
48022W        W19693  32.508  19.244   0.524
48023W        W19694  42.931  41.462   1.767
48024W        W19695  31.731  38.401   0.303
48025W        W19696  41.987   6.842   3.897
48026W        W19697  30.183  15.985   2.965
48027W        W19698  37.787  43.116  11.159
48028W        W19699   2.388  37.033   3.674
48029W        W19700  37.714  21.336   4.165
48030W        W19701   9.636  27.123   1.718
48031W        W19702  22.523  33.547   0.267
48032W        W19703  13.212   1.885   3.789
48033W        W19704  21.628   7.301   2.264
48034W        W19705  39.624  18.682  12.613
48035W        W19706  43.929  11.603  11.107
48036W        W19707  11.684  32.397  13.497
48037W        W19708  27.453   5.797   4.998
48038W        W19709  24.877  20.739   0.937
48039W        W19710  40.769  29.113   3.679
48040W        W19711  13.600  43.884  14.889
48041W        W19712  11.814  14.105   1.889
48042W        W19713  13.614  19.032  13.940
48043W        W19714  31.716   9.433   0.197
48044W        W19715  20.621  37.568   2.950
48045W        W19716  44.447  15.242   4.199
48046W        W19717  44.507  15.880   3.581
48047W        W19718   1.811  31.326  13.377
48048W        W19719  36.518  12.726  13.951
48049W        W19720   2.924  26.165  14.894
48050W        W19721  24.112  32.074   2.192
48051W        W19722  43.242   7.391   0.652
48052W        W19723   5.327  38.843   3.763
48053W        W19724  35.552   7.705   1.468
48054W        W19725  12.102  23.782   4.255
48055W        W19726  35.890  13.151   0.648
48056W        W19727  24.649  14.206  10.542
48057W        W19728   8.288  19.568  10.791
48058W        W19729  18.088  21.330  12.818
48059W        W19730  28.544  32.130  12.960
48060W        W19731   3.970  13.615  13.474
48061W        W19732  39.520  31.030  13.353
48062W        W19733  37.099  18.226   4.677
48063W        W19734  43.012  36.466   3.578
48064W        W19735   9.238  35.690  14.724
48065W        W19736  22.458  16.699   4.543
48066W        W19737  26.736  35.826  11.156
48067W        W19738   0.821  15.246   4.777
48068W        W19739  37.932   7.182   1.749
48069W        W19740  43.371  34.924  10.996
48070W        W19741  14.814   7.970   5.872
48071W        W19742  34.493  27.605   2.141
48072W        W19743  34.606  31.533   1.831
48073W        W19744  39.630  15.333   4.127
48074W        W19745  41.686  24.806  10.352
48075W        W19746  13.758  21.181   3.484
48076W        W19747  37.946  32.029   9.831
48077W        W19748  36.570  44.959  14.058
48078W        W19749  20.260  32.928  10.995
48079W        W19750   9.216  10.827  10.633
48080W        W19751  39.038  43.363   2.796
48081W        W19752  26.675  17.595  10.993
48082W        W19753  34.462  37.857  10.106
48083W        W19754  15.972  10.259   0.010
48084W        W19755   3.158   5.143  13.393
48085W        W19756  24.259  28.797  11.535
48086W        W19757  15.144   6.662   0.511
48087W        W19758   0.418   0.059   1.640
48088W        W19759  43.358   9.326   0.122
48089W        W19760   8.058   8.969   4.124
48090W        W19761  19.829   8.798   4.370
48091W        W19762  26.442  12.636  14.195
48092W        W19763  42.832  19.993   2.373
48093W        W19764  26.943  35.331  10.689
48094W        W19765  19.630   1.542  13.059
48095W        W19766  32.488  15.085   2.965
48096W        W19767  16.789  13.753   5.680
48097W        W19768  32.054  20.683   4.470
48098W        W19769  13.406  10.771  12.607
48099W        W19770  25.922  39.794  11.650
48100W        W19771  39.520  42.302  12.852
48101W        W19772  24.207   2.305  14.711
48102W        W19773  30.903  11.512  11.700
48103W        W19774   7.417  14.888   4.223
48104W        W19775  18.026  28.587   4.706
48105W        W19776  15.887   7.353   3.755
48106W        W19777  40.636  21.512  14.774
48107W        W19778  42.391  34.043  10.759
48108W        W19779   6.906   1.637   0.903
48109W        W19780  18.151   1.271   0.195
48110W        W19781  16.859  38.072  13.033
48111W        W19782  24.706  41.053   2.766
48112W        W19783   4.166   7.768   4.577
48113W        W19784  13.907   7.850  14.791
48114W        W19785  29.234  18.532  12.840
48115W        W19786  38.269   5.809  11.506
48116W        W19787  21.194  25.949  13.629
48117W        W19788  29.991  39.909  11.638
48118W        W19789  33.455  40.343   3.331
48119W        W19790  38.986  24.948   3.639
48120W        W19791  15.767  38.969   0.508
48121W        W19792  28.603  36.474   3.111
48122W        W19793  44.758  39.554   3.772
48123W        W19794  37.045  24.244   1.349
48124W        W19795   8.649  16.186   1.421
48125W        W19796  22.257  32.202   2.802
48126W        W19797  22.919  42.031   3.332
48127W        W19798  31.540  41.814   0.383
48128W        W19799   7.744  35.895   2.412
48129W        W19800  42.667  11.941   0.793
48130W        W19801  22.214  21.350   3.184
48131W        W19802  23.057  32.231  11.027
48132W        W19803  36.860  19.845   0.918
48133W        W19804  23.283  38.148   2.321
48134W        W19805  11.478   5.240  11.805
48135W        W19806  32.095  30.567  12.602
48136W        W19807  30.479  13.577   0.355
48137W        W19808  21.422  13.813   3.795
48138W        W19809  13.919  33.654  10.986
48139W        W19810  28.283  35.952  14.214
48140W        W19811   6.384  37.494  12.029
48141W        W19812  19.111  26.112   4.285
48142W        W19813   0.821  34.517   0.922
48143W        W19814   2.942  33.604  13.131
48144W        W19815  36.486   0.818  14.340
48145W        W19816  10.326  39.305  12.546
48146W        W19817   7.404  11.256   2.274
48147W        W19818  32.012  18.682   5.487
48148W        W19819  10.535  22.766   1.911
48149W        W19820  28.406  39.427  13.057
48150W        W19821  36.944  14.095   2.220
48151W        W19822  28.953  20.229  14.719
48152W        W19823   5.708   0.213   2.288
48153W        W19824   8.647   9.654   3.624
48154W        W19825  31.173  16.819  12.651
48155W        W19826  10.463   5.512   1.267
48156W        W19827  30.944  42.609  11.143
48157W        W19828  27.122  26.423   0.355
48158W        W19829  27.201  27.429   1.587
48159W        W19830   2.986  11.136  13.954
48160W        W19831  31.170  14.827  14.097
48161W        W19832   0.482  19.269   2.206
48162W        W19833   6.383  24.168  14.999
48163W        W19834  21.410  26.446  10.305
48164W        W19835  38.079   1.554   3.240
48165W        W19836  12.677  34.089  12.190
48166W        W19837  15.753  35.417  10.911
48167W        W19838  12.035  22.924  13.048
48168W        W19839  12.334  30.395  12.016
48169W        W19840  19.320  44.537   3.576
48170W        W19841  24.559  41.184   4.885
48171W        W19842  21.401   8.754  12.965
48172W        W19843   3.197   0.348  12.601
48173W        W19844  15.573  15.232  10.595
48174W        W19845  20.026  39.324   2.660
48175W        W19846  27.695  39.086  12.625
48176W        W19847   9.674   5.685  10.844
48177W        W19848  15.536  42.394  14.530
48178W        W19849   7.154  32.977  14.394
48179W        W19850  31.426  44.587  11.436
48180W        W19851   2.283   4.475  13.933
48181W        W19852  41.038  33.612   0.423
48182W        W19853  21.996  29.900   4.964
48183W        W19854  21.358  23.712  10.204
48184W        W19855  18.751  39.560   3.769
48185W        W19856  39.595  41.517   5.105
48186W        W19857   6.223  25.577   0.771
48187W        W19858  30.063   0.982  12.035
48188W        W19859   7.137  12.759  12.077
48189W        W19860   2.823  43.438   2.860
48190W        W19861  17.698   7.187  12.811
48191W        W19862  41.303  25.508  14.175
48192W        W19863  31.191  16.775  12.106
48193W        W19864  25.325  30.690  13.916
48194W        W19865   7.918  17.042   3.237
48195W        W19866   9.979  24.002   0.486
48196W        W19867  37.804   6.146   0.861
48197W        W19868  24.923  14.046   0.181
48198W        W19869  21.227  36.581   4.097
48199W        W19870  32.452  30.403   2.815
48200W        W19871  35.112  16.229   1.854
48201W        W19872  41.490  38.403  13.642
48202W        W19873  30.489  28.717  12.925
48203W        W19874  11.445  27.637   4.954
48204W        W19875  12.645  29.345   3.674
48205W        W19876   3.457  36.888  10.764
48206W        W19877  37.942   9.233  12.309
48207W        W19878  13.362  14.190   2.374
48208W        W19879  18.808  30.177  12.317
48209W        W19880  40.515  35.244  10.601
48210W        W19881  11.380  18.186  10.919
48211W        W19882  28.954  37.564  13.455
48212W        W19883  36.881  43.038  12.156
48213W        W19884  24.743  25.662   3.120
48214W        W19885  34.998   8.771   9.909
48215W        W19886  12.864  23.073   4.230
48216W        W19887  22.192  26.456   1.062
48217W        W19888  40.273  16.403  13.251
48218W        W19889  37.388  26.455   1.325
48219W        W19890   3.725  36.127   2.402
48220W        W19891  24.569  16.233   1.955
48221W        W19892  39.921   7.185   2.919
48222W        W19893  38.398  37.754   1.501
48223W        W19894  35.372   7.827   4.651
48224W        W19895  27.940  25.077   1.146
48225W        W19896  19.494  34.846   1.748
48226W        W19897  33.102   2.731   1.315
48227W        W19898   0.902  37.847   0.670
48228W        W19899  35.829   4.263   1.657
48229W        W19900  41.868  30.414   0.449
48230W        W19901  43.034  36.770   1.201
48231W        W19902  44.295  16.647  10.718
48232W        W19903  28.868  40.300   0.669
48233W        W19904  35.592  22.594   4.863
48234W        W19905  21.659  30.527   1.231
48235W        W19906  23.526  40.006   3.621
48236W        W19907  12.268  18.393  13.150
48237W        W19908  12.871  22.398  11.120
48238W        W19909  43.338   6.589   3.578
48239W        W19910  33.796   9.827  12.735
48240W        W19911  35.833  26.290  13.192
48241W        W19912   3.490  10.169   2.668
48242W        W19913  31.122  13.841   4.643
48243W        W19914  22.332   2.918   3.673
48244W        W19915  18.620   7.652   3.867
48245W        W19916  19.662  18.328  13.574
48246W        W19917  36.927  13.790  13.130
48247W        W19918  21.398  22.247   1.504
48248W        W19919  42.736  40.493   0.291
48249W        W19920  34.427  38.586   1.742
48250W        W19921  18.337  25.513   4.107
48251W        W19922  14.276  24.454   0.037
48252W        W19923   9.907  19.475  14.334
48253W        W19924  37.481  13.752  14.991
48254W        W19925  22.483  17.150  13.609
48255W        W19926   0.727  19.758  10.540
48256W        W19927  34.040  31.198  14.061
48257W        W19928  16.166  17.699  14.474
48258W        W19929  36.845   4.475  12.538
48259W        W19930  13.797  37.412   1.919
48260W        W19931   8.375  15.793  12.450
48261W        W19932  14.834  14.234  12.450
48262W        W19933  20.156  23.414  13.168
48263W        W19934   9.341   8.851   3.083
48264W        W19935  40.094   4.402  12.060
48265W        W19936   7.314  26.216   1.402
48266W        W19937  44.436  42.039   0.030
48267W        W19938  36.852  27.173  12.527
48268W        W19939  26.737  44.472   4.677
48269W        W19940  26.222  24.987   1.897
48270W        W19941  27.034  35.103  12.343
48271W        W19942  43.492  39.443   2.251
48272W        W19943  39.420   6.320   1.950
48273W        W19944  40.620  10.096  12.790
48274W        W19945  19.374  33.495   1.737
48275W        W19946  37.608  37.346   4.565
48276W        W19947  15.062   0.451   2.834
48277W        W19948  17.744  22.666  13.499
48278W        W19949  29.006  38.207   3.234
48279W        W19950  22.052  39.936   4.326
48280W        W19951  19.196   3.924   2.467
48281W        W19952  25.295   0.706   1.425
48282W        W19953  23.980   3.508   5.029
48283W        W19954  28.638  34.142   0.766
48284W        W19955   0.232  21.150   9.964
48285W        W19956  22.022  13.119   2.616
48286W        W19957  40.336   6.200   1.452
48287W        W19958  36.744  29.086   2.045
48288W        W19959  29.651  35.988   0.828
48289W        W19960  35.060  19.906  12.952
48290W        W19961   8.696  37.726   3.641
48291W        W19962   0.935  15.581   3.107
48292W        W19963   7.463  25.458   1.812
48293W        W19964  34.825  16.251   4.481
48294W        W19965  14.383  17.804   2.448
48295W        W19966  13.317  10.482   2.971
48296W        W19967  25.400  38.825  11.413
48297W        W19968   6.082   5.351  12.462
48298W        W19969  41.909  20.646  11.871
48299W        W19970  26.596  33.134  14.771
48300W        W19971  41.056  42.264   1.734
48301W        W19972   8.756  20.080  10.234
48302W        W19973   2.810  31.110   4.314
48303W        W19974  31.881  12.284   4.785
48304W        W19975  23.571   3.248   9.994
48305W        W19976  41.665   1.456   4.567
48306W        W19977   9.776  41.953   1.269
48307W        W19978  19.372   0.267   4.226
48308W        W19979   6.125  39.806  14.007
48309W        W19980   9.342   9.409   2.914
48310W        W19981  12.788  27.651   1.166
48311W        W19982  13.306  14.701   2.284
48312W        W19983  38.472  25.566  13.588
48313W        W19984  38.810  11.691   2.833
48314W        W19985   0.677  39.453  13.066
48315W        W19986  29.953  44.289  13.438
48316W        W19987  32.595  42.413   4.580
48317W        W19988   5.936  12.165   0.871
48318W        W19989   1.537  12.345   1.443
48319W        W19990  27.291  13.361   3.717
48320W        W19991   4.838  27.058   1.387
48321W        W19992  29.088  35.333  12.944
48322W        W19993  14.251   2.992  12.358
48323W        W19994  31.546  19.898  14.304
48324W        W19995   4.004  14.164  10.698
48325W        W19996  24.691  30.419   3.645
48326W        W19997  11.117  19.369   1.305
48327W        W19998  17.589   0.098  10.335
48328W        W19999  41.261   9.310   2.685
48329W        W20000  28.937  39.319   4.322
48330W        W20001  38.819  39.440  14.459
48331W        W20002   5.875  43.696   1.121
48332W        W20003   2.186  35.953  12.475
48333W        W20004  14.819   8.916  10.647
48334W        W20005  24.966   9.235  11.932
48335W        W20006  14.144   5.827  13.957
48336W        W20007  28.683   6.859  14.243
48337W        W20008  16.322  42.300  14.927
48338W        W20009  31.870  19.025  14.300
48339W        W20010   1.872  12.034   3.580
48340W        W20011  14.365   4.456   4.194
48341W        W20012  41.349  11.205   3.646
48342W        W20013  35.041  11.923  13.428
48343W        W20014  20.755  29.264  13.103
48344W        W20015  19.068  34.047  14.318
48345W        W20016  14.812   3.295  14.812
48346W        W20017  40.215  11.543  12.060
48347W        W20018  35.191  15.669  11.474
48348W        W20019   6.696   6.347  11.684
48349W        W20020  27.679  16.268  13.375
48350W        W20021  25.142   1.623   1.132
48351W        W20022  39.434  28.883   0.317
48352W        W20023  25.108  42.827  10.817
48353W        W20024  15.714  18.727  14.830
48354W        W20025   9.710  27.430  12.601
48355W        W20026  25.480  30.927  13.429
48356W        W20027  38.822  18.515  14.564
48357W        W20028  11.809  17.645  11.323
48358W        W20029  33.783  14.167  11.852
48359W        W20030  20.567  10.414  13.641
48360W        W20031   9.989  40.235   0.137
48361W        W20032   9.403  22.489  11.027
48362W        W20033   9.326  14.594  12.440
48363W        W20034  14.457  39.490  10.913
48364W        W20035  13.281  10.239  13.963
48365W        W20036  34.955  26.159   3.715
48366W        W20037   4.697   6.280   2.862
48367W        W20038  23.085   8.371  13.023
48368W        W20039  39.769  19.952  14.498
48369W        W20040  15.822  44.995  11.051
48370W        W20041  14.438  30.391  10.772
48371W        W20042  35.895  19.631   3.711
48372W        W20043  15.678  34.270  13.042
48373W        W20044  35.541   5.364  13.460
48374W        W20045  29.239  39.865   4.194
48375W        W20046   7.674  36.668  14.326
48376W        W20047  19.899  32.425  11.860
48377W        W20048  30.080  16.575  13.352
48378W        W20049  29.937  28.722   0.948
48379W        W20050   3.145  34.812  11.436
48380W        W20051   7.828  39.014   5.187
48381W        W20052  20.208   4.915  13.528
48382W        W20053  27.896  42.447   0.895
48383W        W20054  40.613  25.990  14.786
48384W        W20055  16.029  41.088   0.931
48385W        W20056  35.810  34.034   1.995
48386W        W20057  11.698  44.631   1.677
48387W        W20058  11.538  34.077   0.556
48388W        W20059  43.283   8.905   1.548
48389W        W20060  39.997  30.143  13.399
48390W        W20061   4.232  21.733   0.770
48391W        W20062  41.105  34.756   3.113
48392W        W20063  23.082  42.557   3.985
48393W        W20064  42.605  30.361   4.672
48394W        W20065  33.639  39.892  14.430
48395W        W20066  40.258  30.356  12.709
48396W        W20067  22.581  20.330  11.671
48397W        W20068  34.852  35.090  10.665
48398W        W20069  13.729  17.711   0.079
48399W        W20070  34.007  12.775   0.001
48400W        W20071  31.858  13.724  14.527
48401W        W20072  42.065  26.770   0.950
48402W        W20073  25.439  26.977  12.613
48403W        W20074  17.711  33.099   3.435
48404W        W20075  34.509  43.430   4.579
48405W        W20076  23.611  32.502  12.531
48406W        W20077  34.074  40.026  13.483
48407W        W20078  16.482  39.343  13.645
48408W        W20079  43.409  25.536   1.589
48409W        W20080  31.970  28.567   4.151
48410W        W20081  15.143   2.889  14.941
48411W        W20082  13.380  16.639  12.449
48412W        W20083   0.881  34.630  10.757
48413W        W20084  24.250   5.784   2.364
48414W        W20085  33.916  20.609   2.275
48415W        W20086  18.061  38.393  11.890
48416W        W20087  18.306  30.145   3.290
48417W        W20088  41.928  37.165   5.076
48418W        W20089  11.644   9.810  12.551
48419W        W20090  22.295  22.599   0.288
48420W        W20091  25.516  22.710   4.050
48421W        W20092   8.952  25.435   0.422
48422W        W20093  42.263  16.150   3.337
48423W        W20094  23.797  35.448  10.724
48424W        W20095  24.194  32.587  12.369
48425W        W20096  31.316  43.980  13.083
48426W        W20097   3.684  32.166   4.217
48427W        W20098  16.825   2.682   0.838
48428W        W20099   3.498  11.779  14.390
48429W        W20100   8.829  43.071  11.185
48430W        W20101  34.693  15.241  11.618
48431W        W20102  19.584  43.909   3.298
48432W        W20103   4.683  18.854  11.024
48433W        W20104  41.299  32.603   0.915
48434W        W20105  31.386  23.131  10.749
48435W        W20106  33.929  23.877   2.897
48436W        W20107  27.151   6.356  12.896
48437W        W20108  31.912  38.384  14.812
48438W        W20109  27.207  12.041  12.447
48439W        W20110  13.785   4.039  10.629
48440W        W20111   8.443  13.758  12.742
48441W        W20112  41.844  19.378  10.510
48442W        W20113  39.922  26.214  13.924
48443W        W20114  30.938   8.841  11.267
48444W        W20115  14.568  34.787   3.751
48445W        W20116  15.280   5.160  12.317
48446W        W20117   3.962  13.444  13.976
48447W        W20118  36.153  41.075   1.881
48448W        W20119  35.161  22.617  12.433
48449W        W20120  12.762  28.866   2.684
48450W        W20121   1.578  15.293   1.184
48451W        W20122   4.302  30.667   2.385
48452W        W20123  29.775  25.032   1.879
48453W        W20124   5.950   6.361  12.048
48454W        W20125  19.742  34.046   1.154
48455W        W20126   3.483  31.860   5.383
48456W        W20127  44.246  17.863  12.899
48457W        W20128  32.029   0.581   4.660
48458W        W20129  44.964  11.784   1.742
48459W        W20130  36.941  41.498   1.714
48460W        W20131  15.132   6.095  12.599
48461W        W20132  39.551  30.102  11.513
48462W        W20133  25.871  14.623   2.409
48463W        W20134   6.893  35.636  13.895
48464W        W20135  27.424   0.251   0.409
48465W        W20136  18.340  43.764   0.402
48466W        W20137  10.217  27.125   0.246
48467W        W20138  19.618  10.667  14.742
48468W        W20139  20.275  26.933  13.919
48469W        W20140  33.427  37.404   0.912
48470W        W20141  25.991  16.865  13.417
48471W        W20142  22.607  30.177   3.217
48472W        W20143  18.363  17.364  12.962
48473W        W20144  37.218  42.402  10.645
48474W        W20145  12.111  19.323   3.199
48475W        W20146  40.504  38.429   4.583
48476W        W20147   6.936  15.173   4.205
48477W        W20148  22.653  25.456  12.972
48478W        W20149  25.782  36.139   2.701
48479W        W20150  35.541  28.316  14.499
48480W        W20151   0.799  23.024   3.474
48481W        W20152   3.931  31.644   4.280
48482W        W20153   0.225  26.131   3.931
48483W        W20154  31.613  18.252   2.870
48484W        W20155  29.645  11.103  11.614
48485W        W20156   9.164  21.555  14.878
48486W        W20157  25.973   0.633  11.992
48487W        W20158  32.169   0.541  13.462
48488W        W20159  15.108   7.988   3.638
48489W        W20160  34.046  11.628  13.303
48490W        W20161  34.109  15.085   1.799
48491W        W20162  18.271  40.925   4.572
48492W        W20163  40.553   8.627   4.424
48493W        W20164  27.433  32.880  12.220
48494W        W20165  35.645  42.895  12.402
48495W        W20166  25.684  12.833  12.266
48496W        W20167  40.315   9.279   0.070
48497W        W20168  22.143  25.146  13.764
48498W        W20169  12.304   1.967  10.844
48499W        W20170  13.871  41.050   0.858
48500W        W20171  21.234   3.777  10.696
48501W        W20172  26.003   1.701   4.596
48502W        W20173  16.959   4.256  12.284
48503W        W20174   5.414  16.877  14.637
48504W        W20175  13.561  28.360   3.629
48505W        W20176  19.652  26.982   5.061
48506W        W20177  27.946   4.005   4.095
48507W        W20178   3.088  26.168   0.394
48508W        W20179  11.998  15.354  11.633
48509W        W20180   5.252  40.967  14.728
48510W        W20181  21.567   6.159   1.444
48511W        W20182  29.018  40.694   1.002
48512W        W20183   7.245  13.194  14.078
48513W        W20184  38.811  21.005  11.655
48514W        W20185   3.911  16.905  10.983
48515W        W20186  20.667   6.778   2.596
48516W        W20187  39.787  44.908  11.718
48517W        W20188   5.319   3.193  12.182
48518W        W20189  13.193  26.503  12.473
48519W        W20190   2.443  22.260  14.422
48520W        W20191  17.667  44.940  14.634
48521W        W20192   1.279   3.614   4.683
48522W        W20193  26.162  10.090  12.022
48523W        W20194  41.628  10.099   1.628
48524W        W20195  31.778   9.257   1.854
48525W        W20196   1.443  42.316  13.465
48526W        W20197  20.109   7.200   4.162
48527W        W20198  35.505  32.689  11.458
48528W        W20199   1.835  11.126  14.885
48529W        W20200  22.002   2.206   2.164
48530W        W20201  18.070   9.199   2.375
48531W        W20202  40.021   6.720   2.086
48532W        W20203  10.904   3.714  11.996
48533W        W20204  20.848   0.905   3.237
48534W        W20205  38.850  41.416  13.873
48535W        W20206  29.181   2.899  10.604
48536W        W20207   3.106  18.915   1.730
48537W        W20208   2.906  20.709  14.096
48538W        W20209  36.437  18.265  13.915
48539W        W20210   3.486   3.289   2.713
48540W        W20211  37.125  20.291  14.534
48541W        W20212  19.830  17.641  14.072
48542W        W20213   4.717  34.840   4.098
48543W        W20214  25.169   1.215   1.480
48544W        W20215  12.323  25.414  13.851
48545W        W20216  19.341  16.111   4.647
48546W        W20217  40.886   8.798  13.371
48547W        W20218  31.958  22.776   4.585
48548W        W20219  20.014  42.563  12.573
48549W        W20220  18.286  11.698   5.053
48550W        W20221   1.354  42.566  12.094
48551W        W20222  26.536   9.269  10.291
48552W        W20223  43.561  14.297   0.361
48553W        W20224  41.381  40.524   3.534
48554W        W20225  44.613  38.083  11.578
48555W        W20226  43.624  18.249  14.451
48556W        W20227  21.186  35.841   2.914
48557W        W20228  18.109   4.243  11.972
48558W        W20229   2.859  37.313  10.467
48559W        W20230  24.903  34.460  12.930
48560W        W20231  12.360  18.930   2.624
48561W        W20232  10.276  11.335  13.067
48562W        W20233  14.778  44.374  10.921
48563W        W20234  30.305  15.529   2.774
48564W        W20235  35.986  28.959  14.838
48565W        W20236  26.393  18.766  13.352
48566W        W20237  39.195  36.017   4.771
48567W        W20238  29.944  38.969   3.254
48568W        W20239   7.666  42.796  11.648
48569W        W20240  32.670  42.391  11.573
48570W        W20241  42.158  29.088   0.868
48571W        W20242  40.232  29.883  12.994
48572W        W20243  38.941  16.936  12.016
48573W        W20244  25.720  19.578  14.509
48574W        W20245  38.439  12.792   0.047
48575W        W20246  30.629   3.065   3.838
48576W        W20247   1.473  22.758   5.427
48577W        W20248  20.809  34.524  11.277
48578W        W20249  11.719  40.532  11.530
48579W        W20250  30.614  31.152   0.254
48580W        W20251  42.288   5.778   2.675
48581W        W20252  30.642  16.871  14.902
48582W        W20253  38.987  24.217  14.074
48583W        W20254  25.128   7.799   1.738
48584W        W20255  24.794   4.215  10.692
48585W        W20256  17.727  35.606   2.882
48586W        W20257  12.054   5.823  10.953
48587W        W20258  26.422  19.723   4.221
48588W        W20259  41.883  24.498   2.649
48589W        W20260   8.298  32.429   3.647
48590W        W20261  36.302   8.347   1.357
48591W        W20262   7.126  13.563  11.000
48592W        W20263  43.326  14.746  10.041
48593W        W20264  43.337  27.558   3.647
48594W        W20265  29.091  38.053  13.479
48595W        W20266  32.749  34.968   4.545
48596W        W20267  36.536  33.850   1.494
48597W        W20268  27.038  11.280  13.050
48598W        W20269  26.738  35.963  11.961
48599W        W20270   8.732  42.560  14.500
48600W        W20271   2.415  38.984  11.106
48601W        W20272  15.587  17.428   4.750
48602W        W20273  27.004  12.347  10.470
48603W        W20274  37.504  11.880  14.790
48604W        W20275   3.276   0.287  11.720
48605W        W20276   1.065  27.560   1.698
48606W        W20277  12.902  24.138   5.210
48607W        W20278  29.331  17.020  11.706
48608W        W20279  40.436  19.225  13.810
48609W        W20280  19.983   7.241  14.241
48610W        W20281   5.316   3.925  13.031
48611W        W20282  24.694   7.972  13.462
48612W        W20283  43.618   3.040   0.463
48613W        W20284  27.962  35.032  12.322
48614W        W20285  34.081  15.484   3.269
48615W        W20286  10.099  21.170   1.018
48616W        W20287  18.157  41.781  14.846
48617W        W20288  25.671   3.412   2.017
48618W        W20289  19.713  20.054   0.192
48619W        W20290  17.334  18.220   3.645
48620W        W20291  44.838  41.546  10.900
48621W        W20292  40.881   9.201  10.677
48622W        W20293  43.583   4.892  13.084
48623W        W20294  16.793  27.739  10.864
48624W        W20295   6.812  43.779  11.912
48625W        W20296   4.032   3.734   3.329
48626W        W20297   4.475  18.435  14.511
48627W        W20298  10.427  10.507   1.369
48628W        W20299   5.345  34.101   3.747
48629W        W20300  22.975   9.358  10.617
48630W        W20301  19.514  33.237  14.295
48631W        W20302  15.273  40.029  12.448
48632W        W20303  14.792  38.669   2.649
48633W        W20304   5.492   4.132   4.120
48634W        W20305  10.972  23.275  11.472
48635W        W20306   2.701  17.230  14.471
48636W        W20307   3.469  16.278   2.859
48637W        W20308   1.991  40.243  14.497
48638W        W20309   3.223  26.612   2.936
48639W        W20310  27.583  25.665  13.741
48640W        W20311  23.869   3.765  12.766
48641W        W20312  29.064  32.154   2.721
48642W        W20313  20.088  43.970  13.970
48643W        W20314  27.495  10.749  11.530
48644W        W20315   9.620   4.428   2.366
48645W        W20316  42.832  32.955  12.734
48646W        W20317  40.297  10.321   1.274
48647W        W20318  31.588  35.036   2.430
48648W        W20319  15.802  39.932  11.102
48649W        W20320  33.966  33.099  13.562
48650W        W20321   7.097  33.385   4.329
48651W        W20322   6.144  18.356  11.025
48652W        W20323  42.467  40.962  14.570
48653W        W20324  31.045  27.447   1.023
48654W        W20325  36.988  20.093  14.052
48655W        W20326  17.713  21.971   2.477
48656W        W20327  42.332  39.614   2.749
48657W        W20328  29.100   6.389   1.960
48658W        W20329  17.034  30.943   1.011
48659W        W20330  29.332   9.653   0.776
48660W        W20331  42.400  39.073   4.183
48661W        W20332  11.836  39.508   1.880
48662W        W20333   4.281  24.170   2.309
48663W        W20334   3.362  36.556  11.183
48664W        W20335  20.020  20.980   0.315
48665W        W20336  38.391  43.849   4.868
48666W        W20337  34.684   3.399  12.992
48667W        W20338   5.281  20.366   2.619
48668W        W20339   1.059  40.054  11.587
48669W        W20340  38.901  41.214  11.998
48670W        W20341  18.045   5.974   5.037
48671W        W20342  20.227  33.404  10.822
48672W        W20343   9.562  16.699   0.440
48673W        W20344   4.405  22.620   4.461
48674W        W20345   8.075  35.493   1.313
48675W        W20346  36.894  12.384   4.456
48676W        W20347  39.435  24.670   0.838
48677W        W20348   8.372  11.390   0.549
48678W        W20349  42.814  30.714  11.661
48679W        W20350  28.670   4.269  10.702
48680W        W20351  27.459  19.077   0.520
48681W        W20352   1.710   5.901   3.085
48682W        W20353  30.527   1.879   4.591
48683W        W20354  28.179  29.070  10.664
48684W        W20355   5.163   4.829   1.842
48685W        W20356  17.593  34.446   4.368
48686W        W20357  26.529  22.690  14.447
48687W        W20358  17.106  23.080   4.845
48688W        W20359  40.325  25.963  12.207
48689W        W20360  26.561  20.780   4.684
48690W        W20361   6.847   0.338   2.656
48691W        W20362  13.386  40.757  11.073
48692W        W20363  15.305   5.295  11.415
48693W        W20364  31.283  20.634   1.322
48694W        W20365   5.656   4.661   0.813
48695W        W20366  13.970  17.210   3.289
48696W        W20367  17.587  34.469   3.322
48697W        W20368  16.771  14.689   3.607
48698W        W20369   4.978  32.438   0.386
48699W        W20370  34.395  42.955  14.371
48700W        W20371  14.249  39.438  13.983
48701W        W20372  34.115  29.483   1.843
48702W        W20373   1.940   4.455  13.385
48703W        W20374  31.946  21.709  13.985
48704W        W20375  11.829  21.699  14.987
48705W        W20376  15.492  23.196   4.625
48706W        W20377  32.929   8.981   0.004
48707W        W20378  44.247  37.898   4.548
48708W        W20379  41.760  34.199  13.841
48709W        W20380  26.127  34.922  13.894
48710W        W20381  21.711  23.634   4.041
48711W        W20382  42.325  23.131   3.114
48712W        W20383  19.054  41.410  11.576
48713W        W20384  19.948  36.077  14.851
48714W        W20385  10.144  20.295   0.931
48715W        W20386  38.652  33.627   2.622
48716W        W20387   2.556  26.389  11.546
48717W        W20388  43.670  43.494  14.292
48718W        W20389   0.658  20.395   5.346
48719W        W20390  33.795  44.937  12.621
48720W        W20391  36.470  38.469  12.083
48721W        W20392  33.990  18.781  12.993
48722W        W20393  32.992  17.437   1.948
48723W        W20394  34.724  33.352  11.076
48724W        W20395  37.005   8.153   3.723
48725W        W20396   4.471   4.815  12.867
48726W        W20397  35.369   4.702   3.205
48727W        W20398  16.427  21.798   1.799
48728W        W20399  23.182  12.070   3.554
48729W        W20400  44.290  41.949   3.320
48730W        W20401  22.565   9.284  11.577
48731W        W20402  43.282  14.891   3.523
48732W        W20403  15.727   7.942  11.711
48733W        W20404  17.515  24.181  14.994
48734W        W20405  22.490  17.857  11.024
48735W        W20406  33.506   1.784   0.348
48736W        W20407   5.254  40.945   4.069
48737W        W20408  39.544  41.712  13.476
48738W        W20409   3.931  19.265  14.458
48739W        W20410  40.094  36.003  14.811
48740W        W20411  35.469   0.697  10.792
48741W        W20412  26.217   6.682  11.470
48742W        W20413  22.627   1.377   1.584
48743W        W20414  14.261  35.522  13.822
48744W        W20415   9.776  18.793  13.043
48745W        W20416  44.473  18.318  12.933
48746W        W20417   0.436  32.127   0.899
48747W        W20418   0.856  40.424   2.064
48748W        W20419  22.225   0.678   0.159
48749W        W20420   0.834  19.576   0.864
48750W        W20421   2.421  13.815  11.688
48751W        W20422  30.371  18.526  11.576
48752W        W20423   2.874   0.738   4.726
48753W        W20424   0.416  14.269  11.026
48754W        W20425   2.276  15.293   2.930
48755W        W20426  41.804   9.751  13.755
48756W        W20427   6.862  21.100  13.145
48757W        W20428  38.591   5.810   0.756
48758W        W20429  22.247   2.204   0.434
48759W        W20430  29.548   2.490   4.483
48760W        W20431  33.835  42.899  11.081
48761W        W20432  10.979   2.523  12.084
48762W        W20433  38.097  17.590  12.569
48763W        W20434   1.767  41.264  12.068
48764W        W20435  25.693   0.719  14.802
48765W        W20436   4.291  23.917  11.234
48766W        W20437   3.192  33.713   1.653
48767W        W20438  25.663  43.563   1.907
48768W        W20439   0.198  41.342   2.296
48769W        W20440   8.212  20.993  12.024
48770W        W20441  16.301  33.113   2.947
48771W        W20442  28.841  32.599  13.532
48772W        W20443  40.057  40.919   4.591
48773W        W20444   7.590   7.715   4.230
48774W        W20445  39.849  39.008  13.955
48775W        W20446  14.944  28.435  14.734
48776W        W20447  42.473   8.628   2.769
48777W        W20448   8.068   6.386  13.949
48778W        W20449  19.997  28.446   1.728
48779W        W20450  26.943  41.375   4.031
48780W        W20451  44.319   8.865   2.702
48781W        W20452  41.891  20.771  11.363
48782W        W20453  44.407  31.586   5.069
48783W        W20454  21.555   2.898  10.470
48784W        W20455  23.793   6.260  14.553
48785W        W20456  38.149  33.247  10.159
48786W        W20457  42.880  30.859   3.390
48787W        W20458  29.377  13.848   3.165
48788W        W20459  19.176  26.254   1.817
48789W        W20460  38.273  35.744   4.602
48790W        W20461  11.646   7.436   1.100
48791W        W20462   1.358  26.140  11.423
48792W        W20463  31.398   1.969  11.557
48793W        W20464  22.764  23.822   4.642
48794W        W20465  12.533  19.732  10.746
48795W        W20466  38.326  35.778  14.957
48796W        W20467  18.673  15.534   2.294
48797W        W20468   3.904  24.461  14.146
48798W        W20469   2.350  22.913   2.588
48799W        W20470  28.634  37.851  13.829
48800W        W20471   8.175  33.836   1.448
48801W        W20472   6.256   3.726   1.918
48802W        W20473  12.184  22.464   0.311
48803W        W20474  11.096  34.609   3.842
48804W        W20475  29.041   8.265   0.876
48805W        W20476  16.244  35.933  12.631
48806W        W20477  15.528  13.088  12.247
48807W        W20478  17.459  42.095  10.986
48808W        W20479  23.578  28.162   4.767
48809W        W20480   6.266   9.017  11.564
48810W        W20481  18.534  39.335   1.635
48811W        W20482   5.447  35.481  13.137
48812W        W20483   6.178  10.371  10.425
48813W        W20484   7.718  32.523   3.670
48814W        W20485   7.365  19.008  12.068
48815W        W20486  33.964   0.342  14.415
48816W        W20487  44.118  41.222   1.296
48817W        W20488  29.061  35.884   2.316
48818W        W20489  12.350  23.620  13.494
48819W        W20490  41.984  34.431  12.517
48820W        W20491  21.409   0.569  10.231
48821W        W20492  24.253  13.107  14.400
48822W        W20493  24.250  40.001  13.863
48823W        W20494   0.833  29.496   0.224
48824W        W20495  28.070  39.906  11.971
48825W        W20496  26.183  29.042   1.374
48826W        W20497  17.405  19.261   2.714
48827W        W20498   6.305  27.707  14.910
48828W        W20499   5.640  23.632  13.549
48829W        W20500  27.731  37.915  14.985
48830W        W20501  20.270  26.984  11.865
48831W        W20502  35.446   6.741  14.316
48832W        W20503  31.824  16.253   3.801
48833W        W20504  41.950  12.779   4.110
48834W        W20505  29.557  44.367  14.038
48835W        W20506  19.636  39.956   1.104
48836W        W20507  33.077  35.859   2.254
48837W        W20508  41.519  28.076   2.247
48838W        W20509  30.899   4.070  13.509
48839W        W20510   9.810  32.059   3.908
48840W        W20511   4.761  23.914  10.997
48841W        W20512  21.233  10.292   4.188
48842W        W20513  14.405   9.907  12.056
48843W        W20514  25.562  10.123  14.347
48844W        W20515  39.264  44.853  14.836
48845W        W20516  36.325   3.432   1.519
48846W        W20517  23.037  35.512  11.288
48847W        W20518  38.315   2.911  13.413
48848W        W20519  35.992  20.761  14.738
48849W        W20520  39.471   9.703   1.656
48850W        W20521  11.599   6.986   1.384
48851W        W20522  24.418  39.619   5.435
48852W        W20523  42.748   8.869  12.004
48853W        W20524   9.886  44.980   2.725
48854W        W20525   5.171  13.068  13.912
48855W        W20526  34.937  34.115  12.572
48856W        W20527  33.139  15.254   2.207
48857W        W20528  17.806  19.709   0.979
48858W        W20529  27.912  15.485   1.330
48859W        W20530  24.260  36.844  13.735
48860W        W20531  23.515  43.870   0.755
48861W        W20532  12.467  28.518  10.784
48862W        W20533  31.036  27.163  12.489
48863W        W20534  21.709  41.023  12.421
48864W        W20535  12.652   2.976  12.933
48865W        W20536  26.646  22.220   4.152
48866W        W20537  38.480  39.069  11.110
48867W        W20538  16.778  43.024   1.294
48868W        W20539   2.356  39.555  10.732
48869W        W20540  29.029  18.721   0.877
48870W        W20541  20.245  35.758   2.813
48871W        W20542  38.080  17.518   2.242
48872W        W20543  24.892  17.428   2.784
48873W        W20544   5.685   2.075   4.079
48874W        W20545  10.587  42.897   2.663
48875W        W20546  18.684  32.858  13.126
48876W        W20547  39.489  25.158  10.664
48877W        W20548  31.267  28.214   4.661
48878W        W20549  42.714  19.543  10.979
48879W        W20550  29.710   5.231   2.383
48880W        W20551   6.122  20.383  11.538
48881W        W20552  39.201  42.533   1.735
48882W        W20553  12.888  18.023  14.760
48883W        W20554  43.172  16.366   1.739
48884W        W20555  37.909  23.100   4.439
48885W        W20556  35.931  28.470   1.219
48886W        W20557  43.826  34.169  12.554
48887W        W20558  30.167  28.446   3.117
48888W        W20559  38.456  25.834   2.130
48889W        W20560  43.275  20.813  12.722
48890W        W20561  21.561  28.787   4.216
48891W        W20562  11.369   4.926   9.954
48892W        W20563  35.122   0.183   0.234
48893W        W20564  27.906  41.764   3.706
48894W        W20565  16.213  24.552  10.584
48895W        W20566  27.586   6.482  10.216
48896W        W20567  25.810  23.979  11.554
48897W        W20568  21.719  22.560  12.776
48898W        W20569  39.634  20.309   0.398
48899W        W20570   0.005  11.737   4.550
48900W        W20571  23.127   3.519   2.924
48901W        W20572  38.558  23.579  12.611
48902W        W20573  23.596  28.615  14.770
48903W        W20574  20.456  29.465  12.186
48904W        W20575  33.047  29.237  14.023
48905W        W20576  19.430  15.877  11.119
48906W        W20577  29.867   1.809   2.321
48907W        W20578   8.732  19.712   4.062
48908W        W20579   3.292  26.669  14.516
48909W        W20580  37.086  37.071   2.671
48910W        W20581   7.250  43.088  11.576
48911W        W20582  27.360  41.567  13.486
48912W        W20583   1.968  26.844  10.921
48913W        W20584  27.134  18.241  14.705
48914W        W20585   6.919  10.190   4.231
48915W        W20586  19.649  14.178  12.817
48916W        W20587  14.655  20.962   1.721
48917W        W20588  24.981  16.804   0.824
48918W        W20589  37.149  35.404   0.392
48919W        W20590  15.786   8.676  12.825
48920W        W20591  22.134  40.959   5.201
48921W        W20592   0.290   1.994  12.848
48922W        W20593   0.270  15.538  13.364
48923W        W20594  43.956   8.317  13.798
48924W        W20595   4.631  33.342   3.594
48925W        W20596  38.950  38.455   4.578
48926W        W20597  21.888  16.627   2.731
48927W        W20598  23.108  32.624  14.408
48928W        W20599  23.606  23.292  14.514
48929W        W20600  17.844   5.983   1.289
48930W        W20601  14.756  26.716   4.428
48931W        W20602  26.569  43.875   3.312
48932W        W20603   8.714  13.806   0.461
48933W        W20604   6.849  25.517  10.728
48934W        W20605  22.762   8.371  12.041
48935W        W20606  14.166  38.891  12.868
48936W        W20607   0.745  28.971  10.535
48937W        W20608   3.951  20.078   2.919
48938W        W20609  20.671  36.589  12.353
48939W        W20610  29.156  25.956  12.521
48940W        W20611  34.005  38.551   9.784
48941W        W20612   1.501  21.700  10.567
48942W        W20613   0.309  19.282  10.744
48943W        W20614  31.950  41.759   1.949
48944W        W20615  23.497  32.229  12.079
48945W        W20616  44.923  41.919  11.240
48946W        W20617  18.628  20.764   0.379
48947W        W20618  22.197  20.564   1.400
48948W        W20619  32.212  10.822   3.362
48949W        W20620  24.920  15.940  12.484
48950W        W20621  28.544   2.646   3.118
48951W        W20622  31.173  16.345  11.004
48952W        W20623   1.386  39.548  14.485
48953W        W20624   4.030  27.068   0.442
48954W        W20625   6.284  15.593  14.015
48955W        W20626  27.080  15.024   4.894
48956W        W20627  30.343   9.679   0.603
48957W        W20628  37.096  12.155  12.025
48958W        W20629  12.018  29.056   3.233
48959W        W20630  27.619  11.817   4.404
48960W        W20631  14.081  24.971   0.809
48961W        W20632  17.594  11.602  12.905
48962W        W20633  37.643  14.760  11.552
48963W        W20634   1.266  11.935  12.019
48964W        W20635  33.254  40.086   9.873
48965W        W20636  15.361  34.163  11.901
48966W        W20637  28.672   9.110  11.191
48967W        W20638   7.023  19.040  11.200
48968W        W20639  24.278  19.136   4.854
48969W        W20640  39.972  34.500   0.287
48970W        W20641  32.820  32.220  12.470
48971W        W20642  17.653  23.343  10.066
48972W        W20643  40.996  20.148  11.192
48973W        W20644  15.205  39.330  13.134
48974W        W20645  32.311  36.566   0.291
48975W        W20646  17.765  14.279  11.332
48976W        W20647  24.947  31.330  12.673
48977W        W20648  36.291   3.301  13.887
48978W        W20649  15.506  19.534  12.022
48979W        W20650  16.423  12.664  14.990
48980W        W20651  27.810  43.589  14.122
48981W        W20652  19.268  41.327   4.669
48982W        W20653  17.152   9.278  11.228
48983W        W20654  19.007  34.518   2.690
48984W        W20655  12.298  30.225  14.967
48985W        W20656  20.466  43.211  11.467
48986W        W20657  28.687  15.254  13.875
48987W        W20658  12.662  13.578  11.348
48988W        W20659  12.672  26.546  12.598
48989W        W20660  22.769  21.589  14.028
48990W        W20661  41.499  41.459   1.238
48991W        W20662  11.894   9.912  13.990
48992W        W20663  14.835  11.819   4.607
48993W        W20664  17.966  13.725   0.180
48994W        W20665   1.777  22.725  14.012
48995W        W20666  23.722  37.573  13.780
48996W        W20667  40.857  40.939  12.351
48997W        W20668  27.789  17.006   2.691
48998W        W20669  39.064  40.242   1.513
48999W        W20670  21.235  43.453   2.247
49000W        W20671  10.640  19.985  11.364
49001W        W20672  37.323  29.268  13.541
49002W        W20673  19.293  26.987  12.985
49003W        W20674   5.912   2.309  13.448
49004W        W20675  16.787  17.820   0.633
49005W        W20676  31.615   7.740  11.454
49006W        W20677  19.154  14.622  12.964
49007W        W20678  15.107  25.669  10.990
49008W        W20679  42.950  31.709  12.576
49009W        W20680  15.189  41.515  10.409
49010W        W20681  41.778  31.083   2.506
49011W        W20682  35.209  22.140  14.987
49012W        W20683  21.463  18.208   4.314
49013W        W20684   6.762   3.531  14.317
49014W        W20685  39.340   1.965   3.316
49015W        W20686  15.621  33.478   0.520
49016W        W20687  33.353  44.969   4.690
49017W        W20688  39.515  20.670   1.221
49018W        W20689  30.833  11.856  11.324
49019W        W20690   4.751   7.646  12.130
49020W        W20691  20.049  43.365   2.867
49021W        W20692  33.483  11.306   0.373
49022W        W20693  13.021  41.784   4.266
49023W        W20694   3.879  36.741  14.751
49024W        W20695  14.615  40.064   1.899
49025W        W20696  18.827  42.504  10.537
49026W        W20697   6.563  17.005  11.691
49027W        W20698  13.546  32.426  11.202
49028W        W20699  43.724  38.687   5.537
49029W        W20700  18.116  14.930   2.777
49030W        W20701  19.786  31.195  12.547
49031W        W20702  29.509  28.782  10.944
49032W        W20703  22.563  44.566   2.214
49033W        W20704   3.421  21.244  11.577
49034W        W20705  43.012  13.767   2.762
49035W        W20706  34.048  16.125  13.677
49036W        W20707   9.382   3.929   2.397
49037W        W20708  14.969   7.742  12.354
49038W        W20709  15.721  44.776  12.982
49039W        W20710  29.693   4.302   4.114
49040W        W20711   2.921   1.802  13.686
49041W        W20712   5.660   1.877  13.256
49042W        W20713  18.475  30.619   3.351
49043W        W20714   6.559   3.890  12.590
49044W        W20715  10.248   8.615   1.868
49045W        W20716   0.244  28.724  12.942
49046W        W20717  28.469  37.499  13.030
49047W        W20718   7.151  44.976   4.604
49048W        W20719  25.235  24.465  14.438
49049W        W20720  26.713   8.959  11.510
49050W        W20721  18.571  37.044  13.954
49051W        W20722  44.377  15.369  10.382
49052W        W20723  14.104   5.512  13.522
49053W        W20724   5.389  10.686  14.478
49054W        W20725  41.479  35.556   4.777
49055W        W20726   3.646  25.617   3.843
49056W        W20727   6.712   8.948   3.827
49057W        W20728  33.762  31.571   4.971
49058W        W20729   8.209   7.974  13.988
49059W        W20730  15.181   1.787   3.989
49060W        W20731   6.420  21.978   3.725
49061W        W20732   2.226  27.653  11.093
49062W        W20733   4.762  25.484   2.355
49063W        W20734   2.960  35.532   0.204
49064W        W20735  36.501  30.553   3.178
49065W        W20736  22.184  25.670   5.451
49066W        W20737   9.793  18.104  11.587
49067W        W20738   7.963  42.815   4.610
49068W        W20739  16.468  20.380  14.026
49069W        W20740  33.400   7.228  14.763
49070W        W20741   0.384   7.602  11.166
49071W        W20742   5.863  13.060   1.300
49072W        W20743   3.250   8.180   1.702
49073W        W20744  21.576  19.029   0.024
49074W        W20745  13.733   4.963   3.605
49075W        W20746  43.125   8.842  11.164
49076W        W20747  39.811   2.613   1.786
49077W        W20748  43.296   0.191   1.163
49078W        W20749  16.296  33.337  14.972
49079W        W20750   2.755  26.608   0.408
49080W        W20751  40.341  38.878  14.072
49081W        W20752  29.618  37.121   4.418
49082W        W20753  14.782   6.118  10.884
49083W        W20754  25.845   9.697  11.944
49084W        W20755  25.725  26.421   0.821
49085W        W20756   0.354   3.918  11.435
49086W        W20757  41.966  39.251   3.972
49087W        W20758  32.915   7.937  14.947
49088W        W20759  10.358  43.547   0.319
49089W        W20760  12.124  25.620   0.229
49090W        W20761  38.599  33.782   0.855
49091W        W20762  43.837   7.908   4.082
49092W        W20763  34.524  21.781   4.735
49093W        W20764  25.507  10.976   1.319
49094W        W20765  26.050  43.341   0.425
49095W        W20766  37.282  27.480  10.660
49096W        W20767  26.901  19.757   0.746
49097W        W20768  41.343  42.535   3.749
49098W        W20769  22.646   9.633   3.088
49099W        W20770   6.732  15.762  10.267
49100W        W20771  21.539  21.799   0.781
49101W        W20772  21.336  42.746  14.608
49102W        W20773  14.826   9.844   0.863
49103W        W20774  41.543   9.735   3.718
49104W        W20775  27.131  28.378   4.857
49105W        W20776  17.650   4.234   3.685
49106W        W20777   9.666  36.443   1.673
49107W        W20778  17.293  22.226  10.753
49108W        W20779   6.626  20.587   4.256
49109W        W20780   6.655  29.972   2.539
49110W        W20781   1.020  35.477   1.846
49111W        W20782   1.849  26.624  14.930
49112W        W20783  16.154  22.244   1.345
49113W        W20784  44.225  17.198  14.743
49114W        W20785  10.351  29.491  10.743
49115W        W20786  24.644   7.454  14.341
49116W        W20787   2.834  21.616  10.657
49117W        W20788   8.007  16.386   0.213
49118W        W20789   7.312  19.658   0.022
49119W        W20790  33.420  33.372  14.777
49120W        W20791  22.720  40.886   3.817
49121W        W20792  41.140   5.703  13.012
49122W        W20793  31.833  42.881   2.731
49123W        W20794  20.092  42.271   2.428
49124W        W20795  29.088  44.268  12.503
49125W        W20796  34.026  27.178  11.080
49126W        W20797  40.292  37.667   0.518
49127W        W20798   7.724  42.777   1.720
49128W        W20799   7.873   3.299  11.434
49129W        W20800  32.901  20.503   1.237
49130W        W20801  14.143   8.683  12.761
49131W        W20802   8.977  34.444   1.201
49132W        W20803   2.731  36.664   5.052
49133W        W20804  18.139  40.687  11.315
49134W        W20805   1.023  43.010  12.982
49135W        W20806  30.965   8.762  12.395
49136W        W20807  36.388  28.155   1.962
49137W        W20808  32.782  30.942  10.655
49138W        W20809   8.300  37.812  14.053
49139W        W20810  13.947  35.683  12.940
49140W        W20811   0.392  17.819   0.143
49141W        W20812  36.822  17.518   4.192
49142W        W20813  39.954   2.028   2.318
49143W        W20814   9.632  24.789   1.456
49144W        W20815  12.907  44.170   3.227
49145W        W20816  22.619  23.019  10.540
49146W        W20817  19.067  42.563  12.503
49147W        W20818   2.622   2.554  12.278
49148W        W20819   7.652  25.703  11.577
49149W        W20820  23.801   8.936  13.077
49150W        W20821  27.924  23.963   1.780
49151W        W20822  41.505  14.113  13.477
49152W        W20823  13.736  12.836   3.259
49153W        W20824  11.721  24.044   4.422
49154W        W20825  32.204  34.363   4.408
49155W        W20826  24.473   5.415  11.468
49156W        W20827   4.349  38.938  13.010
49157W        W20828   7.033   3.902   1.397
49158W        W20829   4.434  31.630   2.789
49159W        W20830  13.653  13.280  13.365
49160W        W20831  41.956  20.487  14.729
49161W        W20832  44.847  37.041   0.075
49162W        W20833  24.996  21.244  10.736
49163W        W20834   6.926   2.865   3.359
49164W        W20835  17.369  23.070  14.319
49165W        W20836  20.644   5.153   0.343
49166W        W20837  35.615  37.089   4.547
49167W        W20838   5.408  41.764  12.624
49168W        W20839  30.776  22.461  10.339
49169W        W20840  12.787  15.260   4.778
49170W        W20841  10.147  25.640   4.137
49171W        W20842  35.620  33.257   3.919
49172W        W20843  44.992   8.827  10.672
49173W        W20844   2.878  39.470  12.565
49174W        W20845  35.807  24.803  12.769
49175W        W20846  18.790   7.151   5.276
49176W        W20847  21.705  28.447   0.429
49177W        W20848  30.010   7.381   0.553
49178W        W20849   9.588   3.880   0.431
49179W        W20850  32.676  34.856  11.559
49180W        W20851  38.023  12.148  14.400
49181W        W20852  19.574  16.546  14.325
49182W        W20853  44.405  13.636   3.194
49183W        W20854  15.724   0.278  13.803
49184W        W20855  40.233  14.381   0.731
49185W        W20856  39.646   3.227  13.231
49186W        W20857  26.295   1.268   4.510
49187W        W20858   5.966  23.839   2.189
49188W        W20859  29.011  19.765   0.009
49189W        W20860  18.822  41.904  14.084
49190W        W20861  25.518  24.453  11.527
49191W        W20862  16.915  37.211   1.358
49192W        W20863  33.351   2.682  14.363
49193W        W20864  17.627  31.349  12.876
49194W        W20865   1.049  43.339  11.318
49195W        W20866   8.622   4.738  11.933
49196W        W20867  26.440  25.302   0.373
49197W        W20868   0.503  30.469   3.633
49198W        W20869  23.744   2.396   2.392
49199W        W20870  17.321  29.404   4.126
49200W        W20871  27.437  21.611  12.862
49201W        W20872  43.824  11.704  12.472
49202W        W20873   2.295  35.853  13.463
49203W        W20874  27.206  27.831  14.307
49204W        W20875   0.905   6.875  11.250
49205W        W20876   5.248   4.274   4.551
49206W        W20877  24.453  32.385  13.848
49207W        W20878  23.157  38.460  13.783
49208W        W20879  23.563  16.317   3.210
49209W        W20880  27.521  44.744  13.060
49210W        W20881   4.413  29.440  11.946
49211W        W20882   4.193  19.875   4.586
49212W        W20883  10.604  23.205   0.186
49213W        W20884  22.197  37.314   0.330
49214W        W20885   2.199  23.060  14.722
49215W        W20886   3.690  15.256  12.031
49216W        W20887  35.920  29.616  14.395
49217W        W20888  25.502  21.799   1.759
49218W        W20889  39.382  33.457   3.808
49219W        W20890   7.842  39.944   4.151
49220W        W20891  39.859  12.269  10.820
49221W        W20892  43.954  15.835   2.731
49222W        W20893  43.562  37.472   0.944
49223W        W20894  30.951   3.792  11.386
49224W        W20895  30.744  28.447  11.116
49225W        W20896  19.761  20.108   2.189
49226W        W20897   7.816  23.689   4.317
49227W        W20898  17.877  25.869   2.823
49228W        W20899  32.593  29.053   2.992
49229W        W20900   2.952  27.430   1.866
49230W        W20901  42.391  12.489  11.117
49231W        W20902  37.836   7.030   2.784
49232W        W20903   0.845  41.053  11.586
49233W        W20904  24.308   1.182  13.489
49234W        W20905   7.157  44.478  10.362
49235W        W20906  17.579  36.289   4.501
49236W        W20907  19.726  39.772  12.976
49237W        W20908   9.324  31.928   4.093
49238W        W20909  44.784  31.103   0.905
49239W        W20910  14.337  22.539   3.595
49240W        W20911  25.756  11.725  13.966
49241W        W20912  31.895  21.517   0.192
49242W        W20913  13.296  40.231  11.111
49243W        W20914   2.104  19.197  12.977
49244W        W20915   7.285  35.584  13.505
49245W        W20916  36.593  23.670  11.261
49246W        W20917  15.221   8.809   2.755
49247W        W20918  30.076  23.795  14.371
49248W        W20919  15.337  43.577  11.688
49249W        W20920  41.951   4.221  14.541
49250W        W20921  14.146  42.397  14.059
49251W        W20922  28.508  13.235  11.471
49252W        W20923  30.931  38.594  14.895
49253W        W20924   6.140  17.621  14.748
49254W        W20925  37.280  19.701   1.209
49255W        W20926  19.033   8.708   0.379
49256W        W20927  22.274  43.460   0.557
49257W        W20928  32.606   5.584  13.906
49258W        W20929   8.188  22.851   1.977
49259W        W20930  30.065  23.119   1.026
49260W        W20931   0.329  42.351  12.783
49261W        W20932   7.821   7.528   1.193
49262W        W20933  29.211  27.906   2.277
49263W        W20934  31.468  37.473  12.212
49264W        W20935  24.322  37.882   1.482
49265W        W20936  16.752  40.245   2.283
49266W        W20937  27.173  19.749  10.647
49267W        W20938   3.875  28.691  13.662
49268W        W20939  41.971  21.164   3.884
49269W        W20940  42.031  10.830  14.356
49270W        W20941  35.507  26.370   1.866
49271W        W20942  14.583  20.034   3.228
49272W        W20943  42.063   1.221   1.166
49273W        W20944  44.190  18.146   1.932
49274W        W20945  12.065   1.825   3.212
49275W        W20946  20.657  35.410  11.283
49276W        W20947  25.505  32.114   0.493
49277W        W20948  37.907  44.348  12.993
49278W        W20949   9.305   3.434   1.893
49279W        W20950  19.300  14.806  10.088
49280W        W20951  10.513   4.599   1.380
49281W        W20952  44.787  44.254  11.596
49282W        W20953   1.553  42.254   1.705
49283W        W20954  40.935  44.525   2.453
49284W        W20955   3.611  40.313  14.837
49285W        W20956   0.515   4.624  12.868
49286W        W20957  19.740  29.169   0.477
49287W        W20958   0.720   2.220   2.267
49288W        W20959  37.100   0.403   4.097
49289W        W20960  16.159   4.653   5.092
49290W        W20961  20.288  12.157   3.247
49291W        W20962  30.390  42.458  11.600
49292W        W20963  38.822  34.762   3.122
49293W        W20964  22.518  13.248  12.985
49294W        W20965   6.203   9.181   3.804
49295W        W20966  38.125  32.247   3.684
49296W        W20967  34.852  29.922   0.788
49297W        W20968  13.291  18.220   1.061
49298W        W20969  36.643   6.889   1.270
49299W        W20970   5.275  22.706  11.163
49300W        W20971  42.545  13.690  14.210
49301W        W20972  31.418  34.475   3.680
49302W        W20973  16.511   9.231  14.259
49303W        W20974  36.608  34.317  10.809
49304W        W20975  40.998  23.148   0.353
49305W        W20976  41.910  27.701   3.498
49306W        W20977  12.775  26.465   4.114
49307W        W20978  33.452  40.321   1.485
49308W        W20979  24.431  23.228   3.723
49309W        W20980   8.712  12.782   0.424
49310W        W20981  28.251   2.862   4.681
49311W        W20982   7.872   4.354   4.650
49312W        W20983  26.971   3.699  12.061
49313W        W20984  39.507  39.311   2.695
49314W        W20985   4.648  33.894  14.844
49315W        W20986  23.197   9.849  10.650
49316W        W20987  33.281  44.505  12.467
49317W        W20988  20.922  37.919   4.174
49318W        W20989   7.249  44.489   4.722
49319W        W20990  23.035  15.544   1.389
49320W        W20991  44.875  37.010   3.816
49321W        W20992  26.917  32.398  10.782
49322W        W20993  42.487  16.452  12.911
49323W        W20994   7.669  26.453   4.530
49324W        W20995   0.706  11.260   4.544
49325W        W20996  20.483  35.990   0.025
49326W        W20997  12.168   7.778  14.919
49327W        W20998  31.649  31.125   3.205
49328W        W20999  40.394  30.560   1.490
49329W        W21000  10.867  18.479   2.786
49330W        W21001  41.571   2.678   1.238
49331W        W21002  16.721  43.813   4.561
49332W        W21003  24.500  27.861  13.327
49333W        W21004   8.271  35.402   2.209
49334W        W21005  30.882   7.252  11.687
49335W        W21006   7.057  41.260  12.121
49336W        W21007  22.690  10.778  13.526
49337W        W21008  15.088   7.356   5.322
49338W        W21009   9.294  27.640   1.452
49339W        W21010  40.609  35.752  10.462
49340W        W21011  16.383  38.541   1.618
49341W        W21012  44.532  17.739  12.055
49342W        W21013  29.025  39.162  12.521
49343W        W21014  36.372  16.710   2.162
49344W        W21015  18.994   3.426  14.400
49345W        W21016  35.471   2.007   2.079
49346W        W21017  14.233  21.362   4.201
49347W        W21018  29.717   8.385  13.507
49348W        W21019  19.408  21.852   0.867
49349W        W21020  14.317  38.871  14.276
49350W        W21021  32.082  22.823  12.579
49351W        W21022  41.954  37.115  14.020
49352W        W21023   4.998  29.615  14.910
49353W        W21024   1.935  41.999  14.931
49354W        W21025  25.441  11.579  11.653
49355W        W21026  12.410   4.647   3.301
49356W        W21027  21.763   9.269   3.029
49357W        W21028  13.103  21.061   3.355
49358W        W21029  41.381  17.229  11.154
49359W        W21030  21.123  44.046  10.114
49360W        W21031  35.530  27.663   1.297
49361W        W21032  44.316  26.847  10.899
49362W        W21033  38.641  38.763  14.842
49363W        W21034  42.958  42.992  14.302
49364W        W21035  29.048  33.002   1.208
49365W        W21036  17.259  21.042  11.536
49366W        W21037  27.572  20.933  13.595
49367W        W21038  21.893  34.643  12.051
49368W        W21039  14.984  27.674  13.493
49369W        W21040   1.520   8.743   3.034
49370W        W21041  25.972  26.868   0.850
49371W        W21042  16.583   5.887   4.740
49372W        W21043  36.871  24.208   2.802
49373W        W21044  42.617   4.994  11.114
49374W        W21045  29.862  10.378   2.669
49375W        W21046  21.592   0.028  12.520
49376W        W21047   3.561  44.426  11.070
49377W        W21048   8.852  20.251   2.875
49378W        W21049  26.556  28.100  13.916
49379W        W21050  40.028   5.520  14.015
49380W        W21051  36.377   3.627  12.568
49381W        W21052  44.375  24.805  10.001
49382W        W21053  26.998  11.629   0.997
49383W        W21054  43.995  19.250   3.768
49384W        W21055  22.697  35.027   3.027
49385W        W21056  27.006   2.327  11.086
49386W        W21057  43.204  39.049   0.333
49387W        W21058  37.783   4.233   2.284
49388W        W21059  26.898  42.716   4.198
49389W        W21060  23.264   3.920  10.475
49390W        W21061   5.469  34.067   4.891
49391W        W21062  44.016  41.500  13.442
49392W        W21063  18.740   6.705   1.382
49393W        W21064  39.987  17.017  11.125
49394W        W21065  26.862  17.659  14.456
49395W        W21066  25.628  29.135  12.877
49396W        W21067  36.356  19.842   0.226
49397W        W21068   4.008  27.021   4.052
49398W        W21069  40.912  13.118   0.851
49399W        W21070  24.452  38.269   0.331
49400W        W21071   7.501  28.596   3.587
49401W        W21072  39.835  24.702  14.965
49402W        W21073  21.321   9.308   1.737
49403W        W21074   3.602  27.600  12.999
49404W        W21075  23.962  18.739   3.078
49405W        W21076  34.393  27.738  13.753
49406W        W21077  24.685  29.414   1.303
49407W        W21078   2.671  34.602  13.050
49408W        W21079   1.209  39.870  12.057
49409W        W21080  18.247  40.019   3.282
49410W        W21081  29.312  22.066  12.853
49411W        W21082  26.600  29.859  14.247
49412W        W21083  26.324  40.583   4.485
49413W        W21084  33.089   1.624   2.022
49414W        W21085  20.059  25.958   3.366
49415W        W21086  43.913  11.822  13.383
49416W        W21087  38.962  22.942  14.031
49417W        W21088  33.607  43.744  12.113
49418W        W21089  25.102  22.211   1.950
49419W        W21090  22.511   8.299  12.488
49420W        W21091   1.202  11.369  10.357
49421W        W21092  26.791  11.301   1.623
49422W        W21093  19.477  19.167   4.333
49423W        W21094   6.158  34.587   2.306
49424W        W21095  44.794   1.734  13.521
49425W        W21096  38.885  28.235  14.981
49426W        W21097  12.846  32.182   3.144
49427W        W21098   6.960  37.237   1.218
49428W        W21099  26.730  22.448  11.114
49429W        W21100  28.548  10.732  13.909
49430W        W21101  18.649   0.939  13.723
49431W        W21102  34.291   9.439   0.466
49432W        W21103  23.251  38.457  11.463
49433W        W21104  20.575   8.204   4.820
49434W        W21105  21.172  16.669   4.622
49435W        W21106  32.715  19.833  11.540
49436W        W21107  28.529  21.087   0.951
49437W        W21108  35.434  36.988   2.799
49438W        W21109   4.157  40.083  11.499
49439W        W21110   2.725  23.561  14.341
49440W        W21111  34.578  41.370  12.510
49441W        W21112  21.498  31.091   1.395
49442W        W21113  22.694  32.371   3.554
49443W        W21114   8.933  43.288  13.899
49444W        W21115  20.048  23.783  14.449
49445W        W21116  42.458  18.558  12.349
49446W        W21117  43.733  21.756  11.712
49447W        W21118   4.677  20.115  14.453
49448W        W21119   4.837  42.893  13.410
49449W        W21120  11.252  20.335  12.517
49450W        W21121   0.652   1.850   4.577
49451W        W21122  15.644  19.860  14.943
49452W        W21123  35.375  15.571   3.289
49453W        W21124   6.965  18.244  14.926
49454W        W21125   2.889  15.287   3.625
49455W        W21126   3.509  18.281  11.932
49456W        W21127  43.124  21.499   2.949
49457W        W21128  29.471   4.413   2.684
49458W        W21129  15.356  38.098  12.593
49459W        W21130   1.376   9.793   4.009
49460W        W21131  10.698  31.087   4.532
49461W        W21132   3.930   7.163  12.063
49462W        W21133  23.621   2.223  12.813
49463W        W21134  40.020  38.526   2.591
49464W        W21135  13.114  18.041  11.565
49465W        W21136  43.028  13.172   2.158
49466W        W21137  14.372  32.560  13.322
49467W        W21138   2.343  42.717   4.064
49468W        W21139  12.807   1.151   4.245
49469W        W21140  43.355  17.738   4.454
49470W        W21141  41.522  31.893  11.097
49471W        W21142   3.282  28.474  14.765
49472W        W21143  25.315  26.463  13.921
49473W        W21144  24.413   9.211   0.910
49474W        W21145  44.054  44.903  14.885
49475W        W21146  12.496  15.770   1.633
49476W        W21147  11.600  23.531   4.563
49477W        W21148  39.582  15.089   2.323
49478W        W21149  39.972  20.414  14.348
49479W        W21150  35.683  37.848  14.878
49480W        W21151   1.830  23.179  12.936
49481W        W21152  23.205  34.841  14.435
49482W        W21153   1.809   1.200  11.150
49483W        W21154  32.980  28.728  10.891
49484W        W21155  12.443  42.876   0.528
49485W        W21156   3.639  39.469  13.067
49486W        W21157   0.574  22.647  11.472
49487W        W21158  34.531  22.580   4.046
49488W        W21159   7.955  30.347   3.213
49489W        W21160  19.308  42.007  13.875
49490W        W21161  14.818  19.085   1.740
49491W        W21162  26.472  36.014  12.874
49492W        W21163  11.244  34.049  13.950
49493W        W21164  42.901  14.551   5.472
49494W        W21165   6.112  39.564   1.770
49495W        W21166   6.279  30.602   0.954
49496W        W21167  20.197  43.445   4.287
49497W        W21168  24.031  18.634   4.620
49498W        W21169   4.171   5.248  11.527
49499W        W21170  17.032  11.379  12.533
49500W        W21171  32.069   8.574   3.672
49501W        W21172  18.237   6.187  14.140
49502W        W21173  32.830  39.359  12.929
49503W        W21174  15.268   4.483  12.877
49504W        W21175  34.916   3.774  13.987
49505W        W21176   9.180  19.777   1.196
49506W        W21177  16.549   4.483  12.082
49507W        W21178  22.951   6.709   4.578
49508W        W21179  37.130   6.742   1.194
49509W        W21180  40.573  30.944  14.881
49510W        W21181  14.980  15.668  13.929
49511W        W21182   7.111   8.394  13.072
49512W        W21183  20.075  36.015   0.361
49513W        W21184  16.116   1.178  10.718
49514W        W21185   5.371   3.454  13.937
49515W        W21186  10.769  44.470   1.739
49516W        W21187  10.231  11.887   0.475
49517W        W21188  40.965  35.115   0.780
49518W        W21189  11.203  25.031  12.474
49519W        W21190  29.539   2.805  14.263
49520W        W21191   9.560   3.804  10.644
49521W        W21192   3.006   0.209  12.149
49522W        W21193   6.876  34.821  14.303
49523W        W21194  25.983  24.237   0.237
49524W        W21195  16.342   2.973   2.307
49525W        W21196   3.353  20.754   1.962
49526W        W21197   9.193  30.418  13.454
49527W        W21198  34.683  16.033   3.696
49528W        W21199  11.134  41.515   0.487
49529W        W21200  41.478  33.415  11.939
49530W        W21201  22.673  19.861   1.642
49531W        W21202  25.020  36.416  11.615
49532W        W21203  35.976  19.343  12.791
49533W        W21204  37.075  40.578   0.693
49534W        W21205  31.653  17.183   3.885
49535W        W21206  18.041  37.027  12.650
49536W        W21207  36.883  19.836  14.488
49537W        W21208   2.343  18.551  14.519
49538W        W21209  22.435  14.250  13.179
49539W        W21210  41.341  17.295   4.122
49540W        W21211  27.854  22.488  10.740
49541W        W21212  20.495  29.912  14.847
49542W        W21213  32.366  14.034   2.334
49543W        W21214   5.385  16.358   3.741
49544W        W21215  34.410  13.595   3.566
49545W        W21216  10.404  20.629   4.301
49546W        W21217   7.302   5.782  13.790
49547W        W21218  20.774  25.677   0.724
49548W        W21219  21.410  13.753   0.955
49549W        W21220  20.370  22.055   1.397
49550W        W21221  43.271   0.261  11.996
49551W        W21222  34.539  22.663   2.541
49552W        W21223  17.482  43.322   4.799
49553W        W21224  24.610  12.460  12.417
49554W        W21225  22.738  12.832   0.298
49555W        W21226  27.146  25.131   1.638
49556W        W21227  22.663   0.921   0.260
49557W        W21228   4.721  37.480  10.747
49558W        W21229  27.579  20.624  14.478
49559W        W21230  33.552   6.446   4.357
49560W        W21231   5.295  16.879   3.711
49561W        W21232  42.858  19.198  10.632
49562W        W21233   6.361  11.279   1.699
49563W        W21234  16.719  33.624  10.382
49564W        W21235  16.603  27.457   2.591
49565W        W21236  11.654  33.611  14.370
49566W        W21237  14.811   7.651   1.865
49567W        W21238  18.067  35.173  12.500
49568W        W21239   7.392   2.941  12.074
49569W        W21240  14.043  21.767  10.793
49570W        W21241  14.209  31.922   1.395
49571W        W21242  29.012   2.658   3.670
49572W        W21243  24.163  35.811  11.655
49573W        W21244  41.581  30.595  12.948
49574W        W21245   8.695  32.639  11.990
49575W        W21246   0.266  38.461   4.654
49576W        W21247  34.017   1.328  12.330
49577W        W21248  14.136  36.100   4.681
49578W        W21249   6.182   7.347  13.122
49579W        W21250  33.521  38.593   4.571
49580W        W21251  33.176   6.899   0.772
49581W        W21252  31.860   4.134  11.615
49582W        W21253  10.726  18.950   1.760
49583W        W21254   0.885  42.341  11.971
49584W        W21255   3.771  22.469   5.576
49585W        W21256  27.119  17.698   3.199
49586W        W21257  33.223  19.832  11.586
49587W        W21258  32.787  12.297  12.124
49588W        W21259  35.103  31.472   1.619
49589W        W21260  17.163  16.109   1.841
49590W        W21261   6.670   9.204   1.410
49591W        W21262  14.803  35.617  11.292
49592W        W21263   1.302  40.670  12.969
49593W        W21264   8.128  26.151  12.912
49594W        W21265  42.080  29.083   4.834
49595W        W21266  25.935  40.001   4.154
49596W        W21267   9.524  11.363   3.223
49597W        W21268  42.878   1.421  10.668
49598W        W21269  21.916   0.956  14.829
49599W        W21270  41.511   4.269  14.265
49600W        W21271  37.582  14.608  14.798
49601W        W21272  31.887   7.704   0.849
49602W        W21273  33.654  30.534  13.081
49603W        W21274  21.815  18.257  14.243
49604W        W21275   5.821  19.948  12.692
49605W        W21276  19.172  31.075   3.875
49606W        W21277  21.247  17.138   0.325
49607W        W21278  22.000  26.215  11.052
49608W        W21279   2.762  20.554  14.994
49609W        W21280   2.965  30.189  14.742
49610W        W21281  21.154   0.438  10.683
49611W        W21282  32.213  14.091   1.833
49612W        W21283  20.025  11.351  12.566
49613W        W21284  34.422  31.492   0.314
49614W        W21285  27.682  11.630  13.288
49615W        W21286  11.749  14.859  14.348
49616W        W21287  36.551  44.761   1.981
49617W        W21288  24.224  16.433  14.596
49618W        W21289  20.581   5.825   2.204
49619W        W21290  27.937   2.322  12.106
49620W        W21291  17.220  34.898  12.189
49621W        W21292  11.939  12.700   4.769
49622W        W21293  10.883  15.609   1.043
49623W        W21294  39.297  15.405  12.822
49624W        W21295  23.654   9.187   3.726
49625W        W21296  43.311  41.358  13.062
49626W        W21297  22.482  23.520  11.485
49627W        W21298   6.686  14.538  12.728
49628W        W21299  36.027   2.059  12.056
49629W        W21300  10.262   5.820   3.267
49630W        W21301  30.666  14.117  14.221
49631W        W21302  10.369  17.262   1.806
49632W        W21303   9.703  12.627   3.956
49633W        W21304  28.458  33.615   3.844
49634W        W21305  11.211  18.100   0.333
49635W        W21306  13.179  39.183   1.153
49636W        W21307   4.125  21.654  11.990
49637W        W21308   6.229  10.849   4.453
49638W        W21309  29.015   2.793   0.466
49639W        W21310  28.065  26.562   3.981
49640W        W21311   4.418  18.721   1.795
49641W        W21312   9.923  39.308   4.634
49642W        W21313  33.083  25.204  10.676
49643W        W21314  21.228  32.010   2.883
49644W        W21315  24.036  16.529  11.540
49645W        W21316  25.162  20.508   1.361
49646W        W21317  16.696  39.753  14.460
49647W        W21318  19.961   3.793  10.627
49648W        W21319  37.408  35.887   3.616
49649W        W21320  33.187  40.339   3.820
49650W        W21321  12.592  24.297  10.750
49651W        W21322   1.189   2.467   2.304
49652W        W21323  33.507  13.369  10.387
49653W        W21324  25.604  19.743  10.432
49654W        W21325   8.331  31.487   2.797
49655W        W21326  33.695  41.483   4.981
49656W        W21327  19.674  13.784   4.355
49657W        W21328   9.265  13.157  10.946
49658W        W21329  28.031  40.755  11.423
49659W        W21330  38.794  27.233   0.776
49660W        W21331  13.581  32.537  12.974
49661W        W21332  28.656  24.030  13.165
49662W        W21333  36.004  41.668   1.654
49663W        W21334   7.004  19.146   2.841
49664W        W21335   3.273  26.392  14.056
49665W        W21336   9.883  23.692   3.212
49666W        W21337  19.867  32.238  11.072
49667W        W21338  36.346  19.972   4.916
49668W        W21339   8.444   8.612   3.262
49669W        W21340  28.288  36.229  11.212
49670W        W21341  12.331  39.492   0.483
49671W        W21342  31.369  13.314  13.284
49672W        W21343  38.526  39.999  13.400
49673W        W21344   1.825   7.364   1.195
49674W        W21345  39.986   8.575  10.687
49675W        W21346  17.585  15.354  13.824
49676W        W21347  29.964  42.958  12.067
49677W        W21348  18.340  19.091  11.050
49678W        W21349  17.180   5.457  12.376
49679W        W21350  31.409  22.011  12.997
49680W        W21351   2.189  32.644  13.837
49681W        W21352  20.572  20.680  11.068
49682W        W21353  20.510  40.841   4.528
49683W        W21354   8.885  20.812   4.153
49684W        W21355  14.202  22.257   0.649
49685W        W21356  36.469  18.771  13.888
49686W        W21357   7.137  44.281   1.827
49687W        W21358  24.527  15.770   1.346
49688W        W21359  34.897  37.553  10.131
49689W        W21360   0.068   6.744  11.797
49690W        W21361  39.759  14.297  14.769
49691W        W21362  27.060  38.971  12.897
49692W        W21363  28.037  37.878   0.557
49693W        W21364   2.738   6.889   3.607
49694W        W21365  41.436  22.673  10.335
49695W        W21366  13.784  31.171  11.692
49696W        W21367  13.077  39.519  12.527
49697W        W21368  38.006  38.213   4.797
49698W        W21369  40.270  15.296  12.001
49699W        W21370   8.946  38.924  13.992
49700W        W21371  41.454  15.729  13.823
49701W        W21372   0.040  35.521   1.985
49702W        W21373  10.179   0.967  11.689
49703W        W21374  18.499  32.785  11.503
49704W        W21375  38.478  10.788   4.837
49705W        W21376   9.184  29.430  12.501
49706W        W21377  18.380  29.958   1.379
49707W        W21378  36.658  13.045   1.658
49708W        W21379  12.824  16.185  14.676
49709W        W21380  31.826  15.657  11.445
49710W        W21381  22.484  29.477  14.891
49711W        W21382  36.055  38.408  14.808
49712W        W21383   2.472  34.131   3.902
49713W        W21384  34.615   2.274  11.683
49714W        W21385  39.413  31.875   0.900
49715W        W21386   3.019  16.629   0.699
49716W        W21387  22.095  14.088   1.949
49717W        W21388   6.745  36.554   0.049
49718W        W21389  28.347  29.831  12.566
49719W        W21390  39.022   9.356  13.489
49720W        W21391  41.826   9.416   4.885
49721W        W21392  28.603  41.775  14.769
49722W        W21393  27.923  19.208   4.974
49723W        W21394  10.131  34.978  10.967
49724W        W21395  30.891  22.661   3.323
49725W        W21396  13.192  21.078  13.361
49726W        W21397   5.717  17.226   2.271
49727W        W21398  19.484   8.999   3.248
49728W        W21399   7.624   6.755   4.247
49729W        W21400  30.886  24.639  13.088
49730W        W21401  36.818  23.177  14.471
49731W        W21402  42.302  11.225  11.499
49732W        W21403   7.476  39.004   0.920
49733W        W21404  34.959   6.517   0.321
49734W        W21405  13.378  29.856   4.580
49735W        W21406  42.406   5.635  14.185
49736W        W21407  20.290   2.464   1.457
49737W        W21408  11.485  28.840   2.654
49738W        W21409  19.108   9.286  14.371
49739W        W21410  30.942  18.659  10.720
49740W        W21411  19.079  18.781  11.924
49741W        W21412   4.000   2.319   1.362
49742W        W21413   0.202   7.258   0.759
49743W        W21414   0.385  37.111   4.133
49744W        W21415  10.358  43.813  11.664
49745W        W21416  25.492  41.264  13.951
49746W        W21417   3.729   0.219  13.387
49747W        W21418  12.909  31.260   0.189
49748W        W21419  20.702  44.544  12.418
49749W        W21420   0.510  11.059   1.335
49750W        W21421   6.519   3.355   0.039
49751W        W21422  29.352  43.602  11.038
49752W        W21423  37.499  29.519  12.714
49753W        W21424   2.284  13.346   0.472
49754W        W21425  36.408  26.239   5.098
49755W        W21426  42.056  35.452  10.686
49756W        W21427  33.465  15.818   3.938
49757W        W21428  30.977  34.972  13.912
49758W        W21429  31.041  29.857   2.388
49759W        W21430  28.469  22.106   4.544
49760W        W21431   0.787  40.313   2.557
49761W        W21432   2.339  27.505   4.724
49762W        W21433   3.380   7.325   4.752
49763W        W21434   0.152   3.878  14.363
49764W        W21435  29.463  38.561   0.710
49765W        W21436  30.810  22.672   2.808
49766W        W21437  41.458  10.921   3.203
49767W        W21438  19.711  24.809   1.829
49768W        W21439  44.915  31.060   2.872
49769W        W21440   0.363  18.699  14.493
49770W        W21441  11.319  19.239  11.775
49771W        W21442  37.328   5.218  14.931
49772W        W21443  35.894  39.611  12.756
49773W        W21444  18.560  39.288   4.157
49774W        W21445  15.216   6.464  12.992
49775W        W21446  24.471  40.916  11.648
49776W        W21447   4.331   6.910   1.169
49777W        W21448   9.624  36.478  12.901
49778W        W21449  14.047  16.592  10.994
49779W        W21450  29.954  33.869  14.547
49780W        W21451  10.852  17.804  12.976
49781W        W21452   7.814   2.527   0.841
49782W        W21453  22.171  25.565   4.954
49783W        W21454  31.110  30.227  12.507
49784W        W21455  24.481  16.825  14.854
49785W        W21456  21.178  11.198   0.706
49786W        W21457  38.847  19.295   2.705
49787W        W21458   4.694  23.085   0.851
49788W        W21459  43.117  42.039  10.048
49789W        W21460   5.363  11.346   3.295
49790W        W21461  31.400  25.192  11.147
49791W        W21462  38.329  31.037  11.155
49792W        W21463  30.932  23.694  14.130
49793W        W21464   8.645   0.242   3.885
49794W        W21465  22.069  33.106  13.948
49795W        W21466  40.445  32.270   4.143
49796W        W21467  41.416   6.858  10.647
49797W        W21468   4.630   3.396  11.670
49798W        W21469   5.299  22.602  12.939
49799W        W21470  14.363   3.903   0.903
49800W        W21471  13.259  21.723  11.337
49801W        W21472  42.543   2.450  12.236
49802W        W21473  33.985  27.923  14.049
49803W        W21474  14.996  36.536  13.900
49804W        W21475   6.779  24.814   1.074
49805W        W21476  14.842  40.433   0.373
49806W        W21477   4.489   1.359  12.974
49807W        W21478   1.353  27.750  11.607
49808W        W21479  44.393   7.395   4.922
49809W        W21480  12.881  10.432   2.262
49810W        W21481  27.655  28.001  13.089
49811W        W21482  18.034   8.966  12.967
49812W        W21483  19.064  36.317  11.141
49813W        W21484  13.371  19.215  12.183
49814W        W21485  15.998  29.184  13.420
49815W        W21486  38.064  30.547   1.048
49816W        W21487  19.631  38.554   1.416
49817W        W21488  40.794   3.016   3.265
49818W        W21489  26.872   3.223  13.938
49819W        W21490  28.007  40.969   2.727
49820W        W21491  41.365  32.451   4.740
49821W        W21492  26.991  32.646  12.536
49822W        W21493  16.934  17.987  14.721
49823W        W21494  41.342  32.534   3.642
49824W        W21495  25.630  44.775  14.575
49825W        W21496  26.382  13.386   5.090
49826W        W21497  13.601   0.145   1.241
49827W        W21498  24.969  41.229  14.009
49828W        W21499  23.962  30.904   0.767
49829W        W21500  15.310  42.050   3.779
49830W        W21501  31.867   7.308  11.413
49831W        W21502   9.238  24.479   1.279
49832W        W21503  34.970   4.957  14.899
49833W        W21504  10.138  43.591  13.226
49834W        W21505  18.049   9.228   4.751
49835W        W21506  36.708  31.487  11.915
49836W        W21507  30.955   7.595   1.837
49837W        W21508   5.614  25.501   4.136
49838W        W21509   0.022  40.437  12.904
49839W        W21510  13.941  34.133  11.943
49840W        W21511  25.601  20.682   4.727
49841W        W21512  20.681  29.675  14.416
49842W        W21513  29.309  16.349  14.862
49843W        W21514  11.312   0.739   3.871
49844W        W21515  28.757  28.429   4.639
49845W        W21516  44.062   1.909   1.376
49846W        W21517  16.195  32.869   3.907
49847W        W21518   7.843  23.807  13.308
49848W        W21519  18.744  25.667   4.831
49849W        W21520   7.257   7.054  13.905
49850W        W21521  13.720  21.749   0.875
49851W        W21522   7.085  25.325  11.154
49852W        W21523  26.604  25.765  12.432
49853W        W21524  13.646   8.892  12.623
49854W        W21525  15.606   0.866  14.543
49855W        W21526  40.969  40.470   1.390
49856W        W21527  15.621  41.730  10.578
49857W        W21528  33.747  38.828  12.010
49858W        W21529  32.428  15.171  11.561
49859W        W21530  28.905   3.001   5.160
49860W        W21531  10.028   0.003   1.336
49861W        W21532  41.558  27.225  13.769
49862W        W21533   6.578  15.229  14.278
49863W        W21534  21.749  16.816  12.644
49864W        W21535  22.104   0.237   4.914
49865W        W21536   8.148   6.777  10.799
49866W        W21537  20.600   1.854  14.498
49867W        W21538  18.001  16.754   2.574
49868W        W21539  25.627   3.595  13.767
49869W        W21540  28.837  18.298  13.878
49870W        W21541   2.704  21.177   5.093
49871W        W21542  40.843  44.960  10.714
49872W        W21543  11.401  15.759  14.019
49873W        W21544  33.171   9.710  10.813
49874W        W21545  27.145  43.095   2.903
49875W        W21546   9.263  22.977   0.521
49876W        W21547  27.773  38.422  11.474
49877W        W21548  14.811  22.003   1.974
49878W        W21549  29.127   2.497   1.348
49879W        W21550  13.121  23.268   2.268
49880W        W21551  28.421   3.421  14.075
49881W        W21552  17.984  29.275   2.444
49882W        W21553  40.313  12.802   1.189
49883W        W21554  14.763  15.979   0.325
49884W        W21555  11.669  21.491  14.551
49885W        W21556  42.382   8.147  12.675
49886W        W21557   9.325  28.073   3.604
49887W        W21558   5.369  21.685  12.551
49888W        W21559  39.995  41.247  10.976
49889W        W21560  33.452  12.957   0.768
49890W        W21561  37.404  27.062  11.409
49891W        W21562  24.580  27.694   4.075
49892W        W21563   3.212   6.869   1.676
49893W        W21564  18.821  10.056   5.060
49894W        W21565  30.153  21.593   1.281
49895W        W21566  26.921   1.391  14.255
49896W        W21567  28.640  43.544   2.861
49897W        W21568  11.291   2.752   2.808
49898W        W21569  32.366  11.814   1.741
49899W        W21570  21.907  40.788   3.382
49900W        W21571  39.602  37.057   0.838
49901W        W21572  37.580   9.234   4.891
49902W        W21573  22.032   4.640   1.330
49903W        W21574  39.304  43.304   2.353
49904W        W21575  11.852  11.980  14.995
49905W        W21576  18.280  22.514   0.733
49906W        W21577  15.159  22.390   1.772
49907W        W21578  17.420  13.769   5.046
49908W        W21579  38.932  21.272  13.127
49909W        W21580   2.628  19.261  12.833
49910W        W21581  16.192  23.194   3.870
49911W        W21582  21.114   6.845  10.680
49912W        W21583  28.400   9.934  11.561
49913W        W21584  30.700  17.098  11.636
49914W        W21585  18.114  35.331   4.565
49915W        W21586   3.697  24.540   4.687
49916W        W21587  31.311   2.316   4.209
49917W        W21588  35.835  17.724  13.529
49918W        W21589  41.283  42.028   4.976
49919W        W21590  16.787  34.484  14.137
49920W        W21591   0.852  41.815  10.179
49921W        W21592  16.724  16.769  13.384
49922W        W21593  11.621   0.259  13.841
49923W        W21594  36.061  35.077   1.165
49924W        W21595  13.372  33.001   4.595
49925W        W21596  30.822  24.835   0.754
49926W        W21597  43.415   5.364   1.383
49927W        W21598  17.316  24.379   0.831
49928W        W21599  30.863   9.653  11.589
49929W        W21600  12.201  30.928   0.999
49930W        W21601  17.076  19.955   0.332
49931W        W21602  11.022  31.607  13.275
49932W        W21603  34.459   5.305  11.198
49933W        W21604  17.762  41.359  12.994
49934W        W21605  40.536  34.586   4.536
49935W        W21606  23.103  21.416   4.142
49936W        W21607  44.116  32.126   5.007
49937W        W21608   6.358   3.843  14.963
49938W        W21609  28.483  32.408   2.846
49939W        W21610  11.341  27.623   4.405
49940W        W21611  23.215  24.978  12.258
49941W        W21612  28.559  20.231   2.724
49942W        W21613   2.942   2.700  14.859
49943W        W21614  26.497  13.525   4.217
49944W        W21615  17.064  33.538  11.649
49945W        W21616   8.347  44.709  10.644
49946W        W21617  23.857  13.789   1.005
49947W        W21618   5.494  12.723   1.408
49948W        W21619   0.515  24.124  13.592
49949W        W21620  29.165  37.117  11.070
49950W        W21621  30.531  42.868   1.081
49951W        W21622  22.924  14.014  12.525
49952W        W21623  28.677  28.018  14.783
49953W        W21624   1.095  18.791   1.057
49954W        W21625  33.684  28.379   5.022
49955W        W21626   3.242  19.004   2.680
49956W        W21627  33.049  11.914   1.565
49957W        W21628  23.012  18.627   1.629
49958W        W21629  13.299  31.606   2.434
49959W        W21630  36.682  23.122   3.678
49960W        W21631  15.848  17.822   0.828
49961W        W21632  14.226  23.398  13.330
49962W        W21633  31.707   9.880   3.225
49963W        W21634  39.317   1.003   0.930
49964W        W21635  26.319  30.675  12.341
49965W        W21636  32.380  27.064   3.899
49966W        W21637  19.758  39.389  10.914
49967W        W21638   2.861  30.029  11.418
49968W        W21639  41.144  40.262  10.260
49969W        W21640  13.702  21.108  10.280
49970W        W21641   3.154   8.854   1.176
49971W        W21642  42.819   7.188   0.344
49972W        W21643  11.142  41.478   3.628
49973W        W21644  41.042  26.249   0.466
49974W        W21645  22.514   9.219  13.118
49975W        W21646   8.950   1.747  13.278
49976W        W21647  34.678  39.616   0.775
49977W        W21648  25.703  23.252   0.294
49978W        W21649  29.328  44.109   1.384
49979W        W21650   7.336   0.875   3.718
49980W        W21651  43.476  35.004   3.819
49981W        W21652   7.257  40.916  14.972
49982W        W21653  13.870  26.137  12.584
49983W        W21654  38.356  15.089  11.969
49984W        W21655  21.541   4.890   4.128
49985W        W21656   2.330   6.591   3.952
49986W        W21657  42.494  17.173   3.813
49987W        W21658  16.373  41.427   1.839
49988W        W21659  33.258  11.607  13.405
49989W        W21660   7.294  41.738  14.662
49990W        W21661  25.147  26.508  11.610
49991W        W21662  11.338   0.756   4.375
49992W        W21663  20.150  28.580   3.377
49993W        W21664  12.309  23.282  11.580
49994W        W21665  32.984  31.637   2.846
49995W        W21666  23.422   6.728   2.985
49996W        W21667   7.773  30.561  12.412
49997W        W21668  29.264  38.073   4.168
49998W        W21669  36.447  34.116   4.585
49999W        W21670  40.283  41.747  12.932
50000W        W21671  28.423  10.276  13.011
50001W        W21672  34.545  16.149   0.987
50002W        W21673  32.615  37.394  12.899
50003W        W21674  41.275  10.620   2.788
50004W        W21675   5.193  22.715   3.344
50005W        W21676  26.712  13.476  11.086
50006W        W21677  32.020   9.167   2.884
50007W        W21678  31.472  13.664   2.955
50008W        W21679   8.713  15.291   0.863
50009W        W21680  44.334   5.362  13.592
50010W        W21681  14.459   8.748   0.938
50011W        W21682  30.337  16.264   2.165
50012W        W21683  16.615  22.978   0.751
50013W        W21684  40.053   4.869   2.261
50014W        W21685  21.631   4.389   1.901
50015W        W21686   6.200  30.682  14.807
50016W        W21687  28.674  17.088  12.449
50017W        W21688  21.305  20.355  13.036
50018W        W21689  25.724  42.029   4.439
50019W        W21690   5.266  13.630   2.608
50020W        W21691  14.487   9.276   2.807
50021W        W21692  44.396   9.218  13.492
50022W        W21693  29.015   9.638  10.581
50023W        W21694  41.380  22.234  14.889
50024W        W21695   0.857  28.070   2.740
50025W        W21696  24.598  10.831  10.425
50026W        W21697  22.529  22.189  12.604
50027W        W21698  18.506  36.599   1.090
50028W        W21699  43.902   6.637   0.711
50029W        W21700  41.376  13.543   0.375
50030W        W21701  38.617   8.407   5.044
50031W        W21702  25.734  40.660  13.049
50032W        W21703   6.810  12.318  11.909
50033W        W21704  19.936  10.548  12.982
50034W        W21705  19.463  32.661   0.494
50035W        W21706  34.092  39.800   2.845
50036W        W21707  40.824  19.513  13.632
50037W        W21708  29.384   7.293   3.214
50038W        W21709   5.968  22.310   0.433
50039W        W21710   3.701   9.865  13.537
50040W        W21711  33.631  10.680  13.430
50041W        W21712   6.269  18.320   4.504
50042W        W21713  28.886  15.163   3.974
50043W        W21714  18.064  41.530  12.575
50044W        W21715  43.459  16.309  11.082
50045W        W21716  40.298  40.463   4.555
50046W        W21717   9.398  37.118  10.294
50047W        W21718  10.381  33.843   2.731
50048W        W21719   0.531  12.824  14.408
50049W        W21720   0.396   1.232  13.120
50050W        W21721  27.586  29.152  13.851
50051W        W21722  43.482  18.081   2.753
50052W        W21723  24.281  36.982  13.230
50053W        W21724   4.971  41.726   4.164
50054W        W21725  37.505  36.583  11.995
50055W        W21726   1.425  40.891  13.955
50056W        W21727   6.710  23.725   3.244
50057W        W21728  36.109   6.240   3.980
50058W        W21729  35.623  12.611  14.823
50059W        W21730  20.010  34.877  13.972
50060W        W21731  18.020  19.476  11.147
50061W        W21732  33.632  14.656   1.153
50062W        W21733   2.010  23.451  11.449
50063W        W21734  32.356  32.406  11.042
50064W        W21735  39.425   4.332   0.633
50065W        W21736  44.534  31.629   0.904
50066W        W21737  27.566   3.455   3.773
50067W        W21738  26.133  36.489  13.793
50068W        W21739  38.788  24.734  13.490
50069W        W21740  43.759  44.731   0.308
50070W        W21741  27.536  25.607   4.684
50071W        W21742  30.099  19.768  13.066
50072W        W21743  37.265  12.096   4.646
50073W        W21744  13.164  44.445  10.734
50074W        W21745  12.430  22.928   4.529
50075W        W21746   8.895  27.515  11.258
50076W        W21747  13.808  29.613  11.253
50077W        W21748  34.002  40.082   2.402
50078W        W21749  37.560   8.472   1.910
50079W        W21750  27.806  22.696  14.935
50080W        W21751  38.200  37.863   3.666
50081W        W21752   6.952  42.313   0.862
50082W        W21753  13.103  30.027   3.229
50083W        W21754  28.140   5.223  13.479
50084W        W21755  18.834  15.128  11.612
50085W        W21756  32.837  34.605  13.799
50086W        W21757   8.071  22.270   2.358
50087W        W21758  25.551  11.770   1.792
50088W        W21759  21.210  26.990   2.390
50089W        W21760  11.637  33.152   0.698
50090W        W21761  13.809  22.465   4.380
50091W        W21762  17.516  41.033  10.740
50092W        W21763   9.503  31.739   1.275
50093W        W21764   5.137  31.345   0.917
50094W        W21765   0.345  36.396   0.344
50095W        W21766  38.343  41.905   0.210
50096W        W21767   5.903   7.323  12.097
50097W        W21768  14.566  40.829  14.272
50098W        W21769  16.748  20.830   0.274
50099W        W21770  34.146  16.666   4.938
50100W        W21771  17.205  23.804  10.499
50101W        W21772  10.934  30.801   4.162
50102W        W21773  21.998  29.699  14.021
50103W        W21774  29.186  37.600   2.435
50104W        W21775   7.255  44.929  11.710
50105W        W21776  31.474  23.326  11.734
50106W        W21777   1.888  20.525  11.775
50107W        W21778  20.680   3.711  13.927
50108W        W21779   2.002  32.389  14.246
50109W        W21780  44.961  13.051  10.452
50110W        W21781  41.053  29.968  12.527
50111W        W21782  36.917  20.763  10.966
50112W        W21783  37.707   8.813   0.913
50113W        W21784  14.598  30.922   1.859
50114W        W21785  12.394   2.190   4.895
50115W        W21786  21.958   1.849   4.348
50116W        W21787  43.387  12.648  10.969
50117W        W21788  26.233   8.682   5.658
50118W        W21789  41.794  16.668   0.773
50119W        W21790   4.899  24.476   1.477
50120W        W21791  20.117  23.212  13.655
50121W        W21792  43.180  26.497  11.137
50122W        W21793   5.936  24.265   4.631
50123W        W21794  15.519   1.017   1.930
50124W        W21795  28.132  34.723  11.086
50125W        W21796  43.026  36.103  11.999
50126W        W21797  44.822  24.400   4.108
50127W        W21798  39.624   3.193  11.505
50128W        W21799   8.437   2.483  13.426
50129W        W21800  27.923  18.098  10.458
50130W        W21801  44.533  34.315   2.214
50131W        W21802  40.830  10.122  14.713
50132W        W21803  26.184   1.021   0.621
50133W        W21804  36.453  10.208   1.775
50134W        W21805   8.755  39.349  13.732
50135W        W21806  41.482  14.823   0.698
50136W        W21807   6.653  35.834   3.231
50137W        W21808   9.358   9.169   3.685
50138W        W21809  18.879   0.145  14.943
50139W        W21810  21.621  25.935  13.904
50140W        W21811   0.878  34.639   2.824
50141W        W21812  43.321  17.961  13.996
50142W        W21813  32.003  35.550   1.369
50143W        W21814   1.701  15.773   0.002
50144W        W21815   5.135  37.422  12.541
50145W        W21816  30.061  14.172  10.778
50146W        W21817  35.097  12.577   3.627
50147W        W21818  43.389  30.593  13.463
50148W        W21819  13.215  12.813   1.805
50149W        W21820  38.533  23.027  13.514
50150W        W21821  10.695  21.011  12.471
50151W        W21822  41.936  22.467   1.736
50152W        W21823   3.801  38.402   0.271
50153W        W21824   0.201  20.998   0.298
50154W        W21825  39.825  41.749  11.025
50155W        W21826  13.699  39.249   1.400
50156W        W21827  10.189  29.035   4.587
50157W        W21828  35.145   4.225   4.213
50158W        W21829  42.649  12.397   1.038
50159W        W21830  22.703  34.696  13.536
50160W        W21831  39.052   7.517   4.267
50161W        W21832   7.892  36.854   2.854
50162W        W21833  29.023  21.829   0.823
50163W        W21834  44.511   2.474  12.932
50164W        W21835   3.915   3.012   0.681
50165W        W21836  39.963  44.144  10.967
50166W        W21837   2.925  20.390   5.562
50167W        W21838  16.572  35.561   2.785
50168W        W21839  32.827  22.615  12.940
50169W        W21840  44.048   8.258   0.193
50170W        W21841  38.312  31.602   0.544
50171W        W21842  36.227   4.687   0.333
50172W        W21843  38.514  37.137   0.355
50173W        W21844  28.485  26.580   3.652
50174W        W21845  14.620  34.019   0.853
50175W        W21846  13.415  31.544  13.206
50176W        W21847  21.375  43.705   2.734
50177W        W21848  23.069  37.634  13.289
50178W        W21849  43.982   3.885   0.195
50179W        W21850  32.510  42.730  14.292
50180W        W21851   4.503  34.881  11.555
50181W        W21852  17.701   8.558  12.083
50182W        W21853  34.132  26.678  12.146
50183W        W21854  32.394  39.770  12.778
50184W        W21855  19.529  37.046   0.401
50185W        W21856  14.919   4.149  10.471
50186W        W21857   0.957  35.590   3.662
50187W        W21858  33.032  26.244  14.922
50188W        W21859  17.959  18.927   1.800
50189W        W21860  17.857   2.683  12.038
50190W        W21861  42.720  18.425   4.201
50191W        W21862  27.395  39.945  14.370
50192W        W21863  11.108   1.969   2.213
50193W        W21864  27.569  39.960  13.880
50194W        W21865  16.241  27.629  12.079
50195W        W21866  11.187   7.226  12.470
50196W        W21867   8.903  21.082  13.082
50197W        W21868   9.347   0.788   3.679
50198W        W21869  29.744  39.434   3.192
50199W        W21870  41.360  39.797  11.978
50200W        W21871   4.330  19.014   2.190
50201W        W21872   5.888  41.778  14.591
50202W        W21873   8.283  13.106   3.772
50203W        W21874  28.579  40.936   3.356
50204W        W21875   2.614  33.085  14.483
50205W        W21876  19.464  10.504  12.378
50206W        W21877   6.440  25.267  13.446
50207W        W21878  19.924  31.687  10.850
50208W        W21879  37.278   8.292   4.942
50209W        W21880  30.390   4.860   3.571
50210W        W21881  13.603   3.880  12.728
50211W        W21882   6.874  37.056  12.874
50212W        W21883  18.010  22.658   1.414
50213W        W21884  41.119  19.292  12.087
50214W        W21885  44.074   4.666   2.002
50215W        W21886  13.841   6.998   0.158
50216W        W21887  19.232  23.276   0.803
50217W        W21888  26.138  24.593   2.749
50218W        W21889   9.422  41.821   3.546
50219W        W21890  19.880  36.304   3.743
50220W        W21891  38.848   7.682  14.756
50221W        W21892  42.551  29.608  13.341
50222W        W21893  24.175   1.872  10.693
50223W        W21894  14.454  27.172   3.758
50224W        W21895  35.801  15.598   4.586
50225W        W21896  13.804  26.739   2.822
50226W        W21897   1.002   5.266  11.857
50227W        W21898  38.976  21.491   1.328
50228W        W21899   5.181  31.063   2.343
50229W        W21900  37.872  17.454  11.253
50230W        W21901  21.255  25.055   2.665
50231W        W21902  25.071  24.722  11.537
50232W        W21903  27.569  14.063   0.402
50233W        W21904  35.785  19.967   4.864
50234W        W21905  29.621   8.558  10.971
50235W        W21906  25.695  44.886  12.350
50236W        W21907  30.920  25.234  14.843
50237W        W21908  20.292   1.420   2.838
50238W        W21909  23.563  33.158   1.381
50239W        W21910   0.921  12.667   4.636
50240W        W21911  16.733  13.904   2.501
50241W        W21912   7.517  23.595  13.810
50242W        W21913  15.367  31.396  14.832
50243W        W21914  39.396  13.829  10.676
50244W        W21915  10.900  18.272   3.857
50245W        W21916  25.300  41.112  11.608
50246W        W21917  19.045  22.625   2.696
50247W        W21918  32.837  37.028   0.484
50248W        W21919  43.806  10.801  13.566
50249W        W21920  44.034  30.896   1.309
50250W        W21921   9.248  41.891   1.385
50251W        W21922   3.250  42.290  14.920
50252W        W21923  11.423  44.328  11.141
50253W        W21924  17.517  28.522   3.985
50254W        W21925  19.777  29.160   4.394
50255W        W21926  10.255  41.352   1.756
50256W        W21927   1.177  34.402  10.364
50257W        W21928  22.774  42.922  10.850
50258W        W21929  14.847  32.546   0.909
50259W        W21930  32.380  41.599   3.733
50260W        W21931  44.981   7.279  11.125
50261W        W21932  42.988  14.237  11.602
50262W        W21933  38.586  44.257  14.949
50263W        W21934  35.723  39.475   0.295
50264W        W21935  37.563  34.832  12.401
50265W        W21936  15.545  25.117   1.835
50266W        W21937  10.910  16.175  10.623
50267W        W21938   9.694  33.813   3.358
50268W        W21939   9.635  27.919  12.503
50269W        W21940   0.913  23.630   0.365
50270W        W21941  38.806  33.859  14.453
50271W        W21942   2.746   8.829  10.631
50272W        W21943  33.404   5.853   0.456
50273W        W21944  10.679  16.547  11.569
50274W        W21945  14.425  14.975   1.501
50275W        W21946  36.606  27.543  14.192
50276W        W21947   2.885   0.520   2.368
50277W        W21948   4.950   4.750  12.075
50278W        W21949  26.968  33.655   3.815
50279W        W21950  34.805   7.313   1.410
50280W        W21951   3.536   5.423  13.667
50281W        W21952  25.167   2.884  13.458
50282W        W21953   5.176   2.698  13.451
50283W        W21954  44.888   6.408  11.028
50284W        W21955  31.744  16.119  11.645
50285W        W21956  10.106  25.177  11.693
50286W        W21957  32.996   2.455   4.633
50287W        W21958  44.354  31.910  14.068
50288W        W21959  10.642   1.029  14.943
50289W        W21960  21.205  19.035   5.149
50290W        W21961  31.439   2.932  14.609
50291W        W21962  24.309   0.932   2.637
50292W        W21963  26.720  18.102  14.989
50293W        W21964  41.009  13.285   4.170
50294W        W21965  31.879  10.919  11.260
50295W        W21966  18.205  33.007   2.723
50296W        W21967  12.635  23.621  14.538
50297W        W21968  42.999   7.704  12.612
50298W        W21969   8.205  25.689  11.351
50299W        W21970  34.346  19.373  10.773
50300W        W21971  30.916  32.127   0.803
50301W        W21972  17.754  38.841   1.104
50302W        W21973  37.348  28.468   4.136
50303W        W21974  36.808  12.354  12.972
50304W        W21975  42.919   2.009  13.703
50305W        W21976  44.967  24.883  13.885
50306W        W21977   4.304  11.500   2.386
50307W        W21978   8.229   3.369   0.843
50308W        W21979   2.381   4.687   0.379
50309W        W21980   7.743  22.035   2.686
50310W        W21981  32.257  36.799  14.370
50311W        W21982  36.071  23.852  11.629
50312W        W21983  26.257  27.017  12.120
50313W        W21984  18.812  24.227  10.817
50314W        W21985   3.334  30.672   3.880
50315W        W21986  42.725  20.429   2.655
50316W        W21987  40.306  42.474  12.432
50317W        W21988   5.937  23.676   0.567
50318W        W21989  39.256   6.409   1.479
50319W        W21990  16.683  14.046  14.788
50320W        W21991   0.010   7.398   3.268
50321W        W21992  42.509  38.328   0.031
50322W        W21993  20.649  38.376   2.306
50323W        W21994   9.916  43.942  11.904
50324W        W21995  25.049  33.075  13.154
50325W        W21996  30.578   3.296   2.820
50326W        W21997  22.007  13.205  12.917
50327W        W21998  30.484  16.632   0.332
50328W        W21999  15.386  42.022   1.307
50329W        W22000  29.991  19.629  12.028
50330W        W22001  43.156  43.153   4.147
50331W        W22002  14.543   4.501  10.295
50332W        W22003  15.288  28.025  14.086
50333W        W22004  12.786  18.515  14.047
50334W        W22005  35.809   5.174  11.190
50335W        W22006  27.075  38.240  14.707
50336W        W22007  36.397  14.815   3.574
50337W        W22008  29.594  19.079  13.400
50338W        W22009  23.784  17.367   1.309
50339W        W22010  33.301  12.209  12.053
50340W        W22011  21.077  17.802  10.835
50341W        W22012  36.011  13.883   2.783
50342W        W22013  19.780   4.695  11.062
50343W        W22014  17.016  36.137   2.198
50344W        W22015  23.729  17.839   4.658
50345W        W22016  11.433   2.300  12.153
50346W        W22017   5.965  34.377  13.047
50347W        W22018  23.231   9.637   1.944
50348W        W22019  22.229  31.616  11.160
50349W        W22020  36.323  26.278  10.885
50350W        W22021  18.689  40.357  10.540
50351W        W22022  23.901  17.059  14.056
50352W        W22023  10.472  27.454   4.645
50353W        W22024  13.221  29.152  14.100
50354W        W22025  12.781  27.369  13.850
50355W        W22026  32.147   7.865  13.344
50356W        W22027  22.303  21.097   4.295
50357W        W22028  41.101  13.152  11.553
50358W        W22029  10.807  25.069   2.179
50359W        W22030   5.265  35.345   3.387
50360W        W22031  44.510  26.030  10.245
50361W        W22032   6.806  38.290   1.835
50362W        W22033  18.200   9.689  14.826
50363W        W22034  38.072  21.567  14.361
50364W        W22035  22.749  20.258  12.550
50365W        W22036  38.016  25.820  14.412
50366W        W22037   1.141  21.626  12.817
50367W        W22038  31.029  28.449   4.117
50368W        W22039   4.004   9.180  12.643
50369W        W22040   7.674   3.225  13.439
50370W        W22041  15.622  44.309  14.765
50371W        W22042  24.699  19.696  10.981
50372W        W22043  35.559  27.678  11.115
50373W        W22044   9.839  23.622   0.166
50374W        W22045  15.065   8.503   3.761
50375W        W22046   0.388  22.022   5.226
50376W        W22047  27.734   7.877  13.321
50377W        W22048  37.960  24.107   4.053
50378W        W22049   2.579  27.156  14.009
50379W        W22050  29.456  17.020   0.881
50380W        W22051  30.308   6.754   2.409
50381W        W22052  14.100   2.980  14.874
50382W        W22053   1.506  27.550  10.648
50383W        W22054  20.342   3.186   0.689
50384W        W22055  32.226   5.436  13.039
50385W        W22056  31.134   5.628   2.289
50386W        W22057  33.110  34.030  14.495
50387W        W22058  40.410  34.128  13.080
50388W        W22059  35.734  31.087   4.146
50389W        W22060  39.830  14.116  10.497
50390W        W22061   2.701  30.260  10.511
50391W        W22062  27.980  44.350   0.574
50392W        W22063  13.285  44.897   0.292
50393W        W22064   3.521   4.176   0.407
50394W        W22065   3.763  21.578   2.729
50395W        W22066  31.495  36.329   3.496
50396W        W22067  42.388   3.777  13.941
50397W        W22068  15.963  25.422   1.193
50398W        W22069  30.063  43.736  12.561
50399W        W22070  14.648  41.299   0.940
50400W        W22071  38.025  13.707  14.891
50401W        W22072   8.403  43.339  12.902
50402W        W22073   5.422  13.279  14.579
50403W        W22074  28.200  14.386   3.629
50404W        W22075   2.367  14.771  11.877
50405W        W22076  43.036   8.674   1.155
50406W        W22077  11.136  14.228  12.103
50407W        W22078  37.016  23.105   4.062
50408W        W22079   1.354  33.864  10.988
50409W        W22080  43.004  32.042   1.223
50410W        W22081  18.315  43.723   1.321
50411W        W22082   0.224   9.643  13.951
50412W        W22083  43.979  34.128  14.384
50413W        W22084  39.873  14.941   4.360
50414W        W22085  33.607  34.336   5.001
50415W        W22086  16.724  18.373  14.388
50416W        W22087  28.677   1.414   3.807
50417W        W22088  12.387  11.392   0.154
50418W        W22089  27.449  41.064  14.243
50419W        W22090   9.235  26.668   0.030
50420W        W22091  23.652  34.049   0.307
50421W        W22092   0.985   4.769  11.984
50422W        W22093  23.103  43.898  11.234
50423W        W22094  20.946  40.714   3.672
50424W        W22095  16.631  13.166   4.739
50425W        W22096   3.159   9.150  12.197
50426W        W22097  29.116  21.031   2.190
50427W        W22098  38.230  29.532   4.206
50428W        W22099  39.281  28.397   0.374
50429W        W22100  20.685  31.678   4.087
50430W        W22101  36.973  15.421  14.960
50431W        W22102   4.823  19.093   0.864
50432W        W22103  34.923  32.228  12.113
50433W        W22104  39.046   3.508  12.042
50434W        W22105  40.101  15.776  11.280
50435W        W22106   3.703  19.281  10.625
50436W        W22107   8.738  37.349  12.350
50437W        W22108   5.256   9.494  11.540
50438W        W22109  30.017  16.980   1.926
50439W        W22110  22.035  18.800   1.706
50440W        W22111  20.521  19.528  14.614
50441W        W22112  33.019  17.618   3.798
50442W        W22113  18.012  40.868   3.614
50443W        W22114   2.786  41.218   3.117
50444W        W22115   7.387   8.263   2.717
50445W        W22116  19.047  40.977  12.559
50446W        W22117  30.666  24.757   2.873
50447W        W22118  28.485  26.385  10.115
50448W        W22119   5.828   3.199  13.336
50449W        W22120  42.076  30.022   3.298
50450W        W22121  27.102  39.842  14.817
50451W        W22122   9.685  18.478  13.449
50452W        W22123  23.796  26.538   1.631
50453W        W22124  13.683   9.217   0.018
50454W        W22125  10.327   4.447   3.122
50455W        W22126  29.588  24.124  13.002
50456W        W22127   8.327   6.365  12.197
50457W        W22128  26.825   7.872   0.511
50458W        W22129  18.735  15.699   3.713
50459W        W22130  17.101  30.842  11.958
50460W        W22131  34.934  43.294  12.144
50461W        W22132  33.840  22.134   0.925
50462W        W22133   9.295  33.879  12.014
50463W        W22134  22.721   9.886  14.864
50464W        W22135  19.300  31.169  12.372
50465W        W22136   4.497  27.692   2.936
50466W        W22137  42.995  40.618   4.709
50467W        W22138  31.681  25.976  13.806
50468W        W22139  43.184  19.280  14.823
50469W        W22140  36.835   9.678   0.845
50470W        W22141  21.697  26.229   1.811
50471W        W22142  38.657  44.338  11.711
50472W        W22143   9.515  32.644   2.204
50473W        W22144  21.729  36.921   2.871
50474W        W22145   2.251   3.352  13.503
50475W        W22146  10.850  12.679  14.413
50476W        W22147  18.295  19.029  14.363
50477W        W22148  14.640   7.207   0.530
50478W        W22149  41.757  43.741   1.763
50479W        W22150  22.117  10.235   1.859
50480W        W22151  27.171   3.716  11.164
50481W        W22152  42.920  21.768   2.530
50482W        W22153   9.420  25.695   4.660
50483W        W22154  38.722  44.738  13.013
50484W        W22155  39.645   4.741  13.996
50485W        W22156   0.964  12.370  12.061
50486W        W22157  31.642  22.088  13.454
50487W        W22158  18.688  10.255   1.931
50488W        W22159  36.845  12.630   1.436
50489W        W22160   0.443  26.483   4.206
50490W        W22161  23.644  11.838   3.643
50491W        W22162  21.045  26.758   0.515
50492W        W22163   1.064  35.848   4.107
50493W        W22164   3.299  25.990   5.047
50494W        W22165  40.763  18.288  14.908
50495W        W22166  37.491  28.499   1.466
50496W        W22167  28.246  12.668  10.287
50497W        W22168  12.977   0.282  12.437
50498W        W22169   6.726  11.566   4.109
50499W        W22170  16.339   8.449   3.337
50500W        W22171  22.640  27.692  14.346
50501W        W22172  26.216  39.016   0.342
50502W        W22173   3.105  20.128   3.900
50503W        W22174   3.857  23.647  14.291
50504W        W22175  41.623  19.148  12.078
50505W        W22176   3.024   1.955   1.398
50506W        W22177   0.012   0.692  14.347
50507W        W22178  25.137   2.222   1.408
50508W        W22179  37.326   5.876  12.444
50509W        W22180  18.070  38.741  12.478
50510W        W22181  19.051   7.873  12.493
50511W        W22182   4.180   6.643  11.916
50512W        W22183  28.342  39.732  14.923
50513W        W22184  30.202  11.054   1.742
50514W        W22185  25.209  25.815   3.027
50515W        W22186   0.415  14.727  10.665
50516W        W22187  28.630   0.488  13.366
50517W        W22188  40.032  44.610  11.166
50518W        W22189   9.450  20.079  14.346
50519W        W22190   0.703  39.555  14.792
50520W        W22191  40.716  44.710   1.461
50521W        W22192  36.442  22.071   1.432
50522W        W22193  16.787   2.017  10.468
50523W        W22194   9.884  13.312   4.373
50524W        W22195   1.251  15.797  14.068
50525W        W22196  43.743  13.598  12.142
50526W        W22197  38.901  31.403  11.640
50527W        W22198  32.586  21.136  13.043
50528W        W22199  35.529  36.389  10.751
50529W        W22200  36.473   9.796   4.401
50530W        W22201   8.154  15.660  11.672
50531W        W22202   7.932  15.355   0.355
50532W        W22203  32.615   2.479  11.117
50533W        W22204  13.305  36.037   3.765
50534W        W22205   0.308  26.481   3.203
50535W        W22206   9.741  26.582  14.862
50536W        W22207  10.763  32.917   3.378
50537W        W22208  19.522  20.564  14.902
50538W        W22209  44.047   0.687   0.792
50539W        W22210  25.178  10.894   3.713
50540W        W22211  24.656  43.957  10.694
50541W        W22212  13.626  14.239   3.845
50542W        W22213   2.240  43.458  13.815
50543W        W22214  29.101   6.392   0.567
50544W        W22215  26.659  31.781  11.442
50545W        W22216  26.455   0.208  14.393
50546W        W22217  28.702  26.464  10.585
50547W        W22218   5.309  38.790   4.289
50548W        W22219  38.574  17.682   3.306
50549W        W22220  35.180  23.660   1.281
50550W        W22221  19.372  18.209  14.940
50551W        W22222  19.356  25.505   2.909
50552W        W22223  41.947   6.387   1.949
50553W        W22224  42.323  21.653   0.568
50554W        W22225  37.051  14.235   2.717
50555W        W22226  22.741   7.882  12.689
50556W        W22227   5.139  27.666  11.103
50557W        W22228  26.891  11.945   1.422
50558W        W22229   1.005  37.626   0.223
50559W        W22230  34.174  27.632   4.497
50560W        W22231  43.240  20.887   2.351
50561W        W22232  15.287   0.505   4.784
50562W        W22233  42.544  36.899   1.337
50563W        W22234   6.906   5.821  14.986
50564W        W22235  25.599  13.744  11.823
50565W        W22236  41.768  22.504  13.537
50566W        W22237  43.834  30.533   0.953
50567W        W22238  17.724  40.057   0.435
50568W        W22239   0.853  17.811   1.445
50569W        W22240  17.248  32.127  10.726
50570W        W22241  19.139  28.635  12.551
50571W        W22242  11.177  29.385   4.664
50572W        W22243  37.508  32.282   9.915
50573W        W22244  42.727  16.103   0.610
50574W        W22245  44.493   8.967   3.347
50575W        W22246  29.243   7.761  14.156
50576W        W22247   4.734  41.273   3.328
50577W        W22248  31.817   6.838  12.509
50578W        W22249  26.123  14.817   4.248
50579W        W22250  30.369  30.152  12.789
50580W        W22251  36.890  44.686   2.361
50581W        W22252  31.943   6.882  14.841
50582W        W22253  18.565  31.516  10.809
50583W        W22254  21.354  22.039   2.706
50584W        W22255  22.489  20.453  12.966
50585W        W22256  10.729  17.557  13.409
50586W        W22257  16.805  40.041  14.039
50587W        W22258  19.975  11.125   4.148
50588W        W22259   0.740  16.159   4.755
50589W        W22260  32.104   1.045  13.391
50590W        W22261   5.652  35.244  10.973
50591W        W22262  23.601  16.801  12.936
50592W        W22263  16.332  39.251  14.135
50593W        W22264   9.759  20.256   1.300
50594W        W22265  40.328  21.299  11.071
50595W        W22266  25.725  22.729   0.793
50596W        W22267  42.860  32.615   0.434
50597W        W22268  19.274  37.929  11.525
50598W        W22269  22.576   1.322   0.578
50599W        W22270  43.879  27.440  14.742
50600W        W22271   0.697  28.719  13.165
50601W        W22272  15.211  19.861   0.222
50602W        W22273  28.167  27.963   4.458
50603W        W22274  25.090  16.622  13.440
50604W        W22275  39.315  21.534  11.388
50605W        W22276  19.328   8.185   1.877
50606W        W22277   0.920  10.564  10.868
50607W        W22278  10.275  30.109  10.162
50608W        W22279  36.557   2.970   2.382
50609W        W22280  35.878  38.608  13.774
50610W        W22281   1.271  40.614   2.307
50611W        W22282  41.385  19.679   0.912
50612W        W22283  34.995  27.732  11.950
50613W        W22284  41.634  33.437   5.304
50614W        W22285  22.813  16.058   1.315
50615W        W22286  31.355   1.245  13.548
50616W        W22287  44.656  33.956  14.910
50617W        W22288  28.686  20.748  10.909
50618W        W22289  20.603   4.318   3.759
50619W        W22290   1.431  32.098  12.948
50620W        W22291  23.269  32.354  12.962
50621W        W22292  16.740  42.774   3.648
50622W        W22293  33.421  15.112  11.645
50623W        W22294   4.125  34.440  12.365
50624W        W22295  39.467  30.981   1.255
50625W        W22296  15.405  11.658   5.133
50626W        W22297  31.142  29.640   1.869
50627W        W22298  18.355  22.134  13.970
50628W        W22299  14.017  30.526  11.541
50629W        W22300  20.082  31.187  11.620
50630W        W22301  16.320  27.784   0.413
50631W        W22302  32.548  26.998   2.415
50632W        W22303  22.381  22.007   2.414
50633W        W22304  19.232  26.625  12.152
50634W        W22305  23.817   8.368   3.334
50635W        W22306  40.647  29.141  12.790
50636W        W22307  22.058  34.657  12.929
50637W        W22308  24.687  10.712  12.368
50638W        W22309  31.212  13.016  14.968
50639W        W22310  27.387  25.483   0.351
50640W        W22311  17.687  15.369   4.936
50641W        W22312  33.781  37.943  12.623
50642W        W22313  12.745  31.829  11.123
50643W        W22314  35.336  22.647   0.259
50644W        W22315  43.781   7.658   1.974
50645W        W22316  39.476  16.783   4.100
50646W        W22317  17.227   0.579   2.317
50647W        W22318  40.121  21.687   0.442
50648W        W22319  19.231  11.424   0.942
50649W        W22320  21.828  41.995  11.539
50650W        W22321  24.894  22.834   1.147
50651W        W22322  18.579  38.972   4.572
50652W        W22323  11.470  44.826   0.761
50653W        W22324  38.753  13.738  14.498
50654W        W22325  18.992   0.000   3.387
50655W        W22326  17.181  10.440  14.461
50656W        W22327  12.150  25.625   2.611
50657W        W22328   8.156  28.813  11.268
50658W        W22329  27.494   6.040  11.090
50659W        W22330   2.273  42.947   3.590
50660W        W22331  24.087  39.596   4.992
50661W        W22332  30.982  10.702  12.424
50662W        W22333  41.712   9.164  11.184
50663W        W22334  38.636  43.397   4.848
50664W        W22335  30.988  10.235   1.197
50665W        W22336  10.345  16.269   3.094
50666W        W22337   1.916  17.154   2.340
50667W        W22338  43.745   0.503  10.662
50668W        W22339   1.783  39.825  14.286
50669W        W22340   9.268  28.619   2.737
50670W        W22341  11.299  41.961   1.037
50671W        W22342  30.653  11.869  13.914
50672W        W22343  44.263  13.583   2.653
50673W        W22344   3.652  40.640   1.366
50674W        W22345   6.095  24.566  12.905
50675W        W22346  42.874  20.556   5.162
50676W        W22347  24.946   8.788   4.171
50677W        W22348  12.794  31.548   2.172
50678W        W22349  43.739  28.126  11.473
50679W        W22350  13.005  40.219   1.820
50680W        W22351  23.932  44.551   1.285
50681W        W22352   2.248   4.766   2.868
50682W        W22353  35.029  12.352  10.664
50683W        W22354  17.160  38.876   0.558
50684W        W22355   8.695  24.925  14.766
50685W        W22356  32.640  21.066  10.456
50686W        W22357   1.106  22.561  13.825
50687W        W22358   7.643  40.882   4.405
50688W        W22359  18.649  34.647   2.330
50689W        W22360  38.590  41.060  14.238
50690W        W22361  11.706  42.237   2.718
50691W        W22362  34.103  34.029  14.562
50692W        W22363  36.022   2.846  13.844
50693W        W22364  34.089  20.186   0.500
50694W        W22365   4.915  15.731  12.509
50695W        W22366  44.521  13.262   9.721
50696W        W22367   6.653   4.777   4.625
50697W        W22368  24.597  26.544   5.101
50698W        W22369  40.824  39.569   4.547
50699W        W22370  44.048  17.283   2.721
50700W        W22371  29.547   5.909  12.792
50701W        W22372   4.900  35.546  12.522
50702W        W22373  35.392  12.328  12.936
50703W        W22374  40.315   3.478  14.443
50704W        W22375   6.181  32.898   3.718
50705W        W22376   0.799   6.114  10.818
50706W        W22377  12.559  34.697   2.689
50707W        W22378  19.031  26.527   9.642
50708W        W22379  24.700   4.875  11.960
50709W        W22380   4.622  30.881  13.154
50710W        W22381  41.467  22.777  13.988
50711W        W22382  38.326   7.560  13.993
50712W        W22383  15.998  25.149  11.053
50713W        W22384  22.051  34.386  11.628
50714W        W22385  19.388   6.863  11.929
50715W        W22386  32.897  44.111  14.732
50716W        W22387   3.775  25.949  14.402
50717W        W22388  11.839  35.520   0.074
50718W        W22389  28.645  40.898   1.454
50719W        W22390  22.816  13.286  12.087
50720W        W22391  41.376  15.996  14.445
50721W        W22392   7.349  26.279  12.410
50722W        W22393  17.665  37.373   1.010
50723W        W22394  31.940  24.204  10.688
50724W        W22395  10.359  12.799  12.599
50725W        W22396  17.113   7.228   2.400
50726W        W22397   0.366  26.993  12.624
50727W        W22398  33.054  42.003  12.662
50728W        W22399  13.816  29.588  10.678
50729W        W22400  17.650   3.257   0.546
50730W        W22401  19.982  28.207  11.660
50731W        W22402  25.712  10.247   0.895
50732W        W22403  30.579  19.099   3.860
50733W        W22404  29.735  16.810  14.042
50734W        W22405  33.370  28.018   3.117
50735W        W22406   8.930  29.884   2.229
50736W        W22407   2.420  32.983   4.249
50737W        W22408   0.919   0.736  14.232
50738W        W22409  24.544  24.615   0.189
50739W        W22410  34.248  15.752   3.856
50740W        W22411  13.619  30.148   3.321
50741W        W22412  13.313  44.004  10.994
50742W        W22413  36.380  30.196  14.762
50743W        W22414  10.338  26.069  11.250
50744W        W22415   2.288  41.866   0.438
50745W        W22416  32.488   6.313   0.300
50746W        W22417  38.902  22.792   1.883
50747W        W22418  12.150  14.714   4.865
50748W        W22419  42.232  41.259   3.451
50749W        W22420  12.110  19.993  11.033
50750W        W22421   6.190  27.472   4.596
50751W        W22422  31.472  15.567  12.391
50752W        W22423   2.526  30.470  12.553
50753W        W22424   0.813  31.738  14.305
50754W        W22425  37.489  14.793   4.718
50755W        W22426  40.314  25.615   0.043
50756W        W22427   3.744  41.009  12.582
50757W        W22428   2.826  14.021  14.954
50758W        W22429   0.284  27.998   3.641
50759W        W22430   2.365   7.498  10.067
50760W        W22431  40.590  24.925   4.967
50761W        W22432  26.661   3.699   3.741
50762W        W22433   7.871  40.806  10.563
50763W        W22434  21.411   0.672  11.478
50764W        W22435  17.027  23.569  12.087
50765W        W22436  17.339  24.515   1.742
50766W        W22437   2.645  15.719   1.970
50767W        W22438  43.399   0.286  11.505
50768W        W22439  19.189  19.980  13.387
50769W        W22440  35.085  29.136  11.992
50770W        W22441   4.198  15.835   4.590
50771W        W22442  39.296  43.018  14.359
50772W        W22443   8.615  42.966  13.634
50773W        W22444  38.892  15.691   0.275
50774W        W22445  31.198  29.668  11.597
50775W        W22446  19.611  10.281   4.617
50776W        W22447  34.519  39.811   4.412
50777W        W22448   3.673  24.009  10.680
50778W        W22449  32.896  32.461  10.386
50779W        W22450  36.076  13.544  13.872
50780W        W22451   5.179   2.414   3.732
50781W        W22452  17.612  27.132   3.815
50782W        W22453  20.214  42.594  13.910
50783W        W22454  16.648  12.117   4.942
50784W        W22455   7.232  36.069   2.424
50785W        W22456  31.419  22.042   2.860
50786W        W22457  37.977  10.812  14.498
50787W        W22458  16.367  18.310  13.423
50788W        W22459  36.032  44.483  11.206
50789W        W22460  10.668  43.373  11.714
50790W        W22461  38.045  29.954   3.758
50791W        W22462  25.946  40.956   0.603
50792W        W22463  38.414  34.799  14.917
50793W        W22464  18.560  28.916   3.335
50794W        W22465   3.778   8.967  13.434
50795W        W22466  29.396  30.566  12.094
50796W        W22467  35.142  12.114  11.102
50797W        W22468  13.423  20.471  11.219
50798W        W22469  13.129   4.071  11.508
50799W        W22470   2.857  33.976  13.518
50800W        W22471   1.213   7.777   4.209
50801W        W22472  15.069   9.766  13.491
50802W        W22473   7.944   8.233  11.595
50803W        W22474  29.961   2.566   3.686
50804W        W22475  14.095  42.363   4.734
50805W        W22476   2.446  11.332   3.568
50806W        W22477  30.492  42.390  14.471
50807W        W22478  21.311   2.291   5.139
50808W        W22479  36.080  31.859   0.891
50809W        W22480  36.445  18.604   4.685
50810W        W22481  23.306  39.430  12.484
50811W        W22482  31.031  34.510   2.227
50812W        W22483  10.236  40.482   0.956
50813W        W22484  16.025  20.630   2.734
50814W        W22485  25.470  38.967  14.534
50815W        W22486  16.824   4.298   3.351
50816W        W22487  29.606  28.117  13.106
50817W        W22488  14.648   2.399  11.443
50818W        W22489  39.086  17.659   3.421
50819W        W22490   8.141   7.328   2.099
50820W        W22491  22.199  44.290   2.867
50821W        W22492  10.487  31.134   0.871
50822W        W22493  44.664  11.298   3.815
50823W        W22494  10.214  24.134   2.680
50824W        W22495  24.229  19.707   4.865
50825W        W22496  14.063   9.445   4.675
50826W        W22497  20.845  43.325   3.215
50827W        W22498  29.089  23.005  14.818
50828W        W22499  20.195  31.684  11.744
50829W        W22500  13.108   7.753   0.209
50830W        W22501  25.655   0.210  12.795
50831W        W22502   6.255  28.025   4.580
50832W        W22503  36.825  41.498  14.412
50833W        W22504  17.852  29.134   1.953
50834W        W22505  10.654  31.966  14.315
50835W        W22506  29.699  17.376  11.655
50836W        W22507  13.745  15.913   2.144
50837W        W22508  31.050   6.140   1.820
50838W        W22509  41.978   7.054  11.545
50839W        W22510  40.599  34.031   4.489
50840W        W22511  31.114  39.154   4.239
50841W        W22512   8.285  40.805  12.522
50842W        W22513  20.269  38.510   3.136
50843W        W22514  42.341  43.405   2.084
50844W        W22515  34.955  30.085   3.672
50845W        W22516  41.404  11.181   4.530
50846W        W22517  30.701  28.334   4.847
50847W        W22518  18.811  23.063  13.312
50848W        W22519  14.865  31.500   0.726
50849W        W22520   5.888   8.745  13.100
50850W        W22521  39.728  43.528   3.224
50851W        W22522   0.501  10.137   0.864
50852W        W22523  36.805   1.926   2.358
50853W        W22524   8.931   0.477   4.239
50854W        W22525  41.900  31.556  12.906
50855W        W22526  42.824  29.094   0.553
50856W        W22527   0.724   4.264  14.777
50857W        W22528  43.689   5.960  10.471
50858W        W22529  36.693  31.544  11.411
50859W        W22530  34.455  33.363  13.507
50860W        W22531  17.592  40.007   3.661
50861W        W22532  14.968  20.696   2.700
50862W        W22533  10.867  40.908  10.967
50863W        W22534  14.556   5.271  13.015
50864W        W22535   8.647  28.584   3.317
50865W        W22536  32.175  39.067   4.520
50866W        W22537  37.494  30.999   4.108
50867W        W22538   6.466  26.770  11.708
50868W        W22539  14.908  37.860   3.187
50869W        W22540  39.262  20.724  12.466
50870W        W22541  21.725  17.323  12.553
50871W        W22542  38.500  19.492  12.964
50872W        W22543  15.115  28.703   3.176
50873W        W22544  21.020  23.588   5.098
50874W        W22545  39.792  38.879   2.873
50875W        W22546  15.101  12.886   0.304
50876W        W22547  32.390  38.552   4.563
50877W        W22548   5.453  16.610   3.295
50878W        W22549  34.660  16.666   2.674
50879W        W22550   9.730  17.174   3.412
50880W        W22551  40.342  11.650  11.264
50881W        W22552   6.897   6.334   0.079
50882W        W22553  41.814  39.396   0.130
50883W        W22554  20.442   3.162  12.880
50884W        W22555  11.913   9.597   4.173
50885W        W22556   3.378  13.461  11.564
50886W        W22557  15.874  22.338  11.513
50887W        W22558   7.579  36.275   0.241
50888W        W22559  35.390   8.329   3.974
50889W        W22560  17.805  20.091  12.157
50890W        W22561  36.686  34.906  13.484
50891W        W22562  19.691  34.995   2.202
50892W        W22563  17.813  32.373  11.891
50893W        W22564  31.810  27.771  14.914
50894W        W22565  34.875  44.978  11.492
50895W        W22566  36.363   3.392  14.856
50896W        W22567  32.204  12.358   9.786
50897W        W22568  34.168  29.676  11.156
50898W        W22569  34.407   4.307   4.558
50899W        W22570  43.687  18.214   1.873
50900W        W22571  18.791  16.823   3.717
50901W        W22572  34.372  31.940   2.692
50902W        W22573  20.470  34.129   4.560
50903W        W22574  41.250   4.512   2.156
50904W        W22575   1.840  37.867   3.610
50905W        W22576  27.330  42.467   1.849
50906W        W22577  27.044  14.030  14.870
50907W        W22578   4.392  19.265   1.740
50908W        W22579  37.215   2.706   0.511
50909W        W22580  20.315  28.945  12.085
50910W        W22581   5.388   1.052   2.305
50911W        W22582  13.614  19.146   1.462
50912W        W22583  12.878   7.294   0.326
50913W        W22584  30.905  29.521  14.437
50914W        W22585  37.333  20.721  10.673
50915W        W22586  44.287   2.004  12.835
50916W        W22587   6.357  29.759  14.784
50917W        W22588  39.492  38.068  12.963
50918W        W22589   7.221  15.765  12.951
50919W        W22590   1.994  31.112   2.551
50920W        W22591  21.404   6.434  11.562
50921W        W22592  42.327  11.724   1.181
50922W        W22593  32.388   3.291  14.084
50923W        W22594  36.590  24.222  14.106
50924W        W22595  39.859  24.332  11.691
50925W        W22596  40.719   8.641  13.855
50926W        W22597  20.065  27.131   9.486
50927W        W22598   7.235   7.808   1.027
50928W        W22599  36.374   3.664   1.055
50929W        W22600  40.274  15.080  12.488
50930W        W22601  41.922  42.316   4.186
50931W        W22602  30.930   9.748   1.908
50932W        W22603  21.288  38.063   0.315
50933W        W22604  42.696  11.695  10.305
50934W        W22605  30.363   0.250   3.682
50935W        W22606  16.736   3.739   1.191
50936W        W22607   5.723  18.826   3.291
50937W        W22608  12.782  10.904  12.966
50938W        W22609  39.245  19.942   0.784
50939W        W22610   1.181  27.900   3.700
50940W        W22611  35.381   3.198  14.951
50941W        W22612  42.233  42.347   2.753
50942W        W22613  32.337  10.176  13.445
50943W        W22614  16.833  31.067  12.496
50944W        W22615  42.667  14.178  10.302
50945W        W22616  13.090  41.504  14.833
50946W        W22617  39.924  43.498  12.827
50947W        W22618  29.514   4.459   3.631
50948W        W22619  37.899  17.779  11.638
50949W        W22620  31.033  17.800  12.380
50950W        W22621  34.733   8.912   4.652
50951W        W22622  11.731  27.138  12.961
50952W        W22623   4.365  37.047  13.237
50953W        W22624   8.920  10.196  12.336
50954W        W22625  14.026  25.400  12.015
50955W        W22626   9.867  20.524   1.763
50956W        W22627  40.858  13.596  11.609
50957W        W22628  41.255  37.826  14.763
50958W        W22629  19.838  37.086  11.562
50959W        W22630  35.119   8.583  11.597
50960W        W22631  21.835  33.629   4.585
50961W        W22632  41.047  21.217   2.786
50962W        W22633  41.867  40.743   2.256
50963W        W22634  29.987   4.362   0.951
50964W        W22635  23.642  13.865  12.816
50965W        W22636  13.097  11.513  10.804
50966W        W22637  29.050   1.077  11.202
50967W        W22638   4.728  30.432   4.604
50968W        W22639  30.058  43.380  11.125
50969W        W22640   3.763  36.615  14.246
50970W        W22641  34.562  24.177   2.200
50971W        W22642  17.232  36.602   1.287
50972W        W22643  15.972  38.631  14.726
50973W        W22644  10.345   4.736   2.663
50974W        W22645  44.546  13.625   0.459
50975W        W22646   9.219  19.056  10.944
50976W        W22647  30.501  34.427  10.888
50977W        W22648  26.578  31.954   5.068
50978W        W22649   1.679  40.613   3.086
50979W        W22650  30.388  14.306  14.981
50980W        W22651   3.712  17.259   2.267
50981W        W22652  22.967  36.010   4.539
50982W        W22653  40.854  37.179  13.073
50983W        W22654  31.462  29.242   1.389
50984W        W22655  31.061  24.076   1.241
50985W        W22656  37.349  41.877  14.838
50986W        W22657   1.056  36.323  13.987
50987W        W22658  10.889  41.958   0.251
50988W        W22659  32.489  28.005   4.744
50989W        W22660  25.415  32.451  13.624
50990W        W22661   1.312  38.042   0.378
50991W        W22662   9.256   8.665   3.572
50992W        W22663  13.241   4.371   2.713
50993W        W22664  39.886  12.552  11.717
50994W        W22665  34.045  32.526   2.680
50995W        W22666   3.134  13.797  14.366
50996W        W22667  21.652  23.648  10.642
50997W        W22668   5.496  19.578  13.905
50998W        W22669  25.638  44.362   2.309
50999W        W22670  18.465  14.659   4.163
51000W        W22671  12.357  21.115  12.442
51001W        W22672  34.358  19.393   1.588
51002W        W22673  21.676   3.400  12.755
51003W        W22674  12.964  44.310   2.293
51004W        W22675   9.914  20.111  10.539
51005W        W22676  17.285   8.728  14.764
51006W        W22677   9.729  12.278   3.605
51007W        W22678   9.567  24.575   3.232
51008W        W22679  19.510  21.105   0.232
51009W        W22680  38.504  33.163  10.537
51010W        W22681   4.666  12.733   1.088
51011W        W22682  35.729  16.088  12.655
51012W        W22683  18.840  44.257   0.833
51013W        W22684  25.463  19.703   4.669
51014W        W22685  35.406   5.193   1.697
51015W        W22686   4.297   9.829  14.393
51016W        W22687  41.394  25.905   4.465
51017W        W22688   0.989  17.233   4.136
51018W        W22689   1.025   7.970   1.919
51019W        W22690  34.533  35.662  14.875
51020W        W22691  19.768  33.277  13.477
51021W        W22692   8.265   8.752   0.244
51022W        W22693  27.605  16.600  13.010
51023W        W22694  39.485  18.451   0.726
51024W        W22695   1.460  13.893  13.280
51025W        W22696  27.632   2.369   3.682
51026W        W22697   9.355  17.697   1.673
51027W        W22698   4.224  18.112   4.306
51028W        W22699  30.349  40.260   3.262
51029W        W22700  11.273   6.761   2.627
51030W        W22701   9.332  27.495   1.953
51031W        W22702  15.104   6.616   1.032
51032W        W22703   0.264  21.046   4.270
51033W        W22704  27.731  35.821   1.767
51034W        W22705  15.456  42.038  11.970
51035W        W22706   2.732  15.050  12.128
51036W        W22707  32.452  32.941   4.132
51037W        W22708  10.366  25.131   0.009
51038W        W22709  42.092  23.608  12.854
51039W        W22710  37.124  39.996  11.692
51040W        W22711   1.221  40.403  13.409
51041W        W22712  22.594  38.303   1.379
51042W        W22713  25.167  17.872  12.384
51043W        W22714  39.984   7.728   3.610
51044W        W22715  20.830   7.824   1.492
51045W        W22716  10.113  15.088  14.913
51046W        W22717  17.187  29.333  11.294
51047W        W22718  38.598  32.472   4.002
51048W        W22719  40.300  15.780   2.409
51049W        W22720  36.367  24.131   4.112
51050W        W22721  17.924  41.874  10.832
51051W        W22722  25.761  13.560  13.797
51052W        W22723  35.111  14.653   2.450
51053W        W22724   3.925  30.701  10.305
51054W        W22725  20.044  27.405  12.061
51055W        W22726   6.968   3.918  13.547
51056W        W22727  43.394  38.337   3.252
51057W        W22728  28.638  12.846   4.524
51058W        W22729  20.643   6.484   0.809
51059W        W22730  44.902  28.916   2.392
51060W        W22731  30.678  44.445   0.357
51061W        W22732  23.479   7.664  14.858
51062W        W22733  36.324  38.749  12.970
51063W        W22734  27.542  26.055  11.289
51064W        W22735  12.147  33.908   1.895
51065W        W22736  24.073  40.963  12.191
51066W        W22737   2.752  34.585  11.167
51067W        W22738  38.467   1.817   3.039
51068W        W22739  28.468   8.712   4.594
51069W        W22740  33.361  37.638  11.032
51070W        W22741  33.576  38.522   3.578
51071W        W22742  28.017   5.721   5.254
51072W        W22743   1.208  30.892  12.467
51073W        W22744  10.892  22.784   0.392
51074W        W22745  42.303  29.939  12.123
51075W        W22746   0.013   0.416   1.256
51076W        W22747  41.304   9.805   3.273
51077W        W22748  13.894  31.415  13.070
51078W        W22749  30.428   9.187   1.411
51079W        W22750  37.218   8.319  11.095
51080W        W22751  12.421  14.724  13.911
51081W        W22752  34.982  13.433  13.250
51082W        W22753   0.698  26.987   1.329
51083W        W22754  11.736  35.950  10.684
51084W        W22755  16.849   5.326  11.593
51085W        W22756  34.559  31.895  11.870
51086W        W22757  33.988  41.861  13.533
51087W        W22758  23.688  22.294   1.345
51088W        W22759  14.126   9.274  12.809
51089W        W22760  15.210  23.485   0.178
51090W        W22761  35.888  20.460  11.152
51091W        W22762   3.324   8.796   4.864
51092W        W22763  41.589  12.050  11.160
51093W        W22764  17.545  29.171   0.724
51094W        W22765  19.211  16.362   0.752
51095W        W22766  17.513  14.434  14.289
51096W        W22767  22.649  37.415  10.188
51097W        W22768   3.159  35.211   2.864
51098W        W22769  17.227  23.533  12.554
51099W        W22770  44.885  30.115   2.375
51100W        W22771  42.415  27.171   0.276
51101W        W22772  40.942  14.344   1.479
51102W        W22773  38.820   5.284  14.898
51103W        W22774  15.247   0.209   0.768
51104W        W22775  33.444  15.671   2.008
51105W        W22776  30.485   4.104   1.693
51106W        W22777  15.807  32.797  10.252
51107W        W22778   3.439  19.510   3.092
51108W        W22779  39.847   5.174  11.649
51109W        W22780  39.324  25.353  11.125
51110W        W22781  43.829  11.202  12.551
51111W        W22782  33.646  40.375  10.679
51112W        W22783  26.218   9.891   2.247
51113W        W22784  33.720  35.303   0.967
51114W        W22785  28.349  16.533   4.716
51115W        W22786  38.868  30.046  13.316
51116W        W22787  25.988  37.060  14.879
51117W        W22788  14.187  40.929  10.983
51118W        W22789  12.910  35.420  13.101
51119W        W22790  38.961  22.212  11.173
51120W        W22791  18.566  15.140  13.921
51121W        W22792  14.889   9.714  12.004
51122W        W22793  16.486   6.661  14.070
51123W        W22794  21.689   2.578  11.250
51124W        W22795   2.736  36.363   2.326
51125W        W22796  35.165   5.678   0.905
51126W        W22797  38.241   6.460   1.732
51127W        W22798  15.640  38.329  13.384
51128W        W22799  44.691   4.577   2.150
51129W        W22800  10.680   0.060   2.969
51130W        W22801  25.288   3.209  13.848
51131W        W22802  25.704  34.861  11.139
51132W        W22803   3.148  30.777   0.941
51133W        W22804  12.007  32.021  14.119
51134W        W22805  23.569  36.421   4.596
51135W        W22806  11.861   9.681  11.564
51136W        W22807  13.384   3.348   0.780
51137W        W22808  14.351  37.452  14.953
51138W        W22809   5.294   1.353   4.567
51139W        W22810  27.051   1.307  13.782
51140W        W22811  22.082  20.586   4.297
51141W        W22812  44.514  37.373   4.590
51142W        W22813  31.360  31.047   1.175
51143W        W22814  32.088  16.374  13.947
51144W        W22815  20.163  39.778   2.386
51145W        W22816   4.784  30.822   5.048
51146W        W22817   7.051  42.038  11.120
51147W        W22818  23.167  22.018  11.948
51148W        W22819   8.158   8.437   3.724
51149W        W22820  22.253   9.626  12.145
51150W        W22821  20.218   5.788  13.615
51151W        W22822   6.503   0.356  14.327
51152W        W22823   4.933  32.953   1.262
51153W        W22824  28.186  38.574   4.555
51154W        W22825  40.380  11.285  14.928
51155W        W22826  26.213  26.584   3.828
51156W        W22827  21.258  14.614  13.272
51157W        W22828  22.299  29.528   3.739
51158W        W22829  22.365  21.720   4.717
51159W        W22830  33.924  10.605   4.553
51160W        W22831   1.792  10.333  12.531
51161W        W22832  29.092  28.035   4.543
51162W        W22833  17.871  15.805  13.687
51163W        W22834  41.004  27.649  11.364
51164W        W22835  35.863   1.383   2.620
51165W        W22836  39.337  40.633  12.497
51166W        W22837   6.843  42.832   4.855
51167W        W22838   9.286   4.221  11.908
51168W        W22839  24.729  18.697  11.675
51169W        W22840  40.471  12.218   3.117
51170W        W22841   0.526   1.050   0.760
51171W        W22842  41.730  19.697  14.529
51172W        W22843  26.796  24.382   3.641
51173W        W22844  25.449  41.360   3.777
51174W        W22845   4.427   4.600   2.332
51175W        W22846  42.346  32.025   2.798
51176W        W22847  22.597  30.405   2.722
51177W        W22848  42.984  22.877   1.428
51178W        W22849  25.214   6.435  11.098
51179W        W22850  29.828  30.396  11.547
51180W        W22851  33.245  29.209   4.059
51181W        W22852   1.424  34.299   2.621
51182W        W22853  34.723  23.649   4.810
51183W        W22854  31.358  25.096   1.712
51184W        W22855  30.935   1.362  12.182
51185W        W22856  43.708   8.189  14.753
51186W        W22857  33.127  22.717  13.389
51187W        W22858  21.684   7.025   1.836
51188W        W22859  15.712  11.126  13.334
51189W        W22860  10.604  24.252  11.510
51190W        W22861   6.412  35.611  12.116
51191W        W22862  15.438   5.245  13.305
51192W        W22863  26.690  19.217   3.828
51193W        W22864  42.502  26.140  12.088
51194W        W22865  20.820  13.084   5.257
51195W        W22866  10.873   7.143   3.266
51196W        W22867  20.152  29.582  13.808
51197W        W22868   0.792   2.001   0.876
51198W        W22869  17.726  23.746   2.266
51199W        W22870   4.790  23.049   2.503
51200W        W22871  27.210  21.204  12.059
51201W        W22872  35.396   3.147   3.262
51202W        W22873  35.461  40.466  14.591
51203W        W22874  38.489  20.185   2.417
51204W        W22875  24.290   4.149  14.847
51205W        W22876   9.562  23.247   3.205
51206W        W22877   2.938  32.943  11.498
51207W        W22878  25.565   0.514   2.296
51208W        W22879  29.948  10.336   1.182
51209W        W22880  38.511  44.715  14.040
51210W        W22881  16.472  17.021  12.501
51211W        W22882  18.830  31.030   1.857
51212W        W22883   3.438  33.071  11.478
51213W        W22884   5.692  30.736   2.702
51214W        W22885  14.274   3.805  12.872
51215W        W22886  13.917   5.053  10.715
51216W        W22887  12.232   6.910   3.556
51217W        W22888   0.301  40.902  10.889
51218W        W22889  11.471  19.625  14.533
51219W        W22890  39.826  20.264  14.910
51220W        W22891  10.540  11.367   3.285
51221W        W22892  30.632  19.264   1.714
51222W        W22893  29.623  20.322  11.582
51223W        W22894  36.921  35.669   1.437
51224W        W22895  25.085  39.409   2.118
51225W        W22896  36.580   0.546  11.218
51226W        W22897  25.478  44.810   3.647
51227W        W22898  11.300  22.333  11.515
51228W        W22899   5.391   1.958   3.660
51229W        W22900  23.721  43.374  10.705
51230W        W22901  25.967  35.687  12.959
51231W        W22902  28.457  25.373  12.039
51232W        W22903   1.651   0.734  11.216
51233W        W22904  29.212  21.149   4.634
51234W        W22905  44.733  11.331   0.886
51235W        W22906   5.136  15.656   5.083
51236W        W22907  30.933  36.642  11.170
51237W        W22908  37.821   0.012   2.200
51238W        W22909  15.386   3.918   9.856
51239W        W22910  13.745  29.635  13.509
51240W        W22911  22.057   6.867  12.177
51241W        W22912  12.014  44.165   1.268
51242W        W22913  43.385  42.768  13.350
51243W        W22914  15.584  37.374   2.611
51244W        W22915   2.742  40.344   3.204
51245W        W22916   1.547  13.693   4.270
51246W        W22917  20.660  33.126  10.673
51247W        W22918  13.296   7.288   1.955
51248W        W22919   0.980   3.688   3.689
51249W        W22920  36.980  27.464  13.838
51250W        W22921  42.505  11.580  12.683
51251W        W22922  20.040  10.868  13.962
51252W        W22923  13.796  22.545   3.853
51253W        W22924  44.522   7.852  12.442
51254W        W22925  25.568  42.577  10.712
51255W        W22926  41.315  13.671   1.282
51256W        W22927  28.314  14.705   4.607
51257W        W22928  11.312  15.975   0.978
51258W        W22929   9.710  28.509  11.829
51259W        W22930  31.625   1.142  14.835
51260W        W22931  29.829  29.451   3.747
51261W        W22932  11.666  41.218   2.787
51262W        W22933   2.566  10.043  10.281
51263W        W22934   4.217  11.829   4.129
51264W        W22935  31.183  25.006  14.468
51265W        W22936  43.482  26.613   4.661
51266W        W22937  24.132  37.805  13.498
51267W        W22938   4.481  22.741  12.387
51268W        W22939  38.728  20.333   0.894
51269W        W22940  21.727   3.669  13.747
51270W        W22941  39.687  35.133   3.148
51271W        W22942  28.473  39.964  11.668
51272W        W22943  39.779   8.265  12.935
51273W        W22944   4.818  20.422   3.379
51274W        W22945  19.987  30.074  13.912
51275W        W22946  11.791  36.980   4.373
51276W        W22947   9.752  12.360  11.056
51277W        W22948   1.434  38.300   4.689
51278W        W22949  35.901  39.131  12.943
51279W        W22950  19.453  22.028  14.337
51280W        W22951  13.393  27.034   2.926
51281W        W22952   6.363   1.087  10.907
51282W        W22953  39.784  36.546   2.786
51283W        W22954  21.304  40.413  10.176
51284W        W22955  22.461  33.160  14.292
51285W        W22956  35.050  41.939   3.488
51286W        W22957  11.418  33.416  13.313
51287W        W22958   6.818  40.009  13.454
51288W        W22959  31.558  18.712  14.882
51289W        W22960  27.287  33.232   3.791
51290W        W22961  41.640  26.779   3.834
51291W        W22962  27.312   0.273  13.007
51292W        W22963   4.874   7.494   0.251
51293W        W22964  19.053  42.330  14.245
51294W        W22965  16.522  21.920   3.072
51295W        W22966  29.146  43.802  10.611
51296W        W22967  25.508   8.112  12.082
51297W        W22968  25.046  26.250   3.295
51298W        W22969  34.081  28.066   1.813
51299W        W22970  33.674  35.569   2.714
51300W        W22971  32.018  29.832   2.640
51301W        W22972  14.786  39.120  14.238
51302W        W22973   6.501  10.584  11.181
51303W        W22974  44.861  26.967   3.101
51304W        W22975  15.618  33.069   3.662
51305W        W22976   1.407   2.006   2.318
51306W        W22977  25.188  22.202   0.680
51307W        W22978  28.618   0.644   0.511
51308W        W22979  37.475  40.420  12.535
51309W        W22980   6.283  39.061  13.595
51310W        W22981   6.695  30.286   0.459
51311W        W22982  40.540  12.775   2.351
51312W        W22983  30.715  18.113  14.531
51313W        W22984   1.487  13.656  11.655
51314W        W22985  25.160  16.162   2.175
51315W        W22986  11.722  13.008   1.006
51316W        W22987  37.439  34.504   0.432
51317W        W22988  20.691  39.791   3.208
51318W        W22989  11.656  19.883   4.359
51319W        W22990   8.763  24.729   2.829
51320W        W22991  22.561   4.769   2.627
51321W        W22992  33.954  32.617  14.664
51322W        W22993  22.214  39.014   4.354
51323W        W22994   3.957  10.878   4.160
51324W        W22995  28.892   0.150   2.789
51325W        W22996  37.971   2.437   0.273
51326W        W22997  34.654  28.195   0.334
51327W        W22998   7.390  30.149   2.152
51328W        W22999  33.569  32.337   2.862
51329W        W23000  43.982  39.707   2.609
51330W        W23001  10.699  32.610   4.253
51331W        W23002  28.856  32.779   0.429
51332W        W23003  15.830   4.669   1.999
51333W        W23004  21.651  10.859  10.552
51334W        W23005  43.792   9.453  14.284
51335W        W23006  43.346  22.665  12.153
51336W        W23007   7.778  24.569  11.178
51337W        W23008  25.232  31.439  11.696
51338W        W23009  28.699  41.941  13.461
51339W        W23010  14.838  37.197   0.674
51340W        W23011  38.014  18.148  12.808
51341W        W23012  23.170  11.419   4.715
51342W        W23013   2.885  22.766  10.093
51343W        W23014   8.755   2.461  13.020
51344W        W23015  26.172   4.438  12.268
51345W        W23016  28.213  36.742  11.229
51346W        W23017  15.991  29.600   1.361
51347W        W23018  34.846   8.765   1.703
51348W        W23019  38.545  24.979  12.429
51349W        W23020  22.501  10.610   0.876
51350W        W23021  29.955  17.481  14.428
51351W        W23022  44.985  31.950  12.568
51352W        W23023  36.578  29.230  12.108
51353W        W23024  39.062  29.503   0.271
51354W        W23025  10.558  29.574   3.892
51355W        W23026  18.189   9.734   4.623
51356W        W23027  21.620  24.134   4.118
51357W        W23028  25.515  39.498  14.355
51358W        W23029  44.006  42.109  11.017
51359W        W23030  14.671   6.752   1.696
51360W        W23031  37.096  22.494  14.841
51361W        W23032  22.221  28.490  11.931
51362W        W23033  16.727  14.351  10.704
51363W        W23034  22.615  44.768  13.674
51364W        W23035  42.534  13.007   4.748
51365W        W23036  10.097   1.367  10.483
51366W        W23037  30.534  24.375   5.014
51367W        W23038  36.541   5.546   2.387
51368W        W23039  38.627  38.927  12.613
51369W        W23040  14.029   2.344  11.999
51370W        W23041  30.494  36.039  11.865
51371W        W23042  40.566   2.393  12.961
51372W        W23043  24.490  23.258  10.857
51373W        W23044  24.398  11.870   4.180
51374W        W23045  44.901   0.464  12.510
51375W        W23046  14.116  26.279  14.876
51376W        W23047  39.890   9.191  12.494
51377W        W23048   0.562  10.815  11.570
51378W        W23049  35.796  23.474  14.042
51379W        W23050   9.460  37.438   1.310
51380W        W23051   1.954  32.499   2.080
51381W        W23052  20.139  12.700   0.340
51382W        W23053   7.122   5.351  14.945
51383W        W23054  38.810  11.321  11.135
51384W        W23055   3.264  16.555   1.915
51385W        W23056   4.135   9.637  12.877
51386W        W23057  26.572   5.160   3.141
51387W        W23058   1.167   1.818  14.426
51388W        W23059  39.613  32.130  13.024
51389W        W23060  10.425  42.000  12.430
51390W        W23061  24.965  37.594   0.877
51391W        W23062  15.189  39.406   2.131
51392W        W23063  39.076   5.928  14.022
51393W        W23064  37.134  22.167   2.810
51394W        W23065  21.497  22.240   4.581
51395W        W23066   4.985  21.946  13.830
51396W        W23067   0.356  39.372  12.422
51397W        W23068  31.407  41.721   1.875
51398W        W23069  31.820   0.212  10.728
51399W        W23070  37.283  34.301   1.756
51400W        W23071   7.421  23.992   2.809
51401W        W23072  23.543  42.938   4.777
51402W        W23073  38.380  28.862   2.731
51403W        W23074  31.842  44.125  11.525
51404W        W23075  27.600  34.147  12.988
51405W        W23076  39.309  37.648  11.535
51406W        W23077  35.087   7.331   1.884
51407W        W23078   4.630  34.048  14.330
51408W        W23079  37.346  19.582   1.716
51409W        W23080  37.006  36.791  11.880
51410W        W23081  15.827  29.356  13.882
51411W        W23082   7.672  44.756   1.375
51412W        W23083  31.936  37.067  14.035
51413W        W23084  14.655  36.842   2.398
51414W        W23085  16.664  33.836  12.001
51415W        W23086  15.954  33.193  12.902
51416W        W23087  30.235   4.083   2.908
51417W        W23088   1.957  20.574  13.006
51418W        W23089  38.836   5.428  10.932
51419W        W23090  18.591  36.839   2.854
51420W        W23091   0.705  37.562  13.477
51421W        W23092  18.301   1.259  14.376
51422W        W23093  10.319  29.362   1.837
51423W        W23094   4.236  24.703  11.123
51424W        W23095  27.296   2.240   0.001
51425W        W23096  42.768   3.845   4.266
51426W        W23097  13.091  38.475  12.905
51427W        W23098  13.571   5.935   4.945
51428W        W23099  16.726   4.940  11.930
51429W        W23100  43.348  14.413   2.627
51430W        W23101   0.238   3.891   3.295
51431W        W23102  20.213   7.917   1.676
51432W        W23103  36.545  42.831  10.674
51433W        W23104  36.788  40.836   2.363
51434W        W23105  44.295  42.895  13.275
51435W        W23106  16.652  35.150   4.536
51436W        W23107  25.996  23.060  14.844
51437W        W23108  30.439  24.270   4.123
51438W        W23109  18.580  24.689   2.531
51439W        W23110  40.735  31.431  10.902
51440W        W23111  13.553  30.433  11.308
51441W        W23112  26.564   8.728  10.245
51442W        W23113  17.706   4.158  13.433
51443W        W23114  34.952  35.981  14.661
51444W        W23115   8.419  30.648  13.827
51445W        W23116  27.627   6.704  13.763
51446W        W23117  42.790  25.637   3.382
51447W        W23118  16.640  16.775  10.630
51448W        W23119  44.313  17.175   3.174
51449W        W23120  20.587  33.954  13.431
51450W        W23121   9.224   3.990  12.675
51451W        W23122  39.942   9.302   2.422
51452W        W23123  38.498  15.607  14.945
51453W        W23124   9.710   8.844   2.691
51454W        W23125  12.835  30.872   2.690
51455W        W23126  17.097  43.295   0.502
51456W        W23127  25.841  31.635   2.304
51457W        W23128   2.977  22.946   4.248
51458W        W23129  17.465   6.341  10.555
51459W        W23130  15.273  13.179   3.063
51460W        W23131  22.717  42.009   4.697
51461W        W23132   5.877  43.144  13.514
51462W        W23133  30.499  17.843  13.317
51463W        W23134  11.346  39.081   2.277
51464W        W23135  10.085  23.606   1.369
51465W        W23136  31.800  42.591   0.873
51466W        W23137  27.994   7.604  11.555
51467W        W23138  31.235  24.053  11.443
51468W        W23139  21.826   8.696  13.889
51469W        W23140  39.830  25.408   0.273
51470W        W23141   1.447  22.991  12.604
51471W        W23142   4.227  31.892  12.183
51472W        W23143  43.416   6.206  14.780
51473W        W23144  15.359  20.436  11.615
51474W        W23145   7.889   2.253   0.370
51475W        W23146  32.619   0.987   3.528
51476W        W23147  13.800  13.624  12.999
51477W        W23148  10.738   3.776   0.509
51478W        W23149  33.784   5.777  10.651
51479W        W23150  39.058  38.843   0.762
51480W        W23151  28.048  35.165  14.433
51481W        W23152  14.527  33.610  11.631
51482W        W23153   5.855  26.318  13.120
51483W        W23154  18.696  25.120  14.100
51484W        W23155  20.575  28.580  12.376
51485W        W23156  20.726  43.018   0.428
51486W        W23157  12.593  15.847   1.128
51487W        W23158   0.264  17.366   1.945
51488W        W23159  44.825  40.755  13.322
51489W        W23160  13.938  19.299   4.267
51490W        W23161  40.270  32.036  10.667
51491W        W23162  33.538   5.592   4.091
51492W        W23163   1.722  42.538  10.563
51493W        W23164  38.955  44.996   1.591
51494W        W23165  11.123   4.661   4.579
51495W        W23166  28.595  14.349   1.898
51496W        W23167  38.637   7.754   0.454
51497W        W23168  17.632  15.181   3.422
51498W        W23169  14.386  41.980   3.736
51499W        W23170  15.608  40.093   3.540
51500W        W23171   4.350  31.486  13.060
51501W        W23172  21.353  24.645  12.445
51502W        W23173   7.224  26.173   3.761
51503W        W23174   2.266  24.545   4.769
51504W        W23175  33.344  10.765  13.881
51505W        W23176  27.259  25.177   3.173
51506W        W23177  11.880  19.539   0.796
51507W        W23178  26.159   3.838   0.865
51508W        W23179   5.641  23.229  11.538
51509W        W23180  14.039  19.718  12.958
51510W        W23181   2.179   1.384   4.135
51511W        W23182  10.326   8.285  12.028
51512W        W23183   4.784  32.035  11.710
51513W        W23184  37.134   4.218   3.124
51514W        W23185  29.678  16.736  14.865
51515W        W23186  26.279  31.530   1.738
51516W        W23187  22.205  44.870   4.494
51517W        W23188  15.370  32.608   0.939
51518W        W23189  39.550  26.458   3.237
51519W        W23190  39.973   6.544  14.395
51520W        W23191  16.547  10.707   4.647
51521W        W23192  30.736  31.452  11.313
51522W        W23193  26.074  21.991   1.114
51523W        W23194  28.426   9.930   2.007
51524W        W23195  15.150  26.925   3.240
51525W        W23196  14.751  22.103  13.062
51526W        W23197  23.950  33.420  11.775
51527W        W23198  30.863  32.912   4.136
51528W        W23199  33.525   4.920   0.722
51529W        W23200   0.419  44.524  11.591
51530W        W23201  12.506  22.217  12.014
51531W        W23202  20.751  20.200   3.128
51532W        W23203  38.429  28.576  11.578
51533W        W23204  19.124   1.879  10.489
51534W        W23205   8.317   9.774   4.381
51535W        W23206  22.366  25.715   4.506
51536W        W23207  18.569  20.104   0.773
51537W        W23208   6.665  43.322  10.694
51538W        W23209   5.497  21.666  14.520
51539W        W23210  43.325   6.822   3.120
51540W        W23211  19.760  10.176   2.675
51541W        W23212  41.909  39.815  10.518
51542W        W23213  44.815  32.681   4.080
51543W        W23214   4.820   1.332   1.210
51544W        W23215  39.422  44.903   3.269
51545W        W23216  39.066  32.534   4.230
51546W        W23217  40.466   2.661  13.548
51547W        W23218  26.272  23.054   1.920
51548W        W23219   3.591  25.898   1.272
51549W        W23220  43.794  35.972  13.754
51550W        W23221   7.121   1.843  14.259
51551W        W23222  29.655   3.243  13.335
51552W        W23223  35.181  20.972  10.189
51553W        W23224  38.554   3.364   4.623
51554W        W23225   9.367   6.347  10.702
51555W        W23226  28.354  11.809  10.533
51556W        W23227  33.273  25.560   1.953
51557W        W23228  40.220  40.879   1.399
51558W        W23229  27.654  36.365  13.875
51559W        W23230  23.191   7.620   3.347
51560W        W23231  15.806  37.415  11.587
51561W        W23232  19.249   1.785  13.954
51562W        W23233  35.933   6.286  13.855
51563W        W23234  21.058  19.948  10.597
51564W        W23235   6.291   4.909   3.634
51565W        W23236  24.997  14.067   0.678
51566W        W23237  42.874  12.088   5.172
51567W        W23238   5.937  26.956   3.376
51568W        W23239  43.482   8.148   3.792
51569W        W23240  42.323  33.158   0.473
51570W        W23241  16.045  18.213   1.164
51571W        W23242  34.582  27.288  13.903
51572W        W23243   6.452  33.346  10.099
51573W        W23244   3.136  41.607   4.628
51574W        W23245  19.257   3.399   1.335
51575W        W23246  24.624  17.443   4.844
51576W        W23247   4.417  37.850   3.822
51577W        W23248  36.910  40.442  10.912
51578W        W23249  27.001  27.240   4.174
51579W        W23250  18.162  13.319  13.876
51580W        W23251  38.034   4.842   1.958
51581W        W23252   4.361   8.883   2.217
51582W        W23253  30.386   1.517   1.512
51583W        W23254  39.348  26.658  14.444
51584W        W23255  21.856  23.124   5.666
51585W        W23256  18.690  21.219  11.571
51586W        W23257  15.040  36.014  13.854
51587W        W23258  38.806  41.437   0.459
51588W        W23259  11.976  20.988  12.834
51589W        W23260   9.471   0.454  11.540
51590W        W23261  28.436  12.745   2.184
51591W        W23262  43.896  26.538   1.203
51592W        W23263  15.230  18.040   0.858
51593W        W23264  17.086  43.947  10.710
51594W        W23265  26.990  31.465   0.050
51595W        W23266  14.716  44.504   0.752
51596W        W23267  10.429  38.509  14.925
51597W        W23268   3.944  32.987  11.452
51598W        W23269  12.240  19.199   1.757
51599W        W23270  17.430  10.684  12.973
51600W        W23271  19.100  33.498   3.082
51601W        W23272  24.924  12.758  13.846
51602W        W23273  39.811   1.839   2.768
51603W        W23274   4.712   1.923   2.970
51604W        W23275  27.450  42.923   2.297
51605W        W23276  15.102   3.449   2.770
51606W        W23277  42.555  25.490   3.858
51607W        W23278   1.958   6.595   0.127
51608W        W23279  30.048  11.151  10.563
51609W        W23280  39.041  41.526  12.570
51610W        W23281   4.235  20.463  11.170
51611W        W23282   5.967  34.042   4.737
51612W        W23283  38.360   6.142  14.559
51613W        W23284  29.933  16.555   0.309
51614W        W23285  11.408  33.707  12.585
51615W        W23286  24.527  38.857   1.228
51616W        W23287  17.034  18.224   4.072
51617W        W23288  35.292  26.667   2.731
51618W        W23289  29.503  22.608  11.156
51619W        W23290  29.682  20.045  12.012
51620W        W23291  13.748   7.574   1.962
51621W        W23292   2.208  35.661  11.706
51622W        W23293   7.340  15.201  10.603
51623W        W23294  29.995  36.852  14.742
51624W        W23295  18.193  44.056   4.135
51625W        W23296  28.043  22.111  13.736
51626W        W23297  15.432   5.364   4.232
51627W        W23298  32.964  17.381   3.321
51628W        W23299   5.393  19.568   0.377
51629W        W23300   1.268  14.062  14.474
51630W        W23301  14.110  13.886   1.851
51631W        W23302   0.242  24.417  14.433
51632W        W23303  20.284   8.926  11.574
51633W        W23304  23.654  31.866   2.223
51634W        W23305  16.795  36.493  12.779
51635W        W23306  39.471   6.243  14.413
51636W        W23307   4.341  36.902  11.887
51637W        W23308  17.564   2.220  13.350
51638W        W23309  36.846  11.723  14.035
51639W        W23310  38.021  32.431  14.983
51640W        W23311  34.580   8.343  13.509
51641W        W23312  19.707   9.965   2.198
51642W        W23313  16.639   7.620   0.941
51643W        W23314  18.240  16.299  14.864
51644W        W23315   9.261  13.707   2.242
51645W        W23316  19.097  19.672  12.042
51646W        W23317  36.437  33.356  14.727
51647W        W23318  28.964  39.008  11.587
51648W        W23319  16.308   1.503   0.304
51649W        W23320  26.470  20.279   0.280
51650W        W23321  22.668  23.879   5.190
51651W        W23322  26.635  13.097  14.646
51652W        W23323   6.393  21.226   4.162
51653W        W23324  21.200  42.371   4.199
51654W        W23325  26.966   1.354  11.878
51655W        W23326  32.506   0.231  14.477
51656W        W23327  38.935  34.919   4.836
51657W        W23328  33.544  39.530  14.829
51658W        W23329   5.135  37.818   4.605
51659W        W23330   6.942   8.257  14.457
51660W        W23331  44.802  17.441  10.594
51661W        W23332  16.187   6.516   1.346
51662W        W23333   1.524  35.762   1.642
51663W        W23334  16.299  26.923   3.560
51664W        W23335  14.331  34.385   1.482
51665W        W23336   1.238  10.434  11.842
51666W        W23337  13.254  40.530  11.507
51667W        W23338  25.498   8.447   0.367
51668W        W23339  39.850  28.935   3.765
51669W        W23340   1.838  33.565  12.416
51670W        W23341  43.102  34.313  13.310
51671W        W23342  18.685  39.624  13.924
51672W        W23343  29.447   6.989  14.441
51673W        W23344  28.362  16.791   1.504
51674W        W23345  43.179  22.152  12.441
51675W        W23346  23.099   9.099   0.883
51676W        W23347  19.961  37.096   1.339
51677W        W23348  25.980   6.874  10.543
51678W        W23349   2.496  15.246  12.542
51679W        W23350  11.284  18.157   1.891
51680W        W23351  16.268  33.867   1.514
51681W        W23352  41.257  32.588  10.806
51682W        W23353  40.864  17.768  13.033
51683W        W23354  32.889  18.028   0.159
51684W        W23355  13.714  37.064   4.289
51685W        W23356  13.285  32.620   3.962
51686W        W23357  30.699  18.532   3.204
51687W        W23358  12.518  44.256  13.268
51688W        W23359   8.406  31.777   2.067
51689W        W23360   3.666  37.275  11.122
51690W        W23361  33.154  14.300   3.100
51691W        W23362   2.785  31.611   3.398
51692W        W23363  40.550  19.552   3.879
51693W        W23364   1.585  24.134  11.691
51694W        W23365   0.295  19.003   4.258
51695W        W23366  38.931  37.291  14.175
51696W        W23367  14.674  10.884  14.830
51697W        W23368  15.275  10.566  14.063
51698W        W23369  35.018   1.959  10.718
51699W        W23370  35.966  27.993  11.174
51700W        W23371  25.153  31.743   0.303
51701W        W23372  21.656  12.592   2.286
51702W        W23373  12.339  29.997  13.454
51703W        W23374  44.335  21.996   0.958
51704W        W23375  42.412  27.162   2.164
51705W        W23376  40.756  20.065  11.627
51706W        W23377   9.370  29.182   0.439
51707W        W23378   2.402  35.421  12.138
51708W        W23379  33.880  34.556  12.008
51709W        W23380  12.712  16.907  13.376
51710W        W23381   1.454   2.875   2.172
51711W        W23382  15.885  32.642   0.900
51712W        W23383  13.733  36.166  11.854
51713W        W23384  18.153  30.830  11.923
51714W        W23385   8.256  35.547   4.080
51715W        W23386   5.454  23.193  11.057
51716W        W23387   6.216   8.245  10.949
51717W        W23388  28.585  43.450   3.376
51718W        W23389  10.227  13.259  12.907
51719W        W23390  36.506  13.753  14.074
51720W        W23391  24.470  43.767   2.157
51721W        W23392   3.266  37.010  12.894
51722W        W23393  23.148  36.154   3.579
51723W        W23394   5.216  39.065  10.703
51724W        W23395  18.246  36.866   1.864
51725W        W23396  41.001   8.154   0.101
51726W        W23397  19.106  30.584   3.647
51727W        W23398  33.041  16.180  13.049
51728W        W23399  10.912  16.210  14.479
51729W        W23400   7.409   3.874  14.880
51730W        W23401  34.116  30.564  14.724
51731W        W23402  37.660  42.730   0.971
51732W        W23403  19.953   3.265   3.354
51733W        W23404  10.442  12.219   4.923
51734W        W23405  27.110  28.669   2.667
51735W        W23406  40.381  38.174  12.069
51736W        W23407  14.686  25.677  12.338
51737W        W23408   5.346  13.076   0.048
51738W        W23409  36.485   6.632  12.609
51739W        W23410  33.881  32.037   2.556
51740W        W23411  33.947  32.604  11.876
51741W        W23412  30.174  28.930  13.475
51742W        W23413  38.295  15.338   4.771
51743W        W23414  39.820   1.276  12.105
51744W        W23415   8.597  33.038   0.686
51745W        W23416  44.820  43.758  11.328
51746W        W23417  15.282  40.029  11.113
51747W        W23418  25.091  11.282   2.918
51748W        W23419  32.480  34.372  12.073
51749W        W23420  22.960  18.068  11.856
51750W        W23421  34.110   4.502  13.414
51751W        W23422  23.210  11.265  13.712
51752W        W23423  16.759   9.552  14.917
51753W        W23424  26.693   4.799  14.694
51754W        W23425  29.861  36.164   1.391
51755W        W23426  10.305  31.990  12.562
51756W        W23427  23.247  39.600  10.267
51757W        W23428  38.800  19.015  11.554
51758W        W23429  11.413  12.230   1.320
51759W        W23430  22.555  14.869  11.263
51760W        W23431  12.898  17.362  13.238
51761W        W23432  28.721  18.569   3.213
51762W        W23433  42.058   8.703  12.515
51763W        W23434  20.990  16.611   1.425
51764W        W23435  38.290   2.220   4.431
51765W        W23436  12.113  41.476  12.313
51766W        W23437  21.721  27.116   1.667
51767W        W23438  34.259   2.780   0.391
51768W        W23439   4.390  27.877   4.356
51769W        W23440  29.798  34.584   4.189
51770W        W23441  22.786  21.075   4.510
51771W        W23442  22.710  15.755  13.922
51772W        W23443  42.278  43.827  12.152
51773W        W23444   8.474  43.464   0.365
51774W        W23445  29.497   6.169   0.343
51775W        W23446  24.960   1.874  12.409
51776W        W23447  15.764  21.590   0.863
51777W        W23448  26.343   6.075  14.619
51778W        W23449  41.508  30.169   4.439
51779W        W23450  41.121  27.122  14.673
51780W        W23451  34.420   3.331   4.615
51781W        W23452  10.745  11.194   3.725
51782W        W23453   4.892  22.757  13.471
51783W        W23454  10.761  20.442  11.588
51784W        W23455  18.838  41.874  11.737
51785W        W23456  10.672  25.022  13.706
51786W        W23457   8.757  28.192  12.078
51787W        W23458  10.236  25.900  12.464
51788W        W23459  28.111   5.738  12.664
51789W        W23460  32.650  31.980   3.098
51790W        W23461  32.466   9.587   1.927
51791W        W23462  41.923  14.758   0.410
51792W        W23463   2.209  28.415   3.753
51793W        W23464   4.647  31.507  13.557
51794W        W23465  40.445  40.363  11.491
51795W        W23466  32.116  19.234   4.204
51796W        W23467  38.724  23.619   4.050
51797W        W23468  40.691  35.102  14.019
51798W        W23469  17.208  19.730   2.323
51799W        W23470  28.255  29.053   4.226
51800W        W23471  14.428  14.067   5.116
51801W        W23472  33.416  36.811  14.761
51802W        W23473  29.138  44.305  10.719
51803W        W23474   6.514  38.852  14.009
51804W        W23475   3.962   3.288   4.103
51805W        W23476  39.566   8.883  12.164
51806W        W23477  33.569  15.003  12.143
51807W        W23478  34.963  43.873   2.171
51808W        W23479  44.982   6.887   1.832
51809W        W23480  34.905  27.955   2.225
51810W        W23481  28.139  17.853   2.679
51811W        W23482  12.153  32.416   4.239
51812W        W23483  41.844  13.578   0.778
51813W        W23484  32.055  25.588   3.607
51814W        W23485  12.450  37.692   5.125
51815W        W23486  22.999  20.978   3.607
51816W        W23487  17.251  40.285   0.422
51817W        W23488  43.341  21.262   4.048
51818W        W23489  21.594  40.806   1.951
51819W        W23490  38.665  37.584   5.097
51820W        W23491  23.079  27.870  13.180
51821W        W23492  43.269  28.187   2.725
51822W        W23493   6.316  20.762  14.919
51823W        W23494  42.104   2.336   1.547
51824W        W23495  20.011   5.148   2.377
51825W        W23496   8.813  21.585   1.253
51826W        W23497  24.056  37.188  10.427
51827W        W23498  27.903  33.105   2.871
51828W        W23499  27.715  40.352  14.201
51829W        W23500   5.232  41.385   5.010
51830W        W23501  19.778  36.641  13.876
51831W        W23502  38.795  25.621   4.852
51832W        W23503  34.248  34.399   3.401
51833W        W23504  33.337  12.422  10.409
51834W        W23505  44.810  23.092  10.688
51835W        W23506  30.920   0.583   0.455
51836W        W23507  23.469  30.172   4.152
51837W        W23508  39.806  28.413   1.795
51838W        W23509  24.538   6.940   3.729
51839W        W23510  35.977   9.191   1.759
51840W        W23511  12.369  18.303   0.854
51841W        W23512  16.937  10.271  14.044
51842W        W23513   1.054  17.696   3.275
51843W        W23514   6.932  22.491  13.938
51844W        W23515  22.746   7.852  10.432
51845W        W23516  37.016  13.327  13.842
51846W        W23517   3.446  15.889  11.469
51847W        W23518  24.201  11.588  11.052
51848W        W23519  28.944  14.278   0.665
51849W        W23520  39.874  37.887   0.821
51850W        W23521  38.584   3.409   5.204
51851W        W23522  14.726  36.137  14.847
51852W        W23523  36.968  18.789   2.137
51853W        W23524  25.602  44.274  14.384
51854W        W23525  40.491  43.814  14.422
51855W        W23526  33.244   2.031  12.967
51856W        W23527  14.590  31.510   2.643
51857W        W23528   4.181  37.058   0.310
51858W        W23529  18.977  21.799   2.630
51859W        W23530  27.443  17.259   3.148
51860W        W23531  29.982  16.703  12.483
51861W        W23532  16.513   2.741   3.571
51862W        W23533  11.270  24.186  14.889
51863W        W23534   4.242  33.892  13.272
51864W        W23535  40.848  18.292  12.159
51865W        W23536  18.217  19.028   4.561
51866W        W23537  43.555  32.108  13.228
51867W        W23538  21.726  33.871   3.242
51868W        W23539  18.677  43.994  11.468
51869W        W23540  40.574  19.584   2.329
51870W        W23541  22.458   2.940  11.603
51871W        W23542  41.363  33.543   2.746
51872W        W23543  37.406  24.087   4.080
51873W        W23544   6.717  26.153   4.471
51874W        W23545  25.736  19.107   4.216
51875W        W23546  20.748  32.243  10.940
51876W        W23547  22.094   7.440   2.743
51877W        W23548  34.326  18.002  11.124
51878W        W23549  27.441   1.384  12.064
51879W        W23550  42.231  38.867   1.230
51880W        W23551  29.149  20.476  11.447
51881W        W23552  43.628  21.272  13.021
51882W        W23553  31.501  44.503   4.562
51883W        W23554  32.552  40.877   4.190
51884W        W23555  24.284  23.145   4.218
51885W        W23556  29.079  38.096   2.218
51886W        W23557  44.032  12.069   1.034
51887W        W23558  35.348  15.360  14.794
51888W        W23559  25.721   8.036   0.867
51889W        W23560  20.551  16.029  14.360
51890W        W23561  38.432  25.484   0.394
51891W        W23562  27.574  11.268  11.093
51892W        W23563  28.077  38.055  12.846
51893W        W23564  24.528  35.352  12.978
51894W        W23565  17.132  13.866   3.312
51895W        W23566  15.201  24.275   3.941
51896W        W23567  21.085  38.094   2.238
51897W        W23568  17.622  10.554   1.254
51898W        W23569  11.809  16.087   0.352
51899W        W23570  10.259  36.489   3.591
51900W        W23571   7.228  33.374  11.436
51901W        W23572  31.224  41.843  12.516
51902W        W23573   6.185  16.151   3.559
51903W        W23574  26.868  17.384   3.992
51904W        W23575  44.338  22.272  10.965
51905W        W23576  16.578  30.989   0.746
51906W        W23577  27.437  35.612   3.154
51907W        W23578   5.853  25.668   3.684
51908W        W23579   1.506  30.854   4.223
51909W        W23580   9.150  20.591  13.081
51910W        W23581   6.741  34.400   1.223
51911W        W23582  42.291  43.810  13.954
51912W        W23583   4.239   5.085   2.233
51913W        W23584  27.702  37.370   0.353
51914W        W23585  19.657  42.045  13.432
51915W        W23586  36.056  28.111  10.687
51916W        W23587  14.683  35.324   2.331
51917W        W23588  30.001  16.047   2.489
51918W        W23589  43.373  20.524  14.693
51919W        W23590  18.856  25.958   3.329
51920W        W23591  11.575  11.206  12.540
51921W        W23592   2.974   0.289  14.982
51922W        W23593  19.686  35.950   1.800
51923W        W23594  37.418  19.162   1.405
51924W        W23595  43.421   9.585  12.280
51925W        W23596  42.367  34.918   0.738
51926W        W23597  15.199  23.669   0.824
51927W        W23598  15.872  34.147   1.667
51928W        W23599   9.688  17.705   0.760
51929W        W23600  27.479  38.010  11.346
51930W        W23601   9.432  33.611  11.177
51931W        W23602  23.219  38.939   0.487
51932W        W23603  22.872  16.220  14.099
51933W        W23604  44.325  18.728  11.534
51934W        W23605  16.220  11.910   1.500
51935W        W23606   8.879  22.932  14.870
51936W        W23607  43.486   9.380   4.700
51937W        W23608  28.426  39.890  10.725
51938W        W23609  43.104  24.413  10.144
51939W        W23610   2.387  17.540  10.699
51940W        W23611  34.215  44.306  10.249
51941W        W23612   5.871  34.919  14.008
51942W        W23613  20.741  25.996   5.580
51943W        W23614  14.092  18.491   3.634
51944W        W23615  11.213  39.568  14.343
51945W        W23616   7.258  25.151   3.673
51946W        W23617  25.708   3.707   3.729
51947W        W23618  27.427  24.654  14.954
51948W        W23619  27.724   8.527   4.337
51949W        W23620  37.578  40.345   4.386
51950W        W23621   1.599  10.072  12.093
51951W        W23622  26.542  41.982  10.708
51952W        W23623  44.613  19.186   3.167
51953W        W23624  37.802   5.710  12.418
51954W        W23625  27.903  26.569   2.323
51955W        W23626   8.295   5.177  14.426
51956W        W23627   9.873  19.988   4.228
51957W        W23628   1.436  25.081   2.169
51958W        W23629  42.529  33.661   2.299
51959W        W23630  37.568  31.972   4.435
51960W        W23631  30.380  16.559   1.208
51961W        W23632  14.229  32.513  14.297
51962W        W23633  29.407  30.354  14.810
51963W        W23634  44.266   7.173   0.415
51964W        W23635  29.544  41.122   3.648
51965W        W23636  30.533  21.675  12.790
51966W        W23637   8.235  30.372   1.886
51967W        W23638  13.907   7.745  13.448
51968W        W23639  22.975   2.258   0.644
51969W        W23640   5.022   8.777   1.821
51970W        W23641   1.996  39.786   3.198
51971W        W23642  29.430  39.382   4.145
51972W        W23643   9.224  14.217   2.379
51973W        W23644  42.503  35.331  12.336
51974W        W23645  33.807   0.194   0.826
51975W        W23646  41.378   6.209   4.560
51976W        W23647   4.671  23.048  10.589
51977W        W23648  28.613  44.756  13.939
51978W        W23649   2.373  32.278  10.111
51979W        W23650   1.862  27.161  12.905
51980W        W23651  16.378  33.500  13.574
51981W        W23652  26.877   8.671  13.491
51982W        W23653  33.542  27.892  12.355
51983W        W23654  32.840  16.275  12.095
51984W        W23655  38.382  36.903  11.721
51985W        W23656  16.721  44.237   0.699
51986W        W23657  15.048  36.917   2.747
51987W        W23658   0.577  12.154  14.066
51988W        W23659  23.599  13.935   3.372
51989W        W23660  11.285  13.684   1.132
51990W        W23661  41.421  28.433  14.744
51991W        W23662  20.318   0.742   3.242
51992W        W23663   0.958  11.823  11.627
51993W        W23664  40.081  26.507   0.805
51994W        W23665  31.881  43.591   4.132
51995W        W23666  44.928   6.306   1.772
51996W        W23667   3.023   3.256  11.536
51997W        W23668  44.347  14.077  14.336
51998W        W23669  26.640  44.554   0.550
51999W        W23670  42.028  11.720  14.383
52000W        W23671   2.330   2.833   4.125
52001W        W23672   4.053  30.484   0.441
52002W        W23673  11.328  35.290  13.522
52003W        W23674  10.747  15.721  12.103
52004W        W23675  12.203  28.514  11.219
52005W        W23676  32.118  21.066   0.305
52006W        W23677   5.883  30.050  13.588
52007W        W23678  19.600   6.913  14.060
52008W        W23679  23.122  37.133   2.399
52009W        W23680  27.922   3.487   4.161
52010W        W23681   7.625  11.353   1.389
52011W        W23682   6.822  40.419  14.436
52012W        W23683  21.211   5.806  12.656
52013W        W23684  16.311  29.509  12.093
52014W        W23685  25.998  36.007  13.945
52015W        W23686  36.553  38.051   0.481
52016W        W23687  21.027  32.343  10.494
52017W        W23688  11.814  38.769  14.240
52018W        W23689  23.316  14.638  13.463
52019W        W23690  36.512  21.253  12.101
52020W        W23691   2.373  12.661   4.938
52021W        W23692  24.044   0.669  12.299
52022W        W23693  41.465  20.852  12.066
52023W        W23694   6.903  24.035   2.837
52024W        W23695  20.556   3.603   1.424
52025W        W23696   4.282  21.222  13.983
52026W        W23697   0.318  44.482  10.764
52027W        W23698  26.336  43.534  13.362
52028W        W23699  38.028  41.500   0.993
52029W        W23700  20.197  26.505  14.863
52030W        W23701  35.088   1.856   0.808
52031W        W23702  44.211  32.149  11.198
52032W        W23703  15.031   2.452  13.489
52033W        W23704   7.314  32.931   4.207
52034W        W23705  44.172   5.326  12.501
52035W        W23706  38.881   1.254   2.210
52036W        W23707  27.860  21.076  14.371
52037W        W23708  19.752   9.333   3.567
52038W        W23709  34.284  41.461  10.728
52039W        W23710   2.781  35.053   0.317
52040W        W23711   8.882  31.124   1.306
52041W        W23712  21.985  15.954  14.373
52042W        W23713  39.446  28.372  11.509
52043W        W23714  17.291   6.362   9.549
52044W        W23715  30.815   2.210  10.640
52045W        W23716   8.463  42.529  13.852
52046W        W23717  43.778  42.758  12.048
52047W        W23718  42.028  19.098  13.293
52048W        W23719  26.646  27.962   5.300
52049W        W23720  27.393   1.959   1.612
52050W        W23721  11.056  25.065   1.016
52051W        W23722  17.946  15.855   2.662
52052W        W23723  22.166  11.937  12.521
52053W        W23724  29.931  35.024   0.869
52054W        W23725  42.685  41.746  12.511
52055W        W23726  26.122  23.457   1.632
52056W        W23727   5.228  10.679   3.075
52057W        W23728  13.317   1.940  12.435
52058W        W23729  33.899  16.376   2.315
52059W        W23730   5.694  37.643  11.702
52060W        W23731  10.942   5.457   1.473
52061W        W23732   6.401  10.626   2.709
52062W        W23733  44.368  13.066   2.581
52063W        W23734  18.274   2.401  11.989
52064W        W23735   5.671  10.674  14.965
52065W        W23736  12.683  20.955  11.132
52066W        W23737  23.753  30.102  11.370
52067W        W23738   2.787  11.759   0.452
52068W        W23739  39.600  13.666  12.567
52069W        W23740  39.904  31.323  10.577
52070W        W23741   2.425  28.908  10.823
52071W        W23742  29.886   4.209  13.712
52072W        W23743  22.675   5.142   4.751
52073W        W23744  17.410  37.088   1.352
52074W        W23745  36.285  32.844   1.510
52075W        W23746  23.290  21.201   1.989
52076W        W23747   5.411  32.319   0.683
52077W        W23748  20.079  38.622   1.123
52078W        W23749  27.231  38.609  14.352
52079W        W23750   6.109  34.169   4.246
52080W        W23751  18.576  24.673  14.285
52081W        W23752  31.020  37.877  13.456
52082W        W23753  25.732  24.641  13.579
52083W        W23754  23.276  44.341  13.277
52084W        W23755   2.477  35.408   3.996
52085W        W23756  20.926  33.037   3.858
52086W        W23757   6.936  41.314   2.371
52087W        W23758   9.663  31.964   4.975
52088W        W23759   2.874   4.230  11.880
52089W        W23760  22.933  20.532  11.201
52090W        W23761   9.848  29.481   1.242
52091W        W23762  16.097  41.282  14.943
52092W        W23763  34.354  20.134  14.034
52093W        W23764  18.755  31.111  13.535
52094W        W23765   3.336  11.710  10.606
52095W        W23766  31.400   5.664  12.002
52096W        W23767  20.369  31.829  14.505
52097W        W23768   0.983  37.129  10.590
52098W        W23769  34.327  40.032  10.976
52099W        W23770  27.903  28.526  12.930
52100W        W23771   8.829  42.004  13.606
52101W        W23772  11.576  34.673   2.937
52102W        W23773  17.878  10.436  13.014
52103W        W23774  19.517  32.890   3.851
52104W        W23775  13.542  41.994   0.792
52105W        W23776  43.787  35.883  11.141
52106W        W23777  42.811  29.373   3.312
52107W        W23778   4.009  34.612   0.803
52108W        W23779  42.899  20.767  12.032
52109W        W23780  16.548  41.860  10.481
52110W        W23781  30.214  25.142  10.669
52111W        W23782  37.221  28.790  13.373
52112W        W23783  21.963  20.190  13.873
52113W        W23784  36.059  18.497   3.127
52114W        W23785  25.033  42.000   0.888
52115W        W23786   9.219   1.835  14.763
52116W        W23787  30.010  38.344  12.552
52117W        W23788  32.461  37.615  12.471
52118W        W23789  17.098  23.079  14.779
52119W        W23790  35.076   8.236  13.000
52120W        W23791   7.411  26.225  13.518
52121W        W23792   5.953  38.487   1.299
52122W        W23793  34.613  23.154  12.101
52123W        W23794  43.838   3.261  13.231
52124W        W23795  24.060   4.837   1.917
52125W        W23796  37.939  33.623  11.114
52126W        W23797  23.708   2.834  14.462
52127W        W23798  43.328  43.886  14.133
52128W        W23799  42.438  14.245   9.829
52129W        W23800  40.398  26.366  12.518
52130W        W23801  29.309  32.492   4.906
52131W        W23802  44.410  27.206   3.227
52132W        W23803  35.805  41.018   2.304
52133W        W23804  41.569  22.376   3.631
52134W        W23805   8.126  17.325  12.900
52135W        W23806  18.957   0.588   1.324
52136W        W23807  17.505  37.028  14.861
52137W        W23808  18.160  12.568   1.636
52138W        W23809  35.153  35.091  11.078
52139W        W23810  15.136  17.100   1.871
52140W        W23811   9.165   8.865  14.335
52141W        W23812  41.124  18.274  14.468
52142W        W23813  10.394  16.225  14.374
52143W        W23814  24.202  18.331   3.258
52144W        W23815  20.027  16.619  13.976
52145W        W23816  43.447  19.180  14.392
52146W        W23817   4.809  20.056   1.925
52147W        W23818  43.860  27.724   4.943
52148W        W23819  17.195  14.593  10.738
52149W        W23820   4.214  35.898   0.293
52150W        W23821   6.265  33.085   2.888
52151W        W23822   8.449   3.346  13.990
52152W        W23823  32.068  26.116   3.640
52153W        W23824  35.880  44.770  12.470
52154W        W23825  42.008   1.317   0.665
52155W        W23826  27.323   7.931  14.960
52156W        W23827  44.705  30.891   3.323
52157W        W23828  43.369  34.993  12.442
52158W        W23829  15.411  11.078   3.244
52159W        W23830  11.879  11.569   3.223
52160W        W23831  15.091  29.348  14.824
52161W        W23832  34.599  17.883   3.113
52162W        W23833  43.219  12.691   2.457
52163W        W23834  21.222   9.283  12.294
52164W        W23835  37.275  15.169  14.372
52165W        W23836  43.975  17.678   0.704
52166W        W23837  23.727   2.473   4.882
52167W        W23838  25.303  25.090   4.194
52168W        W23839  11.539  31.553   4.197
52169W        W23840   9.549   0.505   1.029
52170W        W23841   6.191  25.897  11.702
52171W        W23842  28.547  19.682   0.986
52172W        W23843  18.684   2.944   0.021
52173W        W23844   4.206  36.181  10.752
52174W        W23845   6.831  44.788   0.815
52175W        W23846  39.251  44.895   4.055
52176W        W23847  21.218  37.098   4.687
52177W        W23848  25.062  11.187   1.896
52178W        W23849  31.427  42.501   2.149
52179W        W23850  29.491   7.996   5.335
52180W        W23851  32.438  42.078  11.883
52181W        W23852  29.746  39.450   1.752
52182W        W23853   9.378  15.235  10.584
52183W        W23854  24.217   1.707  13.459
52184W        W23855  41.824  30.425  12.500
52185W        W23856  11.124  11.126   3.354
52186W        W23857  23.610  40.633   2.989
52187W        W23858  37.753  11.931   4.632
52188W        W23859  11.818  31.244  13.730
52189W        W23860  19.710   5.970   2.133
52190W        W23861  20.437  30.701  10.817
52191W        W23862  35.709  25.460  11.647
52192W        W23863  22.725   6.806  11.229
52193W        W23864  12.138  41.020  13.495
52194W        W23865  33.579  14.014   3.321
52195W        W23866   2.809  32.458   1.893
52196W        W23867   9.715  20.778  14.781
52197W        W23868  25.048  28.564  14.380
52198W        W23869  43.956  10.457   2.187
52199W        W23870  27.288  17.727  13.318
52200W        W23871  24.959  32.706  13.496
52201W        W23872  20.549   9.461   2.228
52202W        W23873   7.450  19.886  13.004
52203W        W23874  15.765  20.802  11.575
52204W        W23875  17.323  34.937   4.548
52205W        W23876  16.377   2.132   2.533
52206W        W23877  42.866  36.881  14.895
52207W        W23878  44.315  11.077   4.121
52208W        W23879  42.019  42.226  13.921
52209W        W23880   9.071  28.733   1.396
52210W        W23881  42.510  14.356  12.382
52211W        W23882  31.400  25.457   4.584
52212W        W23883  15.837   3.166   3.321
52213W        W23884   1.033  27.618   0.695
52214W        W23885  22.540  12.340   2.794
52215W        W23886  36.300  26.642   3.159
52216W        W23887  37.042   8.177   0.915
52217W        W23888  24.750  38.454   0.947
52218W        W23889  37.332  11.816   1.335
52219W        W23890   7.935  25.105   4.309
52220W        W23891   4.171  22.194  11.968
52221W        W23892   0.868  31.272  12.563
52222W        W23893  40.902  23.813   3.169
52223W        W23894  38.041   4.189   3.232
52224W        W23895   5.260  17.402   3.692
52225W        W23896  11.098  25.780   2.473
52226W        W23897  42.803  16.713   4.013
52227W        W23898  14.711  43.113  12.104
52228W        W23899   3.935  28.016  11.597
52229W        W23900  17.166  37.232   0.896
52230W        W23901  25.718  35.992  11.972
52231W        W23902  20.812   0.949  12.566
52232W        W23903   1.468  16.713   1.498
52233W        W23904  42.940  43.777   1.430
52234W        W23905  20.515  24.148   3.820
52235W        W23906  32.060  19.131  13.829
52236W        W23907  12.030  34.918  10.726
52237W        W23908   4.205   2.485   3.897
52238W        W23909  29.101  12.083  12.121
52239W        W23910  30.362  10.795   3.678
52240W        W23911  37.228   5.896  11.522
52241W        W23912  15.325  18.245  11.143
52242W        W23913  17.199  24.691  10.435
52243W        W23914  21.254  12.423  14.824
52244W        W23915  15.151  35.036  11.491
52245W        W23916   1.617   3.991  12.226
52246W        W23917  25.648  31.013  12.533
52247W        W23918   7.216  35.078  13.483
52248W        W23919  41.963  16.534  12.059
52249W        W23920  21.242  12.911   4.066
52250W        W23921  44.897  43.990  14.036
52251W        W23922  23.738   3.892  13.246
52252W        W23923  13.105  15.751   1.451
52253W        W23924  26.499  33.589   4.627
52254W        W23925  43.796  34.695  12.622
52255W        W23926  33.393   5.409   0.793
52256W        W23927   1.567   0.678  12.946
52257W        W23928  44.708  12.165   2.819
52258W        W23929  18.845  24.010  11.321
52259W        W23930  37.359   2.893   3.406
52260W        W23931  13.532   4.710  13.299
52261W        W23932   6.853   4.532  11.398
52262W        W23933   5.678  44.861  13.573
52263W        W23934  15.358  31.583   0.962
52264W        W23935  30.726  11.851  13.009
52265W        W23936   6.306  15.333   2.320
52266W        W23937   5.232  15.603   3.381
52267W        W23938  34.202  20.634  13.806
52268W        W23939  34.065  14.760   4.767
52269W        W23940   7.444  18.857  12.962
52270W        W23941  19.806   1.341  11.109
52271W        W23942  37.261  41.913   1.833
52272W        W23943  25.127   5.266  13.146
52273W        W23944  14.155  40.490  13.998
52274W        W23945  43.555  37.974   3.594
52275W        W23946  13.688  43.416  12.587
52276W        W23947  28.897  34.335   2.161
52277W        W23948  19.689   2.358   1.879
52278W        W23949  23.015  16.190  14.604
52279W        W23950  10.688  44.227   3.239
52280W        W23951  21.530   3.837  14.741
52281W        W23952  34.640  39.280   1.189
52282W        W23953   4.875  42.959  10.333
52283W        W23954  23.752  18.814  10.704
52284W        W23955  44.405  37.810   1.050
52285W        W23956  33.832  15.228   0.806
52286W        W23957  29.980   4.412   2.439
52287W        W23958  24.480  19.001   0.897
52288W        W23959  19.506  11.228  11.648
52289W        W23960  23.240  10.655   1.844
52290W        W23961   4.342   1.394  12.379
52291W        W23962   1.615  35.861  14.511
52292W        W23963   7.772   5.373   1.902
52293W        W23964  38.561   5.445   0.318
52294W        W23965   4.401   3.123   2.423
52295W        W23966  13.856  20.194  12.993
52296W        W23967   0.762   0.809  13.302
52297W        W23968  15.266  10.902   2.766
52298W        W23969   9.041  16.594   2.197
52299W        W23970  35.803   4.339  11.572
52300W        W23971  41.605   2.465  10.699
52301W        W23972  32.964   1.779  14.817
52302W        W23973  38.807  38.291  14.041
52303W        W23974  33.442  23.504   4.525
52304W        W23975  25.199  37.402  10.392
52305W        W23976  36.574  24.740   0.257
52306W        W23977  37.570  10.590   3.165
52307W        W23978  16.241  42.249   4.200
52308W        W23979  38.832  36.980   2.408
52309W        W23980  15.781  14.631  11.635
52310W        W23981   3.384  12.961   5.081
52311W        W23982  18.782   2.206   2.735
52312W        W23983  25.956   8.991   1.498
52313W        W23984  26.580  10.199   3.734
52314W        W23985  14.528  36.712  14.056
52315W        W23986  17.524  27.190   3.288
52316W        W23987  12.756  34.541  14.913
52317W        W23988  27.171  37.351   3.633
52318W        W23989  17.583  25.946   0.397
52319W        W23990   7.411  12.247  13.266
52320W        W23991  16.175  37.502  14.521
52321W        W23992  13.840  34.445  10.666
52322W        W23993  30.482  33.502  11.850
52323W        W23994  13.444  37.414  12.509
52324W        W23995  39.593  27.334  11.525
52325W        W23996   9.799   1.282  14.370
52326W        W23997  25.149  19.917   2.783
52327W        W23998  37.599  12.240  13.480
52328W        W23999  29.139  22.634   3.856
52329W        W24000  19.670   9.183   2.577
52330W        W24001  30.231  27.116  11.576
52331W        W24002  12.583   2.938  10.675
52332W        W24003  38.846   5.743  13.596
52333W        W24004  10.899  37.093  11.906
52334W        W24005  27.115  12.907  13.850
52335W        W24006  40.397  17.538  11.845
52336W        W24007  32.998  34.624   3.814
52337W        W24008  30.563   9.651  13.121
52338W        W24009  17.157  22.625   0.046
52339W        W24010  28.533   3.778  14.775
52340W        W24011  39.348  19.987  14.801
52341W        W24012   4.263  32.322  11.537
52342W        W24013   3.461  28.108  11.387
52343W        W24014  35.859   3.382  14.974
52344W        W24015  39.418  25.398  12.893
52345W        W24016   5.419  44.808  11.112
52346W        W24017  36.059  18.266   0.592
52347W        W24018   9.124  23.046   1.672
52348W        W24019  31.949   9.163   0.569
52349W        W24020  22.200  40.345  12.923
52350W        W24021  38.693  16.701  11.610
52351W        W24022  37.660  16.033  14.849
52352W        W24023   9.696   3.446  12.095
52353W        W24024  37.253   8.620  10.651
52354W        W24025  18.842  36.958   4.820
52355W        W24026  32.827   3.800  14.690
52356W        W24027   3.826   8.390  14.026
52357W        W24028  43.296  23.134  11.380
52358W        W24029  31.485   4.138  11.989
52359W        W24030  35.537  26.098  12.765
52360W        W24031  43.220  15.258   5.003
52361W        W24032  35.641  41.340  11.578
52362W        W24033  29.185   0.025  14.759
52363W        W24034  19.449  30.063   4.709
52364W        W24035  36.992   8.339  12.810
52365W        W24036  24.835  43.794  11.144
52366W        W24037  42.888   3.427   1.945
52367W        W24038  24.964   2.927  12.962
52368W        W24039  29.505  13.113  11.269
52369W        W24040  20.552   4.647  14.397
52370W        W24041  14.619  11.051   1.373
52371W        W24042   3.562  18.196   1.349
52372W        W24043   5.248   5.369  11.103
52373W        W24044  14.311   8.152  14.243
52374W        W24045  36.775  35.264   0.032
52375W        W24046  22.436   9.193  13.619
52376W        W24047   9.580   1.443  10.575
52377W        W24048  15.693   6.266   1.387
52378W        W24049  31.016   0.744  12.938
52379W        W24050  41.522  31.547   0.300
52380W        W24051  44.021  20.481   2.490
52381W        W24052  19.783  10.130   5.207
52382W        W24053   2.205  27.139   2.282
52383W        W24054  38.111  41.797   3.166
52384W        W24055  38.755   1.420  12.009
52385W        W24056   5.624  16.605   0.240
52386W        W24057  27.730   7.996   4.304
52387W        W24058  20.189  37.492  11.665
52388W        W24059   3.779  36.494  10.743
52389W        W24060  44.853  30.539   4.506
52390W        W24061  36.620  20.046  10.964
52391W        W24062   9.053  44.547   9.921
52392W        W24063  43.926  26.960   1.766
52393W        W24064  25.434  17.768   3.943
52394W        W24065  35.810  25.680  12.567
52395W        W24066   6.742   1.866  11.853
52396W        W24067  28.945  14.629  10.589
52397W        W24068  43.624  11.923   9.905
52398W        W24069  35.140  18.377   3.255
52399W        W24070  34.399  23.237  11.614
52400W        W24071  21.699  17.824   0.798
52401W        W24072  29.951  40.866  13.688
52402W        W24073  13.717  15.235  13.409
52403W        W24074  34.985  38.611   3.163
52404W        W24075  44.014  24.007  10.213
52405W        W24076  11.252  37.972  11.592
52406W        W24077  19.631  26.458   5.067
52407W        W24078  24.643   1.273   4.270
52408W        W24079  36.971   5.792   2.227
52409W        W24080  18.369  25.325  10.229
52410W        W24081  34.953  23.157   0.022
52411W        W24082  35.993  14.840  13.531
52412W        W24083   9.536   2.789   1.083
52413W        W24084   2.374   5.246  14.371
52414W        W24085  42.959  35.655   2.380
52415W        W24086  37.793  24.609  14.067
52416W        W24087  20.740  41.686   4.943
52417W        W24088  21.244  26.972   3.230
52418W        W24089  23.225  15.514  11.642
52419W        W24090  15.505  28.774   3.509
52420W        W24091  35.008  15.836   2.428
52421W        W24092  42.454   9.944   1.945
52422W        W24093  29.462  39.753   3.490
52423W        W24094  10.711  19.656  10.464
52424W        W24095  32.430  41.523  13.249
52425W        W24096  40.373  24.548   2.436
52426W        W24097  18.363  25.772  11.645
52427W        W24098  21.945  43.387   1.455
52428W        W24099  32.848  12.758  14.052
52429W        W24100  16.679   7.442   3.314
52430W        W24101  39.786  10.651   2.793
52431W        W24102  15.251  36.875   4.313
52432W        W24103  36.490  12.235  13.811
52433W        W24104  28.735   6.221   5.513
52434W        W24105  40.329  14.861  13.505
52435W        W24106  34.317  11.896   4.857
52436W        W24107   8.938  21.650  11.121
52437W        W24108   2.792   1.944  11.488
52438W        W24109   9.698  44.985  10.657
52439W        W24110  26.045  23.607  13.134
52440W        W24111  31.005  12.677  14.470
52441W        W24112  36.104   2.058  14.529
52442W        W24113  31.406  12.979  14.510
52443W        W24114  10.424  24.037   3.196
52444W        W24115  10.697  43.729   3.384
52445W        W24116  14.626  20.252  12.497
52446W        W24117  39.085  36.696   4.338
52447W        W24118  14.584  20.026  10.320
52448W        W24119  34.668  26.720   0.850
52449W        W24120  42.282  41.945  11.192
52450W        W24121  39.258   0.455  13.910
52451W        W24122  43.825  23.546  12.028
52452W        W24123  37.831  40.532   1.171
52453W        W24124   6.221  16.514  14.468
52454W        W24125   7.102  11.594   3.235
52455W        W24126  22.650   6.645  13.585
52456W        W24127  10.692   0.655  13.815
52457W        W24128  18.825   3.640  13.972
52458W        W24129  12.547  28.880  11.203
52459W        W24130  31.638  26.406   3.735
52460W        W24131  43.883   1.305  14.444
52461W        W24132  16.844  18.586   1.325
52462W        W24133  35.100  33.612  12.470
52463W        W24134  21.013  31.163  13.043
52464W        W24135  28.231  33.542  11.509
52465W        W24136  20.014   8.973   3.282
52466W        W24137  36.081   1.381   2.152
52467W        W24138  20.924   3.836  12.137
52468W        W24139  32.231  20.724  13.291
52469W        W24140  38.599  35.695   2.200
52470W        W24141   7.081  24.671   3.486
52471W        W24142  42.827  40.606   3.213
52472W        W24143  15.317   5.737   2.329
52473W        W24144   6.815   2.419  12.905
52474W        W24145   6.155   8.845   2.574
52475W        W24146  33.048  40.322   1.825
52476W        W24147  43.289   8.092  14.449
52477W        W24148  19.451  24.586  11.404
52478W        W24149  29.838  39.541   0.845
52479W        W24150   8.904  11.723  10.743
52480W        W24151  25.571  43.207   3.835
52481W        W24152   6.286  11.479  10.114
52482W        W24153  10.180   5.095   4.575
52483W        W24154  25.523  17.709  14.721
52484W        W24155  23.577  16.552   1.747
52485W        W24156   3.232   5.813   3.741
52486W        W24157  13.268  18.665   2.711
52487W        W24158  36.957  33.539   1.365
52488W        W24159  21.559  25.216  12.425
52489W        W24160   8.820  14.785   4.194
52490W        W24161   6.140  20.756   4.243
52491W        W24162  37.150  23.573   0.383
52492W        W24163  35.974  40.441  10.486
52493W        W24164   4.652  34.503  12.374
52494W        W24165  21.734  22.789  11.679
52495W        W24166  16.253  35.970  14.428
52496W        W24167  12.879  17.527   0.154
52497W        W24168  27.260  38.891   2.422
52498W        W24169  22.518  10.232   0.464
52499W        W24170   7.435  14.183   4.687
52500W        W24171  44.712  23.117   3.611
52501W        W24172  26.318  42.812  13.763
52502W        W24173  17.592  20.603   1.404
52503W        W24174  44.795  14.565  10.316
52504W        W24175   7.701  42.852  13.489
52505W        W24176  14.207   3.414   5.053
52506W        W24177  12.141  28.950  10.889
52507W        W24178  20.653  39.045  11.179
52508W        W24179   7.269   6.212   4.564
52509W        W24180   5.842  36.474   3.031
52510W        W24181   3.927  20.733   3.130
52511W        W24182   8.383  21.809   2.335
52512W        W24183  10.769  16.091   0.850
52513W        W24184   7.916  21.175  12.970
52514W        W24185  44.023  15.585   4.198
52515W        W24186   5.357  39.473   0.941
52516W        W24187  26.687   1.784  13.926
52517W        W24188  17.347  40.851  11.559
52518W        W24189  35.788  43.380   3.176
52519W        W24190   3.961  36.484  12.042
52520W        W24191   4.466   1.874  10.772
52521W        W24192  40.139  14.400  13.612
52522W        W24193  11.139  39.993   1.226
52523W        W24194  20.286  26.487   4.183
52524W        W24195  28.965  33.797  12.451
52525W        W24196  29.653  23.566   0.931
52526W        W24197  14.062  14.186   0.972
52527W        W24198   2.933  37.047  13.283
52528W        W24199  37.868  44.007  11.135
52529W        W24200  27.727  22.494   0.837
52530W        W24201  34.895   3.140   3.303
52531W        W24202   8.640  15.787  12.892
52532W        W24203  10.931   5.142   0.397
52533W        W24204  29.458   9.880  10.695
52534W        W24205  37.342   6.834   4.481
52535W        W24206  29.264  27.432   3.438
52536W        W24207   8.782  40.306  14.616
52537W        W24208  10.660  19.108   1.284
52538W        W24209   1.799  19.637  11.925
52539W        W24210  36.322   8.816   1.129
52540W        W24211  42.762  38.295   1.915
52541W        W24212  36.394  24.688  13.514
52542W        W24213  27.205   9.937  13.817
52543W        W24214   0.766  11.326  11.539
52544W        W24215   1.407  19.104  11.553
52545W        W24216  12.781  11.386   0.482
52546W        W24217  27.358  23.743   1.401
52547W        W24218  40.066  40.354  11.121
52548W        W24219  21.254  25.965  14.271
52549W        W24220  38.366  42.979   4.661
52550W        W24221  19.422  38.727   2.663
52551W        W24222   8.134  31.797   0.430
52552W        W24223  21.301   7.201  14.328
52553W        W24224  20.224  20.816  14.839
52554W        W24225  33.905   5.998  12.183
52555W        W24226  22.211  37.180   2.967
52556W        W24227  17.777   7.766  14.679
52557W        W24228  37.586  17.804  12.800
52558W        W24229  17.905  32.579   1.693
52559W        W24230  19.114  32.611   0.883
52560W        W24231  13.141  20.792  10.868
52561W        W24232  18.218  34.784   3.721
52562W        W24233  36.415  43.726   0.534
52563W        W24234  16.527   3.027  10.755
52564W        W24235  42.829  29.442  11.097
52565W        W24236   4.858  39.353  13.518
52566W        W24237   7.937  29.533   2.224
52567W        W24238  28.872  22.369   0.185
52568W        W24239  29.442   0.931  12.996
52569W        W24240  37.942  21.067  12.654
52570W        W24241  23.288  17.156  14.916
52571W        W24242  35.373  19.185  11.471
52572W        W24243  30.156  40.760  12.010
52573W        W24244   1.073  15.480   3.599
52574W        W24245  42.181  29.655   4.071
52575W        W24246  24.616  22.376  10.849
52576W        W24247  34.964   4.364   3.293
52577W        W24248  10.376  44.822  10.132
52578W        W24249   1.035  34.977  14.479
52579W        W24250  17.469  26.116   4.646
52580W        W24251  23.768  39.605   4.578
52581W        W24252  13.569  32.868  11.471
52582W        W24253   4.574  26.946   4.392
52583W        W24254  44.854  33.140   3.850
52584W        W24255  35.962  32.975   0.210
52585W        W24256  10.945  39.959  10.450
52586W        W24257  33.424  34.334   0.173
52587W        W24258  10.819  13.130   2.717
52588W        W24259  42.774  12.324   4.289
52589W        W24260  11.634  14.912   0.726
52590W        W24261  17.183  16.983  13.486
52591W        W24262  21.497  17.085  13.468
52592W        W24263   5.903  40.911  11.357
52593W        W24264   4.336  35.458   4.867
52594W        W24265  24.153  10.274  11.660
52595W        W24266  10.205   1.905   0.014
52596W        W24267  22.767  27.120   3.347
52597W        W24268   9.514   6.140   0.909
52598W        W24269  29.377  12.755   5.232
52599W        W24270  10.673   1.072   4.966
52600W        W24271  13.381  30.510   1.893
52601W        W24272  29.329  41.024  14.754
52602W        W24273  30.136  12.607   4.997
52603W        W24274  15.868  12.134  10.587
52604W        W24275  44.827   8.597  14.348
52605W        W24276  15.735  22.432  13.940
52606W        W24277  24.227  15.747  11.914
52607W        W24278  41.497  35.779   4.061
52608W        W24279   5.232  36.098  14.317
52609W        W24280  31.780  16.084   4.675
52610W        W24281  11.276  17.169   1.089
52611W        W24282  44.360   2.984  12.922
52612W        W24283  43.767  15.865   2.244
52613W        W24284  29.910  10.310  14.916
52614W        W24285  12.279  10.952   3.050
52615W        W24286  44.771  44.867   2.907
52616W        W24287   3.291  26.644   0.444
52617W        W24288  25.009  26.429   0.255
52618W        W24289  22.173   3.322   3.283
52619W        W24290  13.750  31.166   1.356
52620W        W24291   6.996  38.104   4.156
52621W        W24292  27.505  13.619   1.858
52622W        W24293  18.997   2.229  11.465
52623W        W24294  23.205  23.460  12.018
52624W        W24295  35.294  41.048   2.425
52625W        W24296  39.441  23.561  10.599
52626W        W24297  22.491  36.080  10.478
52627W        W24298   0.371  23.532   2.357
52628W        W24299  16.300  30.674   3.610
52629W        W24300  25.612   6.087  12.134
52630W        W24301  24.333  30.724   1.162
52631W        W24302  34.534  12.103   2.430
52632W        W24303   7.818  39.108   4.590
52633W        W24304  42.512  34.375   4.912
52634W        W24305  19.086  37.857   0.877
52635W        W24306  37.417   8.390  12.512
52636W        W24307  24.472  14.339   2.321
52637W        W24308   1.386  34.842   2.683
52638W        W24309   0.183  19.301  13.227
52639W        W24310  32.152  42.494  11.596
52640W        W24311  26.872   0.846  13.981
52641W        W24312  35.843   3.385   3.728
52642W        W24313  31.915  15.688  10.560
52643W        W24314  44.724  14.391  14.500
52644W        W24315  44.383  18.475  10.246
52645W        W24316  13.637   1.540  13.841
52646W        W24317  41.223  44.518  13.571
52647W        W24318  39.403  10.154   0.008
52648W        W24319   4.094  11.146  10.732
52649W        W24320  34.073  43.075  13.079
52650W        W24321  28.859  33.128   1.655
52651W        W24322  19.142  21.269   3.953
52652W        W24323  39.640  35.847  11.255
52653W        W24324  11.750  15.370  12.073
52654W        W24325   8.851   7.485   4.592
52655W        W24326  41.038  15.761  14.119
52656W        W24327  12.456  12.860  12.645
52657W        W24328  40.015  15.743  12.159
52658W        W24329  35.608  25.004  10.651
52659W        W24330  27.718  20.025   0.216
52660W        W24331   7.509  39.097  12.034
52661W        W24332  23.557  43.024   3.223
52662W        W24333  19.277  32.678   2.030
52663W        W24334  28.664   3.615   1.751
52664W        W24335  22.136  31.414   1.863
52665W        W24336  11.781  25.434   4.750
52666W        W24337  13.401  21.283  11.540
52667W        W24338   5.155  26.174   2.885
52668W        W24339  34.152  38.486  14.528
52669W        W24340  21.651  41.210   3.704
52670W        W24341  34.839   9.618   0.981
52671W        W24342  35.311   3.445   4.561
52672W        W24343  17.302  29.127   1.224
52673W        W24344  43.790  27.414  10.604
52674W        W24345  44.111   3.910   2.862
52675W        W24346  34.008  42.767  10.265
52676W        W24347  44.823  22.150   0.884
52677W        W24348  17.186  24.709  10.945
52678W        W24349  25.967  22.160   4.876
52679W        W24350  29.563  32.058   1.698
52680W        W24351  42.774  15.689   4.373
52681W        W24352  26.288  37.506  14.880
52682W        W24353  15.228   6.209  11.145
52683W        W24354  21.760  18.149  11.293
52684W        W24355  44.457  18.981   4.764
52685W        W24356  27.558  11.107  13.761
52686W        W24357  33.060   3.517  13.451
52687W        W24358  43.506  38.349  10.771
52688W        W24359  28.490  30.000   0.414
52689W        W24360  10.456   0.759   2.944
52690W        W24361  14.666   2.780   3.846
52691W        W24362  24.064  17.584  12.778
52692W        W24363  30.700  26.617   1.504
52693W        W24364  27.079  26.038  12.597
52694W        W24365  42.347  10.302   1.285
52695W        W24366  34.760  39.417   4.661
52696W        W24367  16.241  36.969  13.786
52697W        W24368   3.475  33.914   4.727
52698W        W24369   1.276  31.382   3.319
52699W        W24370  41.511  10.792   4.175
52700W        W24371  15.227  15.836  12.736
52701W        W24372  43.503  27.041  14.848
52702W        W24373  24.037  11.351   4.514
52703W        W24374  31.995  11.435  12.561
52704W        W24375  43.030   3.790   3.824
52705W        W24376   7.926  39.887  12.292
52706W        W24377  27.680   1.310   0.403
52707W        W24378   4.216  20.646  13.977
52708W        W24379  33.004   9.179   1.250
52709W        W24380   8.216   0.748   1.885
52710W        W24381  33.942  27.463  13.635
52711W        W24382  32.969   6.851  10.876
52712W        W24383  17.492  22.415  11.194
52713W        W24384  30.884  42.767   3.706
52714W        W24385  40.568  27.612   3.375
52715W        W24386  11.117  32.666   2.300
52716W        W24387  42.953  34.662  12.944
52717W        W24388  37.547  20.781   0.286
52718W        W24389   9.063  29.898  10.360
52719W        W24390  44.987   7.659  12.393
52720W        W24391   8.599  12.884   2.363
52721W        W24392  39.917  14.897   4.869
52722W        W24393   7.634  37.803   1.467
52723W        W24394  39.651  37.502   1.125
52724W        W24395  24.186  38.744   4.639
52725W        W24396   0.509  20.264   4.515
52726W        W24397  41.023   5.901   3.274
52727W        W24398   4.228  39.148   2.813
52728W        W24399  17.318  19.530   1.835
52729W        W24400  29.147   5.908   2.849
52730W        W24401  25.761  38.489  11.608
52731W        W24402   3.303  11.897   1.365
52732W        W24403  19.178  22.701   1.287
52733W        W24404   5.623  38.396   4.129
52734W        W24405  30.978  19.865  10.121
52735W        W24406  22.119  33.453  13.551
52736W        W24407   1.115   4.321  10.693
52737W        W24408   0.369  40.517   2.838
52738W        W24409   1.648  15.500  14.150
52739W        W24410  26.792   7.109  10.014
52740W        W24411   7.192   0.187  10.753
52741W        W24412   3.547  34.485  11.476
52742W        W24413  21.824  14.381  10.913
52743W        W24414   1.995  14.577  13.876
52744W        W24415  12.430  29.480   1.398
52745W        W24416  14.346  39.027  10.718
52746W        W24417   3.373  26.463  11.168
52747W        W24418  14.094  23.973  10.518
52748W        W24419  12.230  44.808   4.718
52749W        W24420  18.524   7.357   0.717
52750W        W24421   9.943  18.252  10.680
52751W        W24422  32.128  37.602  10.531
52752W        W24423  14.123   1.464  13.252
52753W        W24424  26.647  38.260  13.072
52754W        W24425   5.798  11.672  14.758
52755W        W24426  35.036  13.899   2.847
52756W        W24427   1.256   3.195   3.367
52757W        W24428  24.416  33.509  11.301
52758W        W24429   2.960  15.034   0.270
52759W        W24430  12.701  44.716  12.051
52760W        W24431  33.600  43.815  13.887
52761W        W24432  23.742  36.701  14.298
52762W        W24433  19.169   2.701  13.755
52763W        W24434  43.530  37.031  11.411
52764W        W24435   8.332  19.541  14.969
52765W        W24436  36.323  37.040   3.802
52766W        W24437   2.423   4.352   3.138
52767W        W24438  44.052  42.707  10.272
52768W        W24439  20.233  14.826   2.160
52769W        W24440  18.637  14.707  13.300
52770W        W24441  16.023   0.779   1.849
52771W        W24442  16.063  43.784  10.792
52772W        W24443  18.128  18.622  12.402
52773W        W24444  22.718  11.230  13.841
52774W        W24445  28.525  10.873   0.742
52775W        W24446  39.897   0.812   1.892
52776W        W24447  31.049  26.724  14.785
52777W        W24448  16.623  39.810   0.758
52778W        W24449  33.344  22.575   3.633
52779W        W24450  24.199  29.394  10.742
52780W        W24451  10.867  33.622  11.458
52781W        W24452  20.084  13.633   4.105
52782W        W24453  32.944   2.145   2.160
52783W        W24454   2.982  10.895  11.593
52784W        W24455   2.435  39.940  13.018
52785W        W24456  28.253  23.564   0.802
52786W        W24457  29.006   4.217   2.777
52787W        W24458  31.945  18.706  13.520
52788W        W24459  26.797  18.099   0.593
52789W        W24460  22.886  27.117   4.697
52790W        W24461  13.066  23.968  11.742
52791W        W24462   0.273  24.487   4.581
52792W        W24463   6.271  40.472  12.068
52793W        W24464   7.718   1.731  12.517
52794W        W24465  28.038  42.142  13.956
52795W        W24466  12.663   4.881   5.055
52796W        W24467  12.001  11.272   2.234
52797W        W24468  23.504  21.179  13.513
52798W        W24469  31.598  43.959  12.593
52799W        W24470   2.268  24.632   3.224
52800W        W24471   8.320  31.008   4.173
52801W        W24472  12.246   7.635  14.410
52802W        W24473  16.335  32.932   1.007
52803W        W24474  11.438  43.030   0.629
52804W        W24475  43.008  20.229  12.137
52805W        W24476  34.103  24.066   1.917
52806W        W24477   5.235  10.294   0.322
52807W        W24478  23.986  40.283   2.857
52808W        W24479   1.037  30.224   0.312
52809W        W24480  39.274  15.732  10.990
52810W        W24481  39.944  22.214  11.093
52811W        W24482  13.649  35.930  12.317
52812W        W24483  11.140  12.614  11.643
52813W        W24484   7.149   9.706  12.335
52814W        W24485  41.503  30.853   2.984
52815W        W24486  42.992  39.332   1.204
52816W        W24487  26.448  40.404   4.944
52817W        W24488  32.184  42.449  12.117
52818W        W24489  15.194  18.637   1.229
52819W        W24490  36.694  21.281   4.376
52820W        W24491  32.531  38.292   1.428
52821W        W24492  17.367   0.555  13.516
52822W        W24493  11.937  43.096   3.500
52823W        W24494  25.465  19.830  12.664
52824W        W24495  25.444  13.060  13.043
52825W        W24496  19.330  17.806  11.185
52826W        W24497  32.313  10.296  11.986
52827W        W24498  21.029  37.836   2.778
52828W        W24499  38.545  29.506  14.492
52829W        W24500  41.524  44.844  13.267
52830W        W24501  16.322   5.628  14.111
52831W        W24502  10.063  19.033   2.565
52832W        W24503  28.211  42.523   1.454
52833W        W24504  19.158  14.156   0.437
52834W        W24505  19.253  31.729   1.632
52835W        W24506  31.622  43.944  13.500
52836W        W24507  12.941  33.184   3.224
52837W        W24508  43.359  41.840  14.355
52838W        W24509   8.143   9.178  11.950
52839W        W24510  30.559  37.896  13.715
52840W        W24511  14.037  38.977  13.828
52841W        W24512  38.373  16.219  12.229
52842W        W24513  37.035   9.785  10.529
52843W        W24514  17.092  17.782   3.782
52844W        W24515  41.335  43.789  13.083
52845W        W24516  36.498  39.795  10.135
52846W        W24517  11.363  16.368   1.489
52847W        W24518  20.657  24.709  12.973
52848W        W24519  12.835  39.450   0.384
52849W        W24520  14.888  40.565   3.647
52850W        W24521  11.604  34.541   1.423
52851W        W24522  38.679   5.878  11.220
52852W        W24523  28.355  11.574  11.924
52853W        W24524   5.642  30.218   2.747
52854W        W24525  15.561   2.897  12.453
52855W        W24526  33.843   0.687  12.110
52856W        W24527  42.031  39.762   3.810
52857W        W24528  27.103  32.540   4.059
52858W        W24529  43.979   0.189  12.536
52859W        W24530  25.053  26.577  14.349
52860W        W24531  15.914  28.132  14.755
52861W        W24532  25.688  23.216  13.405
52862W        W24533   0.372   9.470   2.931
52863W        W24534  41.183  44.693   1.255
52864W        W24535  17.655  11.606  12.031
52865W        W24536   7.991  44.340  11.628
52866W        W24537  30.487  14.817  12.874
52867W        W24538  39.903  33.092   2.242
52868W        W24539  21.156  27.676   1.688
52869W        W24540  41.995   0.788  12.436
52870W        W24541  35.306   4.275  14.975
52871W        W24542  17.757  16.912   4.420
52872W        W24543  22.472  22.057  10.741
52873W        W24544  22.349  15.239  14.956
52874W        W24545  25.102  26.017  10.973
52875W        W24546  15.772   5.381   0.262
52876W        W24547   8.696  24.963  13.774
52877W        W24548  38.359   7.048  14.065
52878W        W24549   0.321  35.988   1.095
52879W        W24550  17.073  33.075  11.861
52880W        W24551  15.975  30.140   0.737
52881W        W24552  18.254  26.676  10.147
52882W        W24553  10.920  43.839   2.944
52883W        W24554  30.066   4.668  12.575
52884W        W24555   2.383   5.584  10.931
52885W        W24556   2.279   6.727   3.438
52886W        W24557  41.841  24.202  11.643
52887W        W24558   5.819  24.556   3.647
52888W        W24559  22.873   0.968   3.303
52889W        W24560  35.409  30.740  14.097
52890W        W24561  22.627  24.151   1.422
52891W        W24562   4.350  28.979  12.884
52892W        W24563  35.906  18.743   4.570
52893W        W24564  29.744  27.597   4.964
52894W        W24565  21.495  37.536   0.955
52895W        W24566   2.880  12.328  13.445
52896W        W24567  30.601  41.453  10.486
52897W        W24568   8.074  33.062  11.536
52898W        W24569  11.598  37.424  14.898
52899W        W24570   7.873   0.057  10.049
52900W        W24571  21.294  36.610  11.731
52901W        W24572  36.549  17.364   3.726
52902W        W24573  20.589  29.080  13.551
52903W        W24574   0.768  18.128   4.375
52904W        W24575  17.151  33.600  10.081
52905W        W24576  17.325  25.254  10.146
52906W        W24577  19.656  43.637   3.715
52907W        W24578   8.213  25.573  10.832
52908W        W24579  12.625  42.772   3.766
52909W        W24580  33.607  36.306  10.780
52910W        W24581  19.146  27.573   0.899
52911W        W24582  29.890  35.410  13.463
52912W        W24583  34.626  24.010  10.574
52913W        W24584   2.802  22.757  11.106
52914W        W24585  42.135  38.685   9.821
52915W        W24586  22.420  32.844  12.376
52916W        W24587  28.528   3.851  11.492
52917W        W24588  10.329  41.806  14.007
52918W        W24589  36.649  43.805  13.057
52919W        W24590  28.540  10.403  14.871
52920W        W24591  37.791   8.688  13.841
52921W        W24592   2.375  21.386  10.404
52922W        W24593  34.543  29.201   2.264
52923W        W24594   8.694   6.005   4.965
52924W        W24595  41.534  23.024  14.446
52925W        W24596   9.102   0.230   2.759
52926W        W24597   4.215  23.318  14.550
52927W        W24598  25.111  11.805   3.588
52928W        W24599  40.830  32.959   1.392
52929W        W24600  13.129  37.078  10.797
52930W        W24601  42.633  10.912   9.781
52931W        W24602   4.241  36.716  10.589
52932W        W24603   0.236  30.432   2.641
52933W        W24604   2.241  18.562   2.212
52934W        W24605  14.504  12.334   1.268
52935W        W24606  38.953  42.077   1.622
52936W        W24607  17.275  35.891   1.773
52937W        W24608  19.058  15.298   2.945
52938W        W24609  10.263   2.151  11.612
52939W        W24610   3.165  13.156  12.434
52940W        W24611   1.742   3.883  13.161
52941W        W24612  23.483   8.253   3.762
52942W        W24613  34.377  40.887  13.971
52943W        W24614  16.818  24.793   3.279
52944W        W24615  38.916   3.739   4.613
52945W        W24616  37.112  36.964   4.046
52946W        W24617  40.517  10.199   3.155
52947W        W24618  39.004  17.117  13.036
52948W        W24619  30.467  10.907  11.116
52949W        W24620  18.316  15.252  14.828
52950W        W24621   5.872  37.043   0.334
52951W        W24622  40.901  33.110  12.072
52952W        W24623  42.296  11.276  14.340
52953W        W24624  30.902  40.578   2.421
52954W        W24625   3.819  10.672   3.098
52955W        W24626  19.751  12.652  11.459
52956W        W24627  42.904  10.308  10.075
52957W        W24628  13.643  36.232  13.946
52958W        W24629  17.694  43.068  11.201
52959W        W24630  37.816  37.099   3.455
52960W        W24631  38.534  36.210  13.437
52961W        W24632  22.689  33.618  10.557
52962W        W24633  26.244  41.123   3.423
52963W        W24634  29.045  26.837  10.786
52964W        W24635  41.742  44.974   0.953
52965W        W24636  22.219  34.862  13.385
52966W        W24637  42.733  41.017  12.130
52967W        W24638  35.940  13.111  10.660
52968W        W24639  20.252  29.456   4.335
52969W        W24640  22.151  43.430  12.387
52970W        W24641  29.116  22.155  13.447
52971W        W24642  33.077  14.086   4.314
52972W        W24643  44.575   6.812   4.250
52973W        W24644  11.580  27.708   0.328
52974W        W24645   7.818  41.488  13.728
52975W        W24646  34.980  39.661   4.203
52976W        W24647  13.853  21.809  12.391
52977W        W24648  21.484  19.083  13.129
52978W        W24649  39.316  38.622  11.572
52979W        W24650  27.682   9.151   3.535
52980W        W24651   4.683  30.265   4.114
52981W        W24652  19.756  36.885  14.467
52982W        W24653   7.330  44.955  11.216
52983W        W24654  30.880  21.203  10.653
52984W        W24655  32.151  28.221  13.784
52985W        W24656   8.462  15.020   2.627
52986W        W24657  40.849  14.400  12.912
52987W        W24658   3.465  10.595  12.469
52988W        W24659   2.944  31.484  14.054
52989W        W24660  43.769  31.068  13.091
52990W        W24661  39.783  23.499   2.930
52991W        W24662  42.389  11.438   9.987
52992W        W24663  28.614  19.651  11.839
52993W        W24664  41.857   0.346  13.799
52994W        W24665  27.135   8.606   3.192
52995W        W24666   1.522   7.233   4.282
52996W        W24667  39.293  22.788   1.260
52997W        W24668  26.013  22.032  10.777
52998W        W24669  28.681  21.449  12.852
52999W        W24670   7.983   8.951  13.473
53000W        W24671  32.945  35.033  14.896
53001W        W24672   8.166  19.785  13.279
53002W        W24673  29.631  21.866   3.404
53003W        W24674  24.158   2.283   3.286
53004W        W24675   5.744  11.146  14.774
53005W        W24676   7.004  15.831   1.655
53006W        W24677  30.541  37.493  10.469
53007W        W24678  36.800   8.205   1.368
53008W        W24679  21.706  23.413   3.582
53009W        W24680  26.465  11.305   4.384
53010W        W24681  30.101  22.798   2.226
53011W        W24682  21.766   0.980   0.341
53012W        W24683   3.328  19.723   2.218
53013W        W24684  26.534  41.838   2.008
53014W        W24685   9.341  34.970   4.202
53015W        W24686  28.184  15.092  12.981
53016W        W24687  41.775  13.643  11.266
53017W        W24688   1.724   2.385   2.170
53018W        W24689  26.483  12.273   1.359
53019W        W24690  40.964   6.716   0.363
53020W        W24691  23.667  36.356  11.246
53021W        W24692   9.043  23.200   3.140
53022W        W24693  44.504  41.612  13.414
53023W        W24694   8.309  43.251   4.576
53024W        W24695  17.699  25.163  11.988
53025W        W24696   3.478   2.374  13.253
53026W        W24697  13.402  34.200   3.203
53027W        W24698  24.626  40.275  10.697
53028W        W24699  10.836  13.009   3.207
53029W        W24700  24.657  32.393   1.899
53030W        W24701  39.682  25.764   2.772
53031W        W24702   9.798  16.687   3.593
53032W        W24703  28.674   7.554   2.514
53033W        W24704  16.367  21.047  14.561
53034W        W24705  30.173  16.160  13.629
53035W        W24706  35.505   7.919  12.975
53036W        W24707  23.033  22.529   0.866
53037W        W24708  41.281  31.668  13.809
53038W        W24709  19.156   6.652  13.874
53039W        W24710   8.543  44.369   2.696
53040W        W24711  43.674  44.295  12.983
53041W        W24712  41.606  26.569   1.036
53042W        W24713   6.245  28.849  10.955
53043W        W24714   3.759   1.913   4.561
53044W        W24715  43.793  19.832  11.647
53045W        W24716   8.332   1.415   2.764
53046W        W24717   3.594  36.079  12.012
53047W        W24718  29.458  42.547  12.871
53048W        W24719  39.942  30.954  14.869
53049W        W24720   9.753  43.209  10.711
53050W        W24721  39.341  19.317   2.900
53051W        W24722  21.074  38.822   0.740
53052W        W24723  27.428   8.322  12.623
53053W        W24724  12.504   7.178   1.283
53054W        W24725  21.965  30.039  14.513
53055W        W24726  26.036  37.088  13.502
53056W        W24727   4.745   3.251   1.214
53057W        W24728  42.407   8.911   3.185
53058W        W24729  41.249   3.927  10.720
53059W        W24730   6.873  35.060   3.812
53060W        W24731  27.033  27.139   3.537
53061W        W24732  44.067  17.046   1.397
53062W        W24733  22.023  21.815   3.230
53063W        W24734  44.254  22.234   4.080
53064W        W24735  17.949  13.105  14.276
53065W        W24736  38.088  26.440   2.675
53066W        W24737  37.285  26.735  10.626
53067W        W24738  14.358  30.386  13.396
53068W        W24739  35.451  13.328   4.925
53069W        W24740   7.633  22.275  14.542
53070W        W24741  14.128   6.350   3.519
53071W        W24742  10.946  10.806  11.050
53072W        W24743  36.150  32.001   3.300
53073W        W24744  34.860   1.883  14.019
53074W        W24745  18.210  21.607  14.767
53075W        W24746  41.548  11.144  13.859
53076W        W24747  26.396  35.312   2.780
53077W        W24748  15.002  30.491   2.924
53078W        W24749  44.821  34.396  14.730
53079W        W24750  25.666  39.330  11.606
53080W        W24751   6.363  15.231   4.187
53081W        W24752  11.465  16.654   2.841
53082W        W24753  43.806   5.408  12.088
53083W        W24754  35.621  34.972  14.251
53084W        W24755  22.644   7.995   1.837
53085W        W24756  40.079  37.401  14.468
53086W        W24757  24.621  15.374   0.014
53087W        W24758  10.063  31.633  13.457
53088W        W24759  34.477  41.451   2.705
53089W        W24760  17.626  22.188   4.439
53090W        W24761  37.362  20.721  14.795
53091W        W24762  17.580   0.228  13.907
53092W        W24763  44.004  10.088   4.918
53093W        W24764  30.481   7.287   2.471
53094W        W24765  44.063  35.410   1.002
53095W        W24766   4.259   4.444   4.597
53096W        W24767  11.834  12.100   1.047
53097W        W24768   8.217  38.108   3.209
53098W        W24769  24.131  35.344   3.138
53099W        W24770   2.099  36.902   3.232
53100W        W24771   5.329  13.592   1.809
53101W        W24772  37.467  13.664  13.950
53102W        W24773  23.271  40.841  14.287
53103W        W24774  11.805  41.440  14.507
53104W        W24775  21.381  16.729   2.834
53105W        W24776  41.876  35.249   2.692
53106W        W24777  38.243  28.370   2.745
53107W        W24778  28.658   0.454  11.443
53108W        W24779   0.457  28.375   1.862
53109W        W24780   8.407  22.087   3.758
53110W        W24781  37.142  42.926  13.065
53111W        W24782  18.813  27.491  10.550
53112W        W24783  36.931   6.138  12.979
53113W        W24784   6.258  39.576  13.565
53114W        W24785   2.185  33.373   0.407
53115W        W24786  10.322  29.871  11.168
53116W        W24787  16.573  29.939  14.061
53117W        W24788   4.677  44.807  13.310
53118W        W24789   7.819   1.162  11.062
53119W        W24790  21.558   4.387   2.421
53120W        W24791  19.292  36.520   2.353
53121W        W24792   2.282  17.409   3.646
53122W        W24793  40.580  21.330   1.908
53123W        W24794   9.227  26.072  14.317
53124W        W24795  10.737  16.238   0.349
53125W        W24796  36.717   6.706  11.705
53126W        W24797  16.553  42.337   1.257
53127W        W24798  18.537   3.807  11.960
53128W        W24799  17.172   7.236  12.629
53129W        W24800  44.044  23.651  12.894
53130W        W24801  34.705  33.541   0.927
53131W        W24802  20.799  31.598   1.292
53132W        W24803  17.544  34.825   0.970
53133W        W24804  37.438  40.137   2.870
53134W        W24805  33.313  39.352   4.104
53135W        W24806  28.675  43.827  13.936
53136W        W24807  31.680  31.137   0.771
53137W        W24808  36.985  35.030  11.492
53138W        W24809   8.836  35.583   2.911
53139W        W24810  27.756  22.063  12.184
53140W        W24811  41.093   5.547  14.757
53141W        W24812   3.956  44.714  14.003
53142W        W24813  32.026  44.528   2.504
53143W        W24814  11.791  42.449   4.113
53144W        W24815  36.050  36.526  10.603
53145W        W24816  27.066   3.904   0.527
53146W        W24817   5.753  27.698  14.694
53147W        W24818  28.048  38.590  12.798
53148W        W24819   9.665  23.322  14.303
53149W        W24820  14.645   7.709   0.345
53150W        W24821  41.460  24.895   4.789
53151W        W24822  27.471  26.506  14.476
53152W        W24823  40.829  13.532   1.157
53153W        W24824  14.626   3.742  12.024
53154W        W24825  32.970   3.020  14.469
53155W        W24826  32.184  35.709   1.838
53156W        W24827  20.438  15.279   2.300
53157W        W24828  35.000  32.400  13.886
53158W        W24829  41.094  18.624  13.454
53159W        W24830  11.017  35.025  12.136
53160W        W24831   6.859  20.710  11.118
53161W        W24832  16.466  16.582   3.229
53162W        W24833   1.461  18.806   2.782
53163W        W24834  28.725   6.229   2.288
53164W        W24835  24.759  34.566   1.894
53165W        W24836   0.918  24.267   3.425
53166W        W24837  32.506  24.740   4.158
53167W        W24838  22.747   2.320   4.352
53168W        W24839  13.861  33.525   1.798
53169W        W24840  14.900  35.993   3.408
53170W        W24841  34.305  20.395  12.894
53171W        W24842   8.873   5.989  13.684
53172W        W24843  17.754  20.123  12.752
53173W        W24844  12.806   9.181   2.676
53174W        W24845  22.967  11.074   3.642
53175W        W24846  29.584  20.366  13.925
53176W        W24847  13.606   4.458  12.821
53177W        W24848  37.412  31.021   4.622
53178W        W24849   1.931  19.134  13.856
53179W        W24850  43.235  37.259  11.024
53180W        W24851  22.743  40.276   5.035
53181W        W24852  15.838  38.343   3.718
53182W        W24853  42.244  36.582  10.547
53183W        W24854  32.658  35.807   2.836
53184W        W24855  24.226   1.281  14.364
53185W        W24856   8.285  42.493   4.880
53186W        W24857  43.179  20.610   0.697
53187W        W24858  10.251  27.594   0.501
53188W        W24859   7.314  23.621   1.791
53189W        W24860  13.447  20.775  13.755
53190W        W24861   2.044  44.669   0.863
53191W        W24862  42.885  33.836   2.633
53192W        W24863   5.119   3.643   3.360
53193W        W24864  17.694  25.061  10.915
53194W        W24865  22.335  31.113  12.032
53195W        W24866  11.241  31.479  10.462
53196W        W24867  24.042   8.749  14.400
53197W        W24868  34.951  44.458   3.322
53198W        W24869   7.939  34.086  12.485
53199W        W24870  34.600  31.396  12.034
53200W        W24871  21.382  37.006  12.772
53201W        W24872  43.612  40.877   1.921
53202W        W24873  12.336   9.303  14.097
53203W        W24874   3.676  33.544  12.071
53204W        W24875   2.327   8.284   1.448
53205W        W24876  19.614  39.454   4.080
53206W        W24877   1.315  38.066  10.664
53207W        W24878  30.020   9.206  12.425
53208W        W24879  20.539   0.774   4.665
53209W        W24880  35.507  42.452   0.647
53210W        W24881  19.598  31.428   1.882
53211W        W24882  28.773   2.001  12.254
53212W        W24883  34.891  28.004   0.796
53213W        W24884   5.184   9.737   0.491
53214W        W24885   2.040   4.199  10.939
53215W        W24886  38.282   7.867  11.587
53216W        W24887  34.965  44.573  13.054
53217W        W24888   0.696  32.788  13.292
53218W        W24889  25.499  19.818  13.212
53219W        W24890  34.436  17.034  14.448
53220W        W24891  19.323  30.463  12.981
53221W        W24892  42.353   7.719  13.877
53222W        W24893   1.869  21.942  11.916
53223W        W24894   9.197  22.489  12.908
53224W        W24895  28.543  11.796   4.457
53225W        W24896   3.019   7.308  13.972
53226W        W24897  16.861  32.430   1.785
53227W        W24898   4.739   1.679  13.356
53228W        W24899   3.331  41.483  14.540
53229W        W24900   4.375  35.353   3.479
53230W        W24901  10.449  18.293  13.460
53231W        W24902  19.465  39.240   2.760
53232W        W24903  42.255  25.468  10.795
53233W        W24904  21.799  21.447  11.175
53234W        W24905  42.993  33.476  12.930
53235W        W24906   2.953  38.747  12.076
53236W        W24907   5.378  21.798   0.003
53237W        W24908  28.973  12.750  14.300
53238W        W24909   3.737  43.864   1.703
53239W        W24910  20.738  33.035   4.351
53240W        W24911  14.591  22.871  11.132
53241W        W24912   6.887  41.812   4.563
53242W        W24913  16.134  15.642  10.553
53243W        W24914  13.153   7.653  12.543
53244W        W24915  11.856  16.900   0.760
53245W        W24916  36.847  15.916  14.094
53246W        W24917  33.623  21.314  12.917
53247W        W24918  37.253  26.651   4.110
53248W        W24919  29.308   1.962   3.222
53249W        W24920  23.467  43.886  10.731
53250W        W24921  24.582  35.308  12.109
53251W        W24922  18.247  19.549  14.363
53252W        W24923   2.970  12.855   3.827
53253W        W24924   6.419   9.033   1.861
53254W        W24925  17.478  43.484   1.515
53255W        W24926   4.737  39.303   4.339
53256W        W24927   3.906  35.552   1.171
53257W        W24928  21.286  18.326  12.868
53258W        W24929  40.410   5.431   1.924
53259W        W24930  42.031  17.289  14.189
53260W        W24931   4.479   3.307   4.146
53261W        W24932  21.307  40.862  14.297
53262W        W24933  39.438  42.592   1.202
53263W        W24934  30.525  24.298  12.108
53264W        W24935  32.177   9.113   3.718
53265W        W24936  11.769  32.827   1.278
53266W        W24937   3.534   3.879  10.841
53267W        W24938  35.888  36.084   3.701
53268W        W24939  25.519   2.455   3.300
53269W        W24940  19.284  36.136  13.307
53270W        W24941  30.388  22.149   2.793
53271W        W24942  12.232   3.819  12.605
53272W        W24943  43.490  43.347  11.400
53273W        W24944  12.765  29.438  14.021
53274W        W24945   6.175  26.773  12.402
53275W        W24946  17.330   8.638  12.493
53276W        W24947  35.030  20.254   0.904
53277W        W24948  34.904   2.291  12.657
53278W        W24949  36.016   3.211  12.493
53279W        W24950   4.813  26.912   2.331
53280W        W24951   7.480  10.243  10.209
53281W        W24952  24.915  39.096  13.240
53282W        W24953   6.891  40.536  12.838
53283W        W24954   4.627  27.706  11.011
53284W        W24955  27.336  24.283   1.368
53285W        W24956  32.745  29.854   0.697
53286W        W24957  30.725   0.966  13.386
53287W        W24958   9.382  25.256  10.632
53288W        W24959  26.375   6.446   2.646
53289W        W24960  15.096  40.351   1.872
53290W        W24961   0.850  36.833  14.014
53291W        W24962   2.273   0.505   3.617
53292W        W24963  26.436  28.736  10.924
53293W        W24964  19.087  41.224  12.066
53294W        W24965  34.014   6.751   1.213
53295W        W24966  13.217  39.010  10.797
53296W        W24967  31.867  31.800   1.342
53297W        W24968  11.145  35.440  12.432
53298W        W24969  17.652  12.094   3.279
53299W        W24970  27.116  11.766  14.029
53300W        W24971  10.900  42.987  11.451
53301W        W24972  31.511   7.581  10.993
53302W        W24973  35.492  17.779  13.938
53303W        W24974  44.455   4.800   1.213
53304W        W24975  44.846  43.240  11.552
53305W        W24976  43.507  20.799  10.545
53306W        W24977  11.599   1.427  10.377
53307W        W24978  22.967   7.483   2.906
53308W        W24979  17.357  34.352   1.734
53309W        W24980  23.755  11.901   2.215
53310W        W24981   2.270  27.090   0.901
53311W        W24982   4.422  13.342   2.399
53312W        W24983  18.628  20.557   3.557
53313W        W24984  32.961   7.682   0.391
53314W        W24985   0.295   3.281   3.978
53315W        W24986  38.027   2.729   2.187
53316W        W24987  39.881  36.875   3.911
53317W        W24988  29.247  18.252   0.177
53318W        W24989  29.715  14.792  11.219
53319W        W24990  14.655  33.930  13.424
53320W        W24991  24.821  16.949   4.900
53321W        W24992  44.024  36.639  13.246
53322W        W24993  44.645   5.763   4.655
53323W        W24994  42.413  24.564  13.910
53324W        W24995  27.544  35.012   1.022
53325W        W24996  11.844   2.580  11.959
53326W        W24997   9.269  40.006   1.054
53327W        W24998  23.689  11.327  13.479
53328W        W24999   6.665  19.739   1.157
53329W        W25000  13.161  17.338   4.985
53330W        W25001   7.529  40.732   2.635
53331W        W25002  33.084   8.137  14.295
53332W        W25003  19.155  26.145  12.371
53333W        W25004   1.932  44.611  14.556
53334W        W25005  34.567   4.044  11.876
53335W        W25006   3.446  26.779   2.493
53336W        W25007  15.071  17.785   0.440
53337W        W25008  28.568   4.980   4.851
53338W        W25009  20.186  14.297   4.612
53339W        W25010   8.815  41.481   1.464
53340W        W25011   9.314  32.462   2.760
53341W        W25012  28.414   9.402  12.951
53342W        W25013  36.040  36.178  10.176
53343W        W25014  16.207  38.273   4.086
53344W        W25015  22.313  20.225   1.801
53345W        W25016   0.745   4.142  13.038
53346W        W25017  15.842   7.600   3.306
53347W        W25018  32.932  43.652   0.985
53348W        W25019  20.813  42.440  10.366
53349W        W25020  37.746  18.041  12.386
53350W        W25021  34.541  34.616   1.989
53351W        W25022  32.668  36.625  12.504
53352W        W25023  24.679  28.045  12.885
53353W        W25024  29.334  22.817  10.214
53354W        W25025  30.193   1.881  10.659
53355W        W25026  15.610  23.009   2.770
53356W        W25027  15.495  12.330   1.329
53357W        W25028  38.888  14.773  12.995
53358W        W25029   6.858   8.860   5.116
53359W        W25030  25.064   7.454   3.231
53360W        W25031  13.911  37.284  12.332
53361W        W25032  31.583   9.316  11.915
53362W        W25033  43.553  23.724  10.250
53363W        W25034   6.059   2.936  11.586
53364W        W25035  17.752   2.188  12.063
53365W        W25036  28.603  27.007  13.914
53366W        W25037   3.017   1.030   2.224
53367W        W25038  44.984  38.712   2.906
53368W        W25039  30.629  33.950  14.963
53369W        W25040  36.996  31.049  13.054
53370W        W25041  23.716  41.323  12.097
53371W        W25042  21.342   9.911  10.196
53372W        W25043  20.601  18.054   2.677
53373W        W25044  37.405  23.272  13.559
53374W        W25045  42.450   4.486  10.375
53375W        W25046   4.238  17.979   2.286
53376W        W25047  35.991   5.699   0.913
53377W        W25048  21.471  17.774   2.951
53378W        W25049   6.220  43.555   2.374
53379W        W25050   7.319   3.924  11.993
53380W        W25051  17.089  37.428   0.063
53381W        W25052  24.318  13.387  11.961
53382W        W25053   9.365  15.311   2.684
53383W        W25054  26.260  12.687   3.205
53384W        W25055   2.908  31.647  12.232
53385W        W25056  28.705  15.285   2.273
53386W        W25057  11.704  37.511   5.047
53387W        W25058  42.344  38.016  12.133
53388W        W25059  26.222  25.219  14.719
53389W        W25060  17.842  13.739  10.124
53390W        W25061  22.221  13.789   0.205
53391W        W25062  37.299   1.911   2.903
53392W        W25063  31.569  34.693  10.863
53393W        W25064   0.530  44.816  14.606
53394W        W25065  23.712  11.232   3.243
53395W        W25066  30.170  12.160  10.770
53396W        W25067  35.947   8.960  10.472
53397W        W25068  35.540  24.695   0.676
53398W        W25069  13.159  13.488   3.544
53399W        W25070  31.656   4.712  14.534
53400W        W25071  38.322  32.946   2.110
53401W        W25072  27.071   0.668   0.381
53402W        W25073  18.288   9.121  12.514
53403W        W25074  26.528  21.919  12.839
53404W        W25075   4.685  31.023   0.310
53405W        W25076  44.055  15.098   2.232
53406W        W25077   5.368  30.330  13.543
53407W        W25078  19.725  37.514   3.436
53408W        W25079   6.699  18.080  13.945
53409W        W25080  16.600  18.755  13.541
53410W        W25081  35.417  25.584   4.305
53411W        W25082  35.379   1.903   4.100
53412W        W25083  37.160  44.824  12.831
53413W        W25084  32.054  28.229   4.524
53414W        W25085  36.126  25.631   2.905
53415W        W25086   4.708   3.416  10.847
53416W        W25087   1.735   8.823  10.586
53417W        W25088   8.614  16.287   2.389
53418W        W25089  15.851  33.768  13.008
53419W        W25090   9.115   9.927   2.508
53420W        W25091   5.860   7.348   4.626
53421W        W25092  16.702   4.438  11.579
53422W        W25093  19.613  13.419   4.712
53423W        W25094  13.025  42.335   0.278
53424W        W25095  38.389   5.053   3.726
53425W        W25096  29.133  41.923  11.722
53426W        W25097  16.098  17.066  12.856
53427W        W25098  27.412  34.983   4.633
53428W        W25099  30.127  25.116  14.091
53429W        W25100  17.552  29.991   4.772
53430W        W25101  26.394  38.488  10.599
53431W        W25102  21.211  15.605  10.477
53432W        W25103  25.437   8.871   4.045
53433W        W25104  16.759   8.334  11.975
53434W        W25105  17.475   2.989  12.163
53435W        W25106  28.756  37.587  14.431
53436W        W25107  25.957  11.761   3.383
53437W        W25108   7.470  23.690  11.157
53438W        W25109  19.691  41.105  14.390
53439W        W25110  17.769  20.818   3.654
53440W        W25111  17.616  35.674  12.082
53441W        W25112   7.738  34.095   1.453
53442W        W25113  23.716  29.398  12.524
53443W        W25114  22.913  38.423  10.502
53444W        W25115  25.625  39.986   1.634
53445W        W25116   2.035  24.664  10.670
53446W        W25117   8.560   6.995  11.693
53447W        W25118  28.992  24.081   0.166
53448W        W25119  11.099  38.441   0.425
53449W        W25120  21.825  36.582   2.245
53450W        W25121  19.155   9.168   2.390
53451W        W25122  11.935   4.493   2.148
53452W        W25123  29.397  22.276   0.360
53453W        W25124  26.691  33.872   2.703
53454W        W25125  21.564  20.615  11.569
53455W        W25126  27.186  39.173  12.426
53456W        W25127   8.318  44.435  14.507
53457W        W25128  37.004  39.543   5.213
53458W        W25129  36.143  33.548  10.755
53459W        W25130  26.006  10.991  12.395
53460W        W25131   6.298  41.714   1.900
53461W        W25132  18.636  38.097  10.251
53462W        W25133   1.730  18.078   2.132
53463W        W25134  20.502  34.946  12.465
53464W        W25135  33.980  39.302   3.789
53465W        W25136  28.041  14.989  14.376
53466W        W25137   0.940  29.505   4.581
53467W        W25138  38.798  26.544   0.349
53468W        W25139  30.925  42.492  12.577
53469W        W25140  11.707  25.287   1.834
53470W        W25141   1.314  15.362  11.955
53471W        W25142  22.636  44.832   0.402
53472W        W25143   6.024  40.893   4.499
53473W        W25144  21.442  40.278   3.670
53474W        W25145  44.230   4.014  12.932
53475W        W25146  21.511  40.228  10.606
53476W        W25147  34.956  10.462  13.956
53477W        W25148  16.818   2.964  14.328
53478W        W25149   7.175  43.514   3.806
53479W        W25150  25.144  38.991  14.946
53480W        W25151  24.738  23.714  13.551
53481W        W25152  29.750   5.402  11.367
53482W        W25153   8.428   5.330   1.272
53483W        W25154  22.271   7.328   0.299
53484W        W25155  22.372   0.064   3.634
53485W        W25156   2.015  25.742   2.809
53486W        W25157   7.574  44.085   1.538
53487W        W25158  38.931   4.021   0.771
53488W        W25159  26.650   8.602   0.760
53489W        W25160  19.272  10.989   9.881
53490W        W25161  25.928   7.413  11.153
53491W        W25162  34.837   1.233  13.334
53492W        W25163  27.113  33.989  10.414
53493W        W25164  14.632   1.334  11.640
53494W        W25165  24.541  34.558   3.278
53495W        W25166  41.854  25.689   2.300
53496W        W25167  14.176  11.497   3.769
53497W        W25168  28.503  43.506   0.805
53498W        W25169  24.482  38.074  13.825
53499W        W25170  29.164  43.925  13.970
53500W        W25171  41.942  29.708  14.872
53501W        W25172  21.840  43.493   3.202
53502W        W25173  21.185   6.461  13.439
53503W        W25174  26.465  32.827  12.501
53504W        W25175  27.866   7.541   5.059
53505W        W25176  16.779  14.185   0.291
53506W        W25177  17.075  33.329   2.504
53507W        W25178  42.933  19.765   0.329
53508W        W25179  28.703  31.433  12.042
53509W        W25180   3.472   0.945  10.750
53510W        W25181  31.143  33.812   5.089
53511W        W25182  25.401  43.850   0.049
53512W        W25183  30.122  25.216  13.598
53513W        W25184  16.752   6.358   3.060
53514W        W25185  31.953   4.258   2.118
53515W        W25186  33.068   0.255   3.397
53516W        W25187   3.397   5.325  14.499
53517W        W25188  28.631   2.312   1.435
53518W        W25189   2.715   5.853   1.469
53519W        W25190   0.319  38.345   2.696
53520W        W25191   5.174  33.365   4.381
53521W        W25192  42.976  22.248   0.402
53522W        W25193  34.973   0.984   1.519
53523W        W25194   7.198  22.786  14.262
53524W        W25195  12.776  10.850  14.507
53525W        W25196  10.424  20.739   0.893
53526W        W25197  25.006   2.769  13.948
53527W        W25198   3.708   8.460   3.702
53528W        W25199   1.546  31.126  13.857
53529W        W25200  10.327  10.309  14.501
53530W        W25201  11.089  13.500  10.647
53531W        W25202  26.175  13.202   4.581
53532W        W25203  44.659   3.217  14.283
53533W        W25204  10.663   2.402   2.722
53534W        W25205  36.088  11.578   0.226
53535W        W25206   4.298   5.550   0.518
53536W        W25207  27.909  11.894   1.040
53537W        W25208  31.975   9.796   1.889
53538W        W25209  33.914  43.825   0.251
53539W        W25210   3.804  12.155   1.087
53540W        W25211  42.733  36.470  10.677
53541W        W25212  29.413  20.053  12.873
53542W        W25213   0.791   2.417  10.619
53543W        W25214  16.015   6.857   5.516
53544W        W25215   4.639  22.594  10.851
53545W        W25216  22.799  33.868  14.926
53546W        W25217   8.630   2.853  14.023
53547W        W25218  39.760  11.772  12.101
53548W        W25219   0.967  41.303   2.769
53549W        W25220  21.776   8.891   0.298
53550W        W25221  18.743  23.346   0.527
53551W        W25222  27.824  33.544   3.156
53552W        W25223  38.341  11.828   0.918
53553W        W25224  33.429  44.590   0.418
53554W        W25225  42.344  33.019  12.584
53555W        W25226  16.698  11.224  14.327
53556W        W25227   8.028  32.051   5.038
53557W        W25228  41.953  38.264   4.154
53558W        W25229  33.367   8.817   3.207
53559W        W25230  31.472  10.309  14.551
53560W        W25231  11.018   4.318  13.825
53561W        W25232  16.258  13.169   2.779
53562W        W25233  37.771  10.251   2.099
53563W        W25234  30.392  32.511  14.524
53564W        W25235  17.219  29.182  13.970
53565W        W25236  40.488   8.572  10.166
53566W        W25237  33.430  27.656  14.473
53567W        W25238  33.915  34.760   3.616
53568W        W25239   6.321  38.028   1.796
53569W        W25240  37.015  11.670  10.941
53570W        W25241  14.692   6.970   1.165
53571W        W25242  44.651  29.889  13.032
53572W        W25243  24.072  14.361   0.240
53573W        W25244  17.189   9.131   2.069
53574W        W25245  27.010   1.106  12.778
53575W        W25246  10.378   4.978  14.168
53576W        W25247  14.143  23.122  13.776
53577W        W25248  26.092  12.942  14.888
53578W        W25249   6.789  30.400   2.821
53579W        W25250  21.176  41.312   1.440
53580W        W25251  22.531  30.108  10.618
53581W        W25252  18.233  21.127   9.952
53582W        W25253  15.625  36.387  14.904
53583W        W25254  27.073  27.047  10.556
53584W        W25255  40.004  31.894  14.043
53585W        W25256  31.611  24.065  14.669
53586W        W25257  25.991  43.294  10.510
53587W        W25258  17.302  21.819  12.012
53588W        W25259  29.473  19.692   2.808
53589W        W25260  29.404  22.068  14.542
53590W        W25261   8.159   2.000  12.566
53591W        W25262  44.990  25.549   1.834
53592W        W25263  29.501  35.391   4.571
53593W        W25264  41.461  21.190  13.566
53594W        W25265   2.218  26.713   0.298
53595W        W25266  37.344   1.052   0.758
53596W        W25267  33.014  24.060   3.372
53597W        W25268   5.291  32.372   1.819
53598W        W25269   0.763   1.352   1.540
53599W        W25270  42.036  25.222   2.435
53600W        W25271  17.984  32.091  14.933
53601W        W25272  36.588  15.909   1.978
53602W        W25273  32.396  16.728  10.665
53603W        W25274  22.601  24.021   4.195
53604W        W25275  20.757  29.155  14.414
53605W        W25276  15.059  44.512   4.494
53606W        W25277  37.006  12.208   2.819
53607W        W25278   3.439  12.596  11.166
53608W        W25279  31.557  33.730   2.934
53609W        W25280   3.257  10.758  11.176
53610W        W25281  25.531  34.170   3.274
53611W        W25282   9.820  18.357  12.018
53612W        W25283   2.708  43.532   4.246
53613W        W25284   1.773  17.113  12.911
53614W        W25285  17.810   2.335  12.908
53615W        W25286  21.894  39.859   2.834
53616W        W25287  35.912  25.085  11.078
53617W        W25288  43.727   7.838  13.680
53618W        W25289   5.332  30.342  12.073
53619W        W25290  34.868   4.780  10.687
53620W        W25291  19.384  16.883  13.985
53621W        W25292  27.658  35.999   4.810
53622W        W25293  34.464  10.258   2.050
53623W        W25294  37.927  27.882   4.389
53624W        W25295   3.342   3.424   0.060
53625W        W25296  37.787  42.647  14.353
53626W        W25297  41.465  31.344   3.322
53627W        W25298  41.164   5.433   2.856
53628W        W25299  29.678  39.147  11.127
53629W        W25300  34.569  32.837   4.135
53630W        W25301  30.189  30.587  12.565
53631W        W25302  36.366   4.357   3.594
53632W        W25303  44.038   8.658  10.710
53633W        W25304  27.490   3.182   3.343
53634W        W25305   8.669  35.604   1.947
53635W        W25306  25.976  10.228  14.940
53636W        W25307  44.406  27.662   4.663
53637W        W25308   8.201  31.982  11.819
53638W        W25309  21.672   7.220   4.330
53639W        W25310   0.509  10.258  13.407
53640W        W25311  25.144  30.005  14.395
53641W        W25312  22.785  36.301  11.710
53642W        W25313  11.809  33.997   2.897
53643W        W25314  42.200  14.633   2.805
53644W        W25315  26.859  24.076   2.652
53645W        W25316  36.981   0.473  12.158
53646W        W25317  27.249  16.765   3.270
53647W        W25318  17.822   0.968  12.637
53648W        W25319  12.238  37.002   2.572
53649W        W25320  12.218   7.327  11.712
53650W        W25321   4.127  14.585  11.858
53651W        W25322  23.693  30.491   1.330
53652W        W25323  11.260  41.717  10.665
53653W        W25324   5.682  20.180  11.369
53654W        W25325   7.871  39.902  10.325
53655W        W25326  13.814   2.755  13.579
53656W        W25327   1.298   0.673   3.664
53657W        W25328  33.709  25.142  12.927
53658W        W25329  26.863  34.234  14.574
53659W        W25330  33.462  14.801   4.241
53660W        W25331   3.529   9.210  11.252
53661W        W25332   0.424   6.133   1.885
53662W        W25333  34.153  26.197  12.343
53663W        W25334  29.514  26.823   2.798
53664W        W25335  27.130  20.889  10.329
53665W        W25336   6.161  39.454   3.790
53666W        W25337  31.113  22.075  14.845
53667W        W25338  21.171   4.969  13.806
53668W        W25339  26.152  10.837  12.892
53669W        W25340  11.693  14.617   1.771
53670W        W25341   7.683  21.778  12.175
53671W        W25342   8.311  43.732   1.968
53672W        W25343  29.070   8.380   4.031
53673W        W25344  42.892   7.139   0.930
53674W        W25345  28.105  26.815  11.565
53675W        W25346  19.025  37.837   0.356
53676W        W25347  17.337   7.286  11.340
53677W        W25348  24.244  30.154  11.199
53678W        W25349  21.564  44.128  11.392
53679W        W25350  25.503  30.481  11.780
53680W        W25351   0.587  15.570  14.981
53681W        W25352  19.302  10.460   1.050
53682W        W25353  13.885   1.030  12.960
53683W        W25354  26.613  26.013   0.919
53684W        W25355  40.372  38.836   2.306
53685W        W25356   5.678  28.582   3.946
53686W        W25357  32.527  41.480  12.401
53687W        W25358  31.111  24.439   3.864
53688W        W25359  24.140   4.381   4.386
53689W        W25360  28.726  35.970  11.948
53690W        W25361  37.120  41.223  12.579
53691W        W25362  12.877  10.298   2.768
53692W        W25363   9.909   5.250  13.673
53693W        W25364  36.141  31.999   0.000
53694W        W25365   5.067  10.280  11.864
53695W        W25366  15.282  20.014   4.708
53696W        W25367  31.602  41.302   2.935
53697W        W25368  26.051   7.434  14.855
53698W        W25369  24.953  20.852  11.080
53699W        W25370  43.586  41.968  11.430
53700W        W25371  28.072   7.667   2.235
53701W        W25372  33.286  41.295  10.357
53702W        W25373   9.390  32.943  13.030
53703W        W25374  25.546  30.560   2.809
53704W        W25375  32.131  14.473   4.538
53705W        W25376  33.418  16.913   1.858
53706W        W25377  35.172   7.074   2.790
53707W        W25378  40.345  24.568  11.481
53708W        W25379   9.262  19.709   1.725
53709W        W25380  11.920  40.767   3.711
53710W        W25381  30.184   6.462  13.093
53711W        W25382  15.174   4.786  13.273
53712W        W25383  43.464   3.893   0.321
53713W        W25384  20.938  25.484   3.847
53714W        W25385   6.196  32.298   4.693
53715W        W25386  42.046   9.115  13.059
53716W        W25387   1.827  33.366   1.293
53717W        W25388  18.626  18.563   0.254
53718W        W25389  15.130  38.387   2.999
53719W        W25390  34.273  43.582  14.312
53720W        W25391  19.282   7.421  11.069
53721W        W25392  31.136  44.024   1.338
53722W        W25393   6.991  23.891  11.231
53723W        W25394  23.025  15.124  13.310
53724W        W25395  19.989   0.662  12.408
53725W        W25396   3.769  41.018  10.760
53726W        W25397  44.806  39.951   2.384
53727W        W25398  38.598  32.959  14.296
53728W        W25399  41.597  17.081   3.718
53729W        W25400  34.848  41.990  14.432
53730W        W25401  11.541  19.076  10.933
53731W        W25402  37.753  27.225   0.882
53732W        W25403  13.741   6.430   5.143
53733W        W25404   3.504  21.993   2.058
53734W        W25405  15.579   8.743  11.050
53735W        W25406  42.607  15.860  10.154
53736W        W25407   8.739   7.610  13.092
53737W        W25408  21.669  43.756   2.300
53738W        W25409   9.908   6.095   1.748
53739W        W25410  42.465   4.199  14.878
53740W        W25411  43.327   9.508  11.782
53741W        W25412  18.062  30.195   2.831
53742W        W25413   9.761  39.788   0.979
53743W        W25414  41.468  41.615  12.449
53744W        W25415  23.519  16.843  12.427
53745W        W25416   7.150  28.717   0.876
53746W        W25417  29.667  25.904  12.486
53747W        W25418  16.224   9.216  10.703
53748W        W25419  22.519  40.926  10.294
53749W        W25420  12.215   6.710  12.897
53750W        W25421  24.576  28.670   3.360
53751W        W25422  17.129  44.735  12.003
53752W        W25423  14.882   1.350   2.116
53753W        W25424  26.284  13.415  12.548
53754W        W25425  33.375  34.038  11.229
53755W        W25426  14.868  37.760  10.466
53756W        W25427   0.749  33.568  13.502
53757W        W25428  19.612  10.155  14.801
53758W        W25429  21.591  29.242  13.505
53759W        W25430  13.664  39.025   3.819
53760W        W25431   4.473   7.060   0.696
53761W        W25432   1.037  17.121   2.081
53762W        W25433  21.635   3.468  11.761
53763W        W25434   2.768  33.606   3.743
53764W        W25435  14.375  24.271   1.359
53765W        W25436  13.418  21.099   0.498
53766W        W25437  15.839   9.018   1.616
53767W        W25438  42.420  39.061   5.040
53768W        W25439  42.883  21.007   4.302
53769W        W25440  35.371  17.499   0.937
53770W        W25441  34.180  17.189   2.245
53771W        W25442  39.456  13.859  13.887
53772W        W25443  12.111  34.476  11.547
53773W        W25444  21.106  33.844  13.366
53774W        W25445  36.894  31.696   0.325
53775W        W25446  43.369  24.058   4.206
53776W        W25447  19.155   4.410   0.260
53777W        W25448  31.960  42.898  12.003
53778W        W25449  32.631  17.851   0.685
53779W        W25450  12.265  16.223   1.481
53780W        W25451  31.020   3.908  10.366
53781W        W25452  14.101  22.764  11.115
53782W        W25453  14.835  32.469  12.562
53783W        W25454  26.795  29.066  11.128
53784W        W25455  10.926  40.428  11.166
53785W        W25456  19.141  25.712  14.776
53786W        W25457  43.855  15.099  14.961
53787W        W25458  38.576  30.887   3.157
53788W        W25459  41.754  29.668  13.778
53789W        W25460  39.399  34.687   4.644
53790W        W25461   1.417  20.563   4.980
53791W        W25462  37.552  15.081  13.943
53792W        W25463   1.623  13.364   4.972
53793W        W25464   4.451  25.101   4.655
53794W        W25465  23.416  34.009   2.734
53795W        W25466  10.801  16.896  13.917
53796W        W25467  26.076  16.833  12.070
53797W        W25468  35.116  20.950  11.131
53798W        W25469   9.827  26.073   2.027
53799W        W25470   4.466  25.716  12.611
53800W        W25471  11.354  11.862  11.153
53801W        W25472  36.887   8.412   4.168
53802W        W25473  40.921  36.801   4.203
53803W        W25474  19.125  17.670   3.653
53804W        W25475  14.571  27.602   2.397
53805W        W25476  31.483  22.222  14.506
53806W        W25477  18.049  22.572  10.450
53807W        W25478  40.765   3.750   0.511
53808W        W25479  18.562  24.021   1.818
53809W        W25480  19.553  22.762  14.343
53810W        W25481   1.683  26.424  12.513
53811W        W25482  12.227   5.194   0.490
53812W        W25483  25.497  34.630  11.551
53813W        W25484   3.462  44.986  12.339
53814W        W25485  43.089   7.654  10.569
53815W        W25486   9.050  39.360   1.804
53816W        W25487  43.245  10.769   0.071
53817W        W25488   6.739  22.657  10.679
53818W        W25489  12.041  10.721   0.666
53819W        W25490  16.889  37.356   5.198
53820W        W25491  32.520  38.621  13.326
53821W        W25492   7.413  21.541  11.076
53822W        W25493  15.820  29.548   4.665
53823W        W25494   2.589  39.104  11.579
53824W        W25495  34.582   1.879   3.082
53825W        W25496   6.404  43.450  12.033
53826W        W25497  20.567  21.146  12.370
53827W        W25498  34.135  17.479   0.319
53828W        W25499  22.677   2.021  12.023
53829W        W25500  34.894  19.571  14.727
53830W        W25501  11.162  13.633   4.589
53831W        W25502  19.804  10.244   3.196
53832W        W25503  19.016  40.456   1.177
53833W        W25504  38.723  10.168  10.666
53834W        W25505  37.116  44.494   2.780
53835W        W25506  10.551   9.836  13.059
53836W        W25507  34.858  20.243  10.734
53837W        W25508   1.004  42.045  13.722
53838W        W25509  32.433  20.918  12.436
53839W        W25510  31.616  24.603  10.843
53840W        W25511  30.287  34.382  13.896
53841W        W25512   6.255   2.022   2.280
53842W        W25513  24.182  22.078  10.843
53843W        W25514  23.137   5.982   2.678
53844W        W25515   0.707  25.605  11.448
53845W        W25516  11.568  14.479   0.348
53846W        W25517  16.311   4.475  11.201
53847W        W25518  33.831  43.849   2.251
53848W        W25519  43.994  18.282   2.837
53849W        W25520   6.470  31.896   3.752
53850W        W25521  12.407  10.407   0.422
53851W        W25522  31.974  43.589  13.349
53852W        W25523   8.960  29.925  14.326
53853W        W25524  30.928   9.384  11.162
53854W        W25525  29.929   5.732   4.291
53855W        W25526  26.413   9.691   3.730
53856W        W25527  15.840  37.456  10.652
53857W        W25528  13.910  26.586   9.863
53858W        W25529  28.178  23.687  11.151
53859W        W25530  42.848  10.741   4.733
53860W        W25531   0.936  26.369   4.314
53861W        W25532  37.001  36.372  14.485
53862W        W25533  31.548   4.971  14.094
53863W        W25534   7.983  21.184  11.612
53864W        W25535   6.640  37.299   1.638
53865W        W25536  13.465   0.311  12.598
53866W        W25537  13.664   4.250   1.304
53867W        W25538   3.707  26.138  13.894
53868W        W25539  23.011  43.583  12.099
53869W        W25540  32.033  31.439   1.779
53870W        W25541   6.223  13.225  13.957
53871W        W25542  41.001  16.617  13.842
53872W        W25543  18.186   5.447  11.310
53873W        W25544  27.085  34.865  13.214
53874W        W25545  18.270  43.926  13.528
53875W        W25546   5.404   8.596  11.345
53876W        W25547  38.241  33.059   1.270
53877W        W25548  31.988  30.436  12.128
53878W        W25549  33.763  11.115   1.324
53879W        W25550  37.318  28.152  14.813
53880W        W25551   4.027  40.936   3.283
53881W        W25552  17.649  29.651  13.354
53882W        W25553  21.002  21.095  13.445
53883W        W25554  41.539  10.900   0.328
53884W        W25555  44.507  43.871  12.840
53885W        W25556   4.736  11.770   4.949
53886W        W25557  30.931  34.812  14.409
53887W        W25558  41.326  23.236  14.891
53888W        W25559  20.186  17.698  14.931
53889W        W25560  41.800  23.772   0.351
53890W        W25561  21.475  13.107  10.821
53891W        W25562  42.297   1.308  11.114
53892W        W25563  37.166  10.304   4.565
53893W        W25564  26.637   9.493   4.159
53894W        W25565  44.969   1.222  11.207
53895W        W25566  29.763  26.512  11.063
53896W        W25567  44.538  19.411   0.413
53897W        W25568  43.952  11.474  12.013
53898W        W25569  22.720  16.567   3.900
53899W        W25570  29.100   9.914   5.018
53900W        W25571  17.748  11.153   3.759
53901W        W25572  21.266  43.834  12.332
53902W        W25573  40.257  10.655  13.904
53903W        W25574   3.926  12.424   4.156
53904W        W25575  15.816  28.245  13.408
53905W        W25576  33.467   9.350   3.218
53906W        W25577  22.225  31.623  12.108
53907W        W25578   4.699  21.641   4.570
53908W        W25579  31.614  17.072   4.386
53909W        W25580   8.173   3.454   4.195
53910W        W25581  27.958  20.241  14.370
53911W        W25582   2.470   8.397  12.487
53912W        W25583  25.479   7.591  12.114
53913W        W25584  16.068   3.312   0.113
53914W        W25585  37.436  36.948   3.137
53915W        W25586  35.376   1.975  12.850
53916W        W25587  43.498  30.928   0.290
53917W        W25588   5.348   5.321   4.616
53918W        W25589  36.310  29.053  11.670
53919W        W25590  25.509  30.224   0.368
53920W        W25591  39.282  21.024  11.469
53921W        W25592  35.110   4.862   2.767
53922W        W25593  38.544  12.285   4.524
53923W        W25594  40.949  27.117   3.682
53924W        W25595  14.001  10.010   3.360
53925W        W25596   4.660  22.578  12.869
53926W        W25597   7.405  16.766  13.481
53927W        W25598  43.292   1.253  10.415
53928W        W25599   3.881  37.374   4.019
53929W        W25600  43.378  24.232  11.435
53930W        W25601  12.185  34.324  13.554
53931W        W25602  16.557  37.607  13.021
53932W        W25603  29.559   4.089  12.179
53933W        W25604  22.701  10.946   2.705
53934W        W25605  41.316   3.114   3.693
53935W        W25606  29.910   7.181   4.217
53936W        W25607  44.399  31.948   1.864
53937W        W25608  32.039   9.758  13.416
53938W        W25609  27.559   3.758  10.659
53939W        W25610   2.251  13.825   3.666
53940W        W25611  42.395   1.798   4.205
53941W        W25612  41.950  27.868  14.466
53942W        W25613  24.625  19.647   1.731
53943W        W25614   5.395  23.816  13.961
53944W        W25615  25.155  41.468   0.842
53945W        W25616  38.359  39.579  12.088
53946W        W25617  19.273   4.718  13.917
53947W        W25618   7.011   3.660   2.319
53948W        W25619  12.276  11.087  14.709
53949W        W25620  31.530  27.916  13.309
53950W        W25621  26.069  32.904   1.393
53951W        W25622  11.618  20.718  10.643
53952W        W25623  28.454  16.584  12.639
53953W        W25624  33.679  29.038   4.281
53954W        W25625  19.542  23.758   9.889
53955W        W25626   1.241  11.687   0.278
53956W        W25627   7.245  18.968  13.946
53957W        W25628  10.649  35.312  12.369
53958W        W25629  26.364   0.724  13.763
53959W        W25630  36.997  14.795  13.332
53960W        W25631  34.426   3.307  11.986
53961W        W25632  34.732  10.733   1.377
53962W        W25633  29.659  13.629   2.797
53963W        W25634  29.442   0.491  14.900
53964W        W25635  32.540  15.174  11.050
53965W        W25636  22.755  21.605  10.702
53966W        W25637  33.686  20.186   3.722
53967W        W25638  27.532  28.393   3.965
53968W        W25639  29.209  26.428  14.985
53969W        W25640   7.351  26.585   1.912
53970W        W25641  30.071   0.239  10.765
53971W        W25642  23.056  22.113  14.745
53972W        W25643  39.769  11.889   0.923
53973W        W25644  14.311  30.193  11.263
53974W        W25645  21.574  10.448  13.376
53975W        W25646  25.204  23.471   2.773
53976W        W25647   7.782  44.722  12.416
53977W        W25648  39.570  36.951   4.875
53978W        W25649  26.158  36.937  10.730
53979W        W25650  11.436  29.502   1.376
53980W        W25651  35.181  14.152   3.338
53981W        W25652  13.656  26.516  13.959
53982W        W25653   8.390  35.870   3.682
53983W        W25654  31.594   2.918   3.236
53984W        W25655   6.939  19.650   4.662
53985W        W25656  23.009  24.674   1.862
53986W        W25657  24.730  22.970   2.027
53987W        W25658  29.398  38.352   1.909
53988W        W25659  11.158  12.974   3.621
53989W        W25660  30.646   6.218   4.620
53990W        W25661  19.219   2.299  14.086
53991W        W25662  10.627  24.784   0.882
53992W        W25663  16.354  28.983   2.816
53993W        W25664  29.373   2.780  13.325
53994W        W25665  15.139  22.957  12.991
53995W        W25666  20.013   2.256  12.491
53996W        W25667  42.920  33.694   0.629
53997W        W25668   0.434   7.279   3.591
53998W        W25669   6.283   1.939   9.922
53999W        W25670  19.882  41.838   2.648
54000W        W25671  33.668   2.295  11.356
54001W        W25672  33.845  32.249  13.357
54002W        W25673  25.046  21.510  12.129
54003W        W25674  20.058  23.755  10.684
54004W        W25675  24.568  44.072  12.517
54005W        W25676  29.541  34.064  14.249
54006W        W25677   5.395  29.924   0.760
54007W        W25678   4.327  24.429   3.678
54008W        W25679   4.655  21.866   3.296
54009W        W25680  11.676  31.988   0.778
54010W        W25681   8.925  37.738  13.446
54011W        W25682  30.475  39.953  13.013
54012W        W25683  41.441  31.626  11.636
54013W        W25684  14.058  15.736   0.292
54014W        W25685  14.427   1.515  14.978
54015W        W25686   4.732  40.367   4.651
54016W        W25687  10.755   1.397  12.640
54017W        W25688  17.677  44.264   1.595
54018W        W25689  39.067  18.174   1.700
54019W        W25690  44.500  42.285   0.479
54020W        W25691  44.468  18.284  14.929
54021W        W25692  13.477   0.544   9.721
54022W        W25693  26.612  32.812   1.507
54023W        W25694  36.011  17.523  12.655
54024W        W25695  43.028  21.001  13.488
54025W        W25696   0.204  11.252   4.537
54026W        W25697   1.128  39.004  10.651
54027W        W25698   2.433  12.229  12.509
54028W        W25699  22.253   0.762   4.645
54029W        W25700   1.983  31.434  11.186
54030W        W25701   3.238  41.445   1.287
54031W        W25702  44.456  22.730  14.283
54032W        W25703  22.279  37.992  11.164
54033W        W25704  13.688  42.814   2.933
54034W        W25705   3.494   0.247   3.119
54035W        W25706  30.939  12.369   4.906
54036W        W25707   5.642  13.709   2.221
54037W        W25708  36.606   1.343  12.867
54038W        W25709   2.981  29.112  11.470
54039W        W25710   0.887  23.021  10.734
54040W        W25711   6.567  14.378  14.399
54041W        W25712  39.585   0.576  13.502
54042W        W25713  33.361   3.507  13.917
54043W        W25714  24.682  35.638  14.502
54044W        W25715  11.749  22.042   3.019
54045W        W25716   7.447  27.539   1.276
54046W        W25717  11.064  35.982  14.909
54047W        W25718  15.572  11.409   3.677
54048W        W25719  37.804  41.415   3.345
54049W        W25720  41.779  19.268  14.816
54050W        W25721  31.037  39.361  10.475
54051W        W25722  44.416  12.771   3.583
54052W        W25723  41.493  21.230   5.214
54053W        W25724  24.711  38.906   0.266
54054W        W25725  29.095  42.335  14.151
54055W        W25726  21.174  17.226  12.102
54056W        W25727   8.427  26.267  14.905
54057W        W25728  19.201   8.315  11.184
54058W        W25729  44.271   5.214   2.469
54059W        W25730  30.944  34.945   0.379
54060W        W25731  37.815  20.583  10.839
54061W        W25732  21.780  25.700  12.284
54062W        W25733  15.419  39.383   4.862
54063W        W25734  25.881   5.493   4.898
54064W        W25735   9.338  15.492   0.282
54065W        W25736  39.290  32.412  11.321
54066W        W25737  37.919  38.660  12.097
54067W        W25738   2.401  42.381   3.597
54068W        W25739  15.496  31.168  12.810
54069W        W25740  24.454  41.740  14.249
54070W        W25741   2.265   4.887  13.388
54071W        W25742  13.549  20.761   3.768
54072W        W25743  41.075   5.213  11.774
54073W        W25744  24.414  14.616  10.750
54074W        W25745   8.708  17.110   2.828
54075W        W25746  14.738   3.230  11.934
54076W        W25747  18.696  24.177   0.879
54077W        W25748  24.516  11.723   3.254
54078W        W25749  32.551   9.890   0.373
54079W        W25750  42.480  30.242  11.002
54080W        W25751  33.974   2.148   2.737
54081W        W25752  23.445   6.849   2.463
54082W        W25753   2.831  34.133   0.924
54083W        W25754   3.920   6.837  12.480
54084W        W25755  10.301  24.003   2.176
54085W        W25756  39.250  15.372  12.011
54086W        W25757   9.341  14.834  13.548
54087W        W25758  41.199  13.694  13.591
54088W        W25759  37.516  12.338   2.803
54089W        W25760   4.889  33.598  12.923
54090W        W25761  12.665  43.892   2.300
54091W        W25762  25.040  19.489   5.227
54092W        W25763  42.508  41.017  11.646
54093W        W25764  44.508   7.538  10.726
54094W        W25765  37.632   2.897  11.044
54095W        W25766   8.211   6.912   1.382
54096W        W25767  23.595  17.271  12.137
54097W        W25768   6.633  40.020   0.731
54098W        W25769  29.723  23.524   2.741
54099W        W25770   0.572  43.906  14.508
54100W        W25771  16.812  35.157  12.348
54101W        W25772  30.385  36.586  12.406
54102W        W25773   6.131  17.759   1.223
54103W        W25774  23.277  36.047   0.406
54104W        W25775  23.604   8.400  11.445
54105W        W25776  14.823  40.908  14.723
54106W        W25777  13.284  11.083  13.006
54107W        W25778  26.706  29.971  14.882
54108W        W25779  10.923  25.662  12.045
54109W        W25780  27.853   7.874   2.671
54110W        W25781   8.278  40.523   2.921
54111W        W25782  26.578  26.474   1.160
54112W        W25783  29.303  14.070   4.965
54113W        W25784  34.228  38.465  11.382
54114W        W25785   5.395  27.235  11.242
54115W        W25786  25.271  15.700   1.890
54116W        W25787  37.555  28.642  14.811
54117W        W25788  14.211  38.539  13.597
54118W        W25789   5.288  44.319  14.004
54119W        W25790  38.369  38.823   2.356
54120W        W25791  41.495   2.216  14.866
54121W        W25792  29.716  24.631   0.313
54122W        W25793  12.091  27.766  14.393
54123W        W25794  22.865   2.968  10.788
54124W        W25795  24.258   7.196   0.904
54125W        W25796  40.500  22.514  11.611
54126W        W25797  42.504  21.163   4.631
54127W        W25798  25.128  24.025   4.735
54128W        W25799   6.348  16.908  12.155
54129W        W25800  30.417  10.216   2.448
54130W        W25801  34.033  21.695   4.060
54131W        W25802   5.506  12.623  11.107
54132W        W25803  41.630   8.153  12.111
54133W        W25804   3.774  28.577   0.076
54134W        W25805  33.513  33.634  10.577
54135W        W25806  23.901  16.984   3.773
54136W        W25807  17.638  27.077   0.529
54137W        W25808  10.533  41.484   2.791
54138W        W25809  15.788  41.965   4.583
54139W        W25810  37.920  36.349  11.184
54140W        W25811  22.925   5.426  13.711
54141W        W25812   9.358  31.844  14.516
54142W        W25813   3.320  38.521  14.504
54143W        W25814  31.032  31.965  13.134
54144W        W25815  27.749  23.115  12.796
54145W        W25816  39.046  41.293   0.917
54146W        W25817  11.948   3.510  10.554
54147W        W25818   6.336   5.653  12.975
54148W        W25819  17.752  19.334  13.310
54149W        W25820  33.613  25.729   4.393
54150W        W25821  19.353   9.754  14.266
54151W        W25822  34.941  16.689   0.339
54152W        W25823  27.141  41.568  13.030
54153W        W25824  37.319  14.656  13.748
54154W        W25825   0.255  39.816   3.798
54155W        W25826  38.784  25.007   0.192
54156W        W25827  13.858  31.728  13.498
54157W        W25828   7.772  30.356  13.344
54158W        W25829  37.890  31.723  10.666
54159W        W25830  11.790  37.613   1.373
54160W        W25831  43.472   4.419   0.422
54161W        W25832  16.090  10.838   0.759
54162W        W25833  15.092  34.132   1.038
54163W        W25834  36.474   4.401  12.928
54164W        W25835  44.763  42.091   4.292
54165W        W25836   4.389  37.489  11.263
54166W        W25837  34.130  33.821  12.547
54167W        W25838   1.844  13.584  13.870
54168W        W25839   5.075   9.821  14.990
54169W        W25840   7.742  17.609   2.760
54170W        W25841  31.548   8.282  12.332
54171W        W25842   8.606  39.578   4.106
54172W        W25843   5.121  20.805  14.951
54173W        W25844  22.792  38.951  13.971
54174W        W25845   6.431  26.397   2.625
54175W        W25846  28.531  18.074   3.844
54176W        W25847   5.285  20.941   2.479
54177W        W25848  38.045  14.755  10.832
54178W        W25849  29.532   6.311  12.441
54179W        W25850  42.119  33.359   2.343
54180W        W25851   1.117  33.812  11.428
54181W        W25852   7.437   8.737  12.402
54182W        W25853  38.510  28.083  11.481
54183W        W25854  39.549  44.224   2.439
54184W        W25855  11.297  44.681  11.532
54185W        W25856  21.545   8.604   1.311
54186W        W25857   6.322   5.607  11.102
54187W        W25858  27.485  20.521  13.317
54188W        W25859  23.890  26.682  12.068
54189W        W25860  34.957  41.063   2.008
54190W        W25861   0.996  39.025   3.629
54191W        W25862   0.973  44.452  13.728
54192W        W25863  36.538  44.030  12.605
54193W        W25864   0.444   3.434   2.478
54194W        W25865  14.631   0.975   1.835
54195W        W25866   1.182   1.399   4.205
54196W        W25867  39.928  19.194   3.322
54197W        W25868  24.377   1.560   1.434
54198W        W25869  39.856  28.721  13.061
54199W        W25870   2.516  40.764   1.404
54200W        W25871  26.501  23.047  14.838
54201W        W25872   2.239  42.284   0.767
54202W        W25873  15.831  23.075   0.298
54203W        W25874  24.155   3.023   4.997
54204W        W25875  29.938  31.324   3.757
54205W        W25876  12.170  27.466   2.369
54206W        W25877  37.482  30.466  12.846
54207W        W25878  28.056  18.186   4.051
54208W        W25879  23.155   6.230  14.877
54209W        W25880  13.031   2.441  13.474
54210W        W25881  15.205  37.005   0.993
54211W        W25882  25.008   5.462  14.889
54212W        W25883  27.900   7.891  11.985
54213W        W25884   7.887  14.901   1.243
54214W        W25885  24.352  10.142  13.081
54215W        W25886   1.416   2.653  11.919
54216W        W25887  21.675  30.609  14.766
54217W        W25888  43.429  34.359   0.346
54218W        W25889  22.375  16.517   2.542
54219W        W25890  38.925  34.740  11.590
54220W        W25891   8.665  25.282  13.308
54221W        W25892  42.224  39.972  12.212
54222W        W25893  12.897   6.928   4.635
54223W        W25894  19.056  29.041   3.143
54224W        W25895  21.343  37.810  10.445
54225W        W25896   4.950  28.165   2.154
54226W        W25897  18.090   8.231   2.793
54227W        W25898  30.253  17.907  12.836
54228W        W25899  34.973  17.113   3.527
54229W        W25900  11.403  15.788   0.486
54230W        W25901  25.626  31.069   2.872
54231W        W25902  44.680  18.406  13.392
54232W        W25903  31.508  27.193  12.877
54233W        W25904  23.470   6.843  10.684
54234W        W25905  16.362  24.649   1.876
54235W        W25906  15.331   4.968   2.833
54236W        W25907  35.274  39.369   3.627
54237W        W25908   6.859  41.684   0.838
54238W        W25909   3.476   7.804  11.088
54239W        W25910  38.558  16.652   3.072
54240W        W25911  42.009  20.155  12.746
54241W        W25912  22.232  42.215   3.870
54242W        W25913  20.929  17.019  14.912
54243W        W25914  37.652  38.023  14.814
54244W        W25915  31.630   2.088  12.018
54245W        W25916   5.535   8.097   0.708
54246W        W25917  11.799  11.406  10.613
54247W        W25918   9.742  20.799   2.370
54248W        W25919  22.674  25.175   0.467
54249W        W25920  10.631   5.300  14.505
54250W        W25921  38.611  20.201  13.452
54251W        W25922  38.820  42.564   0.135
54252W        W25923  12.478  27.132   4.149
54253W        W25924   3.770  34.174  13.975
54254W        W25925   8.601  14.137  12.011
54255W        W25926  10.126  15.785  14.362
54256W        W25927   3.661  15.931   3.779
54257W        W25928  13.660   3.250  13.505
54258W        W25929  33.594  44.219   0.757
54259W        W25930  39.524  27.919   0.316
54260W        W25931  41.881   1.232   2.058
54261W        W25932  15.752  25.993  10.478
54262W        W25933  11.253   3.734   1.465
54263W        W25934  38.062  18.283   1.734
54264W        W25935   4.417  27.968   2.206
54265W        W25936  25.009   6.442   0.191
54266W        W25937  20.872  37.838   3.287
54267W        W25938  22.661  33.511   2.745
54268W        W25939  10.378   2.558   4.555
54269W        W25940  27.470  38.390  13.352
54270W        W25941  31.597  27.752  14.174
54271W        W25942  21.498  31.155  13.265
54272W        W25943  15.397  41.271  13.075
54273W        W25944  29.137   3.223  13.143
54274W        W25945   0.654  13.163  13.563
54275W        W25946  34.364  11.247  12.474
54276W        W25947   7.743  29.467  13.568
54277W        W25948  43.068  34.550   4.575
54278W        W25949  13.713  36.238   3.474
54279W        W25950  23.010   3.487   4.093
54280W        W25951  25.123  40.083  10.657
54281W        W25952  19.218   3.406   2.667
54282W        W25953  33.580  30.597   2.015
54283W        W25954  31.895  27.163   3.680
54284W        W25955  11.843  39.297  12.448
54285W        W25956  43.451  13.775   4.987
54286W        W25957  35.425   4.748  14.677
54287W        W25958  20.459  36.834   4.179
54288W        W25959  39.369   3.560   4.228
54289W        W25960   9.748  26.846   0.312
54290W        W25961  31.947  25.657  10.258
54291W        W25962  39.945   3.385   2.675
54292W        W25963  12.314  40.371  11.397
54293W        W25964   9.579   9.093  14.111
54294W        W25965  36.966   9.440   3.789
54295W        W25966  29.422   9.712  10.211
54296W        W25967  22.555  27.076  12.026
54297W        W25968  28.024   0.102   0.693
54298W        W25969  39.151  34.493  11.982
54299W        W25970  38.943  10.176   3.285
54300W        W25971   9.966   5.195  14.977
54301W        W25972  41.796   4.277  12.385
54302W        W25973  29.682  31.352  13.089
54303W        W25974  26.647  17.597  12.852
54304W        W25975  11.374  33.103   2.228
54305W        W25976  42.897  11.837   4.062
54306W        W25977  34.338  37.513  13.749
54307W        W25978  25.991  25.747   1.610
54308W        W25979  31.100  26.491  13.246
54309W        W25980  29.164   0.740   4.521
54310W        W25981  30.066  22.253   2.315
54311W        W25982   8.912  32.412   4.571
54312W        W25983  33.611  22.647  12.448
54313W        W25984  42.322  26.010   1.272
54314W        W25985  25.351  29.515   3.921
54315W        W25986   7.749  42.004  12.033
54316W        W25987  17.250  41.456  10.652
54317W        W25988  32.357  27.975   1.179
54318W        W25989   7.388   6.482  11.179
54319W        W25990  30.020  11.880   1.165
54320W        W25991  36.595  37.758   2.085
54321W        W25992  10.880  34.932   3.229
54322W        W25993  20.063  39.315  12.464
54323W        W25994  16.750  15.667  13.310
54324W        W25995   6.396  33.985   1.528
54325W        W25996  33.911  39.573  13.694
54326W        W25997   3.259  18.170   2.902
54327W        W25998  42.966  18.551   3.757
54328W        W25999  25.085  19.048   3.760
54329W        W26000  32.980  12.681   3.054
54330W        W26001  11.800  28.391  14.948
54331W        W26002  39.020  20.199   4.158
54332W        W26003  42.143  17.562   2.407
54333W        W26004  34.158  42.558   2.160
54334W        W26005   4.443  34.853   3.615
54335W        W26006  35.686  24.662  13.996
54336W        W26007  29.491  17.372   5.183
54337W        W26008   4.624  24.181  14.379
54338W        W26009  35.569  40.048  14.870
54339W        W26010   4.477   4.413   1.840
54340W        W26011  39.652  19.314   4.818
54341W        W26012  41.498  38.014   4.122
54342W        W26013  16.834  38.324   3.407
54343W        W26014  22.794  35.925   0.121
54344W        W26015  17.763  31.427   0.616
54345W        W26016  26.508  19.026  14.745
54346W        W26017   5.669  31.957   3.324
54347W        W26018  34.961  39.624   5.153
54348W        W26019  41.142  44.796  11.972
54349W        W26020   0.997  22.934   0.964
54350W        W26021  40.282  17.234  10.246
54351W        W26022  41.971  28.698  12.523
54352W        W26023  33.552  25.196  12.388
54353W        W26024   2.800   1.993   3.223
54354W        W26025  39.894  32.830  10.690
54355W        W26026  33.618  16.269   3.694
54356W        W26027  12.146   6.803   2.185
54357W        W26028  26.557  33.598  14.996
54358W        W26029  43.678   1.754   0.088
54359W        W26030   8.330   3.853  13.973
54360W        W26031  28.118  14.655  11.576
54361W        W26032  44.170  44.992  11.957
54362W        W26033   2.737  22.248  11.091
54363W        W26034  13.342  25.135  12.462
54364W        W26035  21.244  24.585   1.412
54365W        W26036  44.111  30.617  11.116
54366W        W26037   3.338  26.624   0.958
54367W        W26038  29.726  27.415   4.396
54368W        W26039  24.675  43.493   3.907
54369W        W26040  36.767  35.164  11.019
54370W        W26041  16.985  43.778  14.457
54371W        W26042  11.924  30.535   0.764
54372W        W26043  41.451   7.348  12.344
54373W        W26044  21.157  17.497  14.969
54374W        W26045   8.821  24.558   0.581
54375W        W26046  15.699  22.971   3.303
54376W        W26047   2.539  37.421   5.079
54377W        W26048   6.466   4.685   4.094
54378W        W26049  44.974   1.310   3.067
54379W        W26050  34.988   2.073   1.257
54380W        W26051  17.384   3.215  13.473
54381W        W26052   9.387   2.813  13.279
54382W        W26053  33.205   1.286   4.283
54383W        W26054  36.957   3.246   2.196
54384W        W26055  13.215   5.311  14.537
54385W        W26056  12.091  15.230   0.200
54386W        W26057   3.871   6.281   1.905
54387W        W26058  44.946  19.816  11.125
54388W        W26059  10.437   2.117   4.269
54389W        W26060  18.608  13.348  11.385
54390W        W26061  34.368   3.505  11.165
54391W        W26062  37.547  36.268  11.551
54392W        W26063  15.574  31.937   1.310
54393W        W26064  10.353  35.109  14.442
54394W        W26065  33.654  35.776   0.748
54395W        W26066  13.365  25.015   1.398
54396W        W26067  16.193  30.069   1.678
54397W        W26068  20.704  29.686   1.840
54398W        W26069  30.678   6.379  13.210
54399W        W26070  14.597  44.752  13.049
54400W        W26071   5.097  21.692   4.221
54401W        W26072  29.077  25.622   0.734
54402W        W26073   3.889  36.587   0.629
54403W        W26074  32.984  15.037   4.260
54404W        W26075  19.177  22.039   1.740
54405W        W26076  44.463  18.875   2.217
54406W        W26077  17.046  44.061  13.458
54407W        W26078   4.423  26.111  10.332
54408W        W26079  17.666  15.881  10.632
54409W        W26080  30.490   5.634   0.286
54410W        W26081  27.312  18.785  11.883
54411W        W26082   6.285  22.034  12.281
54412W        W26083  31.516  42.372  13.467
54413W        W26084  19.903  22.016   4.701
54414W        W26085   7.544   6.166   4.111
54415W        W26086  43.442  27.710  13.380
54416W        W26087  25.665   0.227   2.722
54417W        W26088  22.128  29.631   2.420
54418W        W26089  35.613   4.868  11.576
54419W        W26090  13.113  14.346  14.880
54420W        W26091  29.173  30.706  14.457
54421W        W26092  36.395  19.676   1.663
54422W        W26093  12.251  28.605   3.032
54423W        W26094  27.056  27.953  12.555
54424W        W26095   7.062  31.559   0.307
54425W        W26096  26.773  22.623  14.934
54426W        W26097  44.121   1.257  11.571
54427W        W26098  25.763  29.194  14.243
54428W        W26099  14.713  24.087   1.716
54429W        W26100  26.605  36.758  13.423
54430W        W26101   2.133   3.725   1.453
54431W        W26102  29.939  18.676   0.529
54432W        W26103  39.099  20.075   3.240
54433W        W26104   0.755  20.130   2.637
54434W        W26105  30.398  11.727   3.812
54435W        W26106  25.481  13.563   4.799
54436W        W26107  32.060   0.803  11.378
54437W        W26108  34.380  11.839   4.327
54438W        W26109   8.631  39.727   2.798
54439W        W26110  22.715  16.785   3.323
54440W        W26111  24.512   5.385   4.760
54441W        W26112  10.239  16.334   0.224
54442W        W26113  29.093  29.992  10.453
54443W        W26114  10.685  31.625   0.853
54444W        W26115  29.345  11.051   2.238
54445W        W26116  23.213  25.968   3.454
54446W        W26117  29.901  33.844  12.518
54447W        W26118  28.087  33.813   5.194
54448W        W26119  13.323  24.573  11.261
54449W        W26120   3.402  13.892   0.990
54450W        W26121  27.078  21.977  11.681
54451W        W26122   8.809  43.513   0.757
54452W        W26123   6.312  13.282   1.217
54453W        W26124   1.321  36.789   2.855
54454W        W26125   8.128   3.738   1.791
54455W        W26126  25.990  10.025   4.424
54456W        W26127  25.005  21.649   3.698
54457W        W26128  19.126  34.337  12.555
54458W        W26129  34.656  36.165   1.569
54459W        W26130  11.666  13.814   1.444
54460W        W26131   3.427  14.315  14.689
54461W        W26132   3.280   0.569  13.516
54462W        W26133  40.364  27.425  14.177
54463W        W26134  30.358  18.481  10.698
54464W        W26135  37.265  38.302   0.742
54465W        W26136  28.531  15.176  12.488
54466W        W26137  28.128  16.980   2.302
54467W        W26138   7.931  16.015  12.568
54468W        W26139  37.597  29.891   0.277
54469W        W26140  43.665   4.235  14.950
54470W        W26141  12.998   0.614   2.365
54471W        W26142   2.476  23.491  14.796
54472W        W26143   5.847  29.457   4.177
54473W        W26144  29.668  13.595   1.334
54474W        W26145  13.820  29.531  11.750
54475W        W26146  16.472   6.055  12.734
54476W        W26147  33.340  16.596  12.920
54477W        W26148  29.855  19.353   0.733
54478W        W26149  20.585  32.311  10.178
54479W        W26150  25.024  33.884   2.673
54480W        W26151   2.533  17.474   1.802
54481W        W26152  39.752  19.839   1.567
54482W        W26153  36.073  44.568   2.064
54483W        W26154  36.477   8.361  12.094
54484W        W26155  39.060  19.748  10.670
54485W        W26156  14.852  27.493   1.961
54486W        W26157   6.211  12.381   0.384
54487W        W26158   9.549  37.316  11.926
54488W        W26159  22.349   5.418   1.134
54489W        W26160  18.772   9.278  12.472
54490W        W26161   4.445   4.743   3.430
54491W        W26162  34.947   4.338  13.177
54492W        W26163   0.955  32.252   0.877
54493W        W26164   1.247   9.205  12.998
54494W        W26165   6.699  17.247   1.447
54495W        W26166  40.355  34.105   1.850
54496W        W26167   5.128   1.171  13.785
54497W        W26168  28.111  33.450  10.629
54498W        W26169   3.381  20.562   5.130
54499W        W26170   2.535  25.519   4.572
54500W        W26171  27.006  36.802  11.960
54501W        W26172  30.416  29.415  10.829
54502W        W26173  14.673  32.511  10.705
54503W        W26174  20.191  21.086   2.335
54504W        W26175   0.360   5.940   3.760
54505W        W26176  15.249  44.287   2.070
54506W        W26177  23.165  35.010   1.181
54507W        W26178  37.385  30.039   3.339
54508W        W26179   4.794  18.696  11.511
54509W        W26180  36.106  27.872   2.891
54510W        W26181  35.141  18.206  13.094
54511W        W26182  39.029  18.971  14.391
54512W        W26183  29.175  38.875  13.613
54513W        W26184  29.896  36.179  14.556
54514W        W26185  42.489  17.191   2.395
54515W        W26186  12.558  12.251  14.504
54516W        W26187  16.168  32.843  11.576
54517W        W26188  44.803  11.737  14.617
54518W        W26189  21.257  25.451  13.468
54519W        W26190  44.861  31.513   1.277
54520W        W26191  42.384  28.720   4.625
54521W        W26192   8.371  30.855  11.065
54522W        W26193  19.521   0.529  11.498
54523W        W26194  12.953  20.602  12.836
54524W        W26195  28.906  19.986  12.751
54525W        W26196  11.782  40.594   4.184
54526W        W26197   2.713   2.146   0.933
54527W        W26198  33.506   1.379  12.229
54528W        W26199   1.612  36.496   0.886
54529W        W26200   5.289  29.416   0.897
54530W        W26201  17.561  39.661   0.756
54531W        W26202  35.364  29.523  13.540
54532W        W26203  27.451  33.678   0.724
54533W        W26204  28.498  44.724  12.049
54534W        W26205   0.043  35.606   3.773
54535W        W26206  16.012   4.209   2.123
54536W        W26207  38.618  28.701   0.023
54537W        W26208  19.874  16.562  12.315
54538W        W26209  21.757  41.991   0.997
54539W        W26210  20.271  40.514   3.083
54540W        W26211  17.470   4.381   2.258
54541W        W26212   7.679   7.644   0.336
54542W        W26213  38.367  41.875  10.992
54543W        W26214  12.404  11.310   1.921
54544W        W26215  21.613   7.340  10.641
54545W        W26216  29.920  14.283   4.858
54546W        W26217  37.365  44.818   4.337
54547W        W26218  19.998  35.538   4.788
54548W        W26219  35.421  14.117  14.903
54549W        W26220   9.343  39.274  12.596
54550W        W26221  12.560  33.327   4.513
54551W        W26222  29.181  12.129  12.630
54552W        W26223  28.626   8.251   4.295
54553W        W26224   2.902  35.685   0.692
54554W        W26225  44.973  19.293  11.130
54555W        W26226  28.509  22.620   2.348
54556W        W26227   7.014   8.828  13.319
54557W        W26228  36.559  34.879   1.272
54558W        W26229   3.017  24.817   0.353
54559W        W26230  24.288  32.573   4.281
54560W        W26231  30.043  27.454  13.286
54561W        W26232  33.384  40.840   3.241
54562W        W26233  18.104  36.402   2.920
54563W        W26234  18.184  43.083  13.576
54564W        W26235   3.392  34.192   1.652
54565W        W26236   0.273   8.127   2.937
54566W        W26237  10.552  10.233   9.874
54567W        W26238   1.719  18.291  10.743
54568W        W26239  43.501  17.617  10.818
54569W        W26240  29.999  13.302  14.616
54570W        W26241  24.348  13.586   4.623
54571W        W26242  17.343   8.623   1.014
54572W        W26243  27.942  42.836  14.414
54573W        W26244  18.721  28.430   4.148
54574W        W26245  33.508  28.991  10.767
54575W        W26246  43.729  37.859  11.521
54576W        W26247  20.961  29.339   1.529
54577W        W26248  35.042  22.665   0.750
54578W        W26249  30.620  21.080   1.849
54579W        W26250  31.717  40.840  12.518
54580W        W26251  12.016   7.489  13.939
54581W        W26252   9.344   5.257   1.914
54582W        W26253   2.360  22.756  12.434
54583W        W26254   1.762  14.383   4.791
54584W        W26255  15.186  36.001   2.524
54585W        W26256  17.820  37.026  11.554
54586W        W26257   1.357  29.490  13.951
54587W        W26258   8.666  43.887   2.355
54588W        W26259  37.123  12.831   1.847
54589W        W26260  13.783  16.636   3.885
54590W        W26261  39.483  12.103  12.548
54591W        W26262  23.057  19.182  12.488
54592W        W26263  26.456  32.168   2.424
54593W        W26264  13.346  28.646  12.848
54594W        W26265  29.258  26.410  10.990
54595W        W26266   1.490  34.793  13.500
54596W        W26267  27.437  31.719   0.566
54597W        W26268  31.113  15.326  13.948
54598W        W26269  43.332  30.368   2.764
54599W        W26270  17.262   3.040   2.254
54600W        W26271  22.720  11.650  10.730
54601W        W26272  33.057  31.633  14.298
54602W        W26273  33.468  38.785   5.458
54603W        W26274   6.260  27.785   1.715
54604W        W26275  17.333  27.827   0.427
54605W        W26276  16.790  18.231   1.728
54606W        W26277  32.166  27.363  13.548
54607W        W26278  17.729  23.702  14.314
54608W        W26279  42.746  34.784   3.351
54609W        W26280  30.394  38.238  13.328
54610W        W26281  32.418  13.172  13.470
54611W        W26282  23.509  24.186  13.474
54612W        W26283  29.219   5.982  13.683
54613W        W26284  42.812   0.773  12.670
54614W        W26285  23.636  34.953  11.899
54615W        W26286  14.285  41.515  12.547
54616W        W26287  20.756  18.434  14.851
54617W        W26288  14.767   6.321   2.841
54618W        W26289  10.187  19.640  10.635
54619W        W26290  24.966  30.133   0.911
54620W        W26291  24.303  12.198   0.881
54621W        W26292  24.594   4.562  14.891
54622W        W26293  15.669  41.299   2.464
54623W        W26294  13.333  38.918  14.577
54624W        W26295  32.857  10.188  13.364
54625W        W26296   2.745  29.078   2.268
54626W        W26297  16.760  26.604   0.417
54627W        W26298  33.544   7.099   3.804
54628W        W26299  21.582   8.233   1.663
54629W        W26300  28.699  17.651  10.742
54630W        W26301  12.663  44.034   4.472
54631W        W26302  28.537   1.876  14.262
54632W        W26303   7.943  30.534   2.304
54633W        W26304  42.237   4.440   2.365
54634W        W26305   2.046  23.267  10.972
54635W        W26306  21.031  35.040   1.541
54636W        W26307  10.950   2.524   0.947
54637W        W26308  28.709  41.400   3.582
54638W        W26309  29.887  33.154  10.750
54639W        W26310  25.555   7.724  10.796
54640W        W26311  23.651  24.496   0.966
54641W        W26312   1.222  18.320  10.935
54642W        W26313  14.641  32.879   3.757
54643W        W26314  22.093   1.231  12.922
54644W        W26315  12.052  30.509  11.584
54645W        W26316  40.347  18.659  11.502
54646W        W26317   5.288  19.639   1.337
54647W        W26318  10.127  37.377   4.193
54648W        W26319  16.927   4.414  13.638
54649W        W26320  27.744  21.609  12.420
54650W        W26321  14.422  41.058   1.415
54651W        W26322   0.253  13.731  14.813
54652W        W26323  10.226  34.802   2.699
54653W        W26324  43.502  41.235   0.341
54654W        W26325  29.613  33.413   0.160
54655W        W26326  22.230  35.449  14.584
54656W        W26327  11.658  31.914  13.280
54657W        W26328   6.773  26.049   3.983
54658W        W26329  40.617  35.626  13.938
54659W        W26330  16.332  30.213   0.345
54660W        W26331  31.161  26.251  14.973
54661W        W26332  20.521  28.021  13.510
54662W        W26333  13.399   5.968  12.474
54663W        W26334  40.961  44.345  12.103
54664W        W26335  20.823  38.331  12.989
54665W        W26336  18.466   6.087  10.332
54666W        W26337   5.249  20.193  11.651
54667W        W26338  13.347  39.399   0.337
54668W        W26339   8.587  44.860   2.447
54669W        W26340  13.293  28.511   4.351
54670W        W26341   3.040   7.016   0.764
54671W        W26342  18.803  28.463   1.308
54672W        W26343  43.966  21.459  13.432
54673W        W26344  36.841  24.056  14.522
54674W        W26345  24.079  41.478  14.488
54675W        W26346  18.665  43.754   3.316
54676W        W26347  26.552  29.357  14.050
54677W        W26348  27.713   1.991   1.192
54678W        W26349   9.833  26.710   4.197
54679W        W26350   9.330   2.314   0.368
54680W        W26351  19.199  14.579  11.070
54681W        W26352  41.436  36.602  14.240
54682W        W26353  28.185   4.518   2.371
54683W        W26354  42.761   5.377  13.687
54684W        W26355  38.496   9.319  13.542
54685W        W26356  42.737  41.923  10.971
54686W        W26357  23.811   0.967  14.426
54687W        W26358  16.594   8.898   3.171
54688W        W26359   7.750  18.322   2.825
54689W        W26360  15.705   6.188   3.219
54690W        W26361  21.742  35.048  13.014
54691W        W26362  33.459  16.670  10.693
54692W        W26363  15.532  32.446  12.017
54693W        W26364   1.959   6.885   1.100
54694W        W26365  42.518  38.163   5.391
54695W        W26366  15.070  41.478  13.950
54696W        W26367  42.309  39.882   3.184
54697W        W26368  11.908  43.018   2.960
54698W        W26369  27.645  19.609  12.492
54699W        W26370  10.969  44.955  11.227
54700W        W26371  34.065   2.683  13.933
54701W        W26372   7.318  40.224   0.718
54702W        W26373  24.201  44.097  13.861
54703W        W26374  28.880  18.751   1.913
54704W        W26375  36.835  20.030  14.981
54705W        W26376  31.577  15.071  10.902
54706W        W26377  31.910  38.992   3.321
54707W        W26378  20.807  37.607  13.442
54708W        W26379  22.582  26.923  11.485
54709W        W26380  19.235   2.424   4.835
54710W        W26381  27.698  30.800   0.216
54711W        W26382  27.681  38.958   4.892
54712W        W26383  43.361   4.653  14.953
54713W        W26384  14.130  32.904   1.516
54714W        W26385  25.593   7.918   3.873
54715W        W26386   0.897  34.501   4.278
54716W        W26387   7.936  44.091   1.928
54717W        W26388  31.981  29.819   2.126
54718W        W26389  25.565   6.275  11.465
54719W        W26390   9.865  29.150   1.684
54720W        W26391  40.515  40.216   2.439
54721W        W26392   7.931  25.473  11.936
54722W        W26393  15.140  19.512   3.998
54723W        W26394  32.793  10.440  11.264
54724W        W26395   8.758  16.644   0.740
54725W        W26396  35.318  35.860  10.163
54726W        W26397  37.514  19.535  13.402
54727W        W26398   9.082  29.204  14.808
54728W        W26399  11.574  38.522   1.258
54729W        W26400  21.799  22.330  14.040
54730W        W26401  26.226  38.900  11.179
54731W        W26402  22.632   5.284   2.735
54732W        W26403  12.878  13.692  13.885
54733W        W26404  40.841   5.194   0.855
54734W        W26405  32.892  26.184   4.920
54735W        W26406  28.383  43.857  14.575
54736W        W26407  32.064  20.178   0.293
54737W        W26408  39.953   1.912  13.545
54738W        W26409   8.448  24.572  12.026
54739W        W26410  41.846  36.741   4.147
54740W        W26411  11.683   5.729   1.801
54741W        W26412  24.424  18.524  14.747
54742W        W26413  30.222  10.707   4.573
54743W        W26414  21.565  39.910   5.143
54744W        W26415  41.791   1.337   2.689
54745W        W26416   8.645  19.975  13.953
54746W        W26417  33.023  23.139   1.908
54747W        W26418  31.622  31.958   3.644
54748W        W26419  31.949  11.929  11.901
54749W        W26420  21.114   0.740   3.669
54750W        W26421  11.398  19.263   2.711
54751W        W26422  39.397  21.030  14.972
54752W        W26423  34.973  16.808  10.739
54753W        W26424   1.392   4.194   3.484
54754W        W26425  17.622   0.728  13.062
54755W        W26426   9.859  10.658   2.091
54756W        W26427  40.682  41.823   1.382
54757W        W26428  39.806  40.788   4.161
54758W        W26429  33.160   1.306   0.990
54759W        W26430   7.802  12.819   0.214
54760W        W26431   4.210  31.134  14.063
54761W        W26432  37.978  24.705   1.587
54762W        W26433  22.434   8.776  10.671
54763W        W26434  21.779  34.369   3.339
54764W        W26435  29.289   3.228   0.331
54765W        W26436   3.265  22.570   0.941
54766W        W26437  25.700  10.803  14.071
54767W        W26438   2.742  20.006  11.503
54768W        W26439  31.211   6.966  13.809
54769W        W26440  25.577  36.849  13.103
54770W        W26441  10.373   5.138   1.660
54771W        W26442  26.084   8.731  13.656
54772W        W26443  20.257  19.024   3.577
54773W        W26444  41.857  15.821   2.817
54774W        W26445  28.729  22.600  14.724
54775W        W26446  35.094  22.998  12.069
54776W        W26447  14.218  23.242   4.359
54777W        W26448  15.130  20.257   1.170
54778W        W26449  43.990  36.334   1.947
54779W        W26450  31.891  18.313  11.461
54780W        W26451  35.528  22.225  12.890
54781W        W26452   1.956  30.569   4.212
54782W        W26453  10.542  17.051  12.683
54783W        W26454  23.121  25.822   4.902
54784W        W26455   0.991  24.078   5.055
54785W        W26456  10.294  21.020  10.600
54786W        W26457  38.919   3.879   4.117
54787W        W26458  31.606  15.217  13.382
54788W        W26459  37.056  13.789  13.621
54789W        W26460  28.658  43.866   4.703
54790W        W26461  16.039  40.728  12.564
54791W        W26462  31.475   9.992   2.766
54792W        W26463   1.320  17.983   3.838
54793W        W26464   5.524  18.996  14.754
54794W        W26465  12.765  33.147   2.732
54795W        W26466   9.694  20.236  13.866
54796W        W26467  40.396   7.150  11.220
54797W        W26468  40.577  31.533  11.388
54798W        W26469  17.355  13.345   5.328
54799W        W26470  27.617  38.855   3.288
54800W        W26471  25.426  29.022  13.366
54801W        W26472  37.735   2.196   5.071
54802W        W26473  16.863   9.456   2.973
54803W        W26474  12.381  17.799   0.935
54804W        W26475   4.552  39.164  11.600
54805W        W26476  14.691  30.930  11.877
54806W        W26477  31.416  11.849   0.270
54807W        W26478  11.339  12.075  14.936
54808W        W26479   1.478  34.514  12.383
54809W        W26480  29.078  17.324  13.408
54810W        W26481  24.767  13.721  13.556
54811W        W26482  12.560  39.127   4.359
54812W        W26483  41.750   0.094   2.169
54813W        W26484  27.238   0.829  12.384
54814W        W26485  10.562  40.455   2.915
54815W        W26486  33.908  27.708  13.100
54816W        W26487  25.133  18.024  11.480
54817W        W26488   1.938   9.427   1.577
54818W        W26489  14.178  15.152   3.118
54819W        W26490  41.794   5.473  13.822
54820W        W26491   1.441   3.060   0.235
54821W        W26492  13.572  33.950  10.727
54822W        W26493  29.901   7.218  14.381
54823W        W26494  26.474  26.986   2.483
54824W        W26495   5.478   1.531  12.913
54825W        W26496  24.453  34.121   2.425
54826W        W26497  44.742   6.728   2.750
54827W        W26498  21.721   6.734   4.093
54828W        W26499  15.157  35.291   0.248
54829W        W26500   3.736  43.932  13.461
54830W        W26501  22.097  31.957  14.732
54831W        W26502  18.743   1.503  14.508
54832W        W26503  30.717   2.025   3.204
54833W        W26504  22.089  13.249   3.112
54834W        W26505   9.394  40.072   3.219
54835W        W26506   5.361  27.428  14.426
54836W        W26507  33.150  11.162  11.593
54837W        W26508  35.310  25.621   0.262
54838W        W26509  39.381  18.221   3.678
54839W        W26510  11.769  32.016  10.668
54840W        W26511  40.940  18.786  14.381
54841W        W26512  38.644  32.915   4.249
54842W        W26513  21.767  39.867   2.328
54843W        W26514   8.340  40.033   4.106
54844W        W26515  14.858  34.611   2.716
54845W        W26516  14.135  36.881   0.870
54846W        W26517  18.805  17.796   1.746
54847W        W26518  43.837  14.650  10.055
54848W        W26519  18.562   6.966  11.176
54849W        W26520  25.343  34.495  11.087
54850W        W26521  36.369  34.388  13.929
54851W        W26522  35.105  12.308   3.175
54852W        W26523  39.451   8.718   2.025
54853W        W26524  28.909  30.392  14.037
54854W        W26525  37.232  33.416   0.880
54855W        W26526  29.661  29.103  13.074
54856W        W26527  23.046  19.234  11.079
54857W        W26528  41.586  39.816  12.832
54858W        W26529  20.086  15.254  12.031
54859W        W26530  39.432  33.011  10.843
54860W        W26531   4.043  20.691  13.352
54861W        W26532  42.202  37.984  13.637
54862W        W26533  41.495  41.323  13.836
54863W        W26534  18.669  37.571   0.795
54864W        W26535  44.899  40.597   4.579
54865W        W26536   8.237  36.124  12.707
54866W        W26537   0.936   0.039   3.202
54867W        W26538   4.686  33.727   3.239
54868W        W26539   2.252  31.517  10.743
54869W        W26540  18.968  14.584  14.494
54870W        W26541  27.642  15.685  12.936
54871W        W26542  30.939  19.881  10.751
54872W        W26543   8.464  42.765   4.459
54873W        W26544   3.326  33.545  11.669
54874W        W26545  40.862  38.799  12.646
54875W        W26546  12.496  23.140   2.959
54876W        W26547  29.452   4.654   4.972
54877W        W26548   6.618  44.210   4.009
54878W        W26549  38.882   2.765   4.476
54879W        W26550   4.778   8.349   0.642
54880W        W26551  30.039  30.590   4.272
54881W        W26552  29.647   4.034   2.304
54882W        W26553  38.603  38.254  14.969
54883W        W26554   2.646  13.567  14.332
54884W        W26555   5.842  35.191  11.441
54885W        W26556  30.073  28.905   0.444
54886W        W26557  42.303  28.185  13.410
54887W        W26558  20.916  28.252   2.861
54888W        W26559  19.022   2.058   3.172
54889W        W26560   9.594  22.102  12.915
54890W        W26561  22.134   6.760  11.665
54891W        W26562  21.684  17.541   3.826
54892W        W26563   3.815  19.561  11.935
54893W        W26564  14.162  33.357   0.930
54894W        W26565  26.583   0.580   0.250
54895W        W26566  33.085  19.168  13.472
54896W        W26567  12.103   1.418  13.966
54897W        W26568  18.030  23.153   1.549
54898W        W26569   8.233  41.267  11.254
54899W        W26570  25.198  13.677   0.927
54900W        W26571  27.926  11.713   0.568
54901W        W26572  30.202  13.702  13.383
54902W        W26573  36.096   7.192  13.172
54903W        W26574  20.285  42.950  10.769
54904W        W26575  24.883  16.207   3.203
54905W        W26576  26.622  41.223  13.941
54906W        W26577  17.129  33.680  13.062
54907W        W26578  28.070   5.062  10.428
54908W        W26579  13.185  13.625  12.286
54909W        W26580  36.327  37.988   3.531
54910W        W26581   2.431   3.992  13.969
54911W        W26582   8.634   0.216   0.486
54912W        W26583  35.794  39.463   3.674
54913W        W26584  23.775  44.840  12.061
54914W        W26585  32.471  37.535   2.399
54915W        W26586  10.727   5.717  14.191
54916W        W26587  12.856  29.805   3.664
54917W        W26588  22.470  17.144   2.351
54918W        W26589  20.308  10.205   2.681
54919W        W26590  10.696   6.152   4.237
54920W        W26591   1.629  31.565  14.198
54921W        W26592   5.473  20.424  14.986
54922W        W26593  12.300   2.710   2.804
54923W        W26594  33.171   8.709  14.468
54924W        W26595  27.074  40.512   0.970
54925W        W26596   4.403  42.505   3.806
54926W        W26597  44.397  22.271  13.381
54927W        W26598  20.120  10.546   0.488
54928W        W26599   3.640  41.208  13.812
54929W        W26600   7.739  12.637  13.053
54930W        W26601  39.007   3.270   3.668
54931W        W26602  32.561  29.272  12.142
54932W        W26603  29.441   6.184   5.030
54933W        W26604   5.912   7.944  12.544
54934W        W26605  40.831   3.880   1.395
54935W        W26606  24.971  28.107  13.551
54936W        W26607   5.303  30.932   1.834
54937W        W26608   9.895  32.898  13.803
54938W        W26609  26.799  40.824   0.668
54939W        W26610  40.550  18.212  10.709
54940W        W26611  32.165  28.132   1.634
54941W        W26612   9.473  25.535  13.837
54942W        W26613   6.348  28.648  11.556
54943W        W26614   1.287  36.403   4.647
54944W        W26615   9.848  24.797  11.945
54945W        W26616  42.800   0.389   3.680
54946W        W26617  40.811   3.157   4.192
54947W        W26618   9.920  36.359   2.139
54948W        W26619  30.170  18.066   0.292
54949W        W26620  44.394   9.308   1.909
54950W        W26621   0.986  28.197  14.496
54951W        W26622  39.931  21.899   1.359
54952W        W26623   9.276  40.542  11.730
54953W        W26624   3.188  31.916   1.255
54954W        W26625   5.236  24.151  12.544
54955W        W26626  24.451   4.200  12.702
54956W        W26627  41.269  39.592   0.823
54957W        W26628  43.986  40.523  12.046
54958W        W26629  35.805  42.385  14.311
54959W        W26630  26.876  40.076  14.423
54960W        W26631  41.145  43.168  14.406
54961W        W26632  13.076  33.522   9.962
54962W        W26633   5.342   2.557   2.267
54963W        W26634  29.739  23.075   4.544
54964W        W26635   7.109   6.196   2.781
54965W        W26636   0.968  15.195  13.423
54966W        W26637  34.571   0.890  14.193
54967W        W26638  34.115  11.581   2.139
54968W        W26639  16.619  41.513   4.260
54969W        W26640  38.798   9.400  14.936
54970W        W26641   6.359  31.065  12.545
54971W        W26642   4.221  14.028  11.160
54972W        W26643  31.183  17.560   3.269
54973W        W26644   0.826   4.660  14.428
54974W        W26645  21.864  35.403  13.956
54975W        W26646  35.834   8.452  11.109
54976W        W26647  20.371  24.060  10.375
54977W        W26648  12.300  30.296   2.481
54978W        W26649  39.338  15.183  13.616
54979W        W26650  32.028   7.418  14.889
54980W        W26651   0.025  18.815  13.308
54981W        W26652  14.619  39.366  12.138
54982W        W26653   0.181   2.538   2.016
54983W        W26654  24.743  40.827   2.252
54984W        W26655  37.932  16.724   2.691
54985W        W26656  30.191   9.343   1.882
54986W        W26657   0.311  17.730  10.510
54987W        W26658  36.612  34.950   0.393
54988W        W26659  35.493  21.253  13.465
54989W        W26660   4.606  15.765  12.065
54990W        W26661   3.333  27.953  13.410
54991W        W26662  21.500   0.183  11.647
54992W        W26663  39.090  28.892  11.156
54993W        W26664   6.484   0.443   0.228
54994W        W26665  36.535  32.889  14.334
54995W        W26666  26.073   9.943  10.576
54996W        W26667  12.250  17.889  13.039
54997W        W26668  28.904  10.147  12.049
54998W        W26669   1.493  17.795  13.293
54999W        W26670  32.032   0.878   1.760
55000W        W26671   6.711  14.843  13.698
55001W        W26672   6.233  43.430   3.958
55002W        W26673  11.464  28.992   1.237
55003W        W26674  28.477  34.699  10.618
55004W        W26675  39.479  29.453  14.502
55005W        W26676  19.090  32.841   4.936
55006W        W26677  43.569   8.610  11.044
55007W        W26678  24.024  29.418  14.450
55008W        W26679   6.957  12.392  14.742
55009W        W26680  18.363  31.042   0.766
55010W        W26681  16.731  39.028   0.308
55011W        W26682  37.176  31.662  12.679
55012W        W26683  41.150  40.462  14.763
55013W        W26684  29.631  29.201  11.209
55014W        W26685  40.950  31.380  11.702
55015W        W26686   4.444  43.942   1.504
55016W        W26687   6.675  15.564   0.001
55017W        W26688   1.594  30.058  11.044
55018W        W26689   2.428  27.442  10.555
55019W        W26690   6.450  44.841  11.048
55020W        W26691  18.750  17.072   1.306
55021W        W26692  43.415  15.558  10.573
55022W        W26693   2.491  21.972   4.107
55023W        W26694   0.895  24.378  13.880
55024W        W26695   9.734  11.032  10.721
55025W        W26696  41.616  21.703   2.024
55026W        W26697  14.153  30.079  14.835
55027W        W26698  14.870  37.546  13.904
55028W        W26699  44.855  44.966   4.316
55029W        W26700   1.102  36.446   0.800
55030W        W26701   8.642   4.278   4.001
55031W        W26702  12.831  34.273   1.809
55032W        W26703  28.621  38.859   1.288
55033W        W26704  19.036   0.338  11.420
55034W        W26705  25.085  18.478  14.336
55035W        W26706   4.036  14.792  12.753
55036W        W26707   9.880   4.891  14.302
55037W        W26708  11.056  30.421   4.720
55038W        W26709  20.001  39.085   3.959
55039W        W26710  14.779  33.192   4.147
55040W        W26711  22.957  16.122  10.565
55041W        W26712  41.382  41.450  13.316
55042W        W26713  28.041  14.748  13.414
55043W        W26714  17.407  21.027   4.093
55044W        W26715  24.756   0.147   1.045
55045W        W26716  38.465  30.042   3.424
55046W        W26717  24.606  13.830  12.709
55047W        W26718  43.351  31.818   0.262
55048W        W26719  34.465  24.003  12.204
55049W        W26720  23.523   1.852  14.040
55050W        W26721   3.814  30.858  14.242
55051W        W26722  15.195  19.576  14.783
55052W        W26723  32.268  11.839   3.303
55053W        W26724  41.789   8.867  11.609
55054W        W26725  14.477  27.195  11.136
55055W        W26726  23.500  17.867   4.163
55056W        W26727  20.552   3.145   1.928
55057W        W26728  14.316  20.986  10.458
55058W        W26729  44.418  41.999  10.657
55059W        W26730   7.470  20.580  14.106
55060W        W26731  34.993  18.576   0.260
55061W        W26732  34.406  33.588  12.951
55062W        W26733   7.360  37.108   1.998
55063W        W26734  30.668  32.587   2.459
55064W        W26735  22.394   6.211   2.226
55065W        W26736   7.218  38.758  13.185
55066W        W26737   8.838  33.992   4.625
55067W        W26738   2.390   3.679   1.920
55068W        W26739   7.170  24.067   0.966
55069W        W26740  31.957  43.052   1.470
55070W        W26741  27.422  32.154  14.817
55071W        W26742  11.304   6.200   4.615
55072W        W26743  22.175  30.463  14.950
55073W        W26744  34.457  36.774  11.535
55074W        W26745   2.893  12.023  12.397
55075W        W26746  30.520  19.023   4.355
55076W        W26747  12.515  14.786   0.388
55077W        W26748  44.244  24.896   3.745
55078W        W26749   2.542   6.156  14.440
55079W        W26750  14.589  26.969  13.895
55080W        W26751  41.474   5.302  10.925
55081W        W26752   1.375  19.564   3.196
55082W        W26753  35.046  33.919   4.608
55083W        W26754  16.436  35.964   3.189
55084W        W26755  34.408  22.919   4.422
55085W        W26756   3.262  13.083  11.080
55086W        W26757   0.203  35.457  11.241
55087W        W26758  41.439  39.037   0.826
55088W        W26759  34.889  18.243   1.914
55089W        W26760  33.050  43.956  10.998
55090W        W26761  37.582  35.348  13.309
55091W        W26762  28.375  32.131   2.128
55092W        W26763  33.315   0.713   5.115
55093W        W26764  20.673  14.102   0.788
55094W        W26765  39.924   5.742   1.013
55095W        W26766  40.262  23.646   4.902
55096W        W26767  19.143  28.458  13.444
55097W        W26768  15.178   4.914   3.330
55098W        W26769  33.699   1.824  13.061
55099W        W26770  32.083   3.716  14.239
55100W        W26771  32.122  31.412  14.106
55101W        W26772  38.853   6.211   1.220
55102W        W26773   9.193  29.952   0.881
55103W        W26774  29.240  19.072   3.228
55104W        W26775  31.126  20.744  14.341
55105W        W26776  41.815  40.904   3.982
55106W        W26777  31.396  26.224   2.680
55107W        W26778  34.456   7.288   4.304
55108W        W26779  28.685  28.991  14.471
55109W        W26780  18.573  34.625  14.854
55110W        W26781   3.004  29.820   3.657
55111W        W26782  12.284   3.248   3.879
55112W        W26783  41.813  21.094  13.949
55113W        W26784  30.343   5.812   4.650
55114W        W26785  18.659  21.464   2.387
55115W        W26786  21.600  23.766  12.443
55116W        W26787  26.999   8.040   2.339
55117W        W26788   0.949  25.043   4.087
55118W        W26789   3.297   6.377   4.986
55119W        W26790  27.244  14.366  11.035
55120W        W26791  24.466   0.430  14.351
55121W        W26792  40.986   1.081  10.623
55122W        W26793  19.758  39.264  12.885
55123W        W26794  20.676   2.646  12.900
55124W        W26795  17.296   6.845  11.050
55125W        W26796  40.680  30.872   3.799
55126W        W26797  40.778  38.556   0.405
55127W        W26798   9.669   4.753  12.529
55128W        W26799   6.917  14.838   0.480
55129W        W26800  39.031  40.068  13.305
55130W        W26801  39.371  23.022  12.856
55131W        W26802   1.598  43.450   3.397
55132W        W26803  27.971  29.153   0.543
55133W        W26804  11.251   3.735  11.621
55134W        W26805  38.234  41.916  13.054
55135W        W26806   0.766  36.836  11.212
55136W        W26807   7.267  44.149  12.115
55137W        W26808  41.906  27.757   1.367
55138W        W26809  11.211   1.213   4.593
55139W        W26810  41.792  43.463   0.847
55140W        W26811   4.968  17.106   1.857
55141W        W26812  18.667  32.340   0.757
55142W        W26813  20.085  10.219  11.108
55143W        W26814   3.949  35.142   0.837
55144W        W26815  34.783  11.739  11.132
55145W        W26816  44.558  10.226  14.987
55146W        W26817  25.286   2.854  12.551
55147W        W26818  14.591  36.066   3.848
55148W        W26819   6.698  31.400  11.479
55149W        W26820  39.797  22.420  12.355
55150W        W26821  19.407   1.957   3.493
55151W        W26822  27.900   2.917  12.425
55152W        W26823  42.300  30.105   0.442
55153W        W26824   3.329  15.687  13.313
55154W        W26825  19.323  32.440   4.625
55155W        W26826  21.762  41.247  10.706
55156W        W26827  24.587   2.694   4.189
55157W        W26828  10.847   2.822   4.669
55158W        W26829  17.192  23.082  11.431
55159W        W26830  40.488  21.322   0.579
55160W        W26831  42.540  43.453   0.170
55161W        W26832   9.444  12.226   1.383
55162W        W26833  13.070  41.219   1.700
55163W        W26834  25.538  10.821  10.665
55164W        W26835  31.503  10.182   0.514
55165W        W26836  19.019   6.736  11.403
55166W        W26837  14.667  28.631  10.783
55167W        W26838  15.675  40.997   0.155
55168W        W26839  35.451   2.547  14.113
55169W        W26840   2.826  10.491  13.392
55170W        W26841   5.913  30.055  10.820
55171W        W26842  32.126  29.867  11.505
55172W        W26843   1.400  30.093  13.035
55173W        W26844  40.292  22.006  10.752
55174W        W26845  43.960   7.707  14.600
55175W        W26846  25.603   5.281   0.398
55176W        W26847  12.839  20.038   1.008
55177W        W26848  16.840  27.723   0.495
55178W        W26849  35.367  27.432  14.324
55179W        W26850   7.678   6.748  14.048
55180W        W26851  30.677  39.527  11.227
55181W        W26852  21.051  21.103   3.758
55182W        W26853  21.339  23.532  12.034
55183W        W26854  29.177  18.989  12.565
55184W        W26855  43.838  42.938  13.510
55185W        W26856  24.694   0.637  14.827
55186W        W26857  38.028  31.196  12.911
55187W        W26858  39.040  38.887   3.289
55188W        W26859   6.223  32.623  11.436
55189W        W26860   1.447   5.550  11.480
55190W        W26861  19.280  28.592  14.353
55191W        W26862  44.718  10.683   1.255
55192W        W26863  13.798  33.991   4.430
55193W        W26864  22.735   9.684  14.387
55194W        W26865  39.917  39.138  10.859
55195W        W26866  32.580  35.841   0.446
55196W        W26867   8.623   1.665   3.236
55197W        W26868  35.939  22.893   2.384
55198W        W26869  20.324  14.658   0.754
55199W        W26870   7.494  31.770  12.944
55200W        W26871  13.161  38.408   4.344
55201W        W26872   9.712  15.018  12.584
55202W        W26873  18.341  22.573   3.607
55203W        W26874  13.247   2.866   2.611
55204W        W26875  22.367  43.118   3.932
55205W        W26876  10.702   7.252   1.687
55206W        W26877  36.500  10.989  13.406
55207W        W26878   6.203  28.068  12.908
55208W        W26879   2.756  16.846  12.081
55209W        W26880   0.834  23.497  10.112
55210W        W26881  17.651  34.369   2.426
55211W        W26882  42.823   6.138  10.679
55212W        W26883  41.522  23.414  10.749
55213W        W26884  18.179  14.103  12.554
55214W        W26885   9.068  36.629  14.242
55215W        W26886  23.741  19.778  14.280
55216W        W26887  28.071  41.828  11.482
55217W        W26888  34.174  34.321  12.422
55218W        W26889  35.877  36.378  12.495
55219W        W26890  29.496  31.747  12.589
55220W        W26891  17.680   8.399  13.434
55221W        W26892  21.341  30.948  14.520
55222W        W26893   1.397  37.126  11.516
55223W        W26894  27.215  11.916   4.703
55224W        W26895  17.826   7.907  13.506
55225W        W26896  17.844  39.428   3.448
55226W        W26897  30.427  20.010   4.167
55227W        W26898  10.560  14.917  12.729
55228W        W26899  27.978  32.961  14.993
55229W        W26900   1.860  17.039  13.809
55230W        W26901  28.390   0.804   1.406
55231W        W26902   6.104  35.031   4.556
55232W        W26903  16.720  27.478   1.807
55233W        W26904   4.845  22.142   1.881
55234W        W26905   9.640  11.198  11.944
55235W        W26906  15.431   4.786  10.134
55236W        W26907  32.693   1.801   3.316
55237W        W26908  27.665  24.721  13.956
55238W        W26909  17.043  31.177   4.930
55239W        W26910   2.720  15.276  10.250
55240W        W26911   9.186  17.191   1.778
55241W        W26912  31.592   0.431   3.282
55242W        W26913  32.078  13.818   0.386
55243W        W26914  17.166  42.083   1.065
55244W        W26915  21.541  18.543   4.717
55245W        W26916  11.664  22.024  14.521
55246W        W26917  42.341  35.020   2.650
55247W        W26918  21.658  31.163  14.864
55248W        W26919  37.811  28.112   0.864
55249W        W26920  44.928  26.610  13.370
55250W        W26921  42.849  37.854   1.661
55251W        W26922   4.948  23.057  10.131
55252W        W26923  14.450  22.164   1.154
55253W        W26924   2.409  10.160   4.664
55254W        W26925  10.289  11.304  10.587
55255W        W26926  30.571  18.109  14.034
55256W        W26927   0.936   0.442  12.414
55257W        W26928  30.166   0.925   0.198
55258W        W26929  20.158   5.859   1.847
55259W        W26930  25.467  18.095  12.989
55260W        W26931  33.722  38.458  11.604
55261W        W26932  40.761  18.214   2.830
55262W        W26933  33.419  35.629  12.506
55263W        W26934  20.443   7.293   4.555
55264W        W26935  24.160  33.429   3.363
55265W        W26936  14.300  12.925  12.424
55266W        W26937  10.623  35.979  10.207
55267W        W26938  34.457   5.792  14.783
55268W        W26939  32.302  27.459  11.507
55269W        W26940   9.415  39.015   2.820
55270W        W26941   4.374  10.958   1.459
55271W        W26942   5.298  12.780   4.115
55272W        W26943  17.568   9.366  11.576
55273W        W26944  22.742  31.996  12.464
55274W        W26945  21.754  33.671   1.833
55275W        W26946  22.226   9.899   3.285
55276W        W26947  27.051  15.252  10.913
55277W        W26948  26.991  21.015   4.226
55278W        W26949  19.297   5.350   3.055
55279W        W26950  13.324  28.094  12.053
55280W        W26951  24.531  31.450   4.497
55281W        W26952   4.392  34.143  10.595
55282W        W26953  26.052   1.858   0.029
55283W        W26954  10.809  25.752  12.913
55284W        W26955  42.957  44.737   1.816
55285W        W26956  42.538  33.539  10.718
55286W        W26957  35.326   6.597  13.820
55287W        W26958   8.413  43.230  12.003
55288W        W26959  28.896   1.391   1.633
55289W        W26960  18.348  16.055  13.544
55290W        W26961  36.115  22.041  12.408
55291W        W26962  21.953  35.922  14.753
55292W        W26963  17.848  23.878  12.469
55293W        W26964   0.454  15.831   3.144
55294W        W26965  21.016  28.149   4.651
55295W        W26966  19.584  25.730   1.258
55296W        W26967  32.967  24.063  13.736
55297W        W26968  32.434  37.405  13.788
55298W        W26969  36.870  33.412  12.638
55299W        W26970  32.028  25.994  11.558
55300W        W26971  34.457  19.070  11.863
55301W        W26972  24.115  33.011   2.536
55302W        W26973  15.035  32.586  11.079
55303W        W26974  28.888   0.207   0.604
55304W        W26975  44.837  20.083  10.660
55305W        W26976  25.884  31.898  11.664
55306W        W26977  23.870  12.812  10.433
55307W        W26978  16.801  25.757   1.485
55308W        W26979  43.459  22.223  10.504
55309W        W26980  37.337  27.414  13.448
55310W        W26981  23.212   4.490   2.818
55311W        W26982  26.091  10.381  11.147
55312W        W26983  13.667  32.848   3.694
55313W        W26984  22.181   9.359   1.961
55314W        W26985  38.509   7.191   1.297
55315W        W26986  37.854  15.234  12.091
55316W        W26987  24.982  41.924   1.424
55317W        W26988   2.053  23.039  13.380
55318W        W26989  25.491  18.686  14.616
55319W        W26990  33.093   5.699  14.586
55320W        W26991  44.011  12.792   2.793
55321W        W26992  31.078  42.064   1.157
55322W        W26993  28.165  36.765  12.476
55323W        W26994  25.790  27.878  14.914
55324W        W26995  37.151   5.826   0.417
55325W        W26996  30.987  17.782  14.219
55326W        W26997   4.411   1.926   0.308
55327W        W26998  36.952  19.311  14.505
55328W        W26999  26.696   5.680   4.206
55329W        W27000  35.019  35.385  13.967
55330W        W27001  29.074  31.049  11.386
55331W        W27002   7.127  23.761   3.624
55332W        W27003  32.475  27.261   4.361
55333W        W27004  27.594   2.783   0.658
55334W        W27005   1.926  23.710  12.316
55335W        W27006  27.005  37.333   4.488
55336W        W27007   8.310  16.656  11.148
55337W        W27008  41.887  26.924   2.827
55338W        W27009  10.565  15.338  10.387
55339W        W27010  28.883   4.427  11.146
55340W        W27011  10.571  40.557   3.779
55341W        W27012   8.121  40.915   1.733
55342W        W27013  11.897   1.402   3.992
55343W        W27014  13.528  18.680  14.323
55344W        W27015  35.651  20.294   2.694
55345W        W27016  20.700  37.086  12.223
55346W        W27017   0.969  25.421  13.981
55347W        W27018   6.285  35.682  10.539
55348W        W27019  27.950  16.035   0.949
55349W        W27020  25.479   0.296  14.443
55350W        W27021  21.702  13.098   3.442
55351W        W27022  16.147  43.882  11.282
55352W        W27023   2.021  43.893   0.950
55353W        W27024  12.843  27.966  12.462
55354W        W27025  35.807  15.833   2.685
55355W        W27026  13.351  34.576  12.626
55356W        W27027  25.598   1.305   4.838
55357W        W27028  41.747  16.186   2.165
55358W        W27029  19.693   7.062   2.893
55359W        W27030  43.104  28.593  13.407
55360W        W27031   8.207  16.834   4.710
55361W        W27032  14.861  42.407   3.097
55362W        W27033  13.128  11.335   4.525
55363W        W27034  11.415  22.696  14.141
55364W        W27035   3.838  35.830   4.198
55365W        W27036  29.600  26.813   5.080
55366W        W27037  16.705  12.753   1.359
55367W        W27038   4.466  35.032   0.250
55368W        W27039  35.438  25.048  11.910
55369W        W27040  39.474  18.015  11.448
55370W        W27041  20.190  18.006   3.250
55371W        W27042   0.976   0.316  11.567
55372W        W27043   2.017  35.499   4.189
55373W        W27044   1.363  13.141  11.644
55374W        W27045  25.730   1.315   2.738
55375W        W27046  10.527  28.595  14.799
55376W        W27047  35.320  30.026   2.224
55377W        W27048  21.623  24.512   2.209
55378W        W27049  30.209  39.308  11.415
55379W        W27050  12.283   7.275  14.793
55380W        W27051  19.952  26.230  10.371
55381W        W27052  44.266  34.325  13.411
55382W        W27053  21.022   5.296  10.955
55383W        W27054  39.282  41.657   3.774
55384W        W27055  28.864   9.311   1.492
55385W        W27056  12.269   8.220   0.818
55386W        W27057   5.025  40.432  11.552
55387W        W27058  32.068  35.361  14.931
55388W        W27059  32.094  39.945  13.162
55389W        W27060   6.395  42.539   3.167
55390W        W27061  10.840  24.656  12.353
55391W        W27062  29.439  12.632   2.271
55392W        W27063  26.545  29.518   1.686
55393W        W27064  16.993  41.583   0.971
55394W        W27065  17.211  14.100  10.568
55395W        W27066  34.942  18.134   0.523
55396W        W27067   5.171  24.960  14.311
55397W        W27068  14.403  37.495  10.412
55398W        W27069  10.230  40.330  10.587
55399W        W27070  10.143   4.204  11.216
55400W        W27071  32.869  41.021  10.658
55401W        W27072  44.785  34.432   3.117
55402W        W27073  41.753  14.914  13.078
55403W        W27074  38.960  34.371   0.558
55404W        W27075  39.091   1.797  12.118
55405W        W27076  39.361  20.105  11.926
55406W        W27077   5.330   0.550   2.380
55407W        W27078  11.562  19.487  10.623
55408W        W27079  19.628  35.362  12.158
55409W        W27080  26.558   0.687  14.746
55410W        W27081   8.694  12.430  10.049
55411W        W27082  15.739  35.219   4.599
55412W        W27083  22.642  38.866  14.876
55413W        W27084  24.235  20.986   4.581
55414W        W27085  19.288  14.766   0.893
55415W        W27086  24.933  29.124   0.904
55416W        W27087  26.090  31.864   4.221
55417W        W27088  33.907  21.440   2.728
55418W        W27089  36.414  12.180   3.598
55419W        W27090   9.778  30.739   3.535
55420W        W27091  28.756  13.131   2.472
55421W        W27092  17.024  10.180   2.799
55422W        W27093   8.444  12.687   1.911
55423W        W27094  24.030  20.505   4.498
55424W        W27095  35.396  44.165   3.417
55425W        W27096  40.264   3.618   0.362
55426W        W27097  27.666  41.805   0.718
55427W        W27098  40.826  20.550   0.601
55428W        W27099  39.902  26.444  14.502
55429W        W27100  13.866  42.307   3.379
55430W        W27101  40.980  43.877  13.461
55431W        W27102   3.896   5.513  14.652
55432W        W27103  14.220   6.430   1.659
55433W        W27104  38.779  16.715  14.848
55434W        W27105  18.668  22.744   3.165
55435W        W27106  37.846  44.657  13.465
55436W        W27107   6.480  35.145  14.491
55437W        W27108  16.683  27.197  10.997
55438W        W27109   7.751  19.630  11.526
55439W        W27110   3.971  18.038  11.710
55440W        W27111  38.791  39.658   4.705
55441W        W27112  32.357  29.582   0.351
55442W        W27113  30.239  20.647  12.949
55443W        W27114  35.453  16.546  11.598
55444W        W27115  44.899  34.129   0.348
55445W        W27116   0.523  20.676  14.064
55446W        W27117  18.513  33.979   3.930
55447W        W27118  21.408   8.669  10.520
55448W        W27119  37.495  44.731   1.827
55449W        W27120  24.789  41.604   4.659
55450W        W27121  14.370  19.051   0.915
55451W        W27122   6.357  32.012   0.979
55452W        W27123  37.023   3.925   1.822
55453W        W27124  31.007  11.841   5.064
55454W        W27125  30.184   9.419   1.016
55455W        W27126  32.414  31.558  12.595
55456W        W27127  33.627   0.350   4.133
55457W        W27128  41.707  30.135  11.620
55458W        W27129   0.446  18.139   1.291
55459W        W27130  28.433  24.479  14.231
55460W        W27131  34.894  29.649   0.351
55461W        W27132  19.564  17.636   2.268
55462W        W27133  24.646  23.662  11.638
55463W        W27134  19.053   1.209   4.095
55464W        W27135  26.287  11.141  10.170
55465W        W27136  30.948  26.289  10.000
55466W        W27137  26.062  11.240   2.843
55467W        W27138  25.078  43.788   3.743
55468W        W27139  38.129  42.795   3.157
55469W        W27140  43.788   0.032   2.214
55470W        W27141  14.185  36.929  10.545
55471W        W27142   2.713  44.797   0.170
55472W        W27143   2.706   5.414   0.010
55473W        W27144   9.172  26.616  11.961
55474W        W27145  23.166  11.401  12.027
55475W        W27146  44.843  24.137   5.064
55476W        W27147   4.483  34.215   3.006
55477W        W27148  13.578   9.511   2.726
55478W        W27149  33.388   1.209  14.454
55479W        W27150  17.821  39.906   2.260
55480W        W27151  23.152  14.480  12.523
55481W        W27152  34.628  43.914  12.887
55482W        W27153  29.614   6.208   3.206
55483W        W27154  15.701   5.620   1.709
55484W        W27155  28.660   9.285   2.852
55485W        W27156  26.168  19.664  11.627
55486W        W27157  35.127  30.423  12.959
55487W        W27158  20.743   8.722  13.915
55488W        W27159   1.980  19.279   9.767
55489W        W27160   9.568  32.983  11.968
55490W        W27161   8.935  10.173   3.260
55491W        W27162   4.429  30.898  11.956
55492W        W27163   0.677   6.727   0.032
55493W        W27164  30.486   7.075   3.265
55494W        W27165  19.822  41.283  12.798
55495W        W27166   1.820  15.981   0.856
55496W        W27167  16.582  42.409   0.349
55497W        W27168   0.810   8.978   4.763
55498W        W27169  32.196  29.136   0.605
55499W        W27170  40.313  11.499  10.782
55500W        W27171   8.940  13.721  12.006
55501W        W27172  20.611   4.084   1.230
55502W        W27173  22.216  27.424  13.025
55503W        W27174   2.062   3.242  11.719
55504W        W27175   9.409  44.275   4.771
55505W        W27176  33.071  38.234   3.628
55506W        W27177  40.812   7.351  12.987
55507W        W27178  37.305  37.654  13.068
55508W        W27179  10.019   9.780   4.858
55509W        W27180  16.884  32.902  11.029
55510W        W27181   3.580  19.283  12.339
55511W        W27182  13.503  44.381   4.587
55512W        W27183  39.208  16.039   1.543
55513W        W27184   1.904  18.090  13.060
55514W        W27185  41.492  26.188   0.713
55515W        W27186  23.021  22.765   3.914
55516W        W27187  12.804  16.184   1.461
55517W        W27188  18.681  33.992  12.369
55518W        W27189   2.347  29.413  10.714
55519W        W27190  12.901  12.355   3.919
55520W        W27191  38.598   4.255  14.235
55521W        W27192  32.833  20.036   4.004
55522W        W27193  19.217  25.550   5.043
55523W        W27194  24.433  27.713   0.790
55524W        W27195  34.467  38.088   1.813
55525W        W27196  17.416  40.535   4.553
55526W        W27197  31.787   5.070  12.953
55527W        W27198  41.802  24.961   2.854
55528W        W27199  24.135  16.573  10.625
55529W        W27200   4.842  15.524   0.814
55530W        W27201   0.524  42.253   0.377
55531W        W27202  38.472  11.342  11.505
55532W        W27203  28.489  32.625   2.337
55533W        W27204  44.894  35.119   3.687
55534W        W27205  29.932  38.952  10.219
55535W        W27206  35.359  11.856   3.161
55536W        W27207  35.380  11.799   2.168
55537W        W27208  24.995  10.666   1.399
55538W        W27209  36.930  23.194  12.368
55539W        W27210  44.127  10.221  11.618
55540W        W27211  28.565  41.056   4.291
55541W        W27212  26.679  24.421   1.530
55542W        W27213  30.413  33.617   2.300
55543W        W27214  10.178   3.768   0.519
55544W        W27215  26.311  26.421  13.874
55545W        W27216  24.038  33.524   4.215
55546W        W27217  10.629   5.907   2.886
55547W        W27218   8.640  43.850   0.016
55548W        W27219  27.033  24.735   1.311
55549W        W27220  12.202  43.447   3.161
55550W        W27221  43.204  35.199   1.292
55551W        W27222   6.944   9.892   4.654
55552W        W27223  22.886  28.879  13.348
55553W        W27224  39.079  10.514   3.684
55554W        W27225  24.172  17.849  14.730
55555W        W27226  27.203   6.866  10.210
55556W        W27227  40.567  41.565   2.692
55557W        W27228  38.654  18.014   5.028
55558W        W27229  33.618  44.388  14.448
55559W        W27230   0.805  27.269  14.402
55560W        W27231  35.508   5.371  11.623
55561W        W27232  14.273  18.972   4.555
55562W        W27233   0.260   3.568   0.765
55563W        W27234   2.938  36.822  14.909
55564W        W27235  35.288  26.589   1.436
55565W        W27236  41.973   2.904  14.711
55566W        W27237  38.814  36.056  11.063
55567W        W27238   7.168   5.960   2.325
55568W        W27239  43.822  13.106   4.612
55569W        W27240  42.816  15.643   4.914
55570W        W27241  36.506  26.980  12.081
55571W        W27242  33.825  33.379   2.215
55572W        W27243  17.793   5.829   4.603
55573W        W27244  14.613  13.251  11.055
55574W        W27245   5.969  33.041   4.938
55575W        W27246  15.541  31.499  11.056
55576W        W27247   2.792  17.176  11.197
55577W        W27248  27.025  36.511   3.270
55578W        W27249  15.612   1.934   5.198
55579W        W27250  19.226  41.488   4.153
55580W        W27251  19.827   2.432  14.836
55581W        W27252  17.176  10.736  10.682
55582W        W27253   1.972  41.858  13.314
55583W        W27254  38.609  21.995   1.822
55584W        W27255  27.203   9.205   1.717
55585W        W27256   8.578  39.459  13.259
55586W        W27257   4.014   1.013   3.744
55587W        W27258   6.741  20.536   2.144
55588W        W27259  30.139  35.961   1.016
55589W        W27260  22.758   4.045  12.122
55590W        W27261   7.730  17.568   3.829
55591W        W27262  38.898  41.477   3.041
55592W        W27263  14.779  44.874  14.466
55593W        W27264   7.327  38.306  13.947
55594W        W27265  28.285   1.330   2.604
55595W        W27266  31.685  42.931   4.967
55596W        W27267  24.053  25.822  13.755
55597W        W27268  20.618  32.085  11.410
55598W        W27269   5.711  12.857  14.725
55599W        W27270  29.393   9.182   1.453
55600W        W27271  10.982  20.640   0.805
55601W        W27272  38.488  13.624  10.992
55602W        W27273  21.835  10.933  13.334
55603W        W27274  33.328  25.084  10.224
55604W        W27275   4.758  17.570   3.682
55605W        W27276   1.234  26.713   2.818
55606W        W27277  14.118  22.721  12.475
55607W        W27278  28.599  21.600   2.830
55608W        W27279  44.816  27.629  11.562
55609W        W27280  22.187   7.177   1.780
55610W        W27281   0.490  21.683   2.164
55611W        W27282   0.279  30.311  13.454
55612W        W27283  21.057  25.047   3.641
55613W        W27284   2.732   8.485   0.463
55614W        W27285   9.622   5.688   1.867
55615W        W27286  13.049  42.822   1.740
55616W        W27287  17.055  34.393  13.586
55617W        W27288   0.355   6.838  14.149
55618W        W27289  21.660  33.076  14.288
55619W        W27290  40.367  44.794  10.501
55620W        W27291  35.452  44.315  10.689
55621W        W27292  17.041   5.363   2.693
55622W        W27293  37.563  23.565  10.427
55623W        W27294  13.976   5.759  10.224
55624W        W27295  11.690  20.727   0.042
55625W        W27296  35.963  35.485   4.254
55626W        W27297  29.657  14.500   4.111
55627W        W27298   5.015  29.474  13.423
55628W        W27299  31.857  25.109   1.857
55629W        W27300  10.357  17.812   3.347
55630W        W27301  42.883  26.922   0.196
55631W        W27302  26.247  13.604   3.180
55632W        W27303  29.626   8.772   4.970
55633W        W27304  27.558  39.109   3.754
55634W        W27305  31.981  25.911   4.103
55635W        W27306  12.846  43.844  12.098
55636W        W27307  25.606  28.578   2.775
55637W        W27308  42.389   0.552   4.748
55638W        W27309  34.150  22.856   1.894
55639W        W27310  34.518  41.745  14.004
55640W        W27311  33.536  19.405   0.714
55641W        W27312  34.630  33.780  11.318
55642W        W27313  20.078  23.215  12.295
55643W        W27314  31.945   3.148  10.742
55644W        W27315  16.212  11.817  11.253
55645W        W27316  11.244  44.562  10.701
55646W        W27317  18.197  39.702  12.127
55647W        W27318  28.629  11.617   1.717
55648W        W27319  41.731   4.838   0.792
55649W        W27320  31.184  16.968   4.116
55650W        W27321  29.038   0.546  12.085
55651W        W27322  20.700  42.296   4.043
55652W        W27323  43.494   3.375   5.019
55653W        W27324  32.976  33.739   3.892
55654W        W27325   3.455   0.295   4.157
55655W        W27326  14.655  14.211   4.420
55656W        W27327   0.309  36.981  14.800
55657W        W27328  32.902   0.697   2.242
55658W        W27329  30.557  25.559   0.066
55659W        W27330  43.549  21.068   1.988
55660W        W27331  32.581  14.343  13.103
55661W        W27332   7.811  40.992  12.634
55662W        W27333  15.128  34.342   3.141
55663W        W27334  30.335  28.648   1.757
55664W        W27335  41.776  13.029  14.082
55665W        W27336  17.040  18.612   4.892
55666W        W27337  29.449  16.577  14.417
55667W        W27338  40.856   7.201   0.544
55668W        W27339  35.780  41.759   1.211
55669W        W27340  25.940  35.823   1.382
55670W        W27341  22.355  30.912   2.774
55671W        W27342  42.132   3.362   4.545
55672W        W27343   3.998  35.340  11.000
55673W        W27344  18.375  41.535  13.441
55674W        W27345   3.954  38.611   1.230
55675W        W27346  38.924  19.306  14.792
55676W        W27347  24.051  19.128   3.889
55677W        W27348   2.746  19.739   3.755
55678W        W27349  41.766   1.174  13.335
55679W        W27350   1.489  23.165   0.904
55680W        W27351  24.575  25.909   0.894
55681W        W27352  31.938  40.104  14.105
55682W        W27353   1.832  37.773  11.157
55683W        W27354   3.283  31.819   4.653
55684W        W27355   8.233  43.452  14.375
55685W        W27356  32.942  38.172  12.087
55686W        W27357  21.595  30.885  11.993
55687W        W27358  36.882   6.688  11.156
55688W        W27359  10.326  34.080   1.448
55689W        W27360  22.489  25.133  14.746
55690W        W27361   3.946  44.829  12.175
55691W        W27362   3.815  12.864   4.432
55692W        W27363  29.507  11.670   2.340
55693W        W27364   4.731  17.460  12.056
55694W        W27365  17.326  30.620   2.452
55695W        W27366  17.031  33.507  12.205
55696W        W27367   7.712  39.010  13.425
55697W        W27368  39.447  24.582  10.617
55698W        W27369  29.142  14.985   2.376
55699W        W27370  31.169   9.612  11.996
55700W        W27371   2.309  43.532   2.633
55701W        W27372  42.785  19.780  13.996
55702W        W27373  30.872  37.384  13.382
55703W        W27374  37.409  33.599   0.376
55704W        W27375  22.230  15.875   2.316
55705W        W27376  20.207  39.715  14.579
55706W        W27377  15.854  21.671  12.441
55707W        W27378  15.072  10.964   1.626
55708W        W27379  26.475  22.188   4.781
55709W        W27380  36.937  31.556  13.113
55710W        W27381  20.745   8.607  14.825
55711W        W27382  33.977   4.784   0.925
55712W        W27383  25.904  20.328   0.225
55713W        W27384  25.403  12.150   4.552
55714W        W27385  44.732   9.837  14.072
55715W        W27386   5.363  32.853  12.098
55716W        W27387  44.882  20.235   0.289
55717W        W27388  24.906  14.188  11.073
55718W        W27389  25.100  22.821  11.721
55719W        W27390  19.061  31.970   3.744
55720W        W27391  26.497  25.976   3.723
55721W        W27392  11.856   6.909   4.669
55722W        W27393  42.434   0.170  11.631
55723W        W27394  42.759  10.370   2.669
55724W        W27395  28.023  32.742   4.319
55725W        W27396   0.947  32.070  10.730
55726W        W27397  25.001  18.958   2.728
55727W        W27398  26.114  12.248   2.347
55728W        W27399  39.777  11.620  14.334
55729W        W27400  40.355  44.249  12.518
55730W        W27401  20.528  23.061  13.016
55731W        W27402  44.243  29.722   1.489
55732W        W27403  38.689   2.397   4.159
55733W        W27404  15.543  39.240   1.335
55734W        W27405  31.896  17.956  10.012
55735W        W27406  26.560  42.778   1.082
55736W        W27407  10.113  40.361  13.850
55737W        W27408  17.056  42.443  13.835
55738W        W27409   7.332  12.601  11.356
55739W        W27410  40.360   0.434   0.399
55740W        W27411  15.346  30.181   3.335
55741W        W27412  12.218  22.785  11.467
55742W        W27413  29.242  12.201   3.970
55743W        W27414  36.476   7.786   2.049
55744W        W27415   4.447  41.227  13.126
55745W        W27416   7.328  29.595  10.757
55746W        W27417   2.365   0.109  12.915
55747W        W27418   0.503  37.793   0.273
55748W        W27419  33.710  35.690  11.155
55749W        W27420   8.802  19.659  10.640
55750W        W27421   0.976  14.017   3.681
55751W        W27422  21.257  40.373  11.523
55752W        W27423  10.201  20.855  12.106
55753W        W27424  14.095  11.092   1.217
55754W        W27425  38.659  28.571   3.265
55755W        W27426  29.854   5.929   3.791
55756W        W27427   5.863  30.316  12.458
55757W        W27428  13.196  31.383  10.535
55758W        W27429   4.612  32.434   2.599
55759W        W27430  38.018  36.197  14.434
55760W        W27431  23.321   1.686   1.435
55761W        W27432  41.827   0.885  12.920
55762W        W27433  26.816  16.575   0.416
55763W        W27434  16.265  13.036   4.066
55764W        W27435   0.629  25.977   4.238
55765W        W27436   1.359   8.731  12.716
55766W        W27437   0.768  19.697  13.054
55767W        W27438   2.721  12.273  14.526
55768W        W27439  38.488   4.874   2.217
55769W        W27440  18.794   7.384  14.834
55770W        W27441  43.268  16.621  10.708
55771W        W27442  18.782  31.576   4.931
55772W        W27443  20.690  24.990  11.040
55773W        W27444  37.327   3.708  11.275
55774W        W27445   8.949  20.652   1.250
55775W        W27446   7.393  37.876  12.565
55776W        W27447  27.259  25.106   2.646
55777W        W27448  31.581  39.363  13.633
55778W        W27449  16.660   8.574  13.411
55779W        W27450   0.706  21.048  13.311
55780W        W27451  37.334  41.284  13.693
55781W        W27452   6.506  29.614   3.391
55782W        W27453  32.616  10.616  10.802
55783W        W27454  37.023  33.392   4.173
55784W        W27455  17.008   3.514  13.796
55785W        W27456  10.903  28.695   3.913
55786W        W27457  35.469   1.065  12.580
55787W        W27458  40.251   6.247   2.332
55788W        W27459  11.615  31.116  12.918
55789W        W27460  31.883  29.565   1.293
55790W        W27461  11.162  25.731  10.730
55791W        W27462  11.355  27.947  12.605
55792W        W27463  43.335  28.081   0.162
55793W        W27464  21.536  21.180  13.453
55794W        W27465   1.874  20.300  12.548
55795W        W27466  14.912  27.522   1.039
55796W        W27467  40.983  43.668   4.143
55797W        W27468   3.984  22.213  12.929
55798W        W27469  35.547  41.593  14.834
55799W        W27470  10.774  19.816  12.964
55800W        W27471  34.025  40.717   1.681
55801W        W27472  16.978  43.527   1.391
55802W        W27473  12.409   9.316   3.656
55803W        W27474   0.173   6.297  12.507
55804W        W27475   2.998   9.233   1.773
55805W        W27476  44.032  31.174  14.418
55806W        W27477  26.909  21.567  12.870
55807W        W27478  42.534   2.950  14.375
55808W        W27479  39.835   1.222   0.574
55809W        W27480   8.663  24.278  13.451
55810W        W27481  29.969  34.737  14.658
55811W        W27482  17.029  29.662   2.753
55812W        W27483  15.686  41.360   0.544
55813W        W27484   9.810  17.949   1.761
55814W        W27485  19.921  34.001  14.058
55815W        W27486  37.941  37.126  12.009
55816W        W27487  22.958  30.409  11.932
55817W        W27488  37.379  35.586   4.931
55818W        W27489  12.564   8.457  10.879
55819W        W27490  32.136   1.260  14.893
55820W        W27491   9.735  44.476   3.587
55821W        W27492  42.447   7.967   0.304
55822W        W27493  17.933   6.499  10.601
55823W        W27494   0.735   2.923  10.722
55824W        W27495   9.805  12.930   4.790
55825W        W27496  22.610  23.690   1.179
55826W        W27497   1.725  31.805   0.174
55827W        W27498  11.769  32.590   4.585
55828W        W27499   5.805  28.130  10.679
55829W        W27500  27.016  41.342   4.536
55830W        W27501  35.147  31.856  13.002
55831W        W27502  15.963  43.979  14.465
55832W        W27503  13.076  16.723   2.164
55833W        W27504   3.472  20.555   1.287
55834W        W27505  12.313  32.834   2.794
55835W        W27506  38.421  36.381  11.883
55836W        W27507   6.435  35.394  14.022
55837W        W27508   1.396  22.610   4.151
55838W        W27509  36.863   4.750  13.092
55839W        W27510  43.916  11.252   3.150
55840W        W27511  25.266  43.876  14.501
55841W        W27512  23.478  15.690   5.129
55842W        W27513  12.475  13.680   2.400
55843W        W27514   0.798   5.442   4.149
55844W        W27515  15.443   5.473  11.892
55845W        W27516  20.244  34.977  13.526
55846W        W27517   9.335  18.528   3.547
55847W        W27518  30.972  16.016  14.786
55848W        W27519  43.417  27.114   0.402
55849W        W27520  20.195  29.624  11.559
55850W        W27521  20.086  28.861   1.989
55851W        W27522  23.197  15.813  14.221
55852W        W27523  36.547  19.809   3.662
55853W        W27524   6.474  19.904  13.939
55854W        W27525   1.852   1.456   2.752
55855W        W27526  11.882  15.741  11.260
55856W        W27527   1.697  16.295  14.878
55857W        W27528  43.558  20.945   3.696
55858W        W27529   3.188  18.339   4.126
55859W        W27530  18.311  18.618  12.931
55860W        W27531  16.505  12.280   4.441
55861W        W27532  31.384  16.468   1.889
55862W        W27533  43.525  21.727  13.560
55863W        W27534  34.608  44.446   4.541
55864W        W27535  20.960  29.572  13.993
55865W        W27536  16.355  32.538  14.311
55866W        W27537  16.547  15.692   0.812
55867W        W27538  33.883  29.267  11.004
55868W        W27539  42.731   5.462  14.636
55869W        W27540  39.917  28.173  11.550
55870W        W27541  23.214  24.426  12.668
55871W        W27542  42.015  37.806   1.372
55872W        W27543  31.155  38.528   3.016
55873W        W27544  23.704  28.521   0.600
55874W        W27545  20.471  15.878  11.596
55875W        W27546  21.405  12.145  12.111
55876W        W27547  33.691  32.696   0.524
55877W        W27548   5.783   9.126   2.368
55878W        W27549  29.509  13.618   3.649
55879W        W27550  26.231  15.058   0.946
55880W        W27551  15.452  18.079   4.369
55881W        W27552  15.828  29.734  14.239
55882W        W27553  32.473  39.274   0.378
55883W        W27554  30.671  18.023   0.383
55884W        W27555  33.542   6.965   1.128
55885W        W27556  37.270  10.362  13.449
55886W        W27557  10.341  42.028   3.684
55887W        W27558  25.168  16.638   2.463
55888W        W27559  26.480  35.562  14.302
55889W        W27560   5.342   4.609   4.125
55890W        W27561  11.352  26.938  12.445
55891W        W27562  36.797   6.670  13.879
55892W        W27563  41.116  25.322   0.346
55893W        W27564   5.353  42.235   4.107
55894W        W27565  41.375  31.400   1.233
55895W        W27566  22.066   2.872   0.359
55896W        W27567   8.381  14.781  12.702
55897W        W27568  25.354   4.588  14.946
55898W        W27569  24.256   0.302  14.824
55899W        W27570  36.124  20.525   4.157
55900W        W27571   5.353  13.304  11.908
55901W        W27572   4.819   3.838  13.063
55902W        W27573  28.903  36.450  10.518
55903W        W27574  29.416  37.611  11.007
55904W        W27575  30.051  43.802  10.775
55905W        W27576  23.880  42.959  11.598
55906W        W27577   2.316  37.586  11.034
55907W        W27578   1.280  42.810  12.558
55908W        W27579  38.184  18.762   0.375
55909W        W27580  41.690  16.226  11.125
55910W        W27581  28.604  44.209   1.797
55911W        W27582  44.217  33.385   0.390
55912W        W27583  19.164  28.231   4.412
55913W        W27584  43.773   6.021  13.894
55914W        W27585  24.093  36.304  10.713
55915W        W27586  10.666  44.263  13.812
55916W        W27587  43.088  33.342  10.588
55917W        W27588  15.615  36.687  11.649
55918W        W27589  35.660  14.830   0.674
55919W        W27590  12.649   0.929  11.304
55920W        W27591  11.216  32.613   0.292
55921W        W27592  35.336   2.920   1.287
55922W        W27593  35.446  15.235  12.033
55923W        W27594   2.767  30.500  12.095
55924W        W27595   4.562  24.295   0.749
55925W        W27596  36.156  12.817   0.305
55926W        W27597  11.628  41.004  13.460
55927W        W27598  31.465  43.416   5.006
55928W        W27599  28.499  19.776   2.409
55929W        W27600  28.514  32.605  14.585
55930W        W27601   5.838   9.577   2.636
55931W        W27602  17.568  14.316   2.873
55932W        W27603  21.125   2.954   0.402
55933W        W27604  39.561  29.071   4.653
55934W        W27605  20.641  44.267  11.971
55935W        W27606   8.442  11.900   0.634
55936W        W27607  32.049  31.882  10.603
55937W        W27608  40.755  38.479  10.380
55938W        W27609  30.129  14.149  14.289
55939W        W27610  36.511  41.464  13.838
55940W        W27611  29.341   1.653   2.347
55941W        W27612   7.082  41.068   1.914
55942W        W27613  25.470  29.987  10.694
55943W        W27614  33.496   7.789   0.683
55944W        W27615  12.123  23.142  12.545
55945W        W27616   8.384  17.589  10.787
55946W        W27617  20.084  31.375  13.066
55947W        W27618  29.628  33.924   3.633
55948W        W27619  41.067  23.741   0.861
55949W        W27620   4.303   7.634   3.195
55950W        W27621   7.095  14.175  12.018
55951W        W27622  30.433  37.042  10.708
55952W        W27623  14.621   8.010   2.224
55953W        W27624  14.055   1.518   0.349
55954W        W27625  31.123   9.920  13.851
55955W        W27626  31.789  22.971  12.054
55956W        W27627  33.923   0.874   3.305
55957W        W27628  29.504  16.301   3.846
55958W        W27629  44.347  22.967  12.473
55959W        W27630  12.701  29.368   2.783
55960W        W27631  23.061   3.803  11.459
55961W        W27632  26.716  25.133   1.941
55962W        W27633  10.632  12.615  14.879
55963W        W27634  42.597  21.102  14.823
55964W        W27635  44.426  14.056  11.105
55965W        W27636  32.208   8.792   4.117
55966W        W27637  30.930   5.513  13.014
55967W        W27638  18.110  13.328  11.566
55968W        W27639  17.921  40.480   4.507
55969W        W27640  34.073  37.986   1.198
55970W        W27641  12.189  33.556   2.282
55971W        W27642  12.313  17.589   3.641
55972W        W27643  23.584  40.412  13.493
55973W        W27644  23.530  27.220   1.302
55974W        W27645  16.424  19.057   2.586
55975W        W27646   9.124  27.927  11.809
55976W        W27647  30.922   6.641  14.699
55977W        W27648  14.774   9.844   4.516
55978W        W27649  42.051  44.911   0.125
55979W        W27650  10.777  43.418   1.871
55980W        W27651  43.965   5.564  10.671
55981W        W27652  34.491  16.837  13.887
55982W        W27653  30.959  15.212  14.434
55983W        W27654   0.341   1.498  12.137
55984W        W27655  33.833   5.467   2.725
55985W        W27656  33.092   6.686   1.266
55986W        W27657  14.774  35.593   4.522
55987W        W27658   4.005  27.089  11.160
55988W        W27659  38.121  37.351   1.319
55989W        W27660  28.885   8.837   1.755
55990W        W27661  21.358   4.678  14.804
55991W        W27662   0.423   8.990  13.071
55992W        W27663   7.408  27.425  14.465
55993W        W27664  16.149  27.006  13.017
55994W        W27665   9.683  26.432  13.459
55995W        W27666  33.838  16.000   1.942
55996W        W27667  32.448  26.922   4.739
55997W        W27668  10.833  17.028  13.417
55998W        W27669  20.132   2.832   4.304
55999W        W27670  21.330   1.018  12.323
56000W        W27671  10.878   0.067  12.796
56001W        W27672  18.678  21.838  10.885
56002W        W27673  25.737  22.632  14.912
56003W        W27674   1.748  11.870  13.514
56004W        W27675   6.444   4.963  11.558
56005W        W27676   6.164  20.900  11.482
56006W        W27677  10.769  21.191  10.814
56007W        W27678  22.656   6.173  14.537
56008W        W27679   0.514  36.606   4.158
56009W        W27680   5.704  24.895  13.623
56010W        W27681  37.955  27.033  14.399
56011W        W27682  42.263   0.270  10.786
56012W        W27683  26.402   9.420   2.375
56013W        W27684  30.131  37.705  14.497
56014W        W27685  19.429  18.568   1.992
56015W        W27686  32.054  17.627  12.505
56016W        W27687  31.436   8.226   4.184
56017W        W27688  38.969   6.301  11.074
56018W        W27689  22.176  23.559  11.897
56019W        W27690  35.500  14.947  10.719
56020W        W27691  29.347  13.509  12.585
56021W        W27692   8.301  33.957   0.813
56022W        W27693  20.722   7.674  13.787
56023W        W27694  42.986   1.140   4.180
56024W        W27695  12.579  30.645   3.121
56025W        W27696  12.610   5.735   1.748
56026W        W27697   1.362  23.113  13.111
56027W        W27698   9.103  14.490   2.790
56028W        W27699  38.822  17.485   4.860
56029W        W27700  12.562   4.562  14.813
56030W        W27701  31.703  11.190  13.490
56031W        W27702   6.791   7.842  14.176
56032W        W27703  38.837  17.882   2.061
56033W        W27704  37.111   4.111   2.602
56034W        W27705  40.906  32.675   0.441
56035W        W27706  21.997  28.385  14.523
56036W        W27707  27.297  40.409  13.856
56037W        W27708  22.622  26.081   1.808
56038W        W27709   6.209  42.782  13.848
56039W        W27710  15.650  27.444  12.763
56040W        W27711   1.880  34.323  11.503
56041W        W27712  44.103  42.782  11.094
56042W        W27713  32.474  28.955   3.493
56043W        W27714   0.823  21.548   2.744
56044W        W27715   5.368  18.275   1.563
56045W        W27716  14.179   8.706   3.584
56046W        W27717  30.593  33.396   2.730
56047W        W27718  28.868   1.980   0.188
56048W        W27719  30.954   7.725   0.822
56049W        W27720  15.184  39.051  12.711
56050W        W27721   8.350  33.992   0.288
56051W        W27722  43.082  37.313   4.155
56052W        W27723  19.953  27.382   3.274
56053W        W27724   8.212  23.084  11.980
56054W        W27725  43.111   1.219   0.682
56055W        W27726  29.659  29.934   1.233
56056W        W27727   8.921  27.435  10.282
56057W        W27728  31.937  41.174  14.024
56058W        W27729   6.674  23.733   0.009
56059W        W27730  26.560  39.364   4.244
56060W        W27731  42.491  34.146   2.465
56061W        W27732  20.561   4.651   0.369
56062W        W27733  31.156   3.665  13.319
56063W        W27734   5.374   0.308  13.473
56064W        W27735  18.921  33.298  13.018
56065W        W27736  44.908  39.868   1.390
56066W        W27737   6.197  20.105  12.988
56067W        W27738   8.312  30.529   4.432
56068W        W27739  14.553  37.243  14.150
56069W        W27740  43.900  42.519  14.462
56070W        W27741  20.590  21.075  11.861
56071W        W27742  25.981  14.732  14.744
56072W        W27743   6.170   7.673  13.565
56073W        W27744  21.735  37.566  13.576
56074W        W27745   3.214  42.247   2.633
56075W        W27746  22.725  44.247  14.503
56076W        W27747  21.141  27.286   1.303
56077W        W27748  42.357  13.155   2.903
56078W        W27749   5.912  11.751   4.778
56079W        W27750   9.299  22.830   3.375
56080W        W27751  26.535  43.318   0.242
56081W        W27752  17.196   8.677   3.377
56082W        W27753  21.030  21.973  10.986
56083W        W27754  34.308   9.128   4.325
56084W        W27755  13.663  12.653  14.703
56085W        W27756  29.221   6.129   2.387
56086W        W27757  14.611   3.448   1.408
56087W        W27758  42.205  10.265   3.636
56088W        W27759  37.509  37.575  14.563
56089W        W27760  15.145   8.043   2.237
56090W        W27761  28.489  35.576   0.773
56091W        W27762  25.462   6.068  12.904
56092W        W27763  15.072  27.774   0.611
56093W        W27764   8.460  31.886   3.639
56094W        W27765   4.497  12.632  13.045
56095W        W27766  17.111  31.573  10.034
56096W        W27767   9.937   3.242   4.595
56097W        W27768  11.806  42.292  12.139
56098W        W27769  44.849  44.951  13.797
56099W        W27770  18.488  18.266   2.664
56100W        W27771  18.794   5.449   3.187
56101W        W27772   5.300   3.094   2.187
56102W        W27773  41.053  20.274  12.553
56103W        W27774  10.347   6.082  10.467
56104W        W27775  38.444  20.805  11.975
56105W        W27776  35.419   2.917   2.156
56106W        W27777  41.029  30.907  13.364
56107W        W27778  39.805  13.541  14.388
56108W        W27779  22.740  31.566  13.002
56109W        W27780  26.409  41.024   0.971
56110W        W27781  42.060  12.215   0.368
56111W        W27782  41.900  24.473   3.174
56112W        W27783  11.570  28.054  11.960
56113W        W27784  39.309  34.437   3.302
56114W        W27785  31.942   7.287   1.825
56115W        W27786  22.519  12.272  14.412
56116W        W27787  16.762   5.165  14.808
56117W        W27788   5.541  26.709   5.097
56118W        W27789  17.225  24.146   1.371
56119W        W27790  42.327  15.891   0.910
56120W        W27791  17.199  20.427   0.460
56121W        W27792   9.156  41.431   3.781
56122W        W27793  20.641  28.565  13.488
56123W        W27794  24.454  37.622  10.530
56124W        W27795  34.965   6.013   2.197
56125W        W27796  44.271   8.675  12.057
56126W        W27797  20.575   7.575  14.510
56127W        W27798  12.584  15.065   0.955
56128W        W27799   9.962   3.318  11.157
56129W        W27800   8.853  40.947   0.632
56130W        W27801  27.402   1.927   2.124
56131W        W27802  23.236  36.139   0.942
56132W        W27803  40.465  35.380  12.424
56133W        W27804  36.456  29.530   3.239
56134W        W27805  40.043   2.437  13.049
56135W        W27806  34.071  36.590  13.562
56136W        W27807   5.317  40.190   0.510
56137W        W27808   8.317  11.052  11.117
56138W        W27809  34.542   9.833   1.731
56139W        W27810   9.162  38.315  10.506
56140W        W27811  11.763  11.691  13.402
56141W        W27812   1.795   2.143   2.634
56142W        W27813  43.739  24.595   3.127
56143W        W27814   7.711  37.569   0.337
56144W        W27815   9.375   7.415   0.726
56145W        W27816  22.263   8.907   1.717
56146W        W27817  32.537   7.673   0.808
56147W        W27818  10.760  44.945   1.954
56148W        W27819  26.050  35.793   4.365
56149W        W27820  28.434  15.668  10.530
56150W        W27821  33.130  39.837   1.694
56151W        W27822  36.559  22.017   0.383
56152W        W27823  33.594  21.112  13.803
56153W        W27824  13.806  23.071   3.704
56154W        W27825   2.394  36.290   1.135
56155W        W27826  33.520   6.312   1.744
56156W        W27827  32.119  38.814  11.992
56157W        W27828  32.481   9.807   1.369
56158W        W27829   4.214  42.736  12.832
56159W        W27830  33.746   7.041  12.033
56160W        W27831  28.423  33.984  12.741
56161W        W27832  36.145  34.484  10.645
56162W        W27833  15.365  40.366   0.358
56163W        W27834  26.072  26.971   4.613
56164W        W27835  31.225  20.972  13.844
56165W        W27836  36.164   6.288  12.331
56166W        W27837   5.002  15.991   3.689
56167W        W27838  17.043   0.442   0.749
56168W        W27839  37.037  12.125   3.481
56169W        W27840   6.840  36.502  12.194
56170W        W27841  21.666  41.399  13.086
56171W        W27842  34.881  11.853  14.535
56172W        W27843  15.077   6.536   1.966
56173W        W27844  17.021   5.595  14.993
56174W        W27845  18.299  16.050  12.514
56175W        W27846   0.809  38.122  10.583
56176W        W27847  44.269  11.710   4.982
56177W        W27848   4.283  11.480  14.047
56178W        W27849  10.794  38.614  11.065
56179W        W27850  11.610  38.335   0.335
56180W        W27851   2.221  13.165  14.966
56181W        W27852  11.425  14.775  13.961
56182W        W27853  30.878  37.918  11.673
56183W        W27854  31.549   5.312  10.973
56184W        W27855  29.964  30.065  13.107
56185W        W27856  27.556  31.692   4.251
56186W        W27857  40.963   0.864  14.075
56187W        W27858  40.939  27.444  14.283
56188W        W27859  32.547  42.880  11.451
56189W        W27860  32.720   6.816   2.191
56190W        W27861   2.926  13.220  11.427
56191W        W27862   1.196  29.741  11.167
56192W        W27863  19.829  12.860  11.920
56193W        W27864  13.950  14.945   4.807
56194W        W27865  24.559  16.271   1.430
56195W        W27866  21.550  10.825  11.782
56196W        W27867   3.526  40.862  11.180
56197W        W27868  38.358  37.390  11.508
56198W        W27869   2.405   9.478  14.494
56199W        W27870  19.125  26.291   0.239
56200W        W27871  27.554  30.987  13.262
56201W        W27872  20.419   1.429  13.424
56202W        W27873  22.750  33.482   4.629
56203W        W27874  43.344  24.406  11.957
56204W        W27875  25.539  25.520   3.666
56205W        W27876  17.738  27.020  10.652
56206W        W27877  41.461   7.959   0.312
56207W        W27878   4.688  19.547  13.343
56208W        W27879  30.266  21.601  11.805
56209W        W27880  38.562  18.786  13.330
56210W        W27881   1.305  34.972  13.984
56211W        W27882  15.240  26.394  12.087
56212W        W27883  25.146   1.359  11.495
56213W        W27884  22.652  37.574   4.669
56214W        W27885  32.193   0.023   2.656
56215W        W27886  22.295  31.221  12.926
56216W        W27887  40.952  14.597   2.266
56217W        W27888   9.367  37.945   2.479
56218W        W27889  21.123  19.011   3.581
56219W        W27890  43.353  10.072   2.650
56220W        W27891  42.888  23.284  11.108
56221W        W27892  38.637  12.024   1.304
56222W        W27893  16.158  40.734   4.214
56223W        W27894  38.330   0.709   0.880
56224W        W27895  15.430  15.747  13.711
56225W        W27896  24.733  44.434   0.258
56226W        W27897  36.311  12.369   1.606
56227W        W27898  26.978   5.404   3.351
56228W        W27899  20.492   4.154   0.253
56229W        W27900  33.548   1.660  10.105
56230W        W27901  25.180  32.178   1.285
56231W        W27902  12.862  24.033  13.866
56232W        W27903   6.900  21.885   0.402
56233W        W27904  43.275  31.613   1.389
56234W        W27905   8.235  16.478   1.260
56235W        W27906  26.906  18.682  13.436
56236W        W27907  21.303   3.057  10.003
56237W        W27908   4.648  39.306   1.479
56238W        W27909  22.201   4.964  13.874
56239W        W27910  23.967  44.338  12.074
56240W        W27911  27.651   9.391  10.244
56241W        W27912  34.922  38.628   2.281
56242W        W27913  15.272  35.500  10.690
56243W        W27914  27.981  33.019   0.512
56244W        W27915   8.134  31.029   2.725
56245W        W27916   5.387  20.989   4.674
56246W        W27917  14.284  22.685  11.996
56247W        W27918  24.817  37.040  12.433
56248W        W27919   6.824   0.765  14.285
56249W        W27920  15.625  13.763   0.858
56250W        W27921  31.106  18.287  14.253
56251W        W27922  14.746   9.175  12.031
56252W        W27923  31.454  21.053   4.191
56253W        W27924  22.755   5.751  12.506
56254W        W27925  37.390  34.168  14.004
56255W        W27926   0.728  35.469  11.197
56256W        W27927  22.708   0.437  13.043
56257W        W27928  13.825  15.609  11.620
56258W        W27929  33.401   0.978  11.842
56259W        W27930  40.594  34.202   2.707
56260W        W27931  27.032  29.623  11.930
56261W        W27932  41.868  37.403  12.661
56262W        W27933  30.946  33.518   3.698
56263W        W27934  42.094  14.824  14.481
56264W        W27935  17.334  24.248  11.145
56265W        W27936  22.965  25.604   0.332
56266W        W27937  44.053  28.448   1.775
56267W        W27938  12.858  26.227   0.362
56268W        W27939  43.020   9.353   1.840
56269W        W27940  44.323  36.776   1.927
56270W        W27941  11.855  25.218  12.914
56271W        W27942  35.129  32.460  11.718
56272W        W27943  31.418  39.925  11.638
56273W        W27944   3.428  22.991   2.590
56274W        W27945  33.510  35.841  13.436
56275W        W27946  40.169  30.009   2.821
56276W        W27947   8.895  31.897  13.317
56277W        W27948   9.750   3.723   4.817
56278W        W27949  18.031  22.873  11.376
56279W        W27950   7.854  30.821   1.880
56280W        W27951  28.222  21.063  11.182
56281W        W27952   4.944  33.361   9.814
56282W        W27953  20.230   6.350  14.070
56283W        W27954  30.044  23.252  14.323
56284W        W27955  18.150  30.268   0.049
56285W        W27956  34.040   7.343  12.961
56286W        W27957  37.981  29.148  12.962
56287W        W27958   1.892   8.635  12.990
56288W        W27959  27.587   5.541   1.714
56289W        W27960   6.485   4.709  11.098
56290W        W27961  15.201  24.238   3.423
56291W        W27962  31.966  35.169   1.915
56292W        W27963  17.315  37.406   2.857
56293W        W27964  42.980   1.338   1.185
56294W        W27965   1.764  27.703  13.764
56295W        W27966  42.929   8.446   2.941
56296W        W27967  28.519  25.699  12.860
56297W        W27968  34.975  37.369  14.564
56298W        W27969  27.034  35.884  11.556
56299W        W27970   2.460   3.084   3.187
56300W        W27971  26.117   6.708   3.267
56301W        W27972  34.099  21.138   3.694
56302W        W27973  24.039  38.096   0.045
56303W        W27974  25.438  38.356  13.389
56304W        W27975  44.923  22.998   4.060
56305W        W27976  17.057   6.232   5.026
56306W        W27977  39.811  32.315   3.434
56307W        W27978  19.247  33.311  13.862
56308W        W27979  34.879  38.374   0.918
56309W        W27980  14.234  17.025  10.751
56310W        W27981  39.979   0.643  11.989
56311W        W27982   1.950   5.784  10.732
56312W        W27983  16.832  31.319  12.942
56313W        W27984  40.666  14.130  10.710
56314W        W27985  42.905   4.294  10.128
56315W        W27986  19.992  25.180  11.675
56316W        W27987   9.171  10.153   3.740
56317W        W27988  37.830  40.461   5.292
56318W        W27989  27.224   5.243   4.878
56319W        W27990   3.094  20.109  13.420
56320W        W27991  35.385  34.080  14.829
56321W        W27992  31.795  18.151  14.377
56322W        W27993  24.005   0.931  13.150
56323W        W27994  21.207   2.740  12.767
56324W        W27995  44.928  13.813   1.360
56325W        W27996   0.879  38.967  11.761
56326W        W27997  16.731   6.838   4.489
56327W        W27998  18.273  40.524   4.131
56328W        W27999  17.784  26.055  11.806
56329W        W28000  28.674  42.350  13.854
56330W        W28001  30.038  16.327   3.308
56331W        W28002   0.414  33.304   4.531
56332W        W28003  10.443  23.087   4.882
56333W        W28004   2.283  38.101   3.738
56334W        W28005   7.993  26.762  14.165
56335W        W28006  33.596   2.987  14.767
56336W        W28007  44.277  30.612   4.252
56337W        W28008   4.935  32.203   0.826
56338W        W28009  32.507  13.640  13.786
56339W        W28010  43.946  34.857  10.345
56340W        W28011  32.887   4.771  13.941
56341W        W28012  10.093   4.491  12.465
56342W        W28013  32.953  21.320  10.773
56343W        W28014  11.214   0.326   0.589
56344W        W28015  26.132  31.478  14.400
56345W        W28016  27.545   0.683   1.800
56346W        W28017  21.912  40.315   3.118
56347W        W28018  19.208  15.557   3.359
56348W        W28019  17.741  41.375  12.037
56349W        W28020  27.154  42.539   1.336
56350W        W28021  11.397   2.235   2.822
56351W        W28022  14.216  24.081   3.028
56352W        W28023  22.325  35.084   0.319
56353W        W28024  30.611   2.954   1.190
56354W        W28025  28.727  22.712   0.915
56355W        W28026  39.328  16.233  11.187
56356W        W28027  13.759  11.889   1.060
56357W        W28028  11.711  32.830  11.183
56358W        W28029  12.080  35.060   4.668
56359W        W28030  14.051  39.309  14.866
56360W        W28031  12.308   2.839  11.097
56361W        W28032  36.018  12.856  12.490
56362W        W28033  35.311   7.220   1.405
56363W        W28034   6.314  42.065   3.355
56364W        W28035   8.627  40.425   4.272
56365W        W28036  17.537  28.001  12.972
56366W        W28037   2.919  36.381   4.193
56367W        W28038  38.797  11.601  12.599
56368W        W28039  35.309   0.241  10.629
56369W        W28040  10.158  13.232   3.359
56370W        W28041  39.250  39.994   0.953
56371W        W28042   2.756  12.669  13.811
56372W        W28043  27.600  40.401  11.962
56373W        W28044  21.065  42.864   4.210
56374W        W28045  40.639  44.775  13.768
56375W        W28046  10.889   3.394   2.819
56376W        W28047   2.412  26.166   2.611
56377W        W28048   0.224  36.738  11.122
56378W        W28049  42.446   7.065  12.152
56379W        W28050   1.047  19.090   2.997
56380W        W28051  13.564  21.718   2.709
56381W        W28052   4.774  14.334   5.030
56382W        W28053  17.849  39.407  13.103
56383W        W28054  18.993  28.719   4.555
56384W        W28055  37.143  11.801   2.223
56385W        W28056  32.552  29.886   2.738
56386W        W28057  18.218   4.215  14.315
56387W        W28058  41.328  16.520  11.636
56388W        W28059  26.210  42.060  11.162
56389W        W28060   6.227   1.760   3.232
56390W        W28061  30.055   3.813  11.407
56391W        W28062  36.361  39.168   0.500
56392W        W28063   9.760   3.916   1.309
56393W        W28064  28.846  13.173   1.354
56394W        W28065  34.445  33.858  13.411
56395W        W28066  25.262  24.639   3.262
56396W        W28067  15.279  17.511   2.133
56397W        W28068  23.979  21.261  14.943
56398W        W28069  23.750  13.055   3.214
56399W        W28070  29.860   8.466  13.014
56400W        W28071  30.264  35.038   4.812
56401W        W28072  12.650  28.053   0.500
56402W        W28073  34.337  35.828  11.939
56403W        W28074  24.676  25.122   2.005
56404W        W28075  31.172  37.130   2.174
56405W        W28076  34.822  13.686  14.476
56406W        W28077  31.391  19.010  10.885
56407W        W28078  34.916  24.590   2.904
56408W        W28079  36.324  24.048   0.820
56409W        W28080   2.189  29.197   4.073
56410W        W28081   0.351  36.630   3.136
56411W        W28082  19.235  21.261   2.187
56412W        W28083  17.186   7.827   3.636
56413W        W28084  18.984   0.821  11.146
56414W        W28085  44.082  19.760   4.518
56415W        W28086  15.567   8.562   4.119
56416W        W28087  36.794  40.327  14.812
56417W        W28088  29.557  14.001  11.587
56418W        W28089  16.978  15.134   0.431
56419W        W28090  39.898  28.178  12.064
56420W        W28091  19.824   2.738  11.206
56421W        W28092   3.648  35.788   3.415
56422W        W28093  41.303  13.925   2.293
56423W        W28094  14.647  32.546   0.400
56424W        W28095   3.006  34.618  12.645
56425W        W28096  30.936   5.447  12.049
56426W        W28097  11.568  34.474  12.498
56427W        W28098  42.927  41.158   9.892
56428W        W28099   3.458  10.168  14.850
56429W        W28100   1.434  24.119   4.774
56430W        W28101  44.784  12.000   4.147
56431W        W28102  13.288  39.665  13.956
56432W        W28103  27.442   6.744  10.641
56433W        W28104   2.518   5.278   4.689
56434W        W28105  40.474  38.297   2.448
56435W        W28106  40.314  44.992   1.232
56436W        W28107  25.017   5.762  12.963
56437W        W28108  32.773  33.990   2.566
56438W        W28109  17.559  23.498   4.039
56439W        W28110  42.552  20.024  12.038
56440W        W28111  37.470  24.029  10.689
56441W        W28112  31.905  17.097  13.151
56442W        W28113   7.345  15.506   1.878
56443W        W28114  32.172  36.246  14.317
56444W        W28115   8.655  38.259   3.511
56445W        W28116  44.988  21.574   2.193
56446W        W28117   1.761  34.964  12.448
56447W        W28118  15.016  19.023  14.051
56448W        W28119  23.696  43.178   3.797
56449W        W28120  30.564  19.473   1.236
56450W        W28121   2.876  38.445   0.272
56451W        W28122  32.494  35.442  12.881
56452W        W28123  25.167  12.888   3.212
56453W        W28124  33.383  10.295   1.460
56454W        W28125  22.982   0.349   2.587
56455W        W28126  37.056  31.065   2.139
56456W        W28127  42.695  41.838  13.414
56457W        W28128   6.851  40.977  11.256
56458W        W28129  15.489   0.911   3.648
56459W        W28130  37.036  23.205  14.005
56460W        W28131  11.455  16.132  10.634
56461W        W28132  12.964   0.327  14.118
56462W        W28133   7.837  27.521  12.626
56463W        W28134  17.282  11.329   4.788
56464W        W28135   3.799  12.820  12.874
56465W        W28136  35.678   5.695  10.850
56466W        W28137   2.985  25.045   3.217
56467W        W28138  18.556  42.451  12.422
56468W        W28139  43.792  18.504  11.952
56469W        W28140   1.762  30.096   4.188
56470W        W28141  16.274  27.763  14.011
56471W        W28142  34.956  17.826   4.073
56472W        W28143  10.666  20.293  10.963
56473W        W28144   1.143  39.361  14.930
56474W        W28145  38.822   2.273  12.087
56475W        W28146   3.721   8.821  11.535
56476W        W28147  35.912  32.592  13.036
56477W        W28148  44.919  34.605   3.596
56478W        W28149  10.129  41.465   0.311
56479W        W28150  12.382  33.696  11.111
56480W        W28151  34.868   6.362  13.901
56481W        W28152  42.268  25.571   3.440
56482W        W28153  43.808  39.099  11.982
56483W        W28154  36.954  11.317  12.320
56484W        W28155  36.110  41.870  10.684
56485W        W28156  42.363  22.746   1.767
56486W        W28157  17.855  41.939   0.304
56487W        W28158   2.738  41.821   4.882
56488W        W28159  44.355  23.188   3.253
56489W        W28160  24.719  20.083   1.976
56490W        W28161  17.051  37.382  11.924
56491W        W28162  31.036  42.852   4.186
56492W        W28163  33.478  24.555   4.298
56493W        W28164  10.207  15.780   1.773
56494W        W28165   6.917  31.137  11.093
56495W        W28166  41.237  34.860  14.059
56496W        W28167  33.891  30.798   1.205
56497W        W28168  38.334  19.423   1.867
56498W        W28169  10.905   7.909   2.774
56499W        W28170   2.258  13.530  12.120
56500W        W28171  43.266  42.350  10.654
56501W        W28172  16.280  42.828   4.373
56502W        W28173  25.746  14.274   3.686
56503W        W28174  40.810  33.567   4.664
56504W        W28175  22.756   3.402  14.871
56505W        W28176  35.452   4.491   4.537
56506W        W28177   3.140  10.670   3.759
56507W        W28178  43.257  30.948  13.081
56508W        W28179  18.141   1.797  12.435
56509W        W28180  24.447  40.609  12.078
56510W        W28181  33.330  19.868   0.823
56511W        W28182  28.604  10.287   1.130
56512W        W28183  18.625  14.937   5.029
56513W        W28184  34.957  39.835  14.784
56514W        W28185  23.775   6.397   4.620
56515W        W28186  12.180  34.087  12.063
56516W        W28187  17.204  29.538   0.834
56517W        W28188  20.630  43.901  14.082
56518W        W28189  20.319   2.036   3.651
56519W        W28190  36.603  13.879  11.169
56520W        W28191  38.807  23.365   4.593
56521W        W28192  44.820  37.077  13.431
56522W        W28193  10.615  40.032  10.847
56523W        W28194   7.175  39.091   3.237
56524W        W28195  43.235  28.581   0.002
56525W        W28196  14.113   6.939   2.923
56526W        W28197   7.671  14.629   2.216
56527W        W28198   8.475   2.319  14.744
56528W        W28199  35.939   4.246   2.158
56529W        W28200  23.394  14.636   1.742
56530W        W28201  42.865  11.321  12.357
56531W        W28202  44.904  14.588   5.375
56532W        W28203  34.340  37.208  11.861
56533W        W28204  16.560  15.989   2.692
56534W        W28205  30.705  40.468   1.935
56535W        W28206   0.027  39.998   0.390
56536W        W28207  28.795  39.445   1.613
56537W        W28208  13.680  27.884  11.157
56538W        W28209  11.157  42.964  14.338
56539W        W28210   0.981  33.734  12.037
56540W        W28211   9.065  26.986   3.071
56541W        W28212  30.109   4.909   2.317
56542W        W28213  29.433  36.307   4.636
56543W        W28214  24.331   1.355   3.224
56544W        W28215  26.774  12.759  10.713
56545W        W28216  14.362  16.485   0.818
56546W        W28217  24.202   8.202   0.855
56547W        W28218  33.525   4.059  11.772
56548W        W28219   8.871  25.033  12.898
56549W        W28220  20.764   3.361   4.998
56550W        W28221  10.802   5.725   2.444
56551W        W28222  15.346  22.861   1.972
56552W        W28223  11.802  34.372   2.004
56553W        W28224  42.034  42.423   4.695
56554W        W28225   1.873  38.941   2.432
56555W        W28226  40.495   4.829  10.386
56556W        W28227  10.868  44.318  11.936
56557W        W28228  29.878  37.334   3.621
56558W        W28229  39.514   8.404   2.738
56559W        W28230  32.068  37.326  14.506
56560W        W28231  17.063  33.590  11.135
56561W        W28232   4.959  13.416  14.869
56562W        W28233  35.352   4.775  10.541
56563W        W28234  29.596   3.156   3.861
56564W        W28235  30.949  14.382  12.044
56565W        W28236   6.574  24.174  12.165
56566W        W28237  18.216  19.107   2.226
56567W        W28238   0.721  39.064   1.823
56568W        W28239  19.566   1.783  11.220
56569W        W28240  15.381  15.387   9.994
56570W        W28241  41.019  25.227   2.399
56571W        W28242   5.008  18.594   0.777
56572W        W28243  27.315  27.029  13.323
56573W        W28244  11.270  21.034   0.996
56574W        W28245  18.810  10.865   0.443
56575W        W28246   4.805  23.769   4.808
56576W        W28247  39.655  44.972   3.728
56577W        W28248  11.081  31.293   4.223
56578W        W28249   9.638   7.877   0.566
56579W        W28250  10.365  42.766  13.824
56580W        W28251   0.282  26.692  14.804
56581W        W28252   0.398  19.203  14.731
56582W        W28253  36.177   7.610  13.481
56583W        W28254  31.530   9.335   3.217
56584W        W28255  29.093   1.580  11.188
56585W        W28256  24.154  11.414  13.280
56586W        W28257  20.607  19.787   9.834
56587W        W28258  44.979  18.514  12.882
56588W        W28259  10.631  19.537   0.476
56589W        W28260  39.101   4.707  10.424
56590W        W28261  34.538  19.279   2.446
56591W        W28262  20.613  19.875   0.012
56592W        W28263  20.614  30.170  12.875
56593W        W28264  42.821  42.435  10.940
56594W        W28265  37.473  20.017   1.947
56595W        W28266  38.274   6.490  14.946
56596W        W28267  19.304   2.885   1.253
56597W        W28268  42.436  10.887   0.247
56598W        W28269  44.426  27.668   1.390
56599W        W28270  39.974  10.946   0.758
56600W        W28271  10.491  15.106  13.970
56601W        W28272   2.949  10.812   0.494
56602W        W28273   1.966  12.080   1.278
56603W        W28274   1.246  38.531  10.416
56604W        W28275  43.230  23.310   1.866
56605W        W28276  11.187  31.132   1.668
56606W        W28277  39.895   3.442   2.155
56607W        W28278   5.757  15.283   0.692
56608W        W28279  37.683   1.898   0.971
56609W        W28280  31.352  15.109   0.375
56610W        W28281  13.299  26.597   4.897
56611W        W28282  28.074  38.852  12.336
56612W        W28283  38.260  27.124  14.865
56613W        W28284  32.716  10.513  14.768
56614W        W28285  37.651  14.821  12.343
56615W        W28286  34.035   5.838   2.307
56616W        W28287  43.682   7.790  10.419
56617W        W28288   5.605  21.804   4.084
56618W        W28289  35.521  40.436  14.088
56619W        W28290  35.128  29.628   1.162
56620W        W28291  11.072  40.481  14.956
56621W        W28292  27.232  24.973  12.024
56622W        W28293  44.794  27.849   0.411
56623W        W28294  40.411  15.291   2.606
56624W        W28295   5.809  15.069  14.687
56625W        W28296  22.187   0.704   2.228
56626W        W28297  27.919  27.154   3.156
56627W        W28298  33.660  39.325   1.489
56628W        W28299  14.668  27.061  14.711
56629W        W28300   4.504  15.832  12.938
56630W        W28301   7.353   2.454   3.206
56631W        W28302  23.990  39.197  14.756
56632W        W28303  29.197  13.283   0.980
56633W        W28304  16.096  40.302  10.601
56634W        W28305  15.563  12.345   0.819
56635W        W28306  24.519  37.283   0.883
56636W        W28307  16.645   9.145  11.089
56637W        W28308  10.369  44.204  12.001
56638W        W28309   7.335  13.850   3.167
56639W        W28310  12.277  43.906   4.156
56640W        W28311  42.325  28.976  14.777
56641W        W28312  36.401   5.272   4.304
56642W        W28313  42.497   8.400   4.604
56643W        W28314  42.780   8.675   4.942
56644W        W28315  29.176  36.384   2.383
56645W        W28316  15.240  30.951   2.823
56646W        W28317   5.710   3.543   4.361
56647W        W28318  19.598  25.501   3.768
56648W        W28319  22.019  16.111   2.754
56649W        W28320  35.384  25.777   2.447
56650W        W28321  27.125  42.911  10.296
56651W        W28322  38.555  19.032   0.055
56652W        W28323  28.963   8.981  14.678
56653W        W28324  40.401  11.816   2.823
56654W        W28325  17.242  30.119  11.657
56655W        W28326   7.154  28.051   0.258
56656W        W28327   4.808  40.895  11.660
56657W        W28328   5.599  35.029   4.714
56658W        W28329  26.263  26.555  10.433
56659W        W28330  41.214  13.639  13.075
56660W        W28331  12.197  24.179   0.886
56661W        W28332  20.095  38.469   1.623
56662W        W28333  19.575  23.009   0.016
56663W        W28334  13.807  22.991  14.545
56664W        W28335  15.613  34.036   3.295
56665W        W28336  18.374  31.454   3.776
56666W        W28337  33.697  17.761   0.329
56667W        W28338  24.680  35.647  10.640
56668W        W28339  28.016  29.836   1.352
56669W        W28340  15.330  37.184  13.345
56670W        W28341  10.570  43.223   3.349
56671W        W28342  20.612  25.300  13.030
56672W        W28343   0.846  36.611   2.245
56673W        W28344  44.824  21.233  11.249
56674W        W28345   6.370  28.610  13.637
56675W        W28346  30.584   7.611  11.223
56676W        W28347  28.177  22.610   2.795
56677W        W28348   2.451  31.629  14.128
56678W        W28349  26.937  43.573  14.331
56679W        W28350  19.203  34.001   3.159
56680W        W28351  40.609  11.655   1.961
56681W        W28352  28.648   3.234   4.767
56682W        W28353  11.285  11.582   4.097
56683W        W28354   1.665   1.256  14.118
56684W        W28355  44.499  18.808  13.646
56685W        W28356  12.542  19.059   3.680
56686W        W28357  10.325  24.526  12.218
56687W        W28358  22.010   6.905   3.531
56688W        W28359  15.607  13.902   4.203
56689W        W28360  39.089   1.173   1.373
56690W        W28361  19.180  10.274   1.567
56691W        W28362  14.381  35.522  14.927
56692W        W28363  11.090  10.682   3.629
56693W        W28364  17.834  26.203   3.224
56694W        W28365  14.792   6.271  13.390
56695W        W28366  27.211  41.036   0.889
56696W        W28367  23.863  39.588   5.446
56697W        W28368  13.566  19.570   0.290
56698W        W28369  44.856  15.515   3.784
56699W        W28370  20.045  29.189   3.939
56700W        W28371  27.721   8.977   4.047
56701W        W28372  15.156  31.586  14.392
56702W        W28373  40.943  35.482  10.772
56703W        W28374  31.680  12.188   2.633
56704W        W28375  35.325  24.262   0.945
56705W        W28376  17.036   2.561   0.386
56706W        W28377  26.546  13.164   2.888
56707W        W28378   1.051  38.692  14.511
56708W        W28379  40.876   6.208   3.685
56709W        W28380  11.827   7.980  13.935
56710W        W28381   6.065   9.138  13.398
56711W        W28382   3.955   8.284   4.113
56712W        W28383  33.385  17.105   3.176
56713W        W28384  40.492   2.791   0.425
56714W        W28385  42.357  14.812   0.750
56715W        W28386  37.556  40.273  11.657
56716W        W28387  15.547  12.859   3.350
56717W        W28388  30.065  16.278   1.565
56718W        W28389  32.607  26.074  11.589
56719W        W28390  27.906   8.105  11.478
56720W        W28391  17.753  24.185  14.502
56721W        W28392  39.880  28.745  12.119
56722W        W28393  35.819  14.191   0.946
56723W        W28394   5.874   3.161  13.858
56724W        W28395  22.965  16.208  12.795
56725W        W28396  34.581  32.569   0.867
56726W        W28397  40.868  40.854   4.124
56727W        W28398  32.829   6.887  12.403
56728W        W28399  35.031  29.765  11.198
56729W        W28400  44.431   6.769  12.351
56730W        W28401  42.891   4.852   1.742
56731W        W28402   5.906  28.184  14.076
56732W        W28403  17.492  33.355  12.005
56733W        W28404  25.163  30.631   3.689
56734W        W28405   2.392  23.272  12.471
56735W        W28406  12.276  30.082  12.434
56736W        W28407  34.890  18.221   9.516
56737W        W28408  34.621   1.839   5.048
56738W        W28409  17.312  43.953  11.215
56739W        W28410  24.591   2.905   1.850
56740W        W28411  27.982  17.976  12.150
56741W        W28412   8.068   0.762   5.054
56742W        W28413  12.837  33.469  12.359
56743W        W28414  21.217   8.284   4.136
56744W        W28415  42.897  25.600   0.564
56745W        W28416  26.607  37.288  13.478
56746W        W28417  14.334  44.124   0.022
56747W        W28418  30.044   8.013   2.755
56748W        W28419  44.190  33.493  11.602
56749W        W28420  35.349  15.992  14.396
56750W        W28421  21.262   1.528   0.389
56751W        W28422  25.404  27.466   1.779
56752W        W28423   1.711   4.715   2.326
56753W        W28424   2.859  44.305  11.896
56754W        W28425  17.642   0.556   4.623
56755W        W28426  31.179  10.677   2.416
56756W        W28427  32.433  27.873  10.384
56757W        W28428  28.434  15.395   1.352
56758W        W28429   9.746  37.419  12.415
56759W        W28430  30.923  12.170  11.741
56760W        W28431  16.364  18.668  14.005
56761W        W28432  29.630  15.669   0.359
56762W        W28433  35.709   4.536   1.224
56763W        W28434  33.382  35.338  12.085
56764W        W28435  11.483   3.512  14.301
56765W        W28436   7.364  13.006  11.691
56766W        W28437   4.764  21.369  12.358
56767W        W28438  36.258  32.134   1.402
56768W        W28439  41.408   2.051  14.355
56769W        W28440  19.803  38.864  12.047
56770W        W28441  42.598  19.172   3.120
56771W        W28442  42.598  34.574  14.096
56772W        W28443  13.887  39.319   2.288
56773W        W28444   3.986  34.935   3.387
56774W        W28445  12.643   8.414  14.464
56775W        W28446   5.334  38.152  10.518
56776W        W28447   9.699  14.688  14.778
56777W        W28448  26.141  22.145   4.370
56778W        W28449  41.795  41.118   4.993
56779W        W28450  42.491   5.300   2.399
56780W        W28451  37.852  39.129   3.647
56781W        W28452   2.190  28.470   4.639
56782W        W28453  23.154   6.460  13.471
56783W        W28454   8.877  40.521   3.799
56784W        W28455  38.842   9.170   3.008
56785W        W28456  42.745  26.583  14.103
56786W        W28457  17.538  12.075   1.164
56787W        W28458  29.640  10.767  14.828
56788W        W28459  12.429  20.195   1.772
56789W        W28460  39.491  24.089   1.672
56790W        W28461  27.664  24.132   0.241
56791W        W28462  31.435   8.088  14.095
56792W        W28463  33.930  23.109   2.284
56793W        W28464  16.786  12.885  14.067
56794W        W28465  36.928  21.955   3.249
56795W        W28466  15.851   9.464   1.345
56796W        W28467  12.720   9.208  13.752
56797W        W28468  17.786  32.103  12.342
56798W        W28469  16.485   4.146   3.708
56799W        W28470  41.322  40.840  11.099
56800W        W28471  16.080  37.437  11.128
56801W        W28472  41.203  42.868  10.777
56802W        W28473  44.939  22.179   3.375
56803W        W28474  10.146  36.928   0.948
56804W        W28475  31.645   7.756   4.289
56805W        W28476  33.158  27.586  12.522
56806W        W28477  40.507  39.435  11.332
56807W        W28478  35.942  33.667   4.002
56808W        W28479  33.507  20.166   3.227
56809W        W28480  42.730  35.459   2.835
56810W        W28481  43.711  31.513   3.278
56811W        W28482   6.150  19.997  14.363
56812W        W28483  28.237  38.370   0.457
56813W        W28484  36.377  15.528  12.584
56814W        W28485   3.013  40.802  11.181
56815W        W28486  29.581   0.423   0.946
56816W        W28487  25.675  29.503  10.542
56817W        W28488  22.738  41.974   2.369
56818W        W28489  40.596   7.843  10.785
56819W        W28490   5.265  44.413  11.414
56820W        W28491  27.249  12.194   1.760
56821W        W28492   8.679  37.840   0.809
56822W        W28493  17.870   5.262   1.092
56823W        W28494  10.085  37.510  12.827
56824W        W28495   8.357  24.473   1.847
56825W        W28496  26.122   7.198   1.952
56826W        W28497   7.057  39.389  11.484
56827W        W28498  39.990  31.611   2.891
56828W        W28499  33.067  26.279   2.731
56829W        W28500   5.219  16.111  13.330
56830W        W28501  23.029  38.119  10.077
56831W        W28502  24.585  32.566   0.131
56832W        W28503  27.417  24.060   4.114
56833W        W28504  26.236  14.304  14.876
56834W        W28505  39.219  18.074  10.205
56835W        W28506   4.694  29.431   0.296
56836W        W28507   0.492  21.140  12.406
56837W        W28508   9.654  26.507  11.696
56838W        W28509  30.424   3.757   4.098
56839W        W28510   8.803  39.747  10.646
56840W        W28511  28.822   6.787   4.650
56841W        W28512  33.240  23.199  11.557
56842W        W28513  38.058  36.066  11.621
56843W        W28514  26.947   7.384   1.784
56844W        W28515  31.551  37.595   0.820
56845W        W28516  18.510  40.029   3.724
56846W        W28517  42.809  31.330   3.136
56847W        W28518  22.922  31.824  13.428
56848W        W28519   6.864  13.589   0.701
56849W        W28520  30.986  37.131  11.548
56850W        W28521   6.669  37.308  12.442
56851W        W28522   9.534  27.974  11.478
56852W        W28523  14.343  25.276   1.415
56853W        W28524  18.682  28.882  12.570
56854W        W28525   3.019   7.339   1.779
56855W        W28526  13.680  36.489  13.489
56856W        W28527  34.086   2.848  14.854
56857W        W28528  20.203   0.434  13.457
56858W        W28529  16.965  43.558  13.342
56859W        W28530   5.421  14.661   3.982
56860W        W28531  23.890  21.244   3.807
56861W        W28532  40.873  24.462  10.802
56862W        W28533  31.434  11.605   1.686
56863W        W28534   3.783  34.395   2.551
56864W        W28535  12.685  34.188   0.344
56865W        W28536   1.647  24.401  14.347
56866W        W28537  14.273  10.738  12.425
56867W        W28538  17.298  41.758  11.608
56868W        W28539  18.244  10.758  14.087
56869W        W28540  44.036  36.921  10.569
56870W        W28541  10.770  34.647  14.842
56871W        W28542  32.563  16.092  13.996
56872W        W28543  13.796  30.423  12.908
56873W        W28544   9.213   3.134  12.930
56874W        W28545   0.038  11.819   3.042
56875W        W28546  35.640   7.950  14.801
56876W        W28547  10.424   9.832   1.250
56877W        W28548   3.025  11.686   1.798
56878W        W28549  20.625  35.543   0.461
56879W        W28550  40.863  33.869  13.395
56880W        W28551  16.876   8.831   1.131
56881W        W28552  30.481  20.716   2.688
56882W        W28553  44.903  43.378  14.293
56883W        W28554  14.312  12.885   3.759
56884W        W28555  10.756  33.435  12.495
56885W        W28556  37.968  36.656   4.371
56886W        W28557  29.428  18.419  10.191
56887W        W28558  25.498  32.428  11.554
56888W        W28559  35.364  35.934   0.022
56889W        W28560  33.658  25.283   0.212
56890W        W28561  11.907  41.065   3.241
56891W        W28562   6.368  28.998  13.307
56892W        W28563  28.097   6.609  10.227
56893W        W28564  37.950   7.994   3.227
56894W        W28565  41.046  42.791   1.670
56895W        W28566   2.901  18.548  14.875
56896W        W28567  34.538   5.359  11.694
56897W        W28568  10.380  16.746   1.758
56898W        W28569  38.275  12.753  13.561
56899W        W28570   4.645  31.188   0.802
56900W        W28571   5.566  14.762   0.037
56901W        W28572   1.031  20.579   1.950
56902W        W28573  27.894   7.137  14.527
56903W        W28574  11.614  44.229   3.301
56904W        W28575   5.004   1.376  13.002
56905W        W28576   4.625  25.631   4.080
56906W        W28577  20.078   9.428  11.529
56907W        W28578   9.412   5.240   2.744
56908W        W28579   2.735  29.827   1.907
56909W        W28580  30.683  43.223   3.610
56910W        W28581  39.535  30.505   3.818
56911W        W28582   3.016  12.313  11.135
56912W        W28583  36.402   4.505   2.245
56913W        W28584   1.391  28.630   3.131
56914W        W28585  43.371  26.119  14.374
56915W        W28586  23.494  18.735  12.465
56916W        W28587  35.824   7.240   1.420
56917W        W28588   4.841  12.077  13.561
56918W        W28589  40.486   1.080   4.979
56919W        W28590  22.638  41.865   3.732
56920W        W28591  43.934  43.329  12.463
56921W        W28592  25.900  17.080   4.126
56922W        W28593  20.021  44.781   4.524
56923W        W28594  40.531  21.813   0.732
56924W        W28595  26.003  29.640  12.061
56925W        W28596  39.028  32.976   1.786
56926W        W28597  42.802  18.447   5.085
56927W        W28598  39.600  22.595   3.837
56928W        W28599   7.773  18.041  10.729
56929W        W28600  18.609   5.300  13.097
56930W        W28601  38.847  23.761  13.904
56931W        W28602   5.886  36.120   2.630
56932W        W28603  35.647  16.737  14.837
56933W        W28604   3.426  40.042  12.062
56934W        W28605  34.336  38.627  10.780
56935W        W28606  35.605  19.991  14.582
56936W        W28607  38.613  17.867  11.029
56937W        W28608  39.812  35.352  11.987
56938W        W28609  10.451  34.581   3.237
56939W        W28610  38.778   1.891  11.735
56940W        W28611  30.146  37.389   0.865
56941W        W28612   7.695  36.599  11.231
56942W        W28613  13.321   4.244  10.539
56943W        W28614   3.817  27.020   0.926
56944W        W28615  27.503  25.939   1.969
56945W        W28616   8.778  42.451  11.385
56946W        W28617  17.151  26.148  10.013
56947W        W28618   2.650  43.766  12.531
56948W        W28619  14.067  44.315  11.659
56949W        W28620  14.702  18.027   0.737
56950W        W28621  36.486  13.344   3.406
56951W        W28622  44.500   3.207   2.338
56952W        W28623  40.171  18.247   2.058
56953W        W28624   5.006  20.195  10.183
56954W        W28625   1.126  32.508  13.309
56955W        W28626  27.411   7.189   0.616
56956W        W28627  22.563  21.745   3.165
56957W        W28628  23.492  44.484   0.944
56958W        W28629   2.633   4.881  10.922
56959W        W28630  39.023   9.132   2.523
56960W        W28631  30.904   0.894  11.435
56961W        W28632   6.388  27.657   3.202
56962W        W28633  23.003  11.396   2.713
56963W        W28634  21.552  25.185   3.377
56964W        W28635  25.185  34.395  10.622
56965W        W28636   0.922  33.804   3.762
56966W        W28637   7.685  43.645   0.157
56967W        W28638  33.390  41.011   3.730
56968W        W28639  20.687  13.477  11.891
56969W        W28640   5.613   4.464  14.391
56970W        W28641  24.311  27.827   2.398
56971W        W28642   5.725  37.607  11.204
56972W        W28643  39.038  27.158   1.728
56973W        W28644   5.100  12.883   4.563
56974W        W28645  25.641  26.179  11.118
56975W        W28646  24.769  37.041  11.646
56976W        W28647  10.202  36.962   3.882
56977W        W28648  33.822  29.945  11.441
56978W        W28649  42.215   4.437   3.325
56979W        W28650  24.104  21.422   3.385
56980W        W28651  36.124  20.615   0.487
56981W        W28652  35.051  17.583  12.055
56982W        W28653   3.221  11.120   0.797
56983W        W28654   0.262  34.633   3.199
56984W        W28655  23.147  37.585   1.272
56985W        W28656  37.050  12.704   2.347
56986W        W28657  17.921  25.696   3.315
56987W        W28658  36.521  30.086  13.876
56988W        W28659  32.086  10.419   3.046
56989W        W28660  10.298  14.120   4.547
56990W        W28661  33.452  38.312  13.526
56991W        W28662  29.645   0.859   2.133
56992W        W28663  37.268   8.390  14.156
56993W        W28664  38.842  20.013  12.998
56994W        W28665   7.220  12.528   0.499
56995W        W28666   4.383  11.968  11.370
56996W        W28667  19.285  29.648   1.041
56997W        W28668  18.431  26.091   4.157
56998W        W28669  38.967  12.068  10.632
56999W        W28670   3.320   8.330   4.617
57000W        W28671  30.552  32.607  13.186
57001W        W28672  14.854   8.420   0.836
57002W        W28673   6.464  27.702   2.198
57003W        W28674  29.205  38.430  11.145
57004W        W28675  16.149  29.655   0.835
57005W        W28676  11.548  30.611  11.544
57006W        W28677  23.587  42.583   2.660
57007W        W28678  43.123  22.571  13.124
57008W        W28679   2.700  36.338  12.938
57009W        W28680  13.003  28.935  11.417
57010W        W28681  12.361  43.872  13.578
57011W        W28682   3.640   9.646   4.760
57012W        W28683  14.099  42.189   2.458
57013W        W28684  16.416   0.040  11.069
57014W        W28685  33.998  16.822   2.600
57015W        W28686  15.579  19.426  10.781
57016W        W28687   9.285  24.613  14.374
57017W        W28688  30.570  24.015  14.319
57018W        W28689  25.565  44.889   4.537
57019W        W28690   5.994  11.801  14.295
57020W        W28691  25.692  25.588   1.232
57021W        W28692  33.780  27.946  11.400
57022W        W28693  42.141  29.790  11.682
57023W        W28694  27.943  35.163  12.809
57024W        W28695  12.279   4.188   1.285
57025W        W28696  25.211  23.883   3.699
57026W        W28697  12.713  30.167   2.204
57027W        W28698  28.502   5.780   2.169
57028W        W28699   5.987   4.262   0.808
57029W        W28700  43.448  32.116   0.941
57030W        W28701  30.846  40.956  12.351
57031W        W28702   4.253   0.059  14.879
57032W        W28703  42.917   7.135   2.459
57033W        W28704  28.561  25.271   2.393
57034W        W28705   0.412  33.153  13.490
57035W        W28706   1.299  21.257  12.041
57036W        W28707  21.604   0.750  10.673
57037W        W28708  19.195  24.049  14.365
57038W        W28709   2.891  19.803  11.032
57039W        W28710  34.472  41.876  12.608
57040W        W28711  34.045  15.298  12.167
57041W        W28712  24.927  18.769  11.164
57042W        W28713  41.073   5.036  10.246
57043W        W28714   6.299  42.535  11.589
57044W        W28715  28.685  33.934  10.633
57045W        W28716  21.281  32.057  12.202
57046W        W28717  10.772  29.551   4.366
57047W        W28718  18.553  40.051  14.999
57048W        W28719  35.585   4.809   3.666
57049W        W28720  22.003  32.937   4.605
57050W        W28721  15.157  44.391   0.052
57051W        W28722  18.651  44.642  13.612
57052W        W28723   5.244  11.168  14.531
57053W        W28724  16.306  44.225  10.951
57054W        W28725   0.652  23.215   2.672
57055W        W28726  14.314  25.288   2.293
57056W        W28727  39.359  21.591   2.869
57057W        W28728   6.756  17.399   2.996
57058W        W28729  35.166  12.699   5.085
57059W        W28730  26.829  11.628   2.425
57060W        W28731  43.460  22.095  12.004
57061W        W28732  15.206  18.004   2.604
57062W        W28733   5.859   9.519  13.696
57063W        W28734  43.075  27.492   3.194
57064W        W28735  18.342   4.299  11.534
57065W        W28736   7.288   3.277  13.024
57066W        W28737  44.103  22.473   4.532
57067W        W28738  36.512  23.591  14.544
57068W        W28739  42.618   0.786   4.009
57069W        W28740   8.434  31.355   0.389
57070W        W28741  10.428  16.466   0.706
57071W        W28742  11.125  23.600   1.396
57072W        W28743  34.670  32.583  14.249
57073W        W28744  14.008  21.975  14.622
57074W        W28745  19.095  31.799  14.376
57075W        W28746  39.584  22.576  11.902
57076W        W28747   2.829  17.136  14.969
57077W        W28748   5.201   1.712  14.996
57078W        W28749  35.640  40.058   2.565
57079W        W28750  33.055  43.748   3.701
57080W        W28751  32.988  31.483   1.716
57081W        W28752  24.833  38.952   9.936
57082W        W28753  18.417  25.468   2.841
57083W        W28754   6.456   4.868   2.745
57084W        W28755  30.501  40.464   1.455
57085W        W28756  10.173  35.641   3.194
57086W        W28757  40.222  37.315   2.321
57087W        W28758  25.778  26.183   5.039
57088W        W28759   9.267  42.090  13.351
57089W        W28760   8.143  33.517   1.035
57090W        W28761  15.548  17.116  13.889
57091W        W28762   2.056   2.659  14.848
57092W        W28763  19.507   4.247  12.997
57093W        W28764  17.818  44.833   3.324
57094W        W28765   6.302  43.453  13.439
57095W        W28766   5.321   2.124   0.321
57096W        W28767   7.258   0.046   0.695
57097W        W28768  16.591  20.052  13.638
57098W        W28769  39.287  44.939  11.877
57099W        W28770  32.922  32.085   0.875
57100W        W28771  13.875  37.349  10.488
57101W        W28772  24.163  39.712  10.223
57102W        W28773   5.726   8.403   3.282
57103W        W28774   3.531   7.268   1.712
57104W        W28775   5.715  31.255   2.677
57105W        W28776  20.696  12.373  13.122
57106W        W28777  42.342  13.285  10.640
57107W        W28778  29.437  28.608  13.046
57108W        W28779   6.443  22.489   3.687
57109W        W28780  24.997   8.702   1.674
57110W        W28781  21.112  36.289   2.699
57111W        W28782  29.103  36.886   0.248
57112W        W28783   4.867   3.759   2.923
57113W        W28784   4.422  20.776   4.819
57114W        W28785  34.127  14.688  14.980
57115W        W28786  34.550  18.820  14.106
57116W        W28787  39.975  25.173   4.033
57117W        W28788  27.252  29.243  11.347
57118W        W28789  42.352  19.986  13.103
57119W        W28790  37.197  11.073  11.951
57120W        W28791  33.518   1.836  11.172
57121W        W28792  42.480  25.972  10.772
57122W        W28793  38.983  44.273  13.179
57123W        W28794  35.491   6.248   2.658
57124W        W28795   4.584   8.651   2.626
57125W        W28796  36.484  39.931  10.998
57126W        W28797  12.235  28.411   1.524
57127W        W28798  28.580  39.932   2.394
57128W        W28799  17.091  37.907  12.612
57129W        W28800  21.961  40.350   3.652
57130W        W28801  32.114   2.777   1.599
57131W        W28802   2.031   7.375   4.211
57132W        W28803   5.421   3.707   0.349
57133W        W28804   1.034  21.129  12.937
57134W        W28805   4.702  33.614   2.720
57135W        W28806  44.674   5.864  12.116
57136W        W28807  17.417  16.350  10.596
57137W        W28808  43.714  16.760   2.280
57138W        W28809  14.900  19.182   2.296
57139W        W28810   3.689  25.820  12.182
57140W        W28811  30.052  31.909   4.771
57141W        W28812  26.278  44.833  10.925
57142W        W28813  37.361  19.667   0.701
57143W        W28814  10.075  38.266   1.290
57144W        W28815  32.478  44.256  14.429
57145W        W28816  34.913  14.748  11.544
57146W        W28817  25.145  19.317  12.503
57147W        W28818   3.489   2.934  12.382
57148W        W28819  15.226   6.639  13.475
57149W        W28820   9.641  29.564  14.233
57150W        W28821   5.101   9.370   3.153
57151W        W28822   7.522  26.689   1.430
57152W        W28823  10.078  39.600   2.798
57153W        W28824   2.916  12.659   4.894
57154W        W28825  11.591   3.785  13.356
57155W        W28826   2.952  33.190   5.005
57156W        W28827   4.734  41.358   1.434
57157W        W28828  12.404  32.472   3.289
57158W        W28829  16.854  19.247  13.398
57159W        W28830  34.290  44.762   2.284
57160W        W28831  17.180   4.667  14.635
57161W        W28832  31.486  22.425  14.985
57162W        W28833   5.841  19.649   2.611
57163W        W28834  11.761  21.745  12.333
57164W        W28835  28.645   4.364  12.503
57165W        W28836  42.828  21.055  12.590
57166W        W28837   4.494  35.024   1.740
57167W        W28838  17.668  31.011   0.260
57168W        W28839  31.149  32.498   4.221
57169W        W28840   9.114  27.278  12.997
57170W        W28841  12.801   2.183   4.112
57171W        W28842  35.098  22.128  12.566
57172W        W28843  37.468   7.172  10.609
57173W        W28844  24.195  12.429  12.097
57174W        W28845   2.454  27.918  13.936
57175W        W28846  35.843   7.348   3.317
57176W        W28847  19.162  22.693   4.951
57177W        W28848  43.966  16.066  13.484
57178W        W28849  37.510  33.489   1.331
57179W        W28850   8.802  14.192  10.296
57180W        W28851  18.627  10.623  13.341
57181W        W28852  25.754  23.654   3.236
57182W        W28853  22.670   6.969  14.992
57183W        W28854   9.664  38.453  10.681
57184W        W28855  19.814   8.850  13.715
57185W        W28856  21.327  30.026   0.282
57186W        W28857  31.019  32.108  12.058
57187W        W28858  34.853   7.814  12.474
57188W        W28859  18.738  43.185   4.364
57189W        W28860  39.989  19.799   3.176
57190W        W28861  31.692  10.219   1.745
57191W        W28862  10.880  29.420   2.512
57192W        W28863  21.033  14.802  12.847
57193W        W28864   4.657  30.277   0.981
57194W        W28865  20.534  18.828  12.442
57195W        W28866  32.458  32.969   1.833
57196W        W28867  34.145   0.786  13.044
57197W        W28868  19.065   4.018  11.101
57198W        W28869  19.452  44.734   1.850
57199W        W28870  14.149  30.790  12.481
57200W        W28871  24.619  43.824   1.664
57201W        W28872  37.605  16.575   3.457
57202W        W28873  23.246  26.305  11.651
57203W        W28874   7.955  13.331  14.908
57204W        W28875  17.560  19.929   3.133
57205W        W28876   6.190  43.449  10.179
57206W        W28877  43.025  20.657   4.675
57207W        W28878  34.965  43.995   3.122
57208W        W28879   7.441  12.578   1.440
57209W        W28880  15.113  36.474  14.977
57210W        W28881  37.754  28.718   4.878
57211W        W28882  13.042  16.003  13.364
57212W        W28883  15.386   4.464   9.669
57213W        W28884  40.447  16.658  11.899
57214W        W28885  28.763  33.507   4.769
57215W        W28886  20.890  27.005   4.486
57216W        W28887   4.002   6.079  11.243
57217W        W28888  32.917  42.227  13.489
57218W        W28889  15.812  27.812  14.349
57219W        W28890  14.088  42.025  11.681
57220W        W28891   7.952   4.383   1.454
57221W        W28892  28.741  26.427   1.012
57222W        W28893  27.023  29.518   2.228
57223W        W28894  30.630  24.028  13.759
57224W        W28895  33.536  40.599  13.954
57225W        W28896  36.498  16.764  12.904
57226W        W28897   4.328  39.854   0.376
57227W        W28898  25.645  20.273  11.885
57228W        W28899  11.913  33.429   1.832
57229W        W28900  23.280  22.098   1.977
57230W        W28901  30.319   8.988   0.070
57231W        W28902  37.365  24.752   2.446
57232W        W28903   8.726  26.401   1.426
57233W        W28904  25.031  23.720   0.850
57234W        W28905   4.470  43.351   4.177
57235W        W28906  42.984  30.608   1.424
57236W        W28907  22.585  33.884  10.987
57237W        W28908   4.361  25.194   4.129
57238W        W28909  37.396  31.725  13.393
57239W        W28910   5.884  17.102  14.859
57240W        W28911  24.717   6.042   0.977
57241W        W28912  26.704  40.741   4.147
57242W        W28913   0.903  20.286  13.968
57243W        W28914  41.435  36.083  12.469
57244W        W28915   0.921  26.238   2.746
57245W        W28916   0.274  18.091   4.527
57246W        W28917  13.578  21.473   2.237
57247W        W28918  44.483  22.690   3.827
57248W        W28919  40.762   7.793  12.731
57249W        W28920   1.293  21.179  11.538
57250W        W28921  43.744   7.617   3.154
57251W        W28922   3.028  35.093  14.383
57252W        W28923  27.706  10.420   0.049
57253W        W28924  17.814   3.465   1.434
57254W        W28925  20.732   6.399  12.060
57255W        W28926  42.979  38.655   3.338
57256W        W28927  39.057  24.138   2.368
57257W        W28928  18.216   7.687  11.844
57258W        W28929  22.665  27.882  14.988
57259W        W28930  33.580  16.100  14.050
57260W        W28931  42.035  33.006  10.490
57261W        W28932  37.297   4.479  11.638
57262W        W28933  31.965   3.182  13.052
57263W        W28934   8.798  15.272   1.433
57264W        W28935  38.491  15.320  12.403
57265W        W28936  29.229  15.686   4.664
57266W        W28937   5.988  30.572  12.903
57267W        W28938  23.637  36.138  10.438
57268W        W28939  13.661  11.406  11.445
57269W        W28940   6.961  38.425  13.530
57270W        W28941  14.090  27.574   1.445
57271W        W28942  29.678  25.032   0.862
57272W        W28943  14.038   5.225   0.510
57273W        W28944   7.609   9.843  13.719
57274W        W28945  26.802  40.350  13.990
57275W        W28946  22.659   7.118   4.580
57276W        W28947  43.445  27.550   4.590
57277W        W28948  33.075  14.833   3.083
57278W        W28949  10.894   9.574   1.210
57279W        W28950  16.803  15.767   0.356
57280W        W28951   0.730  38.207   4.744
57281W        W28952  28.449   6.624  13.834
57282W        W28953   7.250   4.760  13.593
57283W        W28954  21.210  42.991   5.199
57284W        W28955   1.766  14.104  12.789
57285W        W28956  29.973   5.678  14.297
57286W        W28957  40.026  37.007   2.875
57287W        W28958  17.616  34.805   1.505
57288W        W28959  20.084  25.684   5.075
57289W        W28960  35.680  31.882  11.146
57290W        W28961  41.372  39.138   3.376
57291W        W28962  17.279  29.968   3.121
57292W        W28963  42.294  12.534  12.883
57293W        W28964  24.001  24.000  13.373
57294W        W28965  37.633  26.499  13.285
57295W        W28966  38.338  13.427  14.546
57296W        W28967  19.682  38.314   2.860
57297W        W28968  16.548   5.723  14.835
57298W        W28969  24.797  23.216  13.356
57299W        W28970   2.847   7.487   2.270
57300W        W28971  31.645  13.607  12.079
57301W        W28972   4.793  10.580   0.320
57302W        W28973  39.111  30.794   5.089
57303W        W28974  20.417  13.601  12.297
57304W        W28975  37.912  30.072   3.269
57305W        W28976  22.895   9.997  13.118
57306W        W28977  41.220  34.884   1.310
57307W        W28978  44.315  16.878   0.161
57308W        W28979  18.675  37.979   2.876
57309W        W28980   0.494  28.458  12.091
57310W        W28981  34.108  32.948   4.352
57311W        W28982  23.225  39.571   3.739
57312W        W28983  19.548   4.518   3.126
57313W        W28984  15.676  16.346  14.410
57314W        W28985  19.064  11.410  11.382
57315W        W28986  35.465  18.730   1.270
57316W        W28987  40.737  19.607   1.616
57317W        W28988  28.999  21.563   2.229
57318W        W28989  38.425  18.088   0.381
57319W        W28990  30.885  44.590   2.015
57320W        W28991  24.351   3.354  11.155
57321W        W28992   6.313   2.570   0.441
57322W        W28993  33.438  34.880   0.854
57323W        W28994   5.850  25.943   0.028
57324W        W28995  29.907  29.704  12.031
57325W        W28996  41.006  11.285   1.873
57326W        W28997  41.490  38.148  12.487
57327W        W28998  23.586  18.540  11.111
57328W        W28999  41.091  36.042   0.067
57329W        W29000  22.112  35.812   3.220
57330W        W29001  31.390  42.512  14.322
57331W        W29002  34.910  26.467   4.169
57332W        W29003  26.458  29.013   1.818
57333W        W29004  19.471  31.907  11.048
57334W        W29005  23.617  32.844  13.933
57335W        W29006  28.593  17.536  11.621
57336W        W29007  34.004  30.395  10.659
57337W        W29008  29.595   0.038  10.740
57338W        W29009   3.826   4.088  13.868
57339W        W29010   0.957  26.161  12.133
57340W        W29011   8.915  44.248  13.065
57341W        W29012  36.906   7.170  11.594
57342W        W29013  14.052  34.218   2.605
57343W        W29014  30.509  30.707   3.134
57344W        W29015  39.378   0.476   2.521
57345W        W29016  42.479   6.530  12.101
57346W        W29017  44.964  15.795   1.750
57347W        W29018  25.025   1.032  12.802
57348W        W29019  19.673  35.867  10.718
57349W        W29020  14.543  43.418  12.567
57350W        W29021   1.071  25.085  12.717
57351W        W29022  12.898  44.462   2.783
57352W        W29023  34.474  36.305  12.088
57353W        W29024   7.617  19.043  12.514
57354W        W29025   2.507  32.631  11.469
57355W        W29026  31.562  27.081   4.882
57356W        W29027  12.309  16.587   4.137
57357W        W29028  10.763  20.504   2.820
57358W        W29029  10.940   1.422  11.587
57359W        W29030  22.699  19.906   4.817
57360W        W29031  42.202  41.030  12.062
57361W        W29032   6.306  32.659  14.716
57362W        W29033  25.571  24.389  12.676
57363W        W29034  16.078  42.538   1.268
57364W        W29035  43.382  20.330  12.867
57365W        W29036  30.854   1.413  13.592
57366W        W29037   4.110  39.382   1.597
57367W        W29038  29.974   4.441   0.433
57368W        W29039  12.128  42.887  14.734
57369W        W29040   9.790  13.075  14.306
57370W        W29041  21.311  21.746  12.296
57371W        W29042  29.579  42.794  14.530
57372W        W29043  39.038  10.683   1.158
57373W        W29044  29.469   2.704   0.255
57374W        W29045  33.844  40.021  13.952
57375W        W29046   0.182  12.029   1.311
57376W        W29047  20.843   6.944  12.037
57377W        W29048  30.700  24.732   4.007
57378W        W29049  36.073  14.688   1.012
57379W        W29050  22.125  27.491   4.124
57380W        W29051   7.882  23.954  14.675
57381W        W29052  13.345  30.251   1.169
57382W        W29053  43.183  43.452  11.855
57383W        W29054  15.956  20.005   4.364
57384W        W29055  20.600   1.342  12.064
57385W        W29056  32.601  20.541  14.227
57386W        W29057   7.293  32.407   2.162
57387W        W29058  24.048  35.388  14.533
57388W        W29059   8.615  19.799   0.362
57389W        W29060  21.004  40.090  10.582
57390W        W29061   4.054  26.109  11.411
57391W        W29062  37.517  18.144   4.402
57392W        W29063  43.103  29.880   2.388
57393W        W29064   5.328  31.086  14.540
57394W        W29065  22.988  44.484  12.373
57395W        W29066  39.390  41.057   2.286
57396W        W29067  32.250  39.550   0.835
57397W        W29068  27.915  11.688  11.130
57398W        W29069   8.824  40.131   1.434
57399W        W29070   3.311  33.880   1.172
57400W        W29071  29.041  38.848   3.483
57401W        W29072  43.424   0.052  12.831
57402W        W29073  15.348  40.783   1.790
57403W        W29074  21.060  27.483   3.252
57404W        W29075  21.945  30.411   5.061
57405W        W29076  32.995   3.490  11.582
57406W        W29077  20.131  26.900   2.209
57407W        W29078  43.048  20.182  14.914
57408W        W29079  22.681  35.430  14.893
57409W        W29080  20.054  29.666  14.843
57410W        W29081  31.003  18.628   1.182
57411W        W29082  11.802   7.841  11.114
57412W        W29083   8.706  41.997  13.097
57413W        W29084  27.485  10.419   3.598
57414W        W29085  38.437  30.959   1.212
57415W        W29086   0.482   6.558  11.129
57416W        W29087  18.833  43.877   4.679
57417W        W29088  41.102   6.634   4.469
57418W        W29089  41.727  41.177  14.846
57419W        W29090  19.787  35.328  11.658
57420W        W29091   9.266   0.456   0.560
57421W        W29092  21.019  27.002  12.473
57422W        W29093  42.462  33.153   1.240
57423W        W29094  43.465  34.701   1.325
57424W        W29095  23.996  14.706   3.881
57425W        W29096  32.632   6.325  12.452
57426W        W29097  41.433  11.270  11.466
57427W        W29098  35.039  21.950   3.345
57428W        W29099  30.219  35.612  12.041
57429W        W29100  21.585  20.240  13.510
57430W        W29101  24.093   9.710  14.016
57431W        W29102   9.203   6.270  12.844
57432W        W29103  41.569   2.937   4.134
57433W        W29104  33.841  44.932   2.096
57434W        W29105   4.520  22.474   0.179
57435W        W29106  21.577  14.285  14.912
57436W        W29107   5.272   9.656  14.238
57437W        W29108   2.655  32.493  12.180
57438W        W29109   8.404  25.279   4.557
57439W        W29110  32.907  41.507   1.797
57440W        W29111   4.470  13.757  13.378
57441W        W29112  27.367  27.843   3.227
57442W        W29113  28.405  34.363   2.363
57443W        W29114   3.871  25.470  11.221
57444W        W29115  27.961  40.760   3.748
57445W        W29116  14.044  13.331   3.693
57446W        W29117  41.657  36.562   0.476
57447W        W29118  30.636  31.539  10.796
57448W        W29119  22.391  19.709   1.203
57449W        W29120  34.490  28.278  12.817
57450W        W29121  23.271  14.846  13.932
57451W        W29122   1.525   5.170   4.528
57452W        W29123  37.802  32.665   4.687
57453W        W29124  35.604  42.685   3.277
57454W        W29125  30.384  13.341   3.713
57455W        W29126  13.884  10.816  14.389
57456W        W29127  32.549  13.562   2.475
57457W        W29128  23.528   8.202   2.888
57458W        W29129   3.853  33.621  11.571
57459W        W29130  28.635  13.133  12.480
57460W        W29131  21.971  39.742  13.619
57461W        W29132  13.191  35.368   1.474
57462W        W29133  34.009   3.447  13.552
57463W        W29134   5.844  37.799   1.804
57464W        W29135  28.748  26.622   0.052
57465W        W29136  23.729  12.289  13.485
57466W        W29137  31.779  29.395   2.770
57467W        W29138  15.788  14.914  13.175
57468W        W29139  44.694   0.845   1.965
57469W        W29140   1.204  44.796   2.269
57470W        W29141   7.942   4.513  12.864
57471W        W29142  40.719  37.382   0.286
57472W        W29143  21.498  43.944  10.905
57473W        W29144  11.899  34.472   0.948
57474W        W29145  26.561  36.495  11.989
57475W        W29146  21.159  30.753  10.430
57476W        W29147   9.305  18.466   2.167
57477W        W29148   5.540  27.646   3.788
57478W        W29149  44.048  21.386  11.562
57479W        W29150  42.270   4.217   1.496
57480W        W29151  14.355  25.801   2.344
57481W        W29152  10.321  11.342   4.125
57482W        W29153  31.751  39.437   1.753
57483W        W29154  25.198   9.696  10.710
57484W        W29155  39.510   0.576   4.538
57485W        W29156  38.088   3.075  11.218
57486W        W29157   6.779  32.380   3.756
57487W        W29158   3.469  39.020   2.399
57488W        W29159  23.851  20.263   1.835
57489W        W29160  33.336  27.076  10.974
57490W        W29161  18.337  31.445  13.525
57491W        W29162   8.731   9.055   1.621
57492W        W29163  14.631  32.534   2.850
57493W        W29164  28.527  27.403  11.135
57494W        W29165   1.769  17.418   0.994
57495W        W29166   7.308  33.922   1.242
57496W        W29167  16.653  16.164   1.679
57497W        W29168  26.455  35.599   3.243
57498W        W29169  11.774  32.677   3.679
57499W        W29170   2.562  17.141  10.395
57500W        W29171  37.571  36.394   4.121
57501W        W29172  18.161  11.611  13.642
57502W        W29173  12.776  42.517   1.215
57503W        W29174  24.183  19.236  12.627
57504W        W29175  23.526  22.999  11.868
57505W        W29176  27.770  43.876   0.439
57506W        W29177  24.090  21.005  10.950
57507W        W29178  34.874   7.659  13.446
57508W        W29179   6.634   8.828  10.525
57509W        W29180  37.715  23.034   9.715
57510W        W29181  21.031  36.971   2.307
57511W        W29182  21.179  24.518  13.552
57512W        W29183  14.178   4.865  11.561
57513W        W29184  27.998  18.681   3.783
57514W        W29185  17.682  30.512   0.095
57515W        W29186  21.262  28.837   4.666
57516W        W29187  27.056  38.341  11.096
57517W        W29188   0.008   7.298   0.259
57518W        W29189  42.793  41.077   5.306
57519W        W29190  33.214  19.759  13.945
57520W        W29191  33.462  41.331   1.258
57521W        W29192   1.224  29.542   1.775
57522W        W29193  33.406   1.993  13.878
57523W        W29194   3.328  32.940  14.893
57524W        W29195  22.901  39.406  11.433
57525W        W29196  31.883  19.216   4.650
57526W        W29197  13.200  10.565  13.025
57527W        W29198   8.914  20.000   2.003
57528W        W29199   0.857  22.357   2.823
57529W        W29200  34.853   3.048  10.546
57530W        W29201  25.537  17.549   0.292
57531W        W29202  13.356  29.423  10.522
57532W        W29203  29.839   2.244   3.164
57533W        W29204  41.482  34.631  11.517
57534W        W29205  11.088   6.851  12.107
57535W        W29206  39.237  10.688   4.261
57536W        W29207  41.484   5.707  12.637
57537W        W29208  24.124  25.426  11.537
57538W        W29209   8.297   2.980  11.245
57539W        W29210  28.107  28.771   0.219
57540W        W29211  14.079   8.276   1.376
57541W        W29212  11.823  14.161   4.795
57542W        W29213  35.858  35.432  13.990
57543W        W29214  44.930  43.767  11.833
57544W        W29215  30.268  17.707  10.616
57545W        W29216  20.038  16.381  10.456
57546W        W29217   6.567  18.150  10.015
57547W        W29218  27.681  12.333   0.840
57548W        W29219  38.452  33.353  11.003
57549W        W29220  10.503  24.037   0.553
57550W        W29221  14.322  39.067   0.296
57551W        W29222  19.745   2.472   2.727
57552W        W29223   1.710  25.546  10.707
57553W        W29224   4.520   9.406  13.460
57554W        W29225   6.467   1.195  13.382
57555W        W29226  33.857   4.459   2.378
57556W        W29227  37.631   0.859  12.666
57557W        W29228   3.253  33.593   2.589
57558W        W29229  42.534   7.488   2.245
57559W        W29230  33.042  41.914  13.962
57560W        W29231  15.293  42.741   2.972
57561W        W29232   4.641  29.934  12.046
57562W        W29233  44.936  25.113  11.174
57563W        W29234  26.702  15.609   0.372
57564W        W29235  22.534  15.256  13.989
57565W        W29236  11.364  12.076  13.503
57566W        W29237  37.827   9.989   0.345
57567W        W29238  30.742  22.541   1.076
57568W        W29239   8.150   3.577  14.386
57569W        W29240  39.328  14.721  13.884
57570W        W29241   6.959  18.649   0.224
57571W        W29242   2.432   6.385  11.581
57572W        W29243  37.544  27.980   2.123
57573W        W29244   6.061  25.210   2.023
57574W        W29245  21.817  36.367   0.165
57575W        W29246   6.851  35.538   3.634
57576W        W29247  43.991   9.795   4.084
57577W        W29248  14.420  16.735   4.061
57578W        W29249  39.808   5.657  14.478
57579W        W29250  23.639  20.037  11.126
57580W        W29251   5.463  34.426   1.989
57581W        W29252   2.894  17.834  13.219
57582W        W29253  24.778  40.598   1.749
57583W        W29254   7.039  41.048   4.259
57584W        W29255  29.409  21.148  13.264
57585W        W29256  17.136  37.088  14.500
57586W        W29257  16.769  21.393   1.836
57587W        W29258  12.118  13.329   2.263
57588W        W29259  12.771   9.241  11.066
57589W        W29260  39.607   1.621   4.781
57590W        W29261   2.434  37.004  11.660
57591W        W29262  17.679  13.820   1.789
57592W        W29263  44.847  10.362  13.981
57593W        W29264  21.178   0.472   4.113
57594W        W29265  37.025  12.346  13.485
57595W        W29266  41.082  28.528  13.457
57596W        W29267  21.223   7.307  13.795
57597W        W29268  38.093  11.719  13.439
57598W        W29269  38.523  20.701   1.245
57599W        W29270  38.540  17.419   1.722
57600W        W29271  33.370   1.485   2.976
57601W        W29272   9.193  37.807   0.247
57602W        W29273  10.813  10.246   2.408
57603W        W29274  25.104  20.696  14.491
57604W        W29275  14.659  19.703   3.963
57605W        W29276  22.439   8.774  12.051
57606W        W29277  31.904  29.535  12.354
57607W        W29278  11.382   5.410  13.110
57608W        W29279  18.184  35.999   0.679
57609W        W29280   1.417   6.072  13.926
57610W        W29281  43.514  13.225  13.384
57611W        W29282   7.690   4.822   0.419
57612W        W29283  11.219   5.139   3.115
57613W        W29284  23.710  23.332  12.191
57614W        W29285  15.111  19.461  13.075
57615W        W29286  10.661  13.757  10.515
57616W        W29287  19.857  14.990  13.381
57617W        W29288   7.440  26.264  11.003
57618W        W29289  38.379  10.387  14.846
57619W        W29290  35.421   2.410   1.218
57620W        W29291  39.470  23.963   0.271
57621W        W29292  27.140   4.847   1.043
57622W        W29293  39.016  38.665  12.886
57623W        W29294  41.826   2.673  13.263
57624W        W29295   2.418  16.289  14.531
57625W        W29296  27.116  33.390  13.986
57626W        W29297  40.731  28.942   1.898
57627W        W29298  42.874  19.617   2.884
57628W        W29299  40.157  18.955  11.958
57629W        W29300   3.604  20.623  14.803
57630W        W29301   6.826   1.915  12.801
57631W        W29302   8.699   8.496  10.989
57632W        W29303  17.091   9.565   0.335
57633W        W29304  24.113   9.655   1.943
57634W        W29305   3.785   2.259  13.677
57635W        W29306  30.131  19.731   1.405
57636W        W29307  38.943  36.331  11.535
57637W        W29308  15.149  23.652   1.338
57638W        W29309  32.943  23.653  14.496
57639W        W29310  23.673  25.194   1.844
57640W        W29311  12.154   9.841  12.603
57641W        W29312   3.441  38.261   3.597
57642W        W29313  24.822  41.550   1.809
57643W        W29314  12.103  14.530   2.051
57644W        W29315   3.053  25.576   2.661
57645W        W29316  16.486  23.623   4.087
57646W        W29317  35.902  33.118   1.287
57647W        W29318  22.014  44.712  12.625
57648W        W29319  44.755  38.899  14.544
57649W        W29320   0.323  41.483   0.772
57650W        W29321  29.050  15.805  10.794
57651W        W29322  17.452  12.325  13.857
57652W        W29323  26.275  11.649   2.492
57653W        W29324  29.189  13.264  13.060
57654W        W29325  28.125  28.695   2.139
57655W        W29326  39.567  26.010  14.736
57656W        W29327  33.606  28.469   3.247
57657W        W29328  29.435  39.937  14.642
57658W        W29329  15.651  44.939   0.955
57659W        W29330  36.891  43.503  11.881
57660W        W29331  17.354  33.156   0.716
57661W        W29332  33.423  37.005   2.631
57662W        W29333  33.039  33.285   3.617
57663W        W29334  15.875   0.093   3.687
57664W        W29335  14.490  15.771  14.023
57665W        W29336  32.009  38.576   0.710
57666W        W29337  19.777  25.643  13.392
57667W        W29338   5.595  17.590   4.111
57668W        W29339  42.942  44.233   1.706
57669W        W29340   0.589  26.483  14.421
57670W        W29341   5.076  19.803  12.477
57671W        W29342  18.070  15.321  12.929
57672W        W29343  38.453   4.660  11.589
57673W        W29344  41.523  41.230   0.373
57674W        W29345  22.156  25.050   0.455
57675W        W29346   8.302  30.593   2.923
57676W        W29347  24.158   2.617   0.516
57677W        W29348  38.760  41.194   2.648
57678W        W29349  36.281  15.844   2.922
57679W        W29350  44.183  35.045  11.270
57680W        W29351  31.462   4.370  12.458
57681W        W29352  33.516  23.209   3.957
57682W        W29353  44.284  37.403  12.514
57683W        W29354  34.797   4.223  11.382
57684W        W29355  44.631   5.139  14.699
57685W        W29356  38.919  32.689  11.119
57686W        W29357  33.968  40.035   4.218
57687W        W29358  31.056   1.862   5.401
57688W        W29359  24.527   3.676   2.168
57689W        W29360   0.957   4.897   3.130
57690W        W29361  19.702   5.153  13.314
57691W        W29362   1.139  35.118   3.544
57692W        W29363   9.231  36.214   1.866
57693W        W29364   0.191  12.183  11.656
57694W        W29365  19.650  27.148   0.465
57695W        W29366   1.766   5.407   3.234
57696W        W29367   2.253  27.537  14.263
57697W        W29368   7.628  11.595   3.175
57698W        W29369  33.546  23.224   0.499
57699W        W29370  41.437  33.360  11.411
57700W        W29371  22.241  43.815  12.731
57701W        W29372  15.753  12.726  12.539
57702W        W29373   2.175  26.677  12.490
57703W        W29374  29.254  43.775  12.403
57704W        W29375  44.513  35.510  14.690
57705W        W29376  17.982  34.290   2.812
57706W        W29377  17.295   2.989   0.201
57707W        W29378  27.176  43.962   1.878
57708W        W29379  31.704   0.900   4.953
57709W        W29380  31.806  10.054  12.566
57710W        W29381  37.587  44.894   3.582
57711W        W29382  43.339  22.701  10.287
57712W        W29383  16.124  39.023   2.302
57713W        W29384  39.371  25.879  11.258
57714W        W29385   0.775   4.753  12.456
57715W        W29386   8.942  20.051   3.736
57716W        W29387  37.974  22.063  12.479
57717W        W29388  38.517   4.307  12.944
57718W        W29389  39.827  16.751  13.137
57719W        W29390  41.815  12.738   1.697
57720W        W29391  21.743   3.931   2.135
57721W        W29392  19.789   6.787   4.118
57722W        W29393  20.719  29.858   3.165
57723W        W29394  41.149  20.250   3.585
57724W        W29395   8.179  36.097  13.207
57725W        W29396  32.647  15.642  12.032
57726W        W29397  36.493  44.374   0.701
57727W        W29398  40.591   6.924   3.840
57728W        W29399  15.321  37.488   3.292
57729W        W29400  38.808   8.187  14.679
57730W        W29401  14.190  36.874   4.234
57731W        W29402  36.720   5.837  11.418
57732W        W29403  13.200   1.003  12.485
57733W        W29404  17.810  44.732  13.076
57734W        W29405  40.591  11.831  10.495
57735W        W29406  44.825  43.533   1.193
57736W        W29407  22.190  27.427   1.439
57737W        W29408  28.053  31.000   4.031
57738W        W29409  27.903  36.413   4.521
57739W        W29410  35.559  14.790   3.739
57740W        W29411  14.653  27.975   0.298
57741W        W29412  35.545  33.457  13.227
57742W        W29413  17.297  15.096  11.527
57743W        W29414   0.829  31.123   0.984
57744W        W29415   5.192  25.607   0.826
57745W        W29416  14.682  24.475   4.639
57746W        W29417  16.059  30.510  10.623
57747W        W29418  22.892  11.286   2.215
57748W        W29419  26.506  33.482   3.590
57749W        W29420  12.272  22.314  14.123
57750W        W29421  32.470  27.079   1.510
57751W        W29422  16.029  28.691   1.277
57752W        W29423  11.592  20.921  11.109
57753W        W29424   1.183  25.666  11.593
57754W        W29425  21.749   6.536   1.723
57755W        W29426  42.503  43.088  13.601
57756W        W29427  42.401   4.495  14.442
57757W        W29428  24.895  39.190   2.541
57758W        W29429  42.303   0.357  13.505
57759W        W29430  32.901   1.267  10.648
57760W        W29431  43.095  37.754   3.584
57761W        W29432   4.767  44.701  14.619
57762W        W29433  31.131  36.067   1.274
57763W        W29434   3.184  28.092   2.330
57764W        W29435  24.740   0.314   1.896
57765W        W29436  41.751  25.203   3.641
57766W        W29437  21.206  19.835  12.960
57767W        W29438  17.807  16.344   0.479
57768W        W29439  12.835  32.908  14.919
57769W        W29440  20.808  16.322  14.739
57770W        W29441  37.905  20.705   4.897
57771W        W29442  25.081  14.148  13.738
57772W        W29443   6.394   8.703  12.386
57773W        W29444  24.385   9.549   3.190
57774W        W29445   9.075  13.350  13.595
57775W        W29446  39.077  24.017  14.945
57776W        W29447  21.135   5.990   0.009
57777W        W29448   8.923  11.890   0.384
57778W        W29449   7.289  13.353   4.082
57779W        W29450  23.283  15.669  10.700
57780W        W29451  42.838   6.720   1.702
57781W        W29452  43.804  42.244  10.391
57782W        W29453   0.700  41.560   1.459
57783W        W29454   1.692   7.700   2.323
57784W        W29455  36.297  23.137   4.331
57785W        W29456  21.182   8.845  12.523
57786W        W29457  38.831  11.982   0.817
57787W        W29458  18.571  22.363   4.949
57788W        W29459  17.402   7.969  14.973
57789W        W29460  12.283  12.284   1.286
57790W        W29461  19.151  41.712   0.872
57791W        W29462  43.292  43.758  13.615
57792W        W29463  42.946   5.912  12.542
57793W        W29464  13.592   6.526  10.933
57794W        W29465  10.228  17.662  13.467
57795W        W29466  12.472  32.862  13.514
57796W        W29467   9.006  22.468   3.602
57797W        W29468  15.743  36.764   1.046
57798W        W29469  41.095  30.193   2.425
57799W        W29470  36.307  17.135  10.620
57800W        W29471  28.654  10.494   0.375
57801W        W29472  38.139  18.116   0.814
57802W        W29473  28.654  29.742  10.546
57803W        W29474   2.033  14.349  11.823
57804W        W29475  37.332   7.716   3.768
57805W        W29476   2.747  15.239   1.157
57806W        W29477  26.098   6.977   4.625
57807W        W29478  30.156  16.110  13.099
57808W        W29479   7.788  13.851   1.418
57809W        W29480  13.542   5.176   2.117
57810W        W29481  37.481   7.398  13.035
57811W        W29482  38.288  13.206  13.018
57812W        W29483  13.363  34.059   1.370
57813W        W29484  32.555   6.694  11.160
57814W        W29485  19.726  42.560   2.185
57815W        W29486  11.857  12.072  13.039
57816W        W29487  44.564   4.278   0.786
57817W        W29488  33.600   1.658  13.540
57818W        W29489   8.301   1.918  11.051
57819W        W29490   6.637   4.758   3.237
57820W        W29491  18.595   2.438  10.972
57821W        W29492  39.420  33.091   2.569
57822W        W29493  41.165   1.871  11.360
57823W        W29494   0.917  42.970  10.992
57824W        W29495  15.514  18.829  14.377
57825W        W29496  15.206   7.885  12.816
57826W        W29497  19.246  39.978  14.789
57827W        W29498  37.833  40.017   4.738
57828W        W29499  20.777  31.360  11.993
57829W        W29500  24.079   9.146   1.906
57830W        W29501  24.230   0.305   2.785
57831W        W29502   4.968  26.202  14.029
57832W        W29503  31.655  42.708  13.837
57833W        W29504  15.595   8.382  11.421
57834W        W29505  14.135   6.740   2.444
57835W        W29506  23.818   5.047   5.036
57836W        W29507  21.629  19.184   3.304
57837W        W29508  21.693  11.240   2.785
57838W        W29509  37.336  28.414  10.653
57839W        W29510   8.382  20.818   4.150
57840W        W29511  42.498  28.025   2.360
57841W        W29512   0.935   1.306   1.057
57842W        W29513  28.697  15.235  12.966
57843W        W29514  36.017   7.914  11.528
57844W        W29515  32.118   0.819   3.333
57845W        W29516  33.461  20.988  13.293
57846W        W29517  44.860  43.506  12.668
57847W        W29518  34.031  37.835  13.989
57848W        W29519  18.631  29.708   3.632
57849W        W29520  19.269   7.240   0.760
57850W        W29521  23.689  14.595  11.570
57851W        W29522  37.591   5.725   4.632
57852W        W29523   3.161  29.087   3.155
57853W        W29524   8.422   8.986   2.885
57854W        W29525  38.037  40.366   0.194
57855W        W29526   6.331  27.004  14.692
57856W        W29527  39.109  35.863  11.447
57857W        W29528  25.546  34.550  14.813
57858W        W29529  32.569  43.690  11.042
57859W        W29530  19.482  38.815  10.334
57860W        W29531  15.671  16.077  11.129
57861W        W29532  19.211  32.075   2.855
57862W        W29533  29.047  27.248   3.876
57863W        W29534   9.080  10.781  13.533
57864W        W29535  34.659  13.205  14.336
57865W        W29536  36.086  32.381   0.954
57866W        W29537  24.675  23.700  10.659
57867W        W29538  13.264  31.354   4.497
57868W        W29539   1.645   6.854   2.804
57869W        W29540  39.583   0.345  14.832
57870W        W29541  31.178  17.674  10.882
57871W        W29542  29.356  26.522  14.235
57872W        W29543  20.985  29.077  13.915
57873W        W29544  20.153  21.279  11.614
57874W        W29545  40.815  11.662  12.417
57875W        W29546  22.794  32.139  11.555
57876W        W29547  17.372   6.945   1.423
57877W        W29548  24.512  24.127  11.379
57878W        W29549  12.120  43.901   4.640
57879W        W29550  31.073  11.271   4.551
57880W        W29551   6.650  27.952   0.366
57881W        W29552   6.178   3.156  12.975
57882W        W29553  41.478  29.559  10.720
57883W        W29554  42.932   2.185   4.970
57884W        W29555  26.746  14.608  13.621
57885W        W29556   8.619  24.048   2.308
57886W        W29557  13.045   1.819   3.307
57887W        W29558  35.944   3.020   3.384
57888W        W29559  29.113  23.156  12.224
57889W        W29560  20.365   6.804  12.875
57890W        W29561  23.135  28.987   0.354
57891W        W29562  27.346  15.656   1.837
57892W        W29563   9.709  40.618   2.671
57893W        W29564  23.935  26.719  13.111
57894W        W29565   6.680  11.303  11.491
57895W        W29566  16.899   7.697   4.239
57896W        W29567  11.300  11.157   4.392
57897W        W29568   6.457  39.805  13.139
57898W        W29569  29.548  33.597   4.063
57899W        W29570  12.031  30.604   0.209
57900W        W29571   2.250   8.780  13.380
57901W        W29572  43.945  25.483   1.640
57902W        W29573   1.539  28.766   0.420
57903W        W29574  11.621  38.182  10.803
57904W        W29575  31.432  32.057   4.151
57905W        W29576   9.942   9.604  13.349
57906W        W29577  25.974   7.634   1.637
57907W        W29578  15.054   5.887   4.876
57908W        W29579  25.965  25.562  11.077
57909W        W29580  33.614  19.595   1.786
57910W        W29581  10.313  19.745  14.617
57911W        W29582  25.680  29.842   3.600
57912W        W29583  20.187   0.499   3.830
57913W        W29584   7.645   7.382   2.225
57914W        W29585  11.182  20.563   2.045
57915W        W29586  42.560  35.469   4.695
57916W        W29587  20.683  41.354   4.539
57917W        W29588  31.087  29.247  13.344
57918W        W29589  13.127  20.870  11.391
57919W        W29590  12.718  14.993  13.573
57920W        W29591  44.382  12.937   4.464
57921W        W29592   1.236  15.774  10.903
57922W        W29593  29.161  30.986  10.390
57923W        W29594   7.914  36.440   4.582
57924W        W29595  36.323  42.845   2.085
57925W        W29596  17.120  30.732   4.667
57926W        W29597  40.073  11.458   0.794
57927W        W29598  43.666  23.982   1.455
57928W        W29599  29.164   7.701   2.188
57929W        W29600  20.766   2.325  14.751
57930W        W29601  16.147  20.598  13.040
57931W        W29602  14.657  20.624  13.322
57932W        W29603   9.951   0.790  12.529
57933W        W29604  33.948  14.475   0.414
57934W        W29605  28.472  43.956   2.249
57935W        W29606  11.328  34.626  11.170
57936W        W29607  10.335  41.998  10.778
57937W        W29608   1.345   8.530   1.226
57938W        W29609  26.687  36.069   2.346
57939W        W29610  35.853   6.756   1.670
57940W        W29611  27.175  32.481  12.054
57941W        W29612  13.341  28.438  10.703
57942W        W29613  37.110  35.067  13.738
57943W        W29614  12.220  31.458   0.780
57944W        W29615  43.224  14.960   5.754
57945W        W29616  20.836  17.221  11.566
57946W        W29617   4.838  22.121  11.490
57947W        W29618  44.279  18.686   4.139
57948W        W29619   5.562  10.316  12.184
57949W        W29620  34.342  35.415  14.452
57950W        W29621   5.180  30.098  13.037
57951W        W29622   5.207  16.628   4.156
57952W        W29623  21.157   8.859   1.492
57953W        W29624  22.695  25.876   0.680
57954W        W29625  24.707  31.179   2.777
57955W        W29626  12.826   0.651  14.504
57956W        W29627  36.132   4.932   2.807
57957W        W29628  17.717  10.852  13.391
57958W        W29629  29.400   8.344   2.338
57959W        W29630   7.252  33.045   3.373
57960W        W29631  17.363   8.698  14.255
57961W        W29632  10.348   9.652   4.213
57962W        W29633  20.213  18.270  14.157
57963W        W29634  18.769  31.409   3.423
57964W        W29635  18.355  42.492  11.673
57965W        W29636   4.305  39.417   1.115
57966W        W29637  21.011  35.940  10.200
57967W        W29638  22.746  10.698  11.564
57968W        W29639  26.962   9.865   2.765
57969W        W29640  17.711  21.167  13.143
57970W        W29641   9.195  42.805   0.370
57971W        W29642  32.205  22.986  14.294
57972W        W29643  33.069   9.735   0.531
57973W        W29644  25.045  25.479  10.382
57974W        W29645  34.400  27.126   0.681
57975W        W29646   1.701  23.154  14.901
57976W        W29647  39.123  44.375  14.979
57977W        W29648  16.140  44.405   0.434
57978W        W29649  22.819  32.858  11.989
57979W        W29650  16.807  11.734   3.713
57980W        W29651   0.706  23.178  12.037
57981W        W29652   2.957  32.722   2.925
57982W        W29653  16.473  43.486   1.345
57983W        W29654  23.044  43.958  12.510
57984W        W29655  14.980  29.592   1.591
57985W        W29656  22.755  21.494  12.109
57986W        W29657  31.167  10.143  12.141
57987W        W29658  16.585  43.346  14.026
57988W        W29659  43.759   1.154  12.576
57989W        W29660   9.264   6.669  13.185
57990W        W29661  10.311  41.920   1.414
57991W        W29662  32.093  12.066   4.343
57992W        W29663  19.158  24.426  13.465
57993W        W29664  39.852  17.643   4.672
57994W        W29665   6.681   6.193   4.492
57995W        W29666  31.799  27.638   2.238
57996W        W29667  24.646  10.624   0.234
57997W        W29668  11.791  21.055   5.018
57998W        W29669  16.241   3.632   2.852
57999W        W29670  11.166   3.043   0.268
58000W        W29671  44.030  15.733  13.882
58001W        W29672   1.932  37.015   0.998
58002W        W29673  13.030   6.837   0.677
58003W        W29674  10.050   8.991  14.414
58004W        W29675  16.949   0.923  11.112
58005W        W29676  38.794  25.771   9.857
58006W        W29677   8.094  23.546  14.935
58007W        W29678  23.509  10.176   3.682
58008W        W29679  31.430  15.323   3.291
58009W        W29680  21.235  21.542   2.585
58010W        W29681  15.690  39.905  14.473
58011W        W29682  38.253  25.015   5.048
58012W        W29683  15.288  37.492   0.786
58013W        W29684  13.122  14.255  10.225
58014W        W29685  33.392   2.945   4.405
58015W        W29686  44.339  12.811  11.603
58016W        W29687  30.378  27.033  10.673
58017W        W29688  25.747  19.526   0.035
58018W        W29689  42.576  11.224  10.981
58019W        W29690  33.657  44.230   4.601
58020W        W29691  37.054  43.993   2.841
58021W        W29692   3.642   3.267   4.496
58022W        W29693  14.334  13.204  11.510
58023W        W29694  20.460  17.122  13.450
58024W        W29695  21.561  43.859  11.909
58025W        W29696  38.060  44.079   2.237
58026W        W29697  41.389  42.827  12.989
58027W        W29698   0.219  13.577  11.049
58028W        W29699  21.224   4.840  10.201
58029W        W29700  41.975  36.840  13.551
58030W        W29701  31.962  24.994   3.847
58031W        W29702   5.289  19.692   3.252
58032W        W29703   5.314  40.353   2.854
58033W        W29704  37.320  20.133   0.909
58034W        W29705  27.478  29.034   4.792
58035W        W29706  16.808  44.672   4.090
58036W        W29707  39.444  35.097   0.385
58037W        W29708  15.357   5.437   1.034
58038W        W29709   2.640  41.068   4.239
58039W        W29710   3.397  36.136   4.278
58040W        W29711   6.422   2.299  14.348
58041W        W29712   9.260  24.593   1.786
58042W        W29713  40.549   1.388   1.837
58043W        W29714   1.275   3.075  11.291
58044W        W29715  42.912  24.880   2.231
58045W        W29716  28.254  22.694  11.934
58046W        W29717  31.707  42.738  11.398
58047W        W29718  21.572  27.138  12.441
58048W        W29719  40.276   3.273   1.388
58049W        W29720  38.325   8.370  14.737
58050W        W29721  28.957  36.851   3.024
58051W        W29722  26.393  29.144  12.562
58052W        W29723  42.971  24.064   0.724
58053W        W29724  25.407  24.704  13.973
58054W        W29725  42.552  30.230   4.186
58055W        W29726  24.130  17.598  10.418
58056W        W29727   9.754   3.960  12.009
58057W        W29728  26.272  30.381   4.085
58058W        W29729  23.013  44.869   2.344
58059W        W29730  16.067  26.979   4.520
58060W        W29731  14.810   4.193  13.745
58061W        W29732  14.216  39.159  11.216
58062W        W29733  36.924  24.433  10.513
58063W        W29734  34.525   2.763   3.684
58064W        W29735  18.225   2.317   0.495
58065W        W29736  31.678  35.897  12.907
58066W        W29737   0.296  34.005  11.955
58067W        W29738  24.401  15.289   4.248
58068W        W29739   6.987  41.590  10.459
58069W        W29740  11.832  25.051   1.385
58070W        W29741   8.747   8.680  13.030
58071W        W29742  10.538  23.160  14.397
58072W        W29743  42.019   5.793  11.968
58073W        W29744  31.425   5.275  10.473
58074W        W29745  31.193  37.423   1.149
58075W        W29746  18.769   0.424   2.438
58076W        W29747   1.145   6.839   2.674
58077W        W29748  12.099  40.561  14.813
58078W        W29749  30.985   7.228   3.244
58079W        W29750  16.160  21.288   3.198
58080W        W29751  15.896  34.924  11.008
58081W        W29752   3.488   3.826   3.243
58082W        W29753   0.557  28.035   4.501
58083W        W29754  41.296   8.121   2.318
58084W        W29755   3.749  22.706   3.739
58085W        W29756  18.517  30.589  10.663
58086W        W29757  29.624  32.203   3.564
58087W        W29758  38.562  35.112  10.947
58088W        W29759  40.120   4.049   3.467
58089W        W29760  34.372   2.039   1.763
58090W        W29761  37.500  13.646   2.361
58091W        W29762   7.302  42.771  12.926
58092W        W29763  40.427  31.627  14.150
58093W        W29764  36.463  26.316   4.557
58094W        W29765   3.725   5.637   2.793
58095W        W29766  24.991   6.606  11.538
58096W        W29767  21.735  16.267  12.819
58097W        W29768   1.952  16.489  12.037
58098W        W29769  31.531  12.819   4.280
58099W        W29770  18.371  41.676   5.210
58100W        W29771   4.859  31.646   1.700
58101W        W29772  30.485  23.617   3.153
58102W        W29773   6.401  26.308  12.447
58103W        W29774  20.537  27.149  14.424
58104W        W29775  41.311   3.865  11.606
58105W        W29776  11.351  17.647   1.923
58106W        W29777  24.438  39.395   2.345
58107W        W29778  21.911   8.824  12.845
58108W        W29779   2.061  17.406  12.549
58109W        W29780   8.698  37.599   0.328
58110W        W29781  27.039  43.301  11.130
58111W        W29782  40.479  28.170  11.060
58112W        W29783  26.071  10.148   0.467
58113W        W29784   3.292  32.946   0.762
58114W        W29785   8.832  26.705  11.290
58115W        W29786  33.192  27.727   2.722
58116W        W29787  14.067  40.118   3.664
58117W        W29788   7.844  24.229   2.997
58118W        W29789  15.595  20.579  12.041
58119W        W29790  15.932  12.602   0.149
58120W        W29791  42.806  18.286  13.052
58121W        W29792   0.685  24.591   3.078
58122W        W29793  11.669  23.306   0.537
58123W        W29794   1.311  15.107   2.944
58124W        W29795   8.414  23.188   2.322
58125W        W29796   5.834  28.618   1.898
58126W        W29797  12.095  28.252  11.649
58127W        W29798   8.234   3.738  10.720
58128W        W29799  11.159  12.198   4.563
58129W        W29800  28.093  35.376   1.580
58130W        W29801   0.387   7.606  12.003
58131W        W29802   9.427  19.991   3.600
58132W        W29803  31.340  36.090   3.940
58133W        W29804   0.776  39.552  13.550
58134W        W29805  36.452  19.569   0.671
58135W        W29806  24.499  18.197   0.225
58136W        W29807  11.694  33.484   4.180
58137W        W29808  34.930  32.003   0.277
58138W        W29809  13.704  15.762   2.659
58139W        W29810   2.979  12.656  14.775
58140W        W29811  42.839  31.879  13.468
58141W        W29812  17.549  40.174   4.154
58142W        W29813   7.816   2.353   1.847
58143W        W29814  38.310   8.395   3.244
58144W        W29815   7.973  36.931   3.708
58145W        W29816  31.915  23.251   1.000
58146W        W29817  31.124   0.130   0.280
58147W        W29818  28.081   5.621   3.367
58148W        W29819  24.633  28.375  13.282
58149W        W29820  21.112  39.059  10.235
58150W        W29821  33.597  24.937  10.649
58151W        W29822  14.754   9.052  14.992
58152W        W29823  18.116  28.075  11.362
58153W        W29824  30.000  27.180   4.770
58154W        W29825  16.054  33.098   2.493
58155W        W29826  22.610  15.517  10.196
58156W        W29827  26.937  11.628  12.149
58157W        W29828   3.444  36.877  13.356
58158W        W29829  23.242  32.455   4.015
58159W        W29830  33.537  22.480  14.768
58160W        W29831  10.029   2.510  13.829
58161W        W29832   7.915  12.295  13.432
58162W        W29833   8.693   2.547   0.950
58163W        W29834  32.849  20.521   0.232
58164W        W29835  10.140   7.861   1.341
58165W        W29836  15.687  15.721  10.278
58166W        W29837  34.706  30.099   4.153
58167W        W29838  11.278  40.524  12.607
58168W        W29839  43.902  40.434  10.200
58169W        W29840   4.285  28.150   3.019
58170W        W29841  40.954  43.290   1.509
58171W        W29842   3.046  32.139  12.114
58172W        W29843   6.593   3.836   4.569
58173W        W29844  11.390   9.496   4.289
58174W        W29845  37.609  21.101   1.497
58175W        W29846  30.341  41.582  13.881
58176W        W29847   7.774  41.849   4.899
58177W        W29848  26.907  23.572  12.521
58178W        W29849  40.712  17.191  12.075
58179W        W29850  10.351  12.865   2.609
58180W        W29851  35.691  41.047   1.098
58181W        W29852   6.634  15.593  11.569
58182W        W29853  22.520  17.579  13.925
58183W        W29854  11.701  33.109  14.825
58184W        W29855  39.380  43.905   0.205
58185W        W29856  22.529   7.727   2.267
58186W        W29857  44.884  19.835  10.208
58187W        W29858  38.437   6.228   4.563
58188W        W29859  20.624  38.993   5.022
58189W        W29860  21.623  27.446  12.965
58190W        W29861  15.645  10.156   1.007
58191W        W29862   1.466  11.725   3.591
58192W        W29863  14.689   4.455  10.786
58193W        W29864  11.778  28.587  13.070
58194W        W29865  23.782   3.249   0.737
58195W        W29866  31.436  24.503  13.074
58196W        W29867   1.943  36.916  10.782
58197W        W29868  29.471  28.611  14.964
58198W        W29869   2.908  16.725   1.210
58199W        W29870   9.363  28.361  10.972
58200W        W29871  11.314  38.755   1.802
58201W        W29872  19.263  27.627  11.019
58202W        W29873  19.775   5.607  12.423
58203W        W29874  31.731  30.611  12.973
58204W        W29875   5.585  15.270   1.713
58205W        W29876  20.500  21.132   4.624
58206W        W29877  41.687  15.080  11.998
58207W        W29878  19.086  43.763   1.694
58208W        W29879  41.464  17.387   0.665
58209W        W29880  16.589  35.185   9.992
58210W        W29881  35.999  32.302  11.575
58211W        W29882  38.037   5.838   1.339
58212W        W29883  23.747   8.889  13.598
58213W        W29884   6.095  20.717  10.606
58214W        W29885   4.646   4.711  14.724
58215W        W29886   2.132  30.502  13.515
58216W        W29887  14.461  17.830  11.992
58217W        W29888  27.129  37.408  13.454
58218W        W29889  29.084  25.598  12.004
58219W        W29890   0.466   3.886   1.130
58220W        W29891  19.103  15.031   0.474
58221W        W29892  23.813  16.234  11.179
58222W        W29893   3.018  43.318  12.684
58223W        W29894  42.794  32.963   4.171
58224W        W29895  40.564  34.458   0.436
58225W        W29896   5.310  34.563   4.565
58226W        W29897  20.759  26.702  11.142
58227W        W29898  15.560  10.842  13.737
58228W        W29899  22.532  40.547  10.694
58229W        W29900  16.230   6.373   3.143
58230W        W29901  25.533   7.721  14.715
58231W        W29902  13.373   8.173   1.895
58232W        W29903  16.638  22.614  12.172
58233W        W29904  33.337  36.382   2.245
58234W        W29905  15.074  16.217  14.474
58235W        W29906  43.504  32.906  10.618
58236W        W29907  14.608  37.130  14.638
58237W        W29908  15.601  26.908   1.383
58238W        W29909  36.852  44.860  11.521
58239W        W29910   4.482   3.670  10.448
58240W        W29911  42.796   7.286  14.267
58241W        W29912  28.488   6.706   2.298
58242W        W29913  36.898  34.372   4.551
58243W        W29914  12.209  23.189   3.416
58244W        W29915   8.146  16.154  10.470
58245W        W29916  32.104  18.066  12.910
58246W        W29917   8.242  10.316  13.449
58247W        W29918  15.732  41.445  12.328
58248W        W29919  11.640  38.560   3.366
58249W        W29920  26.421  39.003  14.448
58250W        W29921  40.110   9.362  13.478
58251W        W29922   5.483  32.127  14.760
58252W        W29923   6.932  32.937   4.601
58253W        W29924   9.471   9.411   4.141
58254W        W29925   1.588  39.268  13.018
58255W        W29926  23.740  31.889  14.461
58256W        W29927  23.670   0.351   1.917
58257W        W29928  32.496  39.327   1.254
58258W        W29929   4.665  37.949   1.470
58259W        W29930  29.961  40.411   3.623
58260W        W29931   7.833  41.484   3.251
58261W        W29932  33.830   0.925   2.137
58262W        W29933  30.350   2.316   1.784
58263W        W29934  20.577  42.531   3.603
58264W        W29935  11.497  30.491   2.202
58265W        W29936  21.519  22.560   3.367
58266W        W29937  23.737  43.468  11.558
58267W        W29938   8.891  24.491  13.854
58268W        W29939  21.319   9.056  11.377
58269W        W29940  29.903   1.346   1.305
58270W        W29941   9.313  35.520   3.614
58271W        W29942   5.836  18.561  12.795
58272W        W29943  43.067  41.395   1.258
58273W        W29944  40.693  39.245  13.839
58274W        W29945  24.327  22.791  13.891
58275W        W29946  20.132  29.977  12.875
58276W        W29947  40.978  35.778   4.102
58277W        W29948  11.669  23.732  10.057
58278W        W29949  24.484  24.897   4.025
58279W        W29950   8.767  40.874  12.037
58280W        W29951  27.708  16.174   2.794
58281W        W29952   5.043  10.257  13.601
58282W        W29953  15.628  22.976  13.785
58283W        W29954   7.232  27.633   4.653
58284W        W29955   7.066  30.437   1.398
58285W        W29956  40.056  26.590   3.269
58286W        W29957  43.182  33.529  12.451
58287W        W29958   8.133   0.467   1.429
58288W        W29959  31.383  19.129   4.642
58289W        W29960  13.562  31.143   0.873
58290W        W29961   9.882  43.514   0.515
58291W        W29962  32.962  18.009   2.756
58292W        W29963  19.031  11.299  10.229
58293W        W29964  21.308  35.747   4.769
58294W        W29965  32.763  41.973  12.265
58295W        W29966  17.823   9.294   1.416
58296W        W29967  20.171  37.101  13.129
58297W        W29968  25.914  10.817   1.748
58298W        W29969  38.361   4.256   4.675
58299W        W29970  32.126  10.693   2.517
58300W        W29971  15.703  38.656   4.879
58301W        W29972  16.279  30.594   4.512
58302W        W29973  22.471  28.165  14.529
58303W        W29974  30.187  40.928   4.778
58304W        W29975  14.153  31.276   2.773
58305W        W29976  36.441   6.138  12.743
58306W        W29977   1.386  35.364  11.797
58307W        W29978   5.253  10.786  12.019
58308W        W29979  26.284  12.828   4.152
58309W        W29980  33.975   4.028   3.792
58310W        W29981   4.886  18.725  12.576
58311W        W29982  11.984  24.193  14.232
58312W        W29983  34.070  23.184  14.436
58313W        W29984  21.403   3.170   1.815
58314W        W29985   8.391  26.551   3.277
58315W        W29986   9.138   4.464   4.102
58316W        W29987  10.117  37.376   1.692
58317W        W29988   2.217  44.455   2.315
58318W        W29989  25.574   4.841   1.704
58319W        W29990  41.459  44.004  14.382
58320W        W29991   0.500  31.828   1.826
58321W        W29992  17.198  32.955   2.827
58322W        W29993  20.762  28.092   1.418
58323W        W29994  17.534  22.116  12.840
58324W        W29995   8.774  32.896   4.497
58325W        W29996  15.648  39.012  14.502
58326W        W29997  34.869  29.028   1.739
58327W        W29998   4.744  11.669   1.038
58328W        W29999  31.410  31.032  11.130
58329W        W30000  29.181  42.258   0.503
58330W        W30001  22.996   4.189   1.293
58331W        W30002  16.611  11.106   4.331
58332W        W30003  19.109  20.609   2.794
58333W        W30004  34.869   4.895   3.223
58334W        W30005  41.502  12.518   0.258
58335W        W30006  40.312  42.454  13.361
58336W        W30007  25.228  24.403  13.565
58337W        W30008  41.403  35.771  10.817
58338W        W30009  17.159  40.265  13.545
58339W        W30010  21.143  11.315   2.135
58340W        W30011   2.195  17.309   1.296
58341W        W30012  27.627  21.483  10.586
58342W        W30013   2.835  26.199   2.330
58343W        W30014  30.156  43.473  12.115
58344W        W30015  13.255   9.957   2.852
58345W        W30016   9.216  39.360  13.965
58346W        W30017  44.909   4.211   4.587
58347W        W30018   1.141  32.424  13.828
58348W        W30019   9.165   4.940   3.140
58349W        W30020  41.781  16.324  12.596
58350W        W30021  10.431  21.792   1.792
58351W        W30022   1.084  37.531   1.231
58352W        W30023   3.722  33.434  10.697
58353W        W30024  30.401  22.049  12.019
58354W        W30025  19.605  32.438   4.143
58355W        W30026  25.959  24.190   4.849
58356W        W30027  12.986  16.179   3.796
58357W        W30028  26.315   4.600   2.746
58358W        W30029   2.602  22.521  11.534
58359W        W30030  18.675  30.530   4.692
58360W        W30031  29.144  21.757   4.121
58361W        W30032   3.062  32.138  12.934
58362W        W30033   7.904  16.865  13.426
58363W        W30034  33.150  17.337  10.747
58364W        W30035  43.804  38.576  11.124
58365W        W30036   9.959  19.027  14.543
58366W        W30037   5.216  38.379   2.775
58367W        W30038  29.787  10.817   4.323
58368W        W30039  22.102  22.113   0.350
58369W        W30040   6.361  44.448   0.672
58370W        W30041  14.635  23.156   4.062
58371W        W30042  22.616  33.948   2.326
58372W        W30043   9.847  22.511   2.764
58373W        W30044   7.148  35.159  10.765
58374W        W30045   7.823  13.230  14.296
58375W        W30046   5.662  18.161  14.609
58376W        W30047  44.702  43.444  14.772
58377W        W30048  15.151   3.733  12.376
58378W        W30049  20.929  40.880   0.563
58379W        W30050  21.548  33.203   4.645
58380W        W30051   5.826  40.585   2.772
58381W        W30052  39.887  41.489  13.806
58382W        W30053   7.214  27.013  12.942
58383W        W30054   9.751  25.857   0.391
58384W        W30055   9.837  10.408  11.699
58385W        W30056  27.492  15.682  14.500
58386W        W30057   9.177  19.086  14.068
58387W        W30058   8.250   8.641  10.729
58388W        W30059  37.477  33.064   2.825
58389W        W30060  38.353  14.850   1.762
58390W        W30061  19.266  17.101  10.736
58391W        W30062  11.407  40.461   0.352
58392W        W30063  39.347  20.743   0.419
58393W        W30064  40.970  25.591   4.540
58394W        W30065   6.324  29.664   2.805
58395W        W30066  11.884  21.972   2.533
58396W        W30067  40.268  20.838   0.383
58397W        W30068  36.393  14.329   2.376
58398W        W30069  19.615  41.789  11.036
58399W        W30070   2.471  27.447   1.197
58400W        W30071  19.205  20.971   3.152
58401W        W30072  44.839  18.249   1.733
58402W        W30073  30.198  15.152   4.010
58403W        W30074   4.515  16.240   1.733
58404W        W30075  31.201  19.854  13.351
58405W        W30076  42.037  32.324  12.551
58406W        W30077   9.514   0.164   1.422
58407W        W30078   3.405  15.022   2.366
58408W        W30079   0.870  16.571  12.987
58409W        W30080  29.209  11.327  11.392
58410W        W30081  34.149  28.644   2.447
58411W        W30082  21.937  19.839  13.469
58412W        W30083   5.310  35.843   4.108
58413W        W30084  35.901  13.924  14.905
58414W        W30085  26.541  40.965   4.787
58415W        W30086   0.835  40.443  12.978
58416W        W30087  18.826   7.164   3.910
58417W        W30088  38.523  27.478   2.625
58418W        W30089  44.065  41.833  11.523
58419W        W30090  27.570   4.737  13.288
58420W        W30091  39.531  23.023   0.230
58421W        W30092   0.383  40.857  13.390
58422W        W30093  23.012  42.964  13.810
58423W        W30094  31.431  38.747   4.244
58424W        W30095  41.241  21.779  14.019
58425W        W30096  22.795  18.076  10.662
58426W        W30097   8.762  40.824  14.644
58427W        W30098  11.825  35.388   2.287
58428W        W30099  20.256  19.421   3.199
58429W        W30100   5.359   8.878   2.226
58430W        W30101  14.574  41.834  11.609
58431W        W30102  21.208   6.982  13.366
58432W        W30103   4.780  15.309   1.406
58433W        W30104   6.938   4.323   3.283
58434W        W30105  18.532  37.833   0.161
58435W        W30106  30.614   0.928  12.234
58436W        W30107  30.402  18.168  11.189
58437W        W30108  16.329  37.064   3.315
58438W        W30109  33.026  20.260  10.476
58439W        W30110  22.921  22.054   3.437
58440W        W30111  17.556  36.203   1.362
58441W        W30112   9.739  20.272  13.084
58442W        W30113   7.682  16.564   1.958
58443W        W30114  10.650  29.200  14.330
58444W        W30115  32.314  43.758  14.468
58445W        W30116  26.613  26.684   2.110
58446W        W30117  32.054  43.764  12.395
58447W        W30118  35.099  27.939  11.119
58448W        W30119  16.125   9.804  12.503
58449W        W30120   6.164  31.920  10.758
58450W        W30121  39.201  10.337  13.062
58451W        W30122  17.374  42.097  13.610
58452W        W30123   8.377   9.277   1.943
58453W        W30124  43.753  15.265  12.899
58454W        W30125  34.468  44.142  11.903
58455W        W30126  20.702  36.779  11.335
58456W        W30127   4.933  43.421  11.992
58457W        W30128   6.216  23.050  13.352
58458W        W30129   2.112   7.814  11.561
58459W        W30130  18.597   7.806   1.679
58460W        W30131   9.095  27.618   4.861
58461W        W30132  29.737  16.753  12.972
58462W        W30133  37.896  44.368  11.887
58463W        W30134  35.433  18.618   4.315
58464W        W30135  20.494  24.068  13.873
58465W        W30136  29.013  31.075  14.996
58466W        W30137  24.626  26.581  11.575
58467W        W30138  44.499   5.973   3.364
58468W        W30139  27.408  10.364  10.689
58469W        W30140  30.946  34.183  11.032
58470W        W30141   4.495  28.995  13.411
58471W        W30142   0.225   4.944   0.770
58472W        W30143  43.331  33.897  12.994
58473W        W30144  37.539  14.403   2.804
58474W        W30145  20.655  22.224  10.711
58475W        W30146  40.167  20.647  14.777
58476W        W30147  18.531  27.582  14.067
58477W        W30148  28.622  26.134  11.567
58478W        W30149  41.657   5.676  13.135
58479W        W30150  37.708   6.845  14.318
58480W        W30151  22.141  25.897   3.145
58481W        W30152   7.792  30.632   2.789
58482W        W30153   6.431  25.619   2.769
58483W        W30154  42.229  43.349   2.614
58484W        W30155  18.368  23.177  11.999
58485W        W30156  10.227  41.967   0.467
58486W        W30157  34.606  35.455  12.685
58487W        W30158  19.735  16.182  13.980
58488W        W30159  31.559  42.833   0.180
58489W        W30160  44.853  36.022   3.529
58490W        W30161   3.000   3.219  14.740
58491W        W30162  24.727   1.471  14.372
58492W        W30163  18.762  41.890  13.594
58493W        W30164  18.124  28.926  14.364
58494W        W30165  18.514   2.654   2.737
58495W        W30166   5.823  39.566  12.412
58496W        W30167  37.793  42.765   3.535
58497W        W30168  10.116   5.328   3.363
58498W        W30169   3.777   5.938   3.716
58499W        W30170  26.644  16.443  13.491
58500W        W30171   9.803   7.234  12.477
58501W        W30172  42.591  39.331   0.837
58502W        W30173  21.004  42.549  13.340
58503W        W30174  31.911   1.336   1.952
58504W        W30175  11.331   2.964  10.892
58505W        W30176  17.003  31.162   3.208
58506W        W30177  36.398  13.688  14.948
58507W        W30178   7.555  12.377  13.780
58508W        W30179  16.757  11.277   3.448
58509W        W30180  18.020  12.144  11.202
58510W        W30181  27.776   9.642  10.980
58511W        W30182  26.166  11.140  13.334
58512W        W30183  13.377  11.825  12.507
58513W        W30184  10.342  37.002   3.375
58514W        W30185   4.934  10.019   5.074
58515W        W30186  22.176  40.923  14.820
58516W        W30187  19.627  43.262  14.822
58517W        W30188  24.788  28.998   2.826
58518W        W30189  33.324  15.653   3.428
58519W        W30190  28.162  33.919   0.010
58520W        W30191  25.608  14.930  11.268
58521W        W30192  31.026  37.335   5.353
58522W        W30193  26.305  33.917   0.525
58523W        W30194   3.967  17.157  10.523
58524W        W30195  24.538   2.968   0.397
58525W        W30196   1.799  16.504  13.769
58526W        W30197   7.229  23.226  14.028
58527W        W30198  18.101  37.705   3.490
58528W        W30199   9.221   8.869  10.726
58529W        W30200  41.082  44.188   4.193
58530W        W30201  22.022  22.178   4.582
58531W        W30202   2.995   7.462  10.622
58532W        W30203  25.086   5.439   0.412
58533W        W30204   9.311  43.752  13.982
58534W        W30205   6.727  25.765  12.983
58535W        W30206   1.045   6.318  12.850
58536W        W30207  29.664  24.975   4.320
58537W        W30208  26.077   9.276   1.928
58538W        W30209   7.848  14.841   0.328
58539W        W30210  35.420  12.355   0.744
58540W        W30211   7.464  34.745  13.080
58541W        W30212  29.941  38.390  13.534
58542W        W30213   6.977   9.159   4.224
58543W        W30214  13.412  17.034  10.724
58544W        W30215   0.866  21.860   4.099
58545W        W30216  20.580  32.487   3.220
58546W        W30217   3.350  23.780  11.256
58547W        W30218  25.186  18.232  14.781
58548W        W30219  27.906  32.833  12.004
58549W        W30220  39.719  19.230   0.904
58550W        W30221  43.986  29.346   4.130
58551W        W30222  42.326  12.100  12.048
58552W        W30223  28.122   6.819   3.327
58553W        W30224  22.495  31.050   0.069
58554W        W30225  12.735  41.054   2.056
58555W        W30226  31.052  32.504  13.176
58556W        W30227  23.230  35.880   1.883
58557W        W30228  34.387  39.934   0.489
58558W        W30229   8.722  11.176  11.479
58559W        W30230  11.073  29.721  11.112
58560W        W30231  24.149  42.970  12.481
58561W        W30232  11.508  15.789  13.506
58562W        W30233  14.278  18.496  11.586
58563W        W30234  12.170  24.106   3.845
58564W        W30235  24.522   9.413   1.748
58565W        W30236  40.531  41.287  12.104
58566W        W30237  23.394  32.663   1.430
58567W        W30238  13.887  19.656  14.377
58568W        W30239   7.159  33.837  14.233
58569W        W30240   3.440   7.741   1.905
58570W        W30241  35.111   2.678   3.427
58571W        W30242  28.880  21.938  11.127
58572W        W30243  29.518  35.090   2.273
58573W        W30244  10.192  12.069   3.661
58574W        W30245  42.805  26.110  13.881
58575W        W30246  26.062  10.724  11.534
58576W        W30247   8.788  42.437   4.644
58577W        W30248  22.311   4.825   3.451
58578W        W30249   0.945   1.708  11.159
58579W        W30250   5.924  24.474   2.743
58580W        W30251  27.423  36.258  11.567
58581W        W30252  30.567  41.001   2.692
58582W        W30253  37.390  19.586  14.343
58583W        W30254  23.464  14.610  12.097
58584W        W30255   4.432  44.745   1.932
58585W        W30256   1.823  10.852  10.462
58586W        W30257  28.881  41.045  12.494
58587W        W30258  39.328  37.621   2.384
58588W        W30259  31.734   9.876   2.338
58589W        W30260  31.907   5.698   0.142
58590W        W30261  40.836  32.890  14.264
58591W        W30262   0.332  23.056   3.742
58592W        W30263   8.478  18.667   3.216
58593W        W30264  17.972  33.379   1.324
58594W        W30265  25.907   4.756  12.592
58595W        W30266   6.404  35.602   5.042
58596W        W30267  27.205   4.772   3.938
58597W        W30268  44.305  23.588   1.190
58598W        W30269   4.247  25.062  11.712
58599W        W30270   7.735  43.338  10.740
58600W        W30271  19.895  21.226  14.865
58601W        W30272  33.313  36.950  11.974
58602W        W30273  19.733  31.620  14.015
58603W        W30274  20.331  40.315  11.067
58604W        W30275   7.767   2.919   5.001
58605W        W30276  19.660  35.359  10.678
58606W        W30277  13.435   6.393  14.005
58607W        W30278   8.410  10.663   3.832
58608W        W30279  33.003   6.816  11.392
58609W        W30280  34.382  37.069   1.819
58610W        W30281  33.801  37.957   0.169
58611W        W30282  11.148  37.636  14.724
58612W        W30283  42.563  36.599  13.505
58613W        W30284   5.815  25.974   4.136
58614W        W30285  15.890  33.048  11.152
58615W        W30286  15.043  10.621   3.136
58616W        W30287  32.601   3.762  14.227
58617W        W30288  12.653  30.605  12.476
58618W        W30289  43.121  33.410   1.455
58619W        W30290  13.702  14.267  11.424
58620W        W30291  17.007  38.386   2.915
58621W        W30292  11.065  17.232   3.688
58622W        W30293  30.575  19.665  13.933
58623W        W30294  13.573   0.610  14.374
58624W        W30295  18.706   7.669  11.611
58625W        W30296  16.169  29.392   4.013
58626W        W30297   8.833  39.863  12.210
58627W        W30298  29.547  40.486  11.434
58628W        W30299  16.493  20.699  11.196
58629W        W30300  37.067  23.708  12.309
58630W        W30301  27.111  20.136   2.926
58631W        W30302   9.401  34.353   1.478
58632W        W30303  15.823  22.242  12.581
58633W        W30304  41.993  22.061  11.047
58634W        W30305   6.661  30.815   0.389
58635W        W30306  11.365  21.474  13.935
58636W        W30307   5.289  29.584   2.727
58637W        W30308  44.434  17.768   1.667
58638W        W30309  36.073  38.381   4.576
58639W        W30310  44.150  15.008   5.081
58640W        W30311  37.954   2.673   1.163
58641W        W30312  23.949   3.689  14.092
58642W        W30313  17.361  36.601   3.611
58643W        W30314  29.604  22.523  14.420
58644W        W30315  12.910  25.612   0.885
58645W        W30316   3.640   5.383  11.579
58646W        W30317  43.509  16.251  12.404
58647W        W30318   9.431  39.139  14.872
58648W        W30319   1.991  30.980  12.066
58649W        W30320  28.856  26.196  13.754
58650W        W30321  12.348  19.797   0.950
58651W        W30322  32.327  29.441   2.797
58652W        W30323   1.312   4.772   4.817
58653W        W30324  37.993  40.414  14.219
58654W        W30325  14.695  13.652  10.726
58655W        W30326   3.855  36.981  12.061
58656W        W30327  39.488  10.340   1.888
58657W        W30328  18.820  28.711   3.733
58658W        W30329  42.371  29.999  10.557
58659W        W30330  33.475  14.535  13.073
58660W        W30331  16.338   3.852  14.046
58661W        W30332  37.906   7.535  11.721
58662W        W30333  29.043  14.909   3.084
58663W        W30334   1.526  43.867   2.422
58664W        W30335   2.179  38.331  13.011
58665W        W30336  30.174   1.822   1.915
58666W        W30337  40.923   5.362  12.687
58667W        W30338  29.022  22.430  11.229
58668W        W30339   7.299  21.569   0.587
58669W        W30340  37.444  14.165   2.321
58670W        W30341  18.212  31.616   2.749
58671W        W30342  12.341  28.518   4.522
58672W        W30343  10.171  17.737   4.379
58673W        W30344  43.745  31.007   3.168
58674W        W30345  15.314   8.685   2.268
58675W        W30346  37.606  25.925  11.988
58676W        W30347  22.614  25.671  13.431
58677W        W30348  28.210   4.482  11.602
58678W        W30349  42.042  14.164   1.835
58679W        W30350   4.832  20.505   2.878
58680W        W30351  26.716  17.993   4.526
58681W        W30352  15.187  20.525   4.532
58682W        W30353  35.400  37.549   3.626
58683W        W30354  39.333  21.199  10.970
58684W        W30355  43.005  11.299   4.006
58685W        W30356  16.890   9.632   4.044
58686W        W30357  17.408  27.950  14.932
58687W        W30358  18.742  24.418   3.411
58688W        W30359  37.730  30.358   4.049
58689W        W30360  20.186  40.224   4.986
58690W        W30361  39.064  29.637   0.821
58691W        W30362  30.364  41.926  12.970
58692W        W30363  29.435  20.093  14.904
58693W        W30364  30.834   9.268  12.525
58694W        W30365   8.886  31.520  14.535
58695W        W30366   1.858  23.098   2.794
58696W        W30367  21.743  16.780   0.822
58697W        W30368   7.854   3.781  13.441
58698W        W30369   2.350   6.099  10.791
58699W        W30370  18.848  31.345  12.075
58700W        W30371  44.355  33.378   4.140
58701W        W30372  38.511  26.913  11.616
58702W        W30373  44.929  27.430  13.878
58703W        W30374  12.615  41.864  10.601
58704W        W30375  27.596  20.051  10.710
58705W        W30376   4.907  30.299   5.072
58706W        W30377  22.719  21.321   0.350
58707W        W30378  27.505  23.586  12.995
58708W        W30379   7.408  29.187  12.911
58709W        W30380  17.117  20.043   4.065
58710W        W30381  36.141  27.585  14.459
58711W        W30382   0.829  23.919  14.942
58712W        W30383  29.147  32.362   0.590
58713W        W30384   6.581  44.296   2.011
58714W        W30385   8.615   9.722  11.501
58715W        W30386  33.856   2.809  11.589
58716W        W30387  28.718  20.623  12.827
58717W        W30388  16.142   4.668   0.427
58718W        W30389  20.523  16.026   0.923
58719W        W30390  27.871  20.672  11.021
58720W        W30391   3.749  40.772   3.721
58721W        W30392  16.313  24.455   0.518
58722W        W30393   4.876   4.180   0.766
58723W        W30394  35.930   1.802   3.387
58724W        W30395  38.048  11.894  12.948
58725W        W30396  27.623  34.044   4.903
58726W        W30397  19.505   0.670   1.413
58727W        W30398  27.335  29.222  11.866
58728W        W30399  22.025  27.790   2.761
58729W        W30400  36.336  25.437  12.901
58730W        W30401  22.301  18.499   0.865
58731W        W30402   5.285  37.562   0.898
58732W        W30403  17.127  21.013   1.855
58733W        W30404  31.078  29.905  14.132
58734W        W30405  13.735  32.570  14.806
58735W        W30406  18.909  17.177   1.809
58736W        W30407   7.577  21.047  10.364
58737W        W30408  20.763  31.719  11.051
58738W        W30409  20.632  38.100   1.854
58739W        W30410   9.845  23.729   4.081
58740W        W30411  10.243  12.008  14.945
58741W        W30412  43.351   2.932   1.366
58742W        W30413  37.267  29.862  13.432
58743W        W30414  14.080  16.001  14.280
58744W        W30415  37.250   9.498   1.200
58745W        W30416   2.070  27.060  14.096
58746W        W30417  41.630  20.917  10.576
58747W        W30418  21.077   0.761   4.537
58748W        W30419   4.805   5.136  13.771
58749W        W30420  23.590  23.281  12.953
58750W        W30421  42.968   8.120  11.502
58751W        W30422  25.998  27.399  14.939
58752W        W30423   2.224  30.060   4.440
58753W        W30424   0.848  33.063   3.013
58754W        W30425   0.558  25.950  14.331
58755W        W30426  28.862   2.840  13.374
58756W        W30427  39.280   4.376  12.430
58757W        W30428  23.077  24.028  11.209
58758W        W30429  15.290  28.921   2.717
58759W        W30430  16.382  15.722   1.919
58760W        W30431  25.108   5.311  12.636
58761W        W30432  34.952  36.416  11.944
58762W        W30433  36.418   6.418   1.335
58763W        W30434  11.180  44.377   0.858
58764W        W30435   8.124   2.443   4.626
58765W        W30436  25.892   9.125  10.675
58766W        W30437   0.694  29.334  10.153
58767W        W30438  20.428  29.203   1.763
58768W        W30439  30.727  30.428   2.602
58769W        W30440   5.363  23.624  14.443
58770W        W30441  38.078  31.983   0.814
58771W        W30442  22.436  20.271   4.543
58772W        W30443  28.716   8.350  11.580
58773W        W30444   6.225  44.717   4.760
58774W        W30445  19.802  24.640  13.770
58775W        W30446  36.062  18.156  11.608
58776W        W30447   9.172  44.384  10.662
58777W        W30448  26.615  10.473   1.712
58778W        W30449  35.441  11.278  14.012
58779W        W30450   6.197  43.060   3.609
58780W        W30451  19.843  14.140  13.292
58781W        W30452  40.506  23.953  12.343
58782W        W30453   0.950   2.729  14.476
58783W        W30454   0.052  21.552   0.788
58784W        W30455   5.200  24.737   3.092
58785W        W30456   1.742  42.407   0.748
58786W        W30457  33.522  15.337   4.288
58787W        W30458  14.687   7.869  10.878
58788W        W30459  43.931  22.266  14.372
58789W        W30460   4.172   1.228   1.756
58790W        W30461   3.547  25.585   2.857
58791W        W30462  19.067  39.981  13.757
58792W        W30463  37.006   6.339   3.833
58793W        W30464   7.740  15.675  13.829
58794W        W30465  24.543  12.363   4.097
58795W        W30466   3.382  17.492  14.249
58796W        W30467  40.598  21.186  10.206
58797W        W30468  18.334  11.773   4.058
58798W        W30469  23.794   8.670   2.847
58799W        W30470  30.165  44.759  11.549
58800W        W30471  24.041   6.155  13.852
58801W        W30472  27.970  42.522  13.607
58802W        W30473  43.963  18.500  10.595
58803W        W30474   4.181  27.070  10.671
58804W        W30475  37.527  25.087  12.338
58805W        W30476   3.216   6.539  12.942
58806W        W30477  13.686  26.241   2.805
58807W        W30478  13.216   4.879  14.260
58808W        W30479  24.678  37.925  11.948
58809W        W30480   0.499  33.803   4.686
58810W        W30481  28.452  24.976  14.006
58811W        W30482   9.802  41.981  13.955
58812W        W30483  30.315  39.347   0.850
58813W        W30484  28.655  13.532   2.893
58814W        W30485  44.460  11.211   2.621
58815W        W30486  31.540  44.249  14.597
58816W        W30487  30.152   4.115  12.627
58817W        W30488  34.868  20.085   2.967
58818W        W30489  11.348   8.567   3.984
58819W        W30490  32.474  14.193   0.524
58820W        W30491  22.159  23.673  10.758
58821W        W30492  32.649   6.418  11.570
58822W        W30493   8.639  26.140  13.094
58823W        W30494  33.577  19.629  10.473
58824W        W30495  24.302  38.705   3.792
58825W        W30496  44.389   2.947   4.877
58826W        W30497  19.397  43.379   2.102
58827W        W30498  44.349  10.164  12.096
58828W        W30499  33.631  17.150  11.459
58829W        W30500  12.830  13.067   4.605
58830W        W30501  21.407  19.456   2.182
58831W        W30502  12.637  40.819  10.780
58832W        W30503  35.075   5.234  10.539
58833W        W30504   5.354  32.860  11.196
58834W        W30505  29.002  14.602  12.054
58835W        W30506   0.883  39.487  10.583
58836W        W30507  41.263  34.549  11.041
58837W        W30508   1.440  18.717  11.972
58838W        W30509  10.529  13.597   0.712
58839W        W30510  42.283   1.875   1.353
58840W        W30511  22.841  25.530   4.613
58841W        W30512  32.417   8.164  11.811
58842W        W30513  36.843  26.201  11.665
58843W        W30514  23.661   4.747  14.780
58844W        W30515  29.412  24.081   1.776
58845W        W30516  11.843   5.490   1.334
58846W        W30517  19.975  24.050  12.015
58847W        W30518   2.545  14.565  10.650
58848W        W30519   6.106   9.045  12.108
58849W        W30520  14.665  18.707   2.614
58850W        W30521  40.316  27.047   0.963
58851W        W30522   1.762  40.014   2.342
58852W        W30523  12.328  22.596  12.333
58853W        W30524  25.540   4.488  11.215
58854W        W30525  20.293  13.057   2.802
58855W        W30526  43.873  33.940  10.808
58856W        W30527  31.429   2.910  14.103
58857W        W30528   6.466  18.860   3.570
58858W        W30529  20.705  18.588   2.715
58859W        W30530   3.143  32.405   3.794
58860W        W30531   5.689  19.265   2.256
58861W        W30532   3.416   6.296   3.635
58862W        W30533  15.167  25.239   3.659
58863W        W30534  36.061  33.362  13.496
58864W        W30535  32.887  35.981  11.162
58865W        W30536  14.697  15.459   2.302
58866W        W30537  18.504  33.186  14.458
58867W        W30538  42.030   3.910  11.109
58868W        W30539  34.074   8.177   1.411
58869W        W30540  20.120  10.972   5.017
58870W        W30541   5.149  31.946   2.122
58871W        W30542  24.276   2.989   2.585
58872W        W30543  22.498  43.712  11.927
58873W        W30544  29.053   2.697  14.507
58874W        W30545   0.730  42.288   1.375
58875W        W30546  21.139  38.407  11.624
58876W        W30547   5.325  28.072  10.841
58877W        W30548   6.758  37.811   1.609
58878W        W30549  25.476  12.790   9.891
58879W        W30550  35.932  27.038  10.556
58880W        W30551  11.960   0.343   4.055
58881W        W30552  10.142  44.815   2.157
58882W        W30553  21.678   0.225  14.909
58883W        W30554  26.733  32.255  11.294
58884W        W30555   0.442  40.280  12.635
58885W        W30556  15.203  40.030   2.799
58886W        W30557  29.849  42.997   4.677
58887W        W30558  16.293  42.229   1.725
58888W        W30559  20.880  31.043  14.685
58889W        W30560   6.433  30.619   2.492
58890W        W30561  40.477  34.971  13.341
58891W        W30562  17.943  25.945   4.196
58892W        W30563  39.535  10.170  11.681
58893W        W30564   9.251  30.856   0.425
58894W        W30565  28.225   0.193  14.358
58895W        W30566  19.507  15.246   5.444
58896W        W30567   3.201  31.097  10.703
58897W        W30568  11.190   9.674  12.858
58898W        W30569  20.938  13.339   2.202
58899W        W30570  43.387  38.848   4.687
58900W        W30571  31.185  31.629   4.386
58901W        W30572  38.604  19.068  13.930
58902W        W30573  30.854  11.303   3.278
58903W        W30574  32.885  28.687   2.759
58904W        W30575  11.608  26.594   2.808
58905W        W30576  16.720   1.244   2.270
58906W        W30577  26.679   7.239   2.193
58907W        W30578  41.306   3.017  13.427
58908W        W30579  39.336  36.370   0.883
58909W        W30580  34.659  17.565   2.230
58910W        W30581  31.526   6.016   2.227
58911W        W30582  35.560  42.792   2.767
58912W        W30583  15.363  31.577  13.926
58913W        W30584  23.507  26.205   1.304
58914W        W30585   3.345  27.636  11.587
58915W        W30586   2.801  14.115  12.397
58916W        W30587  34.657  38.027  10.945
58917W        W30588   9.739  34.186  11.937
58918W        W30589  27.270  17.681   1.295
58919W        W30590  33.034  33.131  12.368
58920W        W30591  23.707  21.020  11.284
58921W        W30592  32.178  32.896  11.099
58922W        W30593  35.888  32.075   5.032
58923W        W30594  37.949  36.384   0.434
58924W        W30595  15.129  26.114   4.374
58925W        W30596  34.625   2.394  13.132
58926W        W30597   0.906  25.586  12.471
58927W        W30598  16.099   1.365   1.121
58928W        W30599   8.681  44.819   1.948
58929W        W30600   8.919  17.265   4.158
58930W        W30601  31.084  28.543   0.885
58931W        W30602  32.595   9.651   3.287
58932W        W30603  17.085  42.486  14.354
58933W        W30604  13.345  18.088   4.765
58934W        W30605  10.225   8.723  11.560
58935W        W30606  10.668  16.769  11.113
58936W        W30607  44.807  18.486  11.563
58937W        W30608  14.305  14.723  11.469
58938W        W30609  36.580   3.723   3.308
58939W        W30610  26.714  27.775   4.068
58940W        W30611  15.664   6.218  13.034
58941W        W30612  30.953  38.984  13.061
58942W        W30613  35.012  25.093  14.272
58943W        W30614  13.737  32.331  14.317
58944W        W30615   7.373   2.530   1.627
58945W        W30616   0.978  23.362  13.855
58946W        W30617  28.748  24.446   1.931
58947W        W30618  11.225   8.854  11.997
58948W        W30619  38.725  14.136   0.845
58949W        W30620  32.602  39.391   3.029
58950W        W30621  13.838  12.416  12.984
58951W        W30622  40.878  38.845  11.169
58952W        W30623   4.260   2.350  12.404
58953W        W30624  25.665   8.254   3.136
58954W        W30625  15.269   8.813   0.091
58955W        W30626  11.338   0.013  14.247
58956W        W30627  14.120   7.420   3.178
58957W        W30628  43.034  39.888  13.643
58958W        W30629  20.976  11.998  13.502
58959W        W30630  36.842  18.734   4.332
58960W        W30631  33.861   8.946   3.072
58961W        W30632  35.525  36.511   5.371
58962W        W30633  36.059  43.636   2.807
58963W        W30634  39.468   1.136  12.481
58964W        W30635  44.667  22.569  12.417
58965W        W30636  40.904  27.258   2.266
58966W        W30637   1.342  41.437  14.770
58967W        W30638  12.145   6.188  13.570
58968W        W30639  26.396  36.152   0.466
58969W        W30640  12.283  44.957   3.211
58970W        W30641  25.007  38.864   2.145
58971W        W30642  35.165  37.943   2.768
58972W        W30643  12.221  23.799  14.994
58973W        W30644  42.887   8.625   4.283
58974W        W30645  35.459  35.779  12.787
58975W        W30646  36.709  10.763   2.825
58976W        W30647  31.658  10.813   2.302
58977W        W30648  20.259   3.658  11.468
58978W        W30649  15.713  39.356   2.229
58979W        W30650  35.080  34.130   4.156
58980W        W30651   3.518  21.285  12.900
58981W        W30652  32.281  30.741  11.793
58982W        W30653   8.321  30.144  13.610
58983W        W30654  27.175  37.567  11.526
58984W        W30655  27.702  35.024   1.516
58985W        W30656  16.866  40.939  13.009
58986W        W30657  22.022  18.571  12.980
58987W        W30658  14.874  36.046   4.295
58988W        W30659   9.674  12.648  11.886
58989W        W30660  19.646  36.967  11.101
58990W        W30661  14.246  13.108   2.341
58991W        W30662  30.919  43.151  11.148
58992W        W30663  34.756  35.104   4.574
58993W        W30664  37.512  33.226  11.638
58994W        W30665  44.693   7.487   4.500
58995W        W30666  30.968  40.449   1.254
58996W        W30667  37.946  41.138  14.518
58997W        W30668   4.972  44.953  11.364
58998W        W30669  38.992  13.512  10.833
58999W        W30670  15.828   0.907   4.151
59000W        W30671   5.559  29.925  11.659
59001W        W30672  32.143  31.830  11.832
59002W        W30673  38.574   8.378  13.378
59003W        W30674  26.100   7.935   5.121
59004W        W30675  14.785  34.463  10.342
59005W        W30676  20.182  42.592   0.880
59006W        W30677  36.532  13.161   3.889
59007W        W30678  27.982  44.823   2.124
59008W        W30679  42.024  36.932  11.272
59009W        W30680  43.726  23.091   5.023
59010W        W30681  31.981  14.768  10.917
59011W        W30682  12.180  10.331   4.366
59012W        W30683  20.784  41.256   0.176
59013W        W30684  29.099  28.940  10.622
59014W        W30685   9.003  18.209   2.524
59015W        W30686  31.735  17.110   1.608
59016W        W30687  28.653  43.681   1.827
59017W        W30688  31.683  32.961   4.638
59018W        W30689  42.946   2.328   1.843
59019W        W30690  33.797   1.130   2.610
59020W        W30691  43.419  33.219   2.255
59021W        W30692  32.917  44.647  13.862
59022W        W30693  14.539  29.889   0.870
59023W        W30694  18.596  19.341   1.308
59024W        W30695   5.403  29.023   4.111
59025W        W30696  21.229  41.142  12.063
59026W        W30697  10.646  43.745  13.102
59027W        W30698  12.830  19.146  10.755
59028W        W30699  13.805   2.754   4.881
59029W        W30700  15.959  34.815  13.585
59030W        W30701  44.968   9.116  11.515
59031W        W30702   6.335  42.258  12.600
59032W        W30703   6.909  32.093  14.926
59033W        W30704   6.308   7.366   3.818
59034W        W30705  12.214  21.109   4.078
59035W        W30706  29.390  19.357  14.457
59036W        W30707  14.605   8.293   1.286
59037W        W30708  11.886   4.922   2.437
59038W        W30709   4.389  17.581   0.698
59039W        W30710   1.049   4.663  14.926
59040W        W30711  31.370   0.484  10.806
59041W        W30712  36.964   1.391   0.530
59042W        W30713  12.994  34.923   2.855
59043W        W30714  11.782  37.034  12.304
59044W        W30715   5.776  31.579  11.974
59045W        W30716   6.228   1.494  13.734
59046W        W30717  32.061   5.494   3.326
59047W        W30718  42.793  13.069  11.981
59048W        W30719  43.182   8.640  10.691
59049W        W30720  25.648  11.220   3.164
59050W        W30721  34.017  21.160  14.526
59051W        W30722  41.824   3.389  14.554
59052W        W30723   7.386   3.343  13.934
59053W        W30724  38.847  33.417  12.960
59054W        W30725  13.611   7.423  14.989
59055W        W30726  17.750  16.320   2.703
59056W        W30727  35.041  13.521   0.932
59057W        W30728   3.141  40.339  12.805
59058W        W30729  28.841   0.058  14.305
59059W        W30730   2.324  43.543  14.934
59060W        W30731  16.240  29.665  13.801
59061W        W30732  36.694   2.255  12.886
59062W        W30733  29.670  31.586  13.993
59063W        W30734  28.886  21.161   2.765
59064W        W30735  38.102  15.692   4.317
59065W        W30736  22.979  25.052   3.193
59066W        W30737  31.196   5.859   2.759
59067W        W30738  22.664  22.378  13.055
59068W        W30739   8.744  31.150   2.810
59069W        W30740  41.513  19.041   4.191
59070W        W30741  43.981  17.693   2.055
59071W        W30742  42.406  12.788  13.341
59072W        W30743  20.631  40.588   4.978
59073W        W30744  39.502  30.477  10.609
59074W        W30745  43.470  30.068  13.068
59075W        W30746  35.864  27.674   3.774
59076W        W30747  40.514   5.259  11.067
59077W        W30748  33.924   5.278   0.717
59078W        W30749  21.023   8.281  13.913
59079W        W30750  16.867  31.527   2.264
59080W        W30751  41.867  33.156   1.926
59081W        W30752  19.166  40.058   0.302
59082W        W30753  20.152  14.211  12.871
59083W        W30754  26.180   7.330  11.924
59084W        W30755  35.337  39.557   3.158
59085W        W30756  22.700  35.087  11.890
59086W        W30757  36.166  11.685   3.625
59087W        W30758  15.817  13.711  11.507
59088W        W30759  27.998  41.490   2.912
59089W        W30760   5.547  16.682   1.059
59090W        W30761   8.995   3.193   0.378
59091W        W30762  26.556  22.937  12.333
59092W        W30763  18.229   5.314   0.417
59093W        W30764  17.310  37.588   3.697
59094W        W30765   9.772   7.995   2.175
59095W        W30766  31.033   7.758   3.117
59096W        W30767  34.641  19.830  11.451
59097W        W30768  21.821  15.472  14.204
59098W        W30769  21.478  10.283  10.598
59099W        W30770  25.193  31.389   2.922
59100W        W30771   0.319  21.618   4.942
59101W        W30772   4.370  15.062   2.317
59102W        W30773   5.425  14.676   2.943
59103W        W30774  16.159  16.760   0.070
59104W        W30775  30.508   3.920  11.583
59105W        W30776  30.530  30.718  14.020
59106W        W30777  16.012  18.635   1.626
59107W        W30778  26.635  33.579  13.201
59108W        W30779  26.906   3.834   3.300
59109W        W30780  18.160  11.262  10.153
59110W        W30781  29.528  18.249   2.868
59111W        W30782  37.153  43.235   2.467
59112W        W30783  17.669  22.385   2.155
59113W        W30784   7.354  11.040   3.658
59114W        W30785   1.767  44.299   4.829
59115W        W30786  21.122  31.107   1.946
59116W        W30787   9.132  24.147  11.696
59117W        W30788  13.778  16.387   1.320
59118W        W30789   5.704  36.829  13.364
59119W        W30790   9.666  35.056  11.216
59120W        W30791  13.184  42.026  10.705
59121W        W30792   0.556  31.871   4.167
59122W        W30793  38.457  18.632   2.334
59123W        W30794  13.617  12.587  11.607
59124W        W30795  28.188  31.538  12.877
59125W        W30796  12.205  14.349   4.502
59126W        W30797  40.225  29.591   4.079
59127W        W30798   1.714  25.067   1.288
59128W        W30799  17.692  27.999   2.809
59129W        W30800  18.082  29.385  13.405
59130W        W30801  44.282  12.181   3.442
59131W        W30802  12.828  24.166   1.131
59132W        W30803  16.614  39.958   2.705
59133W        W30804   6.613  33.845  14.304
59134W        W30805  13.350  40.011   4.210
59135W        W30806  32.315  20.713   1.698
59136W        W30807   5.334  22.894  13.786
59137W        W30808   9.731  31.472  14.793
59138W        W30809  24.277   9.085   1.400
59139W        W30810  33.054  35.125   3.621
59140W        W30811  41.509  11.468   0.248
59141W        W30812  14.302  12.592   2.743
59142W        W30813  41.874  31.210   3.013
59143W        W30814  15.547  19.014   0.220
59144W        W30815  30.924  13.184  14.552
59145W        W30816  21.222   5.332  14.478
59146W        W30817  14.749  30.346  11.981
59147W        W30818  22.806  29.225   1.867
59148W        W30819  42.883  43.454  13.556
59149W        W30820  31.898  44.708   2.954
59150W        W30821   8.792  14.320  14.091
59151W        W30822  29.959  20.085  13.488
59152W        W30823  40.746  21.952  14.063
59153W        W30824  43.413  14.852  14.742
59154W        W30825  25.117   5.430  12.141
59155W        W30826  25.861  15.510  12.631
59156W        W30827   6.447  14.726  10.603
59157W        W30828   1.712   9.713  10.604
59158W        W30829  16.443   0.018   1.209
59159W        W30830  32.033   7.954  14.900
59160W        W30831   8.068   1.352   1.835
59161W        W30832  29.064  38.317  14.839
59162W        W30833  31.612   9.334  11.379
59163W        W30834   7.442  16.748   1.225
59164W        W30835  44.022   3.239   3.238
59165W        W30836  35.870  26.626   0.162
59166W        W30837  24.378   0.944   0.180
59167W        W30838  20.293   6.892  11.407
59168W        W30839  33.921  30.427   1.613
59169W        W30840  11.361  38.023   1.381
59170W        W30841  11.265   5.567   0.331
59171W        W30842   6.425  42.313  13.948
59172W        W30843  40.348  19.123   4.108
59173W        W30844  14.671  23.247  13.537
59174W        W30845  33.599   4.478   1.595
59175W        W30846  32.937  31.571  12.500
59176W        W30847  17.998  22.567  11.809
59177W        W30848  22.549  40.515  12.481
59178W        W30849  38.202   7.822   4.082
59179W        W30850  11.379  37.356  12.390
59180W        W30851  37.594  41.892  12.036
59181W        W30852  31.443  41.493  14.357
59182W        W30853  28.704  16.683  13.067
59183W        W30854  44.555  40.051  14.104
59184W        W30855  30.624   8.680  13.330
59185W        W30856  39.416  13.163  12.457
59186W        W30857   7.913  22.145  13.954
59187W        W30858   2.749  32.742  13.040
59188W        W30859  23.123  20.630  10.716
59189W        W30860  43.893  43.009  10.680
59190W        W30861  43.310  30.490  10.540
59191W        W30862  33.140  14.609  11.440
59192W        W30863   8.208  18.200   0.310
59193W        W30864  42.986  17.034  11.071
59194W        W30865  22.824  20.268   1.920
59195W        W30866  11.872   7.171   1.892
59196W        W30867  43.013  24.912  10.180
59197W        W30868  23.549  32.051   4.010
59198W        W30869   6.613  37.151  11.136
59199W        W30870   0.034   0.890   3.824
59200W        W30871  18.076   9.697   3.196
59201W        W30872  41.011  37.410  13.905
59202W        W30873   2.996  38.049  12.496
59203W        W30874  36.011  19.042  13.840
59204W        W30875  40.563  24.632   1.976
59205W        W30876  44.076   9.600   2.211
59206W        W30877   9.367  29.679   1.320
59207W        W30878  11.344  26.999   3.214
59208W        W30879  20.023  26.092  11.828
59209W        W30880  26.586  34.098  14.076
59210W        W30881  27.738  12.636   3.253
59211W        W30882  40.433  21.522  14.296
59212W        W30883  15.459  22.164  13.567
59213W        W30884   5.211  34.923   4.176
59214W        W30885  13.839  33.086  14.829
59215W        W30886  21.693  23.737   4.548
59216W        W30887  44.335  38.804   1.286
59217W        W30888  21.479  21.195  14.880
59218W        W30889  44.492  33.556  10.424
59219W        W30890  24.715  15.471   0.963
59220W        W30891   8.796  32.601   0.890
59221W        W30892   1.512  11.123  13.942
59222W        W30893  28.049  18.991  10.597
59223W        W30894  31.602  43.828   0.425
59224W        W30895  29.636  44.460   2.665
59225W        W30896  29.699  12.835  14.727
59226W        W30897  13.641  12.352   3.440
59227W        W30898  20.989  35.983  14.076
59228W        W30899  11.953  32.847  13.559
59229W        W30900  36.964  13.722   2.738
59230W        W30901  18.538  42.324   4.285
59231W        W30902  29.232  23.486  13.429
59232W        W30903  26.897  33.893   3.235
59233W        W30904   1.948  36.083   0.913
59234W        W30905  35.005  35.568  12.296
59235W        W30906  20.745  24.004  11.715
59236W        W30907  20.048   9.705   4.463
59237W        W30908  15.839   4.497   5.472
59238W        W30909   9.696  21.650   3.598
59239W        W30910  15.771  21.073   0.705
59240W        W30911  40.383  29.624  14.013
59241W        W30912  18.541  25.106   0.515
59242W        W30913  35.962  16.922   0.383
59243W        W30914  10.364  21.627   0.938
59244W        W30915  42.491  39.328  10.327
59245W        W30916  19.261  27.861  12.105
59246W        W30917  20.766   9.440  12.119
59247W        W30918  14.114  18.591   3.120
59248W        W30919  18.422  11.118   4.151
59249W        W30920   0.180   8.079  12.953
59250W        W30921  33.035  10.211   2.766
59251W        W30922  32.886  14.639   3.548
59252W        W30923  32.088  24.889  12.299
59253W        W30924  34.437  35.578   1.391
59254W        W30925   9.300   0.007  14.745
59255W        W30926  20.243  12.231  13.901
59256W        W30927  22.788  44.313   4.638
59257W        W30928  42.024  41.494  11.171
59258W        W30929  22.157  33.963   4.318
59259W        W30930  35.722  25.908  10.860
59260W        W30931  11.687  34.496  13.002
59261W        W30932  34.054  30.694   4.657
59262W        W30933  17.184  27.005  12.871
59263W        W30934   4.861  11.078   0.264
59264W        W30935  27.084  10.389  11.099
59265W        W30936  32.490  33.450  12.961
59266W        W30937  20.689  24.360   4.513
59267W        W30938   9.248   1.771   4.580
59268W        W30939   6.407  43.747  14.937
59269W        W30940  20.560  32.124   3.810
59270W        W30941  20.400   1.420  14.292
59271W        W30942  21.603  15.321  13.751
59272W        W30943  32.225  33.083  13.342
59273W        W30944  38.275  41.402   0.526
59274W        W30945  18.622  24.330   5.026
59275W        W30946  39.808  39.884   4.136
59276W        W30947  12.392  15.075  12.630
59277W        W30948  20.673  28.577   4.125
59278W        W30949  25.579  38.137   3.879
59279W        W30950   0.237  39.467  13.369
59280W        W30951  35.309  23.511  12.463
59281W        W30952  30.328   2.400   3.138
59282W        W30953  27.072  16.789  14.991
59283W        W30954  11.414  38.469  14.129
59284W        W30955  37.075   6.165   2.764
59285W        W30956   9.456   8.856  12.082
59286W        W30957  15.114  27.517   5.023
59287W        W30958   9.256  15.727   4.997
59288W        W30959  30.386  20.056  14.189
59289W        W30960   5.407   9.134  11.193
59290W        W30961  14.053  32.986  12.576
59291W        W30962  21.506  25.444   1.422
59292W        W30963  32.872   7.446  12.323
59293W        W30964  18.000   4.769   1.183
59294W        W30965  14.540  10.781   4.446
59295W        W30966   7.468  15.294   3.399
59296W        W30967  19.051  13.335  14.050
59297W        W30968  22.945  39.849   3.096
59298W        W30969  40.522  37.455   4.190
59299W        W30970  44.419  39.612  10.373
59300W        W30971  33.232  17.817  11.682
59301W        W30972   5.939  12.732  11.475
59302W        W30973  25.607   3.265  12.440
59303W        W30974   2.983  40.799   3.331
59304W        W30975  29.704  24.400  12.584
59305W        W30976  15.546   4.827  11.621
59306W        W30977  16.278  13.691   2.696
59307W        W30978  14.528  20.666  12.830
59308W        W30979  11.358  38.684   0.041
59309W        W30980  17.096  10.587   2.466
59310W        W30981   1.900  35.561  13.597
59311W        W30982  11.901   5.766   2.303
59312W        W30983  34.617   8.941  12.497
59313W        W30984  38.042   5.359   0.286
59314W        W30985  18.965  28.483  10.895
59315W        W30986  13.159  25.160   0.947
59316W        W30987   9.336  32.445   1.767
59317W        W30988   0.053  33.558  11.093
59318W        W30989  27.463  12.409   2.194
59319W        W30990  31.974  32.324  11.702
59320W        W30991   7.673   4.860   1.898
59321W        W30992  44.799   8.857   2.928
59322W        W30993   4.792  30.397  14.293
59323W        W30994  29.445  15.071  13.449
59324W        W30995  30.106  39.123   2.279
59325W        W30996   3.209  25.815   2.217
59326W        W30997  23.948  31.128   4.098
59327W        W30998  38.410  38.048  12.528
59328W        W30999   1.480  35.322   0.348
59329W        W31000  24.442  28.695   4.623
59330W        W31001   2.777   8.814  12.458
59331W        W31002   5.121   6.230   4.816
59332W        W31003  21.358  11.409   4.350
59333W        W31004  14.952  44.829  12.640
59334W        W31005  32.391   4.922   1.371
59335W        W31006   3.723  28.343  13.309
59336W        W31007  29.857  35.380   1.650
59337W        W31008  23.828   0.172  10.579
59338W        W31009  14.172   9.381   3.210
59339W        W31010   2.905  28.836   3.836
59340W        W31011  23.182  42.432   2.976
59341W        W31012   3.244  13.952   3.056
59342W        W31013   6.804  42.378  12.323
59343W        W31014   3.960  28.073  12.918
59344W        W31015  27.588  23.244  13.843
59345W        W31016  39.372  33.847   4.203
59346W        W31017  43.562   9.194   2.995
59347W        W31018   7.832  38.043  13.924
59348W        W31019   3.743  22.135  13.372
59349W        W31020  25.837  19.319   2.361
59350W        W31021  19.471  19.640   0.492
59351W        W31022  14.146  25.999   0.908
59352W        W31023   8.782  24.064   2.846
59353W        W31024  32.542  16.322   0.945
59354W        W31025  10.385   4.581  10.530
59355W        W31026  19.342  21.701  11.167
59356W        W31027  36.865  21.380  10.283
59357W        W31028  32.419  14.102  11.939
59358W        W31029  22.987  30.148  12.561
59359W        W31030  43.794  36.514  11.564
59360W        W31031   5.362   8.592   4.133
59361W        W31032   9.450  19.533  14.027
59362W        W31033  15.108  34.776  10.631
59363W        W31034  10.188  44.825  10.645
59364W        W31035  35.051   1.455   3.598
59365W        W31036  25.637  27.829   3.271
59366W        W31037  20.136  13.721  10.192
59367W        W31038  11.365  18.192   3.653
59368W        W31039  39.978   9.323   3.283
59369W        W31040  19.324   5.005  12.982
59370W        W31041  16.307   3.665  11.916
59371W        W31042  34.337  21.781  14.370
59372W        W31043  24.686  18.100  14.738
59373W        W31044  38.514  23.641  14.937
59374W        W31045  14.668  41.521   3.701
59375W        W31046  29.893  38.955  11.692
59376W        W31047  11.396  28.864  12.512
59377W        W31048   9.940  36.951  14.484
59378W        W31049  40.541   6.033   4.046
59379W        W31050  16.361  28.765   0.324
59380W        W31051  10.084   7.516  11.487
59381W        W31052  10.116   5.326  14.491
59382W        W31053  11.138  44.890   0.302
59383W        W31054  21.917  26.659   0.673
59384W        W31055  29.651  18.148  13.526
59385W        W31056  12.685  21.257  13.579
59386W        W31057  41.323  24.677  12.907
59387W        W31058  34.356  37.164   0.034
59388W        W31059  29.511   8.067  10.956
59389W        W31060  37.224  24.097   3.197
59390W        W31061  44.327  39.530  11.354
59391W        W31062  11.273   1.031  10.475
59392W        W31063  14.874  22.839   1.805
59393W        W31064  17.131  26.248  12.199
59394W        W31065   0.053  11.372  13.886
59395W        W31066   2.171   9.132  11.952
59396W        W31067   2.266  31.849   0.918
59397W        W31068  26.457  11.623  12.428
59398W        W31069  18.252  30.927  13.499
59399W        W31070  39.011  31.544   1.636
59400W        W31071  13.131  43.286   4.247
59401W        W31072  27.717  39.434  11.682
59402W        W31073  13.366  42.571   5.108
59403W        W31074   1.257  10.334   0.539
59404W        W31075  25.013   9.663   0.486
59405W        W31076  13.119  13.291  11.053
59406W        W31077  32.544  40.732   4.694
59407W        W31078  34.491  35.307   4.147
59408W        W31079  26.690  41.534  11.612
59409W        W31080  22.165  22.112   3.890
59410W        W31081  33.634  17.685   4.635
59411W        W31082  26.697   7.243  14.581
59412W        W31083  23.853   1.954  14.421
59413W        W31084  22.349  25.564  10.317
59414W        W31085  32.217  24.082  11.560
59415W        W31086  29.696  17.692  13.215
59416W        W31087   9.229   0.214  11.951
59417W        W31088  29.956   7.307   2.761
59418W        W31089  37.246  11.516  14.476
59419W        W31090   3.936   1.533   3.358
59420W        W31091   8.640   4.225   2.350
59421W        W31092   5.221  28.611   1.467
59422W        W31093  42.312  31.181  12.934
59423W        W31094  19.335   5.400  14.579
59424W        W31095  11.847  27.121  12.426
59425W        W31096  12.377  12.428   3.298
59426W        W31097  11.884  19.085   2.801
59427W        W31098  43.302  32.357  11.415
59428W        W31099  30.472  35.579   0.891
59429W        W31100   9.331   1.686  12.380
59430W        W31101  18.230  41.226  12.079
59431W        W31102  37.087  20.415   1.261
59432W        W31103  26.037  16.760  14.913
59433W        W31104  32.132  11.676   2.170
59434W        W31105   2.944  21.205   0.397
59435W        W31106  36.677  40.774  11.592
59436W        W31107  43.246   4.437   4.157
59437W        W31108  32.425   3.516   2.225
59438W        W31109  43.406   3.591   1.982
59439W        W31110  30.002  41.788   3.331
59440W        W31111  26.854  13.555  14.808
59441W        W31112  38.148   2.727  14.795
59442W        W31113  23.682  41.499  14.820
59443W        W31114  39.795  40.984  11.522
59444W        W31115  41.359  23.638   3.838
59445W        W31116  37.414  23.627  11.940
59446W        W31117   4.227  34.358  11.045
59447W        W31118  17.217  12.557   0.347
59448W        W31119  16.881  40.113  12.520
59449W        W31120  39.507  40.147  12.484
59450W        W31121  21.065  34.845  13.848
59451W        W31122  17.684  36.839  11.053
59452W        W31123  21.786   1.516   0.373
59453W        W31124   1.029  37.854  10.187
59454W        W31125  28.744  25.789   4.059
59455W        W31126  32.114  37.365  12.862
59456W        W31127   0.522   5.645   1.655
59457W        W31128  39.286   1.321  12.024
59458W        W31129  31.143   6.666   0.766
59459W        W31130  31.560  14.089  10.451
59460W        W31131  40.641  24.646   0.600
59461W        W31132  24.210  39.272   1.410
59462W        W31133  22.694  41.914  10.691
59463W        W31134  20.379  13.915   9.775
59464W        W31135  36.821  14.879   3.311
59465W        W31136  17.781   7.842   3.936
59466W        W31137  31.879  38.655  13.964
59467W        W31138   3.215  14.086  10.977
59468W        W31139  30.314  37.488   1.391
59469W        W31140  27.492  20.721   4.355
59470W        W31141   3.790  41.420  11.087
59471W        W31142   9.133  21.135   0.499
59472W        W31143   6.616  20.047   2.313
59473W        W31144  35.928  25.433  10.689
59474W        W31145  35.069   1.450   3.094
59475W        W31146   8.336  39.988  10.700
59476W        W31147  28.051  28.241   5.326
59477W        W31148  29.461  44.238  11.224
59478W        W31149  18.702  43.312   1.367
59479W        W31150  13.571  44.682  13.997
59480W        W31151  29.142  30.383   3.872
59481W        W31152  33.906  42.201  14.393
59482W        W31153  30.957  31.058   4.173
59483W        W31154   2.185  26.580   3.793
59484W        W31155   6.742  31.667   1.725
59485W        W31156   5.334   4.321   3.172
59486W        W31157   2.706   1.378  13.426
59487W        W31158   3.764  18.621  14.056
59488W        W31159  29.933  15.673   3.297
59489W        W31160  16.067  15.758   2.793
59490W        W31161  39.489  12.842  11.470
59491W        W31162  11.897  29.413  10.778
59492W        W31163  41.834   0.498   4.677
59493W        W31164  10.641  19.635   3.110
59494W        W31165   7.505   8.123   0.228
59495W        W31166  24.689  43.349   2.361
59496W        W31167  20.170  13.269   4.540
59497W        W31168  22.674  36.893  14.767
59498W        W31169  28.516   9.824   4.655
59499W        W31170   3.231  19.504  11.292
59500W        W31171   7.909   6.546  11.977
59501W        W31172  41.936  15.544  11.913
59502W        W31173  17.357   2.511  12.012
59503W        W31174  30.882   4.497   1.323
59504W        W31175   9.759  24.508   4.433
59505W        W31176   3.828   7.104   2.148
59506W        W31177  36.560  18.927  12.592
59507W        W31178  29.039  32.529   3.113
59508W        W31179   7.138  27.226  13.435
59509W        W31180  13.083  10.833   4.391
59510W        W31181   0.148  41.999  12.461
59511W        W31182  21.573   6.259  13.134
59512W        W31183  23.062   7.310   1.609
59513W        W31184  44.307  31.133   4.141
59514W        W31185  42.887  33.871   4.122
59515W        W31186   7.405  14.648   1.299
59516W        W31187  17.141  10.217   4.162
59517W        W31188  31.052   0.733   3.866
59518W        W31189  41.327   9.736   2.367
59519W        W31190  17.389  28.762  11.434
59520W        W31191   4.225   0.316  14.420
59521W        W31192  19.177  29.922  14.805
59522W        W31193  10.225  32.013  11.472
59523W        W31194   9.337  38.425   3.667
59524W        W31195  30.374  25.318   1.354
59525W        W31196  22.290  29.971   0.047
59526W        W31197  41.571  22.773  12.048
59527W        W31198  14.020  37.988   0.269
59528W        W31199   1.236  11.266   3.643
59529W        W31200  16.859  17.758  13.790
59530W        W31201  17.128  42.255   4.078
59531W        W31202  13.633  17.124   4.800
59532W        W31203  27.718  44.791   0.393
59533W        W31204  21.950   5.345  12.613
59534W        W31205  41.504  31.370  14.754
59535W        W31206   1.530  13.909   1.502
59536W        W31207  41.945  26.176  12.471
59537W        W31208  26.051  19.907  12.549
59538W        W31209  25.405   5.688   4.960
59539W        W31210  21.150   7.471   2.035
59540W        W31211  11.977  17.579   0.263
59541W        W31212   3.128  21.590  14.502
59542W        W31213  30.581  22.987   3.940
59543W        W31214  28.264  39.599   0.840
59544W        W31215  12.576  33.387  14.861
59545W        W31216  10.603  34.471   4.082
59546W        W31217  11.453  19.714   3.506
59547W        W31218   7.223  27.086  10.670
59548W        W31219  40.127  33.302   1.374
59549W        W31220  38.485  28.605  14.541
59550W        W31221  33.941  37.297   5.001
59551W        W31222  36.558  23.819  13.623
59552W        W31223  33.608  24.664   0.394
59553W        W31224  25.609  18.264  11.558
59554W        W31225  20.295  18.900   4.094
59555W        W31226  35.588  34.514   0.072
59556W        W31227  11.095  43.386  10.971
59557W        W31228  30.686  39.259  12.213
59558W        W31229  15.334  41.860  12.904
59559W        W31230  44.303  32.850   1.836
59560W        W31231   7.107  33.269   2.679
59561W        W31232  33.514   7.793   4.529
59562W        W31233  33.051  44.416   1.575
59563W        W31234   5.872  28.602  11.354
59564W        W31235  26.145  20.472   4.681
59565W        W31236  38.768  38.856   1.240
59566W        W31237   6.366   5.295  11.967
59567W        W31238   0.621  17.364   0.206
59568W        W31239  19.662  12.879   3.246
59569W        W31240  39.860  22.652   1.582
59570W        W31241   8.951  21.150   2.770
59571W        W31242  22.418  14.632   0.302
59572W        W31243  10.356  40.832  13.780
59573W        W31244  22.161  26.100   2.050
59574W        W31245  25.699  39.946  13.520
59575W        W31246  16.997  29.169   2.121
59576W        W31247   7.224  21.621  13.803
59577W        W31248  23.262  21.170  11.559
59578W        W31249  38.185  10.372  14.353
59579W        W31250  35.258  18.760  11.721
59580W        W31251  26.970  38.330  11.954
59581W        W31252  12.174  20.607   2.867
59582W        W31253   0.914  21.943   3.211
59583W        W31254  37.648  23.602  14.464
59584W        W31255  13.597  37.013   3.782
59585W        W31256   6.776  38.039   3.681
59586W        W31257  29.528   0.857   0.660
59587W        W31258  18.940  19.733  13.005
59588W        W31259   6.933  16.038  11.599
59589W        W31260  15.799  30.245   0.282
59590W        W31261  22.552  31.679  10.709
59591W        W31262  34.510  24.747   4.165
59592W        W31263  25.053  27.951   4.160
59593W        W31264  31.375  27.158   3.830
59594W        W31265  35.134  17.360   2.329
59595W        W31266   0.849   7.405   0.309
59596W        W31267   1.694  30.623  13.950
59597W        W31268  17.543  15.072   3.931
59598W        W31269  10.730   0.789   1.273
59599W        W31270  26.524  22.665   2.165
59600W        W31271  34.156  21.793   1.772
59601W        W31272  26.587  27.329   0.441
59602W        W31273   5.400  31.495  10.685
59603W        W31274   2.798  39.832   2.627
59604W        W31275  17.238   7.161  13.130
59605W        W31276   6.166  40.249   0.897
59606W        W31277   5.242   4.086   3.648
59607W        W31278  28.978  13.293  11.643
59608W        W31279  29.897  21.412   0.725
59609W        W31280  23.179   1.491  14.838
59610W        W31281  43.593  36.071   4.155
59611W        W31282  12.925  24.090   4.311
59612W        W31283  15.569  44.896   3.282
59613W        W31284   6.688  33.824   3.312
59614W        W31285   4.068  43.806  14.728
59615W        W31286   1.612   6.421  11.075
59616W        W31287  33.039  12.395   2.614
59617W        W31288  28.340   1.720   4.559
59618W        W31289   5.649  20.170  14.477
59619W        W31290  32.827  18.381   5.105
59620W        W31291  38.858   7.961  11.245
59621W        W31292  15.740   4.435  11.898
59622W        W31293  42.734   9.790  14.838
59623W        W31294  19.251  15.309   9.990
59624W        W31295  11.876  36.919  13.968
59625W        W31296  15.072  33.899  10.602
59626W        W31297  14.709   6.239   1.743
59627W        W31298  23.853  33.378   3.764
59628W        W31299  33.716  19.964  11.605
59629W        W31300   1.000  38.033  13.417
59630W        W31301  42.448  18.526  11.460
59631W        W31302  39.811  44.187   0.306
59632W        W31303   0.204   3.293  13.039
59633W        W31304  36.393   7.938  13.117
59634W        W31305  17.542  38.282   2.886
59635W        W31306  41.584   1.846  13.892
59636W        W31307  42.180  29.916  13.965
59637W        W31308  25.733  30.867  11.552
59638W        W31309  18.572  34.307   4.736
59639W        W31310  37.577  22.760  11.730
59640W        W31311  13.854   3.779   3.405
59641W        W31312  34.187  10.273  14.964
59642W        W31313   5.504  13.773   0.730
59643W        W31314  40.802  38.299   1.716
59644W        W31315  36.365  38.530  13.575
59645W        W31316   2.470  40.828  11.113
59646W        W31317  27.209  31.851  12.839
59647W        W31318  40.087  10.061   0.451
59648W        W31319  11.896  41.762  11.229
59649W        W31320  31.602  26.973  11.384
59650W        W31321  22.734  26.207   3.737
59651W        W31322  36.419  19.215   1.304
59652W        W31323   8.498  11.244   2.436
59653W        W31324  16.570  31.825   4.260
59654W        W31325  37.137  37.793  14.277
59655W        W31326  25.394   5.602   3.161
59656W        W31327  18.814   8.835  14.352
59657W        W31328  36.172  34.901  13.374
59658W        W31329   0.528  28.035  14.256
59659W        W31330  30.970  32.195   5.111
59660W        W31331  24.475  33.815   1.286
59661W        W31332  16.742  40.953  14.856
59662W        W31333  31.971  11.294   3.283
59663W        W31334  10.244  25.014  14.516
59664W        W31335  42.407  39.358   3.711
59665W        W31336  43.612  18.643  10.927
59666W        W31337   6.032  11.015  10.275
59667W        W31338  41.093  12.129   5.244
59668W        W31339  39.293   6.936  12.497
59669W        W31340  39.947   4.710  13.562
59670W        W31341  34.936   3.207   2.193
59671W        W31342  39.344  32.517   3.336
59672W        W31343  20.344  43.518  13.869
59673W        W31344  17.280  39.252   2.788
59674W        W31345  22.645  44.507  14.963
59675W        W31346  28.741  18.150  12.172
59676W        W31347   0.498  40.420  13.968
59677W        W31348  15.097  29.530  12.508
59678W        W31349  43.596  19.125  11.123
59679W        W31350  29.650  10.110   3.208
59680W        W31351   0.141  21.096   5.127
59681W        W31352  14.137  37.774  11.655
59682W        W31353  35.405  23.646  12.954
59683W        W31354  19.508  34.513   1.312
59684W        W31355  28.436  30.103   4.290
59685W        W31356  44.304  40.458   1.830
59686W        W31357  31.442  21.308   3.329
59687W        W31358  31.467  26.808   0.472
59688W        W31359  24.580  44.407   2.885
59689W        W31360  16.597   9.243  11.609
59690W        W31361  34.123  32.451   4.120
59691W        W31362   1.359   9.889   4.520
59692W        W31363  39.023  42.307  12.091
59693W        W31364  41.738  17.258  10.753
59694W        W31365   4.850  24.616  14.558
59695W        W31366  26.537   1.637  10.695
59696W        W31367  12.023   6.161  10.159
59697W        W31368  14.014   2.333   1.480
59698W        W31369  11.099  25.364   4.111
59699W        W31370   1.047  15.227   1.239
59700W        W31371   1.873  35.477  12.084
59701W        W31372  21.750  34.587   4.644
59702W        W31373  11.109   3.448   3.698
59703W        W31374  10.311  14.088  12.604
59704W        W31375   4.765   9.048   2.894
59705W        W31376  30.020  21.537   3.058
59706W        W31377  13.152  39.821   2.423
59707W        W31378  12.395  32.485   0.965
59708W        W31379  37.858  30.954  13.322
59709W        W31380  44.750  27.952  14.332
59710W        W31381  44.154  17.069   4.566
59711W        W31382  39.280   8.358   0.330
59712W        W31383   1.845  26.099   4.534
59713W        W31384  22.625  23.583   0.132
59714W        W31385   6.678  15.209   3.749
59715W        W31386   7.453  25.092  14.082
59716W        W31387   3.913   7.670  13.297
59717W        W31388  10.298   6.531  13.858
59718W        W31389  23.003  43.793  14.478
59719W        W31390  41.941  22.293  12.980
59720W        W31391   8.514  27.069   2.735
59721W        W31392  31.708  29.933   3.993
59722W        W31393  39.406  22.842   2.286
59723W        W31394  30.202  20.278   1.396
59724W        W31395   8.328   4.957  11.135
59725W        W31396  34.475  34.810   4.271
59726W        W31397  14.469   0.538  13.498
59727W        W31398   1.759  41.879  12.372
59728W        W31399  23.238  13.156  13.526
59729W        W31400   2.802  30.325   2.810
59730W        W31401  35.302  12.317   1.352
59731W        W31402  21.854  36.084   0.961
59732W        W31403   4.922   1.311   0.706
59733W        W31404   4.600  20.907  13.744
59734W        W31405  40.095  41.007  13.844
59735W        W31406  16.108   9.681   1.773
59736W        W31407  11.722  35.150   2.753
59737W        W31408  33.891   3.640  13.078
59738W        W31409  27.010  25.847  11.186
59739W        W31410  33.686  28.087  12.793
59740W        W31411  40.459  21.557  12.355
59741W        W31412  33.118  15.613  14.307
59742W        W31413   4.157  20.132  14.483
59743W        W31414  10.161  30.532   1.449
59744W        W31415  25.346   2.245   4.448
59745W        W31416  11.993  36.422   3.279
59746W        W31417   8.274   5.937   3.174
59747W        W31418  15.924  28.212   2.247
59748W        W31419   1.102  23.584   5.213
59749W        W31420  18.823  29.793   1.191
59750W        W31421  11.396  22.875   0.409
59751W        W31422  40.856  25.719   2.417
59752W        W31423   0.453  29.685  14.002
59753W        W31424   7.652  30.103  12.920
59754W        W31425  22.838  31.028  14.349
59755W        W31426  22.626  33.510  11.956
59756W        W31427   2.402  31.655   4.595
59757W        W31428  28.899   7.380   9.807
59758W        W31429   2.320  43.079  12.134
59759W        W31430   0.238  39.280   4.249
59760W        W31431   2.351  39.130  14.270
59761W        W31432   5.292   6.516   1.784
59762W        W31433  16.545  15.193  14.081
59763W        W31434  15.751   9.460  10.585
59764W        W31435  14.287  19.342  14.496
59765W        W31436   8.427  28.661  13.861
59766W        W31437  34.573  37.553   9.711
59767W        W31438  10.885  12.152   0.507
59768W        W31439   0.813  15.561   2.198
59769W        W31440  26.056  25.234   1.452
59770W        W31441  38.608   6.662  11.156
59771W        W31442   9.786  13.130   3.824
59772W        W31443  42.498   3.790  13.430
59773W        W31444  22.717  24.825  11.089
59774W        W31445  29.185   6.190  14.177
59775W        W31446   5.741  13.358  13.849
59776W        W31447  29.300  33.773  13.268
59777W        W31448  22.255  29.957  13.608
59778W        W31449  22.545  20.993   2.273
59779W        W31450  21.584  15.292  13.140
59780W        W31451  42.847   3.839   1.267
59781W        W31452  21.991   5.706   4.298
59782W        W31453  18.500  32.568   2.559
59783W        W31454  10.386   1.844   1.543
59784W        W31455  25.967   5.912   4.598
59785W        W31456  11.204  41.720   3.184
59786W        W31457  34.831  15.794   1.916
59787W        W31458  19.624  26.427  11.874
59788W        W31459  37.881  36.059   0.848
59789W        W31460  32.308  28.590  11.596
59790W        W31461  25.103   0.044  13.478
59791W        W31462  28.004  34.452   2.735
59792W        W31463  21.220   1.955   1.359
59793W        W31464   9.658  37.561   0.831
59794W        W31465  41.122  29.001  12.633
59795W        W31466  15.229   7.543   2.168
59796W        W31467  21.041  25.312   4.685
59797W        W31468  36.069   3.536   3.296
59798W        W31469  38.263   8.827  12.350
59799W        W31470   6.879   2.923   4.446
59800W        W31471  13.127  18.618  10.965
59801W        W31472  22.237  23.084  14.288
59802W        W31473  38.165  24.685  11.162
59803W        W31474  25.958  25.033  13.094
59804W        W31475  43.481   3.947   2.884
59805W        W31476   3.566  21.175   1.714
59806W        W31477  30.839  16.189   2.187
59807W        W31478   1.586  32.499   0.246
59808W        W31479  21.609  26.557  10.786
59809W        W31480  36.517  14.362   3.793
59810W        W31481  28.026  26.469   1.353
59811W        W31482  12.326  29.719  13.886
59812W        W31483  35.039  41.821   4.528
59813W        W31484  22.091  31.538   4.108
59814W        W31485  39.824  25.339  14.289
59815W        W31486   8.141   3.052  12.572
59816W        W31487  20.911  39.830   4.687
59817W        W31488  17.205  35.364  14.931
59818W        W31489  18.113  40.209  12.179
59819W        W31490  10.674  27.701  11.130
59820W        W31491  22.554   0.327   3.223
59821W        W31492  39.477  30.179  13.821
59822W        W31493  39.865  27.500  14.313
59823W        W31494   2.264   7.315   5.177
59824W        W31495  43.785  43.986  12.067
59825W        W31496   8.982   8.295   1.897
59826W        W31497  34.323   2.840  11.303
59827W        W31498  32.976   4.939   4.845
59828W        W31499  20.869  40.985  10.873
59829W        W31500  13.634  11.156  13.368
59830W        W31501  16.250   7.254  12.500
59831W        W31502  33.832  29.846   0.918
59832W        W31503  42.338  26.702  11.993
59833W        W31504  40.609  22.469  14.375
59834W        W31505  39.012   6.696   4.053
59835W        W31506  15.139  16.179   1.538
59836W        W31507  43.560   3.778   4.720
59837W        W31508  21.722   6.256  14.549
59838W        W31509  42.385  44.946  14.084
59839W        W31510  29.458  25.559   4.975
59840W        W31511  40.982  33.044  13.799
59841W        W31512  31.049  41.161  14.294
59842W        W31513  20.599  27.702  14.377
59843W        W31514  44.988   5.991   4.301
59844W        W31515  15.755  37.991  12.005
59845W        W31516  37.698  27.676   1.333
59846W        W31517  41.796  44.032   2.270
59847W        W31518  26.683  20.151  12.159
59848W        W31519  28.474  10.778   2.370
59849W        W31520  28.750   4.906  13.397
59850W        W31521   5.900  27.579  11.997
59851W        W31522  32.103  12.127  11.460
59852W        W31523   8.250  10.816  11.569
59853W        W31524  10.032  23.201   3.410
59854W        W31525  20.167   0.024   3.578
59855W        W31526  12.645  14.819  14.406
59856W        W31527  18.721  44.718  13.035
59857W        W31528  12.455  35.380  12.838
59858W        W31529  33.836  31.946  12.943
59859W        W31530   6.779  39.935   4.426
59860W        W31531  35.957  15.353  13.553
59861W        W31532  37.027  25.770   4.711
59862W        W31533  21.308  15.759  11.858
59863W        W31534  14.591   6.410   3.782
59864W        W31535  36.011  34.066   2.862
59865W        W31536  29.964  34.896   3.821
59866W        W31537  36.055   1.409   0.686
59867W        W31538  14.303  41.034   2.907
59868W        W31539  37.893  34.115   2.873
59869W        W31540  35.131  36.990   3.199
59870W        W31541   1.721  42.333   2.212
59871W        W31542  23.045  15.647   4.827
59872W        W31543  22.950  43.533  14.957
59873W        W31544  31.693  14.132   1.803
59874W        W31545  12.745  33.512   4.067
59875W        W31546   6.120  33.632   4.189
59876W        W31547  25.138  42.239   0.192
59877W        W31548   3.188  38.012  14.403
59878W        W31549  17.468  17.730   2.467
59879W        W31550  11.368  43.952   0.146
59880W        W31551  18.012  39.915   1.767
59881W        W31552   3.851  15.800  13.427
59882W        W31553  43.607  13.496  11.560
59883W        W31554  11.911  10.588  13.017
59884W        W31555  31.127  43.537   1.163
59885W        W31556  26.742  42.420   3.373
59886W        W31557  10.533   9.691   4.733
59887W        W31558   8.800  10.410   4.148
59888W        W31559   0.444   1.960  12.365
59889W        W31560  19.110   4.794   3.284
59890W        W31561  41.050   3.855   3.743
59891W        W31562   5.252  30.618   3.856
59892W        W31563  41.581  17.585   0.189
59893W        W31564  26.568  10.313  14.203
59894W        W31565  39.997  15.682   1.038
59895W        W31566  37.572   7.079  13.588
59896W        W31567  32.318   5.396  14.396
59897W        W31568  34.379  35.124   4.925
59898W        W31569  21.194  24.054   1.161
59899W        W31570  19.244  17.713  12.284
59900W        W31571  41.580   6.773   2.298
59901W        W31572  11.218  23.508  12.890
59902W        W31573  40.490  43.002   4.762
59903W        W31574  28.727  25.245  14.531
59904W        W31575  36.499  29.198  11.194
59905W        W31576   6.870  22.051  13.124
59906W        W31577  21.950  11.707   0.979
59907W        W31578  11.795   6.301   0.739
59908W        W31579   7.272   9.373  13.041
59909W        W31580   2.459  15.223   0.172
59910W        W31581  32.599  43.825  12.440
59911W        W31582  43.786  16.685  11.611
59912W        W31583  35.329  30.116   1.303
59913W        W31584  41.085  39.102  14.505
59914W        W31585  20.720  41.896  14.060
59915W        W31586  42.543  24.425  11.603
59916W        W31587  16.272   7.431   1.926
59917W        W31588  28.072  33.984   2.512
59918W        W31589  10.686   8.905  11.635
59919W        W31590   2.966  39.063   4.339
59920W        W31591  29.047  19.257   1.732
59921W        W31592  41.308  28.690   3.305
59922W        W31593  27.612  37.989  10.855
59923W        W31594  20.163  44.856  13.402
59924W        W31595  21.721  33.161   1.720
59925W        W31596  24.258  26.254  13.990
59926W        W31597  18.284   4.880   3.760
59927W        W31598   3.645  20.299  10.717
59928W        W31599   1.722  17.347  13.389
59929W        W31600   0.687  40.435  13.485
59930W        W31601  14.934  13.304   4.063
59931W        W31602   8.051  11.249   1.053
59932W        W31603  26.524  27.230  12.520
59933W        W31604  32.758  41.387   4.553
59934W        W31605   2.385  19.112  14.944
59935W        W31606  28.545  21.079   0.443
59936W        W31607   6.773   2.233   4.101
59937W        W31608  34.604   8.904  14.381
59938W        W31609  30.197   6.312   2.139
59939W        W31610   6.915  19.648   2.111
59940W        W31611  33.997  21.136   0.045
59941W        W31612  10.193   3.236   2.350
59942W        W31613  19.578  13.875   1.440
59943W        W31614  29.028   1.525   1.150
59944W        W31615  38.228  31.506  13.776
59945W        W31616  20.492  29.920  12.446
59946W        W31617   7.335  20.916   1.195
59947W        W31618  20.953   7.307   4.461
59948W        W31619  12.010  15.208   2.225
59949W        W31620  11.121  10.482   0.854
59950W        W31621  16.761   0.177  11.602
59951W        W31622  43.933   3.033  10.687
59952W        W31623  39.111   8.479   4.224
59953W        W31624  19.958   5.359   1.803
59954W        W31625  32.288  26.697  14.570
59955W        W31626  43.633  14.723   9.578
59956W        W31627  32.935  38.700   2.727
59957W        W31628   8.754  13.408   2.401
59958W        W31629  40.103  33.574  11.928
59959W        W31630  11.533   4.984   5.200
59960W        W31631  26.000  32.533   4.669
59961W        W31632  16.251  20.798   2.304
59962W        W31633  43.407  44.283   4.325
59963W        W31634   2.329  42.760   0.963
59964W        W31635  41.974   6.945  12.888
59965W        W31636  20.249  31.450   1.252
59966W        W31637  30.625  32.878  11.095
59967W        W31638  15.221  32.800   2.680
59968W        W31639  15.278  16.285  12.473
59969W        W31640   6.269   4.252   4.595
59970W        W31641  19.904  38.042  12.778
59971W        W31642  29.204  25.923  11.596
59972W        W31643   5.448   8.508  11.858
59973W        W31644  36.237  15.915  12.946
59974W        W31645   2.916   2.222  12.019
59975W        W31646  10.102  36.849   2.380
59976W        W31647  39.367   7.660  14.810
59977W        W31648  27.056  40.602  11.021
59978W        W31649  25.075   3.403  13.393
59979W        W31650  10.856  17.503  10.921
59980W        W31651  19.002  14.603   0.225
59981W        W31652  35.186  36.304   9.919
59982W        W31653  16.524  14.574   1.709
59983W        W31654  10.645  31.821   3.204
59984W        W31655  19.778  25.080  11.194
59985W        W31656  29.220  44.512  14.994
59986W        W31657  29.619  35.861  10.389
59987W        W31658  15.798  13.825   2.826
59988W        W31659  32.100  26.047  12.971
59989W        W31660  35.980  34.551   4.176
59990W        W31661   0.864  17.958  10.665
59991W        W31662  28.619  14.465  11.737
59992W        W31663  27.683  42.504   1.383
59993W        W31664  25.596  17.201   2.768
59994W        W31665   8.908  12.902   4.277
59995W        W31666  26.762  36.528   0.431
59996W        W31667  25.215   6.915   1.740
59997W        W31668   2.843  32.286  14.730
59998W        W31669  36.880  24.594   4.817
59999W        W31670  26.437  35.128  11.590
60000W        W31671  34.523   7.469  13.120
60001W        W31672  43.732   9.990   2.252
60002W        W31673   8.778   0.958   4.532
60003W        W31674  15.782  44.223  13.901
60004W        W31675  33.652  14.060   1.848
60005W        W31676  10.635  20.796  14.993
60006W        W31677  17.613  16.193  11.045
60007W        W31678  43.986   6.214  14.437
60008W        W31679  24.472  36.364  13.832
60009W        W31680   4.656  37.168   2.581
60010W        W31681  29.266  12.669   3.178
60011W        W31682  28.041  24.954   1.641
60012W        W31683  43.559  31.924  10.676
60013W        W31684  30.837  41.011   3.774
60014W        W31685   0.493   5.794  10.539
60015W        W31686  20.239  37.574  14.817
60016W        W31687  14.334  17.534  10.878
60017W        W31688  33.504  27.460  10.204
60018W        W31689   9.813  24.989   4.175
60019W        W31690  18.700  13.776  13.372
60020W        W31691  18.253  11.230  14.729
60021W        W31692  32.013  36.796  14.848
60022W        W31693   9.841  31.735  12.445
60023W        W31694  20.268   0.402  12.027
60024W        W31695  21.457  44.743   2.136
60025W        W31696   9.413   3.277   0.008
60026W        W31697  18.399   7.736   2.723
60027W        W31698  30.535   4.956  12.444
60028W        W31699  40.806  15.190   1.701
60029W        W31700   9.926  19.739   4.695
60030W        W31701   2.524   8.682   2.748
60031W        W31702  32.938  30.514  14.434
60032W        W31703  20.825  18.044  11.214
60033W        W31704  28.510  12.612   3.669
60034W        W31705  13.389   9.684  14.842
60035W        W31706  42.944   2.675   2.453
60036W        W31707  24.736  19.957  11.425
60037W        W31708  15.332  15.995   3.345
60038W        W31709  25.456  21.241  11.933
60039W        W31710  44.278  23.228   0.208
60040W        W31711  20.480  22.158   4.537
60041W        W31712  20.100  35.863  13.822
60042W        W31713   6.738  30.652  12.025
60043W        W31714  41.004   9.901  12.467
60044W        W31715   2.003  19.578  10.215
60045W        W31716  34.480  41.670   4.101
60046W        W31717  16.130  40.254  14.960
60047W        W31718   9.001  24.942   0.286
60048W        W31719  41.414  35.461   0.855
60049W        W31720   7.905  23.951   0.198
60050W        W31721  16.697  33.691   1.294
60051W        W31722   0.933  38.486  11.659
60052W        W31723   6.091   4.869  10.712
60053W        W31724  29.794  43.841  11.219
60054W        W31725  22.136  32.134  13.864
60055W        W31726   5.159  16.807  10.512
60056W        W31727  33.155  32.885  11.941
60057W        W31728   1.766  19.470  11.451
60058W        W31729  31.676  22.201   2.415
60059W        W31730  33.335   1.935   2.579
60060W        W31731  10.644   4.746  11.608
60061W        W31732  23.071  32.416  10.526
60062W        W31733   4.239   4.980  13.378
60063W        W31734  21.234  36.997  13.259
60064W        W31735  24.885  36.990  10.592
60065W        W31736  39.328  21.097  10.455
60066W        W31737  36.589  42.454   2.869
60067W        W31738   0.070  21.766  11.949
60068W        W31739  36.353   4.741   3.233
60069W        W31740  38.387  35.724  13.589
60070W        W31741  16.421   9.413   3.210
60071W        W31742   2.531   5.487  13.946
60072W        W31743  24.940  43.817   2.326
60073W        W31744  11.916  34.109   1.486
60074W        W31745  22.671  42.711  10.320
60075W        W31746   0.071   2.447  13.035
60076W        W31747  30.136  41.921   1.577
60077W        W31748   7.336  44.981   3.617
60078W        W31749  44.415  40.020  10.670
60079W        W31750  11.712  34.427   2.522
60080W        W31751   0.838  28.041  11.981
60081W        W31752   4.798  24.737   0.061
60082W        W31753   7.486   9.844   1.228
60083W        W31754  28.699  24.641  12.488
60084W        W31755  10.931  23.042   3.660
60085W        W31756  17.108  12.257   4.691
60086W        W31757   9.299  36.332  13.869
60087W        W31758  43.048  24.145  11.036
60088W        W31759  28.130   4.826   3.798
60089W        W31760  35.141   5.924   4.318
60090W        W31761  14.367  15.594   3.731
60091W        W31762  24.757  43.307  11.618
60092W        W31763  28.806  11.919  10.783
60093W        W31764  15.596  23.505   0.533
60094W        W31765  23.157   6.879  11.583
60095W        W31766  43.836  25.926  10.918
60096W        W31767  22.691  34.596   4.813
60097W        W31768  37.652   5.911   3.320
60098W        W31769  33.615  22.274   3.289
60099W        W31770  39.089  18.000   4.058
60100W        W31771  12.009  31.555  13.340
60101W        W31772   0.322  32.106   2.216
60102W        W31773  13.055  22.176   0.276
60103W        W31774   2.731  21.619  13.121
60104W        W31775   1.776  37.257  11.165
60105W        W31776  25.978  35.368  11.637
60106W        W31777  43.752  39.007   2.139
60107W        W31778  18.667  27.708   1.028
60108W        W31779  30.643  21.815  11.438
60109W        W31780  33.577  21.606  14.805
60110W        W31781  41.385  22.736  14.858
60111W        W31782  18.549  37.924   4.442
60112W        W31783   1.517  12.672   1.906
60113W        W31784  11.644  14.580   3.339
60114W        W31785  21.072   9.465  10.594
60115W        W31786  42.686   0.320  13.000
60116W        W31787   0.664  34.020   4.179
60117W        W31788   5.163  27.242  13.974
60118W        W31789   5.707   8.231   1.714
60119W        W31790  28.904  12.832   0.687
60120W        W31791  39.526  15.285  11.592
60121W        W31792  33.065  40.263  13.353
60122W        W31793  18.852   1.301   2.737
60123W        W31794  42.202  43.989  11.041
60124W        W31795  42.252  11.546   4.661
60125W        W31796   3.423  33.887  12.402
60126W        W31797  23.775  27.740   2.208
60127W        W31798  23.687  30.889  14.483
60128W        W31799   8.326  39.258   0.857
60129W        W31800   3.230  14.680   0.940
60130W        W31801  26.715  32.641  14.747
60131W        W31802  13.716  23.624   1.266
60132W        W31803  18.357  44.294  11.142
60133W        W31804  44.449  24.750  13.381
60134W        W31805  38.741  39.118   0.338
60135W        W31806  20.633  35.435   1.876
60136W        W31807   3.438   0.770  11.221
60137W        W31808  27.993  37.438  11.935
60138W        W31809  27.776  35.915   4.323
60139W        W31810  22.763  44.830   4.529
60140W        W31811  33.437  40.010  10.351
60141W        W31812  37.042   2.997  12.543
60142W        W31813   1.827  43.975   1.432
60143W        W31814   1.157  10.373   4.595
60144W        W31815  40.585   8.121   3.271
60145W        W31816   4.497  32.376   3.206
60146W        W31817  16.617  25.763   1.990
60147W        W31818   2.865   0.049  11.238
60148W        W31819  22.751  27.489  12.952
60149W        W31820  29.577  11.309   2.677
60150W        W31821  31.673  27.171   2.870
60151W        W31822  31.601  44.773   1.460
60152W        W31823  43.321   7.822   4.226
60153W        W31824   2.641  40.406  12.853
60154W        W31825   1.415  26.266  14.021
60155W        W31826  33.170  35.013  14.422
60156W        W31827  16.749  36.731   1.397
60157W        W31828  23.726  12.303  11.194
60158W        W31829  34.973  18.186  10.520
60159W        W31830  12.224  41.017  12.120
60160W        W31831  16.953   5.570   4.562
60161W        W31832  19.611   5.435   2.157
60162W        W31833  27.013  18.515   1.419
60163W        W31834   9.364  11.692   0.561
60164W        W31835  22.771  31.036  13.022
60165W        W31836  38.785   0.966   0.937
60166W        W31837  21.119  43.728  10.591
60167W        W31838   7.066  40.443  14.894
60168W        W31839  31.063  20.020   1.112
60169W        W31840  37.924  12.740  14.818
60170W        W31841  11.292  32.414  10.918
60171W        W31842   8.874  31.920  12.507
60172W        W31843  31.560  15.367  14.819
60173W        W31844  14.107  14.306   3.571
60174W        W31845  22.124  29.006   4.937
60175W        W31846  41.285  33.840  12.550
60176W        W31847  22.139  15.352   1.844
60177W        W31848   5.037  40.792  11.123
60178W        W31849  42.883  13.463   1.727
60179W        W31850   7.782  33.902   4.161
60180W        W31851  28.178  28.471   4.735
60181W        W31852  39.786  17.031  10.624
60182W        W31853   8.159  42.894   3.106
60183W        W31854  14.374  21.507  13.804
60184W        W31855  14.346  42.233  10.743
60185W        W31856  20.490  36.711  13.191
60186W        W31857  35.970  27.162   0.401
60187W        W31858  30.397   2.870   0.710
60188W        W31859   4.903  23.053  11.039
60189W        W31860  32.178  37.140   1.276
60190W        W31861   6.983  12.708  10.643
60191W        W31862  23.635   6.935   0.508
60192W        W31863  24.083  43.236   1.393
60193W        W31864  13.368  28.956  14.883
60194W        W31865  25.785  11.299  10.095
60195W        W31866  37.036   5.802   4.074
60196W        W31867  43.379   7.658  13.357
60197W        W31868  41.411  40.446   2.327
60198W        W31869  38.432  44.317  10.710
60199W        W31870  16.819  39.022  13.891
60200W        W31871  27.229  14.735  13.742
60201W        W31872  24.495  25.599  13.003
60202W        W31873  36.415   3.013  13.456
60203W        W31874   6.686   8.172  12.402
60204W        W31875  27.596   5.837   0.018
60205W        W31876  37.332  17.651  12.356
60206W        W31877  40.903  43.948  12.452
60207W        W31878  36.155   7.877  14.802
60208W        W31879  22.477  13.253   2.319
60209W        W31880   4.712  25.251   0.182
60210W        W31881  14.010  44.825  11.780
60211W        W31882  28.855  34.835  12.810
60212W        W31883  36.440  14.743   2.054
60213W        W31884  24.195  19.018  14.455
60214W        W31885  23.179  40.266   0.988
60215W        W31886   1.358  26.705  10.226
60216W        W31887  26.607   2.476  12.718
60217W        W31888   4.463  19.742   0.709
60218W        W31889  17.315   0.338   2.816
60219W        W31890  34.375  36.783   0.421
60220W        W31891   6.473  35.075  12.106
60221W        W31892  17.727   5.044  11.904
60222W        W31893  10.601  12.361  11.117
60223W        W31894  11.713   3.464   1.363
60224W        W31895  25.733   7.415   3.741
60225W        W31896  24.115   0.651  11.113
60226W        W31897   8.492   0.839   0.506
60227W        W31898   2.937  39.877  11.143
60228W        W31899  16.094  20.467  12.097
60229W        W31900   7.758   0.418   0.883
60230W        W31901   0.987  22.840  12.877
60231W        W31902  33.395  23.840   2.201
60232W        W31903  13.211  36.218  13.637
60233W        W31904   5.833  12.981   4.134
60234W        W31905   8.124  42.052  10.970
60235W        W31906  40.577   9.628   0.912
60236W        W31907  29.685  42.893  11.654
60237W        W31908  21.173  24.613   2.419
60238W        W31909  23.758  35.351  12.625
60239W        W31910  35.623   0.413   4.088
60240W        W31911  16.905  17.308  11.610
60241W        W31912   8.154  13.541   1.223
60242W        W31913  13.851   8.776  14.830
60243W        W31914  33.572   5.459  11.413
60244W        W31915   9.445  21.566   4.042
60245W        W31916  37.981  28.776  14.449
60246W        W31917   1.894  22.719  12.650
60247W        W31918  31.474   3.480   2.147
60248W        W31919  37.183  32.120  12.383
60249W        W31920  39.436  28.671  14.054
60250W        W31921  26.122  28.402   2.423
60251W        W31922  29.812  21.635  11.578
60252W        W31923  20.996   7.486   1.158
60253W        W31924   1.385  39.821   0.019
60254W        W31925   7.272   0.303   1.784
60255W        W31926  25.246  23.274   1.908
60256W        W31927  17.687  20.078  11.618
60257W        W31928  18.670  26.195   1.030
60258W        W31929  11.745   9.797   4.626
60259W        W31930   5.143  26.999  13.503
60260W        W31931  28.056  23.069  14.624
60261W        W31932  14.308  19.259  12.099
60262W        W31933  38.947  17.630  14.722
60263W        W31934  37.066  15.229   3.014
60264W        W31935   1.732  29.792  14.576
60265W        W31936  38.400  33.553   4.024
60266W        W31937   5.917  21.118   4.580
60267W        W31938   1.724   0.047   4.244
60268W        W31939  24.492   1.749  14.011
60269W        W31940  40.047  34.997   4.094
60270W        W31941  35.565  42.653  14.666
60271W        W31942  28.260   3.167   0.407
60272W        W31943  39.028  25.672   3.351
60273W        W31944  38.962  11.948   4.138
60274W        W31945  10.903  10.278   1.325
60275W        W31946  39.229  20.455   0.832
60276W        W31947   4.210  32.130   2.280
60277W        W31948  10.155  43.359  14.536
60278W        W31949  44.825  44.044   1.375
60279W        W31950  21.776  41.846  14.980
60280W        W31951  16.071   3.799  12.902
60281W        W31952  39.065  38.991  11.880
60282W        W31953  30.092  14.623   3.317
60283W        W31954  38.850  18.695   3.762
60284W        W31955   5.680   4.326   3.695
60285W        W31956  38.374  18.460   3.735
60286W        W31957   0.411  42.087   2.848
60287W        W31958  38.658  18.030   0.851
60288W        W31959  37.277  10.351   1.238
60289W        W31960  43.335  13.306  11.989
60290W        W31961   4.440   2.353   3.113
60291W        W31962  24.339  18.107   1.928
60292W        W31963  14.563  30.067  14.436
60293W        W31964  21.176  41.375   1.960
60294W        W31965  12.539  18.807   1.943
60295W        W31966   9.959  43.617  12.737
60296W        W31967  37.198  17.472  12.898
60297W        W31968  25.992   4.464   3.711
60298W        W31969  28.956  16.116  13.892
60299W        W31970  32.865   5.154   2.808
60300W        W31971  10.151  40.825   2.954
60301W        W31972   1.852  36.429   3.190
60302W        W31973   3.711   7.911  11.530
60303W        W31974  20.450  18.967  14.756
60304W        W31975   6.401  13.528  12.558
60305W        W31976   3.873  20.725  10.938
60306W        W31977  31.519  40.340  13.870
60307W        W31978  16.659  28.467   2.814
60308W        W31979  17.043  38.838   3.242
60309W        W31980  29.722  43.784   1.275
60310W        W31981  23.264  37.292  11.969
60311W        W31982  11.118  11.718   0.282
60312W        W31983  29.123  31.127  13.553
60313W        W31984   0.665  16.648   4.877
60314W        W31985  27.532  38.824   0.569
60315W        W31986  17.709  32.099   1.858
60316W        W31987  12.093  36.991  10.681
60317W        W31988  37.982  19.578  13.590
60318W        W31989  35.022  40.634   2.308
60319W        W31990  44.832  27.486   3.927
60320W        W31991  26.607  33.993  10.622
60321W        W31992   0.703  11.206  14.657
60322W        W31993  18.712  21.127  12.601
60323W        W31994  26.683  24.479  13.835
60324W        W31995  28.874   4.156  12.925
60325W        W31996  44.006  42.407   0.376
60326W        W31997  11.923  22.707  11.071
60327W        W31998  16.870  24.000  11.031
60328W        W31999  19.608  14.159   0.167
60329W        W32000   0.852  20.558   1.038
60330W        W32001  39.181  37.815   3.633
60331W        W32002  26.114  43.668   3.145
60332W        W32003  37.962  12.133  14.931
60333W        W32004  24.730  21.056   4.562
60334W        W32005  19.262  23.245   2.272
60335W        W32006  40.868  12.169   0.811
60336W        W32007   5.361  26.580   0.436
60337W        W32008  12.626   9.954   2.213
60338W        W32009   7.906  27.289  11.727
60339W        W32010  13.456  18.608   4.740
60340W        W32011  44.894  17.642   0.329
60341W        W32012  19.756  30.385   0.852
60342W        W32013  15.602  28.222   0.536
60343W        W32014  19.183   7.597   3.174
60344W        W32015  41.082   3.006  14.211
60345W        W32016  10.614   0.508  14.913
60346W        W32017  10.317  32.350  14.292
60347W        W32018  14.111  44.335  11.122
60348W        W32019  10.359  37.827   4.151
60349W        W32020  22.709   3.268   2.060
60350W        W32021  29.777  24.557  11.170
60351W        W32022  13.739  33.020   1.888
60352W        W32023  30.973  26.465  11.269
60353W        W32024   9.446  34.431   0.952
60354W        W32025  13.117  29.621  14.878
60355W        W32026  36.203  41.999   2.010
60356W        W32027   0.845  24.507  12.879
60357W        W32028  31.917  21.286   4.844
60358W        W32029  19.065  42.516   1.165
60359W        W32030  17.522  33.030   0.043
60360W        W32031  27.156  43.008  13.423
60361W        W32032   2.597  26.079   0.300
60362W        W32033   9.179  12.183  13.835
60363W        W32034  32.667  12.069  13.280
60364W        W32035   3.494   2.384   1.436
60365W        W32036  31.612  26.130  13.312
60366W        W32037  22.238  20.064  14.314
60367W        W32038  16.279  13.587  12.000
60368W        W32039  11.738   3.951  11.563
60369W        W32040  16.824  19.511   2.023
60370W        W32041  26.285  18.126   0.591
60371W        W32042   9.252  40.397   2.806
60372W        W32043   7.435  40.093  11.096
60373W        W32044   4.619  37.831   4.654
60374W        W32045  32.041   6.779  12.040
60375W        W32046   7.873  26.752   0.519
60376W        W32047  13.192  10.255   0.946
60377W        W32048  27.636  10.598   2.338
60378W        W32049  25.620  17.092   3.705
60379W        W32050  44.629   2.221   3.204
60380W        W32051  42.088   6.167  14.351
60381W        W32052   1.487  36.187   4.225
60382W        W32053  42.069   5.926  13.890
60383W        W32054  27.371  25.256  12.430
60384W        W32055  29.003   9.191  11.988
60385W        W32056  37.404  26.595   2.667
60386W        W32057  21.177  32.228  13.141
60387W        W32058   4.394   1.874  14.428
60388W        W32059   2.447  38.730   0.203
60389W        W32060   7.705  39.831   2.738
60390W        W32061  25.145  38.567   1.751
60391W        W32062  11.260   7.492   3.326
60392W        W32063  19.224   7.287   2.737
60393W        W32064  23.456  38.044   1.207
60394W        W32065   7.430  40.540  11.941
60395W        W32066  40.957  33.648  12.930
60396W        W32067   5.831   1.864  13.733
60397W        W32068   7.392  11.893  11.940
60398W        W32069  44.364   1.140  14.561
60399W        W32070  33.407  41.236   0.769
60400W        W32071   2.332  19.559  14.347
60401W        W32072  14.412   3.739   4.687
60402W        W32073  26.784  29.985   1.827
60403W        W32074  41.739  13.384   1.255
60404W        W32075  11.856  22.474   2.733
60405W        W32076  21.640  44.713  14.939
60406W        W32077  15.141  13.396   0.234
60407W        W32078  44.238   6.966  11.574
60408W        W32079  38.086  13.544  14.060
60409W        W32080  20.030  22.855   4.163
60410W        W32081   0.751  40.501  11.586
60411W        W32082   4.993   2.827  12.038
60412W        W32083  32.553  16.867   0.960
60413W        W32084  27.102  42.547  12.654
60414W        W32085  15.983  34.862  12.359
60415W        W32086  28.364   1.866  13.153
60416W        W32087  23.299  29.396   3.111
60417W        W32088  16.645  15.209   4.112
60418W        W32089  36.943  37.454   1.843
60419W        W32090   0.847  43.865   1.924
60420W        W32091  42.325   3.782   1.232
60421W        W32092  31.674  19.796  11.562
60422W        W32093  12.566  18.133  11.541
60423W        W32094  16.568  16.991  14.840
60424W        W32095  25.624  13.280  10.480
60425W        W32096  22.246  40.092  14.843
60426W        W32097   8.628   4.276  11.670
60427W        W32098  39.787  12.909   0.908
60428W        W32099  24.776   9.204  13.935
60429W        W32100   9.854  15.638   3.330
60430W        W32101  19.040  30.238   4.964
60431W        W32102   6.901   1.973   1.804
60432W        W32103   2.298  41.648   5.098
60433W        W32104   9.936  13.235   1.383
60434W        W32105  10.076  26.194  14.038
60435W        W32106  31.387  13.821  12.469
60436W        W32107  18.073  15.062   0.324
60437W        W32108   5.240  29.159   2.281
60438W        W32109  19.264  32.438   3.736
60439W        W32110  13.972  32.703  12.075
60440W        W32111  31.902  19.449   2.029
60441W        W32112  34.583  26.187  12.631
60442W        W32113  12.893  37.415   5.114
60443W        W32114   6.660  23.149  11.650
60444W        W32115  30.053   6.227  12.580
60445W        W32116   1.458   1.390  14.565
60446W        W32117  25.464  21.360  10.570
60447W        W32118  25.749  39.103  11.154
60448W        W32119  39.094   3.162  12.444
60449W        W32120   1.851  34.629   0.799
60450W        W32121  33.363   9.309  11.685
60451W        W32122  36.024  39.835   2.226
60452W        W32123  38.412  42.824  10.565
60453W        W32124  26.642  16.235   4.938
60454W        W32125  10.381   6.354   0.802
60455W        W32126  32.052   0.187   1.262
60456W        W32127  18.082  32.098  11.175
60457W        W32128  23.102  36.564   0.658
60458W        W32129  37.084  39.110  11.203
60459W        W32130  18.122  20.013  10.490
60460W        W32131   0.356  35.430   1.199
60461W        W32132  23.068  29.935   3.275
60462W        W32133  21.332  26.300  12.154
60463W        W32134  21.641  20.826   0.940
60464W        W32135  33.876  37.747   4.666
60465W        W32136  14.802   5.748   1.732
60466W        W32137  23.776  36.912   4.867
60467W        W32138  11.383  24.024   2.883
60468W        W32139  43.468  38.205  14.006
60469W        W32140  44.501  40.368  12.852
60470W        W32141  17.117  16.390   4.774
60471W        W32142  41.794  30.496   1.400
60472W        W32143   8.952  43.024  14.502
60473W        W32144   3.998   8.386  11.554
60474W        W32145  26.163  41.546  11.181
60475W        W32146  19.661  30.422   2.787
60476W        W32147  30.551  29.930  10.506
60477W        W32148  42.364  23.585  13.619
60478W        W32149  22.296  37.833   0.313
60479W        W32150  34.417  26.771   0.301
60480W        W32151  42.832  23.335  12.104
60481W        W32152   3.804   2.782  11.962
60482W        W32153  19.735  41.373   4.370
60483W        W32154   9.405  11.279  10.414
60484W        W32155   8.939  35.903   3.706
60485W        W32156  14.817  22.060  14.371
60486W        W32157   8.304  32.889   1.328
60487W        W32158  19.908  23.736  13.496
60488W        W32159  23.952  30.136  10.745
60489W        W32160  21.672  33.178  13.395
60490W        W32161  29.079  37.833   0.074
60491W        W32162  35.917   9.708   4.558
60492W        W32163   3.473   0.401  10.743
60493W        W32164  16.794  25.007  11.996
60494W        W32165  10.877  38.443  13.536
60495W        W32166  28.309  39.598   3.134
60496W        W32167  38.480   0.428  13.511
60497W        W32168  37.777  12.874  13.544
60498W        W32169  40.209  28.488   4.502
60499W        W32170  35.302  14.831  12.336
60500W        W32171  42.746   4.883  13.797
60501W        W32172  17.487  21.154  14.849
60502W        W32173  43.332   7.475  10.116
60503W        W32174  27.301   2.443   4.955
60504W        W32175   0.326  28.640  13.953
60505W        W32176  36.543  42.975  12.542
60506W        W32177   1.817  43.960  10.728
60507W        W32178   0.725  37.241   0.445
60508W        W32179  43.484  21.306  10.510
60509W        W32180  12.475   4.657   4.210
60510W        W32181  35.519  44.332   0.626
60511W        W32182  27.451  43.473   0.350
60512W        W32183  30.563  38.331  11.598
60513W        W32184   7.556  31.539  13.845
60514W        W32185  29.300  12.006  13.845
60515W        W32186   3.800  37.264  13.412
60516W        W32187  29.942  35.994   9.924
60517W        W32188  20.941  39.930   9.733
60518W        W32189   6.777  16.032  12.965
60519W        W32190  10.636   7.617  10.798
60520W        W32191  17.073  20.660   4.630
60521W        W32192   4.943  39.898   1.809
60522W        W32193  11.214  44.409   4.023
60523W        W32194  15.067   6.454  14.991
60524W        W32195  31.379  43.541   2.932
60525W        W32196   9.472  24.589  11.134
60526W        W32197   8.867  20.910  11.641
60527W        W32198  21.478  23.266  12.580
60528W        W32199   7.267  19.709   3.992
60529W        W32200  27.188  42.426  11.028
60530W        W32201   6.662  21.981   4.195
60531W        W32202  25.464  44.183   2.770
60532W        W32203  23.820  40.579   4.372
60533W        W32204  39.398  44.941  11.384
60534W        W32205  40.845   8.189  14.094
60535W        W32206  17.313  24.170   4.539
60536W        W32207  34.974   9.405   2.352
60537W        W32208  43.365  16.109  10.602
60538W        W32209   8.637   6.139  11.453
60539W        W32210  25.620  39.622   4.392
60540W        W32211   5.877   9.944  14.472
60541W        W32212  40.981  14.119  11.557
60542W        W32213  17.484  20.925  11.072
60543W        W32214  31.101   7.154   4.603
60544W        W32215  22.948  26.446   3.298
60545W        W32216  38.270  33.080   0.301
60546W        W32217  38.410  38.829  11.591
60547W        W32218  15.546  13.559   2.422
60548W        W32219  16.064  18.761  14.418
60549W        W32220   5.231  38.970   0.963
60550W        W32221   9.656   0.519  14.076
60551W        W32222  13.309  44.710   2.230
60552W        W32223  40.724  32.575  13.838
60553W        W32224   3.560  39.406   1.820
60554W        W32225   3.424  14.255  14.194
60555W        W32226  21.516  12.156  11.603
60556W        W32227   6.460  38.890   2.320
60557W        W32228   3.082  20.797  14.609
60558W        W32229  28.031  26.639  10.257
60559W        W32230  40.899   0.478   3.810
60560W        W32231  41.603  30.870   3.508
60561W        W32232  36.302   8.250  11.158
60562W        W32233  10.677  44.483  12.654
60563W        W32234  44.869  23.190   9.766
60564W        W32235  22.618  41.026  14.522
60565W        W32236  39.440  42.536   0.636
60566W        W32237   9.378   1.243   2.860
60567W        W32238   1.389  13.884  13.827
60568W        W32239   6.326  14.810   2.366
60569W        W32240  19.938  28.328   3.770
60570W        W32241   7.359  40.433   1.223
60571W        W32242  16.644  25.985  11.001
60572W        W32243  44.819  31.414  12.631
60573W        W32244  14.310  35.435   1.711
60574W        W32245  34.910   2.258   4.276
60575W        W32246  23.636   0.702   1.529
60576W        W32247  20.837   3.263  14.382
60577W        W32248  31.631  11.560  11.059
60578W        W32249  41.861  30.497  14.533
60579W        W32250  36.945  27.998   1.904
60580W        W32251   2.442  11.811   4.536
60581W        W32252  23.995  11.041  12.074
60582W        W32253  14.160  16.495  10.507
60583W        W32254  43.855  14.076  11.991
60584W        W32255  42.905   1.757  11.547
60585W        W32256   7.844   5.382  14.355
60586W        W32257  33.501  10.056   5.049
60587W        W32258  31.065  22.202   4.179
60588W        W32259  36.923  29.428  14.806
60589W        W32260  43.519  29.032   2.823
60590W        W32261  19.835   4.368  10.663
60591W        W32262  20.307  34.589  11.403
60592W        W32263  18.539  35.349   4.229
60593W        W32264  37.922  11.666   0.684
60594W        W32265  16.607   5.307   3.178
60595W        W32266   1.888  37.970   2.114
60596W        W32267  20.178  12.737  11.137
60597W        W32268  18.876   2.457   3.670
60598W        W32269  18.565   0.792   1.652
60599W        W32270  10.449  21.222  14.190
60600W        W32271   7.172  11.576  11.556
60601W        W32272  37.020  15.267  10.508
60602W        W32273   4.881  29.958  12.641
60603W        W32274   3.893  25.554   2.265
60604W        W32275   3.257  29.082  12.950
60605W        W32276  25.005  22.360   1.466
60606W        W32277   4.370   5.287  14.018
60607W        W32278  26.786  28.513   0.919
60608W        W32279  41.430  20.757   4.521
60609W        W32280  31.409  42.813   4.532
60610W        W32281  25.156  42.457   0.679
60611W        W32282  37.577   0.354  11.166
60612W        W32283  34.561  38.996  13.335
60613W        W32284  24.847  11.067  11.255
60614W        W32285   7.303  20.782   4.792
60615W        W32286  43.440  36.364  12.173
60616W        W32287  30.366   7.615   5.367
60617W        W32288  22.553  10.004   9.860
60618W        W32289  36.356   1.319  12.414
60619W        W32290  19.704  11.001   2.776
60620W        W32291   2.351   0.355   4.091
60621W        W32292   8.660  33.968   3.636
60622W        W32293  25.293   8.322   2.762
60623W        W32294   3.700  18.680  11.000
60624W        W32295  20.282  25.789  11.130
60625W        W32296  32.588  35.178  12.442
60626W        W32297  11.261  36.643  13.131
60627W        W32298   8.878  14.413   4.557
60628W        W32299   4.348  18.073   0.487
60629W        W32300  37.591  10.164  13.042
60630W        W32301   6.431  19.679  14.661
60631W        W32302  13.634  27.058   0.853
60632W        W32303  25.811  27.034  14.304
60633W        W32304   9.140  27.970   1.863
60634W        W32305  38.124  21.167   4.877
60635W        W32306  16.619  24.140  13.562
60636W        W32307  34.528   4.901   2.851
60637W        W32308   7.963   7.977  11.137
60638W        W32309  43.769  29.149  14.515
60639W        W32310  21.037  22.744  13.708
60640W        W32311   7.371  17.519  12.497
60641W        W32312  23.550  24.473   2.910
60642W        W32313  36.789  22.770  10.593
60643W        W32314  23.413  38.421  10.570
60644W        W32315   6.658  26.732  12.601
60645W        W32316   2.972  35.042   3.744
60646W        W32317  36.286  38.844  13.975
60647W        W32318   4.248  20.777   0.846
60648W        W32319  14.473  36.318   2.390
60649W        W32320  33.009  37.649  14.267
60650W        W32321  35.274  33.234  10.747
60651W        W32322  42.401  33.861   2.898
60652W        W32323  15.129   6.759   3.746
60653W        W32324  13.815  14.114  13.868
60654W        W32325  16.055  23.671  13.113
60655W        W32326  21.250  30.869   0.024
60656W        W32327  13.871  41.035   2.617
60657W        W32328   3.302  34.973   5.286
60658W        W32329   6.454  20.504   0.326
60659W        W32330  33.728  40.290  11.564
60660W        W32331  13.551  16.108   1.694
60661W        W32332   4.907  40.106  12.464
60662W        W32333  22.484  17.693  10.517
60663W        W32334  26.143  40.933  12.807
60664W        W32335  16.687   0.505   4.292
60665W        W32336  33.426   0.443  14.993
60666W        W32337  38.099  27.266  13.076
60667W        W32338  32.632  26.556   1.475
60668W        W32339  42.635  31.937   0.855
60669W        W32340  22.720   5.327   1.799
60670W        W32341   7.316  20.874  13.018
60671W        W32342  35.629  31.535   0.836
60672W        W32343  21.766  28.228   4.209
60673W        W32344  28.194  44.521  14.112
60674W        W32345  41.492  36.977   0.189
60675W        W32346   2.313   1.347  13.789
60676W        W32347   4.682  20.747  12.529
60677W        W32348  32.685  32.780   0.154
60678W        W32349  22.643  26.903  10.370
60679W        W32350  21.540  17.742  10.580
60680W        W32351  23.847  14.254  12.040
60681W        W32352   6.729  41.243   3.694
60682W        W32353  32.465   7.130  14.903
60683W        W32354  18.643   8.080  13.750
60684W        W32355  35.433  10.759  14.832
60685W        W32356  13.764  16.403  14.442
60686W        W32357  37.386  43.695  11.966
60687W        W32358   5.837  40.308   4.331
60688W        W32359   8.984  16.304  13.789
60689W        W32360   1.271   0.176  14.706
60690W        W32361  44.417  17.280  11.816
60691W        W32362  23.812  37.954   1.631
60692W        W32363   8.225  40.746  11.224
60693W        W32364   4.272  26.574   0.428
60694W        W32365  39.832  11.090  14.378
60695W        W32366   9.654  23.257  13.799
60696W        W32367  24.404   3.872   3.220
60697W        W32368  16.540   5.989  14.384
60698W        W32369  17.649  37.567  13.802
60699W        W32370  44.791   1.821  14.558
60700W        W32371  33.767  27.259  14.669
60701W        W32372   0.331  12.955   4.562
60702W        W32373  34.440  32.395   3.244
60703W        W32374  32.103  22.280  12.424
60704W        W32375  31.695   2.248  13.608
60705W        W32376   2.162  19.724   0.776
60706W        W32377  36.031  13.630   1.280
60707W        W32378   1.288  14.874   0.358
60708W        W32379  27.512  34.773  10.658
60709W        W32380   1.937  32.246   1.056
60710W        W32381   9.914  17.023   1.954
60711W        W32382  17.200   2.261  10.165
60712W        W32383  35.506  13.388   2.265
60713W        W32384  39.056  22.728  11.935
60714W        W32385  34.029  11.376   3.357
60715W        W32386  44.178  13.592  11.229
60716W        W32387  43.390   5.882  13.116
60717W        W32388  11.769  36.075  14.461
60718W        W32389  15.041  16.229  13.061
60719W        W32390  29.377  24.113  13.466
60720W        W32391  31.315  39.391   2.722
60721W        W32392  40.893  33.553  13.851
60722W        W32393  15.806  36.984  10.838
60723W        W32394  20.209  39.029  12.901
60724W        W32395  27.650   4.474   0.410
60725W        W32396  36.014   0.805   3.856
60726W        W32397  14.935   3.700   4.757
60727W        W32398   4.046   9.668  14.845
60728W        W32399   9.708   8.625  12.997
60729W        W32400  19.796  17.063  11.585
60730W        W32401  34.870  20.437  12.023
60731W        W32402  30.569  36.977  13.536
60732W        W32403  27.439  39.259  13.079
60733W        W32404  24.674  16.048  12.023
60734W        W32405  29.377  25.110   1.424
60735W        W32406  17.746  34.885   2.353
60736W        W32407   8.423   6.151  13.444
60737W        W32408  34.826  11.102   1.734
60738W        W32409  10.303  24.527  14.295
60739W        W32410   9.238  34.330   2.695
60740W        W32411  20.246  40.328  13.429
60741W        W32412  10.785   9.443  11.660
60742W        W32413   3.275  40.529  13.270
60743W        W32414  19.175   1.054   3.129
60744W        W32415   0.758  11.813   2.218
60745W        W32416  27.681   0.898  13.312
60746W        W32417  21.272  29.074  14.359
60747W        W32418  40.004  21.129   0.725
60748W        W32419  38.808  28.662   1.856
60749W        W32420  40.469  41.402  13.431
60750W        W32421  41.545   9.830  12.410
60751W        W32422  18.484  36.368   2.566
60752W        W32423  44.390  27.501   3.647
60753W        W32424  30.763  28.004   2.411
60754W        W32425   5.145  13.934   0.359
60755W        W32426  33.946  14.424   1.510
60756W        W32427  22.132  13.783  11.911
60757W        W32428  18.160   0.598  11.417
60758W        W32429  41.977  40.552  11.051
60759W        W32430  16.573   8.405   1.170
60760W        W32431  17.784  30.027   1.419
60761W        W32432   5.816  36.018   4.886
60762W        W32433  21.361  35.994   1.067
60763W        W32434  24.358  41.705   4.918
60764W        W32435  29.897  27.003   1.670
60765W        W32436   9.307  32.475  12.778
60766W        W32437  37.460  18.485   3.651
60767W        W32438   9.519  42.880   5.025
60768W        W32439  23.000   5.298   0.029
60769W        W32440  11.647   0.308  11.080
60770W        W32441  36.478   0.827  10.743
60771W        W32442   4.160  19.316  14.927
60772W        W32443  25.158   1.187  14.336
60773W        W32444   5.656  33.645   4.571
60774W        W32445  26.600  12.936   0.662
60775W        W32446  35.937  14.533  13.949
60776W        W32447  21.034  29.671  11.119
60777W        W32448  36.830  11.818  12.949
60778W        W32449  40.535  20.518   4.180
60779W        W32450   7.872  40.706   0.458
60780W        W32451   9.268  41.739   1.931
60781W        W32452   0.186  44.987  11.524
60782W        W32453   8.087  22.707  10.977
60783W        W32454  12.686  31.051  11.675
60784W        W32455  31.419  30.353   3.317
60785W        W32456   9.899  33.162   2.727
60786W        W32457  38.857  21.498   2.726
60787W        W32458  22.072  41.731  14.564
60788W        W32459   8.208  11.807   2.322
60789W        W32460  15.211   7.333   4.504
60790W        W32461  15.687  18.239  12.840
60791W        W32462  29.016  44.190   3.908
60792W        W32463  18.401  17.590  13.873
60793W        W32464  10.371  33.713  10.786
60794W        W32465  24.988   0.431  12.575
60795W        W32466   8.303   9.099  13.882
60796W        W32467  42.254  22.140   4.033
60797W        W32468   3.348  30.761  11.998
60798W        W32469  11.770  11.684  12.340
60799W        W32470  42.451  11.530   3.350
60800W        W32471  27.320  17.159   4.101
60801W        W32472   3.102  19.365   3.966
60802W        W32473  35.503  37.480  14.535
60803W        W32474  16.835  42.855   0.397
60804W        W32475  25.583   4.536  14.113
60805W        W32476  35.090  28.170   1.739
60806W        W32477  24.667  22.214   0.532
60807W        W32478  39.107  11.193  12.693
60808W        W32479  37.839  39.464   5.482
60809W        W32480   4.384  30.629   1.256
60810W        W32481  40.418   4.772   4.581
60811W        W32482  43.453   7.273   1.337
60812W        W32483  15.845  22.479   9.923
60813W        W32484   7.431   4.393   3.173
60814W        W32485  16.573  31.126  11.094
60815W        W32486  22.243   9.791  10.541
60816W        W32487  16.791   3.227   2.256
60817W        W32488  27.812  20.637   2.360
60818W        W32489  23.945  44.361   3.192
60819W        W32490  27.210  43.007  12.459
60820W        W32491  23.567  18.707   2.614
60821W        W32492  32.255  17.606  13.815
60822W        W32493  25.644  11.291   0.885
60823W        W32494  29.470  11.792  12.358
60824W        W32495  41.335   8.802   1.984
60825W        W32496  40.836   9.295  12.093
60826W        W32497  29.900  18.868   4.108
60827W        W32498  35.008  20.186  12.524
60828W        W32499  33.319   5.701   3.627
60829W        W32500  33.691  23.356  14.028
60830W        W32501  24.754  22.686  13.515
60831W        W32502  23.459   5.377  13.717
60832W        W32503  22.128  22.279  13.252
60833W        W32504  14.112  24.115   0.752
60834W        W32505   9.120  39.960   3.644
60835W        W32506  23.846   3.880   1.005
60836W        W32507  16.791  29.493  13.029
60837W        W32508  41.187  11.665   3.417
60838W        W32509  39.343  25.098  14.320
60839W        W32510  27.927   5.298   3.754
60840W        W32511   6.945  34.828   4.258
60841W        W32512  24.598   2.299  13.149
60842W        W32513  13.285   3.588   2.064
60843W        W32514  29.849  42.066  12.941
60844W        W32515  42.789   8.305  10.580
60845W        W32516  37.884  11.111   2.491
60846W        W32517   5.663  38.697   2.745
60847W        W32518  14.741  20.313  14.886
60848W        W32519  44.647  41.969  12.504
60849W        W32520  40.055  40.837   0.346
60850W        W32521  28.944   2.741   1.764
60851W        W32522   2.772  23.668  13.400
60852W        W32523  26.711  15.461   3.028
60853W        W32524  42.179  15.681  13.378
60854W        W32525  39.973  43.248  11.925
60855W        W32526  39.330  30.902  14.364
60856W        W32527   3.720   3.503   0.713
60857W        W32528  25.503  31.882   3.762
60858W        W32529  26.175  28.516   1.285
60859W        W32530  27.137   9.675   4.206
60860W        W32531  11.856   8.885  13.597
60861W        W32532  17.996  10.462   0.280
60862W        W32533  25.603  10.315  13.484
60863W        W32534  40.922  16.260  14.241
60864W        W32535  12.869  35.792   1.384
60865W        W32536  38.898  37.082   1.915
60866W        W32537   8.914   8.392   3.253
60867W        W32538  18.971  34.726   3.896
60868W        W32539   8.956  31.219  12.046
60869W        W32540  29.507  30.764   3.164
60870W        W32541  12.667   8.257  11.339
60871W        W32542  42.519   5.778  13.192
60872W        W32543  37.978  44.563   2.940
60873W        W32544  25.636  15.587   4.752
60874W        W32545  37.357  36.764   3.633
60875W        W32546  18.097  32.104   3.206
60876W        W32547  32.431  44.748   4.564
60877W        W32548  10.277  31.904  13.967
60878W        W32549  34.662  32.327  11.546
60879W        W32550   2.867  34.108   1.450
60880W        W32551  29.960  16.364  12.107
60881W        W32552  34.045   2.936   1.877
60882W        W32553   3.931  31.331   2.881
60883W        W32554  19.680  17.591  10.891
60884W        W32555   8.573  38.621   9.935
60885W        W32556  18.678  10.590   3.849
60886W        W32557  36.108  44.452  13.487
60887W        W32558   9.218  19.938  10.456
60888W        W32559  24.726   7.815   3.411
60889W        W32560  20.268  12.695  12.115
60890W        W32561  22.849  17.045   3.746
60891W        W32562  25.420  41.024   1.204
60892W        W32563  40.412  35.636  10.922
60893W        W32564  26.773  29.468  12.439
60894W        W32565   1.331  32.120   4.927
60895W        W32566   2.372  33.796   0.206
60896W        W32567   1.960  33.202   4.121
60897W        W32568  26.957  22.042  12.580
60898W        W32569  24.991  22.659   2.336
60899W        W32570  15.169  28.194   0.901
60900W        W32571  19.888  27.998   1.988
60901W        W32572  16.211  30.999  14.238
60902W        W32573   1.209  41.638   2.389
60903W        W32574  43.982  28.434  10.511
60904W        W32575  16.373  19.200  14.378
60905W        W32576  26.161  16.001   1.731
60906W        W32577  32.495  44.612   3.671
60907W        W32578  24.887   3.915   3.087
60908W        W32579  19.876  19.143  13.882
60909W        W32580  24.925  12.696   2.434
60910W        W32581  39.397  34.540  12.450
60911W        W32582  11.128  20.769  12.809
60912W        W32583  21.582  24.826   1.746
60913W        W32584  20.773   6.204   0.359
60914W        W32585  23.635  18.241  12.561
60915W        W32586   7.194  10.564   1.679
60916W        W32587   2.826  24.586  14.924
60917W        W32588  28.959  34.614   0.409
60918W        W32589  37.895   4.251   3.713
60919W        W32590  28.022  18.254   1.274
60920W        W32591  10.409   5.340  12.844
60921W        W32592  40.973  18.282  13.077
60922W        W32593  13.722   6.447  11.417
60923W        W32594  11.330  18.312   1.188
60924W        W32595  12.100  37.171   3.914
60925W        W32596  31.245  11.965  13.014
60926W        W32597  28.552  29.438   2.935
60927W        W32598  32.413  32.249  10.516
60928W        W32599  30.001  14.843  12.130
60929W        W32600  20.125  37.546   3.107
60930W        W32601  14.792  19.208  11.019
60931W        W32602  29.319  28.486   4.424
60932W        W32603  29.374   6.547  12.002
60933W        W32604  21.705  16.830  14.456
60934W        W32605   4.179  16.116  14.245
60935W        W32606  23.430   0.570  14.483
60936W        W32607  20.288  28.098   3.210
60937W        W32608  19.265  19.787   4.968
60938W        W32609  27.936  17.797   4.776
60939W        W32610   3.764  44.444   0.371
60940W        W32611  42.520  32.188   0.387
60941W        W32612  21.234   7.818  13.857
60942W        W32613   9.761  21.287  14.705
60943W        W32614  31.398  41.999  14.416
60944W        W32615  44.969  44.485   4.115
60945W        W32616  30.861  32.556   4.733
60946W        W32617  21.640  20.310   4.326
60947W        W32618  36.024  44.986   0.736
60948W        W32619  12.267  34.040  13.977
60949W        W32620   1.437   3.523  11.071
60950W        W32621  30.925  15.497   3.385
60951W        W32622   9.691  11.778   3.692
60952W        W32623  42.577   8.973   0.289
60953W        W32624   9.942  28.969   1.218
60954W        W32625  11.182  43.496   4.053
60955W        W32626  34.191   1.224   4.100
60956W        W32627  21.140   2.457   1.114
60957W        W32628  41.415  42.339   1.341
60958W        W32629  31.598   2.264  11.123
60959W        W32630  14.826  25.147   0.450
60960W        W32631  23.703  14.313   3.698
60961W        W32632  23.598  30.890  11.043
60962W        W32633   9.802  35.387   4.600
60963W        W32634  30.725   2.727  10.768
60964W        W32635  21.535  13.671   4.782
60965W        W32636   0.257  35.921  13.909
60966W        W32637   1.405  35.845  12.009
60967W        W32638  36.467   7.497   4.157
60968W        W32639  31.048  38.425   3.515
60969W        W32640  23.057  29.451   0.014
60970W        W32641  19.710  24.993   0.023
60971W        W32642  24.323  30.891  12.013
60972W        W32643  15.165  39.069  14.726
60973W        W32644  33.831   9.092   1.780
60974W        W32645   4.909  44.241   4.451
60975W        W32646  41.781  30.759  10.799
60976W        W32647  19.895  30.424  14.475
60977W        W32648   6.160  13.842  11.145
60978W        W32649  12.349  31.939  11.420
60979W        W32650  26.764   7.590  11.085
60980W        W32651  44.933  43.809   1.813
60981W        W32652  34.310  33.244   2.224
60982W        W32653  16.829  11.087   4.888
60983W        W32654  24.558  16.794   4.023
60984W        W32655   7.944  17.116   4.096
60985W        W32656  30.205   0.878  14.241
60986W        W32657  16.820  14.776   2.078
60987W        W32658  29.955  33.868  11.582
60988W        W32659  13.137  14.112  12.160
60989W        W32660  29.163  11.275  14.180
60990W        W32661  36.874  12.289   4.988
60991W        W32662  28.984  30.399   2.330
60992W        W32663  23.901  11.809  13.460
60993W        W32664   0.560  14.022   9.994
60994W        W32665  12.867  20.118  13.106
60995W        W32666  21.656  11.778  10.995
60996W        W32667  28.518  10.795   1.872
60997W        W32668  30.152  21.728  14.131
60998W        W32669  39.772  36.052   0.754
60999W        W32670  36.743   8.218  10.885
61000W        W32671  42.622  17.240  13.742
61001W        W32672  29.487   8.829  10.560
61002W        W32673  13.037  17.842   2.730
61003W        W32674  22.237  16.145  11.094
61004W        W32675   8.284  38.327  10.738
61005W        W32676  10.407   5.573   4.596
61006W        W32677  37.839   8.588  10.623
61007W        W32678   8.926   3.425  14.872
61008W        W32679   1.226  38.476   2.326
61009W        W32680  30.561  14.898  11.516
61010W        W32681  43.851  30.747  14.932
61011W        W32682  16.534   6.524   3.522
61012W        W32683  15.623  29.414  12.476
61013W        W32684  42.575  11.111  13.910
61014W        W32685   7.297  23.717   4.639
61015W        W32686  37.729  43.913   4.264
61016W        W32687  29.192  15.069  12.973
61017W        W32688  23.109   6.971  14.353
61018W        W32689  30.208  26.374   4.004
61019W        W32690   0.459  41.594   2.671
61020W        W32691  41.491  30.374   3.591
61021W        W32692  16.211  29.034   3.660
61022W        W32693  33.818  40.416   0.670
61023W        W32694  31.146  17.038   3.190
61024W        W32695   6.779  22.951   3.731
61025W        W32696  35.175  39.879  13.324
61026W        W32697  35.667   7.947   0.711
61027W        W32698  20.674   9.859   2.560
61028W        W32699  14.758  18.272  12.450
61029W        W32700  42.788  18.083   0.293
61030W        W32701  43.956  25.697  10.477
61031W        W32702  22.076  16.308   4.239
61032W        W32703  44.957  34.972  13.494
61033W        W32704  42.225   1.344  13.499
61034W        W32705  22.441  38.037  13.909
61035W        W32706  20.140  35.991  13.339
61036W        W32707   0.821  15.936   3.514
61037W        W32708  24.570  21.954   2.777
61038W        W32709  27.512   4.428  14.913
61039W        W32710  25.555  19.176   4.704
61040W        W32711  31.500  21.551  10.328
61041W        W32712  38.201   1.414   2.781
61042W        W32713   4.945  26.512   3.254
61043W        W32714  21.578   8.158   4.611
61044W        W32715  28.481   4.988   2.862
61045W        W32716  27.551  14.746   4.951
61046W        W32717   1.984  24.514   3.626
61047W        W32718  28.691  34.984  11.973
61048W        W32719  31.567  18.620   4.605
61049W        W32720  40.150  15.345   4.128
61050W        W32721  36.863   8.356  13.317
61051W        W32722   5.992  21.221  13.030
61052W        W32723  20.892  25.700   1.994
61053W        W32724  39.634   5.653  11.066
61054W        W32725  43.733   8.703   0.865
61055W        W32726  32.921  35.569   3.301
61056W        W32727  32.018  37.558   3.172
61057W        W32728  21.656  30.441  14.265
61058W        W32729  37.879  10.929   2.955
61059W        W32730  18.386   2.378  13.772
61060W        W32731  36.365  42.925   1.090
61061W        W32732   2.854  36.089   3.744
61062W        W32733  10.402   0.651   0.859
61063W        W32734  17.130  10.940   0.678
61064W        W32735  33.181  16.096   1.871
61065W        W32736   8.066  41.330  14.488
61066W        W32737  37.171   8.838   4.144
61067W        W32738   1.285  13.295   1.106
61068W        W32739  25.766  43.473   2.411
61069W        W32740  17.911  28.890  10.797
61070W        W32741  13.621  38.124   1.943
61071W        W32742  18.622  35.936   4.158
61072W        W32743  21.822  20.194   0.202
61073W        W32744   6.710   2.259   2.188
61074W        W32745  28.540  16.851  14.827
61075W        W32746  38.628  38.382   2.301
61076W        W32747  12.704  39.979   1.307
61077W        W32748   7.238  24.495  10.860
61078W        W32749  38.413   1.678  12.683
61079W        W32750  36.478  42.949   9.952
61080W        W32751  39.709  17.999   0.886
61081W        W32752  23.741  26.089  11.605
61082W        W32753  32.055   9.714   2.881
61083W        W32754  23.630  17.234  14.492
61084W        W32755  40.540  15.836   9.842
61085W        W32756  26.812   5.502   2.852
61086W        W32757  19.634   2.029   4.809
61087W        W32758  37.444  19.083  12.498
61088W        W32759  18.183  10.642  13.589
61089W        W32760   0.515   6.807   3.817
61090W        W32761   8.752   8.402  12.046
61091W        W32762  27.965  39.849  11.465
61092W        W32763   2.946  29.296   3.596
61093W        W32764  13.157  26.056  13.937
61094W        W32765  40.494  17.067  11.582
61095W        W32766   4.069   3.801  14.392
61096W        W32767  10.289   2.894  12.469
61097W        W32768  16.236  31.856  11.686
61098W        W32769  32.043  27.432   4.117
61099W        W32770  17.183  34.121   4.321
61100W        W32771  24.609   8.691   1.282
61101W        W32772   4.803  30.948   3.263
61102W        W32773  16.149  29.022  12.044
61103W        W32774   5.661  23.976  13.153
61104W        W32775  21.594  16.313  14.444
61105W        W32776  17.290  12.684  11.584
61106W        W32777  29.570   2.660   2.255
61107W        W32778  31.181  29.460   0.814
61108W        W32779  41.330  30.454  13.380
61109W        W32780  12.791  16.580   3.370
61110W        W32781   3.413  14.838   0.481
61111W        W32782  27.211   7.835   1.838
61112W        W32783  14.680   1.412   3.684
61113W        W32784  44.806  38.457   2.404
61114W        W32785  26.628  19.233   0.312
61115W        W32786  44.493  34.492   4.502
61116W        W32787   7.740  19.521   4.107
61117W        W32788  26.137  28.707   2.829
61118W        W32789  35.663  33.709  11.426
61119W        W32790  11.713  36.532  12.113
61120W        W32791  39.902   0.328   4.798
61121W        W32792  23.968  12.860   3.649
61122W        W32793  40.584   2.453  10.771
61123W        W32794  26.420  13.924   0.722
61124W        W32795  29.403  15.091  14.374
61125W        W32796  36.393  14.132   0.247
61126W        W32797  39.258  11.653  14.262
61127W        W32798  43.282  28.195  14.615
61128W        W32799  24.750   3.406   1.798
61129W        W32800   9.343  32.013  11.648
61130W        W32801  16.072  43.737  13.673
61131W        W32802   7.817  33.392   1.886
61132W        W32803   4.174  27.415   0.786
61133W        W32804  31.251  20.572  13.521
61134W        W32805  23.658  42.041   1.430
61135W        W32806   5.437  14.820  11.759
61136W        W32807  15.718  42.502  12.071
61137W        W32808  31.913  33.865   4.324
61138W        W32809  13.632  11.417  12.840
61139W        W32810  34.510  40.000   1.691
61140W        W32811  35.873  26.048   3.204
61141W        W32812   3.127  11.748  11.068
61142W        W32813   5.423   8.829   0.071
61143W        W32814  28.656  12.278   4.703
61144W        W32815  30.152  16.761   0.716
61145W        W32816   4.453  37.612   1.781
61146W        W32817   1.675  12.989   2.748
61147W        W32818  42.821  26.549  12.671
61148W        W32819  42.065  34.126  11.155
61149W        W32820   3.738  10.877  11.029
61150W        W32821  41.859  27.681  11.659
61151W        W32822  19.129   3.023   2.303
61152W        W32823  14.779   3.705  13.583
61153W        W32824   2.066  24.376  11.763
61154W        W32825  41.933  35.820  13.568
61155W        W32826  44.680  29.558  12.336
61156W        W32827   4.136  31.472   3.578
61157W        W32828  25.482   8.955   3.555
61158W        W32829   7.527  18.921  11.170
61159W        W32830  40.330  10.304  14.717
61160W        W32831  24.112  27.349   2.311
61161W        W32832  21.520  43.568  13.173
61162W        W32833  43.820  38.272   4.278
61163W        W32834  26.857   5.320  11.300
61164W        W32835  41.905  32.373   3.897
61165W        W32836  28.897  40.361   2.299
61166W        W32837   9.462  10.124   1.605
61167W        W32838  23.177  34.302   3.184
61168W        W32839  19.598  10.495   3.690
61169W        W32840  30.640  12.793   3.191
61170W        W32841  41.086   2.932   1.286
61171W        W32842   3.237  36.011   0.097
61172W        W32843  43.363  43.158   2.132
61173W        W32844   6.045  18.105   0.000
61174W        W32845   4.910   7.202  13.893
61175W        W32846   0.002  11.849   3.701
61176W        W32847  17.660  27.220  14.368
61177W        W32848  21.529   6.730   3.610
61178W        W32849  11.678  24.960  14.970
61179W        W32850   4.141  38.007   4.784
61180W        W32851   7.610  21.806   3.475
61181W        W32852  31.405  24.046   1.958
61182W        W32853   9.134  38.824  12.949
61183W        W32854  35.253   9.408  11.232
61184W        W32855  12.822  36.455  14.844
61185W        W32856  31.036  28.415  12.734
61186W        W32857  44.429  27.961   4.211
61187W        W32858   5.271  18.472  11.342
61188W        W32859   4.817  17.619   1.063
61189W        W32860  36.401  16.230   2.332
61190W        W32861   4.941  13.208  14.402
61191W        W32862  32.007  15.245   3.309
61192W        W32863  24.880   9.473   3.396
61193W        W32864  15.598  34.598   3.209
61194W        W32865  27.593  12.616   2.695
61195W        W32866  43.761  16.014   4.324
61196W        W32867  25.507  39.488   3.904
61197W        W32868   0.877  43.249   3.647
61198W        W32869  10.181  28.420   2.246
61199W        W32870   3.937   5.749  12.923
61200W        W32871  28.682  29.149  12.017
61201W        W32872   1.012  18.086   2.927
61202W        W32873  39.142  27.654  12.610
61203W        W32874  35.072  28.876  13.967
61204W        W32875  15.539  20.454   1.438
61205W        W32876  43.789  44.067  13.888
61206W        W32877   6.907  18.306  13.367
61207W        W32878  15.160   8.358  13.841
61208W        W32879   1.726  14.596   0.445
61209W        W32880  23.450  43.535  11.118
61210W        W32881  13.919  23.172   0.513
61211W        W32882  19.948   3.431  14.586
61212W        W32883  23.096   3.140  12.165
61213W        W32884  23.975  40.439  13.856
61214W        W32885  21.414   0.891   4.893
61215W        W32886  28.852  25.072   1.338
61216W        W32887  36.339  31.416   0.881
61217W        W32888   6.878  28.505  12.328
61218W        W32889  22.304  34.877  14.432
61219W        W32890  33.794  22.469   2.823
61220W        W32891  14.764  24.905  13.748
61221W        W32892   7.980  41.057  14.046
61222W        W32893  14.795   9.457   2.245
61223W        W32894  17.518  30.140  14.772
61224W        W32895  18.781  11.892  13.042
61225W        W32896  29.486  35.617   4.099
61226W        W32897  16.310  16.831   1.323
61227W        W32898  15.293   9.669   4.587
61228W        W32899  17.777   3.038  14.251
61229W        W32900  23.231   2.580  10.783
61230W        W32901  15.979  38.000   1.389
61231W        W32902  22.812   1.515   4.378
61232W        W32903  15.626  21.626   2.232
61233W        W32904  15.294  27.753  10.616
61234W        W32905  26.723  21.115   1.791
61235W        W32906  32.121  35.671   2.777
61236W        W32907  27.079  42.347  11.726
61237W        W32908  29.458  27.918   2.728
61238W        W32909  31.066  33.383  10.369
61239W        W32910   6.942   2.154   3.434
61240W        W32911  32.783  30.056  10.679
61241W        W32912  42.844  33.207   0.459
61242W        W32913  31.624   8.797  13.439
61243W        W32914  29.193  43.511  11.948
61244W        W32915  34.542  30.882  11.966
61245W        W32916  30.504  42.271  11.131
61246W        W32917  19.263   6.743   0.824
61247W        W32918  17.144   7.719   2.655
61248W        W32919  24.246  35.517  13.611
61249W        W32920  20.686  32.051  13.341
61250W        W32921   0.767  10.222  11.891
61251W        W32922  28.142  21.293   2.186
61252W        W32923  25.907  19.794  11.208
61253W        W32924   4.235  25.460  13.060
61254W        W32925  17.651   3.284   3.339
61255W        W32926  14.709   4.710  13.499
61256W        W32927  24.923   3.887  13.543
61257W        W32928   5.379  10.529  11.521
61258W        W32929  11.184   0.082  11.984
61259W        W32930  17.092  32.946   1.707
61260W        W32931  42.974   5.144  10.772
61261W        W32932   9.351  41.963  14.901
61262W        W32933  21.119  20.000   2.296
61263W        W32934  21.101   6.684   4.719
61264W        W32935  30.689   3.219  11.062
61265W        W32936  29.693   4.871   0.840
61266W        W32937  15.137  38.018   4.013
61267W        W32938  37.295   1.765  11.621
61268W        W32939  44.147   3.911   0.682
61269W        W32940  10.769   2.339  14.451
61270W        W32941  28.728  31.385  13.799
61271W        W32942  22.124  41.908   1.448
61272W        W32943  14.808  13.763   2.904
61273W        W32944  38.396  36.596  12.723
61274W        W32945   0.277  23.585   5.558
61275W        W32946  40.379  38.193   1.421
61276W        W32947   9.792  36.906  13.137
61277W        W32948   0.843  43.714   1.277
61278W        W32949  35.711   8.060  12.438
61279W        W32950  31.548  41.851  13.511
61280W        W32951  29.922  23.570  13.923
61281W        W32952  25.145  40.514  14.792
61282W        W32953   3.685  31.415   3.325
61283W        W32954  10.239  37.331  13.655
61284W        W32955   6.871   6.393  11.206
61285W        W32956  21.574  15.643   0.198
61286W        W32957  22.186  15.726   3.235
61287W        W32958  16.552   9.824   2.024
61288W        W32959  17.347   7.981  13.305
61289W        W32960  19.714  29.725   1.990
61290W        W32961  38.210  30.444   4.294
61291W        W32962  31.372  20.138  14.770
61292W        W32963  12.656  20.672  10.709
61293W        W32964  37.315  17.244  10.605
61294W        W32965  22.834  10.427   2.686
61295W        W32966   8.252  37.070   0.766
61296W        W32967  43.498  42.639   1.229
61297W        W32968   3.301  17.235  11.138
61298W        W32969  12.410  37.921   2.755
61299W        W32970  31.405  26.895  13.974
61300W        W32971  37.319   7.672   0.806
61301W        W32972   7.843  25.251  14.441
61302W        W32973  20.687  40.513   2.771
61303W        W32974  39.175  24.209   4.714
61304W        W32975   5.680   3.929  11.574
61305W        W32976  17.961  30.648   3.138
61306W        W32977  23.560   3.406  13.337
61307W        W32978  22.035  43.348   1.950
61308W        W32979  35.925  42.947   3.919
61309W        W32980  40.617  25.267   0.296
61310W        W32981  36.119  27.989  13.384
61311W        W32982  17.275  11.856   3.881
61312W        W32983  33.153  16.864   4.669
61313W        W32984  39.431  35.585  11.713
61314W        W32985  34.368  25.000   0.087
61315W        W32986  23.215  33.701  10.664
61316W        W32987  25.222  41.954  14.005
61317W        W32988  41.508  10.829  14.389
61318W        W32989   0.490  22.217  11.186
61319W        W32990  33.151  24.179   4.710
61320W        W32991  15.655   3.233  10.429
61321W        W32992  11.328  13.323  14.940
61322W        W32993  25.429  13.957   3.320
61323W        W32994  30.934  28.441   0.406
61324W        W32995  34.297  33.955   3.691
61325W        W32996  22.704   4.672  13.330
61326W        W32997  19.958  12.162   9.677
61327W        W32998  34.391  17.508  11.184
61328W        W32999  29.517  41.862   4.231
61329W        W33000  42.581  38.859  10.111
61330W        W33001  39.299  31.237  12.849
61331W        W33002  23.974  28.932  10.721
61332W        W33003   8.816   7.994   4.530
61333W        W33004   2.209  44.932   4.380
61334W        W33005  33.890   4.114  14.439
61335W        W33006  43.294   7.359   3.273
61336W        W33007  35.706   7.937  11.094
61337W        W33008  17.499  43.019   4.027
61338W        W33009  25.202  33.145   0.436
61339W        W33010  13.562   2.168   1.271
61340W        W33011  22.642  15.028  12.134
61341W        W33012  18.829  27.215  13.028
61342W        W33013  30.405  11.163  12.876
61343W        W33014   3.745  42.696  13.033
61344W        W33015   7.810  15.259   2.728
61345W        W33016   9.200  26.533   2.876
61346W        W33017  14.545  36.218  13.857
61347W        W33018  17.072  41.445   2.828
61348W        W33019  10.419   7.270  14.805
61349W        W33020  13.294   1.485  12.670
61350W        W33021  34.093  17.379  10.802
61351W        W33022  44.249  28.910   1.973
61352W        W33023  18.848  24.517   9.806
61353W        W33024  41.436   7.688  11.981
61354W        W33025  36.707  10.270  12.012
61355W        W33026  44.693  30.537   2.631
61356W        W33027  43.306  12.160   2.664
61357W        W33028  41.427  12.907   2.377
61358W        W33029   0.317  20.783   2.800
61359W        W33030  29.671  35.224   2.843
61360W        W33031  42.351  10.766  11.165
61361W        W33032   4.335   6.523  12.575
61362W        W33033  43.446  25.183  11.475
61363W        W33034   0.765   8.270  13.861
61364W        W33035   2.988  19.775   4.247
61365W        W33036  35.610  27.584  12.864
61366W        W33037  43.207  15.888  12.605
61367W        W33038  36.606  41.913  14.143
61368W        W33039  34.681  27.579   4.650
61369W        W33040   4.343  27.211  11.546
61370W        W33041  24.126   6.716   4.830
61371W        W33042  23.112   3.922   1.724
61372W        W33043  22.313  34.426  13.729
61373W        W33044  32.943  33.463  11.917
61374W        W33045  27.167  32.675   2.629
61375W        W33046  44.149   9.555   0.462
61376W        W33047  43.761  33.662  14.444
61377W        W33048  33.350  29.557   4.587
61378W        W33049  36.931  39.739   3.844
61379W        W33050  37.871  44.328  10.700
61380W        W33051  44.585  43.983  10.932
61381W        W33052   4.474  34.073   1.306
61382W        W33053   1.271   2.310  14.527
61383W        W33054   7.728  30.291   1.766
61384W        W33055   7.374  22.245   3.675
61385W        W33056  16.857   9.255  12.618
61386W        W33057  33.855  22.672  11.991
61387W        W33058  26.635  26.008   1.419
61388W        W33059  18.203  10.160  11.454
61389W        W33060  27.198  30.073  14.994
61390W        W33061   3.447  16.625   0.978
61391W        W33062  26.317  10.843   4.169
61392W        W33063  42.436  11.421   0.276
61393W        W33064  15.113  40.604  11.991
61394W        W33065  23.280  20.625  13.934
61395W        W33066  17.738   8.857  11.663
61396W        W33067  22.672  33.885  13.939
61397W        W33068  10.405  38.465   3.505
61398W        W33069  34.898   7.614  11.525
61399W        W33070  11.113  39.785   3.549
61400W        W33071  28.905  35.435  11.589
61401W        W33072   0.723  10.678   2.945
61402W        W33073   0.257  33.652  13.562
61403W        W33074  27.515  12.827   4.596
61404W        W33075   1.180  37.400  14.780
61405W        W33076  23.948  25.477  13.367
61406W        W33077  28.365   9.736   2.891
61407W        W33078  41.796  10.097   2.658
61408W        W33079  27.862  33.691  14.387
61409W        W33080   6.596  27.588   0.783
61410W        W33081  17.205  11.859  13.880
61411W        W33082  30.949  11.751  13.476
61412W        W33083  22.194   5.705  10.415
61413W        W33084  30.102  31.532  10.679
61414W        W33085  11.657  19.729   0.336
61415W        W33086  22.108  36.182  12.850
61416W        W33087  30.292  39.998  14.324
61417W        W33088  22.682  12.169   3.290
61418W        W33089   0.240  38.812   0.345
61419W        W33090   6.976  31.897  12.523
61420W        W33091  38.825  22.250  12.048
61421W        W33092  34.675  29.578   2.665
61422W        W33093  40.304  17.854   0.877
61423W        W33094   6.435  12.311  13.048
61424W        W33095  41.624  25.960  11.106
61425W        W33096   8.799  21.221  13.564
61426W        W33097  30.265  32.022  11.548
61427W        W33098   6.179  22.454   3.206
61428W        W33099  33.062   0.805   3.320
61429W        W33100  38.573  44.993  14.455
61430W        W33101  21.450   0.996   1.716
61431W        W33102  44.382  32.972  12.112
61432W        W33103  36.964  44.479   3.857
61433W        W33104   1.060  40.545   4.539
61434W        W33105  22.533   0.068   2.368
61435W        W33106   2.852  19.793  13.046
61436W        W33107  27.978  44.994  13.965
61437W        W33108  11.201  29.107  10.485
61438W        W33109   1.546   6.381  14.305
61439W        W33110  11.159  35.092   3.635
61440W        W33111   6.259  44.863   1.459
61441W        W33112  11.118   3.004  10.421
61442W        W33113   4.549  21.204   2.677
61443W        W33114  29.688  26.120   1.333
61444W        W33115   7.242   5.751   4.075
61445W        W33116  41.016  18.057  13.540
61446W        W33117   6.931  33.514   1.355
61447W        W33118   0.495  31.933  11.517
61448W        W33119  20.715   2.492   3.201
61449W        W33120  25.602   1.400   1.708
61450W        W33121  29.790  32.060   3.094
61451W        W33122  22.008  27.718   1.033
61452W        W33123  10.184  41.425  10.985
61453W        W33124  19.765  41.537  13.504
61454W        W33125   4.730   0.501   0.161
61455W        W33126   8.816  38.558  11.774
61456W        W33127  28.434  28.441  14.960
61457W        W33128   3.728  19.291  11.488
61458W        W33129   5.698   7.693  10.536
61459W        W33130  27.304  37.874   2.274
61460W        W33131  26.457  19.027  13.806
61461W        W33132  40.688  27.821  14.008
61462W        W33133  22.491  37.843   0.856
61463W        W33134  40.528   9.220  12.862
61464W        W33135   0.634  14.044  11.465
61465W        W33136  32.149  21.529   1.276
61466W        W33137  16.570   0.358  14.059
61467W        W33138  14.572   9.526  12.481
61468W        W33139  32.000  23.965   0.200
61469W        W33140  43.333  42.843   4.513
61470W        W33141  32.643  23.515   4.039
61471W        W33142   8.665  21.413  10.771
61472W        W33143  20.964  14.306   5.454
61473W        W33144  36.324   9.700  13.992
61474W        W33145  25.560  41.921   0.178
61475W        W33146   9.769  25.552   1.914
61476W        W33147  30.473  15.895   4.481
61477W        W33148  41.457  26.037  14.248
61478W        W33149   3.812   1.789  14.788
61479W        W33150  11.119  38.860   3.773
61480W        W33151  13.052  39.490  10.716
61481W        W33152  29.864  29.459   1.312
61482W        W33153  23.571  31.995  10.274
61483W        W33154  26.448  37.445  12.901
61484W        W33155  20.095  19.304   2.708
61485W        W33156  30.361   7.418   4.097
61486W        W33157   6.003  35.379  11.905
61487W        W33158  33.600  29.386   3.717
61488W        W33159  14.555  29.730  14.851
61489W        W33160  37.173  14.631  12.411
61490W        W33161  36.865  38.217  14.428
61491W        W33162  14.769  20.096  14.403
61492W        W33163   1.396  36.246   1.828
61493W        W33164  26.488  39.894  13.038
61494W        W33165  32.707  44.949   2.681
61495W        W33166  36.026  42.458   4.620
61496W        W33167  12.103  43.929  11.348
61497W        W33168  20.183  26.123  13.351
61498W        W33169  40.002  40.887  11.989
61499W        W33170  16.042   8.408  12.476
61500W        W33171  23.776  23.536  14.102
61501W        W33172  41.394  43.758  10.666
61502W        W33173  44.065   6.727  12.003
61503W        W33174  34.145  10.913   4.156
61504W        W33175  22.179   9.570   2.852
61505W        W33176  43.967  14.566  11.883
61506W        W33177  20.187   4.753   4.518
61507W        W33178  28.624  15.233   3.146
61508W        W33179  28.633  34.985  14.427
61509W        W33180  40.706  39.312  10.167
61510W        W33181  14.714  15.220  14.530
61511W        W33182  11.693   0.371  10.261
61512W        W33183   7.261  31.961   2.900
61513W        W33184  12.288  41.461   0.796
61514W        W33185  30.709  31.531   2.168
61515W        W33186  27.600  32.179  12.975
61516W        W33187   4.126  24.109  14.414
61517W        W33188  41.121  17.256   3.658
61518W        W33189   3.242   2.406   0.187
61519W        W33190  34.048   8.205  13.536
61520W        W33191   0.722  34.894   3.361
61521W        W33192  17.182  30.646   0.241
61522W        W33193   0.269  33.375   4.045
61523W        W33194  26.677  34.345   1.760
61524W        W33195   4.619   4.911   1.906
61525W        W33196  16.238  35.863   4.653
61526W        W33197   1.802  38.612   1.769
61527W        W33198  38.259   2.084   5.062
61528W        W33199  16.052  41.328   2.805
61529W        W33200  28.206  10.706   0.241
61530W        W33201  24.960  32.200  13.442
61531W        W33202  26.924  43.863  12.910
61532W        W33203  37.085  15.561  12.640
61533W        W33204  26.515  16.910   1.702
61534W        W33205  28.534  14.987  11.666
61535W        W33206   8.180  28.990   3.589
61536W        W33207  30.753   5.106   0.696
61537W        W33208  19.386   1.505   1.682
61538W        W33209  25.410  27.338  11.650
61539W        W33210  24.960  10.805   4.680
61540W        W33211  26.148  12.316  11.080
61541W        W33212  19.237   2.810   0.746
61542W        W33213  20.294   0.958  12.729
61543W        W33214   1.942  30.079  12.286
61544W        W33215  14.368   5.276   1.446
61545W        W33216  43.766   9.829   1.395
61546W        W33217  20.081  42.455   2.920
61547W        W33218   5.439  37.313   0.472
61548W        W33219  32.125   3.690  12.534
61549W        W33220  17.991   3.960  13.058
61550W        W33221  42.830   9.144   0.998
61551W        W33222  10.790   2.583  14.965
61552W        W33223  17.817  17.745   0.353
61553W        W33224  24.021  30.541   2.155
61554W        W33225  42.854  32.512  14.878
61555W        W33226  38.664  24.196   4.651
61556W        W33227   0.950  21.361  12.429
61557W        W33228  33.625  34.857   4.935
61558W        W33229  12.424  28.526   0.703
61559W        W33230   7.818  32.269  11.977
61560W        W33231  23.817  34.540   4.266
61561W        W33232  31.430   8.079  11.766
61562W        W33233  37.854  31.449   1.920
61563W        W33234   8.828  15.426  14.409
61564W        W33235  11.829  26.550  10.766
61565W        W33236   4.409   7.370   1.424
61566W        W33237   4.755  16.399  13.364
61567W        W33238  26.641  31.636   3.162
61568W        W33239  33.103  28.537   1.001
61569W        W33240   0.303  21.841  14.271
61570W        W33241  40.003  37.274  11.438
61571W        W33242   9.166   1.990   3.335
61572W        W33243   5.734  44.395  11.112
61573W        W33244  14.820  35.498   0.881
61574W        W33245  41.025  14.112  13.315
61575W        W33246  29.302   6.678   4.943
61576W        W33247  22.601   9.892   2.647
61577W        W33248  10.803  15.701  11.193
61578W        W33249   7.338  22.226  14.960
61579W        W33250   5.596   7.588   4.260
61580W        W33251   3.429  38.748   5.020
61581W        W33252  41.354  25.599   2.312
61582W        W33253  12.102  44.355   3.441
61583W        W33254   6.212  18.712  14.555
61584W        W33255  11.517  34.927  10.803
61585W        W33256  13.221  29.686  14.013
61586W        W33257  19.597  27.751   3.302
61587W        W33258  13.775  17.147  11.652
61588W        W33259   9.606  19.300  11.681
61589W        W33260  27.453  36.514  11.994
61590W        W33261  30.201  18.619   3.210
61591W        W33262  13.534  10.119   4.125
61592W        W33263  16.828  11.044   2.422
61593W        W33264  33.645  31.370  10.387
61594W        W33265  39.620  23.044  10.657
61595W        W33266  15.549   0.917   4.606
61596W        W33267  14.576  39.297  14.917
61597W        W33268  33.568  10.845   0.153
61598W        W33269  29.603  36.435  11.580
61599W        W33270  15.120  30.985   1.688
61600W        W33271  13.748  43.422   4.022
61601W        W33272  34.067   8.672   4.409
61602W        W33273  10.609   7.936   4.432
61603W        W33274  24.380  37.239   3.896
61604W        W33275   9.092  36.574  11.038
61605W        W33276  38.551  14.845  11.541
61606W        W33277  20.461  14.692  13.666
61607W        W33278  25.183  36.335   0.272
61608W        W33279  35.028  23.737   3.838
61609W        W33280  15.068  32.862  10.635
61610W        W33281  27.879  15.660   1.850
61611W        W33282  36.255   9.313  14.964
61612W        W33283   3.759  10.169   2.191
61613W        W33284  35.459  13.243   4.421
61614W        W33285   9.431   7.377  10.760
61615W        W33286   8.317  41.354   2.243
61616W        W33287   8.096  17.681  13.870
61617W        W33288   3.243  36.016  14.578
61618W        W33289  14.123  31.249   4.573
61619W        W33290  15.698  11.814  12.794
61620W        W33291  39.415  12.856   2.119
61621W        W33292  11.564  26.211  11.494
61622W        W33293  33.487  36.295  14.759
61623W        W33294   2.476  35.469   0.469
61624W        W33295  21.771  14.109   3.178
61625W        W33296   0.770  44.359   0.701
61626W        W33297  14.131   7.907   0.301
61627W        W33298  12.875  12.228   2.033
61628W        W33299  38.932  38.382   0.529
61629W        W33300  32.613  11.784   1.284
61630W        W33301  15.112  29.985   2.908
61631W        W33302  25.642  22.992   4.626
61632W        W33303  21.807   1.714   3.863
61633W        W33304  41.304   2.506  12.503
61634W        W33305  36.686  21.466  11.566
61635W        W33306  11.193  33.890  13.442
61636W        W33307  33.091   6.503  12.632
61637W        W33308  33.912   9.362  11.682
61638W        W33309  44.392  32.446  13.025
61639W        W33310  37.171  43.847  14.734
61640W        W33311  26.498  40.353  13.302
61641W        W33312  43.226  33.704   2.151
61642W        W33313  14.313   6.023  10.649
61643W        W33314  35.040  10.730  11.113
61644W        W33315   3.460  18.886  12.663
61645W        W33316  36.909  34.511   0.486
61646W        W33317  27.724  23.501   0.317
61647W        W33318   5.254   5.810  12.171
61648W        W33319  27.566  18.305   4.180
61649W        W33320  41.558  25.163   0.993
61650W        W33321   2.509  19.627   4.208
61651W        W33322  44.438  24.414   0.846
61652W        W33323   9.940   5.386   1.276
61653W        W33324  20.011  43.496  11.443
61654W        W33325  34.761  12.848   1.906
61655W        W33326  22.825  17.742   3.174
61656W        W33327  30.638   3.195  12.146
61657W        W33328  40.094  13.615  12.651
61658W        W33329  17.805  29.125   1.432
61659W        W33330  37.242   5.721  14.906
61660W        W33331  28.494  37.898  10.892
61661W        W33332   9.851  41.101  11.451
61662W        W33333  39.439   5.730   4.365
61663W        W33334  25.344  35.995  12.315
61664W        W33335   7.847   4.839   3.778
61665W        W33336  26.088  36.504   0.797
61666W        W33337  40.514  16.502   0.313
61667W        W33338   9.415  35.648  12.337
61668W        W33339  43.841   6.437  10.621
61669W        W33340   1.789  10.272   0.493
61670W        W33341  27.000  41.450   3.077
61671W        W33342  43.472  11.362  11.903
61672W        W33343  33.769   9.949  10.563
61673W        W33344   8.013   0.266  14.502
61674W        W33345  23.765  44.282  13.431
61675W        W33346  22.828  35.852  12.445
61676W        W33347   8.856  20.301  11.016
61677W        W33348  35.802  36.573  13.891
61678W        W33349  29.217  22.477  14.806
61679W        W33350  25.361  13.244   1.694
61680W        W33351  34.082  25.803  12.029
61681W        W33352   2.827   0.775  14.724
61682W        W33353  21.215  41.067   4.665
61683W        W33354  20.055  23.754  11.573
61684W        W33355   9.846  42.606  14.580
61685W        W33356  44.578  38.059   0.634
61686W        W33357  25.535  28.501  14.512
61687W        W33358  35.288  26.492  12.456
61688W        W33359   3.724  34.819   4.376
61689W        W33360   8.292  34.941  10.984
61690W        W33361  27.238  23.153  12.860
61691W        W33362  41.336   7.682  13.888
61692W        W33363  38.904   0.374  14.282
61693W        W33364  41.881   8.384  10.814
61694W        W33365  23.677  16.315  10.695
61695W        W33366  25.476  14.568  10.829
61696W        W33367  26.769   5.491   1.214
61697W        W33368   6.663  34.355  10.840
61698W        W33369  10.260  14.679  11.906
61699W        W33370  32.679   2.915  10.719
61700W        W33371  30.004  40.998  14.235
61701W        W33372  14.419  11.187  13.797
61702W        W33373  42.479  39.647  11.570
61703W        W33374  42.359  12.247  11.562
61704W        W33375   5.284  40.012   0.031
61705W        W33376  36.182  13.642   4.899
61706W        W33377   8.903  26.096   1.792
61707W        W33378  39.022  42.350  12.994
61708W        W33379  14.340  36.706   2.844
61709W        W33380  43.383  35.436  11.157
61710W        W33381   5.771  32.908  11.545
61711W        W33382  13.787   0.868   1.546
61712W        W33383  18.989  26.663  13.925
61713W        W33384  11.604  10.565  10.711
61714W        W33385  34.380  32.979   2.669
61715W        W33386   8.720  41.835   4.220
61716W        W33387  34.846   3.092   1.286
61717W        W33388   1.148  24.640   2.186
61718W        W33389  24.704  36.842  12.974
61719W        W33390   7.364  40.040  14.657
61720W        W33391  32.362  41.254  11.163
61721W        W33392  26.961  38.735  10.749
61722W        W33393  26.124  13.127  12.112
61723W        W33394   9.648  40.472   4.132
61724W        W33395  26.216  11.955   3.805
61725W        W33396  30.633   5.063   5.171
61726W        W33397  32.333  19.138  11.992
61727W        W33398   9.588  16.582  11.711
61728W        W33399  27.603  10.736  14.120
61729W        W33400  22.435  16.795  14.915
61730W        W33401  23.157  39.901   1.364
61731W        W33402  31.555  38.789  11.084
61732W        W33403  11.612  23.932   4.912
61733W        W33404  33.655  33.610  11.093
61734W        W33405  39.391   2.474  13.881
61735W        W33406  40.491  13.896   4.259
61736W        W33407  31.628  19.284  12.498
61737W        W33408  39.144  38.116  11.237
61738W        W33409  27.728   1.971   4.040
61739W        W33410  18.568  15.096  12.060
61740W        W33411  36.779  11.447  11.844
61741W        W33412  25.119  40.314  13.823
61742W        W33413  12.909  11.722   2.231
61743W        W33414  22.309   1.421  13.777
61744W        W33415  34.415   8.648  13.947
61745W        W33416  17.077   5.697  11.194
61746W        W33417  36.854  41.531   0.852
61747W        W33418   5.040  36.390   2.898
61748W        W33419  13.553   5.800   4.024
61749W        W33420   2.311  39.500  13.434
61750W        W33421  33.497  39.044   1.896
61751W        W33422  43.498  43.807  11.636
61752W        W33423   7.647  34.508   0.748
61753W        W33424  14.709  29.631   3.758
61754W        W33425   0.707   8.804   2.798
61755W        W33426  26.060  10.150  13.330
61756W        W33427  30.966  36.258   2.334
61757W        W33428  20.971  21.437  12.529
61758W        W33429  20.951  38.884   3.693
61759W        W33430  19.161  20.981  11.028
61760W        W33431   1.048   2.516   5.020
61761W        W33432  18.332  27.514  10.741
61762W        W33433  30.870  16.310   0.944
61763W        W33434  43.827   1.898  13.023
61764W        W33435   7.719  23.075   1.916
61765W        W33436   7.339   0.681  10.731
61766W        W33437  29.025  16.278  12.996
61767W        W33438  27.628  24.804  10.763
61768W        W33439  37.645  30.908   3.618
61769W        W33440  28.244   1.989  10.707
61770W        W33441  35.659   6.624  10.754
61771W        W33442  39.229  36.628  14.123
61772W        W33443  37.921  40.531   4.786
61773W        W33444  15.146  18.051  14.047
61774W        W33445  38.827  14.195   4.467
61775W        W33446  38.611  32.495  13.019
61776W        W33447   5.624  39.967  14.060
61777W        W33448  21.563  43.894  10.364
61778W        W33449  30.130  37.021   0.255
61779W        W33450  29.048   0.986  13.443
61780W        W33451  24.472  19.554   2.217
61781W        W33452  38.421  35.918   1.717
61782W        W33453  27.645  21.951  10.811
61783W        W33454  14.738  12.846   2.962
61784W        W33455  43.884  25.764  12.602
61785W        W33456  16.246  44.739   0.823
61786W        W33457   5.787  27.173  12.336
61787W        W33458  44.977   7.073  13.840
61788W        W33459  20.135  13.246  12.976
61789W        W33460   9.269  42.577  13.185
61790W        W33461  31.554   7.326  12.944
61791W        W33462  38.244   0.201   3.298
61792W        W33463   2.700   8.878   0.877
61793W        W33464  33.470  35.831   5.057
61794W        W33465  30.764  10.060   4.093
61795W        W33466  31.027  21.933  13.931
61796W        W33467   4.155  13.153  12.676
61797W        W33468  32.286  34.582   3.239
61798W        W33469   0.752  44.351  14.704
61799W        W33470  29.002  33.730  11.002
61800W        W33471   5.769  18.450   1.873
61801W        W33472  23.144  10.938   1.424
61802W        W33473  38.087  10.033  13.097
61803W        W33474   8.689   4.766  13.407
61804W        W33475  24.710  27.634  14.215
61805W        W33476   9.125   3.446  10.820
61806W        W33477  44.397  32.942   3.861
61807W        W33478   6.663  34.415  14.740
61808W        W33479  43.964   5.989  11.353
61809W        W33480  25.668   3.156   2.880
61810W        W33481   6.899  34.291  14.305
61811W        W33482   3.886  29.022  10.224
61812W        W33483  40.271  28.297   4.007
61813W        W33484   4.740  38.572   2.778
61814W        W33485   7.870   7.383   3.644
61815W        W33486   6.331  44.943   0.409
61816W        W33487  19.708   5.885  12.849
61817W        W33488  36.030  13.901  11.138
61818W        W33489  15.129   6.907   1.464
61819W        W33490  41.352  24.508   1.342
61820W        W33491   6.307   0.255   1.780
61821W        W33492  22.682  15.778   4.475
61822W        W33493  37.674   5.410   3.383
61823W        W33494  35.820   2.456  11.145
61824W        W33495   7.489  33.698  11.802
61825W        W33496  25.780  11.317   4.977
61826W        W33497  22.323  17.620   4.624
61827W        W33498  32.466  31.727   4.969
61828W        W33499  22.169  36.644  12.620
61829W        W33500  31.605  32.681  14.006
61830W        W33501  39.327  40.764  14.380
61831W        W33502  21.041  15.662   3.666
61832W        W33503  21.121   4.470   3.235
61833W        W33504   2.194   1.304   1.717
61834W        W33505  44.796  42.724   0.423
61835W        W33506  33.482  20.164  12.014
61836W        W33507  21.652  33.618   3.687
61837W        W33508   3.419   8.141   2.758
61838W        W33509  11.728  36.617   1.295
61839W        W33510   5.201  30.338  11.011
61840W        W33511  43.808  29.462  11.918
61841W        W33512  42.040   7.489   1.949
61842W        W33513   6.555  34.880  12.918
61843W        W33514  23.676  23.641  10.529
61844W        W33515  27.838  24.197   1.297
61845W        W33516  21.176  27.865   2.663
61846W        W33517  39.428   4.251   1.664
61847W        W33518   4.260  19.728  12.157
61848W        W33519  19.032  27.057   1.164
61849W        W33520  42.236  19.266  14.537
61850W        W33521  11.588  35.140   4.558
61851W        W33522  27.654  43.943   4.555
61852W        W33523  42.617  43.328  14.052
61853W        W33524  10.793   4.200   1.926
61854W        W33525  35.203  16.179  12.599
61855W        W33526  36.066  37.330  13.388
61856W        W33527  11.190  17.263   0.054
61857W        W33528  21.871  17.329  14.440
61858W        W33529  40.728   4.699   0.933
61859W        W33530  20.128  14.766  14.065
61860W        W33531  26.471  33.963   4.996
61861W        W33532  23.986   9.869   3.310
61862W        W33533  19.726  22.178  10.824
61863W        W33534  35.828  29.919  11.519
61864W        W33535  42.177  25.175  14.470
61865W        W33536  34.423  23.939   3.217
61866W        W33537   5.200   8.234  13.524
61867W        W33538   8.784  24.017   3.425
61868W        W33539  35.258  11.453   4.767
61869W        W33540   5.811  42.965   1.970
61870W        W33541  17.538  29.454   2.687
61871W        W33542  44.069   3.392   0.029
61872W        W33543  21.003  16.092  12.474
61873W        W33544  34.209  16.447   1.237
61874W        W33545  16.213  25.054   3.747
61875W        W33546  19.580   8.592  12.834
61876W        W33547  33.090  41.899   0.061
61877W        W33548  38.358  19.165  14.448
61878W        W33549  21.190  33.628   0.976
61879W        W33550  15.009  32.458  12.027
61880W        W33551  18.756   4.696  14.057
61881W        W33552  14.839  25.977   1.308
61882W        W33553  18.647  21.090   3.849
61883W        W33554  12.176  10.141   3.257
61884W        W33555   9.710  34.868   1.923
61885W        W33556  33.879  43.451   2.998
61886W        W33557  29.233  39.949  13.291
61887W        W33558  42.719  16.491  13.365
61888W        W33559  28.088  16.674  11.758
61889W        W33560  28.974  38.337  12.121
61890W        W33561  42.953  37.962  12.442
61891W        W33562  11.789  44.195   1.934
61892W        W33563  39.819  31.578   0.815
61893W        W33564  21.324  37.836  13.366
61894W        W33565  16.734   1.022   4.257
61895W        W33566   3.200   7.323  13.476
61896W        W33567  25.420  39.017  13.053
61897W        W33568  44.880  31.574   3.796
61898W        W33569  31.538   1.212   2.287
61899W        W33570  37.844   4.337   4.640
61900W        W33571  44.002  17.667  14.735
61901W        W33572  28.628   5.326  11.410
61902W        W33573  15.698  13.608  14.378
61903W        W33574  24.726  20.625  13.342
61904W        W33575   4.812   0.084   4.158
61905W        W33576   3.401   4.286   4.664
61906W        W33577  43.574  20.778   9.635
61907W        W33578   9.791  21.298   2.310
61908W        W33579  39.513  22.250   4.781
61909W        W33580  28.153  30.901   4.541
61910W        W33581  31.953   6.917  11.083
61911W        W33582  24.987  30.403   0.466
61912W        W33583  37.503  20.104  14.233
61913W        W33584  21.583  27.545   1.950
61914W        W33585  10.751  44.030   0.788
61915W        W33586  11.412  43.376   3.625
61916W        W33587  18.775  31.388  14.024
61917W        W33588  10.241  35.473  11.702
61918W        W33589  24.545  21.249  10.144
61919W        W33590  11.035  35.335   1.223
61920W        W33591  44.868  27.373   3.413
61921W        W33592   6.319  31.799   1.469
61922W        W33593  24.094  36.084  13.050
61923W        W33594  43.351  11.287   0.278
61924W        W33595  35.097   9.836  10.824
61925W        W33596  26.340  20.175   3.622
61926W        W33597  17.781  13.799  11.072
61927W        W33598  26.174  41.797  11.627
61928W        W33599   2.302   1.458   2.206
61929W        W33600  42.817  26.029   0.284
61930W        W33601  35.594  11.098  13.126
61931W        W33602  10.155   8.131  10.705
61932W        W33603  10.757  13.223  14.429
61933W        W33604  29.181  23.660   0.411
61934W        W33605  25.268  26.425   1.962
61935W        W33606  28.435  41.846   3.667
61936W        W33607   1.447  18.120  14.293
61937W        W33608   4.642  43.794   0.718
61938W        W33609  35.566  42.288   2.918
61939W        W33610  27.305  21.170   0.063
61940W        W33611   3.277  23.946   2.719
61941W        W33612  25.612   1.026   2.321
61942W        W33613  25.470  26.846  11.805
61943W        W33614  14.522  28.637   3.820
61944W        W33615  18.306  15.182  11.612
61945W        W33616  41.900   3.654  13.213
61946W        W33617   3.452  11.073  11.610
61947W        W33618  24.403  21.488   4.573
61948W        W33619  39.854  23.728  11.188
61949W        W33620  20.716  18.802   0.189
61950W        W33621  24.135  37.990   3.428
61951W        W33622  30.916  11.674   1.638
61952W        W33623  29.041  39.070  13.142
61953W        W33624  15.252  25.843  12.161
61954W        W33625  22.677  42.750   1.440
61955W        W33626  21.523  36.584   1.826
61956W        W33627   2.534  42.894  13.182
61957W        W33628   8.294   8.449  13.107
61958W        W33629  10.428   3.113  11.149
61959W        W33630   0.468  29.197   1.402
61960W        W33631  23.867   2.767  11.569
61961W        W33632   0.837  29.020   0.035
61962W        W33633  28.902   6.343   2.777
61963W        W33634  39.758   4.225   2.820
61964W        W33635  42.868  16.262  11.680
61965W        W33636  38.604  18.884   2.846
61966W        W33637   8.978  34.945  13.476
61967W        W33638   3.826  25.317  12.107
61968W        W33639  27.115  40.211  10.646
61969W        W33640  19.001  20.435   1.718
61970W        W33641  35.885  26.735   1.875
61971W        W33642  10.834   7.140  11.593
61972W        W33643  13.514  34.621  13.133
61973W        W33644  29.605  31.037  12.053
61974W        W33645  18.170  36.044  13.767
61975W        W33646  43.851   7.357   2.717
61976W        W33647   3.875   4.104   4.431
61977W        W33648  16.061   2.591   2.623
61978W        W33649  38.076  26.188  12.420
61979W        W33650  33.995  15.045   0.361
61980W        W33651  17.525  33.045   1.988
61981W        W33652  25.688  13.584  13.273
61982W        W33653  30.533  14.912   0.884
61983W        W33654  22.388  31.483  10.256
61984W        W33655  43.532  43.897   4.648
61985W        W33656   3.663  25.015   1.419
61986W        W33657  36.633  33.585  10.576
61987W        W33658   6.221   7.197   0.483
61988W        W33659   7.698  19.539  12.431
61989W        W33660  31.372   8.333   0.819
61990W        W33661  44.504  35.385   2.250
61991W        W33662  19.069  13.091   4.087
61992W        W33663   4.993   0.301  12.586
61993W        W33664  13.061  16.036   1.902
61994W        W33665  12.609  43.516   4.359
61995W        W33666  43.297   5.196   3.247
61996W        W33667   2.456  37.565   1.404
61997W        W33668  44.005  14.559  10.534
61998W        W33669  35.361   7.120  13.861
61999W        W33670  34.524  18.732   0.106
62000W        W33671  16.423  29.690   0.335
62001W        W33672  11.066  28.052   2.995
62002W        W33673   3.865  38.994   4.843
62003W        W33674  27.487  12.146   1.299
62004W        W33675   5.911  14.589   3.717
62005W        W33676   0.921  23.176   4.944
62006W        W33677  34.309   2.417  14.748
62007W        W33678  37.482  27.915  13.447
62008W        W33679   5.465   7.734  14.434
62009W        W33680  16.399  26.625   0.784
62010W        W33681   6.382  17.242   0.007
62011W        W33682  37.908  37.993  13.789
62012W        W33683   3.478   6.756  14.189
62013W        W33684  37.469  44.330  13.277
62014W        W33685  26.486  36.633  11.506
62015W        W33686  37.173   8.675   0.796
62016W        W33687  32.116   8.728  12.688
62017W        W33688  12.669  23.241  10.677
62018W        W33689  30.739   0.191   1.891
62019W        W33690   3.433  11.951   3.635
62020W        W33691  25.736   1.064  10.649
62021W        W33692  33.621  25.097  13.706
62022W        W33693   4.056  11.261  13.367
62023W        W33694   1.369  44.495  12.296
62024W        W33695  35.459  12.299   0.225
62025W        W33696  36.799  15.345   0.919
62026W        W33697  28.077  42.699   4.422
62027W        W33698  16.242  34.684  11.939
62028W        W33699  35.033  38.114  14.040
62029W        W33700   2.308  10.604  13.413
62030W        W33701  33.606  42.521   1.476
62031W        W33702  12.181  42.617  12.343
62032W        W33703  40.083  32.880  13.034
62033W        W33704   5.839  44.491   2.829
62034W        W33705  42.843  25.504   1.953
62035W        W33706   4.298  37.917   0.865
62036W        W33707   6.313  35.298   0.395
62037W        W33708   0.481  41.052   1.498
62038W        W33709  24.800   2.871   2.754
62039W        W33710  23.086   3.875  14.847
62040W        W33711  42.810  43.058  12.791
62041W        W33712  40.752  25.025   3.671
62042W        W33713  44.443  36.342   0.968
62043W        W33714  29.009   9.411  10.116
62044W        W33715  13.379  37.001   3.172
62045W        W33716  32.100  17.621  10.823
62046W        W33717   8.946  43.819  11.586
62047W        W33718  11.906   9.392   3.671
62048W        W33719  25.212   6.683  14.754
62049W        W33720  13.775   7.628  13.972
62050W        W33721  32.857  21.732  11.912
62051W        W33722  24.233   3.235   1.692
62052W        W33723   8.165  11.660   4.889
62053W        W33724  24.752  43.920  14.463
62054W        W33725  35.331  24.225  13.830
62055W        W33726  10.799  26.945   1.110
62056W        W33727   7.073  16.837   4.247
62057W        W33728   8.292  27.984   2.128
62058W        W33729  18.114   3.692  10.767
62059W        W33730  40.887  28.011   0.478
62060W        W33731   1.404  22.047   1.344
62061W        W33732  32.379  29.741  12.274
62062W        W33733   0.068  15.115  11.498
62063W        W33734  21.885   9.813   0.727
62064W        W33735   3.982   1.423  13.048
62065W        W33736   3.442  38.993  11.175
62066W        W33737  14.688   7.284   0.012
62067W        W33738  43.918  33.458   4.917
62068W        W33739  16.516   8.354  11.528
62069W        W33740  43.805  35.920   1.222
62070W        W33741  38.348  31.173  12.448
62071W        W33742  34.298  35.453  13.121
62072W        W33743  41.828  32.064  10.660
62073W        W33744   7.411  18.521   0.864
62074W        W33745  40.891  42.452  10.750
62075W        W33746  16.814   2.311  14.980
62076W        W33747   6.365  16.014   3.087
62077W        W33748  36.388  20.080   0.768
62078W        W33749   1.978  34.065   3.765
62079W        W33750  22.627   8.071  11.645
62080W        W33751  36.480  22.638   3.596
62081W        W33752  35.444  15.048   2.424
62082W        W33753  19.264  26.645   0.907
62083W        W33754  39.036  27.679   0.858
62084W        W33755  20.055  23.064  12.803
62085W        W33756   4.290  19.835   2.620
62086W        W33757  26.091  11.852  11.275
62087W        W33758   6.798  42.821  11.546
62088W        W33759  10.083  40.323   4.964
62089W        W33760  42.076  12.247  14.515
62090W        W33761  44.742  30.152  13.459
62091W        W33762  30.615  18.273  11.957
62092W        W33763  19.752  34.032  11.755
62093W        W33764   8.486  19.431   2.718
62094W        W33765  14.734  25.186   2.819
62095W        W33766   4.049   6.566  11.033
62096W        W33767  36.815  29.623  11.116
62097W        W33768  33.972  15.870  11.508
62098W        W33769   6.218  14.208  11.494
62099W        W33770  34.540  28.652  12.498
62100W        W33771  26.007  30.158  10.689
62101W        W33772  36.575  35.819   3.321
62102W        W33773   7.911  25.178   2.861
62103W        W33774  42.331  20.075   2.601
62104W        W33775  10.537  12.333   3.358
62105W        W33776  15.773  20.025  12.096
62106W        W33777  20.513  23.595   5.120
62107W        W33778  40.053  31.573   1.662
62108W        W33779  44.737  40.849  14.204
62109W        W33780   0.693  39.504   3.664
62110W        W33781  18.993  42.721  10.974
62111W        W33782   8.246  37.514  12.334
62112W        W33783  21.541  37.722   2.754
62113W        W33784  37.629  35.869  14.531
62114W        W33785  44.322  13.863  13.869
62115W        W33786  21.357   5.722   0.403
62116W        W33787  13.127  35.597   3.245
62117W        W33788  19.742  17.013   1.189
62118W        W33789  21.964  19.640  11.649
62119W        W33790  31.875  12.603  13.025
62120W        W33791   3.240  16.359   1.384
62121W        W33792  44.510   9.407  11.415
62122W        W33793  41.516  41.967  11.617
62123W        W33794   6.435   9.685   0.163
62124W        W33795   3.289  42.903   1.785
62125W        W33796  12.142  41.435   2.931
62126W        W33797  17.922   2.885   4.573
62127W        W33798  42.411  31.225   4.606
62128W        W33799  33.474   3.098   1.195
62129W        W33800  14.563  34.060   0.345
62130W        W33801  37.629  15.740   0.745
62131W        W33802  14.694  24.677   2.641
62132W        W33803  31.878   3.676  12.972
62133W        W33804  38.430   5.291   1.707
62134W        W33805  40.481   9.865   2.757
62135W        W33806   5.355  24.505  14.514
62136W        W33807  25.198  18.697   1.085
62137W        W33808  41.032  26.194  14.539
62138W        W33809   6.668  38.053  12.057
62139W        W33810  38.571   8.742  11.921
62140W        W33811  30.076   1.563  13.965
62141W        W33812  33.127  21.258  12.150
62142W        W33813  22.692   8.008   0.076
62143W        W33814  27.831  43.078   0.346
62144W        W33815   0.946  28.481   1.750
62145W        W33816  38.395  44.371   4.637
62146W        W33817  27.609   2.316  13.437
62147W        W33818   4.488  17.613  12.481
62148W        W33819  31.052  22.241  10.732
62149W        W33820   1.854  26.504  10.231
62150W        W33821   4.706  10.653   4.491
62151W        W33822   3.888  11.681  14.794
62152W        W33823  38.448  21.311  11.957
62153W        W33824  40.051  42.543  11.440
62154W        W33825  33.197  10.216  14.717
62155W        W33826  39.762  25.525  12.471
62156W        W33827   5.317   0.237   4.767
62157W        W33828  14.976  40.943   2.185
62158W        W33829   6.259  16.337  12.111
62159W        W33830  38.576  12.785  13.087
62160W        W33831  37.232   2.215   2.290
62161W        W33832  17.563   4.759  11.512
62162W        W33833   7.425  36.828   1.329
62163W        W33834   0.238  18.758  11.617
62164W        W33835  27.861  23.677   1.332
62165W        W33836  21.662  34.542   2.881
62166W        W33837  15.069   6.710   4.271
62167W        W33838  35.741  30.932  13.387
62168W        W33839   7.023   9.836  13.605
62169W        W33840   6.271  26.415   4.527
62170W        W33841  18.706  32.491   3.871
62171W        W33842  31.419  19.678  12.796
62172W        W33843  44.253   2.269  13.369
62173W        W33844  11.960  34.820   1.788
62174W        W33845  28.682  14.957   2.687
62175W        W33846   8.665  19.709  11.955
62176W        W33847  38.084  28.696  11.196
62177W        W33848  42.827  28.512   2.314
62178W        W33849  16.580  36.644   4.674
62179W        W33850  25.187  19.992  12.138
62180W        W33851  27.512  39.256   4.309
62181W        W33852  39.867   2.779  13.982
62182W        W33853   1.247  36.204  14.470
62183W        W33854  19.750  43.540   4.578
62184W        W33855   7.167  28.812  11.174
62185W        W33856  12.363   7.433   1.740
62186W        W33857  16.318  37.411  11.609
62187W        W33858   5.887  35.399  12.837
62188W        W33859  13.142  29.916   0.781
62189W        W33860  43.951   4.604  13.291
62190W        W33861  32.485  10.341  14.320
62191W        W33862  16.310  44.426   1.434
62192W        W33863   1.113  42.110  14.931
62193W        W33864  26.747  36.537  14.433
62194W        W33865  37.423  42.814   1.421
62195W        W33866  41.257  10.111   2.697
62196W        W33867   7.745  42.624  10.322
62197W        W33868  36.036  10.902   2.393
62198W        W33869  32.123  21.006   1.267
62199W        W33870  40.126   4.792   1.282
62200W        W33871  19.041  12.868   0.786
62201W        W33872   8.219  31.494   0.842
62202W        W33873  13.018  39.899  13.003
62203W        W33874  21.434  15.605  14.676
62204W        W33875  11.929  25.710   3.259
62205W        W33876  18.421  13.048  13.529
62206W        W33877   4.946  16.895   4.993
62207W        W33878  30.124  16.991  14.345
62208W        W33879  15.728  36.077  11.999
62209W        W33880  40.538  39.801  14.791
62210W        W33881  43.741  25.180   0.367
62211W        W33882  25.916  27.999  11.966
62212W        W33883  12.374  44.842  11.324
62213W        W33884   6.609  13.614  12.079
62214W        W33885  21.926  13.940   3.651
62215W        W33886  27.518  22.277   4.527
62216W        W33887  22.659  42.824  13.058
62217W        W33888  30.006   4.684   4.272
62218W        W33889  20.615  38.878  10.233
62219W        W33890   3.017  20.838  10.343
62220W        W33891  15.275  13.339   0.735
62221W        W33892  22.247  39.086   5.261
62222W        W33893  27.987  12.637   3.694
62223W        W33894   2.071  22.119   5.555
62224W        W33895   8.180   5.734   1.469
62225W        W33896   8.194  22.107  10.548
62226W        W33897  42.020   6.600   3.226
62227W        W33898  23.597  31.180  13.686
62228W        W33899  29.091  16.524   0.690
62229W        W33900  27.254  36.716  12.424
62230W        W33901   6.209  43.566  10.698
62231W        W33902  17.750  22.016   3.050
62232W        W33903  39.478  35.149  12.959
62233W        W33904  27.122  34.691  14.540
62234W        W33905  25.225  15.033  10.816
62235W        W33906  23.022  10.591  11.128
62236W        W33907  19.334  16.373  14.755
62237W        W33908  18.160  22.922   3.273
62238W        W33909  20.551  16.281  12.399
62239W        W33910  25.323  19.728  14.807
62240W        W33911  44.251  23.260  12.028
62241W        W33912  14.660  14.361  13.983
62242W        W33913  39.882   4.340   2.279
62243W        W33914  28.051  16.001   3.677
62244W        W33915  35.514  16.025   4.084
62245W        W33916  37.313  39.117  12.109
62246W        W33917   7.794   5.360   4.742
62247W        W33918  29.537  11.144   1.272
62248W        W33919  12.839  39.370  13.450
62249W        W33920   6.888  38.871   2.711
62250W        W33921   4.804   8.161  12.044
62251W        W33922  39.325  34.369   4.185
62252W        W33923  41.497  40.339  11.081
62253W        W33924  18.183  22.164  13.451
62254W        W33925  12.341  30.972  13.074
62255W        W33926  40.600  41.339  10.345
62256W        W33927  44.538  30.064   0.741
62257W        W33928  35.584   1.685   0.742
62258W        W33929  24.134   9.872   1.045
62259W        W33930  31.782   6.488   2.215
62260W        W33931  37.427   3.177   1.853
62261W        W33932  16.637  44.283   2.380
62262W        W33933  20.035   5.005  11.836
62263W        W33934  24.930   9.397   0.032
62264W        W33935  16.549   9.841  10.325
62265W        W33936   5.357  21.463   0.405
62266W        W33937   0.320  22.962   1.354
62267W        W33938  22.477   5.280   3.264
62268W        W33939  36.506  37.825  14.047
62269W        W33940  18.621  42.182   5.044
62270W        W33941  24.184  20.044  14.477
62271W        W33942   8.774   8.566   1.472
62272W        W33943  32.792  28.479  11.707
62273W        W33944  36.943  44.109  11.140
62274W        W33945  42.222   3.207   3.647
62275W        W33946  36.398  31.169   1.428
62276W        W33947  29.559  29.757  10.509
62277W        W33948  12.116  36.857  14.940
62278W        W33949  13.231   6.368  11.259
62279W        W33950   4.458  41.595   4.134
62280W        W33951  42.605  32.511  12.553
62281W        W33952  23.531  37.519  14.871
62282W        W33953  29.357   6.926  13.597
62283W        W33954  32.477   5.088  14.003
62284W        W33955  27.798   4.180   2.285
62285W        W33956  14.748   8.219   4.537
62286W        W33957  27.255  24.824  11.140
62287W        W33958  22.750  42.711   2.772
62288W        W33959  15.511  42.798   2.120
62289W        W33960  23.717  34.819  13.895
62290W        W33961  10.470  36.847  12.585
62291W        W33962  20.256  44.322   0.329
62292W        W33963  36.882  41.949   4.525
62293W        W33964  33.399   3.369  12.353
62294W        W33965   2.336  22.641   3.608
62295W        W33966  33.298  35.836  12.048
62296W        W33967  33.956  10.370  14.516
62297W        W33968  25.870   5.425  11.494
62298W        W33969  25.085  26.789  10.216
62299W        W33970  24.807  32.625  12.952
62300W        W33971   3.609   9.682   3.284
62301W        W33972  34.937   1.774  12.623
62302W        W33973  24.090   5.038   2.793
62303W        W33974  41.074  12.221   0.344
62304W        W33975  10.553  34.620   4.573
62305W        W33976   5.383  11.356   2.385
62306W        W33977  37.518  38.414   4.622
62307W        W33978  27.669  13.695   3.875
62308W        W33979  44.712   1.349  10.763
62309W        W33980  26.689  26.656  11.440
62310W        W33981  19.895  13.741  12.074
62311W        W33982  19.236  35.576  12.482
62312W        W33983  42.758  28.351   1.415
62313W        W33984  14.335  16.265  13.911
62314W        W33985  36.388  37.502  11.984
62315W        W33986  15.097   7.402  11.880
62316W        W33987  27.878  39.531  13.000
62317W        W33988  11.678  19.283   3.747
62318W        W33989  19.597  16.017  14.445
62319W        W33990  44.497  26.234  13.576
62320W        W33991  27.924   4.601   3.368
62321W        W33992  37.879  16.211   2.845
62322W        W33993  33.419  25.667   2.957
62323W        W33994  17.703   2.818   2.384
62324W        W33995   3.349  33.944  13.819
62325W        W33996  23.240  38.331  11.979
62326W        W33997  20.544  16.797   0.196
62327W        W33998  35.612  12.762  11.548
62328W        W33999  20.896  12.202  12.110
62329W        W34000  41.904  38.844  10.651
62330W        W34001   0.576  32.834   2.614
62331W        W34002  29.402  37.341  13.319
62332W        W34003  44.343  22.596   1.179
62333W        W34004  24.781   6.727  11.087
62334W        W34005   7.199  39.062   1.367
62335W        W34006  25.181  19.036  12.934
62336W        W34007  40.051  34.768   1.310
62337W        W34008  15.095  43.291   4.330
62338W        W34009  44.811   9.896  10.614
62339W        W34010  29.006  18.757  13.744
62340W        W34011  13.612   8.854   1.381
62341W        W34012  13.565  13.464  11.971
62342W        W34013  13.743  23.949  11.288
62343W        W34014  22.241  19.230   0.362
62344W        W34015  32.899  14.087   3.816
62345W        W34016   8.315  37.005   1.752
62346W        W34017  39.456  40.305  13.451
62347W        W34018  29.172  25.152   0.946
62348W        W34019  10.893  33.453  13.453
62349W        W34020  16.908  42.248  13.375
62350W        W34021  41.897  11.166   2.805
62351W        W34022   7.769   7.891  11.998
62352W        W34023   7.943   7.307   1.633
62353W        W34024  43.820   1.693  12.545
62354W        W34025   6.400  24.044   1.361
62355W        W34026  10.747  42.416   2.716
62356W        W34027  34.223   6.857  12.050
62357W        W34028   0.736  41.548  12.885
62358W        W34029  31.663   5.720  10.686
62359W        W34030  43.137  23.135   2.765
62360W        W34031   5.691  18.641  14.421
62361W        W34032  26.190  16.317   3.653
62362W        W34033  19.217   8.861  14.027
62363W        W34034  30.044  19.236  12.860
62364W        W34035  31.024  40.766  11.494
62365W        W34036  32.609  33.216  10.710
62366W        W34037   9.864  14.051   3.313
62367W        W34038   0.720  14.063   2.216
62368W        W34039  19.181   7.353  14.456
62369W        W34040  39.870  24.659  10.935
62370W        W34041  28.414  22.301  12.976
62371W        W34042  20.917  15.414   0.504
62372W        W34043  31.738  41.904  12.438
62373W        W34044  39.351  19.089   2.165
62374W        W34045  19.743  36.296  13.449
62375W        W34046  13.205  25.115  13.060
62376W        W34047  27.408   2.399   0.947
62377W        W34048  20.283  14.626  13.189
62378W        W34049  38.224  39.873  12.494
62379W        W34050  23.751  15.597  13.058
62380W        W34051  39.054  41.260  14.349
62381W        W34052  37.645  29.356   1.787
62382W        W34053  38.130   9.916  11.956
62383W        W34054  19.467  31.402  11.077
62384W        W34055  11.088   8.807   0.285
62385W        W34056  28.031  39.076   4.517
62386W        W34057   6.339   4.841  13.968
62387W        W34058   5.993  39.044   2.515
62388W        W34059  28.970  40.463   3.851
62389W        W34060   0.901  39.290   1.361
62390W        W34061   3.321  18.002  14.321
62391W        W34062  43.534  18.566   2.562
62392W        W34063  42.381  33.340  12.140
62393W        W34064  10.322   0.191  13.928
62394W        W34065  39.000   5.737   1.351
62395W        W34066  34.353  16.611   2.250
62396W        W34067   3.686  19.073   2.950
62397W        W34068  31.026  32.610  11.886
62398W        W34069  40.298  42.556   1.684
62399W        W34070  25.023  37.704   2.194
62400W        W34071  36.583   0.787   1.639
62401W        W34072  35.077  23.095   2.688
62402W        W34073  22.913  10.149  12.532
62403W        W34074  10.758  38.487   3.113
62404W        W34075   4.811  34.053  13.855
62405W        W34076  12.840  31.419   2.689
62406W        W34077  32.144   6.622  11.502
62407W        W34078  37.895  21.049  14.249
62408W        W34079  29.458  27.587  11.604
62409W        W34080  20.720  20.225  11.835
62410W        W34081  20.074  25.795  10.149
62411W        W34082  36.985  28.367   3.643
62412W        W34083   6.697  27.047  10.387
62413W        W34084   9.395  20.561   1.503
62414W        W34085  15.280   5.585  12.621
62415W        W34086  18.136  24.546  11.897
62416W        W34087  10.738  23.690   0.038
62417W        W34088  41.426  21.463  14.509
62418W        W34089  25.023  44.032   1.397
62419W        W34090  38.044  42.582  14.799
62420W        W34091  14.414   8.193  10.469
62421W        W34092   7.135  20.629  10.690
62422W        W34093   6.303  33.083  11.631
62423W        W34094  31.915  33.345   0.400
62424W        W34095  37.498  29.360   2.683
62425W        W34096  24.700  12.757   1.365
62426W        W34097  43.049  41.341   4.167
62427W        W34098  16.531  39.480   1.541
62428W        W34099  27.272  36.375  14.354
62429W        W34100   1.411  34.344   1.206
62430W        W34101  17.365   7.569   4.049
62431W        W34102  19.307  37.490   3.783
62432W        W34103  18.308  28.539   3.632
62433W        W34104  39.875   5.224  12.682
62434W        W34105  23.170  43.042   0.870
62435W        W34106  15.319  34.781   0.321
62436W        W34107  16.027  27.869   3.323
62437W        W34108  16.130  13.521   3.173
62438W        W34109  10.408  25.678   3.132
62439W        W34110   1.855  19.692  12.935
62440W        W34111   1.544  22.939  13.574
62441W        W34112   9.775  36.384   4.757
62442W        W34113  41.724  42.916  12.008
62443W        W34114  20.194   5.492  11.959
62444W        W34115  31.917  41.991  14.369
62445W        W34116  15.346  31.594  12.008
62446W        W34117  35.504   9.884   0.005
62447W        W34118   6.466   4.195  11.155
62448W        W34119  27.546  23.437   2.491
62449W        W34120  39.530  15.836  14.743
62450W        W34121  42.338  44.742   3.759
62451W        W34122   7.164   4.322  13.298
62452W        W34123  18.844  19.641  10.798
62453W        W34124   9.377  11.717  12.592
62454W        W34125  41.649  30.728   1.857
62455W        W34126  41.626   2.351   1.721
62456W        W34127   6.894  26.413   3.215
62457W        W34128  36.318  42.762  13.485
62458W        W34129  28.161   8.368   2.697
62459W        W34130   8.888  21.933   2.320
62460W        W34131  21.764   7.260  14.563
62461W        W34132  21.882  18.115   2.183
62462W        W34133  42.552  40.084   1.835
62463W        W34134   9.120  44.971   3.201
62464W        W34135   4.363  18.576   3.677
62465W        W34136  10.383  13.727   3.282
62466W        W34137  27.328   0.732  11.270
62467W        W34138  21.791  14.258   4.085
62468W        W34139   5.467  38.051  11.431
62469W        W34140  21.488  18.633  10.756
62470W        W34141  33.519  31.048  13.042
62471W        W34142  17.007  40.954   3.702
62472W        W34143   1.846   4.167   2.308
62473W        W34144  38.974  26.039  12.797
62474W        W34145  21.313  26.023   2.754
62475W        W34146  44.351  31.150  11.010
62476W        W34147  40.845  26.454   4.906
62477W        W34148  40.021  12.759  10.714
62478W        W34149  41.967  39.504   1.888
62479W        W34150  19.548   3.373   3.711
62480W        W34151  21.244   4.941   2.818
62481W        W34152   7.149  26.513  12.844
62482W        W34153  27.082  41.486  11.189
62483W        W34154  12.850   1.142  14.677
62484W        W34155   4.684   0.501   1.244
62485W        W34156  38.391  30.421  12.925
62486W        W34157  38.087  33.862   3.732
62487W        W34158  28.402  16.276  11.935
62488W        W34159   0.385  16.698  14.485
62489W        W34160   7.686  17.753   3.311
62490W        W34161  16.271   8.081  12.011
62491W        W34162  44.819  22.553  13.339
62492W        W34163  16.998  23.630   0.472
62493W        W34164  28.404  25.886  11.950
62494W        W34165  13.717  13.792  11.136
62495W        W34166   7.986  44.865  13.829
62496W        W34167  42.083  24.923   3.327
62497W        W34168  19.566  40.338   3.802
62498W        W34169  32.036   6.110  11.364
62499W        W34170  21.631   3.751   4.707
62500W        W34171  18.339  34.825   4.625
62501W        W34172  31.374   2.454   3.270
62502W        W34173  18.266  29.019   4.877
62503W        W34174   6.562   5.348  12.648
62504W        W34175   5.757  20.204   2.784
62505W        W34176  11.686  33.187   3.358
62506W        W34177  41.766  12.204  13.607
62507W        W34178  19.079   7.665  12.956
62508W        W34179  32.435  17.574  12.134
62509W        W34180  15.125  44.734   3.024
62510W        W34181  37.430  30.352  13.340
62511W        W34182   9.200   5.124   3.609
62512W        W34183  15.582  40.998  12.547
62513W        W34184   2.978  12.278   1.512
62514W        W34185   2.207  29.405   0.461
62515W        W34186  11.728  18.433  11.843
62516W        W34187  33.697  16.291  12.433
62517W        W34188  15.298  15.648  14.707
62518W        W34189  30.026  26.152   3.143
62519W        W34190  13.748  42.759   4.720
62520W        W34191  43.317  26.038  13.863
62521W        W34192  26.871  20.521  11.248
62522W        W34193   7.972  27.205   0.784
62523W        W34194  15.763  10.953   1.197
62524W        W34195  41.474   4.933  14.458
62525W        W34196  44.943   3.845  14.936
62526W        W34197  18.069  12.723  13.717
62527W        W34198  27.894  13.738  11.041
62528W        W34199  41.704  17.616  11.126
62529W        W34200  36.587  41.572   1.332
62530W        W34201  14.538   1.345   0.492
62531W        W34202   1.258  23.732  11.455
62532W        W34203  26.271  23.727   3.175
62533W        W34204  41.277  29.084   3.655
62534W        W34205   2.307  31.496  13.349
62535W        W34206   2.555   0.456  12.126
62536W        W34207   5.894  26.209  14.121
62537W        W34208  44.217   8.816   1.768
62538W        W34209   5.476  29.091  11.567
62539W        W34210  37.601  21.630   1.501
62540W        W34211  32.100   8.864  10.727
62541W        W34212  26.021  12.342  14.046
62542W        W34213  13.668  41.499   3.883
62543W        W34214  13.617  27.585   1.713
62544W        W34215   4.740   3.282   3.685
62545W        W34216  29.209  24.797  13.927
62546W        W34217  20.765  43.297   4.140
62547W        W34218  25.036  17.740  14.831
62548W        W34219  31.711  18.670  11.137
62549W        W34220   8.106  38.961   1.800
62550W        W34221  38.209  16.732  12.836
62551W        W34222   4.089  10.365  11.525
62552W        W34223  44.314  10.627  12.798
62553W        W34224  42.459  30.632   3.786
62554W        W34225  40.809  23.178   2.157
62555W        W34226  36.005   6.778  12.487
62556W        W34227  19.909  26.873   4.216
62557W        W34228  20.782  32.146  12.312
62558W        W34229  21.503  19.749   0.376
62559W        W34230  26.942   3.305   0.673
62560W        W34231  39.521  31.921  13.527
62561W        W34232  21.283  44.009   1.014
62562W        W34233   7.398  27.754   3.164
62563W        W34234   3.878   3.216   4.945
62564W        W34235  25.696  15.042   4.029
62565W        W34236  42.390   8.557  14.458
62566W        W34237  21.836  13.292   0.017
62567W        W34238  42.397  22.097   4.517
62568W        W34239  30.173  22.445  14.773
62569W        W34240  34.157  14.120  10.633
62570W        W34241  22.441  26.556  14.957
62571W        W34242  15.284   8.152  12.374
62572W        W34243  41.017  39.845  14.993
62573W        W34244  44.324  28.088   0.547
62574W        W34245   5.389  36.992  14.075
62575W        W34246  30.922  36.590   4.741
62576W        W34247   8.818   7.959  14.378
62577W        W34248  11.237  31.961  10.655
62578W        W34249  18.464  17.075  13.852
62579W        W34250  38.825  18.785   1.021
62580W        W34251   2.218  18.693   1.349
62581W        W34252  33.660   0.940  10.848
62582W        W34253   9.595   4.435  13.898
62583W        W34254  11.627  20.096   0.719
62584W        W34255  21.101  43.172  12.895
62585W        W34256  34.003  38.798   4.604
62586W        W34257  37.096  13.347   1.791
62587W        W34258  34.857  31.888   1.474
62588W        W34259  20.163  22.301  10.493
62589W        W34260  21.821  35.220   4.436
62590W        W34261  19.424  24.562   0.184
62591W        W34262  27.592   4.918   3.615
62592W        W34263  18.205  12.353  10.182
62593W        W34264  34.172  14.093   2.765
62594W        W34265   4.271  33.426  10.649
62595W        W34266  30.902  30.078  13.682
62596W        W34267   1.061   4.772   1.791
62597W        W34268  17.361  22.260   0.398
62598W        W34269   5.653  18.186   3.206
62599W        W34270   5.652  20.257  13.061
62600W        W34271  30.900   6.190  14.323
62601W        W34272  14.629  33.546  12.140
62602W        W34273   5.612  42.418  13.396
62603W        W34274  35.067  10.214  12.968
62604W        W34275   0.344   4.767   4.311
62605W        W34276  16.244  29.588   1.875
62606W        W34277   2.609  30.174  11.000
62607W        W34278   4.638  32.889   2.097
62608W        W34279  28.546  32.559  12.607
62609W        W34280  27.257  35.551  13.303
62610W        W34281  43.071  39.408  13.903
62611W        W34282  43.918   8.848  11.670
62612W        W34283  15.655  37.834   2.396
62613W        W34284  38.420  34.018   3.367
62614W        W34285   3.744   9.367   3.827
62615W        W34286   2.051  41.474   2.603
62616W        W34287  40.890   9.129  11.623
62617W        W34288  11.765  11.311   4.573
62618W        W34289  12.094   4.015   1.989
62619W        W34290  36.926  40.740   1.428
62620W        W34291  38.771  36.291   2.920
62621W        W34292  33.166  32.109  14.059
62622W        W34293  40.235  26.617  13.823
62623W        W34294  39.587   0.034  13.483
62624W        W34295  17.923  27.617  12.987
62625W        W34296   5.672  15.391   1.210
62626W        W34297  15.383   2.417   0.957
62627W        W34298  36.130  16.034   1.721
62628W        W34299   1.798  35.197  13.991
62629W        W34300  13.090  32.393  10.673
62630W        W34301  11.133  19.143  11.286
62631W        W34302  44.455  24.506  10.669
62632W        W34303  19.888  25.693   1.822
62633W        W34304  21.809   9.639  14.302
62634W        W34305   5.246   7.279  10.979
62635W        W34306  17.565  39.474   2.113
62636W        W34307  40.411  34.871  14.888
62637W        W34308   4.690   4.946  11.675
62638W        W34309  17.760   6.058   5.471
62639W        W34310   3.013  37.466  12.972
62640W        W34311   3.344  21.526   1.403
62641W        W34312  20.972  19.564  14.357
62642W        W34313  35.523  26.242  10.500
62643W        W34314  33.508   6.688  12.874
62644W        W34315  18.555  25.223  12.416
62645W        W34316  38.662   2.751  14.795
62646W        W34317  41.801   3.647   1.244
62647W        W34318   9.863   5.850  11.289
62648W        W34319  35.914  24.504  13.557
62649W        W34320  15.058  14.215   4.068
62650W        W34321  18.644  36.182   0.800
62651W        W34322  27.990  34.718   2.231
62652W        W34323   9.261  24.727   3.621
62653W        W34324   5.364  38.157  13.256
62654W        W34325  29.068  35.971   0.386
62655W        W34326  12.643  18.498   1.515
62656W        W34327  35.831   9.715   0.858
62657W        W34328  13.216   6.191   3.837
62658W        W34329   5.701  26.466   0.057
62659W        W34330  34.139  29.138   3.093
62660W        W34331  16.627  40.982   1.667
62661W        W34332  30.989  42.627  13.418
62662W        W34333  27.508   1.443   2.231
62663W        W34334  32.857  42.277  14.291
62664W        W34335  38.658   8.746   4.293
62665W        W34336  25.790  33.811   0.472
62666W        W34337   7.060  17.470  13.811
62667W        W34338  21.997  32.547  12.372
62668W        W34339  39.030  41.810  13.431
62669W        W34340   0.299  10.609   3.248
62670W        W34341   3.335  26.093   0.851
62671W        W34342   8.428  34.815   2.606
62672W        W34343  17.599  41.810  14.447
62673W        W34344  39.977  37.079  12.708
62674W        W34345  27.728  24.043  12.888
62675W        W34346  43.052  28.196  10.655
62676W        W34347  34.955  43.998   4.207
62677W        W34348  30.572   4.939  11.555
62678W        W34349   3.833  38.937   0.153
62679W        W34350  11.056  37.443   4.864
62680W        W34351  25.446  23.541  11.239
62681W        W34352  29.274  28.915  11.455
62682W        W34353  28.940  11.741  14.088
62683W        W34354  39.980  16.564   2.033
62684W        W34355  29.440  29.392  13.524
62685W        W34356  31.557  24.774   0.332
62686W        W34357  22.997  24.231   2.765
62687W        W34358  24.360  21.003   3.642
62688W        W34359  44.918  32.907  12.542
62689W        W34360  35.402   6.867   1.940
62690W        W34361  35.333  13.083   1.857
62691W        W34362  33.863  43.432  13.391
62692W        W34363  41.424  20.951  14.507
62693W        W34364  29.306  42.141   3.853
62694W        W34365  22.903  16.514   1.833
62695W        W34366   3.772  13.831   1.370
62696W        W34367  13.656  13.639   1.861
62697W        W34368  16.395  38.054  13.281
62698W        W34369  23.192  14.453   1.298
62699W        W34370  41.113  38.480   3.811
62700W        W34371  43.877  30.431   1.452
62701W        W34372  10.268  26.631  13.017
62702W        W34373  44.602  43.320   3.234
62703W        W34374  26.601  15.629  12.024
62704W        W34375  20.571  18.790  11.596
62705W        W34376  43.954  41.455  14.442
62706W        W34377  39.268  35.813   1.676
62707W        W34378  19.189  19.700  12.543
62708W        W34379   4.990   8.850  12.597
62709W        W34380  28.950  13.751   0.821
62710W        W34381  21.532   7.835   4.208
62711W        W34382  28.729   5.164  12.396
62712W        W34383   5.963   5.903   1.755
62713W        W34384   2.925  13.058   3.359
62714W        W34385   7.953  27.948  13.548
62715W        W34386  21.759  12.022   0.607
62716W        W34387  16.745   6.186  13.818
62717W        W34388  29.501  14.746  12.102
62718W        W34389   0.456  27.541  10.691
62719W        W34390   4.224  26.501   1.026
62720W        W34391   5.757  14.134  11.292
62721W        W34392  28.039  16.002   2.236
62722W        W34393  37.516  34.756  10.680
62723W        W34394  20.067  38.420  14.342
62724W        W34395  39.665  41.167  13.484
62725W        W34396  20.181  15.398   4.690
62726W        W34397  30.629   2.306  12.236
62727W        W34398  27.158  37.299  10.727
62728W        W34399  40.510  24.555   3.430
62729W        W34400  39.610   7.252  11.725
62730W        W34401  26.562  36.172  12.389
62731W        W34402  11.747  34.118  11.755
62732W        W34403  44.892  18.027  13.014
62733W        W34404  42.593  10.016  12.578
62734W        W34405  35.352  27.607  13.346
62735W        W34406   6.364  11.684   4.517
62736W        W34407  28.117  12.548  11.145
62737W        W34408  35.018  40.388  14.089
62738W        W34409  34.134  19.321   2.066
62739W        W34410  32.434  25.270   2.082
62740W        W34411  32.210  32.566  14.936
62741W        W34412  40.207  16.488   3.241
62742W        W34413  15.852  25.179  14.543
62743W        W34414  24.038   7.268  10.751
62744W        W34415  18.262  41.636   3.302
62745W        W34416  36.514   9.152  12.465
62746W        W34417  25.176  24.907   0.197
62747W        W34418   4.373  12.577  14.891
62748W        W34419  29.659  20.277   0.364
62749W        W34420  44.225   4.732  11.627
62750W        W34421   6.820  29.797   0.690
62751W        W34422  39.434  17.774  13.773
62752W        W34423  12.180  33.834  14.434
62753W        W34424  20.269  35.024   3.635
62754W        W34425  39.109  12.541  13.435
62755W        W34426  15.987  32.335   2.632
62756W        W34427  23.557  11.689  12.582
62757W        W34428   7.423   1.990  11.149
62758W        W34429  29.188  40.840  13.076
62759W        W34430   9.884  41.953   2.877
62760W        W34431   7.367  17.789   2.434
62761W        W34432  21.042  33.928   2.331
62762W        W34433  14.411  29.226  14.845
62763W        W34434  16.741  23.348   4.569
62764W        W34435  33.989  25.562   3.754
62765W        W34436   4.174  18.732  13.736
62766W        W34437   3.490   0.474  13.009
62767W        W34438  29.862  17.140   4.239
62768W        W34439   2.137  40.283  14.982
62769W        W34440  31.094  30.784   2.726
62770W        W34441   5.286   6.895  13.139
62771W        W34442  13.191  19.852  14.792
62772W        W34443  28.259  25.182  11.165
62773W        W34444  35.167   1.080  12.172
62774W        W34445  42.078   4.966   2.238
62775W        W34446  33.884  34.069  11.167
62776W        W34447  43.149  29.015   0.969
62777W        W34448   9.310   9.453   2.367
62778W        W34449  41.547  14.281   3.162
62779W        W34450  19.438  15.024   3.193
62780W        W34451  41.808  24.270   2.184
62781W        W34452  34.505   9.180   3.391
62782W        W34453  42.245  33.906  14.985
62783W        W34454  24.752  43.398  10.708
62784W        W34455  36.373   8.136   0.549
62785W        W34456  30.588  26.540  10.528
62786W        W34457   5.295  16.619  11.388
62787W        W34458  37.946  22.544   1.474
62788W        W34459  15.684   8.424  13.848
62789W        W34460  44.122  25.702   2.614
62790W        W34461  32.170  19.210   0.922
62791W        W34462   0.967  23.043  13.428
62792W        W34463  19.658  24.475  10.182
62793W        W34464   1.824   3.158  14.889
62794W        W34465  21.213   9.886  12.918
62795W        W34466  13.171  16.557  13.335
62796W        W34467  36.504  44.352  14.233
62797W        W34468  10.384   5.880   2.085
62798W        W34469  44.934   3.801   2.036
62799W        W34470  23.233  22.992   3.107
62800W        W34471  37.133  41.867  10.764
62801W        W34472   4.445  39.354   0.619
62802W        W34473  13.180  23.141   0.975
62803W        W34474   5.092  33.408   3.326
62804W        W34475  36.116   6.680  14.770
62805W        W34476  29.984  31.645   3.339
62806W        W34477  18.659  26.489   1.922
62807W        W34478   6.627  38.971   0.392
62808W        W34479  33.096  10.659  13.428
62809W        W34480  42.872   5.141   2.835
62810W        W34481  20.367   2.791   2.301
62811W        W34482   7.392  39.401   4.491
62812W        W34483   2.531  32.006  12.057
62813W        W34484  17.242  36.088  11.000
62814W        W34485  22.608  20.508  10.793
62815W        W34486  39.523   9.678   4.631
62816W        W34487  40.390  40.048  12.475
62817W        W34488  41.728   5.400   4.378
62818W        W34489   7.955  43.011  14.327
62819W        W34490   6.831   3.060  14.149
62820W        W34491  33.534  42.908  14.841
62821W        W34492  14.911  31.977   0.283
62822W        W34493   0.425  44.597   1.870
62823W        W34494   1.944  26.388  10.720
62824W        W34495  36.422  11.883   3.165
62825W        W34496   4.779  25.726  14.893
62826W        W34497  15.585  29.426   5.112
62827W        W34498  27.371  37.066  11.171
62828W        W34499  34.613   0.675  13.334
62829W        W34500  37.219  10.121  12.124
62830W        W34501  15.782  31.472   4.603
62831W        W34502   5.456  29.454  11.196
62832W        W34503  40.837  11.368   3.674
62833W        W34504   6.641   4.311  13.374
62834W        W34505  40.238  29.544   1.594
62835W        W34506  32.024   1.689   5.120
62836W        W34507  39.911  10.161  14.976
62837W        W34508  24.778  18.573   1.949
62838W        W34509   9.195  43.538   3.038
62839W        W34510  26.463  13.236  12.987
62840W        W34511  27.960  18.258   4.546
62841W        W34512  29.892  33.494   3.527
62842W        W34513  19.739  35.118   1.379
62843W        W34514   1.008  44.444   2.612
62844W        W34515  30.600   3.356   0.018
62845W        W34516  11.922  39.919  13.926
62846W        W34517  30.093   7.219   5.154
62847W        W34518  16.780  15.852  12.848
62848W        W34519  37.428  36.298   0.800
62849W        W34520   0.850  19.351  11.618
62850W        W34521   9.356   2.940  13.808
62851W        W34522  43.310  38.297  14.899
62852W        W34523  20.930   3.094  13.023
62853W        W34524   1.914  34.701  13.898
62854W        W34525  14.726  34.217  14.858
62855W        W34526  26.929  30.411   3.222
62856W        W34527  30.637  37.095   0.395
62857W        W34528   0.743  42.574  12.979
62858W        W34529  34.407  20.560   2.518
62859W        W34530  15.346  15.153   4.524
62860W        W34531  16.516   9.918   1.505
62861W        W34532  36.912  43.528   0.459
62862W        W34533  18.942  12.279  13.920
62863W        W34534  25.638  42.289   3.375
62864W        W34535  14.082  42.453   2.898
62865W        W34536  26.496  44.984  13.571
62866W        W34537  12.140  21.428  11.098
62867W        W34538  21.130  28.823   1.409
62868W        W34539   6.956   7.045   1.124
62869W        W34540  17.247   9.402  13.591
62870W        W34541  32.986  39.842  11.097
62871W        W34542   1.843  34.581   4.438
62872W        W34543  25.470  24.585  12.192
62873W        W34544  32.443  37.116  14.828
62874W        W34545  42.015  10.316  14.818
62875W        W34546  21.867  24.748  12.459
62876W        W34547   9.832   2.199   1.786
62877W        W34548   5.140  33.769   0.073
62878W        W34549  40.017   8.701   4.560
62879W        W34550  16.791  19.485   2.541
62880W        W34551   6.278  35.550   1.516
62881W        W34552  36.667  39.870  11.466
62882W        W34553   4.093  40.792   0.547
62883W        W34554  32.343  14.752   0.844
62884W        W34555  10.159  10.325   4.117
62885W        W34556  15.874  38.983  12.088
62886W        W34557  35.379  31.744   2.326
62887W        W34558  24.952  32.913  11.069
62888W        W34559  44.283   9.240  14.502
62889W        W34560  25.083  17.796   0.725
62890W        W34561   7.665   9.047  12.053
62891W        W34562  42.842  15.204   4.625
62892W        W34563  41.469  27.141  11.999
62893W        W34564   6.913  42.526   3.277
62894W        W34565   2.851  22.693   2.848
62895W        W34566  31.640   7.206   1.392
62896W        W34567  11.773  36.759   2.408
62897W        W34568  14.865   8.190  12.089
62898W        W34569   7.720  11.274   2.781
62899W        W34570  17.512  12.287  11.347
62900W        W34571  12.361  13.943  11.193
62901W        W34572  18.015  14.605  12.591
62902W        W34573  21.920  13.777   4.129
62903W        W34574  29.069  18.593  10.987
62904W        W34575   0.382  34.429   2.722
62905W        W34576  22.494  23.154   2.628
62906W        W34577  14.476  31.120   5.251
62907W        W34578  13.216  13.388  14.971
62908W        W34579  35.081   2.777  14.910
62909W        W34580  19.596  39.882  12.077
62910W        W34581  22.381   2.219  14.624
62911W        W34582  39.029   3.773   1.257
62912W        W34583  29.663  18.566  11.021
62913W        W34584  26.199  32.066   1.985
62914W        W34585  19.142  27.136   3.802
62915W        W34586  16.015  29.551  10.630
62916W        W34587   5.655  41.022   0.713
62917W        W34588  36.799   5.160  13.989
62918W        W34589  23.347  12.639  12.588
62919W        W34590  44.377   5.872  12.530
62920W        W34591   4.931  37.348  10.296
62921W        W34592  19.754   8.916   4.890
62922W        W34593  23.435  27.430   0.843
62923W        W34594   3.118  38.971   2.855
62924W        W34595   6.820  14.916  12.405
62925W        W34596   0.462   2.386  14.040
62926W        W34597   1.947  18.135   3.164
62927W        W34598  13.779   6.418   0.847
62928W        W34599  19.555  27.160  14.931
62929W        W34600  30.499  44.558   4.187
62930W        W34601  29.653  41.989   4.733
62931W        W34602  22.242  27.309   2.809
62932W        W34603   6.559  37.940  11.532
62933W        W34604  44.885  15.557  10.546
62934W        W34605  41.706  42.856  10.724
62935W        W34606  32.841  23.999   0.402
62936W        W34607  23.550  23.518   1.891
62937W        W34608  27.697  18.181   5.046
62938W        W34609  19.899  11.971   2.952
62939W        W34610  14.643  41.278  11.608
62940W        W34611  41.676  27.590   2.228
62941W        W34612   3.951  37.880   4.042
62942W        W34613   9.059   6.341  12.359
62943W        W34614  19.536   8.450  13.961
62944W        W34615  38.332  43.804   2.605
62945W        W34616   6.132   4.736   3.136
62946W        W34617  33.970  22.364   4.760
62947W        W34618  18.643  22.756  14.542
62948W        W34619  26.258  17.313  14.952
62949W        W34620  21.976  10.745   0.843
62950W        W34621   6.222  24.608  10.597
62951W        W34622   2.737   3.154   4.053
62952W        W34623   4.238  30.343   4.430
62953W        W34624  32.897  31.608  10.024
62954W        W34625   4.837  32.061   3.421
62955W        W34626  11.191   9.738  12.363
62956W        W34627   5.318  13.103  10.998
62957W        W34628  28.689  19.177  12.532
62958W        W34629  43.954  28.181  12.857
62959W        W34630  37.498  16.044  13.065
62960W        W34631  19.311  21.025   1.377
62961W        W34632  10.147  30.049  10.712
62962W        W34633  37.368  18.775  12.959
62963W        W34634  43.065  24.394   4.558
62964W        W34635   6.255  22.493   1.443
62965W        W34636   5.788  22.823   2.300
62966W        W34637  38.397   8.695   3.840
62967W        W34638   8.287   0.488  12.653
62968W        W34639  14.068   3.864  14.319
62969W        W34640  36.993   0.061  14.352
62970W        W34641  25.826  35.392   4.593
62971W        W34642   3.197  32.011   0.433
62972W        W34643  27.042   2.435  10.591
62973W        W34644  38.468   1.904   1.157
62974W        W34645  22.232  39.754   1.306
62975W        W34646  13.073  12.639  13.871
62976W        W34647  26.537  13.946  11.205
62977W        W34648   0.285  39.917  10.405
62978W        W34649  30.417  14.610  13.346
62979W        W34650  22.268  18.578  13.448
62980W        W34651  30.937   4.617  13.441
62981W        W34652  16.704  17.301  14.322
62982W        W34653  39.914  18.053   2.889
62983W        W34654   5.911  10.124  13.041
62984W        W34655  25.887  34.051   2.224
62985W        W34656  41.068   8.846   0.292
62986W        W34657  44.323  11.759  14.834
62987W        W34658  28.070  17.114  14.441
62988W        W34659   5.450  22.008   3.624
62989W        W34660  19.053  18.605   0.568
62990W        W34661  26.737  30.627  13.724
62991W        W34662   0.853   3.038  11.593
62992W        W34663  11.316  39.768   1.745
62993W        W34664  23.248  12.589   0.360
62994W        W34665  43.849   9.323  12.453
62995W        W34666   4.673   9.785   1.870
62996W        W34667  17.470  26.155  13.369
62997W        W34668  28.079  15.215  11.626
62998W        W34669  19.364  13.823  10.394
62999W        W34670  17.111  40.721   4.170
63000W        W34671  17.227  10.090  11.346
63001W        W34672   7.278   4.392   4.566
63002W        W34673   3.865  23.832  13.418
63003W        W34674   9.298  12.354  13.342
63004W        W34675  38.415  28.019   4.292
63005W        W34676  43.395  12.155   1.710
63006W        W34677  17.165  21.026  12.369
63007W        W34678  33.510  36.054  14.315
63008W        W34679  14.202   1.567  11.433
63009W        W34680  25.121  28.156   5.002
63010W        W34681  31.458  38.909  13.823
63011W        W34682  34.243  11.804  11.115
63012W        W34683  18.658  25.074   9.820
63013W        W34684  42.464  18.028  11.581
63014W        W34685   0.997   0.878   3.271
63015W        W34686   9.150  13.773   0.177
63016W        W34687  33.640   7.674  13.058
63017W        W34688  17.349  21.049   1.384
63018W        W34689  12.157   4.788  12.264
63019W        W34690  31.649  16.155  14.099
63020W        W34691   8.674  26.240   2.215
63021W        W34692  29.068  20.115  10.497
63022W        W34693  11.400  37.323   1.724
63023W        W34694   8.870   5.868  14.185
63024W        W34695  15.988  31.932  10.039
63025W        W34696  27.481  22.017  14.373
63026W        W34697   7.706   6.883   1.505
63027W        W34698   0.775   9.392   3.654
63028W        W34699  10.114  38.403   4.454
63029W        W34700  27.389   1.039  14.075
63030W        W34701  31.024  25.130   3.198
63031W        W34702  41.086  38.336   0.037
63032W        W34703  20.292  19.345  10.747
63033W        W34704  43.201  28.171   5.052
63034W        W34705   9.942  19.989  14.369
63035W        W34706   5.406  37.195  11.162
63036W        W34707  13.657  17.685  11.623
63037W        W34708  36.280  26.628  14.043
63038W        W34709  36.776  26.483   3.173
63039W        W34710  34.324   2.749   2.271
63040W        W34711  42.758  15.083  14.009
63041W        W34712   1.820  14.683  14.490
63042W        W34713  40.009  17.797   1.309
63043W        W34714  40.963  40.912  13.472
63044W        W34715  35.794   9.957  14.005
63045W        W34716   2.195  16.346   0.807
63046W        W34717   6.858  18.542  10.747
63047W        W34718  42.894  29.313  11.786
63048W        W34719   8.704  39.212  10.558
63049W        W34720  38.868   1.234  14.565
63050W        W34721  21.979   8.895   1.228
63051W        W34722   0.727  29.882  12.292
63052W        W34723  43.926  18.816   2.832
63053W        W34724  19.676  40.396  12.148
63054W        W34725  16.144   2.688  10.664
63055W        W34726  24.629  18.872  13.083
63056W        W34727  13.244  19.775   2.039
63057W        W34728  23.793  36.567   3.227
63058W        W34729  18.588  14.099  11.920
63059W        W34730   5.276  32.573  11.645
63060W        W34731  14.681  35.230   4.065
63061W        W34732  39.898  43.782   1.030
63062W        W34733  36.024  13.261   3.119
63063W        W34734  10.289  39.539   0.833
63064W        W34735  12.812  38.612  14.107
63065W        W34736  10.286  10.090   4.544
63066W        W34737  26.525   8.424  10.647
63067W        W34738   5.532   5.198   1.428
63068W        W34739  38.112  12.809   0.762
63069W        W34740   6.400  23.543  11.443
63070W        W34741  16.352  36.526  11.168
63071W        W34742  27.051  19.778  14.987
63072W        W34743  24.150  31.505   1.459
63073W        W34744  26.154  31.196   3.719
63074W        W34745  39.890  24.428   0.798
63075W        W34746  17.637  24.913  10.381
63076W        W34747  41.861  44.262   1.813
63077W        W34748  22.120   8.951   3.576
63078W        W34749  44.929  22.966  14.633
63079W        W34750  11.145  41.388  13.793
63080W        W34751  28.698  29.452   1.998
63081W        W34752  44.076  38.986  12.979
63082W        W34753  40.536   4.926   3.264
63083W        W34754   6.467  38.518   1.253
63084W        W34755   2.356  30.529   1.954
63085W        W34756   4.682  40.025  11.522
63086W        W34757  33.999   7.710  11.615
63087W        W34758  17.999  33.990  11.609
63088W        W34759   0.664   3.721  14.355
63089W        W34760  40.785  27.108   4.687
63090W        W34761  23.358  23.073   4.650
63091W        W34762  12.944  28.498   0.767
63092W        W34763   0.296  34.450  14.288
63093W        W34764  14.399  13.703  12.224
63094W        W34765  41.002   8.957   2.399
63095W        W34766   0.835  44.498  11.993
63096W        W34767  19.363   7.503  13.617
63097W        W34768  24.579  11.202  14.030
63098W        W34769  26.165   6.427   3.712
63099W        W34770   1.002  18.855  11.771
63100W        W34771  18.136  37.824  13.816
63101W        W34772  26.236  41.431   0.660
63102W        W34773  30.148  44.038   2.181
63103W        W34774  43.795  31.843  11.120
63104W        W34775   3.037  28.411   4.255
63105W        W34776   6.199  14.615   0.820
63106W        W34777  40.606  31.845   1.749
63107W        W34778  13.616  26.093  14.877
63108W        W34779   2.359  10.508  11.137
63109W        W34780  34.615  18.784  13.591
63110W        W34781  15.971  10.791  14.722
63111W        W34782   7.861  29.377   1.731
63112W        W34783  13.849  37.561  14.923
63113W        W34784  38.901  12.659   1.865
63114W        W34785  35.493  11.468   0.827
63115W        W34786  24.000  23.964  14.258
63116W        W34787   2.779  44.393  11.410
63117W        W34788  13.283  14.629   0.897
63118W        W34789  26.102   1.226   2.386
63119W        W34790  35.338  25.932   0.893
63120W        W34791   7.558  17.573  13.898
63121W        W34792  11.125  19.619  14.158
63122W        W34793  16.743  29.590  11.184
63123W        W34794  31.657  14.776   2.215
63124W        W34795  13.331  15.642   1.001
63125W        W34796   4.853  44.699  12.857
63126W        W34797  40.900  36.544   3.747
63127W        W34798  40.503   0.800  12.121
63128W        W34799  22.754  44.414  13.307
63129W        W34800  38.913  20.559  13.752
63130W        W34801  12.904  42.420  12.021
63131W        W34802  11.502  13.954   0.743
63132W        W34803  11.602   3.398  10.903
63133W        W34804  30.453  36.250  10.995
63134W        W34805  10.600  32.524  10.404
63135W        W34806  34.348  18.827  11.438
63136W        W34807  44.268  12.120   4.150
63137W        W34808  39.780  42.976  11.241
63138W        W34809  27.613  27.193   1.409
63139W        W34810   1.706  18.613  11.136
63140W        W34811  21.245  42.748  11.547
63141W        W34812  13.801  41.573  13.399
63142W        W34813  18.504  39.382   1.119
63143W        W34814  10.731  14.299  12.414
63144W        W34815   2.009  18.978   0.527
63145W        W34816  14.389  36.205   1.470
63146W        W34817  39.391  15.789   0.225
63147W        W34818  41.260  32.546  13.835
63148W        W34819   8.409  29.466  12.034
63149W        W34820  28.156  44.668   3.071
63150W        W34821  11.887  12.294  10.522
63151W        W34822  25.691   3.290  14.727
63152W        W34823   1.490  42.305   0.245
63153W        W34824   9.992   5.917   4.633
63154W        W34825  37.298  38.465  12.663
63155W        W34826  14.083  39.371  13.500
63156W        W34827   2.524  27.713  13.412
63157W        W34828  15.339  29.853  14.074
63158W        W34829   3.160   4.386   2.806
63159W        W34830  40.403  16.793   2.864
63160W        W34831  16.368  21.317  13.687
63161W        W34832  12.184   1.824  10.332
63162W        W34833  35.122   2.787   0.817
63163W        W34834  21.657   5.638  14.972
63164W        W34835  11.837  30.762  11.160
63165W        W34836  37.080  26.187   2.262
63166W        W34837  41.635  12.064  14.282
63167W        W34838  41.159  37.510  13.397
63168W        W34839  29.057  28.540   1.239
63169W        W34840  19.454  16.586   1.492
63170W        W34841  29.499  40.368  12.498
63171W        W34842  14.110  40.597   4.404
63172W        W34843  39.266   5.250   4.239
63173W        W34844   2.224  29.022   2.163
63174W        W34845  37.765  37.541  12.803
63175W        W34846   6.273  38.559   1.731
63176W        W34847  31.678  35.496  13.850
63177W        W34848  21.542  19.215  11.110
63178W        W34849  33.451  43.005  14.344
63179W        W34850  14.068  37.369  11.341
63180W        W34851  10.272  15.756  12.491
63181W        W34852  31.692  37.282   1.218
63182W        W34853   9.685  13.353  10.659
63183W        W34854  11.100  40.232   1.718
63184W        W34855  24.551  12.388  13.952
63185W        W34856   6.786  14.379  13.912
63186W        W34857  11.639  29.104  13.062
63187W        W34858  33.518  15.930   1.521
63188W        W34859  30.610   9.212   0.471
63189W        W34860   3.810  37.296  12.498
63190W        W34861  39.277  36.062  12.945
63191W        W34862  13.143   0.046   3.569
63192W        W34863  36.499  33.669   4.832
63193W        W34864   0.996   2.479  14.018
63194W        W34865  41.443   8.936  14.206
63195W        W34866  39.791  29.475   3.835
63196W        W34867  14.234  36.000   2.826
63197W        W34868   8.853  15.340   2.826
63198W        W34869  17.418  23.744   3.614
63199W        W34870  41.765  41.982  12.072
63200W        W34871  44.534   7.829   0.793
63201W        W34872  34.903   7.389   2.367
63202W        W34873  17.674   3.115   1.921
63203W        W34874  32.652  26.616   0.008
63204W        W34875  40.010   2.932   2.170
63205W        W34876  28.431  23.053   0.504
63206W        W34877  39.086   4.834  14.846
63207W        W34878  23.748  10.820   2.822
63208W        W34879  29.178   0.247  12.478
63209W        W34880  42.940  35.163  11.190
63210W        W34881   5.352  14.430   0.439
63211W        W34882  14.882  21.115  11.717
63212W        W34883  21.936  19.510   2.258
63213W        W34884  41.385  34.119   3.818
63214W        W34885  29.451  24.638  14.855
63215W        W34886  38.103  24.537   3.294
63216W        W34887  15.744  25.018  14.055
63217W        W34888  16.488   4.904   9.640
63218W        W34889  35.973  36.908   1.557
63219W        W34890  14.225  29.673  10.390
63220W        W34891   4.196  42.785  11.057
63221W        W34892  36.680  35.392   2.240
63222W        W34893  26.681  32.513  12.138
63223W        W34894  34.758  37.824  12.354
63224W        W34895  15.593  36.213   4.808
63225W        W34896  32.140  38.093  10.750
63226W        W34897  24.120   5.748   4.695
63227W        W34898  32.190  44.418  10.813
63228W        W34899  10.352  25.577  11.460
63229W        W34900  33.495  30.702   1.517
63230W        W34901  32.650  36.321   0.618
63231W        W34902   3.765  17.239   2.771
63232W        W34903  23.286  40.981  10.626
63233W        W34904  19.694  31.591  11.838
63234W        W34905  19.754  27.761   4.210
63235W        W34906  35.593   2.966  11.060
63236W        W34907   8.906  35.801   1.267
63237W        W34908  36.514  17.769   1.637
63238W        W34909   3.249  44.840   0.897
63239W        W34910  24.721  29.565   2.157
63240W        W34911  10.852  42.428   1.022
63241W        W34912   6.951  12.627  13.040
63242W        W34913   4.379   2.885   0.898
63243W        W34914  12.394   8.644   4.077
63244W        W34915   1.263  14.580   0.768
63245W        W34916  32.367  36.395  12.900
63246W        W34917  44.005  35.448   3.687
63247W        W34918  23.125  40.405   0.068
63248W        W34919   2.762  18.758   1.323
63249W        W34920  36.265  41.663  11.149
63250W        W34921  32.813  29.699   1.180
63251W        W34922  24.263   6.293  14.318
63252W        W34923   7.931  42.303   1.810
63253W        W34924  44.221  42.080   4.807
63254W        W34925  43.143  25.350   2.322
63255W        W34926  10.060   9.380   1.407
63256W        W34927   3.233  25.955  13.777
63257W        W34928  25.042  36.656  14.881
63258W        W34929  13.290  44.038  10.462
63259W        W34930   2.573  14.586   3.281
63260W        W34931   1.987   5.286   0.456
63261W        W34932  23.242  26.402   3.718
63262W        W34933  40.947  44.393  14.016
63263W        W34934  13.585  19.029  11.243
63264W        W34935   5.047  32.411  14.878
63265W        W34936  19.176  25.636   4.017
63266W        W34937  26.540  38.552   4.623
63267W        W34938  12.619  32.587  10.581
63268W        W34939  41.719  14.617   1.679
63269W        W34940  33.015  38.195   2.747
63270W        W34941  44.537  34.071   1.162
63271W        W34942  17.653  41.650  14.932
63272W        W34943  22.162  42.058  11.956
63273W        W34944   9.102  29.643   0.449
63274W        W34945  21.198  16.707  14.495
63275W        W34946  23.603   1.289   0.043
63276W        W34947  21.898  13.630   1.806
63277W        W34948  41.467   6.344  10.682
63278W        W34949   1.391  21.761   1.993
63279W        W34950  14.546   1.693  12.994
63280W        W34951   6.796  36.959  14.330
63281W        W34952  37.436  17.648   4.282
63282W        W34953  44.254   4.214  13.426
63283W        W34954  11.095  26.400   0.350
63284W        W34955  26.614  42.607   4.645
63285W        W34956  44.513  20.006   4.657
63286W        W34957   4.667  39.596   2.763
63287W        W34958  44.937  43.032  10.675
63288W        W34959  40.454   1.953   2.196
63289W        W34960  43.025   1.001  13.615
63290W        W34961  14.292   2.449  11.083
63291W        W34962  29.643  31.845  14.983
63292W        W34963  10.848  21.860   0.819
63293W        W34964  35.597  13.564  11.161
63294W        W34965   5.942  43.237  12.152
63295W        W34966   0.713   0.911  12.402
63296W        W34967  40.402  41.551  14.805
63297W        W34968   3.208  28.974  11.908
63298W        W34969  28.426   8.203  10.918
63299W        W34970  19.158   9.452   1.379
63300W        W34971   0.295   8.180   2.425
63301W        W34972  30.239  16.134  14.653
63302W        W34973  17.674  33.884  12.111
63303W        W34974  33.893  33.409  11.508
63304W        W34975  36.896   3.202  12.079
63305W        W34976  44.118   5.590   3.364
63306W        W34977  41.520   3.507   0.777
63307W        W34978   3.379  14.321  13.202
63308W        W34979  26.464  17.281   1.337
63309W        W34980  30.868  38.582  14.025
63310W        W34981   4.940  12.032   4.542
63311W        W34982  37.788  34.617   3.604
63312W        W34983  15.624   1.382   3.314
63313W        W34984  29.117  34.449  13.510
63314W        W34985  30.280  41.499  12.494
63315W        W34986  33.860  22.053  13.914
63316W        W34987  23.952  42.484  12.465
63317W        W34988  36.101  26.107  13.904
63318W        W34989  16.609  11.793   4.188
63319W        W34990   9.760  20.714  12.851
63320W        W34991   8.228  11.081  12.173
63321W        W34992  12.336   7.788  11.486
63322W        W34993  12.641  44.438   0.059
63323W        W34994  34.048  11.340   2.799
63324W        W34995   8.777  14.759   3.655
63325W        W34996  15.199   3.719  11.866
63326W        W34997  43.544  38.016  12.510
63327W        W34998  30.647  15.118  11.070
63328W        W34999  32.332   6.606  13.594
63329W        W35000  31.596   7.176  10.694
63330W        W35001  39.880   4.287  13.877
63331W        W35002  21.143  37.134   0.189
63332W        W35003  35.869  33.435   3.138
63333W        W35004  11.870  15.178  10.676
63334W        W35005  18.029  16.005  14.474
63335W        W35006  42.894   7.196   4.301
63336W        W35007   5.876   6.200  14.874
63337W        W35008   6.095  18.733  13.503
63338W        W35009  44.465   8.157   1.497
63339W        W35010   7.428  25.069   4.205
63340W        W35011  36.377  31.053  10.755
63341W        W35012  24.155  38.380  14.157
63342W        W35013  15.115   3.877  14.476
63343W        W35014  37.373  39.590  11.909
63344W        W35015  20.025   9.793   2.871
63345W        W35016   3.688  19.564  11.057
63346W        W35017   6.675  40.203   4.853
63347W        W35018  15.681  37.364   0.193
63348W        W35019  34.466  24.628  12.628
63349W        W35020  36.615  42.382  13.349
63350W        W35021  32.074   8.171   0.379
63351W        W35022   3.210  15.436   4.543
63352W        W35023  35.136  18.517  12.148
63353W        W35024   3.772  20.321   4.632
63354W        W35025  12.179  17.240  12.122
63355W        W35026  20.290  24.199  10.880
63356W        W35027  33.556  12.300   4.190
63357W        W35028  24.084  36.364   3.662
63358W        W35029  13.337  32.974  14.760
63359W        W35030  11.207  29.242   1.747
63360W        W35031  14.389   1.312  14.494
63361W        W35032  17.224  34.545  14.485
63362W        W35033  16.327  26.537  13.111
63363W        W35034   9.364  11.210   2.677
63364W        W35035  22.277   4.369  14.968
63365W        W35036  37.558  35.060   1.278
63366W        W35037  27.931  10.342  14.068
63367W        W35038  11.538  29.065  14.318
63368W        W35039  20.450   4.472  13.856
63369W        W35040   9.105  41.816   3.075
63370W        W35041  24.948  29.556  14.592
63371W        W35042   9.261  25.804   0.196
63372W        W35043  12.084  21.498   2.581
63373W        W35044  41.314  30.900   1.088
63374W        W35045   1.759  28.401  10.892
63375W        W35046  14.086  22.212  10.477
63376W        W35047  27.706   5.528  11.055
63377W        W35048  37.830  34.394  12.371
63378W        W35049   8.816  28.686  13.091
63379W        W35050   7.207  33.113  13.043
63380W        W35051  15.175  17.730   4.656
63381W        W35052  22.464  16.080   1.711
63382W        W35053   4.871  39.082   0.152
63383W        W35054  26.218   9.652   0.318
63384W        W35055  40.553  33.894   2.265
63385W        W35056   6.335  18.554  12.345
63386W        W35057  44.253  13.245   4.862
63387W        W35058  18.999  26.627   3.723
63388W        W35059  32.690  13.276  11.395
63389W        W35060   2.226  10.616   1.087
63390W        W35061  17.339  12.271  14.909
63391W        W35062  34.406   0.321  12.992
63392W        W35063   4.150  40.363  12.945
63393W        W35064   3.287  13.013  12.933
63394W        W35065  18.111  14.860  13.911
63395W        W35066  20.365   1.037   1.088
63396W        W35067   0.053   2.754   3.709
63397W        W35068   9.878  21.518   0.669
63398W        W35069  30.571  28.197   1.930
63399W        W35070  39.254   7.022  13.461
63400W        W35071  25.963  43.847   0.175
63401W        W35072  35.425   6.382  13.350
63402W        W35073   5.495   6.425   3.295
63403W        W35074  12.830  44.152  14.406
63404W        W35075   8.817   3.659  14.399
63405W        W35076   3.726  36.566  11.578
63406W        W35077   9.603  37.365  12.933
63407W        W35078  44.861  38.928   1.054
63408W        W35079  21.106  32.007  11.261
63409W        W35080   9.243  24.297   0.780
63410W        W35081  17.444  34.445  13.234
63411W        W35082   4.851  21.590  11.889
63412W        W35083  43.912  12.798  13.469
63413W        W35084  30.011   8.836   3.784
63414W        W35085   2.508  25.087  14.375
63415W        W35086  23.857  32.443   1.413
63416W        W35087  18.279  32.332   3.631
63417W        W35088  38.560  22.620  11.679
63418W        W35089  22.923   1.094   5.142
63419W        W35090  34.845  41.311   1.252
63420W        W35091  21.747   4.879   2.678
63421W        W35092  42.825  39.864   4.115
63422W        W35093  33.938  15.299   2.802
63423W        W35094  33.519  14.194   0.437
63424W        W35095   4.144  23.914  13.940
63425W        W35096  36.399  30.019  10.788
63426W        W35097   0.892  10.772  13.947
63427W        W35098  27.593  38.915  11.592
63428W        W35099  32.443   5.774   2.057
63429W        W35100  34.405  27.139   2.686
63430W        W35101  11.634  44.038   4.648
63431W        W35102   1.771   7.902  13.927
63432W        W35103  18.156   5.284  10.829
63433W        W35104  38.520  31.701   1.765
63434W        W35105  33.532  16.549  14.294
63435W        W35106  33.535   6.943   2.541
63436W        W35107  24.445  16.860  10.926
63437W        W35108  24.099   3.141  11.939
63438W        W35109  10.854  39.798   3.979
63439W        W35110  44.264  25.710   3.136
63440W        W35111  22.065   9.234   0.006
63441W        W35112  24.948  23.060  13.900
63442W        W35113  17.323  38.844  14.092
63443W        W35114   1.439   1.463   0.401
63444W        W35115  25.617  23.955   2.162
63445W        W35116  30.921   8.225   3.922
63446W        W35117  37.384  31.903   2.667
63447W        W35118  33.086  24.027  12.290
63448W        W35119  42.416   4.305  11.441
63449W        W35120  39.603  27.377  13.878
63450W        W35121   0.751  12.356  13.022
63451W        W35122  30.213  14.715   4.782
63452W        W35123  12.309  29.638   0.331
63453W        W35124  11.842   4.238   4.055
63454W        W35125  19.094  36.383  12.882
63455W        W35126  16.573   9.128   0.857
63456W        W35127  34.686  38.049   0.001
63457W        W35128  33.844  33.511   3.158
63458W        W35129  34.573  38.855  13.829
63459W        W35130  13.175   1.961   4.829
63460W        W35131   6.214  16.477  13.985
63461W        W35132   1.506  29.392  10.814
63462W        W35133  10.773   3.494  11.191
63463W        W35134   6.671   5.722   3.216
63464W        W35135  27.554   2.078  12.381
63465W        W35136  27.751  24.461   1.757
63466W        W35137   1.548  35.312   1.893
63467W        W35138  39.800  34.017  11.887
63468W        W35139   6.423  28.303  14.072
63469W        W35140  21.661  26.605   3.278
63470W        W35141  19.001  29.438   2.286
63471W        W35142  28.619   7.418  14.797
63472W        W35143  31.621   7.577   0.163
63473W        W35144   2.557  18.322  11.936
63474W        W35145  21.189  27.779   3.695
63475W        W35146   9.344   6.712  11.394
63476W        W35147  43.504  24.978  12.413
63477W        W35148  33.579  25.170   1.220
63478W        W35149  15.622   3.218  13.312
63479W        W35150  25.212  39.472  14.761
63480W        W35151   5.036  37.057   0.289
63481W        W35152  38.035  14.853   4.743
63482W        W35153  24.936  30.075   4.298
63483W        W35154  41.985   2.413  14.906
63484W        W35155  30.376   5.624  11.124
63485W        W35156  31.956  40.683   2.755
63486W        W35157  11.583  39.971  14.310
63487W        W35158  28.628  41.410   1.268
63488W        W35159  18.635  19.316  13.507
63489W        W35160   9.506  28.957  14.967
63490W        W35161  21.499  20.341   2.388
63491W        W35162  30.593  38.816   0.846
63492W        W35163  21.001   2.858   1.853
63493W        W35164  33.594  42.749  13.925
63494W        W35165  38.291  28.635   0.425
63495W        W35166  16.789  26.846   3.740
63496W        W35167  29.638  37.887  14.335
63497W        W35168  18.810   3.918   2.102
63498W        W35169  39.950  33.636   0.997
63499W        W35170  39.391   6.635  11.036
63500W        W35171  20.565  38.584  10.670
63501W        W35172   8.680   1.184  10.770
63502W        W35173  24.079  40.290  10.169
63503W        W35174  44.529  21.039   0.782
63504W        W35175  12.523  35.596  11.185
63505W        W35176   0.176  10.514  13.104
63506W        W35177  18.570  24.038  14.918
63507W        W35178  14.869  24.608   3.575
63508W        W35179  21.032  30.565   0.400
63509W        W35180   1.487  30.471  12.644
63510W        W35181  31.423  14.879   0.855
63511W        W35182  38.028  11.552   2.233
63512W        W35183  25.312   9.264   1.372
63513W        W35184  38.041  29.924   1.957
63514W        W35185  27.232   5.829  14.037
63515W        W35186  39.428  44.890   1.794
63516W        W35187   3.701  16.347  11.997
63517W        W35188  19.824  41.849  11.500
63518W        W35189  20.732  31.467   0.764
63519W        W35190  34.039   5.009  11.241
63520W        W35191  35.445  22.980  13.365
63521W        W35192  18.328  19.327   0.446
63522W        W35193  29.533  21.099  10.930
63523W        W35194   1.749  14.229  14.702
63524W        W35195  31.913  37.135  10.610
63525W        W35196  25.693   8.785  14.314
63526W        W35197  34.995  20.111  13.585
63527W        W35198  28.277  12.767  13.087
63528W        W35199  17.718  33.639  13.602
63529W        W35200  40.624  42.270  12.058
63530W        W35201  35.393  11.715  14.838
63531W        W35202  25.907  27.388   0.840
63532W        W35203  44.469   9.678   3.887
63533W        W35204  12.335  38.815   0.723
63534W        W35205  39.756   7.277  13.006
63535W        W35206  11.990  38.439  11.033
63536W        W35207   9.824  28.912   0.368
63537W        W35208  18.294  28.174   4.456
63538W        W35209  13.064   3.963   1.771
63539W        W35210  42.629  16.987   2.855
63540W        W35211  38.950  12.534  11.558
63541W        W35212  33.943  20.702   0.360
63542W        W35213  43.615  29.892   2.448
63543W        W35214   3.181   1.072  13.606
63544W        W35215  26.943   6.419   4.526
63545W        W35216  18.446  16.649   2.331
63546W        W35217  15.908  15.679  11.416
63547W        W35218   4.342  19.831   4.093
63548W        W35219  21.207   9.830   1.741
63549W        W35220  11.888  33.818  11.085
63550W        W35221  14.200  34.328   0.948
63551W        W35222  11.002  25.454  14.475
63552W        W35223  15.783   3.660  10.681
63553W        W35224  30.170  17.688  12.351
63554W        W35225  35.995   0.981  14.142
63555W        W35226  23.068  10.789  13.913
63556W        W35227  32.877   8.337  12.893
63557W        W35228  15.037  19.684   1.224
63558W        W35229  29.042   6.857   9.820
63559W        W35230  16.964  31.444   3.685
63560W        W35231  30.958  18.188  11.097
63561W        W35232  29.982  31.824  13.335
63562W        W35233  22.298  28.571  10.738
63563W        W35234  37.983  22.752   1.940
63564W        W35235  34.259  22.732   4.938
63565W        W35236  15.790   0.787   2.306
63566W        W35237   8.875  13.874  12.486
63567W        W35238  35.652  27.088  14.609
63568W        W35239  22.465  16.324  10.648
63569W        W35240  34.851   2.576   0.379
63570W        W35241  20.531  40.254   9.738
63571W        W35242  13.017  35.418   2.771
63572W        W35243  13.916  40.446   4.879
63573W        W35244  20.990  20.703   3.037
63574W        W35245   7.318   6.703   1.260
63575W        W35246  21.414  20.342   4.774
63576W        W35247  31.693  33.469   1.842
63577W        W35248   8.234  30.168  14.586
63578W        W35249   9.707   6.360   4.690
63579W        W35250  31.231  29.375  11.105
63580W        W35251  28.385  17.823   2.215
63581W        W35252  20.441  16.573   1.475
63582W        W35253  36.997  44.335   0.922
63583W        W35254  32.603  38.360   0.502
63584W        W35255  42.894  22.302  11.120
63585W        W35256  38.815   2.392  13.898
63586W        W35257  12.338  25.097   1.339
63587W        W35258  39.716  16.290   1.366
63588W        W35259  42.983  39.592   3.693
63589W        W35260  33.582  36.810   4.242
63590W        W35261   5.418  12.753  10.620
63591W        W35262   7.507   3.596   2.511
63592W        W35263  21.652  42.880  13.716
63593W        W35264  24.428  19.616   3.149
63594W        W35265  34.008  14.455  11.496
63595W        W35266  42.404   6.244  14.952
63596W        W35267   1.683   3.412   4.051
63597W        W35268   5.834   1.241   1.470
63598W        W35269   9.867  19.870   0.953
63599W        W35270  12.864  40.949  13.997
63600W        W35271   3.654   2.738  13.790
63601W        W35272  14.903  11.180   3.188
63602W        W35273  38.448   4.272   0.875
63603W        W35274  36.706  29.499   4.212
63604W        W35275  15.119   1.098  13.845
63605W        W35276  20.607  22.217   3.156
63606W        W35277  30.524  44.779  13.939
63607W        W35278  33.154  11.673  12.449
63608W        W35279  44.814   2.785  11.103
63609W        W35280   0.876  11.224  14.187
63610W        W35281   0.886  22.665  14.349
63611W        W35282  10.782  17.168   3.242
63612W        W35283  32.331  13.627  11.586
63613W        W35284  23.979  19.610  11.582
63614W        W35285  25.886  29.950  12.538
63615W        W35286   0.456   4.450   3.894
63616W        W35287  10.794  17.140  12.249
63617W        W35288  10.963  16.111   1.328
63618W        W35289  39.079   7.244   5.013
63619W        W35290  15.258  22.694   4.669
63620W        W35291  20.247  24.707  12.460
63621W        W35292  44.935  10.865   0.821
63622W        W35293  31.224  21.766  12.089
63623W        W35294  13.419  29.351   4.421
63624W        W35295  40.364   7.320   4.813
63625W        W35296   4.264  33.076   0.953
63626W        W35297   6.161   8.277   1.397
63627W        W35298  30.120  15.147  10.485
63628W        W35299  42.610   2.248  14.102
63629W        W35300  44.481  24.924   0.927
63630W        W35301  22.728  11.674   4.836
63631W        W35302   8.321   2.933   3.342
63632W        W35303  41.283  43.518   0.745
63633W        W35304  31.472  42.925  10.509
63634W        W35305  15.513   4.862  10.628
63635W        W35306  38.258  24.632  13.502
63636W        W35307  18.212  40.383  14.803
63637W        W35308   7.114   6.809   4.200
63638W        W35309  13.876  35.423   0.037
63639W        W35310  37.083  41.075  11.694
63640W        W35311  23.624  21.013   5.063
63641W        W35312  42.399   7.248  12.631
63642W        W35313  17.977   3.632   0.304
63643W        W35314  27.035   8.883   0.018
63644W        W35315   9.881  20.165  12.046
63645W        W35316  20.452  23.223  14.889
63646W        W35317  43.269  11.097   2.714
63647W        W35318  30.664  20.746   4.593
63648W        W35319  16.308  16.331  10.682
63649W        W35320  42.531  14.501  10.674
63650W        W35321  16.062  42.371   0.372
63651W        W35322  40.166  32.070   1.820
63652W        W35323  43.316  33.872   0.365
63653W        W35324  43.501   8.682   3.741
63654W        W35325  18.119  28.232   1.548
63655W        W35326  13.707  27.696  12.644
63656W        W35327   1.679   5.123  11.267
63657W        W35328   5.921  16.730   1.909
63658W        W35329   5.851   4.723  14.879
63659W        W35330   8.204  21.989   3.302
63660W        W35331  22.002  21.137  14.881
63661W        W35332   4.983   8.845  11.207
63662W        W35333  38.618  12.372  13.467
63663W        W35334  24.696  18.075   4.149
63664W        W35335  24.759   0.426  10.655
63665W        W35336  35.053  28.606   2.002
63666W        W35337  41.245  14.085  10.954
63667W        W35338   8.876  32.214  12.919
63668W        W35339  16.647  15.349  12.897
63669W        W35340  10.662  35.644   0.725
63670W        W35341   2.863  34.436   3.106
63671W        W35342  24.075  16.663  13.647
63672W        W35343  13.618  33.701  13.030
63673W        W35344  13.708  21.979   4.584
63674W        W35345  26.966   6.287  13.960
63675W        W35346  32.832  36.896  12.119
63676W        W35347  21.777   9.843  12.017
63677W        W35348  26.860  44.212   2.732
63678W        W35349   6.186  29.962   1.797
63679W        W35350  44.695   3.399  12.997
63680W        W35351  40.110  28.616  14.411
63681W        W35352  35.595  27.381   3.420
63682W        W35353  12.788  25.036   4.700
63683W        W35354  32.603  43.214   0.210
63684W        W35355  23.533  22.161  14.977
63685W        W35356   4.676  26.835  13.352
63686W        W35357  37.298  22.174  11.108
63687W        W35358  32.582  15.360   4.023
63688W        W35359  14.562  14.120   9.976
63689W        W35360   4.342  33.848  11.497
63690W        W35361  10.772  27.012  13.373
63691W        W35362  32.654  35.847  11.597
63692W        W35363  38.592  10.385   1.841
63693W        W35364  35.370  24.229  11.199
63694W        W35365  15.615  14.290  10.112
63695W        W35366  42.887  29.997  13.211
63696W        W35367  14.384  26.134  12.396
63697W        W35368  42.533  14.541   4.624
63698W        W35369  26.187  12.424   0.077
63699W        W35370   2.282  39.896   2.332
63700W        W35371   4.649  16.098   4.573
63701W        W35372  19.838  21.057   3.368
63702W        W35373  16.790   0.414   3.646
63703W        W35374   6.818  17.197   4.879
63704W        W35375  12.239   1.198   2.677
63705W        W35376  30.615  23.538   0.934
63706W        W35377  10.622  22.842   0.833
63707W        W35378  24.102   3.805  11.096
63708W        W35379   1.501  31.854   3.382
63709W        W35380   1.734   5.186   0.893
63710W        W35381  29.560  29.027   2.699
63711W        W35382  13.288  13.159   2.293
63712W        W35383   3.954  36.757  13.415
63713W        W35384  34.848  27.254  12.090
63714W        W35385  14.537  10.819  10.452
63715W        W35386   0.311   9.341   3.452
63716W        W35387  21.961  22.921   0.026
63717W        W35388   7.120   5.458  11.235
63718W        W35389  34.952  33.621   4.133
63719W        W35390   0.327  10.366   1.867
63720W        W35391  17.062  18.156  14.057
63721W        W35392  41.303  15.619   0.424
63722W        W35393  24.047  17.322  11.875
63723W        W35394  23.568  21.535  14.176
63724W        W35395  41.146  33.513   3.233
63725W        W35396  39.835  33.376   1.821
63726W        W35397  24.957  41.456   3.688
63727W        W35398  20.382  34.481  10.234
63728W        W35399  23.451  11.885  11.235
63729W        W35400   8.726  25.753  14.503
63730W        W35401  13.773   0.376   1.672
63731W        W35402  30.422  27.125   0.405
63732W        W35403  43.690   5.695   4.629
63733W        W35404  27.030  24.069  12.216
63734W        W35405  19.227  20.461   1.262
63735W        W35406  16.730   1.760  13.410
63736W        W35407  34.006   7.704   3.661
63737W        W35408  14.337  39.236  11.726
63738W        W35409  17.770  40.828  14.788
63739W        W35410  22.104  22.992  11.971
63740W        W35411  19.236  10.129  13.144
63741W        W35412   3.961  35.365  10.480
63742W        W35413  13.139  34.351  11.573
63743W        W35414  36.971  36.461   0.968
63744W        W35415  20.809  14.152  11.116
63745W        W35416  29.222  31.539  14.910
63746W        W35417   7.233   3.883   3.216
63747W        W35418  39.777   8.412  11.243
63748W        W35419  19.798  22.668  10.607
63749W        W35420  21.591  38.436  12.086
63750W        W35421  33.044   6.172  14.436
63751W        W35422  20.632   0.724  13.041
63752W        W35423  19.930  41.414  12.207
63753W        W35424   3.803  30.918   3.184
63754W        W35425  12.672  35.251   1.346
63755W        W35426  17.208  33.156  13.019
63756W        W35427  25.644  14.077   4.154
63757W        W35428  34.649  38.890  10.446
63758W        W35429   6.914  32.657  12.103
63759W        W35430  20.280  30.892  11.988
63760W        W35431   9.527  29.382  11.018
63761W        W35432  12.300  15.157   4.119
63762W        W35433  39.841  41.514  10.565
63763W        W35434  36.124  17.653  14.829
63764W        W35435   7.720  24.738  14.445
63765W        W35436  23.665  43.881   1.598
63766W        W35437   5.449  25.565  12.592
63767W        W35438   0.239   8.602   2.720
63768W        W35439  35.282  11.120  13.544
63769W        W35440  42.223  17.266   0.835
63770W        W35441  43.933  26.400  14.868
63771W        W35442  30.440  17.073   1.592
63772W        W35443  42.913   4.688   0.214
63773W        W35444   2.323   6.921  14.924
63774W        W35445  17.243  18.133   3.138
63775W        W35446   0.345  22.257   2.757
63776W        W35447  39.426  34.960  13.443
63777W        W35448  20.699   4.836   1.716
63778W        W35449  18.810  39.091  12.176
63779W        W35450  31.895  28.185  12.472
63780W        W35451  36.014   0.881  13.630
63781W        W35452  30.159  28.436  14.147
63782W        W35453   0.938  10.441   0.937
63783W        W35454  19.068  31.207  11.453
63784W        W35455  40.373   3.798  14.873
63785W        W35456  20.031  17.042  12.435
63786W        W35457   3.264  17.933  12.872
63787W        W35458   4.286  42.434  10.683
63788W        W35459  11.987  42.154   0.240
63789W        W35460  40.444  32.355  11.461
63790W        W35461   2.811  24.131   3.206
63791W        W35462  22.635   3.575   0.349
63792W        W35463  22.255  33.382   4.423
63793W        W35464  11.637  42.823  12.083
63794W        W35465  14.375   4.207  11.983
63795W        W35466  33.114  22.706   4.111
63796W        W35467  21.170  15.290   1.831
63797W        W35468  26.533  30.510  14.979
63798W        W35469  43.907  21.475  11.034
63799W        W35470  22.512  22.710  12.126
63800W        W35471   6.929   0.426  13.336
63801W        W35472  44.327  42.451  13.613
63802W        W35473  22.022  22.458  11.964
63803W        W35474   6.123  43.912  13.311
63804W        W35475  40.542  34.081   3.633
63805W        W35476  16.837  25.699   0.937
63806W        W35477   7.362   6.915   0.789
63807W        W35478  36.035  39.616   5.301
63808W        W35479  23.077   9.761   3.345
63809W        W35480  18.780  42.409  14.705
63810W        W35481  30.943   5.762   3.220
63811W        W35482  38.478  15.804  10.264
63812W        W35483  31.061  32.476   2.799
63813W        W35484  29.701  23.604   0.396
63814W        W35485   6.689  26.053  10.747
63815W        W35486  33.912  13.055   1.548
63816W        W35487  27.687  41.207  10.560
63817W        W35488   9.587  33.322  14.658
63818W        W35489   5.939  10.011  13.559
63819W        W35490  43.889  37.867   4.953
63820W        W35491  14.715  39.965  12.330
63821W        W35492  12.173  13.702   1.424
63822W        W35493  23.010  41.490  12.070
63823W        W35494   7.511   5.501   0.793
63824W        W35495  16.336   5.315  14.523
63825W        W35496  14.568  33.650   4.183
63826W        W35497   7.674  42.709   0.392
63827W        W35498  14.162  29.021  13.855
63828W        W35499  12.656   7.459  12.376
63829W        W35500  21.210   1.993   0.836
63830W        W35501  11.504   0.333   2.245
63831W        W35502   7.157  36.442  11.132
63832W        W35503  17.257  41.625   1.447
63833W        W35504  30.424   0.397   4.602
63834W        W35505  38.820  30.657  12.397
63835W        W35506  27.185  28.145   0.306
63836W        W35507  24.692  16.064   0.950
63837W        W35508  35.118  36.591  10.361
63838W        W35509  37.599  42.330   2.668
63839W        W35510  24.464   9.193  12.106
63840W        W35511  25.495   0.247   1.242
63841W        W35512  35.284  22.582  10.778
63842W        W35513  32.915  15.185   2.692
63843W        W35514   9.385  16.265   2.964
63844W        W35515   6.177   3.583   1.366
63845W        W35516  14.211  32.310   2.663
63846W        W35517  20.680  11.729   4.853
63847W        W35518   2.550  19.658   1.628
63848W        W35519  23.845  17.624   3.182
63849W        W35520  13.221  30.291   0.420
63850W        W35521  43.047  13.237   0.467
63851W        W35522  13.756  23.991   3.880
63852W        W35523   7.741  18.108  12.990
63853W        W35524  37.094   2.538  13.083
63854W        W35525  18.294  41.517   0.692
63855W        W35526  30.620  17.640   3.325
63856W        W35527  21.135  16.235   2.855
63857W        W35528  39.038  39.310  12.667
63858W        W35529  19.959  22.117  14.476
63859W        W35530  30.695  27.868  11.146
63860W        W35531  24.700  26.492   1.350
63861W        W35532  21.605  29.135  10.738
63862W        W35533  35.051  41.494   2.302
63863W        W35534  42.479  31.801  13.938
63864W        W35535  22.934   5.312   2.291
63865W        W35536  17.324  26.811   1.883
63866W        W35537  36.280   3.993  14.282
63867W        W35538  31.219  28.754  13.469
63868W        W35539  19.648  42.299   2.692
63869W        W35540   4.393  38.492  12.412
63870W        W35541   0.394  26.573  13.931
63871W        W35542  43.904  20.071   4.890
63872W        W35543  35.620  12.311   3.087
63873W        W35544  25.346  20.557  12.968
63874W        W35545  44.347  21.315   9.452
63875W        W35546  12.614  39.814   4.713
63876W        W35547  40.898  27.681  12.521
63877W        W35548  15.843  42.019  14.767
63878W        W35549   7.463   4.789   4.257
63879W        W35550  19.160  10.843   2.903
63880W        W35551  39.358   1.806  14.286
63881W        W35552  29.225  23.623   2.920
63882W        W35553  42.160  21.768   5.447
63883W        W35554   0.455  23.983  12.184
63884W        W35555   8.265  28.080  12.117
63885W        W35556   5.741  40.490  11.067
63886W        W35557  30.752  31.874  11.645
63887W        W35558   6.948  34.814  12.095
63888W        W35559  17.628  17.372  14.252
63889W        W35560  20.167  31.105  10.674
63890W        W35561  13.682  27.859  13.430
63891W        W35562  38.413  14.048  10.683
63892W        W35563  34.794  41.292   0.138
63893W        W35564  17.303  23.721  11.115
63894W        W35565  42.536   2.251  13.229
63895W        W35566  13.459  36.010   2.257
63896W        W35567  36.274  31.165  12.547
63897W        W35568  18.313  23.036  14.052
63898W        W35569   4.895  29.120   1.804
63899W        W35570  42.165  36.443   0.432
63900W        W35571  15.144   4.371   4.633
63901W        W35572  15.552   5.363  10.564
63902W        W35573  23.137  26.084   0.500
63903W        W35574  32.983  44.375  10.690
63904W        W35575  27.686  19.504   0.312
63905W        W35576  26.588  14.545   3.988
63906W        W35577  17.452   5.588   5.324
63907W        W35578  12.894   9.636  13.940
63908W        W35579  15.296  30.725  13.051
63909W        W35580   5.993  13.945   0.795
63910W        W35581   6.870  13.757   4.817
63911W        W35582  25.009  10.642  12.997
63912W        W35583  24.985  36.343  14.062
63913W        W35584  15.785  11.449   3.211
63914W        W35585  41.069  39.955  13.540
63915W        W35586  17.003   0.639  11.554
63916W        W35587  41.985   9.913  14.231
63917W        W35588  28.997  43.266   3.116
63918W        W35589  29.749   3.757   1.864
63919W        W35590  27.550  31.580  14.069
63920W        W35591  10.725  25.489  10.678
63921W        W35592  31.068  20.464  12.519
63922W        W35593  44.350  41.285  11.115
63923W        W35594  30.415  38.752   3.334
63924W        W35595  14.734  12.853  13.124
63925W        W35596  35.852  38.621   0.885
63926W        W35597  16.323  29.973  10.586
63927W        W35598  30.110   4.714  11.503
63928W        W35599  22.753   4.298  12.587
63929W        W35600  18.597   8.615  10.078
63930W        W35601  22.425  37.447  11.094
63931W        W35602  30.879  19.266  11.971
63932W        W35603  41.759  24.095  12.134
63933W        W35604   6.997   3.186  11.374
63934W        W35605  16.060   3.174   4.146
63935W        W35606  39.854  22.776   2.535
63936W        W35607  12.686   5.492   0.718
63937W        W35608  35.072  24.268   2.099
63938W        W35609  41.354  12.616  12.919
63939W        W35610  23.235  21.794  12.404
63940W        W35611  25.487  43.655   2.847
63941W        W35612  24.738  28.712  13.647
63942W        W35613   3.043  15.194  14.385
63943W        W35614  29.519   8.930   2.838
63944W        W35615  29.167  30.239   1.888
63945W        W35616   1.180  11.707   1.248
63946W        W35617  17.597  17.586  11.131
63947W        W35618  42.798  31.988  11.699
63948W        W35619   0.423   0.598  14.024
63949W        W35620   3.302   0.378  14.590
63950W        W35621  44.603  34.524   4.007
63951W        W35622  14.125  27.993   0.666
63952W        W35623  39.246  40.483   4.536
63953W        W35624  15.320  20.771  13.325
63954W        W35625  17.410   2.025  14.911
63955W        W35626  24.528  27.574  11.108
63956W        W35627  41.409   5.173  13.985
63957W        W35628  40.624  12.611  14.887
63958W        W35629   7.420  42.903   0.817
63959W        W35630  28.690  42.977  13.997
63960W        W35631  27.428  42.207   0.472
63961W        W35632   1.625   4.655  14.708
63962W        W35633  32.639  44.147   2.295
63963W        W35634  41.316   0.406  11.114
63964W        W35635  29.491  38.335  12.403
63965W        W35636  20.698  13.292   3.326
63966W        W35637   2.193  12.898   2.689
63967W        W35638  34.904  16.298  10.809
63968W        W35639  24.127  16.066  10.776
63969W        W35640  35.335  12.823  13.021
63970W        W35641  41.871  18.081   4.422
63971W        W35642  42.295   4.789  14.037
63972W        W35643  19.168  30.134   3.897
63973W        W35644  20.241  12.643  11.624
63974W        W35645   3.309  27.469  14.982
63975W        W35646   6.549  10.833  11.674
63976W        W35647  25.622  40.480   2.392
63977W        W35648   7.246  12.328   4.240
63978W        W35649  10.271  38.294  14.103
63979W        W35650  32.411  29.487   3.471
63980W        W35651  30.616  17.469   1.288
63981W        W35652  27.181  43.866  11.168
63982W        W35653  40.541   8.141   0.897
63983W        W35654  29.721   5.289   1.876
63984W        W35655  28.423   4.822  12.621
63985W        W35656  24.620  12.126  12.003
63986W        W35657  17.573  19.180  10.578
63987W        W35658  10.596  24.815   3.036
63988W        W35659  30.459  10.383  14.886
63989W        W35660   0.825  23.997   1.848
63990W        W35661  26.562  10.702  10.401
63991W        W35662  11.665  12.986  12.914
63992W        W35663  28.407  42.415   4.109
63993W        W35664  40.577  40.374  10.977
63994W        W35665  23.663  39.316   2.845
63995W        W35666  16.811  15.194   3.178
63996W        W35667  40.049  31.953  13.514
63997W        W35668  27.532  37.996   1.332
63998W        W35669  34.396  37.584   1.816
63999W        W35670  23.735  34.868   1.196
64000W        W35671  24.228  29.971  12.101
64001W        W35672  35.928  44.938   0.221
64002W        W35673   5.063  18.138  12.818
64003W        W35674  24.267  21.764  14.000
64004W        W35675  38.761   0.645  13.862
64005W        W35676  24.692  21.252   3.285
64006W        W35677  37.658  36.401  13.441
64007W        W35678  40.218  12.269  14.978
64008W        W35679  26.661  31.085   1.860
64009W        W35680  22.580   0.982  13.881
64010W        W35681  27.759  20.951   0.958
64011W        W35682  13.745  38.564  12.908
64012W        W35683  30.165  31.476   2.189
64013W        W35684  23.075  21.646   1.825
64014W        W35685  28.120  12.915  12.572
64015W        W35686  12.174  33.951   1.039
64016W        W35687  17.039  43.883   0.988
64017W        W35688   3.722  10.870  12.015
64018W        W35689   9.226  42.285   1.767
64019W        W35690  44.915   0.416  11.558
64020W        W35691   2.713  19.490  11.461
64021W        W35692  38.775  26.109  10.468
64022W        W35693  40.787  23.632  12.642
64023W        W35694  13.144  23.663   3.407
64024W        W35695   8.685   7.662  10.752
64025W        W35696  33.834  15.146  11.326
64026W        W35697  29.965  14.682  10.735
64027W        W35698   4.566  30.517   0.271
64028W        W35699   5.122  17.789  13.218
64029W        W35700  37.391  24.731   2.965
64030W        W35701   4.760  28.730  13.824
64031W        W35702   7.277  28.142  12.951
64032W        W35703  16.787  24.132   3.210
64033W        W35704   2.891   3.135  12.922
64034W        W35705  10.509   3.772  12.353
64035W        W35706  34.332  41.295   0.379
64036W        W35707  15.086  12.256  13.503
64037W        W35708  15.429   3.460  11.470
64038W        W35709  13.164   0.563   2.854
64039W        W35710  35.928  17.806   2.434
64040W        W35711  40.778   8.103   2.407
64041W        W35712  18.199  35.494  12.891
64042W        W35713  25.705  24.928   1.959
64043W        W35714  35.389  38.403   0.950
64044W        W35715  43.424  23.593  10.719
64045W        W35716  36.436  13.333  13.102
64046W        W35717   9.782  14.808   4.887
64047W        W35718  15.721   8.905   3.768
64048W        W35719  11.701  14.178  11.088
64049W        W35720  26.739   4.355  12.803
64050W        W35721  19.328   2.391  10.533
64051W        W35722  11.624  11.171  13.445
64052W        W35723  30.172   6.835   2.903
64053W        W35724   7.511   0.970   0.786
64054W        W35725   2.293  14.980  14.736
64055W        W35726  12.576  30.673   2.276
64056W        W35727  29.564  16.310   2.333
64057W        W35728  39.910   9.738  13.172
64058W        W35729   8.406   3.825  13.457
64059W        W35730  27.574  41.301  13.087
64060W        W35731  26.596   1.383  13.563
64061W        W35732  10.318   2.421  14.780
64062W        W35733  34.510   4.164  13.406
64063W        W35734  23.940  39.688  14.904
64064W        W35735  38.248  25.688  12.530
64065W        W35736  25.552  20.162  11.362
64066W        W35737  19.602  28.741  13.345
64067W        W35738  43.852  10.360  12.049
64068W        W35739  38.579   7.280  13.606
64069W        W35740  13.616  32.471  10.676
64070W        W35741  36.503   0.045  11.183
64071W        W35742  11.936   0.926  12.938
64072W        W35743  33.087  16.150  14.269
64073W        W35744  10.596  33.618   1.401
64074W        W35745  30.829  10.232  10.765
64075W        W35746  34.200  16.573  11.142
64076W        W35747  30.648   6.511   0.943
64077W        W35748  35.473  44.052   2.891
64078W        W35749   9.009  11.426   3.292
64079W        W35750   6.721  31.602  14.881
64080W        W35751  22.521  43.539  13.985
64081W        W35752  26.440   0.703  14.254
64082W        W35753   7.455  23.449  10.658
64083W        W35754  29.617   1.566  12.530
64084W        W35755  27.047  38.997  11.586
64085W        W35756   5.385  15.694  10.914
64086W        W35757  25.009  17.526   0.294
64087W        W35758  18.064   0.267   1.134
64088W        W35759   1.702  19.677  14.848
64089W        W35760  22.808   0.922   0.846
64090W        W35761  14.360  10.062   0.746
64091W        W35762   2.477   9.268  10.546
64092W        W35763   4.980   0.757  11.418
64093W        W35764   9.622   0.004   0.932
64094W        W35765  18.849  44.394   3.648
64095W        W35766   2.252  44.578  12.049
64096W        W35767  11.604  11.481   3.655
64097W        W35768  35.536  33.137   3.398
64098W        W35769  17.303  23.988  11.939
64099W        W35770  43.871  32.521  13.250
64100W        W35771  35.369  11.319  10.642
64101W        W35772  11.863  11.108  14.385
64102W        W35773  12.781  32.708   3.018
64103W        W35774  38.403  29.009   1.186
64104W        W35775   6.959  10.125   3.311
64105W        W35776  29.216  18.048  12.596
64106W        W35777  18.601   6.310   3.832
64107W        W35778  21.471  28.020   0.779
64108W        W35779   5.614  16.904  13.422
64109W        W35780  15.511   5.723  13.102
64110W        W35781  43.413  10.314   1.303
64111W        W35782  11.457   9.318  12.433
64112W        W35783  27.361  43.477  13.543
64113W        W35784  27.641   3.416   2.906
64114W        W35785  41.792  23.881   4.580
64115W        W35786  34.131  21.179   0.545
64116W        W35787  24.990  29.502   3.544
64117W        W35788   4.164  12.013   2.364
64118W        W35789  27.079  19.632   1.209
64119W        W35790  22.108  33.811   0.435
64120W        W35791  19.780  38.528   3.329
64121W        W35792  11.535  38.070   2.254
64122W        W35793   0.982  33.657   2.630
64123W        W35794   1.403  22.658  10.158
64124W        W35795   1.778  18.973  13.366
64125W        W35796   5.264  33.818   4.170
64126W        W35797  22.089  22.611   3.164
64127W        W35798   6.727  13.650  11.589
64128W        W35799  44.070  13.593  11.737
64129W        W35800   3.721  20.993   2.713
64130W        W35801   6.918  31.620   4.276
64131W        W35802  44.008  10.847   1.862
64132W        W35803   4.731  13.962  12.940
64133W        W35804   8.222   5.970   4.050
64134W        W35805   6.271   4.148   0.385
64135W        W35806  19.552  36.306  12.021
64136W        W35807  37.411   6.902  14.719
64137W        W35808  37.023  24.855  11.466
64138W        W35809  42.144  22.777  10.803
64139W        W35810  41.516  12.362   1.422
64140W        W35811  26.331  26.072  12.139
64141W        W35812  40.332   7.757  11.742
64142W        W35813  24.584   4.349   4.640
64143W        W35814  41.299  43.988   4.618
64144W        W35815  29.460  16.165   0.348
64145W        W35816  12.109  22.315   3.359
64146W        W35817  43.106  30.413  11.004
64147W        W35818  43.455  25.997   0.772
64148W        W35819  10.069  10.180   0.063
64149W        W35820  38.352  21.159  13.461
64150W        W35821  11.637  15.612  10.821
64151W        W35822  23.564  26.010   0.819
64152W        W35823  44.956  39.060  12.427
64153W        W35824  19.031  20.060  10.538
64154W        W35825  27.334  42.225  14.943
64155W        W35826  11.056   0.994  13.980
64156W        W35827  35.995  39.667   1.721
64157W        W35828  43.941  21.007  11.226
64158W        W35829  37.946  27.116   0.348
64159W        W35830  39.801  20.753   0.158
64160W        W35831   0.911   4.215   3.721
64161W        W35832  40.388  42.246   1.267
64162W        W35833   5.858   9.338  10.990
64163W        W35834  38.976  22.628   0.416
64164W        W35835  16.222   8.749   1.823
64165W        W35836   5.730  12.091   1.427
64166W        W35837  23.999  37.883  12.402
64167W        W35838  15.598   4.821  13.555
64168W        W35839  33.976   2.030  11.045
64169W        W35840  33.183  23.554  14.026
64170W        W35841  18.467  23.970   3.608
64171W        W35842  36.555  33.327  11.031
64172W        W35843  13.168  23.302   3.042
64173W        W35844  39.020  10.631  10.582
64174W        W35845  24.894  17.145   3.253
64175W        W35846  31.555  29.660  11.991
64176W        W35847  19.249  24.182  11.613
64177W        W35848  32.495  21.443  14.058
64178W        W35849  23.225   6.278   3.100
64179W        W35850   0.449  25.025  11.417
64180W        W35851  15.387   9.015  12.570
64181W        W35852  43.289  33.517  13.342
64182W        W35853  12.364   5.481   3.687
64183W        W35854  20.714  18.189  10.723
64184W        W35855  22.981  44.352  12.857
64185W        W35856   6.731  15.362  13.789
64186W        W35857  44.003  26.421  13.483
64187W        W35858  21.412   7.714  14.329
64188W        W35859  38.458  31.244   3.598
64189W        W35860  40.566   0.134  12.518
64190W        W35861  44.515   2.646   0.106
64191W        W35862   0.651  40.596  14.892
64192W        W35863  36.084  28.965  12.137
64193W        W35864  17.527  43.884   0.813
64194W        W35865   1.697   9.221  14.046
64195W        W35866  26.609  14.269  12.702
64196W        W35867  24.089   0.541   2.325
64197W        W35868   4.914  35.391  14.798
64198W        W35869   5.470  10.584   4.084
64199W        W35870  10.225  41.492  11.491
64200W        W35871   4.290   3.821  13.934
64201W        W35872  12.745  10.417   3.776
64202W        W35873  34.062   8.551   0.279
64203W        W35874  42.640  15.765   3.308
64204W        W35875   5.768  16.681  13.852
64205W        W35876  15.370  30.228   4.214
64206W        W35877  17.571   0.424   0.871
64207W        W35878  15.314  13.656   3.823
64208W        W35879  13.820  26.248  11.616
64209W        W35880  16.087   2.652   4.330
64210W        W35881  41.910  14.076  14.849
64211W        W35882   3.734  18.404  13.593
64212W        W35883  14.741  32.842   2.404
64213W        W35884  33.877  38.267   2.889
64214W        W35885   6.786  36.573   4.121
64215W        W35886  14.683  23.421  11.564
64216W        W35887   8.774   0.433  12.805
64217W        W35888   6.807   0.046   1.676
64218W        W35889  14.637  40.142  11.453
64219W        W35890  14.904  22.432  11.516
64220W        W35891   6.588  23.288   4.189
64221W        W35892   1.893  36.076   1.854
64222W        W35893   2.703  15.598   2.882
64223W        W35894  22.325  44.940  14.067
64224W        W35895   2.301   7.828  13.852
64225W        W35896  19.233  43.024  11.310
64226W        W35897  34.209  14.045   3.651
64227W        W35898  31.926  29.940   1.630
64228W        W35899   2.283  24.923   3.678
64229W        W35900   6.788  38.541  12.980
64230W        W35901   1.610  37.436   1.184
64231W        W35902  40.944  44.090  12.964
64232W        W35903   8.186  25.691  13.651
64233W        W35904  34.761  22.766   5.109
64234W        W35905  13.762  30.518   2.989
64235W        W35906   0.928  29.823   2.167
64236W        W35907  42.093  29.991  12.590
64237W        W35908   2.518  11.745   1.842
64238W        W35909  17.736   1.741  11.164
64239W        W35910  19.586  34.890   0.935
64240W        W35911  27.574  19.025  10.818
64241W        W35912  25.004  35.545  12.904
64242W        W35913  21.141  42.704   1.878
64243W        W35914  39.419  31.523  10.382
64244W        W35915  19.565  36.106   0.223
64245W        W35916  20.699  24.154  13.355
64246W        W35917  35.973  32.378   2.410
64247W        W35918  23.569  41.050  11.387
64248W        W35919  43.523  10.866  11.721
64249W        W35920   3.948  39.941  11.056
64250W        W35921  33.970  37.443  12.615
64251W        W35922   2.250  32.194   3.736
64252W        W35923   2.288   8.943  12.426
64253W        W35924   1.720  17.760  10.600
64254W        W35925  13.648   7.634   3.376
64255W        W35926  21.663  36.961  14.514
64256W        W35927   1.571  30.920   1.107
64257W        W35928  32.535  31.402  11.044
64258W        W35929  11.103  15.192   1.725
64259W        W35930   4.725   1.025   0.283
64260W        W35931  36.554  32.529   1.198
64261W        W35932  17.020  41.684   2.378
64262W        W35933  39.331  39.303  12.189
64263W        W35934   8.296  16.576   3.157
64264W        W35935  31.129  18.102  10.604
64265W        W35936  33.828  44.704   2.560
64266W        W35937   9.407   2.153  14.392
64267W        W35938  17.515  21.675  10.819
64268W        W35939  16.049  19.185   4.881
64269W        W35940   8.657  35.380  13.517
64270W        W35941  11.928   4.995  11.329
64271W        W35942   4.218  36.362   3.286
64272W        W35943  12.076   5.465   4.139
64273W        W35944  37.455  35.338  12.439
64274W        W35945   4.445   6.496   0.129
64275W        W35946  22.904   1.331   2.241
64276W        W35947   0.719  14.280  10.604
64277W        W35948  24.116  35.079  12.024
64278W        W35949  36.361  14.669   1.544
64279W        W35950   3.973  36.111   3.694
64280W        W35951  44.277  42.807  14.266
64281W        W35952  28.225   6.224   2.169
64282W        W35953  41.509  24.203  12.942
64283W        W35954  40.508  30.414   3.617
64284W        W35955  43.057  30.828   5.162
64285W        W35956   6.635  38.430   2.683
64286W        W35957  33.291  23.232  13.304
64287W        W35958  41.380  25.901  11.574
64288W        W35959  19.888  44.932   2.621
64289W        W35960  38.062  35.183  13.475
64290W        W35961  24.172  12.229   4.871
64291W        W35962  38.810  43.550  12.581
64292W        W35963   4.026  33.155   1.421
64293W        W35964  24.956  41.926   2.838
64294W        W35965  31.423   6.725  10.868
64295W        W35966  17.594  29.689  12.578
64296W        W35967  21.493  20.042  14.823
64297W        W35968  38.615   4.789  10.547
64298W        W35969  10.252  14.035  10.651
64299W        W35970  17.131  28.684  10.546
64300W        W35971  38.266  34.892   1.862
64301W        W35972  39.078  34.819   3.588
64302W        W35973  43.029   8.366  11.953
64303W        W35974  27.873  18.967  12.048
64304W        W35975   7.513   4.251   1.185
64305W        W35976  37.009  43.489   2.887
64306W        W35977  17.534  19.280  14.796
64307W        W35978  32.186  22.655   5.035
64308W        W35979  42.830   2.969  13.869
64309W        W35980  12.218  31.132  14.033
64310W        W35981   7.918  33.201  14.430
64311W        W35982  14.372   0.525   4.122
64312W        W35983  17.642  42.704  11.602
64313W        W35984   3.676  19.333   4.781
64314W        W35985  12.362  27.129   0.330
64315W        W35986   1.760  37.956   3.087
64316W        W35987  33.511   7.685  13.880
64317W        W35988  42.030  23.291  14.493
64318W        W35989   1.793  39.517  13.470
64319W        W35990   7.701  16.151  14.845
64320W        W35991  17.999   0.430  10.475
64321W        W35992  35.895   0.387  14.881
64322W        W35993   5.872  15.548   2.042
64323W        W35994  41.037  25.297   4.097
64324W        W35995  34.065  19.198  11.173
64325W        W35996  26.024  28.485   3.890
64326W        W35997  25.662  14.057  13.518
64327W        W35998  16.780  40.077   0.323
64328W        W35999  19.351  35.058  13.311
64329W        W36000  33.652  29.221  10.322
64330W        W36001   1.002   6.919   0.415
64331W        W36002  18.868  38.101  14.835
64332W        W36003   4.959   1.920   2.519
64333W        W36004  22.472  23.524   4.267
64334W        W36005  27.678  27.872  10.271
64335W        W36006  18.981  14.767   1.316
64336W        W36007  43.318  20.541  11.835
64337W        W36008  44.930  14.362  12.567
64338W        W36009  36.622  35.154  13.957
64339W        W36010  39.611   9.218   4.213
64340W        W36011   9.652  26.506   2.285
64341W        W36012  34.982   4.496  14.628
64342W        W36013  38.579  23.001   0.497
64343W        W36014   1.775  17.683   2.440
64344W        W36015   0.814   5.874   5.171
64345W        W36016   8.141  36.885  13.409
64346W        W36017  19.292  18.819  10.970
64347W        W36018  44.245  39.896   4.600
64348W        W36019  12.780  31.222  12.156
64349W        W36020  21.004  17.774   0.404
64350W        W36021   6.961  24.507  12.082
64351W        W36022  17.615   8.218   2.597
64352W        W36023  19.617  10.736   3.219
64353W        W36024  28.962  43.968  12.022
64354W        W36025  16.278  43.375   0.873
64355W        W36026  22.543  18.826  11.603
64356W        W36027  44.974   5.798  12.520
64357W        W36028  41.947   3.347   0.067
64358W        W36029  31.715  30.527  13.901
64359W        W36030  12.356  24.027  11.123
64360W        W36031  32.022  10.770  10.791
64361W        W36032  13.687  24.602   1.452
64362W        W36033   0.325  25.641   2.697
64363W        W36034  40.870  42.076   2.212
64364W        W36035  27.466  25.721   1.509
64365W        W36036  10.193  17.224  10.378
64366W        W36037  15.594  12.588   2.161
64367W        W36038  13.961  39.593  11.041
64368W        W36039  21.700   4.295  12.041
64369W        W36040  12.137  39.605  12.746
64370W        W36041  13.853  22.761  11.562
64371W        W36042   9.664  35.886   0.951
64372W        W36043  14.015  35.375  12.150
64373W        W36044  19.640  44.363  12.098
64374W        W36045  32.286   2.320  12.323
64375W        W36046  36.078  41.386   2.627
64376W        W36047  42.962   5.976   5.043
64377W        W36048   3.361  10.211  12.820
64378W        W36049  38.966  34.235  11.545
64379W        W36050   9.633  43.179  12.580
64380W        W36051  22.669  40.892   1.533
64381W        W36052   3.833  15.797  14.478
64382W        W36053  15.536  13.043   2.462
64383W        W36054  41.052  30.857  12.517
64384W        W36055   0.195  21.554   0.260
64385W        W36056   4.765  31.161   2.780
64386W        W36057   8.802  43.135   4.256
64387W        W36058  22.355  36.356  13.441
64388W        W36059   7.649  41.441  14.201
64389W        W36060   3.284   5.410  11.946
64390W        W36061   8.450  13.681  12.204
64391W        W36062   8.166   5.520  12.606
64392W        W36063  34.583  29.139   4.129
64393W        W36064  22.679  37.616  10.684
64394W        W36065  43.800  39.733  14.714
64395W        W36066  37.348  31.445  10.715
64396W        W36067  16.281  25.727  12.403
64397W        W36068  20.543  23.265  12.543
64398W        W36069  28.956  24.241  11.502
64399W        W36070   9.001   6.682  10.842
64400W        W36071   6.697   7.138   2.572
64401W        W36072  31.014  33.045   3.249
64402W        W36073  21.005   7.434   2.545
64403W        W36074  37.775  44.294   0.447
64404W        W36075  24.036  22.145   0.218
64405W        W36076   1.056  22.207  12.026
64406W        W36077   4.367   7.192  10.903
64407W        W36078  43.991  41.452  12.373
64408W        W36079  25.682  35.148  12.510
64409W        W36080  14.128   9.691  11.643
64410W        W36081  13.125  36.906   0.828
64411W        W36082  21.054  17.165   0.786
64412W        W36083  33.110  18.644  14.521
64413W        W36084  18.717  11.081   3.701
64414W        W36085  39.331  40.502  13.910
64415W        W36086   6.660  28.536  11.109
64416W        W36087  28.965  14.147   4.529
64417W        W36088  29.990  27.583   2.703
64418W        W36089  36.817  16.899  14.274
64419W        W36090  39.767  42.054   1.240
64420W        W36091  14.321   4.970   3.294
64421W        W36092   0.974  32.519   2.295
64422W        W36093  28.631  27.078  12.926
64423W        W36094  18.815  43.559   2.076
64424W        W36095   0.992  21.671   0.457
64425W        W36096  13.291  15.882  13.869
64426W        W36097  44.553   9.194   4.663
64427W        W36098  39.006   4.808   2.266
64428W        W36099  23.640  26.092   3.777
64429W        W36100  37.806  43.199   3.254
64430W        W36101  14.336  40.543   1.352
64431W        W36102  20.321   5.812   0.411
64432W        W36103   3.177  40.829   2.840
64433W        W36104   2.781  17.783   2.191
64434W        W36105   2.713  34.896   2.864
64435W        W36106  25.552  11.258   2.667
64436W        W36107   8.492  10.447  14.955
64437W        W36108  34.296  19.530   0.938
64438W        W36109   0.366   5.708   3.307
64439W        W36110  43.824  28.067   2.704
64440W        W36111  21.529  43.084  14.955
64441W        W36112   2.256  43.019   2.722
64442W        W36113  35.563  31.353   3.238
64443W        W36114   3.389  33.913   2.097
64444W        W36115  31.799  40.920  10.828
64445W        W36116  32.367  14.522   3.583
64446W        W36117  31.751  34.866   4.420
64447W        W36118  25.574  19.668   1.112
64448W        W36119  37.895  29.689   2.894
64449W        W36120  10.293   5.981  13.986
64450W        W36121  15.440  17.559   0.109
64451W        W36122  22.099  28.420   1.174
64452W        W36123  21.159  36.973   3.756
64453W        W36124  19.028  15.650  12.850
64454W        W36125  33.951  20.795   1.805
64455W        W36126   5.405  44.869  11.659
64456W        W36127  32.765  44.365  12.474
64457W        W36128   5.501  19.305   3.552
64458W        W36129  23.066  18.582  12.856
64459W        W36130  12.427   0.351  12.520
64460W        W36131  40.827  34.222   1.706
64461W        W36132  21.023  35.809   2.404
64462W        W36133   2.933  10.091  13.093
64463W        W36134  22.282  12.101   0.770
64464W        W36135  26.335  23.504   4.575
64465W        W36136  23.396  44.102  14.727
64466W        W36137  38.536  11.440   3.187
64467W        W36138  34.873  16.161  14.526
64468W        W36139  13.209   8.739  12.910
64469W        W36140  27.197  14.656   1.139
64470W        W36141  24.453  21.760   3.239
64471W        W36142  29.459  27.454   2.193
64472W        W36143  29.060  18.155  11.770
64473W        W36144  25.858   5.564   2.930
64474W        W36145  42.051   5.913   2.184
64475W        W36146   8.638  38.904  14.468
64476W        W36147  16.687  42.422  12.944
64477W        W36148  34.423  35.810  13.506
64478W        W36149  29.913  27.984  14.094
64479W        W36150  21.270   1.257  11.284
64480W        W36151  11.361  37.660  14.240
64481W        W36152  34.970  33.236   1.293
64482W        W36153  11.091  41.059   2.136
64483W        W36154  26.229  39.969  10.732
64484W        W36155  29.466  36.540  13.969
64485W        W36156  16.740   8.070   2.459
64486W        W36157  32.490   6.889   0.362
64487W        W36158  29.162   4.217  12.487
64488W        W36159  23.537  31.602  12.580
64489W        W36160  31.426  43.854  14.940
64490W        W36161  26.056  20.305   2.603
64491W        W36162  27.903  10.790  13.338
64492W        W36163  20.711  27.361   0.963
64493W        W36164  13.231  21.521   4.557
64494W        W36165   7.534  27.919  12.580
64495W        W36166  23.039  42.908   3.175
64496W        W36167   9.628  25.019   1.926
64497W        W36168  43.386  27.144   1.906
64498W        W36169  32.935  41.923   0.557
64499W        W36170  33.414   9.662  14.845
64500W        W36171  23.001   5.987  10.729
64501W        W36172  37.265  18.342  11.112
64502W        W36173  11.930  35.498  11.957
64503W        W36174  21.496  20.594   3.053
64504W        W36175  25.230  42.502   2.148
64505W        W36176  39.976  38.663  11.006
64506W        W36177  38.461   3.797   4.891
64507W        W36178   2.654  43.134  11.064
64508W        W36179  39.102  32.441  14.412
64509W        W36180   4.108  12.535   2.370
64510W        W36181  24.751  38.958  13.716
64511W        W36182  28.703   7.822  11.184
64512W        W36183  29.187  33.307  11.502
64513W        W36184  37.847   4.787  13.348
64514W        W36185  29.819   6.240   1.211
64515W        W36186  26.541   1.476   3.228
64516W        W36187  25.487  34.791   0.880
64517W        W36188  37.399  29.002   4.127
64518W        W36189  31.338  39.980   4.855
64519W        W36190   1.931  17.629  11.058
64520W        W36191   6.722  16.738   4.636
64521W        W36192  11.564  27.721   2.151
64522W        W36193  27.963  11.461  12.593
64523W        W36194  37.692   3.741   3.683
64524W        W36195  19.700  20.115   1.687
64525W        W36196   5.923  17.987  10.744
64526W        W36197  11.288  26.497   3.386
64527W        W36198  14.306  42.296  12.133
64528W        W36199  27.777  11.339  12.031
64529W        W36200  35.832   3.752  13.429
64530W        W36201   1.871  16.424   4.088
64531W        W36202  36.468  37.552  11.105
64532W        W36203  21.036  38.756   5.219
64533W        W36204  35.771  16.024  14.052
64534W        W36205  37.314  10.617  10.738
64535W        W36206  41.120  29.392   1.936
64536W        W36207   6.843   5.272   4.498
64537W        W36208  16.781  38.869  13.376
64538W        W36209  23.464  29.437  12.956
64539W        W36210  33.942  43.916   3.213
64540W        W36211  44.226  30.738   2.417
64541W        W36212  29.489  35.888   4.942
64542W        W36213  43.251  38.869   1.997
64543W        W36214   0.723   3.179  12.903
64544W        W36215  23.195  10.597  13.419
64545W        W36216  16.530  35.862   2.350
64546W        W36217  26.974  30.928   3.201
64547W        W36218   8.338  40.452   1.412
64548W        W36219  17.927  25.585  14.465
64549W        W36220  15.476  29.594   1.437
64550W        W36221  10.029  41.469   2.788
64551W        W36222  32.356  21.703   3.671
64552W        W36223   1.958  36.030   4.097
64553W        W36224  36.542  36.974  12.022
64554W        W36225   1.236  33.421  13.415
64555W        W36226   6.989  33.146   2.175
64556W        W36227   4.909  22.220   0.826
64557W        W36228   5.720  21.530   2.128
64558W        W36229  15.564  36.039   2.157
64559W        W36230  20.827  28.367  11.479
64560W        W36231  36.096   1.281   0.039
64561W        W36232   1.667  34.150   4.175
64562W        W36233  27.032  40.381  14.874
64563W        W36234  20.652  16.540   1.016
64564W        W36235  36.614  25.588  13.350
64565W        W36236  41.261  35.407  11.165
64566W        W36237   2.422  29.395  13.936
64567W        W36238  23.674  44.947   4.445
64568W        W36239  38.384   7.428   1.748
64569W        W36240  26.579  21.167   3.174
64570W        W36241  14.385   7.340   1.947
64571W        W36242  33.014  23.957  12.768
64572W        W36243   1.195  24.947   1.230
64573W        W36244  44.341  22.792  13.367
64574W        W36245  39.553  25.052   4.842
64575W        W36246  29.102  37.588   4.230
64576W        W36247  38.334  26.054  12.897
64577W        W36248  18.161  28.708   1.336
64578W        W36249  14.210  37.803   0.744
64579W        W36250  30.995  41.596   0.205
64580W        W36251  34.660  30.480   2.839
64581W        W36252  28.458  19.750  13.324
64582W        W36253  43.258  24.036  12.313
64583W        W36254  41.833  10.417   4.015
64584W        W36255  34.605  29.612  10.918
64585W        W36256  21.223   2.411  11.113
64586W        W36257  16.332  10.420   4.284
64587W        W36258  19.798  16.179  14.924
64588W        W36259  13.597  39.881  14.322
64589W        W36260  10.762  14.592   3.344
64590W        W36261  21.745  19.063  10.659
64591W        W36262  42.514  17.729  13.570
64592W        W36263  40.162  23.714  13.374
64593W        W36264   9.461   3.131   1.467
64594W        W36265  32.189  20.419  14.508
64595W        W36266   5.887  11.353   3.189
64596W        W36267  24.751  35.439   4.529
64597W        W36268  40.850  43.056  12.940
64598W        W36269  37.048  32.373   1.857
64599W        W36270   0.713   8.286   2.745
64600W        W36271  35.770  26.789  11.530
64601W        W36272  24.001  42.775  14.928
64602W        W36273  17.318  19.690  10.578
64603W        W36274   3.987  22.061  11.226
64604W        W36275  27.646   2.836   1.183
64605W        W36276  15.946  37.869   0.312
64606W        W36277  44.598  27.337   1.754
64607W        W36278  43.539  21.759   4.064
64608W        W36279  10.235  30.257   4.697
64609W        W36280  11.787  37.275   2.350
64610W        W36281  14.877  37.984   4.656
64611W        W36282  26.942   3.258  11.174
64612W        W36283   1.311  16.763   0.491
64613W        W36284  27.474  43.410  10.851
64614W        W36285  13.714  17.329  14.341
64615W        W36286  26.455   3.139  12.107
64616W        W36287  32.338  34.489  14.039
64617W        W36288  26.640   7.889  11.521
64618W        W36289  40.594  25.914   1.829
64619W        W36290  44.114  32.502  12.247
64620W        W36291  12.375  40.522  13.364
64621W        W36292  33.503  20.917   2.001
64622W        W36293  22.787  12.111  14.825
64623W        W36294   9.642  25.519  12.540
64624W        W36295  28.705  23.250  11.498
64625W        W36296  11.763  41.696   2.667
64626W        W36297   3.451   6.052  12.968
64627W        W36298  23.729  11.804   1.363
64628W        W36299   1.822  39.968  13.795
64629W        W36300   7.899  19.124   0.312
64630W        W36301  41.460   8.896   3.253
64631W        W36302  18.235  25.097  11.067
64632W        W36303  22.593  17.521   1.685
64633W        W36304  16.170  23.013  14.874
64634W        W36305   2.161  34.595  12.937
64635W        W36306   2.942  11.642  14.829
64636W        W36307  38.588  34.047   0.394
64637W        W36308  41.437  24.454  12.441
64638W        W36309  44.687  32.071   3.799
64639W        W36310   8.517   1.932  14.132
64640W        W36311   5.947  43.893  10.385
64641W        W36312   9.321  26.690   1.557
64642W        W36313  36.449  42.730   4.734
64643W        W36314   8.098  27.143   1.653
64644W        W36315  42.324   0.747  10.553
64645W        W36316   1.439   1.257   4.613
64646W        W36317   5.195  38.541   4.737
64647W        W36318  33.669  28.124  14.394
64648W        W36319  33.567  42.782  10.622
64649W        W36320  10.456  36.951  14.361
64650W        W36321  34.489  31.612  13.746
64651W        W36322  34.428  43.384  12.288
64652W        W36323  13.591  24.091   0.712
64653W        W36324  10.317  42.276  13.278
64654W        W36325   9.852  15.347  10.358
64655W        W36326   2.335   4.159   1.752
64656W        W36327   0.046  32.861   2.937
64657W        W36328  33.414   8.365  12.063
64658W        W36329  30.459  31.156  14.304
64659W        W36330  34.066  25.592   0.133
64660W        W36331  42.530  16.781  11.103
64661W        W36332   6.412   8.346   3.715
64662W        W36333  29.491   3.478  12.880
64663W        W36334  12.399  44.460  14.230
64664W        W36335   1.735  22.327   5.204
64665W        W36336  17.718  39.869   1.311
64666W        W36337  29.032  34.101  12.029
64667W        W36338   3.337  21.347   5.304
64668W        W36339  24.755   0.320   2.815
64669W        W36340  14.115  43.469  14.302
64670W        W36341   1.312  23.177   2.794
64671W        W36342  30.997  25.812   0.909
64672W        W36343  27.893  16.865   1.302
64673W        W36344  38.466   2.220   0.593
64674W        W36345  16.786   6.603   2.598
64675W        W36346  13.711  42.879   0.589
64676W        W36347  16.404  26.362   4.872
64677W        W36348  15.784  38.549   0.204
64678W        W36349  40.379  27.161   4.320
64679W        W36350  24.312  36.442   4.113
64680W        W36351  25.553  20.973   4.270
64681W        W36352  37.548  11.686  12.962
64682W        W36353   5.278  38.065   3.353
64683W        W36354  37.040  39.629   0.173
64684W        W36355  22.183  30.602   2.284
64685W        W36356   5.212  11.583   1.961
64686W        W36357  37.382  30.185   1.255
64687W        W36358  32.938  25.971  11.978
64688W        W36359   9.852  23.700  14.029
64689W        W36360  37.490  40.772  11.524
64690W        W36361  31.712  24.923  14.526
64691W        W36362  14.449  24.582  12.036
64692W        W36363   5.059   0.108  14.434
64693W        W36364   5.093   9.873   0.976
64694W        W36365   9.918  26.109  14.949
64695W        W36366  39.610   8.798  13.987
64696W        W36367  20.293  12.008   5.063
64697W        W36368  20.567  37.541  14.361
64698W        W36369  42.106  22.272   2.588
64699W        W36370  23.508  38.958  13.391
64700W        W36371  14.851  30.575  13.372
64701W        W36372  30.225  14.824  11.145
64702W        W36373   3.236   7.141   3.852
64703W        W36374   6.741  24.745  12.997
64704W        W36375   8.104  24.541  12.945
64705W        W36376  13.691  27.417   4.856
64706W        W36377   2.190  23.040  12.041
64707W        W36378  41.565  35.660  11.518
64708W        W36379  40.407  41.933  13.424
64709W        W36380  37.507   5.869   2.769
64710W        W36381  30.956  24.337   2.898
64711W        W36382  16.266  30.442  12.071
64712W        W36383  18.246  18.097   2.246
64713W        W36384  36.717  36.658   3.916
64714W        W36385  14.191   3.851  14.865
64715W        W36386  27.725  32.958   2.384
64716W        W36387  15.764  28.695   0.296
64717W        W36388  34.461  32.106  12.862
64718W        W36389   0.420  14.290   2.645
64719W        W36390  17.049   4.581   4.607
64720W        W36391  32.067  14.379  13.862
64721W        W36392   3.354   0.996   4.897
64722W        W36393  21.540  30.722   1.727
64723W        W36394  19.670   3.927   0.881
64724W        W36395  19.689  34.565   3.758
64725W        W36396  15.423  11.261  11.679
64726W        W36397  29.086  42.450  10.664
64727W        W36398  22.708  44.985   2.864
64728W        W36399  10.692  37.869  10.650
64729W        W36400  42.850  42.096   4.551
64730W        W36401   5.855  12.601  14.246
64731W        W36402  27.082  22.172   3.265
64732W        W36403   2.437   8.290  11.627
64733W        W36404  32.520  11.269  14.879
64734W        W36405   2.396  30.609   1.454
64735W        W36406   0.802  12.121  13.493
64736W        W36407  32.980  14.102   1.284
64737W        W36408  16.295  23.716  13.577
64738W        W36409   5.660  15.120   2.812
64739W        W36410  23.560   0.736   3.197
64740W        W36411  24.003  24.267  13.830
64741W        W36412  39.826   1.864  11.578
64742W        W36413  20.047  44.960  11.501
64743W        W36414  35.532  39.499  10.723
64744W        W36415   8.253  29.991   0.928
64745W        W36416  21.660   0.248  10.600
64746W        W36417  13.122  20.554   2.389
64747W        W36418  15.846  37.915   1.921
64748W        W36419   1.312  33.353   2.915
64749W        W36420  29.087  34.018  14.506
64750W        W36421  31.312   6.246   0.431
64751W        W36422  39.590  21.204  13.948
64752W        W36423  23.598  18.514   0.691
64753W        W36424  19.772  16.151  12.005
64754W        W36425  40.590  29.163  13.323
64755W        W36426   4.678  34.428   3.784
64756W        W36427   0.003  44.735  14.576
64757W        W36428  34.808  31.918   5.035
64758W        W36429   9.730  24.488  11.554
64759W        W36430  42.428  12.343   0.002
64760W        W36431  43.848  41.995  14.453
64761W        W36432  43.734  16.179  13.981
64762W        W36433  39.269  20.179   4.631
64763W        W36434  21.658   1.487  13.037
64764W        W36435  15.147   4.397   3.342
64765W        W36436  33.440   5.169  12.428
64766W        W36437  35.489  30.481  10.724
64767W        W36438  17.610  44.831  11.217
64768W        W36439  30.305  36.821   1.890
64769W        W36440   3.349  26.441   4.172
64770W        W36441  34.466  20.738  13.293
64771W        W36442  35.970   7.674  13.010
64772W        W36443  15.763   2.678   4.768
64773W        W36444   0.604  31.621  11.995
64774W        W36445   0.763  15.582   1.499
64775W        W36446  24.772  36.706   4.160
64776W        W36447  34.519  19.472  12.816
64777W        W36448  42.762   6.950   3.850
64778W        W36449  43.024  22.761   3.471
64779W        W36450   9.825  32.381   4.735
64780W        W36451  20.080  18.010   1.332
64781W        W36452  18.594   3.353  14.708
64782W        W36453  39.076  38.878  12.384
64783W        W36454  29.236   5.266  11.492
64784W        W36455  10.345  20.156  12.316
64785W        W36456  15.257  18.194  14.521
64786W        W36457  34.638   7.751  14.957
64787W        W36458   8.200   1.102   2.269
64788W        W36459   0.555  14.862  12.125
64789W        W36460   3.849  37.022  12.959
64790W        W36461  44.731  19.531  11.531
64791W        W36462  22.432  15.568   2.818
64792W        W36463  23.865  19.283  14.134
64793W        W36464  17.880  14.103  14.518
64794W        W36465  18.335   6.284  10.805
64795W        W36466  10.185  23.134   0.502
64796W        W36467  16.310   8.581  12.071
64797W        W36468  39.575  43.860  12.610
64798W        W36469  34.446  21.147  10.881
64799W        W36470   0.750  20.203  10.807
64800W        W36471  10.615  23.614   1.454
64801W        W36472  18.727  16.092   2.312
64802W        W36473  33.135   5.246   0.385
64803W        W36474  11.793   2.609   2.788
64804W        W36475  38.833  32.049   4.179
64805W        W36476  31.126   6.942  12.029
64806W        W36477  36.354   6.348  11.852
64807W        W36478  17.151   6.981  14.826
64808W        W36479  11.859   0.018  13.047
64809W        W36480  22.939  14.613  12.084
64810W        W36481  34.843  16.282   0.022
64811W        W36482  25.424   3.986  13.539
64812W        W36483  33.158  41.153   4.234
64813W        W36484  12.839   5.870  13.617
64814W        W36485  13.207  44.349   4.166
64815W        W36486  31.247  37.030  11.108
64816W        W36487  33.958  40.597   2.346
64817W        W36488   4.692  44.527   3.654
64818W        W36489  34.898  40.850  14.859
64819W        W36490  39.129   2.818   0.183
64820W        W36491  30.439  29.462   4.593
64821W        W36492   8.064  35.725   5.107
64822W        W36493  36.464   4.238   1.802
64823W        W36494  11.889  22.273  12.301
64824W        W36495  24.087  34.958   2.381
64825W        W36496  14.082  35.926  14.952
64826W        W36497  28.314  33.594   3.337
64827W        W36498  38.306  42.219  12.600
64828W        W36499  25.551  26.162   0.402
64829W        W36500   0.789  23.196   3.976
64830W        W36501  30.824  18.360  12.781
64831W        W36502  39.985   3.566   3.647
64832W        W36503  17.873  41.323   3.410
64833W        W36504  39.413   0.894   2.795
64834W        W36505  26.595   2.071   1.259
64835W        W36506  30.864  13.401   4.630
64836W        W36507  35.399  28.020   0.850
64837W        W36508  23.224   2.276  11.200
64838W        W36509   8.933  42.305   1.340
64839W        W36510   8.731   7.961   0.800
64840W        W36511   5.977  44.274  12.882
64841W        W36512  13.228  10.430   4.658
64842W        W36513   3.299  34.190  14.279
64843W        W36514  11.532  13.637  10.407
64844W        W36515  27.015  22.487  14.478
64845W        W36516  30.641  15.424  11.506
64846W        W36517  15.577  40.872  13.358
64847W        W36518  31.994  27.218   1.301
64848W        W36519  10.868  11.158  14.429
64849W        W36520  32.173   9.595   2.385
64850W        W36521   5.848  11.443  12.390
64851W        W36522  16.259   7.246   9.781
64852W        W36523  24.593  38.970  14.226
64853W        W36524  14.252   7.136  11.755
64854W        W36525   8.789  15.203  12.991
64855W        W36526  22.626   5.832   1.946
64856W        W36527  11.217  37.892  10.659
64857W        W36528  31.855   9.781  11.192
64858W        W36529  39.552  44.624  10.970
64859W        W36530  23.712  41.482   2.445
64860W        W36531  37.037  29.998   4.550
64861W        W36532  10.197  24.097  14.567
64862W        W36533   7.390   4.989   0.857
64863W        W36534   2.446  32.500   2.288
64864W        W36535  30.898   2.800  11.275
64865W        W36536  32.322   1.837  13.075
64866W        W36537   0.891  40.102  12.387
64867W        W36538   4.429  36.562  11.040
64868W        W36539  31.804  36.362   1.177
64869W        W36540  27.889  18.338   2.589
64870W        W36541  21.545   2.873   2.827
64871W        W36542   7.574   9.288   3.608
64872W        W36543  38.486   0.163   1.892
64873W        W36544  30.231  24.637   0.268
64874W        W36545  20.841  42.150   0.022
64875W        W36546  33.497   4.674   3.683
64876W        W36547  41.903  13.566  14.905
64877W        W36548  41.412  16.074   1.358
64878W        W36549  29.862   6.967   1.727
64879W        W36550  18.964  33.491  12.154
64880W        W36551  19.202  26.729   1.975
64881W        W36552  15.328   4.654  12.112
64882W        W36553  19.587  32.940   0.060
64883W        W36554  16.713  26.141  11.891
64884W        W36555  18.594  26.931  12.677
64885W        W36556  24.000   3.033   1.283
64886W        W36557  43.631   6.466  12.562
64887W        W36558  14.668   2.989   1.132
64888W        W36559  10.658  29.179   3.185
64889W        W36560  32.130  20.745  14.087
64890W        W36561  32.841  30.202  14.858
64891W        W36562   9.232  25.966  11.146
64892W        W36563  38.327  41.380  11.140
64893W        W36564  10.260  25.093   2.208
64894W        W36565  35.539   6.684   2.965
64895W        W36566  20.610   3.048   0.259
64896W        W36567  30.579  34.719  12.469
64897W        W36568  33.870  32.964   3.900
64898W        W36569  12.412  18.108  11.062
64899W        W36570  16.618  40.151  10.630
64900W        W36571  17.060  22.361   4.246
64901W        W36572  44.164  24.036   3.719
64902W        W36573  24.282  31.912   4.520
64903W        W36574  13.396  11.499   3.308
64904W        W36575  37.536  11.726  13.493
64905W        W36576  40.181  15.555   3.288
64906W        W36577  13.966  22.656   0.392
64907W        W36578   8.637  20.541   4.532
64908W        W36579  23.666   0.271  13.018
64909W        W36580  38.916   1.999   2.803
64910W        W36581   4.845  28.695   4.143
64911W        W36582  21.656   3.475  11.257
64912W        W36583  18.767  18.414  11.506
64913W        W36584   2.186  23.189   1.686
64914W        W36585  15.221   0.577  10.888
64915W        W36586  20.545  19.787  13.103
64916W        W36587  14.828   2.314  12.328
64917W        W36588   2.376  30.929   2.273
64918W        W36589  30.758   3.619   1.778
64919W        W36590  12.696  18.314   4.147
64920W        W36591   0.876  28.866   3.078
64921W        W36592  42.858  25.124  13.050
64922W        W36593   1.240  41.562   3.220
64923W        W36594  39.152  22.287  11.664
64924W        W36595  10.799  41.927   2.879
64925W        W36596  29.661  21.219   9.554
64926W        W36597  19.531  20.978   3.777
64927W        W36598  18.072   1.770   2.837
64928W        W36599  23.892   8.220  14.338
64929W        W36600  34.600  26.457  12.168
64930W        W36601   3.516  24.961   4.291
64931W        W36602   4.312  40.131  14.384
64932W        W36603  32.397   8.472   4.458
64933W        W36604   6.968   1.919   0.471
64934W        W36605   9.443  21.593  14.411
64935W        W36606   7.880  19.795  13.769
64936W        W36607   8.145  19.131  13.884
64937W        W36608  21.669  39.928  10.996
64938W        W36609   9.802   7.574  11.072
64939W        W36610  34.519  43.414  11.281
64940W        W36611  39.963  11.634   1.348
64941W        W36612   8.359  38.267   4.584
64942W        W36613  38.134  38.013  14.265
64943W        W36614  17.604  30.500  10.844
64944W        W36615  29.410  23.706   1.384
64945W        W36616  22.550   5.863   4.366
64946W        W36617   9.601  22.824  11.932
64947W        W36618   5.360  13.225   1.394
64948W        W36619  40.207  40.535  10.654
64949W        W36620   7.365  27.784   2.307
64950W        W36621  31.353  24.530  14.440
64951W        W36622  31.160  25.145  12.483
64952W        W36623  15.166  15.238  13.720
64953W        W36624  21.274   7.690   4.692
64954W        W36625  29.549   2.950   2.982
64955W        W36626  10.579   4.496  11.158
64956W        W36627  25.020   7.366  11.979
64957W        W36628  12.157  24.785   2.269
64958W        W36629  10.917  44.008  13.435
64959W        W36630  27.184  16.734   3.795
64960W        W36631  15.819  17.243   0.865
64961W        W36632   1.170  43.326  11.850
64962W        W36633  34.131   0.310   4.079
64963W        W36634  38.015   3.181  12.881
64964W        W36635  10.318   6.350  14.339
64965W        W36636  28.186   6.239   5.478
64966W        W36637  25.393  13.989   0.002
64967W        W36638  42.897  42.049  14.262
64968W        W36639  16.563   0.807  12.858
64969W        W36640  29.041  31.899   3.723
64970W        W36641  22.234  12.883  10.635
64971W        W36642  33.526  11.673   3.915
64972W        W36643   9.333  26.775  14.047
64973W        W36644  14.061  33.884  13.269
64974W        W36645  11.123  27.414  14.457
64975W        W36646   2.535  34.390   5.127
64976W        W36647  39.872  18.748   0.863
64977W        W36648   3.919  43.012   3.204
64978W        W36649  32.138   1.631  11.453
64979W        W36650  17.786  13.604   3.563
64980W        W36651   8.571   8.832   4.140
64981W        W36652  32.868  31.018  13.507
64982W        W36653  11.371  14.704   1.134
64983W        W36654  28.450  11.277  12.514
64984W        W36655  32.731  37.336   4.399
64985W        W36656  23.690  11.715  10.787
64986W        W36657   4.162  44.110  12.748
64987W        W36658  30.990   4.291  11.300
64988W        W36659  24.404  44.214  14.906
64989W        W36660  38.404   3.320   3.146
64990W        W36661  44.724  12.418   2.022
64991W        W36662   8.325   4.015  11.130
64992W        W36663  40.293  11.262  11.629
64993W        W36664  31.438   4.405  11.543
64994W        W36665  37.377   0.912  14.789
64995W        W36666  30.236  22.745  10.544
64996W        W36667  24.160   7.174  11.701
64997W        W36668  44.186   8.386   4.976
64998W        W36669  43.579   7.735   2.433
64999W        W36670  40.947   6.216   1.811
65000W        W36671  11.264  35.402   1.898
65001W        W36672   0.031  42.296   2.528
65002W        W36673   5.979  37.250   2.650
65003W        W36674   9.178  20.104  12.422
65004W        W36675   1.665  27.105  11.990
65005W        W36676  10.168  37.764  12.390
65006W        W36677  27.735   0.389   4.663
65007W        W36678  22.337  21.493   0.021
65008W        W36679  13.723  35.317   3.926
65009W        W36680  23.747  39.828   2.706
65010W        W36681  37.943  23.044  11.051
65011W        W36682  43.437  39.094  10.344
65012W        W36683  13.580  11.654   1.883
65013W        W36684  28.866  38.770  14.981
65014W        W36685  38.306  28.993  13.335
65015W        W36686   8.247  22.636   4.908
65016W        W36687   1.309  22.523   4.996
65017W        W36688  11.519  25.306   3.263
65018W        W36689  33.085   6.372  13.957
65019W        W36690  20.805  11.381   4.449
65020W        W36691  36.551  34.102   2.767
65021W        W36692  35.521  10.030   1.138
65022W        W36693  18.242   4.409   0.391
65023W        W36694  26.872  28.517  13.115
65024W        W36695  41.289  10.301   1.295
65025W        W36696  15.659  31.807  14.417
65026W        W36697  44.831   3.276   2.779
65027W        W36698  11.246  44.210   1.882
65028W        W36699  27.675  16.700  12.156
65029W        W36700   8.369  13.072   1.241
65030W        W36701  30.912   7.962  14.831
65031W        W36702   3.734  20.534   4.165
65032W        W36703   1.785  17.215   3.640
65033W        W36704  34.666  35.376  11.946
65034W        W36705   8.810   1.504  14.839
65035W        W36706  43.394  27.505   0.756
65036W        W36707  16.280  33.343  14.084
65037W        W36708   7.565  11.929  10.265
65038W        W36709   1.519  19.606   4.165
65039W        W36710  12.786  23.116  14.260
65040W        W36711  13.382  28.065   1.730
65041W        W36712   3.507  31.547  10.693
65042W        W36713  15.512  38.769   2.834
65043W        W36714  11.134  25.565  12.506
65044W        W36715  30.366  27.349   3.783
65045W        W36716  35.372  23.503  14.886
65046W        W36717   8.782  28.048   4.924
65047W        W36718  17.672  21.312   3.747
65048W        W36719   6.742   5.979   0.471
65049W        W36720  18.705  26.045  10.730
65050W        W36721  17.645  12.287  13.342
65051W        W36722  25.975  15.559   0.900
65052W        W36723  19.521   1.424   3.295
65053W        W36724  38.602  36.637   1.974
65054W        W36725  21.894   7.886   1.451
65055W        W36726  11.732  26.869   0.069
65056W        W36727  33.492  37.140  12.971
65057W        W36728  10.384  35.454   3.608
65058W        W36729  25.744  20.359  10.575
65059W        W36730  18.680   5.635   4.910
65060W        W36731  25.637  21.063  13.769
65061W        W36732  35.979  37.064   5.018
65062W        W36733   8.441  16.975  13.414
65063W        W36734  21.064  27.236  13.784
65064W        W36735  40.465  17.315  13.632
65065W        W36736   1.408  24.174   3.897
65066W        W36737  11.443  28.705  13.919
65067W        W36738  38.231   3.364  14.440
65068W        W36739  35.533  29.136  13.857
65069W        W36740  40.108  11.412   4.142
65070W        W36741  24.514  11.201  10.853
65071W        W36742  34.452  25.591  13.419
65072W        W36743   7.703  29.790  13.996
65073W        W36744  24.029  10.238  14.866
65074W        W36745  25.040   5.696  14.408
65075W        W36746  29.499   5.482   4.499
65076W        W36747  41.819  43.848  11.918
65077W        W36748  29.162   5.478  13.831
65078W        W36749   5.862  18.022   0.844
65079W        W36750  42.395  44.931  12.602
65080W        W36751   7.979   3.756   3.541
65081W        W36752  36.162  18.159  13.485
65082W        W36753  10.037  40.305   2.932
65083W        W36754  39.012  24.598  11.811
65084W        W36755  23.312  19.201  10.636
65085W        W36756  36.039  19.189   4.309
65086W        W36757  20.770  41.060   2.712
65087W        W36758  17.226  43.995  14.884
65088W        W36759  29.619   9.010  12.661
65089W        W36760  16.182   0.655  12.287
65090W        W36761  22.429  40.196  11.982
65091W        W36762  37.100  25.500   1.738
65092W        W36763  34.608  29.607   3.601
65093W        W36764  30.479  24.441   0.697
65094W        W36765  32.828  18.442   1.899
65095W        W36766  28.137  22.994   4.741
65096W        W36767  13.218   6.857  13.972
65097W        W36768  33.416   9.982   0.237
65098W        W36769  13.030  15.675  12.474
65099W        W36770   0.815  44.161  11.615
65100W        W36771  34.483  27.002   4.686
65101W        W36772  38.444  15.893   0.396
65102W        W36773  30.149  26.851  11.149
65103W        W36774  30.886   8.216   0.653
65104W        W36775   9.256  16.931   3.375
65105W        W36776  44.697  12.154   5.431
65106W        W36777   8.193  28.921   2.660
65107W        W36778  24.492  39.416   3.290
65108W        W36779  15.289  15.485   3.284
65109W        W36780   1.200  24.186  10.733
65110W        W36781  12.335  21.545   1.683
65111W        W36782  37.898  31.396  14.163
65112W        W36783  20.184  27.016  12.837
65113W        W36784  28.534  40.553   4.181
65114W        W36785  10.868  13.566  14.836
65115W        W36786  22.737  31.089  10.177
65116W        W36787  19.123  23.058   0.332
65117W        W36788  11.107  24.447   1.662
65118W        W36789   0.384  17.048   0.906
65119W        W36790  38.062  15.099  13.990
65120W        W36791  27.334  43.413  14.055
65121W        W36792  38.709  13.274   4.550
65122W        W36793   0.269   8.091  13.908
65123W        W36794   5.048  29.770  11.068
65124W        W36795  18.846   6.860  12.097
65125W        W36796  29.588  38.784   3.606
65126W        W36797  26.215   0.328   3.659
65127W        W36798  14.318  26.457   4.187
65128W        W36799  29.697  25.545   2.016
65129W        W36800   9.315  33.670   0.252
65130W        W36801  31.191  43.589  11.175
65131W        W36802  31.367   9.351  10.578
65132W        W36803  11.326  26.701  13.827
65133W        W36804  33.911  22.264  10.574
65134W        W36805  20.057  12.873   1.886
65135W        W36806  16.823  25.269   1.288
65136W        W36807  20.944  16.015  10.685
65137W        W36808  42.900   6.317  14.787
65138W        W36809  36.895  20.602   1.838
65139W        W36810  12.016   0.304  13.457
65140W        W36811  43.931  12.196   2.523
65141W        W36812  23.464  14.280  11.224
65142W        W36813   0.048  23.242  12.983
65143W        W36814   0.486  23.969  11.199
65144W        W36815  28.080  41.919   3.252
65145W        W36816  34.910  12.138  12.910
65146W        W36817  24.747  29.967  12.037
65147W        W36818  32.947  26.921  14.562
65148W        W36819  43.371  30.086  11.656
65149W        W36820  25.605  35.164   4.159
65150W        W36821  35.359  30.368  12.156
65151W        W36822  41.852  25.176   4.131
65152W        W36823  16.803  37.555   2.672
65153W        W36824   6.236  41.897  13.272
65154W        W36825  10.860  29.416  10.718
65155W        W36826  31.650  32.327   2.250
65156W        W36827  23.145  38.924   0.994
65157W        W36828  12.222  43.685   0.312
65158W        W36829   7.762  15.979   1.141
65159W        W36830  32.199  35.080   3.086
65160W        W36831   7.969  43.520   4.187
65161W        W36832  10.202  33.287  13.961
65162W        W36833  31.152  27.191  11.609
65163W        W36834  17.636  28.489   3.065
65164W        W36835  19.736   4.689   1.349
65165W        W36836  18.041  10.250  10.113
65166W        W36837  43.932  24.260   9.784
65167W        W36838  10.351   8.376  11.122
65168W        W36839  27.618  28.492   0.143
65169W        W36840  27.617   6.213  12.404
65170W        W36841  35.858   5.725  12.545
65171W        W36842  38.944  15.354  14.870
65172W        W36843  39.560   3.985  10.344
65173W        W36844  28.647  34.181   1.732
65174W        W36845  33.906  14.530   4.266
65175W        W36846  11.068   0.743   4.828
65176W        W36847  38.788  31.427   2.133
65177W        W36848  30.563  39.625   3.802
65178W        W36849  13.368   1.441   3.387
65179W        W36850  33.230  16.910  11.102
65180W        W36851  26.398  32.001  10.479
65181W        W36852  42.388   6.342  10.460
65182W        W36853  36.634  13.383  10.989
65183W        W36854  43.254  27.612   1.230
65184W        W36855  28.071  10.234   1.232
65185W        W36856   2.329  27.669   4.209
65186W        W36857  27.731  42.410  14.673
65187W        W36858  22.133  34.519  14.765
65188W        W36859  35.629  43.999  12.524
65189W        W36860   0.379  31.153  11.959
65190W        W36861  29.305   8.360  11.368
65191W        W36862  40.333  14.656   5.076
65192W        W36863  14.577  37.365  11.245
65193W        W36864   5.877  21.556   0.824
65194W        W36865  35.950   0.061   1.275
65195W        W36866   9.230  31.553  14.933
65196W        W36867  39.786  16.367  14.181
65197W        W36868  31.164   2.700   4.980
65198W        W36869   9.452  36.947  12.277
65199W        W36870  25.535  22.032  14.486
65200W        W36871  12.774  24.499  14.024
65201W        W36872  28.190  11.258   0.397
65202W        W36873  30.213  21.579  11.268
65203W        W36874  43.339   7.878   3.370
65204W        W36875   1.494  21.294  13.000
65205W        W36876  10.164  14.367  14.561
65206W        W36877  39.956  24.590   3.359
65207W        W36878  42.227  23.486  11.175
65208W        W36879  38.804  25.236  13.399
65209W        W36880  18.598  25.280   4.498
65210W        W36881   5.670  36.458  10.802
65211W        W36882  17.839  21.419  12.293
65212W        W36883  36.462  29.894  13.085
65213W        W36884  32.995  38.948  11.558
65214W        W36885  38.054  18.283   2.670
65215W        W36886  22.086   7.298  13.237
65216W        W36887   7.440  30.583  12.979
65217W        W36888  23.581  40.941   0.924
65218W        W36889  27.890  25.015   4.543
65219W        W36890  34.455  32.527  13.797
65220W        W36891  17.485  28.639  10.916
65221W        W36892  43.958  39.025   3.183
65222W        W36893  40.119  41.019  13.303
65223W        W36894   9.331   6.344   4.339
65224W        W36895   4.389  37.011  12.728
65225W        W36896   8.836   1.124   0.206
65226W        W36897   1.333  12.672   2.962
65227W        W36898  16.148  37.903  10.882
65228W        W36899  31.644   4.405  10.694
65229W        W36900  17.206  29.075  10.220
65230W        W36901  12.218   4.444   1.726
65231W        W36902  34.193  41.443  12.873
65232W        W36903  30.864  37.384   1.552
65233W        W36904  16.692  39.566   4.659
65234W        W36905  30.876  40.700   5.193
65235W        W36906  38.959  42.815  13.357
65236W        W36907  27.254   0.941  14.961
65237W        W36908  20.564  23.013  12.087
65238W        W36909  14.664  28.659   4.671
65239W        W36910  38.908  11.132   1.452
65240W        W36911  18.198   6.594   2.529
65241W        W36912  35.906   3.411  11.201
65242W        W36913  12.981  11.683   5.081
65243W        W36914  18.274   3.824  12.666
65244W        W36915  11.708  34.568   0.476
65245W        W36916  17.213   2.208   1.369
65246W        W36917   2.712   9.229  14.828
65247W        W36918  18.067  32.373  10.715
65248W        W36919  34.664  42.269   0.395
65249W        W36920  24.760   3.402  12.971
65250W        W36921   3.388  15.316  14.009
65251W        W36922  39.079  30.925   4.572
65252W        W36923  15.796  44.781  11.551
65253W        W36924  26.130  26.050  11.183
65254W        W36925   8.039  35.239  11.906
65255W        W36926  23.074   3.209   2.446
65256W        W36927  40.692   5.837  11.777
65257W        W36928   5.548  35.971  12.094
65258W        W36929   5.439  29.476  14.256
65259W        W36930  24.074  36.391   2.790
65260W        W36931  15.037  13.103  14.787
65261W        W36932  12.715  10.413  12.874
65262W        W36933  14.428   7.370   3.580
65263W        W36934  23.094   1.696   0.320
65264W        W36935  11.493  35.896   4.142
65265W        W36936   3.234   9.982  11.853
65266W        W36937  21.524  18.025  12.012
65267W        W36938  11.240   2.029  14.432
65268W        W36939  34.610  14.282   1.830
65269W        W36940  13.975  36.884  11.044
65270W        W36941  36.983  27.217  12.034
65271W        W36942  35.397  31.325  14.309
65272W        W36943  18.669  23.499  13.608
65273W        W36944   6.861  12.433   3.335
65274W        W36945   9.812   8.131   0.983
65275W        W36946   8.462  22.583  11.273
65276W        W36947  28.554   7.201   2.152
65277W        W36948  15.254  38.353   4.836
65278W        W36949  39.877  39.523  10.528
65279W        W36950   9.141   1.494   1.539
65280W        W36951  43.416  36.516   0.943
65281W        W36952  43.612   4.545   1.759
65282W        W36953  35.102  15.269  10.724
65283W        W36954  38.554   4.723   1.239
65284W        W36955   0.467   7.099  11.166
65285W        W36956  38.515  32.597   1.182
65286W        W36957   8.095  36.372   2.834
65287W        W36958  36.941  39.558  10.479
65288W        W36959   7.283  41.071   4.748
65289W        W36960  18.819  16.932   4.255
65290W        W36961   0.343  42.512   1.675
65291W        W36962  13.493   2.834   0.964
65292W        W36963  32.128   6.289   1.875
65293W        W36964  17.654  15.850   0.596
65294W        W36965  30.466   8.780   3.529
65295W        W36966  17.009  14.234  14.398
65296W        W36967  25.719  26.683   4.106
65297W        W36968  40.583  43.060   3.865
65298W        W36969  35.475   9.794   4.145
65299W        W36970  19.125  26.094   3.758
65300W        W36971  32.370  37.621  13.320
65301W        W36972  27.231  43.935   0.496
65302W        W36973  26.583  37.046   1.271
65303W        W36974  40.824  34.659  13.102
65304W        W36975   5.148  37.984  14.204
65305W        W36976  38.499  26.230   3.560
65306W        W36977  14.395  39.469   4.485
65307W        W36978  33.913  13.590   1.821
65308W        W36979   6.274   4.668  13.499
65309W        W36980  20.036  16.309  14.394
65310W        W36981  15.289   3.395  14.620
65311W        W36982  21.624  18.550  14.772
65312W        W36983  12.013  22.176   1.362
65313W        W36984   6.633  31.099   2.506
65314W        W36985   9.750  32.963   4.037
65315W        W36986   7.434   4.526  11.209
65316W        W36987  28.602  39.121  13.412
65317W        W36988  30.044   5.448  13.036
65318W        W36989   4.850   3.718   1.010
65319W        W36990  27.641  16.099  10.504
65320W        W36991  13.794  25.661   0.118
65321W        W36992  28.695  30.350  13.380
65322W        W36993  34.448  11.336  11.163
65323W        W36994  18.221  27.475   0.865
65324W        W36995  17.344  36.665   0.225
65325W        W36996  17.391  16.664  11.113
65326W        W36997  32.856  30.137  13.158
65327W        W36998  23.539  24.575  14.977
65328W        W36999  35.938   4.120  12.922
65329W        W37000  39.331  29.038  13.295
65330W        W37001   9.815  39.435   0.584
65331W        W37002  40.526  22.556  12.870
65332W        W37003  32.184   4.752  10.949
65333W        W37004   6.671  33.503  14.949
65334W        W37005  40.998  40.263   2.688
65335W        W37006  39.715   4.983   4.043
65336W        W37007  12.838   9.047  14.770
65337W        W37008  42.230  42.018  13.491
65338W        W37009   9.763  13.596  14.385
65339W        W37010  35.820  34.441  11.044
65340W        W37011  40.306  18.680   1.153
65341W        W37012   0.144   0.041   3.872
65342W        W37013  31.498  28.181   4.129
65343W        W37014  20.258   6.494   1.406
65344W        W37015  28.027  22.726   4.163
65345W        W37016   0.977  15.585  13.110
65346W        W37017  29.579  35.058  14.476
65347W        W37018  38.399  37.859  13.539
65348W        W37019  12.725  30.856   0.888
65349W        W37020   8.220  32.517  12.233
65350W        W37021  17.103  44.362   1.227
65351W        W37022   0.750  32.953   3.510
65352W        W37023  30.012  10.621  10.589
65353W        W37024   6.148  11.840  12.323
65354W        W37025  30.545  23.032   0.830
65355W        W37026  30.101   6.291  14.897
65356W        W37027  42.636  40.998  10.763
65357W        W37028  35.883  17.886   4.244
65358W        W37029  17.031  44.924   3.675
65359W        W37030  44.709   8.772  13.368
65360W        W37031  13.835   3.472  14.928
65361W        W37032  26.272   4.759   3.279
65362W        W37033  11.060  35.060  11.069
65363W        W37034   3.674  11.428   4.211
65364W        W37035   0.370  13.450   4.359
65365W        W37036  33.353  15.344  12.470
65366W        W37037  31.628   4.811   4.322
65367W        W37038  43.312  42.230   3.186
65368W        W37039  13.142   3.322  14.876
65369W        W37040   1.726  31.092   3.383
65370W        W37041  22.513  10.126   2.197
65371W        W37042  15.084  13.084  12.482
65372W        W37043  37.146  19.626  14.888
65373W        W37044  26.648  38.041   4.002
65374W        W37045  19.095  20.202  11.491
65375W        W37046  41.515  14.996  11.500
65376W        W37047  12.674   6.972   3.812
65377W        W37048  42.436  20.229   1.098
65378W        W37049  17.848  18.564   1.460
65379W        W37050  26.975  18.007  11.561
65380W        W37051  33.776   3.326  12.698
65381W        W37052  43.297  13.272  12.898
65382W        W37053  29.541  20.776  14.280
65383W        W37054  13.894  15.771  13.388
65384W        W37055  16.625  43.625   4.087
65385W        W37056  39.350  44.795  10.498
65386W        W37057   6.483  24.702   2.253
65387W        W37058  15.513  39.623  13.915
65388W        W37059  16.272   7.982   1.211
65389W        W37060  39.578  21.510  14.827
65390W        W37061  19.568  27.970   3.762
65391W        W37062  21.972  16.766   4.467
65392W        W37063  44.942  11.270   5.408
65393W        W37064  40.364   8.534   4.915
65394W        W37065   4.205   5.706  12.079
65395W        W37066   9.886  18.530   0.451
65396W        W37067  29.713   3.970   2.850
65397W        W37068   5.008   8.644  12.076
65398W        W37069   4.161   5.867   1.812
65399W        W37070  42.490  43.374  12.039
65400W        W37071  13.161  21.729  11.829
65401W        W37072  23.485  37.765  12.471
65402W        W37073   6.737  31.375   2.912
65403W        W37074   7.882  35.463   2.688
65404W        W37075   7.603  27.019  11.123
65405W        W37076  18.974  31.792   1.184
65406W        W37077  41.954  29.536   0.725
65407W        W37078  34.623   5.112  13.884
65408W        W37079   9.842  11.125   2.914
65409W        W37080  33.313   6.660  10.219
65410W        W37081  17.048  14.188   2.863
65411W        W37082  15.028   4.806   0.452
65412W        W37083  18.629  27.232   2.012
65413W        W37084   8.898  34.069  14.953
65414W        W37085  17.365   3.231   1.542
65415W        W37086  42.720   3.217  11.358
65416W        W37087  41.960  31.004  13.688
65417W        W37088  20.065  23.068   1.344
65418W        W37089  41.770  32.126   1.828
65419W        W37090   9.244  23.445  14.547
65420W        W37091  26.528  35.639   0.463
65421W        W37092  44.649  16.527  13.848
65422W        W37093  31.626   8.274  13.440
65423W        W37094  10.818  38.400  12.408
65424W        W37095  21.663  41.833   0.505
65425W        W37096  39.745  35.297  11.460
65426W        W37097  28.778  29.920   0.998
65427W        W37098  25.815  14.552   1.187
65428W        W37099   8.362  38.786  10.412
65429W        W37100  26.911  35.246   2.721
65430W        W37101   8.152  30.031  12.862
65431W        W37102   0.460   4.683  11.955
65432W        W37103  21.168  43.959   2.308
65433W        W37104  14.920  21.077   0.849
65434W        W37105   0.720   6.340   1.043
65435W        W37106  21.152  44.714   3.684
65436W        W37107  34.997  11.111   0.945
65437W        W37108  31.531  28.499   2.180
65438W        W37109  21.621   2.998  14.546
65439W        W37110  25.832  43.564  13.292
65440W        W37111  37.571   4.784   1.731
65441W        W37112  17.304  21.314  11.970
65442W        W37113  17.671  37.511   0.002
65443W        W37114   3.827  17.805  14.440
65444W        W37115  10.415  37.819   0.485
65445W        W37116  14.763   1.238  13.135
65446W        W37117  34.031   0.024   1.608
65447W        W37118  22.424  18.708   3.198
65448W        W37119  36.561  43.500   3.675
65449W        W37120  13.608  24.680  14.150
65450W        W37121  12.875  31.455  13.115
65451W        W37122   3.103  27.816  11.158
65452W        W37123   6.718   2.914   0.512
65453W        W37124  27.034   8.482  13.959
65454W        W37125  35.159  44.804  14.406
65455W        W37126  37.857  17.515   3.103
65456W        W37127   0.350  30.859  10.631
65457W        W37128  27.505  41.912   3.401
65458W        W37129   4.312  15.566  14.522
65459W        W37130  33.325  44.396  11.597
65460W        W37131  34.073  28.200  13.087
65461W        W37132  11.624  14.638   4.718
65462W        W37133  24.020  34.928   0.553
65463W        W37134  28.981  42.824  13.032
65464W        W37135  24.148  35.162   1.390
65465W        W37136   1.537  25.437  14.426
65466W        W37137  14.157  16.727   0.413
65467W        W37138   7.858  25.237  10.664
65468W        W37139  24.039  35.663  14.984
65469W        W37140  32.370   1.887  13.985
65470W        W37141   5.836  17.230  11.067
65471W        W37142  30.862  13.698  14.519
65472W        W37143  30.867  24.187  14.856
65473W        W37144  13.684   1.444  12.035
65474W        W37145  10.730   9.801   3.262
65475W        W37146   8.383  11.416  12.546
65476W        W37147  17.533  38.014   4.388
65477W        W37148  10.818   0.244  14.480
65478W        W37149  15.560   0.666   0.017
65479W        W37150  26.058  29.663   1.829
65480W        W37151  19.359  40.731  13.130
65481W        W37152  20.213  22.274  11.003
65482W        W37153   8.959  13.680   3.470
65483W        W37154  33.462   4.278   4.478
65484W        W37155  24.426  14.750   4.186
65485W        W37156  13.240  32.020   3.793
65486W        W37157  23.186  29.561   3.589
65487W        W37158   4.890  32.412   2.162
65488W        W37159  19.885  28.544  12.934
65489W        W37160  19.713   6.459   3.695
65490W        W37161  11.690  25.556   2.828
65491W        W37162  11.465  11.376  12.058
65492W        W37163   6.943  16.765   1.149
65493W        W37164   8.285  27.453   3.004
65494W        W37165   6.171  24.170   3.609
65495W        W37166  43.253  26.149  11.505
65496W        W37167  40.946  24.272   4.119
65497W        W37168   6.035  40.056   1.849
65498W        W37169  37.538  21.356   1.954
65499W        W37170  35.040  16.273   4.008
65500W        W37171  33.502  36.540   0.194
65501W        W37172   4.305  14.733   1.883
65502W        W37173  33.536   5.662  14.855
65503W        W37174   1.841  40.479   4.104
65504W        W37175  44.978  42.828   4.644
65505W        W37176   0.782  44.266   3.617
65506W        W37177  32.116  41.169   2.775
65507W        W37178  27.017  39.020   3.393
65508W        W37179  15.102  33.593   1.999
65509W        W37180  38.822  21.695  11.997
65510W        W37181  10.282   3.353  11.569
65511W        W37182  27.139  40.244   3.362
65512W        W37183  43.830  20.064   2.223
65513W        W37184  35.463   5.181  14.975
65514W        W37185  12.317  34.569   4.656
65515W        W37186  30.419  17.175  13.952
65516W        W37187  17.825  38.630   3.271
65517W        W37188  20.098   8.024  12.431
65518W        W37189   4.658  14.719   0.328
65519W        W37190  16.741  11.561  11.204
65520W        W37191  33.994  14.379  12.924
65521W        W37192  30.877  20.246  13.329
65522W        W37193  20.691  43.721  10.963
65523W        W37194  12.198  26.940  12.802
65524W        W37195  18.665  38.107   0.655
65525W        W37196  32.449  31.577  11.515
65526W        W37197  17.999  13.616  12.542
65527W        W37198  38.882   5.425  14.019
65528W        W37199  23.696  38.917   0.295
65529W        W37200  13.897  29.136  11.416
65530W        W37201  12.862  31.452   1.653
65531W        W37202   1.987   9.749  13.749
65532W        W37203   6.699  15.116   0.872
65533W        W37204   5.313   8.191  11.032
65534W        W37205  13.315   9.077   2.778
65535W        W37206  26.701  25.066  12.039
65536W        W37207  41.542  41.838   5.405
65537W        W37208   9.752  34.513   3.532
65538W        W37209  29.567  29.266   2.208
65539W        W37210   3.602  21.871   3.836
65540W        W37211  40.405   4.052  13.902
65541W        W37212  19.575  28.042   2.419
65542W        W37213  37.411  34.070  13.500
65543W        W37214  40.489  25.807   4.622
65544W        W37215  40.051  26.390  10.588
65545W        W37216  31.675  14.266  12.505
65546W        W37217  15.121  30.583   0.447
65547W        W37218  28.351   7.817   0.007
65548W        W37219  14.769  25.460   4.736
65549W        W37220   3.901  23.456   2.204
65550W        W37221  41.056  10.203   0.203
65551W        W37222  18.559  14.149   2.693
65552W        W37223  31.489  38.480   0.795
65553W        W37224  28.326   2.855  13.236
65554W        W37225   6.278   6.271  13.599
65555W        W37226  43.938   0.276   1.603
65556W        W37227  12.011  37.394   4.647
65557W        W37228  33.802  11.196   3.852
65558W        W37229  32.685   1.484  13.916
65559W        W37230  15.078  18.657  13.313
65560W        W37231  18.284   0.860  11.895
65561W        W37232  22.078   3.786  11.421
65562W        W37233  19.289  36.650  12.476
65563W        W37234  28.687  12.542  13.341
65564W        W37235  39.109  24.399  14.544
65565W        W37236   6.092   7.500   5.061
65566W        W37237  38.773  32.011   5.071
65567W        W37238   7.771   4.765  11.559
65568W        W37239   8.934  19.220   4.012
65569W        W37240  40.023   9.265  12.983
65570W        W37241  36.724  39.851  12.633
65571W        W37242  40.851  37.617   4.551
65572W        W37243   9.338  12.198  11.352
65573W        W37244   9.897   8.126   3.203
65574W        W37245  39.513  27.375  12.358
65575W        W37246  22.173  10.045  11.203
65576W        W37247  28.525  38.132   0.862
65577W        W37248  17.713  41.820  13.309
65578W        W37249  27.939  29.680   3.670
65579W        W37250  20.087  12.296   3.753
65580W        W37251   0.938  29.640  11.609
65581W        W37252  18.581  14.665  10.611
65582W        W37253   3.956  26.641  11.999
65583W        W37254  30.125  39.061  14.061
65584W        W37255  31.119   0.816   4.388
65585W        W37256   9.069  32.687   1.389
65586W        W37257  34.914  28.093  13.070
65587W        W37258  37.086  17.397  11.459
65588W        W37259  10.250  22.208  14.047
65589W        W37260   0.838  35.640   2.299
65590W        W37261  12.857  27.585  14.775
65591W        W37262   3.806   9.694   0.314
65592W        W37263  29.694  27.509   1.709
65593W        W37264  42.772  28.642  10.687
65594W        W37265  44.292  37.471  14.563
65595W        W37266  30.952  10.842  13.941
65596W        W37267  32.104  31.430   0.847
65597W        W37268  15.734  34.844   2.760
65598W        W37269  14.038  36.464  10.723
65599W        W37270  39.055  14.560  14.560
65600W        W37271  10.376  10.819  13.013
65601W        W37272  20.098   5.936  12.211
65602W        W37273  14.193  19.586   3.822
65603W        W37274  15.843  24.466  13.459
65604W        W37275  43.066  35.416  12.431
65605W        W37276  29.369  38.439  10.650
65606W        W37277  21.873  20.142   1.520
65607W        W37278  36.085  29.664   2.886
65608W        W37279  34.922  38.921   3.632
65609W        W37280  23.532  15.125  12.150
65610W        W37281  10.146  13.000  10.562
65611W        W37282  44.484  31.487  10.620
65612W        W37283  33.471   3.927   0.468
65613W        W37284  25.409  30.025   4.035
65614W        W37285  34.342  20.143   2.874
65615W        W37286  36.931   0.850  10.481
65616W        W37287  25.987   5.236  14.431
65617W        W37288  21.818  26.097  10.160
65618W        W37289  44.960  12.243   4.597
65619W        W37290   2.577  17.689   2.662
65620W        W37291  23.157  17.085   3.328
65621W        W37292  10.815  31.490   1.811
65622W        W37293   1.441  37.040   4.605
65623W        W37294  27.039  11.929  11.102
65624W        W37295  19.269   0.743   4.109
65625W        W37296   3.146   9.825  13.591
65626W        W37297  34.533   7.228   0.982
65627W        W37298  40.957  24.007   1.857
65628W        W37299  41.558  27.155   1.937
65629W        W37300  40.025  36.400  12.928
65630W        W37301  15.613   0.930   0.452
65631W        W37302  13.644  31.939  11.371
65632W        W37303  28.318  25.464   0.411
65633W        W37304  41.123  11.288  12.220
65634W        W37305  28.951  37.338  11.924
65635W        W37306  15.863  16.062  10.644
65636W        W37307  12.735  26.851  13.990
65637W        W37308  12.280  26.544  13.869
65638W        W37309  39.896  22.144   0.422
65639W        W37310  28.943  22.012  14.794
65640W        W37311  15.308  11.542   0.005
65641W        W37312   0.184  29.434   1.757
65642W        W37313  17.366   2.806   0.704
65643W        W37314  28.856   1.724   4.617
65644W        W37315  25.197  42.342   3.650
65645W        W37316  32.683  16.308   2.783
65646W        W37317  35.190   5.334  12.037
65647W        W37318  36.638  24.388  12.233
65648W        W37319  24.686  37.940  10.944
65649W        W37320  43.199  42.485   0.795
65650W        W37321  33.597  23.853  14.153
65651W        W37322  22.079  29.468  13.547
65652W        W37323  38.859  16.056  11.063
65653W        W37324  41.035  27.846   3.304
65654W        W37325  14.155   7.775  12.954
65655W        W37326   5.688  43.871   4.314
65656W        W37327  40.859  26.572   2.727
65657W        W37328   0.247  27.854   1.699
65658W        W37329  36.110  37.854   4.565
65659W        W37330  34.848  16.786   3.911
65660W        W37331  22.322  36.824   1.552
65661W        W37332   3.287  18.242  11.479
65662W        W37333  28.911  34.523   2.630
65663W        W37334  37.063  30.152   1.684
65664W        W37335  31.172  27.887  13.919
65665W        W37336  10.219  18.652  12.109
65666W        W37337  23.279  13.176   1.830
65667W        W37338  43.056  23.553   4.143
65668W        W37339  11.187  44.447   3.105
65669W        W37340  27.476  34.355  12.536
65670W        W37341  14.272  31.646   1.828
65671W        W37342  39.484  10.333   3.943
65672W        W37343   4.372  12.444  11.592
65673W        W37344  18.771  42.777   1.477
65674W        W37345  35.914  10.852   4.580
65675W        W37346   2.242   9.563   2.405
65676W        W37347  33.497   5.682  12.283
65677W        W37348  29.356  43.723  14.558
65678W        W37349  36.206  21.276  14.061
65679W        W37350  13.484  23.280  12.695
65680W        W37351  32.850  38.926  10.665
65681W        W37352  19.537  13.246   2.103
65682W        W37353  32.109  14.099  14.866
65683W        W37354  42.721  33.945  14.750
65684W        W37355  43.577  43.831   0.915
65685W        W37356  30.921  12.316  14.095
65686W        W37357  14.174  43.785  11.895
65687W        W37358  32.130  27.701  13.951
65688W        W37359  11.232   6.840   2.128
65689W        W37360  34.117  35.986   2.247
65690W        W37361  30.197   1.664  12.908
65691W        W37362  28.462  20.737  10.434
65692W        W37363  19.784   9.637  11.910
65693W        W37364  21.760  24.255  12.365
65694W        W37365  29.883   9.879   2.781
65695W        W37366  38.587  39.924  11.107
65696W        W37367  44.755  11.251  11.525
65697W        W37368  37.034  35.908  13.562
65698W        W37369  43.177  19.106   1.730
65699W        W37370   0.899  43.549  10.856
65700W        W37371  26.947  21.193  12.490
65701W        W37372   0.835  28.519  11.329
65702W        W37373   9.353  27.628   4.361
65703W        W37374  27.455  42.613  13.612
65704W        W37375  24.484  28.919   1.365
65705W        W37376  41.422  44.349  13.115
65706W        W37377   6.657  10.539   3.294
65707W        W37378  25.261   2.401  13.654
65708W        W37379   1.622  23.067   0.400
65709W        W37380  43.526  25.717  11.533
65710W        W37381  18.251  16.597   0.283
65711W        W37382  40.257  13.371  13.481
65712W        W37383  28.751  37.543   5.062
65713W        W37384  26.955   8.231  12.460
65714W        W37385  25.462  18.559   2.859
65715W        W37386   3.028  14.852   3.929
65716W        W37387  14.151  38.066   2.054
65717W        W37388  23.752  40.003   2.200
65718W        W37389   4.501  16.673   3.267
65719W        W37390  14.348   6.958   4.752
65720W        W37391  26.771  20.149   1.177
65721W        W37392  29.630  25.686  14.639
65722W        W37393  19.837  10.669  12.036
65723W        W37394  16.265  40.989   4.651
65724W        W37395  18.704  31.565   2.912
65725W        W37396  18.071  23.467   4.055
65726W        W37397   8.672  19.753  14.426
65727W        W37398  34.903  33.074  12.536
65728W        W37399  16.862  40.931  11.714
65729W        W37400  36.985   8.430   2.718
65730W        W37401  16.002  12.278   1.199
65731W        W37402  22.295   9.789   0.187
65732W        W37403  19.794  17.696   1.792
65733W        W37404  44.574  33.929  13.534
65734W        W37405   4.737  23.785   0.132
65735W        W37406   5.233   3.135  12.668
65736W        W37407  28.637   0.529   1.010
65737W        W37408   0.033   8.701  12.540
65738W        W37409   6.221  14.437  12.488
65739W        W37410  31.631   1.857  13.293
65740W        W37411  37.556  19.389  12.095
65741W        W37412  14.289  25.595   1.856
65742W        W37413  29.820  41.970  11.222
65743W        W37414  38.493   8.352  11.617
65744W        W37415   4.311   8.840   0.410
65745W        W37416  32.256  11.925  10.088
65746W        W37417   0.563  15.118   1.409
65747W        W37418  34.439   7.644  14.043
65748W        W37419  44.766   7.280   2.802
65749W        W37420   4.881  18.564   3.713
65750W        W37421  43.192  41.826  13.358
65751W        W37422  34.790  28.396  10.927
65752W        W37423   1.519  24.584  10.654
65753W        W37424   4.830   4.677   1.176
65754W        W37425  13.786  34.493  12.325
65755W        W37426  28.101  37.861   1.071
65756W        W37427  35.909   9.318   2.247
65757W        W37428  35.383  25.085   1.073
65758W        W37429  21.140  17.764  14.527
65759W        W37430  11.256  15.643   4.566
65760W        W37431  22.703  24.588   0.500
65761W        W37432  21.337  42.977  13.309
65762W        W37433  43.250   9.830   1.324
65763W        W37434  39.413  21.156   1.412
65764W        W37435   2.533  41.490  11.556
65765W        W37436  28.080  35.829  10.320
65766W        W37437  17.557  26.615  14.888
65767W        W37438  15.239   5.472   1.901
65768W        W37439  41.331  23.036   4.787
65769W        W37440  25.957  19.033  14.696
65770W        W37441   1.153  35.002   1.737
65771W        W37442  38.778  25.505   2.909
65772W        W37443  31.965  30.923   2.006
65773W        W37444  34.447  39.494   1.645
65774W        W37445  11.837  21.212  12.372
65775W        W37446  31.135  42.390  13.870
65776W        W37447   8.998  18.162   3.356
65777W        W37448  10.677  35.131   0.742
65778W        W37449  19.742   8.822   3.711
65779W        W37450  16.117  36.199  14.885
65780W        W37451   8.749   1.836   2.362
65781W        W37452   2.478   9.761  14.953
65782W        W37453  10.169  44.956  12.002
65783W        W37454  20.772  38.605   1.847
65784W        W37455   4.983  35.291  12.054
65785W        W37456  40.018  23.245  13.608
65786W        W37457   2.759  14.083   3.177
65787W        W37458  34.317  44.949  14.502
65788W        W37459  12.081  22.199  13.128
65789W        W37460   2.907  12.249   0.553
65790W        W37461  38.671   2.174  14.770
65791W        W37462   4.707  12.277  14.560
65792W        W37463  12.306   8.676  11.337
65793W        W37464   1.731   0.230  12.683
65794W        W37465  17.051  40.055  11.971
65795W        W37466  40.921  44.553   0.532
65796W        W37467   1.520   5.201   2.321
65797W        W37468  24.202  28.218  13.043
65798W        W37469  34.675  17.643   4.470
65799W        W37470   4.937  29.427  12.057
65800W        W37471  41.285  39.213  11.267
65801W        W37472  15.962  43.444   1.286
65802W        W37473  21.732   2.133  10.990
65803W        W37474   7.639  22.626   3.442
65804W        W37475  16.091  12.272   3.658
65805W        W37476  28.649  36.685  14.560
65806W        W37477  36.093   1.855   4.759
65807W        W37478  20.512  35.840   2.332
65808W        W37479  24.082  38.896  12.509
65809W        W37480   0.109  22.569   3.102
65810W        W37481  38.594  23.875   2.243
65811W        W37482  25.668  34.418  13.340
65812W        W37483  38.747   7.875  14.147
65813W        W37484   8.138  10.071  14.960
65814W        W37485  11.211  10.210   3.167
65815W        W37486  16.096  41.839  13.345
65816W        W37487  11.889  40.530   3.246
65817W        W37488  11.958  22.197  10.967
65818W        W37489  28.779  42.996   0.350
65819W        W37490  43.824  13.491   0.011
65820W        W37491  22.217  11.427  13.745
65821W        W37492  37.627  30.453  14.506
65822W        W37493  32.843  25.956   3.793
65823W        W37494  29.600  18.575  13.256
65824W        W37495  23.168   2.630  12.149
65825W        W37496  28.967   4.731  10.740
65826W        W37497  40.275  16.633  11.396
65827W        W37498   3.389  41.090  12.110
65828W        W37499   0.928   5.408  14.384
65829W        W37500  37.302  23.178  11.685
65830W        W37501   0.574  15.053  11.548
65831W        W37502  41.367  27.219  10.701
65832W        W37503  18.489  15.634  12.790
65833W        W37504  42.214  33.391  14.042
65834W        W37505  12.880   3.810  13.492
65835W        W37506  38.576  31.596   4.142
65836W        W37507  38.175  13.566   0.371
65837W        W37508  41.683  26.767   1.526
65838W        W37509  28.214   7.713  13.339
65839W        W37510  23.068  17.725   1.731
65840W        W37511  25.986   8.738   1.959
65841W        W37512  28.423  24.215  13.579
65842W        W37513   6.147  13.464  14.506
65843W        W37514  41.807  27.924  11.210
65844W        W37515  25.596  27.223   1.282
65845W        W37516  26.538   4.898   3.721
65846W        W37517  39.295  30.632  13.927
65847W        W37518   3.514  26.938   4.177
65848W        W37519   1.655  35.892  12.455
65849W        W37520  11.743  31.112   1.233
65850W        W37521  23.071  44.995  13.625
65851W        W37522  10.133  38.692  10.575
65852W        W37523   8.195  42.987   1.296
65853W        W37524  22.112   3.826   3.482
65854W        W37525  30.197   1.464   4.533
65855W        W37526  43.676   8.688   3.156
65856W        W37527  43.770  35.680  13.328
65857W        W37528  12.887  33.834   1.347
65858W        W37529  31.411  27.115  12.027
65859W        W37530   0.451   8.898   5.122
65860W        W37531  34.968  23.925  14.201
65861W        W37532  24.539   1.196  13.969
65862W        W37533  29.606   5.235  13.256
65863W        W37534   3.024  29.578  11.194
65864W        W37535  34.473   9.138  13.838
65865W        W37536  19.062  37.358   2.224
65866W        W37537   9.801  22.782   3.218
65867W        W37538  31.188  39.214  12.333
65868W        W37539  29.186  43.804   4.737
65869W        W37540  32.881  18.090  13.358
65870W        W37541  18.712  21.861   5.043
65871W        W37542  22.231  38.987  13.045
65872W        W37543  41.047  22.998  12.491
65873W        W37544  21.718  20.179   2.828
65874W        W37545  20.774  18.374  12.992
65875W        W37546  20.021  37.172   4.272
65876W        W37547   0.908  28.277  13.358
65877W        W37548  37.305   9.220   2.385
65878W        W37549   0.381   4.258   4.352
65879W        W37550   9.597  11.950  13.476
65880W        W37551  43.298  40.507   1.777
65881W        W37552  40.902  24.250  14.440
65882W        W37553  26.979  35.639  14.183
65883W        W37554   5.864  30.166   3.635
65884W        W37555   4.413  21.334  13.493
65885W        W37556  41.779   1.361  13.805
65886W        W37557  33.528  38.454   1.187
65887W        W37558  25.527   5.730  10.731
65888W        W37559  36.889   2.834   3.152
65889W        W37560  16.375  17.228  10.818
65890W        W37561  17.089  28.376   4.315
65891W        W37562  10.134  32.105  11.989
65892W        W37563  14.393  38.993  13.331
65893W        W37564  27.944  40.057  14.976
65894W        W37565  24.274  42.380   4.110
65895W        W37566   4.963  13.130  11.622
65896W        W37567  23.587  14.189   2.560
65897W        W37568  20.566   6.890   3.631
65898W        W37569  19.700   2.280   3.197
65899W        W37570  23.544  30.385   2.294
65900W        W37571  33.080  31.356  12.054
65901W        W37572  29.477   6.147   1.599
65902W        W37573   9.781  24.504   1.865
65903W        W37574  31.023  41.921  14.782
65904W        W37575  15.374  21.232   2.813
65905W        W37576  23.592   6.036  14.117
65906W        W37577  32.351  15.709  13.402
65907W        W37578  43.990  42.017   0.766
65908W        W37579   8.460  19.303  14.535
65909W        W37580  42.743  28.219  14.539
65910W        W37581   4.773  31.086  12.701
65911W        W37582  16.793   4.838  13.373
65912W        W37583  34.868  31.954   2.803
65913W        W37584   0.222  29.909  14.481
65914W        W37585   3.906  13.703  10.910
65915W        W37586  19.343  31.112  14.836
65916W        W37587   4.719   7.891  11.619
65917W        W37588  14.625   9.244  12.960
65918W        W37589  24.455  18.718  12.625
65919W        W37590   3.788   5.229   1.804
65920W        W37591  42.669  42.981   4.190
65921W        W37592   3.911  17.244  14.895
65922W        W37593   6.183  44.046   3.281
65923W        W37594  39.423  44.046   3.461
65924W        W37595  32.997  22.671  13.897
65925W        W37596   2.883   3.271   0.298
65926W        W37597   1.004  39.596   4.092
65927W        W37598  27.920  40.292  13.730
65928W        W37599   1.064  28.575   2.672
65929W        W37600  20.721   1.009  14.288
65930W        W37601  28.510  26.163  13.366
65931W        W37602  39.321  43.003  10.809
65932W        W37603  38.508  32.713   3.057
65933W        W37604  39.578  17.853   3.362
65934W        W37605  38.243  41.490  10.633
65935W        W37606  12.620  37.068  13.493
65936W        W37607  37.805  15.222  13.498
65937W        W37608  29.454  41.462   4.559
65938W        W37609   3.266  18.985   0.985
65939W        W37610  19.343  39.023   4.187
65940W        W37611   7.360  20.002   0.405
65941W        W37612  41.889   6.238   4.610
65942W        W37613   1.899  17.838  14.444
65943W        W37614  35.886  29.912   1.064
65944W        W37615  11.014  34.557   4.356
65945W        W37616  26.600  29.457   0.072
65946W        W37617  42.555  25.633  12.210
65947W        W37618  26.682  15.555  10.212
65948W        W37619  32.994  41.033   1.043
65949W        W37620  44.913  26.031   0.342
65950W        W37621  28.483  41.520  11.618
65951W        W37622  18.575   7.638  13.048
65952W        W37623  19.721  43.896  12.844
65953W        W37624  43.226  29.942   1.509
65954W        W37625  28.447   5.794   5.520
65955W        W37626   2.928   1.716   1.867
65956W        W37627   4.970  13.634   0.813
65957W        W37628  33.640   6.593   2.156
65958W        W37629  19.988  31.899   0.331
65959W        W37630  30.468   7.415   1.981
65960W        W37631  18.176  36.210  11.155
65961W        W37632  23.821  31.642  13.543
65962W        W37633  19.608  25.914   5.064
65963W        W37634  10.752  34.351  13.489
65964W        W37635  37.861  32.207  12.085
65965W        W37636  42.727  43.801   0.547
65966W        W37637  40.777  11.299  10.684
65967W        W37638  11.732   9.096   2.356
65968W        W37639   4.885  40.930  12.163
65969W        W37640   9.166  31.128  12.955
65970W        W37641  33.306   7.816  10.779
65971W        W37642  35.509  38.947   4.341
65972W        W37643  42.979   6.233  14.299
65973W        W37644   8.165  40.013   2.216
65974W        W37645  20.024  31.388   0.358
65975W        W37646  44.791  42.337   4.760
65976W        W37647  20.070  30.186  14.884
65977W        W37648   5.819   9.877  12.258
65978W        W37649   5.617  20.015   4.686
65979W        W37650  31.818  37.824  12.005
65980W        W37651  12.637  21.541   1.176
65981W        W37652  40.402  44.289  10.339
65982W        W37653  13.282  40.730   1.603
65983W        W37654   4.210  28.988   3.221
65984W        W37655  30.098  26.686   4.867
65985W        W37656   4.973   7.946  12.523
65986W        W37657  14.844  27.105  13.380
65987W        W37658  17.652  21.177   1.796
65988W        W37659  28.044  12.397  12.617
65989W        W37660   2.906  15.743   2.405
65990W        W37661  26.555  21.071  13.891
65991W        W37662  14.354   9.197  10.700
65992W        W37663  43.962  38.311  13.956
65993W        W37664  26.098   9.398   2.812
65994W        W37665  10.934  34.137  14.802
65995W        W37666   5.415  40.796  11.475
65996W        W37667  21.165  33.944  12.023
65997W        W37668   5.706   2.215  10.486
65998W        W37669  21.997  41.553   1.795
65999W        W37670   5.958  25.665  12.608
66000W        W37671  15.182  30.373  14.985
66001W        W37672  44.742  26.931  12.964
66002W        W37673  10.128  40.012   3.670
66003W        W37674  25.947  17.647   2.435
66004W        W37675  19.712  31.065  13.555
66005W        W37676  14.100  19.556  10.730
66006W        W37677   1.040  33.827  14.879
66007W        W37678  32.386   4.332  11.192
66008W        W37679   5.408  27.619  12.158
66009W        W37680   3.214  12.249   4.767
66010W        W37681  33.692  13.146  13.967
66011W        W37682  28.732  39.730   4.113
66012W        W37683   6.045  41.849   0.580
66013W        W37684  33.366   5.967  11.370
66014W        W37685   0.117   1.463   2.242
66015W        W37686  18.124  43.298   0.501
66016W        W37687  13.740  37.822   2.338
66017W        W37688   8.398  19.271   0.391
66018W        W37689   3.308  23.339  10.294
66019W        W37690  39.172  18.106   3.199
66020W        W37691   8.890  33.232  14.002
66021W        W37692  12.931  25.918   2.247
66022W        W37693  14.358  28.992   2.800
66023W        W37694   2.887  41.455   2.670
66024W        W37695   3.490  30.626   2.351
66025W        W37696   9.286  29.648  14.603
66026W        W37697  10.614   1.540  14.862
66027W        W37698   9.436  31.054  12.069
66028W        W37699   6.916  37.881  14.046
66029W        W37700  33.139  11.751   3.548
66030W        W37701  17.603  29.962   2.709
66031W        W37702  16.139   5.592   4.817
66032W        W37703   0.768  25.362   2.324
66033W        W37704  22.783  33.561  14.325
66034W        W37705   6.667  41.455   4.184
66035W        W37706  43.237  15.848  14.278
66036W        W37707  10.661  40.109  13.267
66037W        W37708  22.710  39.607   1.475
66038W        W37709  18.921  24.874   3.608
66039W        W37710   6.990  29.691  12.129
66040W        W37711  14.557  43.745   0.326
66041W        W37712  35.433  35.075  11.520
66042W        W37713  40.458   8.319  10.619
66043W        W37714  20.494  26.674   3.721
66044W        W37715   8.642  26.236   3.647
66045W        W37716  44.583  42.756  10.904
66046W        W37717  44.698  32.009  11.113
66047W        W37718  26.581   8.688  11.082
66048W        W37719  26.711   3.737   4.728
66049W        W37720  38.779   6.248   4.970
66050W        W37721  31.436  42.862  13.319
66051W        W37722  30.518   4.242  13.799
66052W        W37723  33.851  37.123  14.847
66053W        W37724  11.806  26.199   0.522
66054W        W37725   4.856  16.621  13.989
66055W        W37726   3.331  10.660   2.766
66056W        W37727   4.145  42.132  12.300
66057W        W37728  23.507   4.782   1.734
66058W        W37729  44.935   8.181  12.509
66059W        W37730  15.824   5.410   3.865
66060W        W37731   6.365  18.277   3.701
66061W        W37732  42.354  44.162   3.671
66062W        W37733  33.602  25.797   0.327
66063W        W37734   6.967  21.766   1.382
66064W        W37735  24.990  20.358  11.199
66065W        W37736  15.217  14.572   2.857
66066W        W37737   7.595  21.021  12.558
66067W        W37738  19.244  37.127  12.645
66068W        W37739  15.185  14.805   1.968
66069W        W37740  17.248  14.869   2.354
66070W        W37741  36.897   1.289   0.025
66071W        W37742  39.796   8.423   1.313
66072W        W37743  44.177   6.242   0.310
66073W        W37744  39.513  29.667   0.511
66074W        W37745  36.902  43.370  13.056
66075W        W37746  12.811  31.532  12.603
66076W        W37747  29.183  12.783   1.159
66077W        W37748  37.427   4.569   0.776
66078W        W37749  33.138  30.905   0.431
66079W        W37750  39.263  20.712   4.863
66080W        W37751  40.536   4.389   3.391
66081W        W37752  27.916   2.406  12.622
66082W        W37753  17.236  36.856  14.039
66083W        W37754  35.940  24.333   2.789
66084W        W37755  11.061  11.177  14.933
66085W        W37756  11.486   4.760  11.158
66086W        W37757  16.284  12.232  12.051
66087W        W37758  40.468  34.986   1.005
66088W        W37759   5.961  25.009   0.546
66089W        W37760   0.629   1.617   2.605
66090W        W37761   1.546   9.738   1.658
66091W        W37762  16.137  24.178   2.648
66092W        W37763  21.091  23.660  12.530
66093W        W37764   8.366  34.570   4.090
66094W        W37765  23.208  18.664   2.135
66095W        W37766  24.003  42.081  11.192
66096W        W37767   0.053  20.783  11.401
66097W        W37768  29.761  23.570  11.041
66098W        W37769  43.952   0.569  13.369
66099W        W37770  19.601   5.000   3.284
66100W        W37771  25.626   2.243  13.309
66101W        W37772  30.671  32.444   1.975
66102W        W37773  18.226   4.575   2.534
66103W        W37774  25.927   9.782   0.820
66104W        W37775  41.344   2.867  10.468
66105W        W37776  40.294  20.715   4.578
66106W        W37777  15.897   1.201   1.585
66107W        W37778  13.454  23.110   2.669
66108W        W37779  14.285  24.245   3.522
66109W        W37780  28.765  27.534   4.207
66110W        W37781   8.810  24.719   2.094
66111W        W37782   2.302   7.361   2.929
66112W        W37783  25.419  28.955   0.643
66113W        W37784  12.247  38.124  13.115
66114W        W37785  40.879  11.717   1.044
66115W        W37786   7.401  14.869  14.393
66116W        W37787  13.392  14.690   3.172
66117W        W37788  10.337  22.351  12.467
66118W        W37789  42.669  32.901   0.837
66119W        W37790   5.845  37.152  11.436
66120W        W37791  20.749   2.389   4.595
66121W        W37792  16.059  42.796   2.868
66122W        W37793  28.603   3.882  14.264
66123W        W37794  36.344  23.696   2.254
66124W        W37795  35.986  31.545   4.191
66125W        W37796  26.342  30.227  12.613
66126W        W37797   5.874  18.255  11.599
66127W        W37798  20.280  38.621   4.561
66128W        W37799  40.101  39.761   3.289
66129W        W37800   9.164  32.416  10.923
66130W        W37801  27.646  27.061  11.540
66131W        W37802  32.004  40.437  12.595
66132W        W37803  21.268  18.425   1.473
66133W        W37804  33.523  28.523   0.592
66134W        W37805  27.641  42.874   1.819
66135W        W37806  31.596  35.099   1.537
66136W        W37807   1.804  36.639  12.582
66137W        W37808  14.116  28.461   1.948
66138W        W37809  12.905  16.636  14.951
66139W        W37810  22.752  16.141  11.050
66140W        W37811   9.058  20.095   0.672
66141W        W37812   5.236   4.602   3.624
66142W        W37813  29.194  39.395   0.779
66143W        W37814   2.017  21.714  13.366
66144W        W37815  28.572   7.875  13.000
66145W        W37816  33.289   6.175  10.011
66146W        W37817  18.662  40.084  10.073
66147W        W37818   5.280   8.684   0.531
66148W        W37819   0.689  18.601   4.147
66149W        W37820  27.832  14.116  14.010
66150W        W37821   1.170   9.238  14.941
66151W        W37822  20.228  17.148   0.415
66152W        W37823  16.070  11.882  11.758
66153W        W37824  23.172  42.773   1.311
66154W        W37825  32.991  41.849   3.787
66155W        W37826  15.556  15.696  10.818
66156W        W37827  18.327  38.524   0.756
66157W        W37828  11.731  33.659  11.536
66158W        W37829  27.185  20.038   3.842
66159W        W37830  43.306  11.846   5.442
66160W        W37831  22.749  44.813  11.131
66161W        W37832   3.664  31.055   0.413
66162W        W37833  19.130  38.287   2.751
66163W        W37834  13.635  25.725   4.112
66164W        W37835  35.981  21.207   0.066
66165W        W37836  33.599  36.020   1.363
66166W        W37837   8.390  37.537  14.859
66167W        W37838  27.641  43.070   3.723
66168W        W37839  21.833   0.806   0.811
66169W        W37840  35.972  44.124   1.368
66170W        W37841  15.069  15.901  10.983
66171W        W37842  25.186   8.842  14.469
66172W        W37843   5.811  31.936   0.748
66173W        W37844  26.311  10.427  13.738
66174W        W37845   0.825   3.857   4.853
66175W        W37846  43.631  25.835   2.379
66176W        W37847  43.429  31.916  11.655
66177W        W37848   1.978  42.824  14.043
66178W        W37849   1.478  31.807  11.986
66179W        W37850  27.444  19.492  14.848
66180W        W37851   4.671  13.329   1.937
66181W        W37852  23.577   4.973   3.851
66182W        W37853  41.011  38.892  10.229
66183W        W37854   7.956  35.671  11.421
66184W        W37855  19.283  21.552   0.464
66185W        W37856  23.244  32.978  14.876
66186W        W37857  44.333   5.315  10.405
66187W        W37858  25.036  26.882  13.921
66188W        W37859   8.743  35.468  10.746
66189W        W37860  35.321  24.049  12.498
66190W        W37861   1.043  42.670  10.229
66191W        W37862  34.072  17.544  13.350
66192W        W37863  22.574  28.392  14.048
66193W        W37864  34.475   5.277   4.269
66194W        W37865   5.300  12.585  12.467
66195W        W37866  42.490   5.907  11.712
66196W        W37867  30.239  34.597  12.861
66197W        W37868  13.494   4.789   0.168
66198W        W37869  13.833  27.338  14.315
66199W        W37870   4.286  32.587   3.676
66200W        W37871  28.579   3.427  12.573
66201W        W37872   4.184   0.458  13.483
66202W        W37873   3.836  22.072  10.738
66203W        W37874  12.105  10.361   1.787
66204W        W37875   5.753  32.508   3.723
66205W        W37876   4.318   5.585   2.216
66206W        W37877  35.429  42.126  12.769
66207W        W37878  29.883  16.744  10.735
66208W        W37879  33.450  32.653  10.959
66209W        W37880  41.204  39.384  13.504
66210W        W37881  37.417  42.017  13.920
66211W        W37882  36.293  42.245  14.357
66212W        W37883  25.094  26.916   1.254
66213W        W37884  34.886  14.148   2.246
66214W        W37885  34.563  10.850  11.131
66215W        W37886   9.356  16.200   2.144
66216W        W37887  26.841   9.379  10.710
66217W        W37888  35.968  18.518  13.860
66218W        W37889  37.844   2.365   1.708
66219W        W37890  27.792  29.461   4.732
66220W        W37891   3.338  31.088   3.514
66221W        W37892  31.470  25.576  12.527
66222W        W37893  20.307  17.775   1.738
66223W        W37894  13.788  36.762   3.363
66224W        W37895  12.301  19.277  10.758
66225W        W37896  15.951   5.114  13.304
66226W        W37897  16.124  15.790  12.463
66227W        W37898  15.956  31.706  11.261
66228W        W37899  19.157   3.027  13.336
66229W        W37900  23.678  25.555  11.803
66230W        W37901   5.696  22.926  14.339
66231W        W37902  18.724  25.977  14.503
66232W        W37903  37.864  32.690  13.977
66233W        W37904   6.841   2.014   4.567
66234W        W37905  35.077  17.537   4.820
66235W        W37906   2.346  23.535  12.039
66236W        W37907  19.786   6.669  12.613
66237W        W37908  19.100  28.978  13.414
66238W        W37909  17.491  33.994  14.841
66239W        W37910   7.426  43.435  13.019
66240W        W37911  38.677  34.481   2.704
66241W        W37912  33.616  39.834  13.291
66242W        W37913  35.854  26.615  14.409
66243W        W37914  40.861  32.619  12.907
66244W        W37915  35.881  12.320  11.621
66245W        W37916  44.066   8.706  11.215
66246W        W37917  28.255  24.779  11.946
66247W        W37918  38.635  17.939   1.533
66248W        W37919  14.907  24.168  13.330
66249W        W37920  35.388  20.551   1.790
66250W        W37921  39.965  42.551   1.262
66251W        W37922  35.938   9.817  12.582
66252W        W37923   0.763  27.989  11.488
66253W        W37924  10.448  10.667  11.016
66254W        W37925  31.367  18.747   0.371
66255W        W37926   0.015  44.650  11.913
66256W        W37927  14.073   6.979  13.393
66257W        W37928  38.461   2.450   0.148
66258W        W37929  10.206   4.599   4.527
66259W        W37930  11.903  14.594  13.908
66260W        W37931  29.067  24.010   2.621
66261W        W37932  28.449  31.652  12.447
66262W        W37933  31.482   1.473  12.988
66263W        W37934  18.131  44.476  14.258
66264W        W37935   9.938  34.175  11.408
66265W        W37936  23.075  35.311   3.258
66266W        W37937  22.542  15.079  14.497
66267W        W37938  38.648  24.393   2.164
66268W        W37939  18.939   8.758  11.105
66269W        W37940  43.719  33.883   4.673
66270W        W37941  22.505  31.126   1.053
66271W        W37942   1.686  31.505  14.722
66272W        W37943  43.507  26.289  13.438
66273W        W37944  32.924  39.517   0.308
66274W        W37945  23.445  41.818   4.142
66275W        W37946  36.831  23.245  10.357
66276W        W37947   1.237  13.599   3.838
66277W        W37948  11.268  40.025  12.749
66278W        W37949  29.858  20.202  14.370
66279W        W37950  19.522  10.308  14.312
66280W        W37951  24.105  33.187  13.512
66281W        W37952  32.627  38.370   1.936
66282W        W37953   3.367   4.714   1.289
66283W        W37954   1.424  28.842   3.766
66284W        W37955  24.046  22.183  11.684
66285W        W37956  28.974   5.485  11.059
66286W        W37957  33.313  23.678   3.651
66287W        W37958  40.109  22.154  12.702
66288W        W37959  40.881  31.008   4.803
66289W        W37960  17.811  37.438  12.367
66290W        W37961   3.897   4.699  12.164
66291W        W37962  16.549  25.724   0.469
66292W        W37963  13.925  13.131   4.156
66293W        W37964  14.268  24.233  12.494
66294W        W37965  15.577   8.140  14.371
66295W        W37966  36.584  20.301   3.981
66296W        W37967  29.758   7.633   3.327
66297W        W37968  21.113  34.684  13.082
66298W        W37969  43.388   3.347   1.022
66299W        W37970  28.438  13.402  13.082
66300W        W37971  13.922  18.572   4.509
66301W        W37972  28.192  40.339   0.326
66302W        W37973  37.724  26.612  13.808
66303W        W37974  40.427  10.428   1.893
66304W        W37975  18.706  15.030   2.171
66305W        W37976   3.469  40.140  14.388
66306W        W37977   5.655  36.934   2.900
66307W        W37978  44.227  38.335   0.374
66308W        W37979  25.609  30.356   3.667
66309W        W37980  34.668  40.919  11.588
66310W        W37981  42.945  20.723  14.890
66311W        W37982  21.485  25.802   0.796
66312W        W37983  40.817  16.625  11.565
66313W        W37984  44.858  40.185  10.492
66314W        W37985  12.015   7.526  10.254
66315W        W37986  13.294   2.780   3.652
66316W        W37987  33.363   2.836   2.503
66317W        W37988  29.484  27.612  14.931
66318W        W37989  21.734  12.912  11.499
66319W        W37990  43.876  40.934  10.151
66320W        W37991  34.138   1.733  14.484
66321W        W37992  44.696  43.712   0.384
66322W        W37993  11.218  20.273   2.906
66323W        W37994  24.243  43.323  10.724
66324W        W37995   1.185  34.619  13.104
66325W        W37996  23.624  35.662   0.312
66326W        W37997   5.494  39.514  11.568
66327W        W37998  43.515  12.762  12.144
66328W        W37999   4.610  11.153   1.050
66329W        W38000  24.273  22.259   2.248
66330W        W38001  13.898  40.536   3.926
66331W        W38002  20.630  26.569   0.272
66332W        W38003  21.277  43.714  11.492
66333W        W38004   1.194  19.284   1.818
66334W        W38005  28.167  43.955   4.528
66335W        W38006   7.884  15.118  10.576
66336W        W38007   3.340  10.176   1.819
66337W        W38008  15.220   3.470   0.118
66338W        W38009  29.952  35.369   2.151
66339W        W38010  25.495  44.596   1.851
66340W        W38011  23.734   9.394   4.183
66341W        W38012  23.232  44.381  11.430
66342W        W38013   6.929  44.625  12.982
66343W        W38014  42.415   7.080   2.542
66344W        W38015  25.282  28.575  10.702
66345W        W38016   1.009  34.997  13.561
66346W        W38017  27.910   9.654  12.479
66347W        W38018  21.615  23.994   2.184
66348W        W38019  12.218  40.089  12.605
66349W        W38020  25.696  25.085   1.001
66350W        W38021  40.585  14.331  11.194
66351W        W38022  33.957  35.792  14.417
66352W        W38023  20.617  21.695   0.424
66353W        W38024  11.760   1.220  13.538
66354W        W38025  27.345  37.353  13.955
66355W        W38026  24.989  18.641   4.283
66356W        W38027  38.944  36.561  11.988
66357W        W38028  32.110  24.007  14.265
66358W        W38029  31.229  30.581  12.898
66359W        W38030  40.488   1.887   1.670
66360W        W38031  11.285  33.448  10.737
66361W        W38032  44.946   3.880  13.578
66362W        W38033  11.952  27.217   4.185
66363W        W38034   9.080  25.996  11.993
66364W        W38035   8.680  19.674   1.239
66365W        W38036   2.829  41.937   2.466
66366W        W38037  22.558  25.261   1.346
66367W        W38038  40.500   1.314   4.068
66368W        W38039  21.226  41.372  13.387
66369W        W38040  33.821  33.391   4.185
66370W        W38041  28.491  26.108  10.888
66371W        W38042  29.109  43.362   4.483
66372W        W38043  39.123  17.146   3.627
66373W        W38044   9.303   3.796  12.191
66374W        W38045  35.521  44.330   1.156
66375W        W38046  27.694  10.928  10.642
66376W        W38047  14.654   3.633   5.184
66377W        W38048  25.772  36.088  10.216
66378W        W38049   3.642  13.210  12.592
66379W        W38050   5.991  13.764   3.225
66380W        W38051  17.266  31.162  14.982
66381W        W38052  29.907  28.473  11.763
66382W        W38053  25.582   7.912   4.965
66383W        W38054  38.416  23.078  11.905
66384W        W38055  25.928  26.153  14.493
66385W        W38056  39.925  35.490  11.017
66386W        W38057  39.443   6.163  11.239
66387W        W38058  30.912  12.819  12.929
66388W        W38059  38.904  42.419  14.013
66389W        W38060  27.996  12.917  10.673
66390W        W38061  17.097  35.961   4.889
66391W        W38062  44.864  32.436  12.783
66392W        W38063   5.510   9.670  13.325
66393W        W38064  35.329  26.535  14.207
66394W        W38065   6.357  39.457   1.315
66395W        W38066  40.201  11.931   1.760
66396W        W38067   0.570   4.366  10.688
66397W        W38068  40.328  21.047   2.367
66398W        W38069  30.440  30.983  12.913
66399W        W38070  17.729  23.971   4.761
66400W        W38071  32.504  25.242   1.576
66401W        W38072  34.096  23.141  12.995
66402W        W38073  19.055  10.786  12.536
66403W        W38074  19.117  25.195  10.647
66404W        W38075  12.305  16.138  14.441
66405W        W38076  11.898  41.923  12.499
66406W        W38077  25.476  32.022   2.176
66407W        W38078  22.734  40.206   0.676
66408W        W38079  22.683  38.147   0.445
66409W        W38080  20.397   2.523  10.657
66410W        W38081  23.273  21.560   0.816
66411W        W38082  19.673  19.222   0.773
66412W        W38083   1.920  15.701  10.712
66413W        W38084  37.003  44.882  13.810
66414W        W38085  29.261  42.850   1.759
66415W        W38086   5.440  36.233   3.819
66416W        W38087  10.447  32.504   1.001
66417W        W38088  18.374   9.384  11.049
66418W        W38089  13.241  36.323  12.223
66419W        W38090  18.197  28.420  14.483
66420W        W38091   5.022  17.076  12.192
66421W        W38092   6.670  10.606   4.349
66422W        W38093  16.865  25.394  11.644
66423W        W38094  43.529  31.119  14.367
66424W        W38095  16.125  23.691   3.649
66425W        W38096   2.189  37.042   0.556
66426W        W38097   6.870  40.420   0.427
66427W        W38098  44.767  24.667   1.427
66428W        W38099  17.634  28.215   1.748
66429W        W38100   4.999  28.510  12.001
66430W        W38101   7.185  15.039   3.782
66431W        W38102   4.870   2.772   1.029
66432W        W38103   1.861  25.959   1.833
66433W        W38104   5.837   7.640   3.797
66434W        W38105  23.653  44.675   3.993
66435W        W38106   6.288   4.644   4.992
66436W        W38107  38.795  26.097   1.688
66437W        W38108  10.215  37.473   3.693
66438W        W38109  33.897  29.765  13.990
66439W        W38110  34.413  27.146   1.193
66440W        W38111  42.818  22.298  14.908
66441W        W38112  14.941  24.810  12.018
66442W        W38113  16.852  44.258  11.969
66443W        W38114  13.244  26.059   2.641
66444W        W38115  39.668  31.993   2.702
66445W        W38116  12.076  11.258  12.482
66446W        W38117   2.851  20.190   5.098
66447W        W38118   2.015  12.679  10.793
66448W        W38119  30.067  30.856  14.511
66449W        W38120  21.939  29.238  11.175
66450W        W38121  23.095  29.601  11.146
66451W        W38122  20.335  25.623   0.983
66452W        W38123  26.669  19.687  11.535
66453W        W38124   7.444  31.639  14.346
66454W        W38125  31.441  44.685  11.939
66455W        W38126   3.822  32.407   2.493
66456W        W38127  10.038  12.174  13.344
66457W        W38128  23.209  19.112   3.355
66458W        W38129  31.068  28.303  10.286
66459W        W38130  11.348  26.137   2.758
66460W        W38131  38.028  10.075  13.889
66461W        W38132  16.527  21.044  10.462
66462W        W38133  29.646   6.448   0.770
66463W        W38134  33.621  32.076   3.310
66464W        W38135  24.580  30.169  11.601
66465W        W38136  41.721  38.224   2.547
66466W        W38137   3.912  32.830  14.334
66467W        W38138  33.522  18.174  10.769
66468W        W38139  29.917  15.142  14.364
66469W        W38140  24.229   9.996  12.131
66470W        W38141  40.153  30.417   4.625
66471W        W38142   5.462  42.262  10.486
66472W        W38143  12.980   9.782   0.788
66473W        W38144  17.313  23.044  13.462
66474W        W38145   9.876   1.039   0.283
66475W        W38146  21.196   1.319   2.735
66476W        W38147  39.471  29.081  14.848
66477W        W38148  22.608  39.419  13.268
66478W        W38149  19.071   6.152  13.978
66479W        W38150  33.467  43.043  11.397
66480W        W38151  26.569  24.969   1.478
66481W        W38152  40.289  25.517   1.062
66482W        W38153  12.588  14.315  10.934
66483W        W38154  20.580   4.181  13.022
66484W        W38155   5.186   5.423   0.062
66485W        W38156   8.327   2.830   3.846
66486W        W38157  40.239  36.173   3.721
66487W        W38158  39.636  14.037  14.339
66488W        W38159  37.093  29.419  11.551
66489W        W38160   2.275  41.988   4.741
66490W        W38161  24.019  22.692   4.212
66491W        W38162  11.367   7.798  11.719
66492W        W38163   3.370  11.481  13.978
66493W        W38164  10.885  43.733  14.775
66494W        W38165  19.429   4.617  12.300
66495W        W38166  22.226  36.028   1.786
66496W        W38167  39.299  11.474   0.278
66497W        W38168  10.823  10.730   2.661
66498W        W38169  39.929  16.230  14.683
66499W        W38170  36.301  17.218  13.010
66500W        W38171  30.386  21.284  13.100
66501W        W38172  36.895   2.304  14.885
66502W        W38173   3.245   6.763   3.506
66503W        W38174  42.971   5.495   2.307
66504W        W38175  33.617  36.658  11.155
66505W        W38176  41.928  12.788   0.395
66506W        W38177  43.513  23.930   5.394
66507W        W38178   8.474  19.274   3.822
66508W        W38179  32.954  21.304   4.166
66509W        W38180   3.856  35.449   2.688
66510W        W38181  30.908  11.282  14.792
66511W        W38182  42.525  37.067   3.166
66512W        W38183  15.974  27.257   1.214
66513W        W38184  21.785  21.735  11.606
66514W        W38185  25.279  43.414   0.845
66515W        W38186  42.144  21.571  11.075
66516W        W38187   1.845  28.985  11.544
66517W        W38188  14.203   6.782  13.875
66518W        W38189  30.899  38.154  11.224
66519W        W38190  23.298  35.776   2.764
66520W        W38191  27.011  17.550   4.466
66521W        W38192  15.206   5.209   3.773
66522W        W38193   8.979  38.244  11.400
66523W        W38194  28.079  17.342   4.596
66524W        W38195   0.893  43.972  13.505
66525W        W38196  42.633  12.283  14.535
66526W        W38197   1.224  10.913  12.950
66527W        W38198  18.491  35.943  11.564
66528W        W38199  38.968  19.788  12.067
66529W        W38200   6.392   2.703  12.866
66530W        W38201  29.596  33.870   4.588
66531W        W38202   4.677  23.213  13.432
66532W        W38203  14.772  10.393  14.022
66533W        W38204  34.086  34.384   4.302
66534W        W38205   5.379   0.856  11.091
66535W        W38206   6.703  25.175   2.802
66536W        W38207  22.817  19.014  10.628
66537W        W38208   1.031  14.422   0.285
66538W        W38209  13.792   7.849   1.289
66539W        W38210  21.030   9.559   4.677
66540W        W38211  16.149   8.920  11.127
66541W        W38212  19.509  41.799   3.558
66542W        W38213  17.707  25.405  10.522
66543W        W38214  32.731  44.729  12.066
66544W        W38215  27.155  40.755   3.371
66545W        W38216  10.156  25.978  11.726
66546W        W38217  21.803  29.614  10.756
66547W        W38218  11.928  22.713   2.282
66548W        W38219   5.283   2.008   1.350
66549W        W38220   5.169  36.611  10.617
66550W        W38221   7.318  40.930  12.419
66551W        W38222  19.800  17.579  12.446
66552W        W38223  12.425   3.443   0.817
66553W        W38224  11.557  29.017   4.493
66554W        W38225  36.849  16.146  11.010
66555W        W38226   1.686  33.816   1.905
66556W        W38227  24.174  20.357   2.256
66557W        W38228  41.425  16.014  11.513
66558W        W38229  38.651  42.501  11.792
66559W        W38230   8.955   8.906  11.169
66560W        W38231   1.637  21.727  14.381
66561W        W38232  43.509  36.935   0.369
66562W        W38233  13.815   2.885  12.615
66563W        W38234   8.340   7.973  12.937
66564W        W38235  10.172  12.075  11.018
66565W        W38236  42.737  20.830  11.049
66566W        W38237  15.043  24.526   1.176
66567W        W38238  36.448   7.141  12.485
66568W        W38239  22.554  21.044  14.906
66569W        W38240   1.041  27.863   3.198
66570W        W38241  21.075  32.430  13.597
66571W        W38242   0.387  28.578  10.629
66572W        W38243  27.899  10.091  12.214
66573W        W38244  43.821  39.118   4.603
66574W        W38245   4.719  31.586   4.806
66575W        W38246  35.858  25.306  12.958
66576W        W38247   3.369  20.133   4.356
66577W        W38248   1.717  37.375  13.384
66578W        W38249  35.983   0.103  12.089
66579W        W38250   6.918   2.503  14.950
66580W        W38251   1.234  26.984   4.634
66581W        W38252  23.249  39.806  13.871
66582W        W38253  30.312  43.146   1.873
66583W        W38254  42.807  44.012   3.466
66584W        W38255  13.926   8.345  14.536
66585W        W38256  26.654  10.729   3.790
66586W        W38257   4.989  39.931  10.193
66587W        W38258  30.464  15.137  13.397
66588W        W38259  21.684  32.870  12.042
66589W        W38260  10.240  32.088   1.239
66590W        W38261  33.286  24.896  11.040
66591W        W38262   8.270  37.092   3.148
66592W        W38263  26.443  16.830  10.453
66593W        W38264   1.763   7.330  13.518
66594W        W38265  16.184  20.066   3.890
66595W        W38266  24.157  27.553  11.857
66596W        W38267  26.724  21.791  13.305
66597W        W38268  17.701  23.606  10.508
66598W        W38269  37.588  22.226   4.131
66599W        W38270  44.691  34.370  10.700
66600W        W38271  21.356  24.504  14.067
66601W        W38272  12.675   6.981  10.931
66602W        W38273  44.397  20.635  14.939
66603W        W38274  38.382  23.136  14.465
66604W        W38275  37.031  44.424   4.387
66605W        W38276   0.940  25.817   3.607
66606W        W38277  11.944  36.545  14.334
66607W        W38278  21.523  24.489  11.964
66608W        W38279  14.305  29.415  11.907
66609W        W38280  30.023  14.369  11.249
66610W        W38281  37.327  21.151  10.392
66611W        W38282  16.154  44.617  11.223
66612W        W38283  23.934  16.968   4.653
66613W        W38284  31.020   6.225   0.011
66614W        W38285  11.099  11.644   1.758
66615W        W38286  26.220  23.243   0.275
66616W        W38287  13.149  26.110   0.794
66617W        W38288  29.603  23.559  14.338
66618W        W38289  40.298  11.022  12.110
66619W        W38290  33.859  23.267   1.456
66620W        W38291  11.103  39.328  11.614
66621W        W38292  36.096   3.830  14.730
66622W        W38293  41.499  37.112  14.259
66623W        W38294  35.629  22.765  13.998
66624W        W38295  34.188  36.965   2.293
66625W        W38296   2.110   0.686  12.035
66626W        W38297   5.212  31.080  14.039
66627W        W38298  35.515  26.640   9.981
66628W        W38299  23.187  40.481   9.891
66629W        W38300   8.780  26.956   4.178
66630W        W38301  17.566  20.459   4.619
66631W        W38302  13.064  29.955  11.850
66632W        W38303  31.161  35.910   5.109
66633W        W38304  15.695  39.731  12.526
66634W        W38305   3.393   3.259  11.166
66635W        W38306  30.466  17.668  14.370
66636W        W38307  14.863   6.226   0.801
66637W        W38308  18.005  33.356  12.833
66638W        W38309  23.263   5.015   0.382
66639W        W38310  38.146   0.942  12.701
66640W        W38311   5.011  35.897  14.749
66641W        W38312  28.705   1.797  10.957
66642W        W38313  32.653   9.805  10.744
66643W        W38314  16.976   9.067  14.495
66644W        W38315  34.147  40.313  10.595
66645W        W38316   9.313  38.521   0.784
66646W        W38317  19.147  12.147   0.413
66647W        W38318   9.643   3.930  14.021
66648W        W38319  20.868  34.450   1.874
66649W        W38320   9.233  34.406   3.205
66650W        W38321  40.133  26.652   4.118
66651W        W38322  42.912  44.469  14.782
66652W        W38323   1.779  10.103   2.306
66653W        W38324   3.950  17.754   0.477
66654W        W38325  24.129  25.226  10.656
66655W        W38326  44.910  26.356   0.767
66656W        W38327   0.422  31.022  12.981
66657W        W38328  14.625  19.194   2.771
66658W        W38329  22.163  23.021  13.422
66659W        W38330   9.109   5.745  12.957
66660W        W38331   5.341  37.142  13.585
66661W        W38332   9.760  19.026   0.409
66662W        W38333  13.808  41.921   2.884
66663W        W38334  16.173  16.193  13.221
66664W        W38335  41.386  15.955  12.514
66665W        W38336  22.572   3.168   4.099
66666W        W38337  14.731  27.180   3.107
66667W        W38338  33.765  22.910   3.610
66668W        W38339  10.400  43.896  11.162
66669W        W38340  19.713  17.544   2.757
66670W        W38341  16.106  25.398   5.061
66671W        W38342  14.017  37.489   0.398
66672W        W38343  18.562  44.391   1.425
66673W        W38344  43.890   3.390  14.164
66674W        W38345  24.731  28.439  10.681
66675W        W38346  16.580   1.416  12.185
66676W        W38347  31.136   1.719  13.298
66677W        W38348  28.601  24.389   4.592
66678W        W38349  31.635   2.608  12.100
66679W        W38350  13.016  38.415  11.963
66680W        W38351  31.468  34.136   0.331
66681W        W38352  18.583  32.691   0.372
66682W        W38353   8.264  37.338   2.693
66683W        W38354   4.379   3.400  11.232
66684W        W38355  34.952  27.436   2.325
66685W        W38356  44.245  20.775   5.034
66686W        W38357  26.240   0.739  12.487
66687W        W38358   8.896  17.983  10.736
66688W        W38359  37.869  11.135   1.977
66689W        W38360  39.345  12.983  11.969
66690W        W38361   2.715  35.642  11.659
66691W        W38362  30.559  10.311  11.902
66692W        W38363   8.816  23.200   0.343
66693W        W38364  35.823  29.031  11.397
66694W        W38365  20.586  20.874   0.859
66695W        W38366  37.866   2.749   2.682
66696W        W38367   7.946   3.725  12.404
66697W        W38368   3.428  21.509  11.107
66698W        W38369  41.342  36.678   2.980
66699W        W38370  39.501   5.248   1.831
66700W        W38371   9.917  26.189  13.042
66701W        W38372  35.289  15.429   4.583
66702W        W38373  19.770  14.426  11.006
66703W        W38374  20.976  30.894   2.403
66704W        W38375  21.599  36.459   2.677
66705W        W38376  43.784  42.608   4.567
66706W        W38377  12.295  24.563   3.597
66707W        W38378  13.874  30.350  12.020
66708W        W38379   1.504  12.602   3.719
66709W        W38380   7.939  16.701   2.778
66710W        W38381  23.232  38.677  14.227
66711W        W38382   1.008  34.419  12.575
66712W        W38383  16.670  11.527   2.281
66713W        W38384  31.555   7.698   3.786
66714W        W38385  31.725   7.812  13.679
66715W        W38386  28.062  32.640   2.606
66716W        W38387  43.354  18.488  14.049
66717W        W38388  38.484  35.068  13.783
66718W        W38389  21.311   9.914  11.190
66719W        W38390  16.664  39.972  12.999
66720W        W38391   1.306  34.900  12.680
66721W        W38392  39.890  42.199   2.923
66722W        W38393   3.681  28.136  12.025
66723W        W38394  12.318   2.239  12.455
66724W        W38395  44.756  41.741   3.174
66725W        W38396  10.141  29.799   0.954
66726W        W38397  40.247  39.237  13.513
66727W        W38398  35.016  32.457  11.165
66728W        W38399   5.008  28.532   3.297
66729W        W38400  22.063  40.852   2.721
66730W        W38401  28.560  28.204  10.726
66731W        W38402  12.655  12.902  11.901
66732W        W38403  36.887   2.762  13.525
66733W        W38404   1.137  25.098   2.629
66734W        W38405  43.222  24.263   1.451
66735W        W38406  33.670  25.864   2.107
66736W        W38407  42.354   8.617   4.166
66737W        W38408  21.360  39.336  11.503
66738W        W38409  31.957  26.209   0.889
66739W        W38410   9.105  32.873   3.456
66740W        W38411  38.397  23.752   0.896
66741W        W38412   1.974  25.781  14.475
66742W        W38413  27.646  24.182   3.638
66743W        W38414   8.175  30.681  11.520
66744W        W38415  20.123  26.724   5.118
66745W        W38416  40.920  13.470  13.972
66746W        W38417  21.043  23.096  11.334
66747W        W38418  34.702  15.801   5.169
66748W        W38419   7.897   8.117   4.062
66749W        W38420  14.238  36.005   0.809
66750W        W38421  29.385  37.798   1.162
66751W        W38422  22.159  13.747   3.236
66752W        W38423  15.540  42.920  14.741
66753W        W38424   5.163  38.249   4.306
66754W        W38425   2.995   0.473  13.052
66755W        W38426  30.877   2.697   0.826
66756W        W38427   6.685  15.605   3.180
66757W        W38428  42.086  25.013  12.578
66758W        W38429  14.408  11.648  14.450
66759W        W38430  38.517  12.919  14.029
66760W        W38431  19.057   1.722  11.471
66761W        W38432  22.121   8.054   0.920
66762W        W38433  27.536  37.323  13.069
66763W        W38434  20.997  29.597   0.189
66764W        W38435   1.298  21.603  14.794
66765W        W38436  42.868   7.210   1.953
66766W        W38437  29.585   5.465  11.849
66767W        W38438  42.298  15.758   4.149
66768W        W38439   9.165  28.933   0.932
66769W        W38440  22.597  19.275  13.478
66770W        W38441  18.978  13.668   1.932
66771W        W38442  33.998  38.392   1.512
66772W        W38443  23.779  21.586   0.817
66773W        W38444  20.207   3.835  12.923
66774W        W38445   4.413   5.217   3.605
66775W        W38446  15.258  41.051   1.367
66776W        W38447   1.866  17.112  11.232
66777W        W38448  20.404  36.391   3.895
66778W        W38449   5.758  35.548   4.099
66779W        W38450  18.054   3.499   1.906
66780W        W38451  17.664   9.956  11.103
66781W        W38452  15.316  40.772  14.835
66782W        W38453  13.698  40.527   3.439
66783W        W38454  15.211  43.780  10.719
66784W        W38455  43.866  21.623   0.532
66785W        W38456  12.595   6.178   4.159
66786W        W38457   1.772  16.007  14.015
66787W        W38458   3.090  23.236  13.532
66788W        W38459  39.060  13.195  11.601
66789W        W38460  24.258  35.236   0.886
66790W        W38461  43.156  38.435   0.835
66791W        W38462  37.321  24.977   0.386
66792W        W38463  27.206  33.520  10.634
66793W        W38464  34.528  15.309  12.457
66794W        W38465   3.267  32.104  11.037
66795W        W38466  17.931  18.319   4.358
66796W        W38467  10.185  35.981  13.544
66797W        W38468  34.521   7.397   4.812
66798W        W38469  22.603  18.881  12.617
66799W        W38470  25.289  11.335   0.515
66800W        W38471   6.769   0.458  12.826
66801W        W38472  38.922  12.574   0.847
66802W        W38473  21.695  27.598   1.451
66803W        W38474   9.853  28.365  11.357
66804W        W38475  35.047  25.515  14.841
66805W        W38476   2.036  31.872  14.267
66806W        W38477  39.922  18.548  12.207
66807W        W38478  37.148  41.749   1.237
66808W        W38479  40.227   6.351   3.260
66809W        W38480  11.247  40.087  14.676
66810W        W38481  10.806  11.683   0.728
66811W        W38482   9.280  40.711   4.688
66812W        W38483  14.673  34.949   0.908
66813W        W38484  14.661   9.463  11.600
66814W        W38485  13.889  31.023  10.784
66815W        W38486   6.848  28.056  12.028
66816W        W38487  19.983  25.882   2.346
66817W        W38488  35.678   7.993   5.038
66818W        W38489   7.667  23.500   0.413
66819W        W38490   0.291   9.527  12.136
66820W        W38491  40.923   7.152  10.618
66821W        W38492  42.114  23.148   2.651
66822W        W38493  22.144  13.328   4.159
66823W        W38494  23.443  15.641   2.761
66824W        W38495  35.791  34.021  10.709
66825W        W38496   0.408  40.721   4.076
66826W        W38497  16.656  34.560   1.456
66827W        W38498  17.523  44.201   0.308
66828W        W38499   3.045  12.717  10.751
66829W        W38500   0.264   3.780   4.193
66830W        W38501   0.057  10.345  14.884
66831W        W38502  43.032  33.313   3.432
66832W        W38503  19.616   1.604   0.410
66833W        W38504  32.564  10.146  12.958
66834W        W38505  26.048  36.350  10.609
66835W        W38506  18.929   7.362  13.375
66836W        W38507  12.284  37.557   0.621
66837W        W38508  28.050  30.910  14.519
66838W        W38509   0.316  11.548   0.503
66839W        W38510  41.025  42.496  13.901
66840W        W38511   0.017  37.535  10.234
66841W        W38512  40.230  10.905   4.218
66842W        W38513  27.398  35.951  14.045
66843W        W38514  37.782  33.464  12.561
66844W        W38515   5.825  20.597   4.645
66845W        W38516  42.258  31.480   2.269
66846W        W38517  22.193  16.804  13.332
66847W        W38518  14.450  26.752   2.440
66848W        W38519   9.084  17.703   3.593
66849W        W38520  10.210   1.547  11.693
66850W        W38521  12.723   5.882  13.113
66851W        W38522  26.418  31.386  13.437
66852W        W38523   9.113   6.194   2.457
66853W        W38524  10.872  35.834   1.155
66854W        W38525  39.865  12.772   4.039
66855W        W38526  37.157  15.573  11.689
66856W        W38527   5.235  36.532   0.911
66857W        W38528   1.913   4.845   0.136
66858W        W38529  42.412  14.240   1.476
66859W        W38530  21.612  28.502   0.937
66860W        W38531  40.532  42.773   1.244
66861W        W38532  18.038  34.378   4.661
66862W        W38533  30.712  32.092   2.650
66863W        W38534  33.299  27.240  12.938
66864W        W38535  24.676  16.636  14.344
66865W        W38536  41.040   7.750  14.301
66866W        W38537   6.846  25.239   0.653
66867W        W38538  14.849  27.075  12.495
66868W        W38539  20.369  19.415   4.178
66869W        W38540  24.484  44.684  14.000
66870W        W38541  20.790   4.486  12.599
66871W        W38542  44.783   8.671   5.119
66872W        W38543  42.531  20.023  10.892
66873W        W38544   9.824  13.829  10.436
66874W        W38545  37.993  32.001  12.526
66875W        W38546  10.829  35.986   0.377
66876W        W38547   7.350   2.807   2.199
66877W        W38548  29.083  12.859   1.690
66878W        W38549   5.667  21.192  11.426
66879W        W38550  15.220  36.969   3.250
66880W        W38551  21.496  26.966  14.815
66881W        W38552  21.510  35.268  11.040
66882W        W38553  41.337  17.790  14.781
66883W        W38554  35.818  43.896   3.260
66884W        W38555  17.382   5.878  10.786
66885W        W38556  21.875  44.421  13.142
66886W        W38557  15.119  21.126   4.588
66887W        W38558  20.218  35.448   4.286
66888W        W38559  15.683   0.039   4.171
66889W        W38560   9.878  28.642  10.359
66890W        W38561  34.118  13.774  13.888
66891W        W38562  20.459  25.950  11.621
66892W        W38563  17.265  28.263  11.646
66893W        W38564  11.094  36.118   0.788
66894W        W38565   8.842   0.029   0.007
66895W        W38566   1.842  21.606   2.193
66896W        W38567  20.775  32.756  11.072
66897W        W38568  17.637  36.835  14.385
66898W        W38569  30.535  42.398   3.210
66899W        W38570  42.392  44.169  11.527
66900W        W38571  39.279   9.607  12.553
66901W        W38572  44.388  39.997  13.604
66902W        W38573   0.973   1.677   0.309
66903W        W38574  33.517  43.519  14.306
66904W        W38575   3.904  26.971   2.686
66905W        W38576  43.374  31.464  12.430
66906W        W38577  32.408  20.497  13.726
66907W        W38578  10.095  25.215  11.187
66908W        W38579   7.043   4.080  12.567
66909W        W38580   1.142  20.224   5.271
66910W        W38581   2.857  18.540   3.796
66911W        W38582  32.544   7.312   4.182
66912W        W38583  18.551  23.827  14.018
66913W        W38584  34.883  25.151   1.604
66914W        W38585  12.874  42.047   3.305
66915W        W38586  12.665   6.136   1.426
66916W        W38587  38.488   8.855  12.801
66917W        W38588  44.456  39.129   3.074
66918W        W38589  11.637  38.690  10.657
66919W        W38590  11.866  12.099   3.128
66920W        W38591   6.078  22.409  11.950
66921W        W38592   6.598  18.684   2.366
66922W        W38593  40.792  37.073   1.480
66923W        W38594  12.182  34.614   2.327
66924W        W38595  17.967  10.211   4.559
66925W        W38596   4.839  12.380   0.034
66926W        W38597  16.696  24.680   0.217
66927W        W38598  29.183  42.415  13.655
66928W        W38599  41.457  16.558   3.097
66929W        W38600   2.010  12.191   3.110
66930W        W38601   5.225  36.756   2.213
66931W        W38602   3.421  25.553  11.474
66932W        W38603  43.908  39.903  11.533
66933W        W38604  29.865  24.164  11.485
66934W        W38605  12.574   9.436   1.701
66935W        W38606  14.293  12.128  12.971
66936W        W38607   9.375  19.145   4.235
66937W        W38608  28.571  32.095  10.697
66938W        W38609  37.851  10.872   4.176
66939W        W38610  29.122  30.101  13.415
66940W        W38611  44.989   7.788   2.642
66941W        W38612  42.978  30.568   3.806
66942W        W38613   6.451  42.925  10.040
66943W        W38614  21.780   1.043  12.568
66944W        W38615  43.005  42.805   0.423
66945W        W38616  42.074  41.787   3.579
66946W        W38617  28.343  37.673  10.172
66947W        W38618  11.821  28.057  13.413
66948W        W38619  28.622  20.604   3.479
66949W        W38620  35.764   3.193   2.924
66950W        W38621  37.263  44.961   0.008
66951W        W38622  25.223  28.172   3.645
66952W        W38623  32.422  26.757  13.216
66953W        W38624  19.311  22.571   0.305
66954W        W38625  37.498   1.677  14.337
66955W        W38626  27.340  11.567   2.394
66956W        W38627  36.632  25.571   2.948
66957W        W38628  39.129  25.076   4.528
66958W        W38629  32.507  25.532   2.956
66959W        W38630  14.581  28.090   4.105
66960W        W38631  32.544   6.935  11.624
66961W        W38632  17.236  34.973  11.670
66962W        W38633  24.526  15.018   1.306
66963W        W38634  37.351  42.736   4.619
66964W        W38635  14.141   6.182   5.362
66965W        W38636  44.714  23.974  12.503
66966W        W38637  20.438   6.247  11.543
66967W        W38638  15.561  14.550  12.429
66968W        W38639  37.514   3.895  10.832
66969W        W38640   1.701   9.233  14.983
66970W        W38641  36.996  31.563   3.647
66971W        W38642   3.726  43.970  12.494
66972W        W38643   8.798  24.751   4.570
66973W        W38644  19.387  18.264  12.141
66974W        W38645  22.661   6.371   1.802
66975W        W38646  38.724   4.771  12.959
66976W        W38647   7.016  15.672   4.197
66977W        W38648  25.070  39.237  14.301
66978W        W38649  15.917  26.192  14.823
66979W        W38650  15.850  11.782   2.794
66980W        W38651  27.598  37.641   0.944
66981W        W38652   6.193  29.518   0.237
66982W        W38653  29.992  10.187   2.175
66983W        W38654  15.814  36.968   2.388
66984W        W38655  28.938  33.048   3.112
66985W        W38656  42.066  22.753   1.285
66986W        W38657  28.762  30.693  12.486
66987W        W38658  25.255  11.148  12.883
66988W        W38659   7.216  12.106   1.416
66989W        W38660   1.319  16.783  14.913
66990W        W38661   3.683  38.185  10.159
66991W        W38662  17.733   8.646  10.771
66992W        W38663   7.920  33.920   4.662
66993W        W38664   8.319   7.585   3.241
66994W        W38665  44.180  44.274  12.902
66995W        W38666  33.099  11.744   1.082
66996W        W38667  13.601  38.617   4.187
66997W        W38668  12.758  36.098  13.419
66998W        W38669  24.645  19.341  12.856
66999W        W38670   5.087  43.930  13.004
67000W        W38671  12.784   7.586   2.002
67001W        W38672  35.611  28.605  13.608
67002W        W38673   6.654   3.914  10.763
67003W        W38674  25.466  11.290  13.974
67004W        W38675  36.367  39.192  11.995
67005W        W38676   4.876   8.859   0.801
67006W        W38677   8.709   2.732  14.519
67007W        W38678   6.730  28.800  14.125
67008W        W38679  33.519  41.783  13.746
67009W        W38680  34.951   0.176   2.264
67010W        W38681  39.641  42.857  13.982
67011W        W38682  19.636  20.228  13.570
67012W        W38683  37.870  42.243  12.892
67013W        W38684  15.246   7.887   1.757
67014W        W38685  13.192   9.839  12.087
67015W        W38686  42.374  26.883   3.032
67016W        W38687  25.768  26.689  11.234
67017W        W38688   1.923  11.197   1.376
67018W        W38689   5.180  25.226  11.140
67019W        W38690  43.313  44.500   0.420
67020W        W38691  10.883  19.475   2.652
67021W        W38692  14.209  10.424   0.402
67022W        W38693  18.582  24.788   4.283
67023W        W38694  17.017   3.173  10.876
67024W        W38695  31.522  28.442  14.836
67025W        W38696  23.521  30.625   0.860
67026W        W38697  31.374  14.292   2.206
67027W        W38698  25.067  26.777   3.468
67028W        W38699  10.975  43.297   1.417
67029W        W38700  21.031  10.071   4.622
67030W        W38701  42.077  35.901   0.442
67031W        W38702   3.399  30.006  10.711
67032W        W38703  25.087  30.380   2.691
67033W        W38704  19.747  15.205   1.182
67034W        W38705  40.117  37.425   0.959
67035W        W38706  38.455  14.488  12.857
67036W        W38707  44.913  14.176  13.054
67037W        W38708  41.241  29.020  12.118
67038W        W38709  25.061  16.788  14.918
67039W        W38710   4.321  14.593   4.862
67040W        W38711  38.383  14.156  12.411
67041W        W38712  30.502  17.133   2.597
67042W        W38713  21.067  18.326   0.300
67043W        W38714  27.551  11.989   0.333
67044W        W38715   8.737  22.418  12.633
67045W        W38716  40.801  34.339   2.222
67046W        W38717  30.559  13.852   1.804
67047W        W38718   4.242   2.851   4.289
67048W        W38719  31.974  19.572   5.004
67049W        W38720  21.824  23.510  11.116
67050W        W38721  43.711  32.083   4.513
67051W        W38722   5.306  31.897   1.634
67052W        W38723  20.737  13.146  14.588
67053W        W38724  28.471  23.156   1.509
67054W        W38725  22.748  11.895  11.177
67055W        W38726   1.956  18.616   2.850
67056W        W38727  33.552  35.124   3.464
67057W        W38728  17.495  39.927  14.903
67058W        W38729  34.547   9.621   4.199
67059W        W38730  44.848  14.109   1.798
67060W        W38731  25.675  37.493   0.347
67061W        W38732   3.364  17.490   4.534
67062W        W38733  19.067  28.229   0.936
67063W        W38734  10.850  12.732   0.323
67064W        W38735  38.458  16.500   3.553
67065W        W38736   7.378  13.480   2.691
67066W        W38737  28.897  25.223  14.046
67067W        W38738  24.028  18.012   3.644
67068W        W38739  11.730   7.921   1.433
67069W        W38740  41.893  19.550   4.641
67070W        W38741  39.151   1.349  13.286
67071W        W38742  44.451  26.921  12.452
67072W        W38743  28.454  29.618  12.039
67073W        W38744  39.093   1.757  10.449
67074W        W38745  34.483  17.068   4.851
67075W        W38746   7.903   6.553   1.162
67076W        W38747  25.271  38.445  11.720
67077W        W38748   3.661  28.307  12.521
67078W        W38749  26.116  19.858   0.396
67079W        W38750  25.256  23.141  14.328
67080W        W38751  36.103  19.232   2.425
67081W        W38752  23.116  27.944  11.100
67082W        W38753  41.335  43.226   1.166
67083W        W38754  30.957  15.036   5.057
67084W        W38755  25.313   9.542   4.823
67085W        W38756  25.785  33.283  14.723
67086W        W38757  11.369  27.776  10.551
67087W        W38758   7.461  18.526   4.176
67088W        W38759  41.862   6.990   1.919
67089W        W38760  39.008  31.221   1.193
67090W        W38761  15.265  36.742   4.921
67091W        W38762  42.476  26.937   3.522
67092W        W38763   6.518  11.635   3.595
67093W        W38764  22.255  24.846  11.463
67094W        W38765  18.112  27.527   0.312
67095W        W38766  44.345   6.750  13.232
67096W        W38767   1.288  13.888   2.418
67097W        W38768   8.196  10.431  12.924
67098W        W38769  13.237  31.438  12.284
67099W        W38770   2.779  33.203   2.949
67100W        W38771   9.873  30.347   3.855
67101W        W38772  21.230  26.244   0.677
67102W        W38773  25.674  39.540  13.859
67103W        W38774  35.238  31.975   1.140
67104W        W38775  20.277  12.388  14.919
67105W        W38776  27.239  14.656   4.115
67106W        W38777  13.419  36.839  12.890
67107W        W38778   4.722  41.617   3.699
67108W        W38779   8.421  30.125   1.408
67109W        W38780  10.766  22.305  14.852
67110W        W38781  20.637   1.887   4.801
67111W        W38782  10.374  31.367   3.270
67112W        W38783  25.767  21.255  14.849
67113W        W38784  32.638   6.640  14.006
67114W        W38785   4.338  29.878   1.890
67115W        W38786  16.327  38.963  12.445
67116W        W38787  38.421  16.278  11.734
67117W        W38788  16.606  33.119   4.580
67118W        W38789  26.778  39.789   3.995
67119W        W38790  15.702   0.780  13.979
67120W        W38791  11.916  26.622  11.762
67121W        W38792  29.070  10.790   0.421
67122W        W38793  24.943  37.160  14.954
67123W        W38794  27.497  21.459   2.351
67124W        W38795  28.671  35.989   0.030
67125W        W38796  24.989  37.410   4.652
67126W        W38797  33.372  26.493   2.335
67127W        W38798  12.149   0.452  12.953
67128W        W38799  31.500  28.803   4.923
67129W        W38800  28.931  30.235   4.437
67130W        W38801  22.269  14.902   2.193
67131W        W38802  25.660  18.073  12.510
67132W        W38803  28.229  20.041   0.823
67133W        W38804  19.772   1.008  12.928
67134W        W38805  20.499  20.873   2.807
67135W        W38806  13.852  15.596   3.643
67136W        W38807  13.325  38.555  14.111
67137W        W38808   3.169  33.474   4.601
67138W        W38809  38.015  19.535   4.104
67139W        W38810  22.173  24.994   2.753
67140W        W38811  36.984  14.582   1.231
67141W        W38812   4.849  15.308   3.224
67142W        W38813  18.958  24.805   0.082
67143W        W38814  33.290   4.885   1.441
67144W        W38815  19.257  28.614  11.649
67145W        W38816  15.631   9.577  13.241
67146W        W38817  11.014  15.380   2.200
67147W        W38818  34.326  18.170  13.739
67148W        W38819  27.244  44.964  13.423
67149W        W38820  22.982  17.285   9.895
67150W        W38821   1.777  13.137  10.684
67151W        W38822  33.032   0.034  11.138
67152W        W38823  40.511  18.233   4.667
67153W        W38824  34.544  29.475  14.236
67154W        W38825   9.646  36.055  12.569
67155W        W38826  30.633  30.111  11.988
67156W        W38827  37.038  29.689   3.779
67157W        W38828   8.171   8.776  11.584
67158W        W38829  12.372  11.284  12.927
67159W        W38830  27.169  14.242  12.829
67160W        W38831  24.029   9.524  12.154
67161W        W38832  10.122  19.223   4.588
67162W        W38833  21.658  15.169   2.735
67163W        W38834  23.235  28.479  13.431
67164W        W38835   2.437  13.402  13.091
67165W        W38836  30.724  29.939   2.819
67166W        W38837  33.605  13.303  11.822
67167W        W38838  14.313  20.546  14.754
67168W        W38839  13.871  16.470  13.023
67169W        W38840  20.161  15.785  12.012
67170W        W38841  19.050   8.835  13.504
67171W        W38842  36.604  39.039  10.968
67172W        W38843  35.848  12.072  12.962
67173W        W38844  33.657  31.189   1.444
67174W        W38845  42.486   5.699   5.070
67175W        W38846   6.663   6.420  13.942
67176W        W38847   6.537  25.094  10.740
67177W        W38848  42.999  27.979   2.323
67178W        W38849  30.123  13.797   4.727
67179W        W38850  28.474  35.808   4.265
67180W        W38851  30.341  32.831   4.111
67181W        W38852  38.574  31.034  13.727
67182W        W38853  37.930  17.415  14.961
67183W        W38854  32.375  42.097   3.636
67184W        W38855  43.899  24.769   9.772
67185W        W38856   6.284  22.004   2.728
67186W        W38857   6.573  25.390  11.185
67187W        W38858  15.781  36.665   5.015
67188W        W38859   3.202   8.244  11.131
67189W        W38860  21.123  13.207   2.706
67190W        W38861  24.697   1.940   1.300
67191W        W38862  10.118   8.786   0.423
67192W        W38863  34.438  23.718   2.751
67193W        W38864  42.975  26.473   4.634
67194W        W38865   2.329   0.228   0.780
67195W        W38866   7.829   3.439  11.967
67196W        W38867   5.270  30.867  10.958
67197W        W38868  23.187  34.096  13.715
67198W        W38869  23.070  16.696  12.640
67199W        W38870  13.122  44.235  14.833
67200W        W38871   0.208  43.825   0.438
67201W        W38872  35.618   6.578  14.782
67202W        W38873  17.073  25.737   0.454
67203W        W38874  23.516  44.428  11.874
67204W        W38875  42.451  38.472   1.481
67205W        W38876  17.524   2.887   3.675
67206W        W38877   5.219  39.796   1.356
67207W        W38878   2.454  38.059  14.796
67208W        W38879   8.134  15.299   2.279
67209W        W38880   0.968   6.825   4.043
67210W        W38881  13.355  12.824   0.953
67211W        W38882  34.104  29.510  13.064
67212W        W38883  42.310   0.097   2.869
67213W        W38884  23.141  31.873  11.922
67214W        W38885   7.708   9.858   2.148
67215W        W38886  33.931  23.358   4.443
67216W        W38887  38.451  21.071  12.951
67217W        W38888  10.634  20.035  14.278
67218W        W38889  10.926  38.362  14.931
67219W        W38890   1.180  44.914  13.890
67220W        W38891  21.478   6.467  10.688
67221W        W38892  13.221   3.848  12.161
67222W        W38893   7.400   9.084   1.889
67223W        W38894   5.240  26.650  14.925
67224W        W38895  40.792  43.059  11.590
67225W        W38896  28.953  15.721  11.816
67226W        W38897  29.330  21.658  13.798
67227W        W38898   8.662  30.948  12.809
67228W        W38899  23.196   4.592  13.483
67229W        W38900  12.093  25.740  12.568
67230W        W38901  44.531   3.719   2.381
67231W        W38902  30.703  23.250   2.709
67232W        W38903   5.938   0.925   4.226
67233W        W38904   4.767  32.521  11.480
67234W        W38905  24.727   1.350   0.241
67235W        W38906  36.615  20.907   4.739
67236W        W38907  18.209   4.236  10.708
67237W        W38908  22.828  31.381  13.701
67238W        W38909  17.317  30.015  10.747
67239W        W38910   7.472   7.096  14.936
67240W        W38911  19.548   0.753   2.839
67241W        W38912  17.492   6.740  10.216
67242W        W38913  44.857   2.270  11.008
67243W        W38914  39.445   1.282  14.366
67244W        W38915  14.768   6.892  14.665
67245W        W38916  43.459  11.076   4.179
67246W        W38917  22.530  15.722   4.978
67247W        W38918  28.491   7.393   0.848
67248W        W38919  39.034  20.808  13.301
67249W        W38920  26.511   1.526   1.335
67250W        W38921   3.719  26.207  11.865
67251W        W38922  32.418   7.936   3.621
67252W        W38923  25.200  41.040   2.420
67253W        W38924  30.455  31.170   4.249
67254W        W38925  36.952  16.594   1.776
67255W        W38926  33.858  25.580  12.498
67256W        W38927  17.562  38.802  12.378
67257W        W38928  31.100  42.773   3.242
67258W        W38929  26.614  42.750   0.562
67259W        W38930  26.666   9.587  12.550
67260W        W38931   9.354  26.693  11.323
67261W        W38932  40.679   9.962   1.919
67262W        W38933  43.891  33.139   1.690
67263W        W38934   6.658  23.284  14.011
67264W        W38935  21.517   3.340   0.380
67265W        W38936  30.359   0.672   2.864
67266W        W38937  20.356  16.277   4.842
67267W        W38938  32.029  39.450  10.858
67268W        W38939  42.651   3.378   4.525
67269W        W38940  35.502  25.235   2.323
67270W        W38941  26.878  13.659   0.702
67271W        W38942  41.547  23.013   0.332
67272W        W38943   7.123   7.257   2.242
67273W        W38944  26.378  11.815   4.278
67274W        W38945  30.994  43.374  11.618
67275W        W38946   8.673  17.000   4.521
67276W        W38947  33.170   7.111  10.448
67277W        W38948  28.058  35.281  13.572
67278W        W38949  11.294   9.155  12.906
67279W        W38950  12.169  10.170   2.291
67280W        W38951  40.559  14.632  12.543
67281W        W38952  20.133  37.780   2.170
67282W        W38953  43.907  43.822  12.969
67283W        W38954  35.895  11.686  12.050
67284W        W38955  42.913   7.304  12.290
67285W        W38956  11.700  20.244  13.951
67286W        W38957  33.665  36.599  12.127
67287W        W38958  43.975  16.483  12.083
67288W        W38959  29.210  32.434  10.957
67289W        W38960  31.883   3.165  14.012
67290W        W38961  26.974  40.846   0.147
67291W        W38962   8.415  37.480  11.026
67292W        W38963  19.944  24.575   0.237
67293W        W38964  39.510  28.382   1.319
67294W        W38965  16.801  34.854   3.835
67295W        W38966  43.292   2.466  14.479
67296W        W38967  37.901  27.618   0.508
67297W        W38968  12.208  36.477  12.881
67298W        W38969  17.056  17.293  13.926
67299W        W38970  38.038  13.693  11.718
67300W        W38971  17.243  35.593   4.065
67301W        W38972  35.898  11.311   3.927
67302W        W38973  27.434  21.952   2.143
67303W        W38974  14.773  33.555  10.819
67304W        W38975  33.158  27.192  11.562
67305W        W38976  10.997  44.298   0.339
67306W        W38977   4.513  16.900  13.016
67307W        W38978   5.261  30.561  14.055
67308W        W38979   3.329  23.313   3.898
67309W        W38980   7.467  15.286  13.550
67310W        W38981  32.015  30.059  12.498
67311W        W38982  38.586  23.315  14.010
67312W        W38983   9.658  36.432   0.186
67313W        W38984   4.397  43.368  11.998
67314W        W38985  38.597  29.546  13.976
67315W        W38986  24.579  20.450  11.510
67316W        W38987  15.117  22.282   3.142
67317W        W38988  24.551   5.902  12.083
67318W        W38989  23.156  31.328  12.810
67319W        W38990  21.723  11.582  13.717
67320W        W38991  22.557  44.204  12.492
67321W        W38992  12.783   0.796   1.904
67322W        W38993  44.265  34.014   3.185
67323W        W38994  32.066  22.507   1.514
67324W        W38995  26.045  33.638   0.047
67325W        W38996  37.503  42.560  13.026
67326W        W38997  23.013  23.433  14.792
67327W        W38998   5.715  27.682   0.403
67328W        W38999  25.734  10.077   2.242
67329W        W39000   7.800  42.545   3.312
67330W        W39001  44.283   6.256   2.121
67331W        W39002  15.556  17.656  11.701
67332W        W39003  23.944  38.592   5.078
67333W        W39004  22.933  19.683   3.143
67334W        W39005   8.850  44.434   1.667
67335W        W39006  17.026   7.293   0.745
67336W        W39007   6.743  30.635  11.153
67337W        W39008  38.313  17.846   1.921
67338W        W39009  39.012   8.436  10.724
67339W        W39010  21.215  23.646  13.964
67340W        W39011  42.906  23.355  13.525
67341W        W39012  20.393   6.361  13.086
67342W        W39013  24.565  35.081   3.258
67343W        W39014  29.183  24.578   0.315
67344W        W39015  19.572  43.800   4.188
67345W        W39016  13.379  22.008  12.573
67346W        W39017  12.231  32.969  10.535
67347W        W39018   9.906   4.466   2.794
67348W        W39019  21.757   3.927  12.434
67349W        W39020  22.591   6.874   4.142
67350W        W39021  10.594  41.555   4.903
67351W        W39022  28.960  31.943  11.106
67352W        W39023   5.470  20.633   1.172
67353W        W39024   1.404   9.440   0.367
67354W        W39025  30.102  30.512  11.095
67355W        W39026  35.847   0.925   2.361
67356W        W39027  35.484   6.222  14.123
67357W        W39028  32.863   3.678   2.933
67358W        W39029  17.801   5.833  12.935
67359W        W39030   5.678  23.421  13.079
67360W        W39031  22.799   4.448  14.913
67361W        W39032   4.863  28.181  11.032
67362W        W39033  26.066  17.268  13.084
67363W        W39034  25.572  26.039   3.291
67364W        W39035  40.297  42.551   0.847
67365W        W39036  38.528  32.368  10.968
67366W        W39037  44.661  13.838   3.611
67367W        W39038  17.181  10.798  13.435
67368W        W39039   3.455   0.826  11.725
67369W        W39040  19.180  22.676  13.981
67370W        W39041   7.925  39.204   3.689
67371W        W39042  39.751   0.274  13.920
67372W        W39043   7.935  24.447   0.425
67373W        W39044  27.663  20.982  10.336
67374W        W39045  31.432  14.235  11.982
67375W        W39046  43.382  39.485  13.417
67376W        W39047  31.903  19.595   0.009
67377W        W39048  10.403   8.144   1.952
67378W        W39049  38.153   4.003  12.529
67379W        W39050  25.358   7.385   1.960
67380W        W39051  18.326  37.060   0.894
67381W        W39052  43.359  20.529   3.264
67382W        W39053  28.908  10.203   4.590
67383W        W39054  25.445  22.993   2.325
67384W        W39055  11.689  24.968   3.636
67385W        W39056  41.084  35.391  13.851
67386W        W39057  15.379  14.291   1.327
67387W        W39058  18.737  28.272   4.701
67388W        W39059  37.423  22.727   2.352
67389W        W39060   5.623  12.290  13.912
67390W        W39061  20.957  39.464   9.963
67391W        W39062  22.603   7.423  12.521
67392W        W39063  27.161  15.813   0.462
67393W        W39064  21.008   5.224  12.353
67394W        W39065  15.364  40.545  12.446
67395W        W39066  12.367  27.091  12.357
67396W        W39067  16.439   2.009   0.253
67397W        W39068   9.902  30.572   4.918
67398W        W39069  39.050  28.027  11.451
67399W        W39070  25.009  32.109   2.411
67400W        W39071  44.913  28.063   4.022
67401W        W39072   0.281  14.783   2.709
67402W        W39073   9.089  25.076   1.855
67403W        W39074   0.731  13.330   4.691
67404W        W39075  42.620  11.234  11.902
67405W        W39076  31.436  19.135   2.858
67406W        W39077  39.509  26.217  14.253
67407W        W39078  34.610   3.412   2.622
67408W        W39079  30.957   1.627   3.402
67409W        W39080   8.570  40.065   3.659
67410W        W39081   0.323  23.743   1.839
67411W        W39082  32.511  17.560   4.707
67412W        W39083  16.324  25.689  13.315
67413W        W39084  39.405   5.314  11.387
67414W        W39085  17.606  22.490   2.654
67415W        W39086  28.796  29.914  13.833
67416W        W39087  15.191   2.952  10.468
67417W        W39088  20.042  14.649   1.341
67418W        W39089  23.150  33.976   1.392
67419W        W39090  43.225  20.568   2.763
67420W        W39091  42.996  28.470  11.917
67421W        W39092  24.720  16.556   0.232
67422W        W39093  21.186  26.172  12.762
67423W        W39094  22.899   1.893  11.573
67424W        W39095  42.535  28.692   2.713
67425W        W39096  33.612  33.921  14.371
67426W        W39097  44.780  21.285   0.403
67427W        W39098  41.188  41.863   1.293
67428W        W39099  38.448  18.678  14.252
67429W        W39100  13.655  12.176  13.391
67430W        W39101  41.791  41.964   3.147
67431W        W39102   5.216  28.622   2.345
67432W        W39103  19.538  30.756  12.610
67433W        W39104  35.062  26.650   3.595
67434W        W39105  27.578  38.736   0.074
67435W        W39106  34.118  27.455  12.443
67436W        W39107  27.076  37.084   1.889
67437W        W39108  10.010  28.076   2.806
67438W        W39109  21.547  12.379   0.917
67439W        W39110  18.289  29.948   0.488
67440W        W39111  28.183  30.527  10.393
67441W        W39112  24.767  14.355   1.891
67442W        W39113  29.678  27.491   0.782
67443W        W39114  25.002  44.654  13.857
67444W        W39115  28.685  32.964  12.323
67445W        W39116  39.590  22.028  12.609
67446W        W39117  36.292   8.783  14.890
67447W        W39118  17.547  32.846  11.841
67448W        W39119   4.888   0.737   1.773
67449W        W39120  13.595  42.952  10.729
67450W        W39121  43.349  24.812   0.323
67451W        W39122   5.719  11.141   2.717
67452W        W39123  24.057  19.237  14.966
67453W        W39124   7.361  28.051  10.713
67454W        W39125  18.170  44.405  14.765
67455W        W39126   6.955  27.743   3.765
67456W        W39127  23.144   9.669  13.476
67457W        W39128  44.362   2.177   2.303
67458W        W39129  43.588   5.642   3.234
67459W        W39130  40.590  24.770   0.104
67460W        W39131  27.184  15.302   3.940
67461W        W39132  36.498   4.652   0.776
67462W        W39133  31.171  38.498  13.155
67463W        W39134  18.456  20.769  11.655
67464W        W39135  14.783  16.745  13.057
67465W        W39136   2.400  32.521   3.165
67466W        W39137  13.052  28.006   5.067
67467W        W39138   2.260  17.997  11.616
67468W        W39139   7.751  22.524   1.874
67469W        W39140   3.725  25.926  13.084
67470W        W39141  27.142  17.715   3.715
67471W        W39142   7.749  30.873  13.268
67472W        W39143  44.742   6.436   3.573
67473W        W39144   0.297   1.960  11.873
67474W        W39145  15.166   0.204  11.289
67475W        W39146  30.212  15.334   1.083
67476W        W39147  22.994  24.543  13.683
67477W        W39148  18.765  18.453   4.151
67478W        W39149  43.495  21.215  13.521
67479W        W39150  16.752   0.859   0.988
67480W        W39151   9.461  40.375   2.269
67481W        W39152  36.529  33.417   3.811
67482W        W39153  15.578   0.467   2.913
67483W        W39154  18.178  19.053  13.418
67484W        W39155  12.132  29.206  12.956
67485W        W39156  12.840  29.511   1.019
67486W        W39157   7.083  33.066   0.847
67487W        W39158  16.210   4.915   4.317
67488W        W39159  44.455  18.571   1.807
67489W        W39160   4.093  20.820   5.745
67490W        W39161  27.415  24.749  12.472
67491W        W39162  22.149   2.412   3.616
67492W        W39163  13.389   3.207  10.694
67493W        W39164  15.216   3.953  14.968
67494W        W39165  37.437  30.910   1.768
67495W        W39166  27.176  27.745  11.091
67496W        W39167  34.661  29.185   0.421
67497W        W39168  22.503  30.445   4.516
67498W        W39169  41.225  16.150   2.194
67499W        W39170  34.045  20.530  11.514
67500W        W39171  35.354  27.705   3.741
67501W        W39172  16.149   0.283   1.793
67502W        W39173   9.413   2.119  11.203
67503W        W39174  26.409  38.559  14.134
67504W        W39175   9.763  32.163   1.474
67505W        W39176  37.966  14.143   2.058
67506W        W39177  23.161   9.120   1.935
67507W        W39178  40.796  33.900  11.621
67508W        W39179  16.790  42.842  11.114
67509W        W39180  38.315   9.313  11.093
67510W        W39181  24.444  25.535  13.543
67511W        W39182   6.396  12.364   3.099
67512W        W39183   6.106   4.355   2.792
67513W        W39184   2.978   4.356   4.338
67514W        W39185  14.398  16.621   1.827
67515W        W39186  36.460   7.500  12.851
67516W        W39187  12.777  15.806   2.291
67517W        W39188   1.875   0.210   3.772
67518W        W39189  29.593  10.219   0.750
67519W        W39190  16.834  23.005  14.326
67520W        W39191  20.040  16.811   4.098
67521W        W39192  22.948  31.114  14.846
67522W        W39193  44.985  31.068   3.754
67523W        W39194   9.145  44.711  11.925
67524W        W39195  32.261  35.359  13.993
67525W        W39196  16.012  31.358   1.321
67526W        W39197  31.935  32.999   4.168
67527W        W39198  37.581   1.762   4.747
67528W        W39199  28.025  22.944   1.688
67529W        W39200  20.990  26.204  10.998
67530W        W39201   1.348  30.204  11.466
67531W        W39202  30.415  21.623   0.823
67532W        W39203  43.879  21.716   1.857
67533W        W39204   4.731  40.533   3.782
67534W        W39205  37.351  27.609  14.817
67535W        W39206  44.880  10.892  14.006
67536W        W39207  13.239  10.606  14.401
67537W        W39208   3.551  40.665  10.437
67538W        W39209  30.635  12.619  11.806
67539W        W39210  20.983  32.533   2.728
67540W        W39211   8.204   1.405   3.388
67541W        W39212   2.193  20.468  10.503
67542W        W39213  30.587  22.661   0.016
67543W        W39214  35.338   1.537  12.373
67544W        W39215  21.933   6.454   4.849
67545W        W39216  43.422  14.639  10.567
67546W        W39217   0.700   7.427   2.161
67547W        W39218  28.086  36.573  12.021
67548W        W39219  42.887   7.220  12.807
67549W        W39220  20.675  21.288   2.293
67550W        W39221  31.870  22.254  12.901
67551W        W39222  23.776  18.240  13.893
67552W        W39223   8.957  40.082   0.034
67553W        W39224  39.333  40.238  14.380
67554W        W39225  34.910   7.138   3.648
67555W        W39226  29.642   1.821  14.300
67556W        W39227  12.142   4.299  12.447
67557W        W39228   8.374  40.952  14.359
67558W        W39229  12.858   1.793   1.751
67559W        W39230  37.525  43.954   2.262
67560W        W39231  19.442  16.078  13.550
67561W        W39232  20.183   1.531   3.700
67562W        W39233  41.720   6.384   4.146
67563W        W39234  29.208  36.986   2.591
67564W        W39235  36.955   8.001  14.374
67565W        W39236  22.097  21.825   2.008
67566W        W39237  40.775  42.022  13.957
67567W        W39238   3.925  22.688   1.772
67568W        W39239   6.707  31.887   4.663
67569W        W39240  29.193  36.399  13.029
67570W        W39241  17.313  42.952   4.489
67571W        W39242  37.693  38.089   1.815
67572W        W39243  23.762  21.973   1.743
67573W        W39244  35.556   5.017   4.430
67574W        W39245  37.321  13.817   1.908
67575W        W39246  20.095  19.962  13.464
67576W        W39247  12.883  44.311   0.950
67577W        W39248   3.894  37.770  13.479
67578W        W39249   0.924  34.094   4.621
67579W        W39250  44.468  24.462  12.504
67580W        W39251   6.651  43.983  13.835
67581W        W39252  23.066  27.609  14.651
67582W        W39253  33.105  31.679  14.805
67583W        W39254   1.322  30.486   0.893
67584W        W39255  12.296  25.153  13.390
67585W        W39256   3.822   5.392   2.315
67586W        W39257   8.898  36.989  14.551
67587W        W39258  23.721  22.303  10.757
67588W        W39259  29.053  36.343   2.904
67589W        W39260  12.914  36.883  13.009
67590W        W39261  25.551  12.101   1.386
67591W        W39262  18.307  21.965   1.600
67592W        W39263   5.162   6.678   4.540
67593W        W39264   1.824  43.316   2.764
67594W        W39265   0.383  21.089   1.530
67595W        W39266  24.706  18.920  10.382
67596W        W39267  19.666  43.385   3.251
67597W        W39268  21.635  37.049  13.594
67598W        W39269  38.655  35.950   9.793
67599W        W39270  32.171  32.523   4.297
67600W        W39271  13.800  29.637   3.195
67601W        W39272  24.665  10.207  11.623
67602W        W39273  33.083   2.690  10.934
67603W        W39274  20.318   9.651  14.283
67604W        W39275  15.996  20.542  11.192
67605W        W39276   4.328  26.683   2.846
67606W        W39277  20.178  29.999  14.397
67607W        W39278  10.333   4.137   2.695
67608W        W39279  33.969  12.846  12.841
67609W        W39280  37.155  21.689  13.592
67610W        W39281  41.721   3.408   3.578
67611W        W39282  10.833  15.286   4.652
67612W        W39283  31.204  27.541  10.720
67613W        W39284  22.576  14.626  11.729
67614W        W39285  24.945  33.378  14.015
67615W        W39286  43.226   0.015  14.428
67616W        W39287  14.796  11.150   0.876
67617W        W39288   7.408   7.226   1.791
67618W        W39289  21.639  23.135  10.783
67619W        W39290  22.224  36.248   2.259
67620W        W39291  24.112   5.787   3.713
67621W        W39292  35.645  17.809   3.026
67622W        W39293  30.620  39.400  11.716
67623W        W39294  26.036  29.132  10.716
67624W        W39295  22.187  24.936   4.145
67625W        W39296  36.469  27.401   0.463
67626W        W39297  35.966   4.400   4.525
67627W        W39298   2.943  10.170   4.638
67628W        W39299  24.611   3.925  12.151
67629W        W39300  43.816  20.393   5.285
67630W        W39301  40.977  14.660   0.321
67631W        W39302  25.506  33.580  12.120
67632W        W39303  11.261  28.875  11.375
67633W        W39304   9.820   1.942   3.723
67634W        W39305  43.284  20.105  11.502
67635W        W39306  25.277   1.447   2.465
67636W        W39307   4.617  40.851   0.499
67637W        W39308  13.378  36.452   0.760
67638W        W39309  20.727  14.873   4.953
67639W        W39310  34.687   6.741   4.556
67640W        W39311  13.817   5.940   3.607
67641W        W39312  31.625  40.044  12.977
67642W        W39313  24.044  11.735   1.784
67643W        W39314   0.366  21.566   1.196
67644W        W39315  11.700  10.154   2.530
67645W        W39316  37.361  32.945   1.031
67646W        W39317  20.092  31.385  14.454
67647W        W39318  17.150  10.543   3.750
67648W        W39319  44.809   6.230  14.654
67649W        W39320   1.287  36.333   2.326
67650W        W39321  15.122   7.310   0.298
67651W        W39322  19.238   5.003  13.488
67652W        W39323  24.295  36.536   3.223
67653W        W39324  38.019   7.400   1.258
67654W        W39325  24.868  37.542  11.668
67655W        W39326  23.780  21.098  14.480
67656W        W39327  43.578  29.514   2.115
67657W        W39328  37.368   0.839   4.095
67658W        W39329  34.515  37.857  12.831
67659W        W39330  28.153  19.455  10.805
67660W        W39331  15.262  22.802   1.446
67661W        W39332  18.197   6.145  12.290
67662W        W39333  36.988  17.077   2.674
67663W        W39334  11.034   1.808  13.016
67664W        W39335   1.653  28.138   2.062
67665W        W39336  25.117   0.146   4.570
67666W        W39337  35.933  40.403  14.376
67667W        W39338  11.080  17.954  12.550
67668W        W39339   3.112  38.361   4.958
67669W        W39340  18.367  10.120   3.265
67670W        W39341   3.804  23.212  11.964
67671W        W39342  12.074   9.073  13.139
67672W        W39343  44.494  30.988  14.529
67673W        W39344   4.945   3.728   3.836
67674W        W39345  26.608  26.273  12.522
67675W        W39346  39.098  23.881  14.436
67676W        W39347  39.121  20.443   2.091
67677W        W39348  29.107   3.198  12.616
67678W        W39349  21.187  15.127  12.155
67679W        W39350  44.056  28.607  11.462
67680W        W39351  39.289  26.736   4.534
67681W        W39352  14.779  28.438   2.310
67682W        W39353   1.916  37.459  10.714
67683W        W39354  23.098   9.681   1.442
67684W        W39355   2.619  33.478  13.515
67685W        W39356  22.976  24.924   0.799
67686W        W39357   3.721  41.779  10.312
67687W        W39358  13.778  32.533   2.810
67688W        W39359   4.000  25.432  12.584
67689W        W39360  34.071  42.247  11.660
67690W        W39361  23.598   4.467  11.270
67691W        W39362  28.469  21.023  13.085
67692W        W39363  27.717  18.669   3.332
67693W        W39364  20.206  22.387  13.378
67694W        W39365  11.446  42.950   3.346
67695W        W39366  19.008   9.764   2.945
67696W        W39367  13.637  39.527   2.710
67697W        W39368  34.360  30.504   0.560
67698W        W39369  33.188  13.772  11.285
67699W        W39370  26.261  33.393  11.382
67700W        W39371  42.833  20.342  11.153
67701W        W39372  24.081  31.047   2.276
67702W        W39373  36.823  36.035  12.972
67703W        W39374  39.105   9.950   3.724
67704W        W39375  14.659  43.590  13.440
67705W        W39376  39.939  33.131   0.865
67706W        W39377   5.322  38.635  13.496
67707W        W39378  20.017   3.279  11.182
67708W        W39379  31.620  24.315   3.825
67709W        W39380  12.429  43.770  11.713
67710W        W39381   7.336  11.707  14.846
67711W        W39382  21.061   0.321   0.872
67712W        W39383  20.645  44.695   2.200
67713W        W39384  10.769  16.390  14.010
67714W        W39385  25.457  34.831   4.528
67715W        W39386   5.779   4.388   0.342
67716W        W39387  22.817  40.571  14.337
67717W        W39388  32.670  15.005   2.269
67718W        W39389  23.493  40.878   4.117
67719W        W39390  19.809  31.228   1.054
67720W        W39391   2.340  37.985   2.841
67721W        W39392  38.104  27.698  12.753
67722W        W39393  34.020  40.946  13.573
67723W        W39394  18.607   1.248   3.178
67724W        W39395  16.161   4.153   5.055
67725W        W39396  27.476  30.991   1.282
67726W        W39397  18.040  27.707   4.551
67727W        W39398  31.568   3.964   2.234
67728W        W39399   5.256   6.152  14.540
67729W        W39400  20.629  12.173  11.237
67730W        W39401   2.772   8.310  14.949
67731W        W39402  17.333   5.198   4.327
67732W        W39403  17.053   7.646  10.417
67733W        W39404  42.198  38.397  14.597
67734W        W39405  12.775  26.551  14.505
67735W        W39406  13.527  26.233  10.710
67736W        W39407  26.102  39.452  11.295
67737W        W39408  37.303  30.582   3.863
67738W        W39409  23.599  25.310   1.345
67739W        W39410  20.660  22.816   2.792
67740W        W39411  16.781  20.429   4.184
67741W        W39412  21.687   9.677  12.954
67742W        W39413  23.214  16.646   1.049
67743W        W39414   0.487  13.551  11.472
67744W        W39415  32.001  39.506   1.310
67745W        W39416  22.078  28.590   1.651
67746W        W39417  11.627  19.580   9.706
67747W        W39418  30.435  40.904   1.668
67748W        W39419   8.462  38.273  11.250
67749W        W39420  31.284  36.363  14.273
67750W        W39421   0.567   5.985  12.436
67751W        W39422  11.219   5.902   1.652
67752W        W39423  15.764  38.391   1.704
67753W        W39424   5.759  35.066  12.409
67754W        W39425   7.265   5.377   4.857
67755W        W39426  10.604  19.655   2.187
67756W        W39427  38.427  16.589  10.770
67757W        W39428  23.588  23.799  14.515
67758W        W39429  34.973   6.390   0.889
67759W        W39430   0.675  43.458  14.970
67760W        W39431  32.179   3.182  11.599
67761W        W39432  43.453  39.503  12.155
67762W        W39433  14.508  25.078  12.152
67763W        W39434  16.924   7.408   3.784
67764W        W39435   1.654  27.691   3.703
67765W        W39436  13.759  35.347  12.602
67766W        W39437  39.522  29.635  14.988
67767W        W39438  34.058  23.974   0.490
67768W        W39439  30.060  24.678   2.862
67769W        W39440   7.239  38.291   3.702
67770W        W39441  36.995  19.649   3.913
67771W        W39442   9.404  39.445   4.733
67772W        W39443  11.706  36.094   4.567
67773W        W39444   7.591  17.276  13.450
67774W        W39445  20.317   3.964   1.705
67775W        W39446   7.153  27.050   0.334
67776W        W39447   7.391   3.094   2.614
67777W        W39448  25.068  40.273   4.371
67778W        W39449  15.700   8.853   2.961
67779W        W39450  20.781  28.133   3.375
67780W        W39451  42.823   4.214  14.253
67781W        W39452  16.089  20.127  14.856
67782W        W39453   1.471   4.168   2.983
67783W        W39454   4.427  21.028   1.271
67784W        W39455  41.856   5.222  13.371
67785W        W39456  17.814   8.503   0.795
67786W        W39457  29.651  13.701  13.452
67787W        W39458  41.956  10.140  13.275
67788W        W39459  12.298  16.618  14.122
67789W        W39460  16.492  32.416   2.698
67790W        W39461  16.711  14.306  13.979
67791W        W39462  10.640  15.616   2.471
67792W        W39463   5.893  30.803  11.545
67793W        W39464  33.425   4.149  14.655
67794W        W39465  13.661  19.603   1.243
67795W        W39466   1.399  31.074  12.904
67796W        W39467  29.999  27.334   2.104
67797W        W39468   9.850   1.556  13.922
67798W        W39469  16.364  26.898  14.378
67799W        W39470  17.707  14.652  12.165
67800W        W39471  34.845   5.243   3.621
67801W        W39472   6.110  36.335   4.583
67802W        W39473  23.761  41.059   4.524
67803W        W39474  11.836  12.950   5.252
67804W        W39475  28.493  36.074   1.526
67805W        W39476  24.546   1.252   3.733
67806W        W39477  10.612  31.321  13.076
67807W        W39478  11.758  33.616  12.956
67808W        W39479   1.706  27.248   2.372
67809W        W39480  27.681  36.315   3.998
67810W        W39481  27.931  29.451   0.026
67811W        W39482   8.912  13.407  12.718
67812W        W39483  19.662  16.268  12.682
67813W        W39484  42.831  26.117  11.160
67814W        W39485  14.980  38.932   1.325
67815W        W39486  29.531  43.408   2.731
67816W        W39487   2.480   0.238   1.314
67817W        W39488   5.786   7.206   0.756
67818W        W39489  13.907   1.233  11.155
67819W        W39490  18.022  25.523  13.955
67820W        W39491  31.522  38.442  10.697
67821W        W39492  12.418  29.600  13.140
67822W        W39493  12.168  19.223  13.781
67823W        W39494  25.241  41.407  11.181
67824W        W39495  20.296  30.446  14.102
67825W        W39496  29.061  21.777   2.710
67826W        W39497  39.173   6.892   2.612
67827W        W39498   9.060  20.737  11.207
67828W        W39499  34.356  20.246   4.751
67829W        W39500  30.260  21.125   4.645
67830W        W39501  15.317  30.444   0.914
67831W        W39502  41.774  42.966   1.006
67832W        W39503  28.362  23.616   1.336
67833W        W39504  24.650  14.940  14.070
67834W        W39505   0.954   2.009  11.571
67835W        W39506  36.105  16.474  12.705
67836W        W39507  41.836   7.646   0.833
67837W        W39508   2.891  23.136   0.945
67838W        W39509  13.793  28.896   1.862
67839W        W39510  29.502  14.306  11.184
67840W        W39511  39.903  42.488   3.820
67841W        W39512  23.662  32.170  14.991
67842W        W39513  28.977  17.624   0.322
67843W        W39514  30.440  38.975   1.391
67844W        W39515  34.595  38.240  12.116
67845W        W39516  17.776  40.079  12.547
67846W        W39517  22.754  39.719   2.625
67847W        W39518  16.549   0.617   1.861
67848W        W39519  29.591  17.690   4.595
67849W        W39520  43.772  24.865   2.670
67850W        W39521   2.319  12.167  14.852
67851W        W39522  25.218   9.824  14.709
67852W        W39523  39.533  33.600  13.871
67853W        W39524   7.398  14.576   3.791
67854W        W39525  34.143  42.499   2.669
67855W        W39526  13.539  36.763   2.606
67856W        W39527   5.400  28.280   9.902
67857W        W39528   8.721   8.190  13.926
67858W        W39529  19.518   0.970   1.844
67859W        W39530  31.333  17.977  14.596
67860W        W39531  11.787  40.715  12.007
67861W        W39532  26.169   9.369  14.454
67862W        W39533  13.348  44.961   3.100
67863W        W39534  38.402   0.198   0.892
67864W        W39535  19.754  43.016  14.390
67865W        W39536  10.296  14.995   1.290
67866W        W39537  40.318  42.314  13.972
67867W        W39538  40.889   3.909  12.666
67868W        W39539  37.572   5.168  13.567
67869W        W39540   4.167  39.459  14.758
67870W        W39541  34.456   6.396   1.036
67871W        W39542  16.337   1.260  13.058
67872W        W39543   1.917  38.622  12.603
67873W        W39544  19.117  40.348  11.895
67874W        W39545  30.648  31.392   0.775
67875W        W39546  34.875  25.084   0.193
67876W        W39547  34.593  44.792  10.925
67877W        W39548  44.398  40.840  10.879
67878W        W39549  37.931  33.747  11.986
67879W        W39550  15.323  35.550   0.686
67880W        W39551   0.279  30.434  14.478
67881W        W39552  31.279  27.379  13.867
67882W        W39553  25.103  20.114  13.076
67883W        W39554   2.458  34.694  10.755
67884W        W39555   3.358  17.742  11.037
67885W        W39556  33.382   3.097   4.929
67886W        W39557  34.144  13.260   0.103
67887W        W39558  13.197  43.479  12.403
67888W        W39559   3.916   6.771  13.016
67889W        W39560   7.183  23.099   1.801
67890W        W39561  31.345  33.858   0.766
67891W        W39562  41.759  20.322  10.710
67892W        W39563  11.717  38.046  14.278
67893W        W39564  11.529  43.749   1.914
67894W        W39565  19.685  16.329   3.338
67895W        W39566  14.825   1.998  13.306
67896W        W39567  13.736  10.713  12.111
67897W        W39568  30.191   8.466   5.119
67898W        W39569   8.809  34.569   2.886
67899W        W39570  31.963   9.918  13.918
67900W        W39571  39.424   6.344  11.711
67901W        W39572  23.165   7.985  11.972
67902W        W39573  19.217  35.590  13.366
67903W        W39574  11.578  41.421  14.052
67904W        W39575  38.506   2.775  11.160
67905W        W39576  40.622  33.455   3.226
67906W        W39577   1.802  42.155   4.846
67907W        W39578  23.501  10.135   2.477
67908W        W39579  38.516   6.130  13.687
67909W        W39580   2.453   8.732  12.897
67910W        W39581  16.923  10.779  12.966
67911W        W39582  42.047   1.774  11.101
67912W        W39583  18.170  27.105  12.442
67913W        W39584  39.901  33.072   3.337
67914W        W39585   8.412   0.237   1.796
67915W        W39586  22.021  20.964  12.042
67916W        W39587  39.363  27.442  10.666
67917W        W39588  28.856  11.876   2.618
67918W        W39589   3.006  34.980   2.421
67919W        W39590  25.942   1.903  13.526
67920W        W39591  36.603  19.537   4.727
67921W        W39592   9.246   2.156   3.808
67922W        W39593  43.231  18.138  12.531
67923W        W39594  41.427  36.605  13.367
67924W        W39595   0.654  10.469   4.028
67925W        W39596  34.609  35.874  12.386
67926W        W39597  19.145   8.455   4.854
67927W        W39598  35.893  33.347  11.722
67928W        W39599   9.904  23.519   0.683
67929W        W39600  13.488  34.578   1.287
67930W        W39601  16.346  19.421   2.223
67931W        W39602  32.300  26.228  11.218
67932W        W39603  30.008  17.029   2.841
67933W        W39604  23.191  28.521  14.496
67934W        W39605  43.789   4.901   2.888
67935W        W39606  10.470  31.930  11.034
67936W        W39607  20.356  16.563   2.788
67937W        W39608  28.278  26.622   0.899
67938W        W39609   7.423  38.010  14.471
67939W        W39610  10.355   9.838  14.773
67940W        W39611  44.620  28.425   2.809
67941W        W39612  32.075  17.223  12.208
67942W        W39613  25.942   6.806  14.288
67943W        W39614   2.745  34.917   4.311
67944W        W39615  22.138   1.351   3.734
67945W        W39616  39.532  38.940  11.191
67946W        W39617  15.707  34.415  14.544
67947W        W39618  42.416  19.215  13.604
67948W        W39619  22.557  40.532  14.819
67949W        W39620  24.112   4.459   2.638
67950W        W39621  15.662  31.701   3.226
67951W        W39622   0.809   1.795   1.781
67952W        W39623   8.416  24.534   0.299
67953W        W39624  20.766   1.350  13.869
67954W        W39625  20.267   1.197  13.854
67955W        W39626  35.162  26.972  14.474
67956W        W39627   8.120   6.878   4.258
67957W        W39628  19.012   5.045  12.571
67958W        W39629  34.800  26.032  13.365
67959W        W39630  10.610  28.934   2.737
67960W        W39631  33.453   4.771  10.620
67961W        W39632  36.391  24.198   2.151
67962W        W39633   4.477   9.663  11.169
67963W        W39634  37.150  13.887  11.121
67964W        W39635  25.461  11.010   2.215
67965W        W39636  27.538  23.063   3.363
67966W        W39637  26.220   2.095  13.962
67967W        W39638  33.438  35.574  13.009
67968W        W39639  17.822   2.657  11.236
67969W        W39640  18.716  35.938   2.744
67970W        W39641  15.545   3.391  12.275
67971W        W39642  14.783  35.199  12.492
67972W        W39643   9.240  19.565   4.913
67973W        W39644   5.659  15.807   1.582
67974W        W39645  20.532   7.716   0.016
67975W        W39646  20.996  41.486  11.132
67976W        W39647   8.750  22.103   2.807
67977W        W39648  43.307  16.010  11.478
67978W        W39649  34.706  21.211  14.341
67979W        W39650  40.513  43.542   1.726
67980W        W39651   3.218   8.827   2.147
67981W        W39652  29.559  26.163   3.412
67982W        W39653  33.897  23.158  11.513
67983W        W39654   3.176  31.628   1.731
67984W        W39655  32.704  18.557  11.146
67985W        W39656  29.136  22.069  12.179
67986W        W39657  25.955  12.263  10.613
67987W        W39658   1.539  30.611  11.719
67988W        W39659  18.751  12.800   1.465
67989W        W39660  15.513  16.868   4.912
67990W        W39661   7.724  32.858   3.272
67991W        W39662  44.519  30.352  12.859
67992W        W39663  13.512  16.152  13.460
67993W        W39664  40.559  15.397   2.122
67994W        W39665  23.701  29.100  12.118
67995W        W39666  42.024   5.342   3.890
67996W        W39667   3.121   8.675   1.665
67997W        W39668  44.936  37.569   4.825
67998W        W39669  17.976  24.987   1.849
67999W        W39670   1.845  37.452   3.911
68000W        W39671   1.271  31.603   0.054
68001W        W39672  11.759   1.029   2.708
68002W        W39673  31.521  32.116  11.912
68003W        W39674  39.857   5.267   0.803
68004W        W39675  13.187  24.707  13.825
68005W        W39676  27.043  43.228  12.004
68006W        W39677   2.254   8.726   1.731
68007W        W39678  31.617  20.788  14.111
68008W        W39679   8.273   9.393  13.436
68009W        W39680  38.280  20.307  10.691
68010W        W39681  17.768  18.401  14.418
68011W        W39682  25.594  24.058   1.197
68012W        W39683  22.211  11.107   2.809
68013W        W39684  30.598  20.678  13.365
68014W        W39685  34.943  30.550  11.931
68015W        W39686  43.973  31.559  10.729
68016W        W39687  42.257  32.899   2.821
68017W        W39688  22.703  28.648  14.498
68018W        W39689  44.426  13.801   2.179
68019W        W39690  24.147  36.564  11.156
68020W        W39691   5.668  31.886  13.798
68021W        W39692  12.570  33.082  12.170
68022W        W39693  11.238  10.876   2.362
68023W        W39694   4.210  44.524  11.853
68024W        W39695  18.801  22.996   2.424
68025W        W39696  31.528   1.606   4.885
68026W        W39697  19.504   3.453   4.275
68027W        W39698   0.735  23.557  11.429
68028W        W39699  30.494  43.649   1.817
68029W        W39700  21.181  12.191   3.756
68030W        W39701  43.532   0.239  13.312
68031W        W39702  12.006  30.990   3.102
68032W        W39703  40.940  23.244   4.107
68033W        W39704  34.326  30.873   0.919
68034W        W39705  18.745  26.102   1.564
68035W        W39706  28.410  13.982  14.450
68036W        W39707  25.010  12.656  14.881
68037W        W39708   1.244  26.992  14.784
68038W        W39709  34.168  22.347   1.692
68039W        W39710   8.866  44.738   0.421
68040W        W39711  33.350  12.318   4.734
68041W        W39712  32.349  33.505  12.170
68042W        W39713  25.507   0.920   4.495
68043W        W39714  30.590  40.436  11.519
68044W        W39715  25.141  18.868   3.209
68045W        W39716   7.709  29.587  14.924
68046W        W39717  13.318   9.183  14.623
68047W        W39718  23.611  35.293  13.133
68048W        W39719  43.305   8.778   2.779
68049W        W39720  37.429  13.049  11.053
68050W        W39721  16.533  28.908   3.300
68051W        W39722   5.748  35.117  13.395
68052W        W39723  19.748  33.164  12.347
68053W        W39724  35.308   0.740   3.186
68054W        W39725  31.948  10.269  14.329
68055W        W39726  32.595  35.469   0.041
68056W        W39727  26.456  16.817   2.747
68057W        W39728  12.701   4.518  12.950
68058W        W39729  24.573  43.407   0.184
68059W        W39730  20.345  41.988   2.774
68060W        W39731  35.366  34.028   2.225
68061W        W39732  20.191  29.664   1.769
68062W        W39733  41.340  11.628  13.916
68063W        W39734   2.658   9.319  12.489
68064W        W39735   4.450  34.727  14.467
68065W        W39736  42.677  21.776   5.401
68066W        W39737   6.295  31.110  11.628
68067W        W39738   6.765  18.187  14.446
68068W        W39739  40.149  13.927  14.480
68069W        W39740  28.089   7.984   3.123
68070W        W39741  36.853  40.298  12.859
68071W        W39742  12.913   4.279  10.843
68072W        W39743   0.416   1.393   1.156
68073W        W39744   2.271  27.583   0.220
68074W        W39745  42.534   0.897  13.806
68075W        W39746  38.422  28.102  13.371
68076W        W39747  17.167   3.465   1.975
68077W        W39748   6.565  20.793   0.756
68078W        W39749  25.179  12.689  12.118
68079W        W39750  23.752  43.792  13.008
68080W        W39751  12.528  39.646  14.995
68081W        W39752  14.821  43.515   3.129
68082W        W39753  23.544   1.807   0.059
68083W        W39754  38.694   6.911  14.473
68084W        W39755  33.035  22.626   3.204
68085W        W39756  30.505  12.853   4.202
68086W        W39757  35.502  42.937  10.554
68087W        W39758  37.708  13.849  12.603
68088W        W39759  23.499  23.617   4.143
68089W        W39760  39.411  21.250   0.471
68090W        W39761   7.404  40.546   2.166
68091W        W39762  30.163  10.666   2.332
68092W        W39763   2.466   5.216   3.748
68093W        W39764  19.582  29.397  12.653
68094W        W39765   5.835   7.703   1.936
68095W        W39766  37.902   6.235  13.066
68096W        W39767  12.624  29.618   1.924
68097W        W39768  23.225  10.919   2.768
68098W        W39769  44.321  30.242  11.851
68099W        W39770   7.307  24.534   1.159
68100W        W39771   0.850  30.110  11.411
68101W        W39772  20.317  26.138   3.774
68102W        W39773  18.975  22.529   1.782
68103W        W39774  17.976  37.227  14.658
68104W        W39775  17.299  13.197  10.821
68105W        W39776  10.934  16.139  12.896
68106W        W39777  37.610  21.586   3.710
68107W        W39778  14.928  38.968  12.291
68108W        W39779   8.152  44.750   1.178
68109W        W39780  26.617  44.029   3.815
68110W        W39781  18.981   6.439   1.746
68111W        W39782  22.180  22.567  12.523
68112W        W39783  21.085  11.926  11.139
68113W        W39784  28.737   3.393  14.485
68114W        W39785  43.299  29.932  14.509
68115W        W39786  44.795  22.659  11.089
68116W        W39787  38.588  33.958  12.667
68117W        W39788  35.488  39.712  12.017
68118W        W39789  39.490  16.960  12.446
68119W        W39790  29.142  18.799  13.256
68120W        W39791   2.527  31.703   2.768
68121W        W39792  41.053  26.172  12.636
68122W        W39793  43.595  15.876  10.169
68123W        W39794   5.892  40.322   2.304
68124W        W39795  10.044  17.308  11.401
68125W        W39796  39.537  37.042  14.024
68126W        W39797  33.166   2.244  11.211
68127W        W39798  44.902  32.855   1.427
68128W        W39799  40.142   4.144  13.450
68129W        W39800  18.618  26.638  11.433
68130W        W39801  40.948  17.254   0.011
68131W        W39802   0.391   7.603   4.648
68132W        W39803   2.336  30.161   1.164
68133W        W39804   5.606   0.976   2.769
68134W        W39805  25.740  31.363  11.684
68135W        W39806  28.995  25.637   4.734
68136W        W39807  17.411  35.065  14.496
68137W        W39808  23.156  22.546   1.768
68138W        W39809  19.639  20.790   2.904
68139W        W39810  13.297  43.369   1.831
68140W        W39811  39.930  17.648   4.153
68141W        W39812  42.750  14.183   2.445
68142W        W39813  24.615   1.940  10.053
68143W        W39814  26.529  33.379   4.145
68144W        W39815  28.734  39.278   3.366
68145W        W39816   4.860  36.442  14.493
68146W        W39817  32.341   8.754  14.095
68147W        W39818  12.499  42.269   0.259
68148W        W39819  21.316  22.894   1.801
68149W        W39820  18.422  11.374  10.601
68150W        W39821  22.241   9.094  11.025
68151W        W39822  14.060  20.526  10.547
68152W        W39823  38.963   6.772   3.557
68153W        W39824   1.505  37.394  12.893
68154W        W39825  14.645  41.086  11.144
68155W        W39826  15.964  16.668  12.096
68156W        W39827  18.892  39.919  13.222
68157W        W39828  31.626   4.212  14.610
68158W        W39829   8.709  26.931  13.539
68159W        W39830  36.393  30.910   0.958
68160W        W39831  14.114   2.220   2.738
68161W        W39832  32.555   0.245   0.454
68162W        W39833   2.495  25.568  11.986
68163W        W39834  19.571   3.469   4.838
68164W        W39835   2.386  35.360  13.555
68165W        W39836  11.186  14.438   0.702
68166W        W39837   0.703  14.669  12.608
68167W        W39838  24.775  26.110   2.322
68168W        W39839  13.875  34.146  11.105
68169W        W39840  43.692  15.760  12.571
68170W        W39841  18.215  42.051  12.548
68171W        W39842  14.929  40.561   2.579
68172W        W39843  30.680  15.286  12.954
68173W        W39844  11.797  44.852  13.553
68174W        W39845  22.442  28.048   0.986
68175W        W39846   3.241  11.517   0.454
68176W        W39847   3.458  21.704  10.638
68177W        W39848   3.934  41.366  13.408
68178W        W39849  15.666  27.234   4.309
68179W        W39850  21.056   9.324   4.201
68180W        W39851   3.811  41.353   2.603
68181W        W39852  25.012  15.713  13.356
68182W        W39853  33.109  19.729   1.689
68183W        W39854  41.068  36.295   3.181
68184W        W39855  11.724   7.725  13.493
68185W        W39856  43.885   9.822  12.278
68186W        W39857  23.248  40.184  10.346
68187W        W39858  38.076  28.490   3.674
68188W        W39859  39.910  44.973  14.945
68189W        W39860   3.911  20.283   1.419
68190W        W39861  18.168  43.074  14.496
68191W        W39862  29.609   9.081  10.981
68192W        W39863  37.846  40.448  10.867
68193W        W39864  36.608  39.332   0.064
68194W        W39865   0.964   7.207   3.662
68195W        W39866  35.074  36.000   0.928
68196W        W39867  28.380  17.042  11.506
68197W        W39868  37.540  34.141   3.689
68198W        W39869  19.138  21.800  14.992
68199W        W39870  34.692  38.799  12.833
68200W        W39871  22.520  31.906   3.780
68201W        W39872  27.877  30.923  11.118
68202W        W39873   8.380   5.837  12.275
68203W        W39874  25.506  29.694  14.006
68204W        W39875   8.187  26.003   3.152
68205W        W39876  25.524  12.233   3.349
68206W        W39877  27.976  31.524  13.342
68207W        W39878  17.340  37.106   3.459
68208W        W39879  15.910  19.727   3.612
68209W        W39880  42.539  25.736   4.334
68210W        W39881  22.097  39.051   0.839
68211W        W39882  40.505  27.556   0.928
68212W        W39883   7.296  11.118  13.966
68213W        W39884  26.541  33.402   1.806
68214W        W39885   8.968  16.235   1.814
68215W        W39886   8.271  40.103   3.227
68216W        W39887  22.122   0.816  13.349
68217W        W39888  36.500  16.496  13.371
68218W        W39889  44.728  22.041  11.678
68219W        W39890   7.826   4.002  11.994
68220W        W39891  22.174   6.739  11.142
68221W        W39892  39.364   3.526   3.315
68222W        W39893  40.023   5.229  13.571
68223W        W39894  33.238  22.032  11.706
68224W        W39895   5.976  19.772  13.853
68225W        W39896  26.685  28.234  12.332
68226W        W39897  29.877  19.886  13.936
68227W        W39898  39.705  14.747   1.968
68228W        W39899   3.690  22.621   1.264
68229W        W39900  34.054  38.544   0.489
68230W        W39901  31.667  40.585  12.964
68231W        W39902  34.146  22.754  13.390
68232W        W39903  24.719  22.006  14.083
68233W        W39904  25.937   0.961  12.866
68234W        W39905  13.545  20.970  11.125
68235W        W39906  14.240  10.427  10.247
68236W        W39907  32.969   5.981   3.962
68237W        W39908   3.166  38.128  12.001
68238W        W39909  33.918  43.270   3.897
68239W        W39910  22.690   4.669   3.776
68240W        W39911   1.408  43.608   2.866
68241W        W39912   8.920  36.136  11.217
68242W        W39913   0.508  26.620  10.616
68243W        W39914   6.850  40.441   1.993
68244W        W39915  39.168  32.448  12.992
68245W        W39916  32.758  24.925  13.426
68246W        W39917  19.344  33.881  12.064
68247W        W39918  20.595   6.967   0.652
68248W        W39919  36.323  34.622  12.287
68249W        W39920  41.371   4.252   3.153
68250W        W39921   5.418  27.429  13.037
68251W        W39922  42.856  17.815   3.086
68252W        W39923  18.148  25.010   4.092
68253W        W39924  14.621  29.458   1.208
68254W        W39925  29.115   0.807   2.247
68255W        W39926  38.367  13.007   3.703
68256W        W39927   9.830  44.286  12.777
68257W        W39928  13.176  33.829  11.547
68258W        W39929  33.937  33.968  13.558
68259W        W39930  28.203  17.336   2.775
68260W        W39931  30.222  41.971  13.556
68261W        W39932  16.276   5.242  11.108
68262W        W39933  39.358  33.318   0.886
68263W        W39934  33.137  28.135   1.368
68264W        W39935   1.811   0.710   3.643
68265W        W39936  22.743   1.328  13.513
68266W        W39937  22.091   1.808  10.630
68267W        W39938  28.146  39.834   0.394
68268W        W39939  22.014  11.427  13.263
68269W        W39940   1.453   7.895  14.817
68270W        W39941  34.687  12.844  10.110
68271W        W39942  24.782  33.082   3.632
68272W        W39943  23.070  11.680  14.029
68273W        W39944  11.713  22.954   3.417
68274W        W39945  30.145  26.772   4.345
68275W        W39946  44.797  26.034  10.691
68276W        W39947  16.103  14.768   1.944
68277W        W39948  33.479  25.127   2.731
68278W        W39949  26.947  37.043   4.042
68279W        W39950  39.818  14.704  11.945
68280W        W39951   9.420  14.133  14.902
68281W        W39952   8.378  15.322  12.703
68282W        W39953  42.495   1.968  12.405
68283W        W39954  19.299   6.153   4.535
68284W        W39955  42.408   7.917   3.183
68285W        W39956  22.938   6.496   5.054
68286W        W39957   6.452   7.898   2.699
68287W        W39958  44.774   5.193  10.681
68288W        W39959  10.741  20.522  13.350
68289W        W39960   1.470  33.356   2.416
68290W        W39961   8.845  41.945   1.713
68291W        W39962  41.582   8.810   0.246
68292W        W39963   8.936  22.663  14.404
68293W        W39964  29.727  38.318   3.771
68294W        W39965  19.277   1.465   4.673
68295W        W39966   6.551  39.961   1.914
68296W        W39967  31.490  16.216   1.430
68297W        W39968  28.235  39.947   3.535
68298W        W39969  27.116  41.908  14.304
68299W        W39970  18.828  29.228   3.691
68300W        W39971   3.556  22.976  13.543
68301W        W39972  30.471  34.858  13.791
68302W        W39973  31.518  36.461  13.749
68303W        W39974  12.954   8.298  10.561
68304W        W39975  36.616  36.770  11.507
68305W        W39976   5.214  10.632   3.602
68306W        W39977  15.607  26.490  14.542
68307W        W39978  30.090  19.352  11.433
68308W        W39979   6.740  27.503  11.324
68309W        W39980  32.424   1.376   3.263
68310W        W39981   0.330  38.877   3.904
68311W        W39982  12.203  38.052   4.090
68312W        W39983  33.007  44.870   0.240
68313W        W39984  27.479  32.573  11.646
68314W        W39985  24.646  44.907   4.619
68315W        W39986  40.967  14.562  10.747
68316W        W39987  42.559  31.090  10.445
68317W        W39988  27.023  38.800   1.224
68318W        W39989  31.533  19.234   0.146
68319W        W39990  34.900  20.497   2.691
68320W        W39991   0.443  13.601   2.242
68321W        W39992   9.790  33.451   3.721
68322W        W39993  14.189  20.278   1.160
68323W        W39994  43.336   8.909  14.828
68324W        W39995   6.643  30.254   1.672
68325W        W39996  14.622  33.112   1.572
68326W        W39997  24.106  13.842  11.882
68327W        W39998  32.455  24.989  14.960
68328W        W39999  25.235  30.979   1.700
68329W        W40000  35.340  12.786   3.214
68330W        W40001  16.902  41.955  12.900
68331W        W40002   9.855   7.090   1.835
68332W        W40003  43.159  11.127   0.731
68333W        W40004  12.240  17.181  11.595
68334W        W40005  16.537  24.868  14.736
68335W        W40006  24.596  43.865   1.139
68336W        W40007  23.090  22.301  13.335
68337W        W40008  28.118   1.462   0.677
68338W        W40009  38.644  22.431   2.119
68339W        W40010  12.246  13.593  14.410
68340W        W40011  12.554   1.903   1.213
68341W        W40012  30.593   7.180  10.953
68342W        W40013  10.646  39.611   2.809
68343W        W40014  29.092  36.858  14.737
68344W        W40015  33.483  42.808  11.871
68345W        W40016  26.999  34.268   2.175
68346W        W40017  11.691  20.048   2.097
68347W        W40018  32.635  27.815  11.980
68348W        W40019  41.372  41.101   0.856
68349W        W40020   6.374  26.110   0.882
68350W        W40021  17.509   0.328   4.179
68351W        W40022  44.069  18.794  11.095
68352W        W40023  41.015  41.005  10.421
68353W        W40024  26.751   6.414   0.426
68354W        W40025  10.767  23.212   1.167
68355W        W40026  23.433  38.013  13.748
68356W        W40027  16.586  35.607  12.411
68357W        W40028   7.377  21.044   2.685
68358W        W40029  41.286   0.592   2.565
68359W        W40030   0.988   2.263  12.456
68360W        W40031  44.534   5.381   2.880
68361W        W40032  38.883  19.012  12.984
68362W        W40033  11.871   4.703   9.886
68363W        W40034  10.709  20.705  10.642
68364W        W40035  29.990  21.100   3.704
68365W        W40036  39.810  44.055   3.805
68366W        W40037  11.960  43.849   3.356
68367W        W40038  16.617  33.853  11.103
68368W        W40039   6.856  24.468  13.420
68369W        W40040  12.091   9.220  11.605
68370W        W40041  40.859  41.975  11.642
68371W        W40042  28.577   9.887  10.724
68372W        W40043  23.495  35.037   4.290
68373W        W40044  26.485   2.983  14.976
68374W        W40045   8.592  29.320   3.721
68375W        W40046   5.286  15.749   1.926
68376W        W40047   1.772   4.940   1.352
68377W        W40048  35.565   5.209  10.722
68378W        W40049  22.221  40.292  11.499
68379W        W40050  15.087  24.530  13.916
68380W        W40051  11.234  14.291   2.587
68381W        W40052  20.349  26.594  13.545
68382W        W40053  35.666   7.158  10.723
68383W        W40054  38.512   6.606  12.402
68384W        W40055   9.136  32.937  11.668
68385W        W40056  10.739   3.171   1.789
68386W        W40057  34.848   8.279  12.121
68387W        W40058  38.355  35.850  12.013
68388W        W40059  20.503  32.523  12.708
68389W        W40060   2.731  18.830  12.525
68390W        W40061  38.147   4.701   4.870
68391W        W40062  36.334  28.471   4.616
68392W        W40063  34.499  26.788  10.039
68393W        W40064  14.716  19.786  11.691
68394W        W40065  41.850   3.083  11.888
68395W        W40066  34.379  38.009  14.349
68396W        W40067  10.135  28.894   2.519
68397W        W40068  28.910  40.430   2.824
68398W        W40069  37.067  16.061  12.768
68399W        W40070   1.084  27.422   3.506
68400W        W40071  26.510  39.507   3.217
68401W        W40072  28.694   0.198   1.796
68402W        W40073  35.070  21.007   1.475
68403W        W40074   9.461  38.816   2.334
68404W        W40075  43.114  31.696   0.844
68405W        W40076  39.198  26.125  13.435
68406W        W40077  19.284  14.562   2.319
68407W        W40078  32.318   7.654   1.705
68408W        W40079  23.562  19.286   1.826
68409W        W40080  18.675  16.454   4.173
68410W        W40081  14.696  39.857   3.820
68411W        W40082   7.930  32.052   0.032
68412W        W40083  16.765  43.255   2.257
68413W        W40084   5.719  32.355   1.524
68414W        W40085  42.797  29.606   1.119
68415W        W40086   6.137  18.028   4.107
68416W        W40087  18.785  11.028  11.187
68417W        W40088  28.625   8.298   3.790
68418W        W40089  14.248  11.343  12.473
68419W        W40090  42.082   2.689  11.587
68420W        W40091   3.807  21.528   5.141
68421W        W40092  13.766  19.354  11.598
68422W        W40093  30.031  33.934  14.019
68423W        W40094  37.806   4.310   1.311
68424W        W40095   5.245  31.967   0.249
68425W        W40096  30.161   6.197   4.372
68426W        W40097   4.238  30.526  12.974
68427W        W40098   1.544  16.552  12.625
68428W        W40099  16.812   0.301   2.699
68429W        W40100  11.731   7.698  12.114
68430W        W40101  15.645   3.329   0.450
68431W        W40102   1.467  30.012  14.984
68432W        W40103  32.979  35.884  14.126
68433W        W40104  16.268   0.836   3.256
68434W        W40105   3.800   3.379  12.526
68435W        W40106  27.154  24.028   3.610
68436W        W40107  11.760   8.895   4.918
68437W        W40108  16.528  28.675  14.032
68438W        W40109  10.348  27.599   3.330
68439W        W40110  23.609  33.415  13.588
68440W        W40111  34.892  33.373  13.790
68441W        W40112  19.261  20.464  13.262
68442W        W40113   2.187  15.693  13.858
68443W        W40114  40.479  23.227   0.327
68444W        W40115  15.658  36.626   4.519
68445W        W40116   8.310  34.660   4.598
68446W        W40117  29.151   3.739   2.916
68447W        W40118  41.428   3.393  10.649
68448W        W40119   1.599  28.506   0.871
68449W        W40120  29.636  36.736   3.281
68450W        W40121  19.818  34.347  12.902
68451W        W40122  11.049  24.956  11.058
68452W        W40123  35.026  18.030  13.939
68453W        W40124   5.929   9.283   0.856
68454W        W40125   3.965  10.416  12.873
68455W        W40126  27.229  13.460  11.133
68456W        W40127  19.265   6.987  13.489
68457W        W40128  35.085  10.387   0.454
68458W        W40129  24.978  33.385   1.824
68459W        W40130  38.962  42.288   0.612
68460W        W40131  30.308  26.532   3.472
68461W        W40132  13.295  42.699   2.490
68462W        W40133  37.324  37.101   5.465
68463W        W40134  12.251  25.184   0.463
68464W        W40135  37.981   3.247   1.999
68465W        W40136  36.091  22.144  14.996
68466W        W40137  38.318   2.850   2.921
68467W        W40138   8.851  36.588   2.705
68468W        W40139  30.950  41.466   4.022
68469W        W40140   0.899  34.034  13.888
68470W        W40141  18.106  17.097  14.292
68471W        W40142  44.846  25.446  12.525
68472W        W40143  22.530  26.990  12.920
68473W        W40144  41.341  12.396  13.397
68474W        W40145  33.059   3.509  14.354
68475W        W40146  42.571  37.770  13.944
68476W        W40147  33.616   4.893   1.887
68477W        W40148  31.395  39.067  12.800
68478W        W40149   5.297  41.012   1.121
68479W        W40150  38.486  32.702  14.760
68480W        W40151  13.365  19.227   3.368
68481W        W40152  44.624  13.743  12.997
68482W        W40153  11.906  22.633  13.922
68483W        W40154  19.633   6.582  14.484
68484W        W40155  36.644  25.515  14.792
68485W        W40156  42.534  39.849   3.660
68486W        W40157  16.185   2.940   1.314
68487W        W40158  42.485  38.366   3.269
68488W        W40159  32.831  13.578   3.771
68489W        W40160  38.855   0.945   1.779
68490W        W40161   2.018  44.477   2.913
68491W        W40162  26.603  39.316  14.828
68492W        W40163  10.916  36.046  12.841
68493W        W40164  12.639  16.972  11.040
68494W        W40165  13.211   1.350   0.452
68495W        W40166  22.087   3.632  10.553
68496W        W40167   5.431  11.889  11.631
68497W        W40168   5.408  41.573  11.738
68498W        W40169  34.165  15.522   4.345
68499W        W40170  20.294  18.751   2.095
68500W        W40171  25.861  39.221   4.636
68501W        W40172   0.680  35.395  13.434
68502W        W40173   3.584  38.000   4.758
68503W        W40174  15.689   4.897   0.537
68504W        W40175  28.444   8.472  12.997
68505W        W40176  41.451   7.377  14.282
68506W        W40177   2.905  25.252  12.153
68507W        W40178  28.600  34.603   3.387
68508W        W40179   8.169  20.200   2.093
68509W        W40180   1.229  30.902   3.171
68510W        W40181  20.157  25.248   4.755
68511W        W40182  21.769  11.071   4.286
68512W        W40183  25.278   3.360   0.054
68513W        W40184   7.792  30.428   4.593
68514W        W40185  31.739  19.226   1.195
68515W        W40186  21.650  40.716   3.833
68516W        W40187  26.072  33.437   3.920
68517W        W40188  36.515  29.128   4.680
68518W        W40189  12.102  22.784   3.112
68519W        W40190  33.898   2.450  13.416
68520W        W40191  33.306  20.325   0.013
68521W        W40192  36.443  28.880  13.099
68522W        W40193  44.956  36.592  14.791
68523W        W40194  43.999  21.552  12.105
68524W        W40195   2.404  35.757   2.835
68525W        W40196  44.511  25.950   2.350
68526W        W40197   0.690  18.191  13.369
68527W        W40198  38.827  15.564  11.196
68528W        W40199  27.626  44.305  14.447
68529W        W40200  19.169  24.480   3.829
68530W        W40201  33.162   0.800  14.229
68531W        W40202  37.564  39.551   0.276
68532W        W40203  15.995  20.967  10.319
68533W        W40204  23.572  30.726  12.429
68534W        W40205  27.512  39.386  14.448
68535W        W40206  36.111  16.145  13.629
68536W        W40207  20.053  39.848   0.470
68537W        W40208  10.891   7.102  13.443
68538W        W40209  20.485  13.469   5.337
68539W        W40210  13.897  15.715   1.670
68540W        W40211  39.951  23.707   2.452
68541W        W40212  26.139  36.878   3.383
68542W        W40213  14.961  25.242  12.366
68543W        W40214  22.500  43.198  11.193
68544W        W40215   0.132  13.045   2.503
68545W        W40216   8.815  25.300   3.294
68546W        W40217  14.087  43.063   4.180
68547W        W40218  14.540   6.996   5.231
68548W        W40219  44.762  20.977  14.513
68549W        W40220  41.700  37.417   0.395
68550W        W40221  26.479  18.106  12.054
68551W        W40222  43.582   7.797   1.495
68552W        W40223  21.580   5.288   2.978
68553W        W40224   3.895  11.824   0.698
68554W        W40225  16.847   1.417   1.776
68555W        W40226  24.444  10.186  11.167
68556W        W40227  43.374  23.168  14.801
68557W        W40228  24.583  12.229   3.084
68558W        W40229  36.526  29.481   1.809
68559W        W40230  44.431  21.032   1.730
68560W        W40231  32.432  44.371  11.817
68561W        W40232  17.964  13.215   1.014
68562W        W40233  31.904  31.137   4.659
68563W        W40234  19.982  31.798   3.194
68564W        W40235  11.267  10.399  11.071
68565W        W40236  12.083  35.477   0.543
68566W        W40237   8.306  12.048   4.214
68567W        W40238  40.571  20.565  13.812
68568W        W40239  17.468  24.575  13.749
68569W        W40240  39.894   1.210  14.118
68570W        W40241  41.904  20.319  13.229
68571W        W40242   6.147  41.553   2.671
68572W        W40243  29.288  36.600   1.484
68573W        W40244  43.183  33.267  11.796
68574W        W40245  35.338  17.989  14.376
68575W        W40246   0.911  19.477  14.277
68576W        W40247  33.714  20.029   1.475
68577W        W40248  16.358   2.172   4.448
68578W        W40249   8.575  10.711  13.402
68579W        W40250   2.445  14.433  11.133
68580W        W40251   1.269   4.200  11.911
68581W        W40252  22.847  15.357  14.826
68582W        W40253  44.770  33.118  11.159
68583W        W40254  35.772  30.263   2.269
68584W        W40255  25.028  38.779  12.056
68585W        W40256  37.943   8.820  12.867
68586W        W40257  11.340  40.362   3.268
68587W        W40258   0.264  10.718   4.294
68588W        W40259   7.852  33.081   1.199
68589W        W40260  25.143  27.457   1.266
68590W        W40261   6.616  13.616  11.080
68591W        W40262   4.493  10.204  11.171
68592W        W40263  25.097  13.260  13.826
68593W        W40264   2.195  42.507   2.728
68594W        W40265  23.714  41.512  11.615
68595W        W40266  12.764  41.728  13.410
68596W        W40267  18.423  17.407   3.121
68597W        W40268  44.548   6.393   3.088
68598W        W40269  20.759   7.743   4.642
68599W        W40270  27.985  18.000  13.009
68600W        W40271  20.031  11.225   5.481
68601W        W40272  30.846  44.444   1.515
68602W        W40273  18.012   4.867   0.646
68603W        W40274  34.447   5.209   3.278
68604W        W40275  18.324  28.108   3.945
68605W        W40276   5.945  22.272  13.819
68606W        W40277  17.815  30.524  11.331
68607W        W40278  42.721  39.570   3.229
68608W        W40279   3.253  23.911   0.556
68609W        W40280  16.035   4.313   3.191
68610W        W40281  40.411   4.700   0.331
68611W        W40282  26.716  31.869  12.680
68612W        W40283  22.059  28.252   2.521
68613W        W40284  41.446  37.779   1.419
68614W        W40285  26.210  28.601   0.208
68615W        W40286  28.883   7.420  13.908
68616W        W40287  15.866  16.651   1.947
68617W        W40288   4.309   0.092  13.091
68618W        W40289  29.153  24.213   4.666
68619W        W40290  20.871  14.909   1.640
68620W        W40291  13.026  42.463   3.648
68621W        W40292  20.065  13.772  13.719
68622W        W40293  12.860  15.493  13.354
68623W        W40294  34.070  35.591   4.020
68624W        W40295  33.007  43.540  12.857
68625W        W40296  26.445  22.620  10.706
68626W        W40297  30.069  17.035   3.754
68627W        W40298   5.459  23.670  11.347
68628W        W40299  24.667  30.077   2.794
68629W        W40300  13.621   8.431   2.271
68630W        W40301  37.912  19.729  13.064
68631W        W40302  19.822  38.923  10.713
68632W        W40303  25.407  41.580  10.715
68633W        W40304  12.590  39.217   1.821
68634W        W40305  28.104  36.832  13.454
68635W        W40306  19.761  26.018   3.791
68636W        W40307   2.456  12.455  11.066
68637W        W40308  17.259  22.673   3.572
68638W        W40309  39.403  36.804   3.622
68639W        W40310  15.726  10.457  10.371
68640W        W40311  40.088   7.717  10.687
68641W        W40312  14.178  19.711   2.422
68642W        W40313  42.475   7.108  10.636
68643W        W40314  10.757  39.332  13.121
68644W        W40315  26.827  22.716  14.001
68645W        W40316  43.097  43.656   3.730
68646W        W40317  44.277  44.800   0.353
68647W        W40318  43.696  33.661  12.478
68648W        W40319  24.628  14.511   2.780
68649W        W40320   3.222  29.018   1.374
68650W        W40321   4.183  35.670  13.718
68651W        W40322  14.466   5.456   0.332
68652W        W40323  32.499  35.421  11.954
68653W        W40324  31.867  41.426   0.696
68654W        W40325   9.715  24.050   3.673
68655W        W40326  29.018   5.466   4.234
68656W        W40327  38.449  18.209   3.276
68657W        W40328  24.582  30.906   2.366
68658W        W40329  40.909  29.252  10.787
68659W        W40330  43.339  16.373  14.312
68660W        W40331  44.857  31.043  11.848
68661W        W40332  27.136  28.035  13.053
68662W        W40333   8.158  37.774   3.614
68663W        W40334  24.103  16.622   3.114
68664W        W40335  20.785  21.544   3.724
68665W        W40336  41.897   0.900   3.424
68666W        W40337   4.264  13.810   4.453
68667W        W40338  18.802  43.659  11.123
68668W        W40339  26.110   3.903  13.030
68669W        W40340  22.676  33.146  11.578
68670W        W40341  38.365  28.005   4.866
68671W        W40342  43.502  29.508  14.271
68672W        W40343  22.242   9.556   4.192
68673W        W40344  29.109  19.181  11.608
68674W        W40345   4.392  13.325  13.681
68675W        W40346  29.573  21.369   3.476
68676W        W40347  35.452  26.483   4.208
68677W        W40348  14.990  37.559  11.602
68678W        W40349  27.393  34.907   1.927
68679W        W40350  42.641  35.482  14.177
68680W        W40351  41.862   8.656  14.842
68681W        W40352  15.361  36.565   0.745
68682W        W40353  17.076  11.075   0.188
68683W        W40354   2.407  28.895  11.510
68684W        W40355  44.543  37.531  11.065
68685W        W40356   8.349  23.052   0.514
68686W        W40357  26.412  15.943  14.816
68687W        W40358  27.978  16.235  14.958
68688W        W40359  24.151  31.771  11.848
68689W        W40360   3.974  35.009   1.762
68690W        W40361  10.437  43.820   2.740
68691W        W40362  11.541  33.585  12.010
68692W        W40363  22.140  31.623  13.867
68693W        W40364  36.282  12.665   2.824
68694W        W40365  36.938  41.489  13.397
68695W        W40366  42.474  16.952  12.900
68696W        W40367   9.656  41.097   1.888
68697W        W40368  31.073  28.258   3.227
68698W        W40369   8.467  20.999   1.883
68699W        W40370  15.548  13.389  11.153
68700W        W40371  40.004  43.658   1.883
68701W        W40372  13.600  28.618  13.471
68702W        W40373   9.747   8.310  13.617
68703W        W40374   4.284  26.602   4.106
68704W        W40375  35.696  14.101   0.388
68705W        W40376  31.127  24.684  14.906
68706W        W40377  15.748  43.607  10.431
68707W        W40378  20.743   2.225   0.749
68708W        W40379   9.570   7.864  13.796
68709W        W40380  16.699   1.828  11.378
68710W        W40381  19.105  11.800  10.181
68711W        W40382  10.378  33.500   3.655
68712W        W40383  31.377  39.533   0.056
68713W        W40384  20.975  40.360  14.259
68714W        W40385  37.225  32.184  11.508
68715W        W40386  25.024  26.681   2.940
68716W        W40387   8.263  26.097  10.992
68717W        W40388  38.148  22.235   1.905
68718W        W40389  21.520  27.529   0.974
68719W        W40390   1.030   8.671   3.193
68720W        W40391  26.701  31.721   2.641
68721W        W40392  39.592  17.235  14.982
68722W        W40393   6.879   2.861  13.181
68723W        W40394  40.373  39.933   1.683
68724W        W40395  23.176  10.263   3.293
68725W        W40396  40.433   0.560  14.472
68726W        W40397  30.557  42.696  12.897
68727W        W40398  28.071   7.084  11.590
68728W        W40399   5.919  21.270   1.276
68729W        W40400   0.364  33.842   3.819
68730W        W40401  28.034  27.863  14.029
68731W        W40402   5.988  18.736   4.659
68732W        W40403   3.492  19.245   1.912
68733W        W40404  19.957  43.441  13.512
68734W        W40405  22.722  14.380   3.115
68735W        W40406   7.775  13.722  13.535
68736W        W40407   6.743  38.045  12.861
68737W        W40408   1.923  16.112   0.357
68738W        W40409   4.388  37.922   3.282
68739W        W40410  36.126  23.673   4.105
68740W        W40411  29.475  32.923  14.823
68741W        W40412  13.144  23.908   3.871
68742W        W40413  22.640   2.262  13.385
68743W        W40414  19.228  12.216   3.381
68744W        W40415  22.866  35.649  11.753
68745W        W40416  34.615   2.935   0.768
68746W        W40417  38.422   6.640  13.751
68747W        W40418  27.253   3.897   1.742
68748W        W40419  21.978  31.388  13.328
68749W        W40420   1.807  35.599  11.140
68750W        W40421  24.097   2.205  13.458
68751W        W40422  41.757  16.893   1.455
68752W        W40423  19.721  24.186  14.389
68753W        W40424  43.386  19.209  10.665
68754W        W40425  27.898  42.365   2.737
68755W        W40426  20.768  20.467   2.627
68756W        W40427  39.056  38.616  11.083
68757W        W40428  10.311  40.560   2.490
68758W        W40429  30.411  42.429  12.485
68759W        W40430  11.197  17.220   4.480
68760W        W40431  18.837  30.585  13.104
68761W        W40432  42.330   5.729  14.969
68762W        W40433  16.515  29.010  14.880
68763W        W40434  37.214  16.977   3.133
68764W        W40435   5.837  33.158  14.772
68765W        W40436  32.059  12.625  11.482
68766W        W40437  21.032   9.760   2.943
68767W        W40438   7.816  17.066  12.478
68768W        W40439  43.354   6.392  12.055
68769W        W40440  16.085  20.274   2.389
68770W        W40441  22.434   5.431  13.858
68771W        W40442   5.811  20.816   1.534
68772W        W40443   7.734  13.045   0.922
68773W        W40444   5.201  41.293  12.679
68774W        W40445   2.245  32.705   3.629
68775W        W40446  42.499   9.884  14.373
68776W        W40447  37.618  39.888  13.384
68777W        W40448  36.855   8.214  13.842
68778W        W40449  42.552  27.712  11.998
68779W        W40450  24.463   4.095  13.487
68780W        W40451  28.982  27.935  13.888
68781W        W40452   9.301  39.592  11.930
68782W        W40453   9.856  18.819   4.797
68783W        W40454   2.253  36.330  13.271
68784W        W40455  41.801  14.035   2.294
68785W        W40456  22.533   4.917   1.117
68786W        W40457  29.873  21.530   0.136
68787W        W40458   7.908  31.438  14.211
68788W        W40459  23.537  40.103   3.093
68789W        W40460  33.599  40.914   5.136
68790W        W40461  20.572  42.540   0.264
68791W        W40462  23.324  19.543  11.962
68792W        W40463  20.493  30.428  12.216
68793W        W40464  18.259  25.233   1.457
68794W        W40465   4.964  11.667   3.675
68795W        W40466  41.804  12.280   3.891
68796W        W40467  38.970  42.846  10.452
68797W        W40468  36.994  42.429  13.004
68798W        W40469  11.098  37.735   1.784
68799W        W40470  30.174  38.569  12.995
68800W        W40471  43.813  14.207   2.724
68801W        W40472  29.471  38.030  12.862
68802W        W40473  12.244  19.645   4.158
68803W        W40474   7.905   8.753  14.796
68804W        W40475   2.375  24.046  12.000
68805W        W40476  34.088  32.590   3.632
68806W        W40477  29.087  39.138   1.251
68807W        W40478  25.047   2.679  11.137
68808W        W40479  31.784  23.049  13.478
68809W        W40480  29.689  21.252  11.901
68810W        W40481   3.482  16.103  13.650
68811W        W40482  30.036   8.278   0.069
68812W        W40483  28.235  23.975  10.730
68813W        W40484   7.617  29.003  13.364
68814W        W40485  32.356  35.603   4.083
68815W        W40486  41.976  20.431   1.340
68816W        W40487  15.734  39.527  12.989
68817W        W40488  25.887   7.576   1.136
68818W        W40489  33.582  20.673   3.093
68819W        W40490   2.760  38.027  12.972
68820W        W40491   2.769  32.185   1.442
68821W        W40492  44.887  34.258   2.642
68822W        W40493  35.551  40.540   2.368
68823W        W40494  27.430  14.772   3.411
68824W        W40495   5.297   0.608  10.637
68825W        W40496  41.953  23.783   1.277
68826W        W40497   2.230  13.833   0.339
68827W        W40498  44.434  37.194   2.240
68828W        W40499  27.346   9.967   3.813
68829W        W40500  25.127  18.986  14.406
68830W        W40501  15.490  19.082  13.044
68831W        W40502  36.326  17.695   2.121
68832W        W40503  13.209   0.908  13.488
68833W        W40504  36.037  31.918  13.574
68834W        W40505  26.716   1.450   1.829
68835W        W40506  38.911  20.335  10.001
68836W        W40507   4.606   7.974  14.322
68837W        W40508  10.224  32.843   4.236
68838W        W40509  34.137  42.531  13.895
68839W        W40510   5.287  35.377   3.901
68840W        W40511  38.258  43.113  14.368
68841W        W40512  40.265  28.593   3.133
68842W        W40513  28.919  36.480   4.912
68843W        W40514  11.286   9.691  11.576
68844W        W40515  30.873  36.589   1.476
68845W        W40516   0.686   6.726   1.377
68846W        W40517  43.302  36.446   3.990
68847W        W40518  44.526  30.412   3.228
68848W        W40519   5.167  12.167   0.393
68849W        W40520  40.568  17.043  14.730
68850W        W40521  35.653  10.197  11.944
68851W        W40522  15.193   4.157   3.801
68852W        W40523  41.745  24.658  11.359
68853W        W40524   1.683  31.980   2.898
68854W        W40525   7.251  30.683  11.597
68855W        W40526  10.564  43.427  13.504
68856W        W40527  17.659   1.225   1.400
68857W        W40528  44.235  29.242  12.146
68858W        W40529   1.012   5.769  12.662
68859W        W40530  12.854  31.794   0.099
68860W        W40531  11.484  21.989  11.129
68861W        W40532  29.358  40.993  10.714
68862W        W40533  23.057  19.804   4.091
68863W        W40534  21.243  33.179  13.098
68864W        W40535  26.914  44.744   2.688
68865W        W40536  29.934  28.525  10.777
68866W        W40537  36.919  18.407  11.564
68867W        W40538  44.830  13.767  14.493
68868W        W40539   2.738  41.829   3.847
68869W        W40540   7.718  30.642  14.554
68870W        W40541  15.647   4.187  14.815
68871W        W40542  39.439   0.321  13.049
68872W        W40543  17.139  40.034  14.470
68873W        W40544  12.729   9.954  11.866
68874W        W40545  13.425   4.983   2.705
68875W        W40546  33.883   1.868  11.579
68876W        W40547  27.680   3.032  14.773
68877W        W40548  23.083  38.551   4.951
68878W        W40549  25.196  14.715   2.348
68879W        W40550  29.874  19.178  14.388
68880W        W40551  26.184  20.019  10.714
68881W        W40552  19.672  16.241   0.461
68882W        W40553   9.042  30.421  14.363
68883W        W40554  23.210   1.388  12.367
68884W        W40555  13.348   9.260   3.370
68885W        W40556  12.211  28.053   3.773
68886W        W40557  10.624   1.351   3.695
68887W        W40558   9.585  38.942   4.742
68888W        W40559  32.638  23.845   2.476
68889W        W40560  37.635   4.977  11.403
68890W        W40561   4.739  15.292  14.747
68891W        W40562  27.612  37.859   1.844
68892W        W40563   2.765  42.925   2.761
68893W        W40564  29.230  35.120  11.889
68894W        W40565  28.711  22.765  10.934
68895W        W40566  32.378  40.370  11.164
68896W        W40567  29.109  41.115  12.032
68897W        W40568  38.675  38.397   0.987
68898W        W40569  27.139  43.491   3.277
68899W        W40570   9.340  44.516   3.908
68900W        W40571  36.965  21.004  14.655
68901W        W40572  22.963  29.711   1.752
68902W        W40573   4.343  15.562  13.364
68903W        W40574  25.044  29.918   4.798
68904W        W40575  44.940  31.962   0.972
68905W        W40576  25.065  35.327  14.358
68906W        W40577  26.656  28.904  14.913
68907W        W40578  32.633  22.591  10.768
68908W        W40579  43.531  41.951   9.715
68909W        W40580  17.533  29.587   1.249
68910W        W40581   8.320   8.206  14.440
68911W        W40582  34.107  14.773  11.116
68912W        W40583  36.606  30.096   0.241
68913W        W40584  29.501  18.207   4.680
68914W        W40585  40.755  14.013   2.916
68915W        W40586  25.986  13.183   0.353
68916W        W40587   5.304   5.620   3.787
68917W        W40588  38.268  15.145  11.112
68918W        W40589   3.642  39.000  12.492
68919W        W40590  17.240   9.581   3.651
68920W        W40591   8.856  31.988  14.323
68921W        W40592   0.894   3.989  11.579
68922W        W40593  25.470  27.976  14.480
68923W        W40594   6.698   8.137  12.908
68924W        W40595  30.141   3.502   0.196
68925W        W40596  17.752  27.646   0.671
68926W        W40597  10.113  42.963   0.387
68927W        W40598  11.832  36.841  11.272
68928W        W40599  38.485  27.927  14.335
68929W        W40600  17.288  12.802  14.041
68930W        W40601   9.911   8.907   4.641
68931W        W40602  40.878  26.633  12.448
68932W        W40603  39.288  28.562   4.113
68933W        W40604  44.875   4.454  12.851
68934W        W40605  18.552  32.895  14.024
68935W        W40606  28.487  11.663   2.894
68936W        W40607  13.890  12.634  12.195
68937W        W40608  36.412  32.576  11.445
68938W        W40609  17.316  20.166   1.302
68939W        W40610  15.085  14.107   2.630
68940W        W40611  26.605  20.825  10.522
68941W        W40612  28.944  22.239  14.335
68942W        W40613   2.174  26.219  11.202
68943W        W40614  21.151   4.226   4.758
68944W        W40615  16.041  10.597   2.314
68945W        W40616   7.642  30.907   0.527
68946W        W40617  11.656  39.875   1.367
68947W        W40618   5.240  17.623  12.019
68948W        W40619  12.577  36.723  12.591
68949W        W40620   4.221   7.941  11.464
68950W        W40621  27.923   3.092  12.927
68951W        W40622  20.527   5.469  11.043
68952W        W40623  11.638   7.178   5.098
68953W        W40624  37.598  31.502  12.904
68954W        W40625   2.162  28.892   3.232
68955W        W40626  24.057  15.067   1.601
68956W        W40627  32.425  30.557  14.404
68957W        W40628  17.395   1.238  12.405
68958W        W40629   9.908   0.506   1.420
68959W        W40630   4.245   9.414   0.443
68960W        W40631  36.375  15.648  13.393
68961W        W40632   8.319  14.886   4.164
68962W        W40633  12.875  27.078   0.309
68963W        W40634   2.342   5.733  12.317
68964W        W40635  34.899   6.245   4.661
68965W        W40636  39.623  40.076  13.888
68966W        W40637   9.413  43.989   1.877
68967W        W40638  23.946  10.055  11.238
68968W        W40639  41.986  34.458  13.420
68969W        W40640   9.181  16.877   1.329
68970W        W40641  21.605  13.476  11.143
68971W        W40642  39.076   0.305  14.763
68972W        W40643  25.239  18.371  12.510
68973W        W40644  42.308  35.923   4.549
68974W        W40645  11.012  11.717  13.898
68975W        W40646  36.687   1.431  12.005
68976W        W40647  34.668   0.042  14.036
68977W        W40648  23.594  37.011  11.636
68978W        W40649  15.385  26.169  12.538
68979W        W40650   2.414  10.147   1.292
68980W        W40651  10.587  26.250  14.350
68981W        W40652  29.194  32.368  11.944
68982W        W40653   5.823  30.646   0.154
68983W        W40654   6.651  44.467  10.100
68984W        W40655   3.179   9.898   3.451
68985W        W40656  30.561  13.689   2.332
68986W        W40657  36.947  12.837  13.670
68987W        W40658  38.399  16.485  14.586
68988W        W40659  20.072  20.841   1.675
68989W        W40660  36.827  12.232   2.323
68990W        W40661  42.096  29.097   3.366
68991W        W40662  24.600  34.348   0.774
68992W        W40663  33.983   7.676   1.366
68993W        W40664  28.483  12.066  13.431
68994W        W40665  13.849  18.881  13.467
68995W        W40666  19.183  14.399   3.717
68996W        W40667  26.002  44.748   2.251
68997W        W40668  14.402  31.236  12.961
68998W        W40669  30.313   2.707  12.050
68999W        W40670  13.486   4.246  12.351
69000W        W40671   4.906  24.916  12.679
69001W        W40672  28.313  24.305  12.411
69002W        W40673  13.101   5.852   1.640
69003W        W40674   4.516  24.615  11.538
69004W        W40675  35.450   3.449   2.170
69005W        W40676  20.310  31.972  11.019
69006W        W40677   5.349   7.451  14.002
69007W        W40678  35.871   4.781  10.695
69008W        W40679  39.442  28.673   3.623
69009W        W40680  15.499  29.700   4.243
69010W        W40681  12.782  36.021  12.037
69011W        W40682   6.364  24.927   4.544
69012W        W40683   9.752  35.570  14.440
69013W        W40684  20.734  17.763  12.508
69014W        W40685  17.748  11.685   3.663
69015W        W40686  41.312  34.103  10.745
69016W        W40687   4.603  39.520   0.097
69017W        W40688  42.048   5.707  11.480
69018W        W40689  24.450   3.706   4.336
69019W        W40690  27.458   1.413  14.951
69020W        W40691  10.179  35.949  10.595
69021W        W40692  25.590  31.450  14.363
69022W        W40693  39.284  32.983   1.312
69023W        W40694   9.911  31.101   4.942
69024W        W40695  34.592  11.670   3.850
69025W        W40696  11.882  22.222   1.974
69026W        W40697  30.970   9.962   3.645
69027W        W40698  36.145  44.131   2.932
69028W        W40699  25.110   3.297   3.682
69029W        W40700   5.756   0.515   1.020
69030W        W40701  17.562   8.342  10.398
69031W        W40702  31.914   9.374  14.292
69032W        W40703  20.500   6.900   1.156
69033W        W40704  40.036   6.444  10.609
69034W        W40705  41.155  15.130   0.436
69035W        W40706  11.163  25.713   4.521
69036W        W40707  37.341  25.861   2.001
69037W        W40708   8.145  37.881   1.320
69038W        W40709   7.264   5.164   1.984
69039W        W40710   2.927  12.504  12.568
69040W        W40711  10.238  37.967   0.021
69041W        W40712  26.974  26.507   2.476
69042W        W40713  38.000  12.647   3.591
69043W        W40714   7.470  16.207  12.437
69044W        W40715   6.694  26.630   4.713
69045W        W40716  24.506  38.890  10.852
69046W        W40717   7.632  15.690  11.658
69047W        W40718   2.294  28.218  12.498
69048W        W40719   5.784   6.368   1.809
69049W        W40720   4.346  14.568  14.525
69050W        W40721  35.179  27.200   2.725
69051W        W40722  42.985  29.895   4.788
69052W        W40723  40.042  39.111   4.573
69053W        W40724  41.073  24.637  12.103
69054W        W40725  43.707  12.206  11.435
69055W        W40726  13.016  27.980   2.557
69056W        W40727  20.221  35.662  11.125
69057W        W40728  40.424   5.815   4.514
69058W        W40729  11.895  24.641   3.253
69059W        W40730  11.018  19.904  14.601
69060W        W40731  43.325  19.147   2.595
69061W        W40732  29.909  15.993   1.977
69062W        W40733  19.364  35.880  10.258
69063W        W40734  44.056  12.238   2.037
69064W        W40735  32.426   6.054   3.798
69065W        W40736  25.443   0.678  11.954
69066W        W40737  14.058  19.458   4.773
69067W        W40738  20.502  26.009   3.119
69068W        W40739  29.651  38.506  12.937
69069W        W40740  20.644  36.111   2.753
69070W        W40741  21.277  33.414   2.423
69071W        W40742  30.212   8.832   4.288
69072W        W40743  31.550  22.164  13.991
69073W        W40744  27.649   0.316  12.569
69074W        W40745  11.760  29.112   1.666
69075W        W40746  24.084  39.615   1.808
69076W        W40747   8.440  36.351  14.977
69077W        W40748   1.801  16.378   1.191
69078W        W40749  28.404  18.723   1.480
69079W        W40750   5.235  44.507   2.603
69080W        W40751   2.561  39.834   1.891
69081W        W40752  37.509  36.563  12.967
69082W        W40753   1.736  39.143   2.901
69083W        W40754  24.417  38.914  13.309
69084W        W40755  10.833   0.997   2.665
69085W        W40756  40.460  43.411  11.824
69086W        W40757   7.201  36.752  14.912
69087W        W40758  39.811  35.932   0.240
69088W        W40759   3.733  26.369   1.155
69089W        W40760   6.738  43.398   2.268
69090W        W40761  16.796  26.725   4.732
69091W        W40762  13.248  32.184   0.929
69092W        W40763   6.332   7.040  14.557
69093W        W40764  10.195   4.924   4.069
69094W        W40765   1.622  16.758   4.409
69095W        W40766  10.365  36.571   0.651
69096W        W40767  32.864  11.239  12.572
69097W        W40768  40.017   0.396   0.819
69098W        W40769  23.806  20.578  13.861
69099W        W40770  32.138  34.074   0.288
69100W        W40771  23.577  41.110   5.000
69101W        W40772  21.149  19.527   3.643
69102W        W40773  24.185  35.832  12.585
69103W        W40774  44.103  25.644  13.073
69104W        W40775  35.447  13.742  12.487
69105W        W40776  23.002  29.115  10.404
69106W        W40777  42.448  37.927  12.635
69107W        W40778  41.281  14.845   4.166
69108W        W40779  21.260  43.563  14.099
69109W        W40780  23.700  30.904   3.676
69110W        W40781   8.166  17.891   4.478
69111W        W40782  34.909   4.712  12.811
69112W        W40783  39.783  39.935  14.344
69113W        W40784  27.467  10.116   2.652
69114W        W40785   8.279   2.819   0.772
69115W        W40786  36.175  36.515   1.874
69116W        W40787  19.905  23.024  10.976
69117W        W40788  16.893  35.802  14.459
69118W        W40789  22.220  38.204  10.102
69119W        W40790  44.306  42.371  12.639
69120W        W40791  29.924   4.987   2.810
69121W        W40792  33.033   5.506  12.507
69122W        W40793   3.519  10.929   1.285
69123W        W40794  16.513  42.995   2.660
69124W        W40795   8.883  11.372   2.771
69125W        W40796  19.676  33.497   0.262
69126W        W40797  38.085   5.676   1.826
69127W        W40798  31.448   1.863   0.416
69128W        W40799  24.501  19.071  13.549
69129W        W40800  21.730  15.042   4.731
69130W        W40801  13.716  19.800  14.837
69131W        W40802  14.303  25.961   4.063
69132W        W40803  29.515  15.133   2.738
69133W        W40804  23.698  38.066  12.027
69134W        W40805  38.959  35.488  13.999
69135W        W40806  37.514  27.093  10.915
69136W        W40807  16.293  37.962   2.858
69137W        W40808  29.052   2.748  13.985
69138W        W40809   2.303  41.538  12.050
69139W        W40810  23.949   0.695  10.275
69140W        W40811   2.995  20.315  10.990
69141W        W40812  20.792   0.752   0.425
69142W        W40813   9.741  18.284  12.923
69143W        W40814  44.239  10.388   1.741
69144W        W40815  38.473  29.962   2.915
69145W        W40816  34.543  44.964   4.664
69146W        W40817  28.766   4.172   3.224
69147W        W40818   6.634   1.845  14.508
69148W        W40819   6.734  34.951  11.656
69149W        W40820  38.400  41.919   4.063
69150W        W40821  15.251   3.196  11.886
69151W        W40822   9.721  16.194   4.697
69152W        W40823  35.405  14.553   4.189
69153W        W40824  42.430  11.085  12.505
69154W        W40825  30.618  14.312  10.660
69155W        W40826  18.329   0.893  14.787
69156W        W40827  16.695  14.800  13.790
69157W        W40828  24.625  11.474  13.034
69158W        W40829  32.563  44.973  14.966
69159W        W40830  24.998  23.261   2.358
69160W        W40831  11.832   3.932  12.906
69161W        W40832  27.752  26.570   0.912
69162W        W40833  26.990  14.835  14.719
69163W        W40834  22.047  25.966   2.560
69164W        W40835   7.739  10.901  14.018
69165W        W40836  19.238  38.911  14.384
69166W        W40837   0.234  21.253  10.464
69167W        W40838  32.565  44.727   0.454
69168W        W40839   5.319  28.115   4.823
69169W        W40840  17.524  43.347  14.180
69170W        W40841  26.542   5.270  12.797
69171W        W40842  35.205  40.307   4.746
69172W        W40843   0.262  11.441  10.647
69173W        W40844  19.061  42.906  14.656
69174W        W40845  15.093  41.839   1.967
69175W        W40846  36.540  38.306  14.963
69176W        W40847   6.177   2.011  10.487
69177W        W40848   0.186  31.132  11.463
69178W        W40849  31.605  22.096  11.612
69179W        W40850  42.902  19.522  13.323
69180W        W40851  24.772  39.346  12.551
69181W        W40852   0.347  37.390   2.199
69182W        W40853  34.169  17.873  11.634
69183W        W40854  29.467  13.007   4.576
69184W        W40855  11.245  22.610   3.721
69185W        W40856   8.787  20.754   3.089
69186W        W40857  31.087   7.817   3.616
69187W        W40858  29.766  15.083   1.213
69188W        W40859   2.027  27.145   2.789
69189W        W40860   7.770  42.272   2.840
69190W        W40861  17.129  19.639   1.327
69191W        W40862  44.191   1.271  10.868
69192W        W40863  16.446  12.480  13.948
69193W        W40864  12.323  41.869  11.542
69194W        W40865  26.752  22.065  12.065
69195W        W40866   8.159  29.886   3.108
69196W        W40867  44.401  10.654   3.792
69197W        W40868  11.263   4.213   3.247
69198W        W40869   0.911  29.555  13.706
69199W        W40870  31.458  15.675   1.535
69200W        W40871  38.447  15.048  12.886
69201W        W40872   5.976  24.790   2.337
69202W        W40873  20.289  11.312   2.302
69203W        W40874  27.378  22.960   2.895
69204W        W40875  27.580  35.912   0.454
69205W        W40876  12.698  26.905   3.303
69206W        W40877  16.836  18.261  12.545
69207W        W40878  28.060  24.818  14.295
69208W        W40879  13.734   2.882  11.629
69209W        W40880  18.539   0.399  10.532
69210W        W40881   1.531  20.524   2.331
69211W        W40882  28.938  39.045   2.612
69212W        W40883  30.861  41.064  10.718
69213W        W40884   3.280  13.609   4.083
69214W        W40885  37.357  20.358  12.963
69215W        W40886  10.810  15.953   4.598
69216W        W40887  14.779   4.201   9.949
69217W        W40888  10.237  24.824   1.774
69218W        W40889  22.992  30.405  10.565
69219W        W40890  24.770  13.158  14.599
69220W        W40891  41.926  18.185   1.802
69221W        W40892  11.722  35.489   0.933
69222W        W40893  23.495   8.704   1.217
69223W        W40894  38.039   6.198   4.242
69224W        W40895  17.236  28.840  13.527
69225W        W40896  18.876  26.656   2.362
69226W        W40897  27.085   6.820   2.794
69227W        W40898   2.881   3.213   2.721
69228W        W40899   0.009  34.537  13.839
69229W        W40900  10.251  33.599   0.385
69230W        W40901  13.129  12.172  14.470
69231W        W40902  34.323   1.005   4.574
69232W        W40903  22.245   4.090  12.271
69233W        W40904  27.656   6.341  11.536
69234W        W40905  33.226   8.849   4.098
69235W        W40906  42.136  30.168   4.743
69236W        W40907   0.820  44.842  11.604
69237W        W40908  26.790  33.682   0.457
69238W        W40909  26.155  35.121  11.159
69239W        W40910  29.428  42.417   4.274
69240W        W40911   9.249  12.479   4.342
69241W        W40912  30.017  18.825  12.540
69242W        W40913  20.522  37.842  12.135
69243W        W40914  32.522  24.951  12.042
69244W        W40915   9.902  17.789  13.054
69245W        W40916   2.506  35.943  12.053
69246W        W40917  44.401  11.700  11.846
69247W        W40918  11.641  33.117   4.528
69248W        W40919  29.690   0.429   1.873
69249W        W40920  28.614  27.990  12.852
69250W        W40921  39.907  38.822  13.413
69251W        W40922  30.599   8.416   1.752
69252W        W40923   2.712  15.737  12.544
69253W        W40924  24.424  16.554   4.848
69254W        W40925  28.764  25.108  13.565
69255W        W40926  41.659  41.639   4.932
69256W        W40927  32.401  15.362   2.537
69257W        W40928  23.259  38.929  12.911
69258W        W40929   5.192  38.967  14.497
69259W        W40930  16.235  24.070   4.091
69260W        W40931  43.812   5.712   0.381
69261W        W40932  25.543  34.956  13.066
69262W        W40933  29.599  37.459   1.975
69263W        W40934  24.504  15.019   2.853
69264W        W40935   2.449   1.502  12.060
69265W        W40936  20.165  43.527  13.034
69266W        W40937  37.406   6.970  12.619
69267W        W40938  11.603  23.767   1.501
69268W        W40939  41.334   9.951  14.849
69269W        W40940  27.156  17.137   4.766
69270W        W40941  44.478  42.574   2.915
69271W        W40942  35.419  28.391   3.264
69272W        W40943  32.436   8.332  13.153
69273W        W40944  36.509   7.031   2.769
69274W        W40945  15.072   0.785  14.750
69275W        W40946   3.340  43.426  11.410
69276W        W40947  29.042  21.478   3.145
69277W        W40948  13.451  32.188   4.249
69278W        W40949   8.929  25.410  13.756
69279W        W40950  30.246  38.290   3.746
69280W        W40951  40.421   0.540   4.532
69281W        W40952  33.275  38.275   0.778
69282W        W40953   5.426  23.159   1.191
69283W        W40954  43.741  28.326  14.875
69284W        W40955  21.270  32.873  11.707
69285W        W40956  10.154  35.450  11.186
69286W        W40957  41.549  17.337  12.451
69287W        W40958  38.843   6.909  13.933
69288W        W40959   5.680   1.354   0.465
69289W        W40960   6.879  32.895  13.389
69290W        W40961  44.092  29.774   0.788
69291W        W40962   5.345  19.725  10.473
69292W        W40963  28.101   7.740   1.403
69293W        W40964  26.908  21.519   4.141
69294W        W40965  16.061  30.211   3.648
69295W        W40966  11.555  33.916   3.904
69296W        W40967  15.148  32.392   0.005
69297W        W40968  21.070  21.034   0.789
69298W        W40969  38.410  35.058   3.309
69299W        W40970  26.035  43.899   1.680
69300W        W40971  23.519  26.100   1.835
69301W        W40972  13.356  27.938  14.976
69302W        W40973  17.716  29.412  14.030
69303W        W40974  19.261  31.358  13.580
69304W        W40975  21.236  31.310   3.252
69305W        W40976   1.572  23.935   0.455
69306W        W40977  25.741   2.729  11.006
69307W        W40978  25.991   1.376  14.827
69308W        W40979  19.991  30.475   0.336
69309W        W40980  10.183  30.896  12.484
69310W        W40981   3.182  43.056   0.457
69311W        W40982  14.286  21.577   3.685
69312W        W40983  19.444  36.290   2.916
69313W        W40984  39.197   7.658  14.319
69314W        W40985  41.592  39.453  13.840
69315W        W40986  17.654   5.361  13.141
69316W        W40987  33.414   4.812  12.000
69317W        W40988  36.253   0.222  11.608
69318W        W40989   1.163  32.118   2.717
69319W        W40990  35.617  14.891   4.634
69320W        W40991  40.796  37.914  11.945
69321W        W40992  39.329  19.801  11.113
69322W        W40993   4.101  11.335   2.846
69323W        W40994  43.436  16.553   1.297
69324W        W40995  18.687   7.663   1.194
69325W        W40996  10.782  19.655  10.992
69326W        W40997  15.846  28.966   2.723
69327W        W40998  12.758  17.543  11.840
69328W        W40999  22.261  28.639   3.561
69329W        W41000  36.034  17.217   3.783
69330W        W41001  21.488  39.636   3.552
69331W        W41002  29.121  28.272   0.785
69332W        W41003  43.887  16.343   2.031
69333W        W41004  17.063   1.615   3.167
69334W        W41005  27.863  13.075   0.328
69335W        W41006  40.709   6.367  11.196
69336W        W41007  23.259  38.920  12.083
69337W        W41008  31.498   0.648   1.584
69338W        W41009  33.945  19.745  14.394
69339W        W41010  18.581  29.528   0.373
69340W        W41011  21.539  30.198   0.732
69341W        W41012   4.672  22.600  10.335
69342W        W41013  35.698  16.720   2.906
69343W        W41014  20.964   5.726  12.207
69344W        W41015  31.849  14.568   0.832
69345W        W41016  39.816   0.862   0.974
69346W        W41017  26.542  13.987   1.824
69347W        W41018  34.401  37.044   4.943
69348W        W41019  43.920  34.653  14.496
69349W        W41020  18.278  12.994  11.198
69350W        W41021  26.122   7.325   3.318
69351W        W41022   0.848  12.710   0.721
69352W        W41023  34.520  28.011   3.585
69353W        W41024  31.233  32.528   0.858
69354W        W41025  10.801   4.190   4.164
69355W        W41026  41.252  38.015   3.650
69356W        W41027  25.195  18.207   4.100
69357W        W41028   6.806   8.113   4.130
69358W        W41029  33.166  27.953   1.873
69359W        W41030  32.280  19.806  12.355
69360W        W41031  11.698   1.772  14.489
69361W        W41032  31.290  19.152  12.881
69362W        W41033   2.119  20.624  10.017
69363W        W41034  42.454   4.714  14.907
69364W        W41035  41.099  25.135  11.008
69365W        W41036  15.799  36.419   3.657
69366W        W41037  29.663   9.232   0.918
69367W        W41038  32.130  43.016   0.970
69368W        W41039  17.165  27.851  14.015
69369W        W41040  19.301  25.039   3.904
69370W        W41041  43.926  41.092  14.064
69371W        W41042  27.558  11.377   4.693
69372W        W41043   3.299  11.396  11.987
69373W        W41044  35.808  42.103   3.914
69374W        W41045  18.631  30.342  14.101
69375W        W41046  11.571  39.850   3.750
69376W        W41047  35.120  14.777  13.305
69377W        W41048   3.846  20.998  12.626
69378W        W41049   1.846   1.343  12.865
69379W        W41050  34.740  36.082   5.122
69380W        W41051  27.535   1.775   2.607
69381W        W41052  44.479  24.440   3.716
69382W        W41053  38.529  35.329  13.300
69383W        W41054  40.112  37.448  12.363
69384W        W41055   7.748   3.539   0.786
69385W        W41056  12.691  11.241   2.952
69386W        W41057  29.618  33.219  11.186
69387W        W41058  39.959  15.047   2.681
69388W        W41059  16.095  10.372  10.848
69389W        W41060   0.502  21.472   4.017
69390W        W41061  19.207  29.217   4.582
69391W        W41062   0.563  23.517  10.953
69392W        W41063  14.374  34.474  10.681
69393W        W41064  34.588  25.708   2.757
69394W        W41065   4.828  24.428   3.241
69395W        W41066   1.321  39.832   0.550
69396W        W41067  24.499  35.098  13.444
69397W        W41068  38.014  32.851   3.745
69398W        W41069  35.569   6.196   3.220
69399W        W41070  10.853  41.870  13.773
69400W        W41071   8.357  37.297   3.624
69401W        W41072  35.183   3.044  11.475
69402W        W41073  23.750  40.596  14.417
69403W        W41074   2.328  10.193  11.545
69404W        W41075   0.853  33.178  14.260
69405W        W41076  31.161   4.682   0.763
69406W        W41077  32.589  14.494   2.221
69407W        W41078  25.630  18.851   2.451
69408W        W41079  10.175   8.368  12.943
69409W        W41080  16.524  28.943   0.783
69410W        W41081  36.380  44.727   2.486
69411W        W41082  41.741  36.386  14.595
69412W        W41083  43.880  38.607   4.669
69413W        W41084  29.524  30.268  10.547
69414W        W41085  38.914  32.459   1.962
69415W        W41086  40.333   3.857   4.798
69416W        W41087  26.088  11.583   1.007
69417W        W41088  20.344  44.909   1.788
69418W        W41089  38.057   9.341  11.530
69419W        W41090   9.918  37.908   3.228
69420W        W41091  27.423  24.270  13.759
69421W        W41092  23.966  29.511  11.986
69422W        W41093  24.927  28.588   3.748
69423W        W41094  34.097   3.260   0.532
69424W        W41095  21.116  16.528   3.289
69425W        W41096  21.952  38.332   9.683
69426W        W41097  42.880   0.798   0.403
69427W        W41098  21.710   8.778   4.369
69428W        W41099  26.519  36.610   3.181
69429W        W41100  10.777  37.515   4.097
69430W        W41101  40.012  43.946  11.429
69431W        W41102  14.262  28.037   1.168
69432W        W41103  23.402   4.506   3.704
69433W        W41104  34.198  44.033  13.985
69434W        W41105  33.420  11.121   1.752
69435W        W41106  20.570  23.159   1.430
69436W        W41107   2.208  13.802   2.657
69437W        W41108   0.655   0.791   2.680
69438W        W41109  14.193   6.223   4.025
69439W        W41110   8.185  10.627   1.909
69440W        W41111  17.688  38.376  11.136
69441W        W41112   5.298  10.004  11.489
69442W        W41113  12.732  17.625  10.341
69443W        W41114  25.423  14.058  12.734
69444W        W41115  18.956  22.174   3.882
69445W        W41116  11.172  10.700  12.391
69446W        W41117   6.535  14.311   4.084
69447W        W41118  14.694  22.794   3.172
69448W        W41119  27.560   8.882   1.407
69449W        W41120   4.179  18.814  14.311
69450W        W41121  34.976  33.872  13.830
69451W        W41122  27.757  27.414   4.178
69452W        W41123  20.048   9.368  14.918
69453W        W41124  11.142   9.087  11.543
69454W        W41125   1.309  26.099   4.566
69455W        W41126  25.602   1.381  10.250
69456W        W41127  44.251  14.567  12.463
69457W        W41128   3.942   4.479  12.632
69458W        W41129  36.942  16.373  14.326
69459W        W41130  37.970   1.266  10.649
69460W        W41131  34.827   0.403   1.028
69461W        W41132  21.109  20.919  12.542
69462W        W41133  30.778  34.485  13.993
69463W        W41134   5.239  36.946  12.122
69464W        W41135  18.674  40.117  14.078
69465W        W41136  15.347   7.287   3.713
69466W        W41137   3.865   1.232   5.031
69467W        W41138  37.285  10.434   2.130
69468W        W41139  28.854  29.224  11.537
69469W        W41140  16.081  32.390   4.034
69470W        W41141  12.406   1.416  14.815
69471W        W41142  24.206  32.893  14.964
69472W        W41143  22.975  43.741  10.757
69473W        W41144  44.501  44.719   3.317
69474W        W41145  43.177  11.336   5.499
69475W        W41146  22.240   2.524   0.021
69476W        W41147  29.866  38.096   2.717
69477W        W41148  20.176  26.485  12.565
69478W        W41149   0.807  32.854   1.566
69479W        W41150  14.611  34.105   1.852
69480W        W41151  38.979  29.190  10.752
69481W        W41152  15.739   9.226  11.046
69482W        W41153  17.471   3.358  11.440
69483W        W41154  36.324  29.945   2.280
69484W        W41155  41.248  11.806   0.582
69485W        W41156   5.563  11.179  11.077
69486W        W41157  22.001  17.650  12.897
69487W        W41158  29.497  31.095   0.728
69488W        W41159  10.631  40.029   3.589
69489W        W41160  13.345  14.175  11.095
69490W        W41161  24.952  21.687   3.142
69491W        W41162  19.034  17.053  14.357
69492W        W41163  37.315  37.257   3.543
69493W        W41164  44.563  39.954   5.002
69494W        W41165   1.901  35.912  12.905
69495W        W41166  13.760  12.143   4.469
69496W        W41167  32.652  34.064   0.390
69497W        W41168   4.837  37.220  11.861
69498W        W41169  12.025  44.992   1.868
69499W        W41170  11.979   0.861  11.994
69500W        W41171  20.151  37.974  13.549
69501W        W41172  33.091  30.259  11.114
69502W        W41173   0.030   4.494   3.221
69503W        W41174   4.907   2.161   5.090
69504W        W41175  28.319  16.586   0.212
69505W        W41176  11.257  14.918  14.818
69506W        W41177  36.827   8.802   3.185
69507W        W41178  28.326  41.575  11.104
69508W        W41179   1.972  13.693  10.614
69509W        W41180   6.796   1.200   2.449
69510W        W41181   2.425  43.259  14.260
69511W        W41182  41.206   6.308   4.075
69512W        W41183  10.277  15.121   4.629
69513W        W41184  13.968  32.548   1.858
69514W        W41185  41.302  19.985  14.379
69515W        W41186  25.496  34.939  13.584
69516W        W41187  15.422  34.038  11.402
69517W        W41188   3.181  16.619  10.642
69518W        W41189   9.709  37.789  12.061
69519W        W41190   2.696  39.349   4.660
69520W        W41191  29.581  36.427  12.103
69521W        W41192  26.726  28.566   4.594
69522W        W41193  22.296   2.258   4.596
69523W        W41194  11.639   9.817   3.810
69524W        W41195  14.822   1.839   1.508
69525W        W41196   8.634  33.580   1.444
69526W        W41197  35.126  17.877   3.148
69527W        W41198  22.082  16.193  12.401
69528W        W41199  23.782  24.286  14.621
69529W        W41200   0.440   3.378  12.534
69530W        W41201  24.726  30.914  14.296
69531W        W41202  22.710  43.910  12.909
69532W        W41203  38.401  43.088  13.003
69533W        W41204   0.635  28.958  12.123
69534W        W41205  25.432  14.235   0.964
69535W        W41206  25.668  24.611   3.607
69536W        W41207  21.161  43.470  11.939
69537W        W41208   7.919  40.328  11.985
69538W        W41209  38.510  32.269  13.486
69539W        W41210  33.070  30.580   1.257
69540W        W41211   3.924   7.867  14.766
69541W        W41212  26.178  38.154   1.692
69542W        W41213  25.504  39.331   3.397
69543W        W41214   9.032  12.183  14.378
69544W        W41215  21.254   0.991   0.352
69545W        W41216  26.921  44.409   1.878
69546W        W41217  27.043  31.117   0.461
69547W        W41218   6.555  36.986  14.786
69548W        W41219  33.902  40.704  11.899
69549W        W41220  40.004   8.163  14.912
69550W        W41221   7.506  40.149   3.834
69551W        W41222   3.648  35.034  14.833
69552W        W41223  38.094   1.792   3.684
69553W        W41224  43.433  36.146  11.635
69554W        W41225  14.284   9.411  12.054
69555W        W41226  28.562  13.271  11.986
69556W        W41227   6.587   5.278  14.969
69557W        W41228  36.968  42.072   0.223
69558W        W41229  19.802  27.141   1.498
69559W        W41230  30.155  27.428   3.166
69560W        W41231  37.381  23.542   1.245
69561W        W41232  33.513   6.411  14.498
69562W        W41233  26.573  23.783  12.096
69563W        W41234  33.896  17.733   1.712
69564W        W41235   4.736  12.237  14.051
69565W        W41236  10.788   9.395   4.081
69566W        W41237   4.867  17.643   0.537
69567W        W41238  15.523  11.781   1.751
69568W        W41239  24.997  17.483  12.686
69569W        W41240  41.594  23.177  10.308
69570W        W41241  26.064  18.704   1.673
69571W        W41242  13.790  20.078   1.438
69572W        W41243   2.770  28.707  11.184
69573W        W41244  41.789   8.665  12.941
69574W        W41245   7.707  42.598   3.858
69575W        W41246  38.503  18.975   4.613
69576W        W41247  39.581  39.663   3.317
69577W        W41248  30.921   6.400  13.803
69578W        W41249  21.342  42.071   2.759
69579W        W41250   4.820  40.424  12.038
69580W        W41251  17.387  28.427  13.808
69581W        W41252  27.237   0.846  13.587
69582W        W41253  40.327  26.611   0.343
69583W        W41254  20.263  37.466  10.750
69584W        W41255  14.387   1.305   2.235
69585W        W41256  14.510  40.832   2.439
69586W        W41257  40.091   7.870   1.281
69587W        W41258  20.038  20.268  12.453
69588W        W41259  28.639   9.809   5.678
69589W        W41260  13.349  31.876   1.789
69590W        W41261  25.113  15.103  12.746
69591W        W41262   1.173  30.152   1.270
69592W        W41263  17.542   9.189   4.691
69593W        W41264  20.730   4.579   4.222
69594W        W41265  23.555  19.644   4.327
69595W        W41266  21.684   2.760   1.090
69596W        W41267  37.769  18.520   4.104
69597W        W41268  42.018   1.920   0.104
69598W        W41269  16.088  24.205   1.761
69599W        W41270  31.979  26.971  12.688
69600W        W41271  20.304  16.257  11.951
69601W        W41272  17.999  20.765   1.749
69602W        W41273  22.238  27.930  13.121
69603W        W41274   4.266  40.893  10.757
69604W        W41275  42.132  14.581   5.606
69605W        W41276  29.233  43.783   0.460
69606W        W41277  31.152  11.342   2.870
69607W        W41278  14.164  32.107  11.423
69608W        W41279  28.562  12.700   2.742
69609W        W41280  20.695  19.712   3.434
69610W        W41281  35.006  29.627  14.452
69611W        W41282  10.804  41.988   1.276
69612W        W41283   4.695  21.063   0.835
69613W        W41284  37.530  25.153   3.742
69614W        W41285   6.810  38.568   3.644
69615W        W41286   7.491  43.517   0.822
69616W        W41287  10.169  11.578   3.708
69617W        W41288  41.809  39.413   3.505
69618W        W41289   3.789  29.968  11.450
69619W        W41290  39.260   4.198   2.647
69620W        W41291   5.772   6.047  11.676
69621W        W41292  41.861  24.026   1.723
69622W        W41293   1.252  12.342   4.877
69623W        W41294  30.022  42.028  14.541
69624W        W41295  28.420  35.563   2.999
69625W        W41296  17.140  15.840  10.657
69626W        W41297  37.278  39.535  10.939
69627W        W41298  13.220   4.510   0.532
69628W        W41299   4.680   7.874   4.539
69629W        W41300  14.545  24.998   1.838
69630W        W41301  24.288  34.571  14.131
69631W        W41302   3.415  31.995   3.837
69632W        W41303   9.712  23.510   3.649
69633W        W41304  23.571  37.969   0.244
69634W        W41305  19.142   4.398   4.688
69635W        W41306  32.012  19.001   2.956
69636W        W41307  26.155   8.958  14.113
69637W        W41308  11.720  11.160   4.041
69638W        W41309   4.203   4.372   3.702
69639W        W41310  20.948  37.004   4.251
69640W        W41311  34.998  21.080  14.961
69641W        W41312  31.609  39.212   4.429
69642W        W41313  29.972  10.613   1.851
69643W        W41314  33.056  15.102  10.926
69644W        W41315   2.039  11.147   2.475
69645W        W41316  42.495  41.865  14.542
69646W        W41317  16.806   9.600   0.788
69647W        W41318  26.082   3.033  13.377
69648W        W41319  22.223  19.932  13.018
69649W        W41320  14.413  26.526  10.653
69650W        W41321   4.890  10.284  14.911
69651W        W41322  15.803   5.343   0.802
69652W        W41323  14.986  15.798   4.631
69653W        W41324  27.026   5.832  10.367
69654W        W41325  19.801  41.062  13.334
69655W        W41326  18.254  42.042  13.475
69656W        W41327  19.669  19.307  14.340
69657W        W41328  15.626  28.354  12.425
69658W        W41329  35.047  27.956  10.149
69659W        W41330  31.603  32.815   2.414
69660W        W41331  34.970   8.077   2.823
69661W        W41332  35.682  40.392   4.621
69662W        W41333  42.895   0.917   1.455
69663W        W41334   8.362  29.551  12.935
69664W        W41335  34.251  16.808  12.922
69665W        W41336  26.052  17.106  14.517
69666W        W41337  19.351  43.895   4.692
69667W        W41338   5.467   9.170  12.488
69668W        W41339  27.943  24.193   3.175
69669W        W41340  24.617  23.755   2.359
69670W        W41341  20.576   0.316   3.465
69671W        W41342  43.759  17.330   1.706
69672W        W41343   1.688  38.794   4.064
69673W        W41344  29.993  39.632   2.221
69674W        W41345  15.525  29.396  13.429
69675W        W41346   5.802  29.725   2.767
69676W        W41347  16.242  18.192  14.320
69677W        W41348   3.913  13.639  14.861
69678W        W41349  23.953   3.705  14.615
69679W        W41350  37.589   9.733  14.763
69680W        W41351  14.706  34.681   3.201
69681W        W41352   5.311  44.983  12.175
69682W        W41353  12.770   7.980  10.929
69683W        W41354  17.792  21.170   2.696
69684W        W41355   9.658  17.510   2.048
69685W        W41356   3.780   6.519  14.533
69686W        W41357   4.214  16.616  10.694
69687W        W41358   4.771   4.419  11.689
69688W        W41359  34.886  40.852  13.923
69689W        W41360  33.860  24.859  14.941
69690W        W41361  15.724  31.962  12.004
69691W        W41362   6.954   5.276  13.605
69692W        W41363  14.851  41.951   2.856
69693W        W41364  35.102   2.792   2.925
69694W        W41365  31.047  43.729  14.329
69695W        W41366  18.189  41.947   1.329
69696W        W41367  30.137  34.123  11.156
69697W        W41368  26.697  15.059   2.688
69698W        W41369  31.792  33.905   1.602
69699W        W41370  15.621   9.706   3.362
69700W        W41371  15.095  39.524   1.034
69701W        W41372  44.992  10.623   0.371
69702W        W41373  12.096   3.713   4.150
69703W        W41374  25.596  42.303  13.267
69704W        W41375  33.000  25.021  11.878
69705W        W41376  41.427  30.175   0.560
69706W        W41377  22.492  15.163  10.582
69707W        W41378  22.188  10.605  13.606
69708W        W41379   2.205  18.258   3.856
69709W        W41380   0.792   4.391   0.298
69710W        W41381  43.367  30.685   4.100
69711W        W41382  23.712  15.971   0.873
69712W        W41383  35.100   6.288   5.214
69713W        W41384  39.828   4.334  10.663
69714W        W41385  19.530  41.439  11.892
69715W        W41386  34.353  35.836   2.727
69716W        W41387  20.967  32.173   3.354
69717W        W41388  25.960  16.849   2.802
69718W        W41389  22.232  19.147   3.414
69719W        W41390  40.277  35.474  13.273
69720W        W41391   7.997  33.157  11.046
69721W        W41392  21.697  13.392   4.388
69722W        W41393   7.392  23.834   2.289
69723W        W41394  33.296   9.687  11.311
69724W        W41395  31.197  35.513  11.057
69725W        W41396   2.729   2.655  12.774
69726W        W41397   1.269  33.047  14.545
69727W        W41398  28.232  41.436   3.394
69728W        W41399  17.209  12.705   1.246
69729W        W41400  19.771  28.936   2.845
69730W        W41401  41.287   2.348   4.998
69731W        W41402  30.571  41.882  10.788
69732W        W41403  42.474  16.542   3.644
69733W        W41404  24.246  13.839  11.391
69734W        W41405   4.745  32.664   4.675
69735W        W41406  19.652  30.881  14.503
69736W        W41407  38.843  12.355  13.000
69737W        W41408  28.982  29.575  12.152
69738W        W41409  11.777   2.794  14.758
69739W        W41410  38.039   9.416  10.655
69740W        W41411  18.522  26.078  11.225
69741W        W41412   6.709  38.582  14.473
69742W        W41413  10.165  20.596  14.956
69743W        W41414  37.901  27.193  12.112
69744W        W41415  36.317  14.258   1.207
69745W        W41416  28.209  38.805  13.488
69746W        W41417  34.384  28.237  13.943
69747W        W41418   5.791   5.153   0.825
69748W        W41419   8.336   3.253  12.139
69749W        W41420   0.931  37.860  14.773
69750W        W41421  43.458  10.775  14.596
69751W        W41422  38.391  14.067   4.694
69752W        W41423  17.775   8.259   3.225
69753W        W41424  21.093  19.737   9.999
69754W        W41425  18.011  14.930   4.180
69755W        W41426   0.754  13.818  14.458
69756W        W41427  17.522  25.162   1.679
69757W        W41428  23.518  44.852  11.598
69758W        W41429  13.798  18.259  14.825
69759W        W41430  32.044  31.699   3.868
69760W        W41431  26.160  44.697   0.695
69761W        W41432   0.526  16.282  10.486
69762W        W41433  19.802  23.245   1.827
69763W        W41434  21.720   7.278   3.262
69764W        W41435  40.816   8.699  10.574
69765W        W41436  44.241  17.789   2.575
69766W        W41437   5.368  40.376  12.494
69767W        W41438  27.461   3.439  12.054
69768W        W41439  29.368  11.474   0.899
69769W        W41440   6.338   9.844   3.806
69770W        W41441  42.430  23.047  10.379
69771W        W41442  10.255  44.027  12.944
69772W        W41443  34.423  35.890  12.886
69773W        W41444   4.062   3.847  12.406
69774W        W41445  21.227   6.759   1.743
69775W        W41446  36.391  41.882   0.099
69776W        W41447   8.209  10.741  10.698
69777W        W41448  29.795  32.434   4.718
69778W        W41449  21.299  30.965  11.248
69779W        W41450   2.513  35.022   2.290
69780W        W41451  25.462   1.678   3.815
69781W        W41452  26.130  38.868   2.848
69782W        W41453  19.523  17.321  13.755
69783W        W41454  32.112  39.475  11.393
69784W        W41455  32.068   6.620  14.399
69785W        W41456  22.316  11.363   4.864
69786W        W41457   7.057   5.313  12.508
69787W        W41458   6.231   9.531   1.906
69788W        W41459  34.870  18.584   3.678
69789W        W41460  29.774   7.064   5.543
69790W        W41461  25.283   2.989  14.320
69791W        W41462  41.530  34.912   2.868
69792W        W41463  37.284  18.843   0.399
69793W        W41464  40.994   1.965   1.591
69794W        W41465  41.722  36.439   1.363
69795W        W41466  27.092  29.417   3.151
69796W        W41467  12.825  16.672  11.483
69797W        W41468  22.000  28.406  13.476
69798W        W41469  19.213   4.889   4.864
69799W        W41470  17.961  44.916  13.691
69800W        W41471  13.719  33.209   1.401
69801W        W41472  37.428  19.078  14.505
69802W        W41473  12.665   7.826  12.776
69803W        W41474  38.621  23.283   2.530
69804W        W41475  20.053  23.260   2.278
69805W        W41476  36.918  10.619   4.900
69806W        W41477  34.150  14.797   3.876
69807W        W41478   7.822  23.192   4.145
69808W        W41479  12.019  17.942  14.829
69809W        W41480   2.356  38.489  13.480
69810W        W41481  37.811  36.827   3.894
69811W        W41482  42.881  41.247  12.586
69812W        W41483   7.327   4.332  10.757
69813W        W41484   0.417   9.406   4.912
69814W        W41485  41.411  40.379  14.305
69815W        W41486  17.315  31.601   0.873
69816W        W41487  11.587  40.377   1.859
69817W        W41488  38.323  30.755  13.356
69818W        W41489  34.283  16.506   0.704
69819W        W41490  10.159  28.491   1.243
69820W        W41491  26.106  20.612  11.749
69821W        W41492  36.255  26.726   3.685
69822W        W41493  21.458   4.770  11.949
69823W        W41494   6.742  21.045  14.979
69824W        W41495  25.223  15.256   4.660
69825W        W41496  23.908  25.954  14.219
69826W        W41497  10.575  44.358  13.228
69827W        W41498  25.329   2.143  14.104
69828W        W41499  22.713  26.292  12.485
69829W        W41500  26.937  25.522   2.863
69830W        W41501  11.706  15.904   4.267
69831W        W41502  25.952   5.952   3.767
69832W        W41503  39.073   1.245   4.370
69833W        W41504  34.840  12.917  13.248
69834W        W41505  23.608  31.391  11.086
69835W        W41506  17.495  39.424  13.483
69836W        W41507  14.176  16.459   3.591
69837W        W41508  41.974   1.672  14.203
69838W        W41509  31.374   1.880   3.514
69839W        W41510  43.255  34.967   3.356
69840W        W41511  11.826   2.089  10.619
69841W        W41512   1.521  15.999  10.534
69842W        W41513  35.634  21.169   2.814
69843W        W41514  16.815   0.056  14.409
69844W        W41515  41.105  36.872  11.204
69845W        W41516  35.640   3.293  11.632
69846W        W41517  10.636   4.185  13.442
69847W        W41518   0.805  16.842  13.415
69848W        W41519  15.671  42.406  12.577
69849W        W41520   3.868  43.861  11.994
69850W        W41521  19.662  42.758  11.480
69851W        W41522  12.939  20.823  13.738
69852W        W41523   6.760   7.334  14.297
69853W        W41524   4.741  15.074  13.893
69854W        W41525  20.968  15.651   9.996
69855W        W41526  13.937  31.974  12.336
69856W        W41527  28.392   6.540   9.735
69857W        W41528   7.588  29.044  12.463
69858W        W41529  18.302   6.157  14.760
69859W        W41530  16.057  22.552   0.127
69860W        W41531   8.287  42.352  14.310
69861W        W41532  36.614  31.202   3.599
69862W        W41533  36.793  20.129  11.476
69863W        W41534  13.272  41.269  11.151
69864W        W41535   7.186   1.182  10.710
69865W        W41536  37.850  28.198   3.249
69866W        W41537  30.532  10.670  12.792
69867W        W41538  14.264   0.761   3.411
69868W        W41539  44.568  10.832  10.470
69869W        W41540  36.136  12.370  14.472
69870W        W41541  27.176  37.937  12.898
69871W        W41542  32.432   3.722   1.724
69872W        W41543  43.652  34.205   1.293
69873W        W41544  10.139  27.981  10.698
69874W        W41545  11.477  20.235  10.787
69875W        W41546   7.350  39.573  11.091
69876W        W41547  32.920  42.465   1.783
69877W        W41548  30.873  39.865  10.456
69878W        W41549   0.395  10.650  13.780
69879W        W41550  16.846  32.068   2.946
69880W        W41551  35.455   9.065   2.464
69881W        W41552  26.030  33.713   0.914
69882W        W41553  39.177  22.407   2.442
69883W        W41554   8.814  39.960   3.229
69884W        W41555  26.022  34.124   1.415
69885W        W41556  40.827   2.864   1.774
69886W        W41557  36.797   3.422   1.215
69887W        W41558   8.607  27.610   4.670
69888W        W41559  36.468  28.854   4.227
69889W        W41560  30.422  44.483  13.512
69890W        W41561  33.534  41.092   4.653
69891W        W41562  27.999   4.400   1.868
69892W        W41563   3.519  32.475  13.500
69893W        W41564   5.432  16.177  11.664
69894W        W41565  15.814  19.989   1.464
69895W        W41566  24.081  20.066   0.503
69896W        W41567   1.327   7.918   0.456
69897W        W41568  25.155  10.090  11.687
69898W        W41569  15.132  22.739  11.189
69899W        W41570  33.805  12.857   4.145
69900W        W41571  29.561  23.023  14.339
69901W        W41572  31.834  13.495   2.647
69902W        W41573  19.053  34.087   2.196
69903W        W41574  19.713  26.593  12.357
69904W        W41575  38.034   7.776   2.745
69905W        W41576  28.370  10.320   3.544
69906W        W41577  33.005  40.901   0.062
69907W        W41578  18.992  35.090   4.240
69908W        W41579  23.669  37.569   1.306
69909W        W41580  38.817  26.004   0.340
69910W        W41581  43.264  26.966  14.365
69911W        W41582  38.841  44.002   3.231
69912W        W41583  33.779   5.784   1.855
69913W        W41584   4.485   8.623  12.041
69914W        W41585  37.567  29.089  11.126
69915W        W41586   9.867  35.546  12.536
69916W        W41587  27.772  24.673  11.769
69917W        W41588   1.829  25.939  11.460
69918W        W41589   0.124  12.376   9.863
69919W        W41590   1.226   0.236  12.788
69920W        W41591  29.706  30.733  12.465
69921W        W41592  44.201  11.180   3.598
69922W        W41593  15.482   2.910  11.451
69923W        W41594   9.849  37.961  12.964
69924W        W41595  36.498  29.086  14.000
69925W        W41596  27.028  33.578   1.033
69926W        W41597  27.333  38.486   0.900
69927W        W41598  18.325   5.730  12.982
69928W        W41599  43.762  11.265  11.485
69929W        W41600  22.656  40.362  13.446
69930W        W41601   0.299  21.781   3.581
69931W        W41602  27.485   8.159  14.044
69932W        W41603   2.438  43.696   3.122
69933W        W41604  11.815   1.754  13.433
69934W        W41605  24.000  43.405  13.995
69935W        W41606  24.421  12.910  13.925
69936W        W41607  31.962  23.499  14.236
69937W        W41608  40.815   6.351  14.518
69938W        W41609  13.688  40.239  11.480
69939W        W41610   3.472  31.217  11.127
69940W        W41611  22.052  25.942  10.590
69941W        W41612  38.620  24.401  11.249
69942W        W41613  20.618   1.475  10.695
69943W        W41614   0.537   9.566  10.583
69944W        W41615  12.877  12.584  14.713
69945W        W41616  11.723   3.425  11.393
69946W        W41617  20.734   3.499  11.646
69947W        W41618  18.689  41.918  14.971
69948W        W41619  18.251  14.265   3.545
69949W        W41620  24.257  38.826  13.856
69950W        W41621   5.696   8.249   1.185
69951W        W41622  39.435  11.359   3.676
69952W        W41623  17.193  12.902   3.148
69953W        W41624   4.434  14.206   1.800
69954W        W41625  41.001  30.459   3.618
69955W        W41626   0.010  16.706   1.514
69956W        W41627  25.479   4.310   4.470
69957W        W41628  24.083   3.432   4.038
69958W        W41629  34.517   5.028  12.956
69959W        W41630  22.200  35.897   4.980
69960W        W41631  36.862  35.556   2.755
69961W        W41632  31.105  39.293  11.840
69962W        W41633  27.282  15.585  14.964
69963W        W41634   4.632  17.150   1.273
69964W        W41635  11.151  14.012  10.527
69965W        W41636  19.598  12.413   0.449
69966W        W41637  11.137   4.775   4.083
69967W        W41638  11.655  36.845   1.787
69968W        W41639  33.067  21.199  13.971
69969W        W41640  15.147  42.347   2.680
69970W        W41641  23.080  14.344  13.966
69971W        W41642  41.050  19.883  13.933
69972W        W41643  28.032  38.965   3.636
69973W        W41644  10.264  26.694  13.557
69974W        W41645  43.518  18.218   4.569
69975W        W41646  39.951  16.996  12.681
69976W        W41647  38.259  25.989  13.412
69977W        W41648   7.291  40.081   3.116
69978W        W41649  34.031  34.859   4.573
69979W        W41650  14.237   4.013   3.136
69980W        W41651  41.161  41.325  11.180
69981W        W41652  24.439  23.809  13.144
69982W        W41653  14.376  38.442   2.371
69983W        W41654  29.989  22.494   2.795
69984W        W41655  35.820  23.252   4.138
69985W        W41656  18.037  20.186   0.799
69986W        W41657  24.154   7.697   0.732
69987W        W41658   9.711  13.290  11.166
69988W        W41659  11.607  39.097   3.357
69989W        W41660  21.234   2.737  13.308
69990W        W41661  11.620  33.558   2.250
69991W        W41662  13.254  15.217   2.114
69992W        W41663  32.180   5.317  14.893
69993W        W41664  10.893  43.311  13.057
69994W        W41665  27.879  27.938   3.184
69995W        W41666  43.791  24.804   4.019
69996W        W41667  44.914  26.983   1.532
69997W        W41668  12.164  21.910  14.460
69998W        W41669  15.101  33.409   0.469
69999W        W41670  12.849  34.888   3.336
70000W        W41671  38.425  41.561   2.827
70001W        W41672  27.164  38.976   5.006
70002W        W41673  43.295  25.268   4.482
70003W        W41674  43.833  35.193  13.449
70004W        W41675  24.698  40.167  12.089
70005W        W41676  43.477  36.077   3.183
70006W        W41677  43.131  37.523   4.635
70007W        W41678  44.352  16.201  14.819
70008W        W41679   9.864  31.187   3.257
70009W        W41680  30.601  42.211   0.297
70010W        W41681  15.036   5.479  13.042
70011W        W41682  10.753   7.080   2.168
70012W        W41683  17.365  18.515  13.486
70013W        W41684   4.680  27.609   2.449
70014W        W41685   1.041  20.779  13.872
70015W        W41686  40.464  22.108   4.801
70016W        W41687  38.386  17.795  13.411
70017W        W41688  40.024   8.917   4.100
70018W        W41689  17.578  14.657  11.668
70019W        W41690  43.603  31.621   0.992
70020W        W41691  19.270  13.787  14.921
70021W        W41692  40.595  29.421  11.443
70022W        W41693  21.937  17.879   1.488
70023W        W41694   9.704   7.359   2.774
70024W        W41695  18.324  10.180   0.947
70025W        W41696  28.511  22.034  11.509
70026W        W41697   1.838   2.254  11.084
70027W        W41698  35.139  13.099  14.129
70028W        W41699  26.261   4.034   3.614
70029W        W41700  15.752  29.675  12.899
70030W        W41701  10.724  30.962   3.308
70031W        W41702  43.496   7.641  14.363
70032W        W41703  33.487   2.162  13.403
70033W        W41704  18.800   4.789   0.924
70034W        W41705  41.015  42.729  11.240
70035W        W41706  19.613   4.452   2.245
70036W        W41707  21.461  21.128   2.891
70037W        W41708  37.505  34.012   1.337
70038W        W41709   5.166  41.378   3.839
70039W        W41710  19.673  11.658  11.907
70040W        W41711  17.864  23.201  12.050
70041W        W41712  14.079  11.040   3.560
70042W        W41713  12.225  10.354   3.755
70043W        W41714   5.907  24.201  11.609
70044W        W41715   7.738  27.090  12.919
70045W        W41716  39.792  10.409  11.260
70046W        W41717  32.867   2.903   2.639
70047W        W41718  24.348  33.143   4.409
70048W        W41719   7.227  36.511   3.377
70049W        W41720  33.840  22.718  10.306
70050W        W41721  26.436  42.838  12.954
70051W        W41722  10.095  26.408   4.555
70052W        W41723   8.320  15.184  11.479
70053W        W41724   0.232  42.616   0.162
70054W        W41725   5.951   4.157  11.215
70055W        W41726   8.148  27.494  10.419
70056W        W41727  37.949  12.208   1.925
70057W        W41728  11.827   2.946   1.364
70058W        W41729  39.497  37.077   1.378
70059W        W41730  36.470   1.770   1.365
70060W        W41731   9.762  24.204  14.264
70061W        W41732  43.792  30.115   2.883
70062W        W41733  33.073  26.690   0.868
70063W        W41734  33.065  26.266  10.634
70064W        W41735  10.412  26.514   4.161
70065W        W41736  14.273   8.223  14.923
70066W        W41737   4.257  21.720   2.947
70067W        W41738  19.561  20.443   2.530
70068W        W41739   4.859  32.346   3.842
70069W        W41740   8.815  23.025   3.587
70070W        W41741   0.422  23.120  11.620
70071W        W41742  17.565  18.702   4.648
70072W        W41743  20.846   4.634   2.817
70073W        W41744   1.527  32.452   1.312
70074W        W41745  25.743   1.243   3.789
70075W        W41746  16.699  32.917   2.672
70076W        W41747  19.200  43.933   2.168
70077W        W41748  32.849  23.626  11.975
70078W        W41749   6.830  16.692   3.565
70079W        W41750   4.855  31.815   3.856
70080W        W41751   1.808  10.555   3.853
70081W        W41752  13.709  21.448  11.098
70082W        W41753  43.740  11.746   2.370
70083W        W41754  32.110  22.773   0.964
70084W        W41755   8.070  36.996  14.143
70085W        W41756  20.132  29.319  11.043
70086W        W41757  25.079  24.890   1.346
70087W        W41758  24.565  40.541  10.261
70088W        W41759  25.472  25.712  13.803
70089W        W41760  15.223   2.385  14.046
70090W        W41761  10.374  29.817  13.374
70091W        W41762  44.072  37.336   0.932
70092W        W41763   3.842  13.779   1.893
70093W        W41764  29.112  38.833   0.439
70094W        W41765  28.613   9.721  14.830
70095W        W41766   7.451   2.339  14.574
70096W        W41767   2.807   7.823  14.068
70097W        W41768   9.646  22.278   3.186
70098W        W41769  30.500  40.544  12.356
70099W        W41770   5.160  26.102   1.345
70100W        W41771  15.412  24.718   3.385
70101W        W41772  43.104  21.031   9.784
70102W        W41773  25.945  13.186  12.947
70103W        W41774   7.127  10.663   3.065
70104W        W41775  32.904  10.709   2.399
70105W        W41776  40.507  29.566  14.518
70106W        W41777  22.002  12.634  14.932
70107W        W41778  22.487  41.451   0.854
70108W        W41779  32.916  21.854  14.492
70109W        W41780  27.560  15.721   0.809
70110W        W41781  14.722  37.062   4.129
70111W        W41782  40.183  37.468   3.633
70112W        W41783  39.420  25.916  13.851
70113W        W41784  38.050  36.879   0.315
70114W        W41785  42.858  26.230   5.067
70115W        W41786  44.781  34.090  13.984
70116W        W41787  44.974  36.004  10.687
70117W        W41788   3.702  31.421   3.847
70118W        W41789  16.314  32.358  11.603
70119W        W41790  37.951  44.165  13.508
70120W        W41791  29.674  36.853  13.408
70121W        W41792   0.932  31.197   3.659
70122W        W41793  17.240  38.417  10.921
70123W        W41794   7.950  22.815  13.476
70124W        W41795  37.068  35.489  11.277
70125W        W41796  24.950   9.424   2.879
70126W        W41797  13.229  22.860  12.873
70127W        W41798  21.560   5.242   0.313
70128W        W41799   6.921  24.701   3.987
70129W        W41800  28.617  41.954   4.384
70130W        W41801  35.943  22.310   1.480
70131W        W41802  37.444  28.742  13.883
70132W        W41803  43.823  25.748  13.993
70133W        W41804  10.633  27.624  14.401
70134W        W41805   4.727  15.527   2.762
70135W        W41806  38.459  22.006   2.356
70136W        W41807   3.922  24.644   1.168
70137W        W41808  26.635  41.756   2.896
70138W        W41809   1.593  26.779  14.161
70139W        W41810  16.574  40.885  13.446
70140W        W41811  26.134  35.174   4.960
70141W        W41812  20.309  17.812  11.508
70142W        W41813   5.236  37.010   1.768
70143W        W41814  43.554  33.196   3.933
70144W        W41815   2.799  27.565  11.521
70145W        W41816  33.879  28.425  10.598
70146W        W41817  33.992  18.401  10.702
70147W        W41818  14.678  18.307  13.328
70148W        W41819  30.003   9.658  10.593
70149W        W41820  26.923  32.131  14.738
70150W        W41821  12.871  23.441   2.664
70151W        W41822  24.173  21.938  12.129
70152W        W41823  32.962  40.548   0.422
70153W        W41824  31.348   7.217  14.226
70154W        W41825   8.169  35.843  10.723
70155W        W41826   6.448  20.330  10.670
70156W        W41827  28.609  33.951   2.616
70157W        W41828   9.251  36.901  11.797
70158W        W41829  23.100  41.403  14.288
70159W        W41830  40.820  26.089  12.178
70160W        W41831  16.654  18.651   2.870
70161W        W41832  23.422  18.172  12.075
70162W        W41833   0.811  28.003  12.904
70163W        W41834  28.556  31.072   0.282
70164W        W41835  12.222   6.470   4.373
70165W        W41836   2.482  34.940   0.753
70166W        W41837  39.181   3.863   2.269
70167W        W41838   2.442  16.758  11.211
70168W        W41839  42.770  19.679  12.842
70169W        W41840  15.321  41.215   4.233
70170W        W41841  20.270  21.279   1.862
70171W        W41842  34.862  27.278  13.134
70172W        W41843  15.114  27.794   0.087
70173W        W41844  39.577  23.486  14.309
70174W        W41845  35.138  18.579  10.818
70175W        W41846  38.578  42.263  11.272
70176W        W41847  40.075  28.556   2.209
70177W        W41848  11.286  25.952  11.149
70178W        W41849  32.959   0.898   1.762
70179W        W41850  38.868   8.713   3.312
70180W        W41851   4.897  24.170  14.813
70181W        W41852  12.154  17.032  12.605
70182W        W41853  27.896  14.117  14.530
70183W        W41854  37.121  34.903   0.255
70184W        W41855  37.498  35.258  10.605
70185W        W41856  27.424  44.480   3.541
70186W        W41857  26.265  43.546   2.658
70187W        W41858  29.394  19.512   0.906
70188W        W41859  27.594  22.000   0.371
70189W        W41860   2.822   7.931   4.178
70190W        W41861   3.904  23.068  14.865
70191W        W41862  12.668  35.564  14.622
70192W        W41863  33.893   5.643  14.152
70193W        W41864  24.671   7.483   3.851
70194W        W41865  17.161  30.891   3.621
70195W        W41866  44.782  29.663   2.630
70196W        W41867  39.831  35.379  14.018
70197W        W41868  34.501  34.509   2.977
70198W        W41869  44.514  28.782   4.143
70199W        W41870  35.564   9.810  13.554
70200W        W41871  31.864   5.471  12.070
70201W        W41872  16.214   9.866  13.107
70202W        W41873  20.133  34.535  13.268
70203W        W41874  12.340  42.676  14.287
70204W        W41875  28.518  33.399   4.317
70205W        W41876   6.183   6.222  14.122
70206W        W41877  38.120  35.552   4.111
70207W        W41878   3.291  16.491   2.429
70208W        W41879  24.974   3.412   0.484
70209W        W41880  20.669  17.456  14.751
70210W        W41881  42.819  43.885  13.863
70211W        W41882  18.805   0.555  13.430
70212W        W41883  41.258  20.483   1.851
70213W        W41884  40.616  20.533  11.444
70214W        W41885   3.220  15.173  10.273
70215W        W41886  19.069  30.436  11.970
70216W        W41887  20.570  23.471   2.163
70217W        W41888  34.313   6.781   4.198
70218W        W41889   2.388  11.906   3.642
70219W        W41890  15.782  10.711   1.873
70220W        W41891  23.000  41.391  13.747
70221W        W41892  23.514   3.121  11.454
70222W        W41893  31.666  21.107   2.877
70223W        W41894   9.571  34.652  14.780
70224W        W41895  40.920   6.855  11.647
70225W        W41896  31.515  44.907   3.231
70226W        W41897   4.170  32.556   0.992
70227W        W41898  30.435  11.900   3.324
70228W        W41899  23.650   1.809  11.969
70229W        W41900  42.381  32.225   3.731
70230W        W41901  10.220  17.090   0.091
70231W        W41902  24.718  19.258   4.127
70232W        W41903   8.757  27.337  12.614
70233W        W41904  24.642  10.652  11.871
70234W        W41905  29.996  30.576  12.035
70235W        W41906  43.252  14.758  11.790
70236W        W41907  39.041  20.557   3.573
70237W        W41908   0.937  34.598   4.781
70238W        W41909  19.956  40.883   4.221
70239W        W41910  36.954  29.928  14.832
70240W        W41911  36.094   2.891   4.627
70241W        W41912  11.391  28.271  13.617
70242W        W41913  37.822  21.045  13.506
70243W        W41914  34.745  24.097   3.602
70244W        W41915  32.674  31.973  14.399
70245W        W41916   5.365   9.692  12.441
70246W        W41917  44.788  19.709   3.339
70247W        W41918  36.447  14.796   2.564
70248W        W41919   5.903   3.108   2.676
70249W        W41920  35.334  14.177   2.480
70250W        W41921  34.102  27.013  13.419
70251W        W41922  40.417  19.716   4.895
70252W        W41923  24.226  38.724   1.662
70253W        W41924  32.607  12.680   1.178
70254W        W41925   5.355  15.992  12.773
70255W        W41926  11.223  10.205  12.617
70256W        W41927  43.840  31.054  12.195
70257W        W41928  23.653  19.781  10.685
70258W        W41929  34.857   4.499  11.808
70259W        W41930  27.949  38.544  11.938
70260W        W41931  31.931  33.022   1.754
70261W        W41932  36.379  37.884   4.113
70262W        W41933  36.821  43.027  14.414
70263W        W41934  30.657   9.172  11.537
70264W        W41935  32.454   7.287   2.366
70265W        W41936  16.348   5.227   1.103
70266W        W41937   1.827  34.280   1.690
70267W        W41938  35.505   5.349  12.475
70268W        W41939  16.150  20.614  14.369
70269W        W41940  42.797   0.723   5.030
70270W        W41941  41.916  42.835  11.540
70271W        W41942  25.187   8.235   4.544
70272W        W41943  20.026   0.971   2.871
70273W        W41944  24.750   3.926  13.041
70274W        W41945  28.492  35.126  11.494
70275W        W41946  13.639  44.847  14.483
70276W        W41947  28.485  44.263  13.780
70277W        W41948  26.219  27.670   1.771
70278W        W41949  21.691  19.575  10.622
70279W        W41950  44.329  14.280  14.858
70280W        W41951  39.730   8.683  12.610
70281W        W41952  40.594   5.769  10.758
70282W        W41953  31.242  10.862   4.863
70283W        W41954  32.280  10.800  14.860
70284W        W41955  19.509  18.880  11.644
70285W        W41956  42.907  19.243   0.266
70286W        W41957  19.117  22.482   3.174
70287W        W41958  40.007  19.614   4.572
70288W        W41959  37.803  33.206   4.576
70289W        W41960  27.569  29.706   4.305
70290W        W41961  32.223  32.403  12.505
70291W        W41962   3.841  24.507   2.131
70292W        W41963  24.005   4.302  11.012
70293W        W41964   3.602   1.276  11.258
70294W        W41965  38.566  44.924  13.481
70295W        W41966  36.392  33.121  10.551
70296W        W41967  27.584  38.365  14.719
70297W        W41968   2.911  38.371   2.902
70298W        W41969  40.079  33.011   0.294
70299W        W41970  21.580  33.645   2.802
70300W        W41971  26.600  29.293   1.191
70301W        W41972  31.640  25.968   3.176
70302W        W41973  34.619  11.055  11.601
70303W        W41974  34.065   6.674  11.590
70304W        W41975  19.577   4.933  14.663
70305W        W41976  11.294  26.440  12.324
70306W        W41977  12.863   9.412   3.891
70307W        W41978  21.108  16.467   2.402
70308W        W41979  29.511  41.500  11.939
70309W        W41980  21.182   5.877   4.466
70310W        W41981   1.319  38.760  12.360
70311W        W41982  42.664   7.955   2.414
70312W        W41983   2.005  44.743  12.920
70313W        W41984  40.812   3.818  13.168
70314W        W41985  18.030  34.416  10.937
70315W        W41986  26.222  37.900  12.510
70316W        W41987   0.113  33.240  11.545
70317W        W41988  31.210   3.203   1.790
70318W        W41989  29.617  27.140   3.191
70319W        W41990   8.708  10.775  10.701
70320W        W41991  21.333   2.378   0.108
70321W        W41992  30.381  40.488   0.965
70322W        W41993  17.694  39.889  12.076
70323W        W41994  35.921  34.528  13.111
70324W        W41995   2.880  16.564  11.585
70325W        W41996  20.998  29.141   3.665
70326W        W41997  21.741  12.724  12.978
70327W        W41998  41.094  25.877   1.965
70328W        W41999  34.046  41.979  10.688
70329W        W42000  23.269  10.749  10.696
70330W        W42001  42.490  29.469  14.855
70331W        W42002   9.295  24.229  14.021
70332W        W42003  12.211   5.771  10.458
70333W        W42004  37.404  39.225  12.900
70334W        W42005  18.818  23.004   4.237
70335W        W42006  40.831  34.922  14.510
70336W        W42007  44.113   2.955  14.318
70337W        W42008   1.280  37.786   2.931
70338W        W42009  24.590  25.561  11.703
70339W        W42010  10.745  17.444   4.920
70340W        W42011   7.320   9.927   2.460
70341W        W42012   9.918  17.298  13.264
70342W        W42013  40.890  27.653   2.839
70343W        W42014  34.655  26.305  13.980
70344W        W42015   3.810  11.969   1.584
70345W        W42016  14.272  26.285  11.910
70346W        W42017  37.781  33.244   0.951
70347W        W42018   9.754  22.134   1.292
70348W        W42019  40.531  30.868   0.936
70349W        W42020  28.999  24.070  11.992
70350W        W42021  34.032  21.176  12.637
70351W        W42022  30.685  24.908   1.258
70352W        W42023  44.191   8.766   9.775
70353W        W42024  28.111  27.930  11.454
70354W        W42025  14.374  20.482   3.401
70355W        W42026   9.331  11.844  14.602
70356W        W42027   4.307   5.341   1.743
70357W        W42028   9.012  32.671   2.394
70358W        W42029  39.746  27.064   2.978
70359W        W42030   0.337  18.649   2.813
70360W        W42031  24.279  20.029  11.625
70361W        W42032  39.212  39.158   4.010
70362W        W42033  37.988   3.793   4.095
70363W        W42034  43.483   5.794   1.059
70364W        W42035  21.940  18.413   4.319
70365W        W42036   4.164  36.603   3.749
70366W        W42037  12.887  32.022  12.446
70367W        W42038  12.550  18.702   4.652
70368W        W42039  38.422  43.403  10.706
70369W        W42040  19.069   8.907  12.666
70370W        W42041  24.564  36.430  14.956
70371W        W42042  24.720  28.181   0.847
70372W        W42043  11.173  15.761  14.487
70373W        W42044   6.699  41.436   0.304
70374W        W42045   8.906  38.852   2.905
70375W        W42046   9.711  41.079  12.948
70376W        W42047   1.514   6.296  13.050
70377W        W42048  37.422  25.029   1.675
70378W        W42049  29.770   2.487  11.978
70379W        W42050  43.291  36.565   3.154
70380W        W42051  32.141  16.814   4.636
70381W        W42052  42.076  40.121   4.732
70382W        W42053  37.808  41.682   4.582
70383W        W42054   0.366  18.112  10.842
70384W        W42055  23.251  40.845   2.672
70385W        W42056  18.129  29.951  12.083
70386W        W42057  25.137  43.332   4.090
70387W        W42058  35.428   1.199  10.948
70388W        W42059  39.058  39.701  10.952
70389W        W42060   9.739  27.754   1.730
70390W        W42061  38.468   7.947   1.849
70391W        W42062  29.951  32.614   3.614
70392W        W42063  13.312  19.110  11.680
70393W        W42064  22.649  42.501   4.571
70394W        W42065  25.054  15.752   0.705
70395W        W42066  18.269   2.763   0.251
70396W        W42067  10.730  14.300  10.637
70397W        W42068  36.415   2.613  10.814
70398W        W42069  13.028  15.719   4.688
70399W        W42070  44.245  11.598   1.189
70400W        W42071  32.640   8.696  12.604
70401W        W42072  35.615   8.653  11.683
70402W        W42073  39.551   1.908  10.692
70403W        W42074  35.056   7.735   1.257
70404W        W42075  37.579   2.675   4.927
70405W        W42076   9.366  20.663   4.209
70406W        W42077  38.387  38.481  14.375
70407W        W42078  20.666  31.189   2.752
70408W        W42079  32.603   9.191  11.233
70409W        W42080  10.707  20.568  14.225
70410W        W42081   0.537   7.328   3.083
70411W        W42082  38.457  38.423   4.405
70412W        W42083  35.390  43.715  13.458
70413W        W42084  14.349  20.063   0.168
70414W        W42085  34.128  13.325   2.617
70415W        W42086  15.760  33.320  14.201
70416W        W42087  43.243  14.124   4.024
70417W        W42088   0.931  30.477  10.182
70418W        W42089  34.083   2.870   0.887
70419W        W42090   7.460  38.114  11.646
70420W        W42091  26.456   1.914  13.474
70421W        W42092  21.059  43.960   0.507
70422W        W42093  20.049  33.843  12.621
70423W        W42094  11.564  31.577  11.431
70424W        W42095  42.556  19.662  11.679
70425W        W42096  21.244  28.107  12.368
70426W        W42097  13.316  23.144   3.496
70427W        W42098  35.840  34.348   3.285
70428W        W42099   2.975  18.093  11.107
70429W        W42100  21.217  29.764   4.534
70430W        W42101  38.916  31.000   3.544
70431W        W42102   0.857  30.602  10.694
70432W        W42103   4.693  40.220   2.211
70433W        W42104  31.789  25.179  13.191
70434W        W42105   4.668  31.016   2.266
70435W        W42106  40.723  13.626  13.359
70436W        W42107  12.191  10.888   0.191
70437W        W42108  33.951  30.474  12.418
70438W        W42109  28.952  20.015  11.410
70439W        W42110  42.916  40.717  12.519
70440W        W42111  21.224  36.808   9.703
70441W        W42112   0.897  17.036   5.120
70442W        W42113  39.074   4.999   4.693
70443W        W42114  36.824  28.544  13.159
70444W        W42115  35.947  43.381  11.547
70445W        W42116   5.590  17.941  13.402
70446W        W42117  21.598   0.497   2.550
70447W        W42118   7.245   7.663  14.430
70448W        W42119   5.767  29.374   1.448
70449W        W42120  16.116  21.719   1.281
70450W        W42121   1.571  43.011   2.313
70451W        W42122  35.662  27.424   4.845
70452W        W42123  30.550  42.363   2.680
70453W        W42124   0.546  13.080   2.205
70454W        W42125  39.211   3.861  10.970
70455W        W42126  39.436  43.187  11.582
70456W        W42127  31.534  25.032   3.328
70457W        W42128  15.300   3.902  13.889
70458W        W42129  11.163  27.076  12.934
70459W        W42130  18.612   0.432  13.964
70460W        W42131  16.273  17.501   0.736
70461W        W42132  12.729  33.107  13.131
70462W        W42133  42.864   6.869   2.887
70463W        W42134  20.812   0.211   0.323
70464W        W42135  39.083  37.076  11.065
70465W        W42136  20.576  17.318   1.638
70466W        W42137  42.988  41.604   4.603
70467W        W42138   1.145  16.658   4.651
70468W        W42139  28.589  24.375   0.923
70469W        W42140  22.683  43.854   3.573
70470W        W42141  13.651   5.932  14.049
70471W        W42142  44.161  30.786  11.599
70472W        W42143  24.902  42.936   4.348
70473W        W42144   2.351  14.641   4.762
70474W        W42145  19.106  19.559  14.163
70475W        W42146   5.893  27.663  13.076
70476W        W42147   2.596   2.831   3.635
70477W        W42148   6.003   3.965  12.431
70478W        W42149   6.614  32.122   4.206
70479W        W42150  37.571  21.711  10.998
70480W        W42151  16.674  40.367  13.349
70481W        W42152  17.076  26.211   4.285
70482W        W42153   4.912   8.857   3.866
70483W        W42154  32.108   9.289  11.274
70484W        W42155   9.106  18.704   1.755
70485W        W42156  10.346  16.595  14.802
70486W        W42157  43.047   8.431   3.809
70487W        W42158  33.920  29.483   4.224
70488W        W42159  26.148  24.148  11.957
70489W        W42160  15.762  43.030  12.046
70490W        W42161   0.714  19.976   4.111
70491W        W42162  32.383  32.885  11.578
70492W        W42163  17.578  14.226   3.777
70493W        W42164  16.273  11.422  11.591
70494W        W42165  12.307  24.938  12.904
70495W        W42166  22.733  13.931  14.011
70496W        W42167  21.098  39.092  12.141
70497W        W42168  37.570   1.236   4.934
70498W        W42169   3.879  37.619  14.461
70499W        W42170  22.739   8.975  10.298
70500W        W42171  22.557  44.140   1.271
70501W        W42172  33.465  33.455   4.573
70502W        W42173  30.572  31.189  12.088
70503W        W42174   6.696   3.356   4.741
70504W        W42175  34.348  23.045   3.279
70505W        W42176  12.325  26.118   0.413
70506W        W42177  41.313  33.860  11.591
70507W        W42178  42.214  35.589   2.919
70508W        W42179  13.386  11.217  11.811
70509W        W42180   0.164   5.281   1.975
70510W        W42181  17.450  14.325   5.584
70511W        W42182  34.349  25.262   2.871
70512W        W42183  13.752  35.773   3.697
70513W        W42184   2.828  20.164  13.979
70514W        W42185  39.783  28.489   4.039
70515W        W42186  37.364  35.550   1.260
70516W        W42187  39.475  31.469  12.378
70517W        W42188  14.011   7.225   2.285
70518W        W42189  40.954  29.010  14.633
70519W        W42190   0.837  29.632  13.201
70520W        W42191  34.747  15.342  12.922
70521W        W42192  43.878   4.259  12.318
70522W        W42193   7.723  18.956   4.086
70523W        W42194  24.624  18.781   2.417
70524W        W42195  10.727  17.855   0.783
70525W        W42196  37.978  29.615   2.378
70526W        W42197  28.779   2.399   2.752
70527W        W42198  15.334   2.350  12.084
70528W        W42199  32.080  24.129   3.662
70529W        W42200  43.996  43.376   4.176
70530W        W42201   7.572  21.002   5.189
70531W        W42202  38.381  19.149   1.422
70532W        W42203  30.974   6.278   3.349
70533W        W42204  20.588  12.638   2.757
70534W        W42205  43.299  14.377   0.826
70535W        W42206  23.966   3.970  11.550
70536W        W42207  17.155  34.623   1.294
70537W        W42208   3.357   7.406   3.359
70538W        W42209  10.720   0.440   4.617
70539W        W42210   1.349   4.218   3.995
70540W        W42211  24.633   7.470   0.645
70541W        W42212  35.771   1.373   1.710
70542W        W42213  14.983   9.304   2.696
70543W        W42214  10.079  16.021   5.108
70544W        W42215  41.376   4.358   4.460
70545W        W42216  16.388  33.748  11.567
70546W        W42217  24.252  33.892  12.869
70547W        W42218  16.819  24.601  13.330
70548W        W42219  20.711  37.509  12.535
70549W        W42220  15.758  13.064   2.002
70550W        W42221   6.101   4.243  12.009
70551W        W42222  19.057   1.535   2.260
70552W        W42223  19.993  20.478   0.131
70553W        W42224   5.617   5.398  14.819
70554W        W42225  21.005  18.851   3.069
70555W        W42226  35.584  33.870   3.130
70556W        W42227  35.545  28.742   0.373
70557W        W42228  41.005  40.454  11.227
70558W        W42229  25.790  22.753   2.635
70559W        W42230  20.325   6.404   4.487
70560W        W42231   4.201  36.564   1.885
70561W        W42232  10.673   7.151  12.618
70562W        W42233  19.791  41.453   2.339
70563W        W42234  33.815  18.143   1.046
70564W        W42235   6.027   7.370   1.202
70565W        W42236  37.090  27.963  10.638
70566W        W42237  32.562  21.054  10.992
70567W        W42238  33.418  25.613   1.449
70568W        W42239  13.161   1.738  13.884
70569W        W42240  28.020   8.472   1.830
70570W        W42241  25.118  40.362  12.958
70571W        W42242  39.428  11.507  12.908
70572W        W42243  39.500  44.970   0.276
70573W        W42244  36.459  24.510   2.920
70574W        W42245  39.335   3.797   0.556
70575W        W42246   0.933  10.886   3.839
70576W        W42247  40.397   4.552  11.677
70577W        W42248  17.162  30.439  14.327
70578W        W42249  40.310  29.995   4.903
70579W        W42250  17.064  12.223   1.375
70580W        W42251  14.689   2.039   0.972
70581W        W42252  34.917  35.987   4.639
70582W        W42253  35.324  40.778  10.996
70583W        W42254  29.961  41.536  11.589
70584W        W42255  21.011  13.654   4.553
70585W        W42256  13.111  30.023   4.177
70586W        W42257   6.830   2.418   0.463
70587W        W42258   7.819  11.317   3.759
70588W        W42259  11.775   9.324   0.331
70589W        W42260  23.193  17.754  13.585
70590W        W42261  15.795  30.466  10.148
70591W        W42262  31.078   4.465  10.820
70592W        W42263  34.333   6.893   2.810
70593W        W42264  41.813  42.905  10.214
70594W        W42265  32.368  19.557  13.292
70595W        W42266   5.828   3.531   2.978
70596W        W42267   1.547  17.864   3.361
70597W        W42268  27.030  12.206   3.234
70598W        W42269  11.756   5.694  10.144
70599W        W42270  40.852  21.022   0.355
70600W        W42271  38.799   4.355  14.723
70601W        W42272  14.719  13.691   1.381
70602W        W42273  43.298  42.327   4.595
70603W        W42274  28.721  12.964   4.011
70604W        W42275  36.958  29.041   4.404
70605W        W42276   9.313  15.105  11.147
70606W        W42277  25.574  11.525  14.425
70607W        W42278  44.788  11.178  13.473
70608W        W42279  41.473  12.046  12.041
70609W        W42280  14.733   4.106   5.392
70610W        W42281  13.052  44.581   3.735
70611W        W42282  43.532  41.771  10.232
70612W        W42283  21.999  42.402   1.432
70613W        W42284  19.353  19.925  14.863
70614W        W42285  16.098  27.433   4.051
70615W        W42286   4.328  29.465  11.448
70616W        W42287  34.015  20.222   3.289
70617W        W42288  21.518   1.270  14.996
70618W        W42289   6.160  29.889  12.320
70619W        W42290  14.595  14.196  14.534
70620W        W42291  30.455  14.081   0.466
70621W        W42292  22.464   0.440   2.713
70622W        W42293  37.008  22.414   2.381
70623W        W42294  17.766  22.871   2.333
70624W        W42295  18.249  25.988  13.918
70625W        W42296  23.467   5.888  13.623
70626W        W42297  18.029  27.995  14.218
70627W        W42298  43.686  41.140   3.685
70628W        W42299  20.131  22.278   1.817
70629W        W42300  23.108   9.461  11.999
70630W        W42301  16.716  12.312   2.755
70631W        W42302  10.054  28.542   4.504
70632W        W42303  31.509  37.640   2.735
70633W        W42304  29.446  20.058  11.184
70634W        W42305   2.679  32.459  13.852
70635W        W42306  28.416  12.263   0.118
70636W        W42307  21.785   0.938  12.063
70637W        W42308  10.176  13.878   0.322
70638W        W42309  26.575   0.188  14.896
70639W        W42310  25.710  39.062  13.502
70640W        W42311  41.250  16.303  12.145
70641W        W42312   9.442   4.915   2.297
70642W        W42313  18.590  21.110  13.594
70643W        W42314  20.717  19.550   2.942
70644W        W42315  30.554  38.109  10.851
70645W        W42316   1.890  18.724  12.884
70646W        W42317   6.906  39.875  10.724
70647W        W42318  26.965  33.997   4.667
70648W        W42319  20.575  27.560   0.483
70649W        W42320  20.981  40.348   2.330
70650W        W42321  11.371   6.594   0.653
70651W        W42322  16.412  37.949   3.379
70652W        W42323  11.241  19.064   0.270
70653W        W42324  39.568  43.021   3.679
70654W        W42325  22.306   1.005  12.476
70655W        W42326  21.215  17.496   1.903
70656W        W42327  38.453  44.463   3.706
70657W        W42328  12.688  25.511  11.453
70658W        W42329   1.418  25.484  12.587
70659W        W42330  26.197   8.522   1.454
70660W        W42331   3.216  20.789   0.113
70661W        W42332  32.156  16.183   1.897
70662W        W42333  34.558  29.442  14.758
70663W        W42334   2.808  37.379  10.973
70664W        W42335   6.588  37.676  14.680
70665W        W42336  32.962   7.143   0.371
70666W        W42337   8.685  25.777  13.475
70667W        W42338  11.371  37.058   0.386
70668W        W42339   7.475  39.156   0.039
70669W        W42340  30.746  19.214  14.112
70670W        W42341   4.839  11.356   3.280
70671W        W42342  13.310  22.170  11.126
70672W        W42343  12.170  18.713   1.521
70673W        W42344  36.556  27.362  12.951
70674W        W42345  37.545  11.323   2.873
70675W        W42346  43.385   1.541   2.800
70676W        W42347  26.232   7.309   2.454
70677W        W42348  23.021  26.134  12.084
70678W        W42349  22.085  30.479   2.817
70679W        W42350  16.095  23.611   0.539
70680W        W42351   1.230  42.703   3.732
70681W        W42352  31.821  20.255   2.751
70682W        W42353  43.299  29.108   1.876
70683W        W42354  25.748  22.759  11.114
70684W        W42355  26.152  18.256   1.910
70685W        W42356   6.212  36.993  12.203
70686W        W42357  44.368  30.127   1.803
70687W        W42358   8.872  17.636   1.180
70688W        W42359   1.273   3.126   4.869
70689W        W42360  16.876   7.279   2.842
70690W        W42361  27.006  27.665   3.647
70691W        W42362  34.834  31.068   1.764
70692W        W42363   9.122  43.005  13.464
70693W        W42364  42.965   9.320  12.105
70694W        W42365  38.818   0.345  12.472
70695W        W42366   2.378  14.090   4.197
70696W        W42367  12.045   4.431  14.927
70697W        W42368  20.420  30.783   4.174
70698W        W42369  29.020  10.138  10.683
70699W        W42370  11.294  39.998   4.171
70700W        W42371  20.105  28.478   2.871
70701W        W42372  30.348  25.440   4.596
70702W        W42373  10.862  14.631   2.453
70703W        W42374  41.876  21.998   3.722
70704W        W42375   5.615  39.489   3.761
70705W        W42376  37.785   6.218  10.748
70706W        W42377  33.993   6.929  13.827
70707W        W42378   0.532  31.045   4.802
70708W        W42379   8.096  27.947  11.158
70709W        W42380  37.899  41.685  12.732
70710W        W42381  40.204  29.014   2.812
70711W        W42382  42.741   6.652  10.703
70712W        W42383   1.795   6.658   3.637
70713W        W42384  28.846  13.524  12.751
70714W        W42385  37.986  44.335   3.878
70715W        W42386   8.648  18.147   2.956
70716W        W42387  26.659  37.388   3.571
70717W        W42388  41.246  17.386   1.722
70718W        W42389  11.262  40.520   4.236
70719W        W42390  26.032  18.749   2.763
70720W        W42391  43.969  12.915   5.162
70721W        W42392  37.614  25.496   1.790
70722W        W42393  33.626  26.258  10.144
70723W        W42394  40.965   7.020   4.170
70724W        W42395  43.002  32.932  14.464
70725W        W42396  39.487  25.107   2.217
70726W        W42397  36.069  26.508   1.021
70727W        W42398  40.477  40.544  12.512
70728W        W42399  18.806  36.874  12.472
70729W        W42400  18.576  37.577  10.297
70730W        W42401  43.682  21.512  10.049
70731W        W42402   1.197  37.731   3.443
70732W        W42403  19.726  21.156  14.315
70733W        W42404  18.718  32.009   4.129
70734W        W42405  10.630  24.056  10.722
70735W        W42406  34.413  23.624   2.245
70736W        W42407   5.136  12.804   3.226
70737W        W42408  43.881   2.811  13.843
70738W        W42409  17.521  27.447  13.920
70739W        W42410  42.102  36.109   4.992
70740W        W42411  33.938  39.740  12.178
70741W        W42412  44.036   4.247   1.733
70742W        W42413  17.670  10.678  12.447
70743W        W42414  26.590  20.782  13.435
70744W        W42415  28.677  10.124  13.436
70745W        W42416  10.343   9.753  11.653
70746W        W42417  19.069  23.309  10.718
70747W        W42418  44.816  40.990   2.292
70748W        W42419  15.928  19.064   4.173
70749W        W42420  11.685  30.200  10.403
70750W        W42421  35.483  16.515  12.904
70751W        W42422   5.374  15.443   0.355
70752W        W42423  25.522  41.814   0.680
70753W        W42424  18.850  33.519   1.831
70754W        W42425  23.483   0.478   4.484
70755W        W42426  12.159  20.116  11.519
70756W        W42427  15.675  27.847  12.419
70757W        W42428  31.126   5.142   2.411
70758W        W42429  22.559  39.551   0.942
70759W        W42430  25.867   9.096   4.202
70760W        W42431  19.351  41.212  13.539
70761W        W42432  44.417  30.834   0.442
70762W        W42433   3.275  33.974   0.666
70763W        W42434  20.603  44.229  10.973
70764W        W42435  15.088   7.648   4.089
70765W        W42436  40.498   8.832   2.710
70766W        W42437  28.044  43.500  12.060
70767W        W42438  44.042  43.976   4.656
70768W        W42439  18.785  19.280  11.899
70769W        W42440  12.219  33.275  12.684
70770W        W42441  12.629  12.791  10.683
70771W        W42442  21.381   7.691  12.122
70772W        W42443  19.630  18.029  11.545
70773W        W42444  31.068  12.252   4.389
70774W        W42445  18.653  29.223   4.598
70775W        W42446  43.473  10.031  12.652
70776W        W42447  34.099   7.244  10.759
70777W        W42448  36.616  10.945   3.303
70778W        W42449  12.460   0.862  13.020
70779W        W42450  27.988  37.006  14.596
70780W        W42451  22.256  34.289  12.078
70781W        W42452  38.980  37.937   3.156
70782W        W42453  33.968  20.250  14.506
70783W        W42454  19.157   4.557  12.733
70784W        W42455  13.705  28.136   0.358
70785W        W42456  34.166   5.211   1.197
70786W        W42457  36.214  20.620  12.514
70787W        W42458  18.142  13.941   4.581
70788W        W42459  14.638  25.432  13.762
70789W        W42460  24.840   8.538   2.644
70790W        W42461  18.784   2.144   5.028
70791W        W42462  10.610  32.325  14.720
70792W        W42463  39.345  21.205  13.458
70793W        W42464   5.008  21.715  14.642
70794W        W42465   8.422  31.000   0.768
70795W        W42466   8.849   6.148  10.792
70796W        W42467  32.385  10.190  11.055
70797W        W42468  31.478   5.773  13.320
70798W        W42469  38.972  30.232  12.127
70799W        W42470  29.493  12.129   2.122
70800W        W42471  14.655   8.924  14.310
70801W        W42472  11.743  15.602   3.289
70802W        W42473  15.835  17.379  14.231
70803W        W42474  38.986  21.563   3.686
70804W        W42475  28.478  26.890   0.385
70805W        W42476   5.237  41.341  14.061
70806W        W42477   4.525   8.706  13.084
70807W        W42478  27.188  11.265   0.677
70808W        W42479  23.161   8.114   4.128
70809W        W42480  42.775  35.666  12.058
70810W        W42481  36.776  26.018   0.885
70811W        W42482   6.099  33.208  12.112
70812W        W42483  38.412  40.901   3.460
70813W        W42484   7.630  26.708  10.718
70814W        W42485  41.744  39.420  11.131
70815W        W42486  20.104  23.802   4.090
70816W        W42487  30.211  16.156  14.146
70817W        W42488  10.657   6.424  10.233
70818W        W42489  13.322   9.622  13.033
70819W        W42490  25.749  32.816  14.951
70820W        W42491   5.477  34.950   3.717
70821W        W42492   2.970   1.025   1.511
70822W        W42493   0.137   6.822   0.030
70823W        W42494  15.695  32.614   1.382
70824W        W42495  44.857   5.739  11.660
70825W        W42496  14.097  11.372  13.430
70826W        W42497   5.436  15.197  10.432
70827W        W42498   7.815  25.978  13.287
70828W        W42499  42.534  36.569   1.739
70829W        W42500  33.546  36.722   0.692
70830W        W42501  30.201  15.305  11.994
70831W        W42502  21.740  44.419   4.604
70832W        W42503  23.613  14.435  13.994
70833W        W42504  27.548  15.953  11.452
70834W        W42505  21.536  38.886  12.384
70835W        W42506  25.659  11.611  11.199
70836W        W42507  37.143  23.242   2.808
70837W        W42508   0.629   1.709  13.131
70838W        W42509  15.627  21.400   3.224
70839W        W42510  15.410  40.375  14.493
70840W        W42511  30.399  11.984   0.226
70841W        W42512  14.728   5.245  12.132
70842W        W42513   5.659  27.669  11.110
70843W        W42514  30.151  19.692  14.785
70844W        W42515  12.543  35.517   2.625
70845W        W42516  35.405  18.045  13.500
70846W        W42517  23.106  30.090   4.519
70847W        W42518   7.182  19.854  14.501
70848W        W42519   6.980  41.320  14.790
70849W        W42520  27.124  24.098   4.543
70850W        W42521  33.240  12.223  13.874
70851W        W42522  44.697  35.004  13.935
70852W        W42523   5.044  40.576   2.301
70853W        W42524  19.082  27.990  10.684
70854W        W42525  40.562   0.254  13.576
70855W        W42526  31.044  43.287   2.579
70856W        W42527  26.718  43.092  11.520
70857W        W42528  27.977  11.719  10.186
70858W        W42529  20.574   8.976  12.080
70859W        W42530  12.148   8.312   3.722
70860W        W42531  41.410  13.850   0.794
70861W        W42532  43.729  38.087  11.989
70862W        W42533  26.630  36.836   2.729
70863W        W42534  17.818  43.161  11.680
70864W        W42535  35.003  38.490   0.022
70865W        W42536  17.656  15.109  11.915
70866W        W42537  14.142  12.520   4.699
70867W        W42538  23.228  41.449   1.118
70868W        W42539   4.778  25.476   3.253
70869W        W42540  24.564  44.413   4.844
70870W        W42541  38.845  40.263   2.796
70871W        W42542  31.254  22.459   2.572
70872W        W42543  37.450  40.287   0.914
70873W        W42544  34.965  16.632  13.833
70874W        W42545  24.639  44.885   3.100
70875W        W42546  28.569   6.947   0.615
70876W        W42547  41.006   1.713  14.526
70877W        W42548  27.153  18.710  10.840
70878W        W42549  36.138  40.721   4.591
70879W        W42550  27.693   0.261  14.432
70880W        W42551  15.907   1.788  10.581
70881W        W42552  13.753  15.481  12.125
70882W        W42553  36.386  22.261  12.009
70883W        W42554  32.338  30.987  10.389
70884W        W42555  44.574   6.695  11.863
70885W        W42556  30.519  14.075  12.486
70886W        W42557  38.964  28.218   1.643
70887W        W42558  27.306  25.897  12.156
70888W        W42559   4.719  16.619  14.980
70889W        W42560   0.742  28.510   4.449
70890W        W42561  14.577  23.660  14.523
70891W        W42562   5.806  37.081  13.811
70892W        W42563  24.413   7.293  11.139
70893W        W42564  15.676  44.492  12.009
70894W        W42565  36.609  42.785  14.813
70895W        W42566   3.860  44.263  14.881
70896W        W42567  22.936  15.689   2.755
70897W        W42568  28.403  38.331  13.615
70898W        W42569   7.380  43.394   3.353
70899W        W42570  40.917  16.146  10.750
70900W        W42571  44.273  31.222  13.128
70901W        W42572  10.698  19.730  14.978
70902W        W42573   8.570  12.831  14.087
70903W        W42574  23.782  24.459   1.533
70904W        W42575  39.549  25.784   4.269
70905W        W42576   6.780  42.710  14.047
70906W        W42577  27.456  33.609  12.081
70907W        W42578  41.927  33.164  12.873
70908W        W42579  22.671  33.354  13.851
70909W        W42580  20.271  20.205  12.919
70910W        W42581  29.481  30.786  11.633
70911W        W42582  12.869  43.878  10.766
70912W        W42583  43.880  37.719   1.746
70913W        W42584  27.573   0.749   2.735
70914W        W42585   5.644   8.748   2.703
70915W        W42586  38.007  32.449  13.522
70916W        W42587  32.638  34.957   0.328
70917W        W42588   3.498  38.999  13.420
70918W        W42589  33.492  27.095   1.266
70919W        W42590   3.742  41.040  11.619
70920W        W42591  23.226  19.817  14.805
70921W        W42592  39.095   9.316  11.510
70922W        W42593  41.266  28.471   2.628
70923W        W42594  42.076  35.118   4.603
70924W        W42595  39.304  25.554   4.685
70925W        W42596  15.775  18.389   3.834
70926W        W42597  14.782  21.290   4.946
70927W        W42598  14.330  23.503  10.565
70928W        W42599  41.431  18.285  14.903
70929W        W42600  11.568  35.966  14.918
70930W        W42601   2.430  34.318  12.039
70931W        W42602  12.068  44.146  11.841
70932W        W42603  36.707  33.346   0.920
70933W        W42604  40.078   7.275  13.468
70934W        W42605   5.266  34.086  14.098
70935W        W42606   4.902   9.312   1.845
70936W        W42607  23.297  43.859   1.241
70937W        W42608  26.032  36.871  11.220
70938W        W42609   2.373  32.488   1.255
70939W        W42610  22.034   9.593  13.343
70940W        W42611  40.253   7.685   0.830
70941W        W42612  35.044  32.671   2.314
70942W        W42613  28.166   8.688   2.294
70943W        W42614  36.805   4.342  14.913
70944W        W42615  39.563  41.990  10.637
70945W        W42616  19.574  31.201  11.522
70946W        W42617  29.413  13.002   3.552
70947W        W42618  44.183  35.536  11.487
70948W        W42619   8.159  34.316   1.260
70949W        W42620  35.496   9.963   0.524
70950W        W42621  36.031  13.233  14.256
70951W        W42622  12.080  43.437   0.732
70952W        W42623  31.143   3.163  12.053
70953W        W42624  38.475   4.784   0.727
70954W        W42625  21.748   1.570   4.719
70955W        W42626  14.191  30.191   1.136
70956W        W42627  28.901   4.849  12.015
70957W        W42628  13.675  29.997   2.815
70958W        W42629  20.647  39.336  12.980
70959W        W42630  43.966  25.267   2.377
70960W        W42631  20.604   4.717   2.283
70961W        W42632   4.921  26.197   3.676
70962W        W42633  26.147   7.922  13.990
70963W        W42634  42.623  37.983   3.610
70964W        W42635  10.202  30.339   1.926
70965W        W42636  14.215  31.992   0.884
70966W        W42637  28.921   1.310  10.738
70967W        W42638  29.009  30.998   1.016
70968W        W42639  26.559  36.559   5.002
70969W        W42640  36.906  40.355  11.410
70970W        W42641  44.606  24.505   2.360
70971W        W42642   8.357  18.741  10.835
70972W        W42643  35.402  30.972   2.703
70973W        W42644  13.911  40.010  13.935
70974W        W42645  11.507  14.759  11.039
70975W        W42646  40.295  30.112  13.849
70976W        W42647  27.615  27.403  11.153
70977W        W42648  24.166   3.900   4.725
70978W        W42649   5.038  16.203   1.648
70979W        W42650  23.098  11.207  14.759
70980W        W42651  23.507  22.761   1.437
70981W        W42652  30.224  28.891  12.509
70982W        W42653  29.447  17.605  14.680
70983W        W42654  20.703  15.809  13.559
70984W        W42655  12.721  24.597   4.385
70985W        W42656  13.161   8.594   0.466
70986W        W42657   8.631  19.182   4.431
70987W        W42658   9.325  40.915   0.367
70988W        W42659  20.784  31.373   2.269
70989W        W42660  33.396  35.395   4.130
70990W        W42661  28.423  23.536  14.719
70991W        W42662   8.477   5.686   2.751
70992W        W42663   8.192  16.722  13.827
70993W        W42664  16.184   7.318   5.702
70994W        W42665  28.156   9.203  13.373
70995W        W42666  33.795  18.992   4.741
70996W        W42667  22.364  13.007  13.811
70997W        W42668   7.117  38.606   4.083
70998W        W42669   5.422  27.112   3.698
70999W        W42670  24.967  41.226   0.397
71000W        W42671  12.273  32.684  10.965
71001W        W42672  15.337   6.997   9.867
71002W        W42673  38.011   4.632   0.919
71003W        W42674  11.354   7.361  13.384
71004W        W42675  44.833  15.543  11.994
71005W        W42676  29.148  37.409   0.752
71006W        W42677   8.755  38.103   0.344
71007W        W42678  30.246   0.165   2.717
71008W        W42679  11.623  24.273   1.731
71009W        W42680  10.586   8.896   0.207
71010W        W42681  40.370  17.674   4.861
71011W        W42682  32.545  35.830  14.407
71012W        W42683   1.889  32.408   3.102
71013W        W42684  28.468   0.023   2.238
71014W        W42685   1.524   1.893  13.512
71015W        W42686  21.520  23.205  14.906
71016W        W42687   3.039  29.462   1.681
71017W        W42688  41.310  41.466   3.913
71018W        W42689  24.096  44.622   3.719
71019W        W42690   3.618   0.716   0.397
71020W        W42691  31.993  14.273  10.697
71021W        W42692  19.704   2.034  14.002
71022W        W42693  17.964   3.404  12.638
71023W        W42694  25.779   8.249   2.625
71024W        W42695  41.545  32.639   2.686
71025W        W42696  32.564   3.940  11.477
71026W        W42697  10.759  23.090  11.898
71027W        W42698  16.762  36.615  11.544
71028W        W42699  18.744  35.025  11.401
71029W        W42700   9.844   8.204   4.085
71030W        W42701   0.298   0.178   0.394
71031W        W42702  27.002   4.771  12.026
71032W        W42703  38.522  15.753   4.032
71033W        W42704  20.130  33.949   1.761
71034W        W42705  28.039  37.168  13.831
71035W        W42706  13.125  34.941  12.349
71036W        W42707  31.379  27.066   0.011
71037W        W42708  34.283   4.770   4.217
71038W        W42709  41.536  29.182  12.956
71039W        W42710  27.080  15.590  11.729
71040W        W42711  38.532  27.156   3.817
71041W        W42712  39.358   5.913   3.875
71042W        W42713  13.096   5.112  13.459
71043W        W42714  28.026  40.430   0.919
71044W        W42715  24.003  10.880   1.015
71045W        W42716  38.492  25.064  13.782
71046W        W42717   4.448   3.834   0.699
71047W        W42718  40.065   4.121  11.071
71048W        W42719  32.091  36.612   1.732
71049W        W42720  34.870  39.095  14.163
71050W        W42721  43.987  20.265   1.757
71051W        W42722   5.747  10.204  11.685
71052W        W42723  14.134  28.721   4.643
71053W        W42724  16.942  30.891   4.083
71054W        W42725  15.276  14.553   3.392
71055W        W42726  24.959  39.108  10.672
71056W        W42727  15.589  24.145   1.828
71057W        W42728  42.491  32.786  10.585
71058W        W42729   4.155  15.409  12.906
71059W        W42730  14.618  28.493   1.804
71060W        W42731  42.916   4.478  12.481
71061W        W42732  27.684  12.197  12.257
71062W        W42733   4.294  11.813  13.332
71063W        W42734  10.772   1.770   0.304
71064W        W42735   9.240  22.984  13.104
71065W        W42736  26.915  21.968  11.190
71066W        W42737  21.021  41.253   0.961
71067W        W42738   1.296  27.155  12.355
71068W        W42739  29.261  35.110   1.812
71069W        W42740  36.019  42.349  14.793
71070W        W42741  34.583  28.675   2.188
71071W        W42742  37.041  10.164   0.823
71072W        W42743   6.975   1.767  11.026
71073W        W42744  17.773  30.852  12.910
71074W        W42745  14.871  15.516  10.068
71075W        W42746  11.706  14.789   2.295
71076W        W42747  15.059  41.476   4.587
71077W        W42748   8.659  44.557  12.075
71078W        W42749  35.694  28.964   4.911
71079W        W42750  12.695   2.464   2.557
71080W        W42751   8.658  42.016  14.498
71081W        W42752  27.172  42.776   3.764
71082W        W42753   3.400  11.886  14.873
71083W        W42754  27.552  40.472   3.157
71084W        W42755  26.968  41.987   0.742
71085W        W42756   6.238  21.995   1.253
71086W        W42757  12.287  13.671   0.901
71087W        W42758  38.833  33.296   0.890
71088W        W42759  44.112  22.757  12.890
71089W        W42760   9.046  35.819  10.407
71090W        W42761  33.526  27.242   0.307
71091W        W42762  44.722  27.043   4.210
71092W        W42763  26.627  37.097   5.096
71093W        W42764  15.430   2.899   0.814
71094W        W42765  34.135   2.678  13.040
71095W        W42766  14.039  15.074   3.604
71096W        W42767   2.675  39.153  10.686
71097W        W42768  42.313  16.048  14.544
71098W        W42769  23.268  36.065  12.562
71099W        W42770  19.426   6.315  10.579
71100W        W42771  38.862   1.373   0.447
71101W        W42772  31.406  13.440  14.739
71102W        W42773  10.206  26.906   3.888
71103W        W42774  30.849  15.865   3.718
71104W        W42775  40.718  20.550  10.927
71105W        W42776  17.127  26.671   1.361
71106W        W42777   5.352  18.522  13.728
71107W        W42778  36.745   3.900  14.526
71108W        W42779  17.094   5.694   3.361
71109W        W42780  22.712  14.194   2.628
71110W        W42781  11.597   0.466  11.976
71111W        W42782   9.009  16.651  10.722
71112W        W42783  16.878  22.008   1.262
71113W        W42784  25.427   0.697  12.853
71114W        W42785  38.480  38.891  10.096
71115W        W42786   8.185  37.873   0.702
71116W        W42787  44.645  13.048  12.404
71117W        W42788  33.912  42.719  14.340
71118W        W42789  35.614  37.248   1.403
71119W        W42790   9.249  30.419  12.562
71120W        W42791  43.356  28.497   2.295
71121W        W42792  29.172  11.801  11.669
71122W        W42793  25.266  20.741   3.777
71123W        W42794  40.446  13.264  12.529
71124W        W42795  25.385  43.231   0.353
71125W        W42796   6.859  17.792   2.656
71126W        W42797  23.776  40.903  10.541
71127W        W42798  29.927  26.711   1.231
71128W        W42799  37.091  18.128   3.738
71129W        W42800  31.184  21.976   2.398
71130W        W42801  31.782  44.429  11.104
71131W        W42802  33.408  20.600   3.572
71132W        W42803  36.059  38.887  14.607
71133W        W42804  20.865  40.813   3.167
71134W        W42805  15.386   6.132  13.478
71135W        W42806  37.381  33.183  13.636
71136W        W42807  26.504  16.551  12.150
71137W        W42808  31.012  34.812  12.155
71138W        W42809  30.680  13.223   0.694
71139W        W42810   1.497  21.963  11.015
71140W        W42811   2.790  43.264   0.055
71141W        W42812  40.775  43.899   4.544
71142W        W42813  16.148  36.460  13.548
71143W        W42814   7.178  21.080   3.683
71144W        W42815  29.643  37.056   2.866
71145W        W42816   8.422   6.462   4.310
71146W        W42817   6.158   7.943  11.390
71147W        W42818   6.772  25.257  13.002
71148W        W42819  38.389  37.488   0.854
71149W        W42820  42.412  17.941   4.290
71150W        W42821   3.153   9.791   4.921
71151W        W42822  16.154  22.103  14.870
71152W        W42823  14.359  21.114   4.684
71153W        W42824  28.481  20.164  12.521
71154W        W42825  25.202  23.454  13.591
71155W        W42826  29.635  36.865   0.242
71156W        W42827  31.908  12.710  11.973
71157W        W42828   0.284  10.268  12.496
71158W        W42829  41.046  16.839  11.169
71159W        W42830   4.375  42.944  12.371
71160W        W42831  41.777   2.190  13.546
71161W        W42832  13.354  11.844   9.948
71162W        W42833  39.193  22.346   4.081
71163W        W42834  31.034  14.665  10.741
71164W        W42835   8.431  14.066  14.404
71165W        W42836  13.446  30.415   4.223
71166W        W42837  37.042  16.987   1.235
71167W        W42838  26.562  25.450   3.870
71168W        W42839  17.275  28.181   4.765
71169W        W42840  33.073  18.929  11.154
71170W        W42841  40.514  19.092  14.316
71171W        W42842  21.955  34.061   3.729
71172W        W42843  25.596  36.963  11.907
71173W        W42844   2.787  39.002   1.001
71174W        W42845  27.822   4.227   4.551
71175W        W42846   5.181  24.332   2.280
71176W        W42847  31.989  27.018  13.182
71177W        W42848  40.002  31.113  11.023
71178W        W42849  42.305  19.746   4.272
71179W        W42850  33.861  31.170   0.806
71180W        W42851  16.522  35.068  11.483
71181W        W42852  18.117   7.459  12.350
71182W        W42853  38.847  37.147   4.298
71183W        W42854  28.919   8.303  11.049
71184W        W42855  21.249  15.079  13.484
71185W        W42856  12.851  16.622   4.703
71186W        W42857   9.277  28.144  13.344
71187W        W42858  27.189  41.278   2.119
71188W        W42859   0.066  32.381   0.180
71189W        W42860  23.920  10.354  10.791
71190W        W42861  35.860   1.459  11.080
71191W        W42862  18.597   9.627   0.213
71192W        W42863  31.057  41.741  13.005
71193W        W42864  33.979  25.038   3.743
71194W        W42865  26.352  29.769  13.805
71195W        W42866  31.687  16.117  13.032
71196W        W42867  34.091  32.374   2.193
71197W        W42868   4.269  13.274  13.173
71198W        W42869   7.925  22.711   3.900
71199W        W42870  36.667  13.153  12.075
71200W        W42871  13.764   8.302   0.026
71201W        W42872  18.952  17.641   0.489
71202W        W42873  20.180  29.605   0.877
71203W        W42874  37.594  32.120   0.908
71204W        W42875  23.941  12.381   2.347
71205W        W42876   5.199  27.598   2.452
71206W        W42877  11.649  44.468   2.818
71207W        W42878  44.248  41.317   2.351
71208W        W42879  41.229  10.365  10.994
71209W        W42880  21.247  40.413   1.879
71210W        W42881  42.707  13.183  10.288
71211W        W42882  26.055  26.953   2.198
71212W        W42883  43.856  15.302   2.729
71213W        W42884   1.717  44.319   1.055
71214W        W42885   0.039  26.940  13.978
71215W        W42886  36.464  39.522  10.677
71216W        W42887   5.940  21.090  14.034
71217W        W42888  30.662   2.360   0.024
71218W        W42889   7.365   9.423  13.568
71219W        W42890  25.137   8.765  12.016
71220W        W42891  21.572  37.474  14.509
71221W        W42892  23.702  17.768  13.400
71222W        W42893  14.644  29.325  12.683
71223W        W42894  25.209  19.482  14.358
71224W        W42895   2.435   2.568   3.235
71225W        W42896  41.931  32.928  13.378
71226W        W42897  11.762  26.279   9.672
71227W        W42898  34.476  42.245   1.390
71228W        W42899  21.700  18.627   1.270
71229W        W42900   3.313  23.493   0.885
71230W        W42901  43.281   4.761   3.761
71231W        W42902  16.333  31.489  12.961
71232W        W42903  37.695  14.323   0.844
71233W        W42904   2.967  19.298   0.493
71234W        W42905   1.177  29.112   4.130
71235W        W42906  10.834  18.987  12.614
71236W        W42907  24.020   9.020   4.549
71237W        W42908  10.192  42.468   3.437
71238W        W42909  13.825  35.749   2.601
71239W        W42910  26.963  17.214  11.929
71240W        W42911  34.926   3.194  12.405
71241W        W42912   1.629  36.637   4.958
71242W        W42913  30.248   2.385  14.036
71243W        W42914  17.586  30.137  14.257
71244W        W42915  29.561  40.541  10.927
71245W        W42916  40.391  38.329  14.485
71246W        W42917  27.190  43.903   3.648
71247W        W42918  14.396   5.189   2.805
71248W        W42919  25.750  30.936   4.885
71249W        W42920  29.750  42.023   2.937
71250W        W42921  44.024  44.144   3.817
71251W        W42922   4.373  37.958  13.549
71252W        W42923   3.251   0.751   1.848
71253W        W42924  23.734  41.886  12.507
71254W        W42925   9.650  30.870   4.565
71255W        W42926  17.037  18.512  11.047
71256W        W42927  25.425  33.669  11.082
71257W        W42928  34.134  25.428   4.605
71258W        W42929  25.134  27.937  12.641
71259W        W42930  29.725   7.103  12.893
71260W        W42931  27.129  42.036  13.245
71261W        W42932  38.520  43.383   2.809
71262W        W42933  24.862  32.997   0.022
71263W        W42934   6.893  17.324  14.878
71264W        W42935  39.580  15.570  12.416
71265W        W42936  10.687   4.943  10.767
71266W        W42937  17.197  34.001  14.396
71267W        W42938  25.358  30.465   0.834
71268W        W42939  30.116  35.988  14.997
71269W        W42940  20.472   1.209  11.534
71270W        W42941  17.607  39.112  12.772
71271W        W42942  27.934  40.827   0.365
71272W        W42943  26.716   5.128  11.794
71273W        W42944  22.194  21.664   2.761
71274W        W42945   6.933  26.307  11.144
71275W        W42946  24.011  32.351   4.653
71276W        W42947  37.114  22.006  12.338
71277W        W42948   1.002  36.633  10.766
71278W        W42949  22.656  10.007  13.995
71279W        W42950  13.560  43.006  13.515
71280W        W42951   7.331  40.245  13.069
71281W        W42952  24.538  44.929  11.566
71282W        W42953  12.077  26.497   1.417
71283W        W42954  39.523  27.085   4.864
71284W        W42955   8.480   7.595   2.364
71285W        W42956  38.543  15.851   1.838
71286W        W42957  20.026   4.363   1.874
71287W        W42958  41.394  39.342  13.018
71288W        W42959  20.052  18.499   3.339
71289W        W42960  23.703  29.853  14.437
71290W        W42961  18.559  19.664  12.168
71291W        W42962   7.295   4.411   2.658
71292W        W42963  43.375   6.761  13.415
71293W        W42964  37.722  37.980  10.236
71294W        W42965  12.343   2.737   3.683
71295W        W42966  42.112  36.048   2.687
71296W        W42967  42.919   5.144  13.273
71297W        W42968   8.264  20.124  13.646
71298W        W42969   4.898  28.110   0.726
71299W        W42970  28.601  19.105  11.631
71300W        W42971  31.371  37.494   4.970
71301W        W42972  16.097  18.247   3.063
71302W        W42973  23.479  18.526  14.811
71303W        W42974  38.248  11.699  14.278
71304W        W42975   3.817  42.702   1.322
71305W        W42976  39.097   2.974   2.652
71306W        W42977  20.818  26.447   4.573
71307W        W42978   6.031  27.683   3.621
71308W        W42979  23.467   5.342   2.283
71309W        W42980  39.978  42.226   4.692
71310W        W42981  32.871  26.168   0.852
71311W        W42982  14.243   2.871  13.867
71312W        W42983   8.908  22.587   2.685
71313W        W42984  23.114  38.629   4.088
71314W        W42985  38.365   4.833  13.447
71315W        W42986  12.549  41.337  13.732
71316W        W42987   7.181  34.513   0.967
71317W        W42988  10.382  32.445  10.983
71318W        W42989  39.602  43.308   1.923
71319W        W42990  33.037  41.647  13.031
71320W        W42991  15.093   1.340   4.244
71321W        W42992  32.931   0.889   1.219
71322W        W42993  44.765   2.293   3.701
71323W        W42994  41.834  34.345   2.233
71324W        W42995  25.682  36.654   1.516
71325W        W42996   8.184  43.399   2.906
71326W        W42997   2.662  30.848  11.545
71327W        W42998  36.477   1.127  14.737
71328W        W42999  40.939   0.454  13.236
71329W        W43000  36.450  27.712   1.353
71330W        W43001  17.800   6.323  10.134
71331W        W43002  27.864  25.639  14.548
71332W        W43003  24.526  19.158   3.651
71333W        W43004   1.229   8.399  14.083
71334W        W43005  38.106  24.544   0.649
71335W        W43006  15.300  35.875  12.762
71336W        W43007  38.298   6.915  12.766
71337W        W43008  16.108  39.315  11.540
71338W        W43009  37.028  10.902   0.513
71339W        W43010  18.298  29.844  10.674
71340W        W43011  39.569   4.241  11.109
71341W        W43012  15.570  42.511   1.340
71342W        W43013  35.407  11.100  11.103
71343W        W43014  41.029  27.742   1.399
71344W        W43015   2.753  31.654   1.423
71345W        W43016  35.385  13.234   0.495
71346W        W43017  19.765  28.540   1.254
71347W        W43018   8.274  10.901   0.740
71348W        W43019  15.824  26.947  10.460
71349W        W43020  25.007  36.446  13.049
71350W        W43021  36.585  36.630  14.717
71351W        W43022   8.227  20.640   3.697
71352W        W43023   2.496  12.045   2.338
71353W        W43024   6.664   1.857   1.352
71354W        W43025  22.786  28.220  13.475
71355W        W43026  38.058  15.666  13.405
71356W        W43027  39.255  44.363  14.444
71357W        W43028   8.617  41.574   2.932
71358W        W43029  23.975  21.045   2.703
71359W        W43030  23.958  21.372   4.851
71360W        W43031   4.452  24.666   1.308
71361W        W43032  15.106   0.513   3.748
71362W        W43033  25.069  17.149   2.360
71363W        W43034  35.016  44.256   4.822
71364W        W43035   8.821  20.463  14.761
71365W        W43036  25.465  44.116   3.646
71366W        W43037  19.507  14.529  14.474
71367W        W43038  23.068  42.317  10.971
71368W        W43039  13.457  42.929   2.067
71369W        W43040  10.781  31.979   1.947
71370W        W43041  21.092   8.955  10.867
71371W        W43042  34.823  38.075   2.288
71372W        W43043  34.332  14.820  14.535
71373W        W43044  14.176  22.768   1.916
71374W        W43045  22.059   5.815  11.430
71375W        W43046  38.085   9.297  12.788
71376W        W43047   6.667   7.272  11.597
71377W        W43048   1.583   6.235   3.444
71378W        W43049  11.512  43.208  10.312
71379W        W43050  12.652  41.978  11.990
71380W        W43051  15.636  36.057   2.791
71381W        W43052  40.321   1.913   3.331
71382W        W43053  22.263   5.556   1.681
71383W        W43054  27.603  32.108  11.182
71384W        W43055  29.019  40.185   1.168
71385W        W43056   6.232  39.753   0.898
71386W        W43057  17.594  20.174   1.747
71387W        W43058   8.670  36.778   2.273
71388W        W43059  21.670   3.537   3.356
71389W        W43060  36.394  16.733  11.822
71390W        W43061  28.435  21.745  13.765
71391W        W43062  15.631  16.200   3.715
71392W        W43063   7.753  43.681   2.212
71393W        W43064   7.983  33.981   2.851
71394W        W43065  32.714  38.554  12.430
71395W        W43066  35.302  28.624   3.721
71396W        W43067  33.866  25.521   2.734
71397W        W43068   9.789  33.028  13.325
71398W        W43069  11.659  16.915   1.633
71399W        W43070  21.238  27.988   3.190
71400W        W43071   9.882   4.203  10.771
71401W        W43072  26.093  37.243   2.548
71402W        W43073  39.554  41.996  14.347
71403W        W43074  15.588  12.162   4.936
71404W        W43075  38.577  20.272  14.387
71405W        W43076  25.951  27.566  10.753
71406W        W43077  12.571  24.391  12.457
71407W        W43078  14.838  36.984  11.507
71408W        W43079  43.360  18.099  11.609
71409W        W43080  43.146   4.199   0.055
71410W        W43081  43.336  38.529   4.220
71411W        W43082  31.849  13.133  13.103
71412W        W43083  22.636   6.924  13.138
71413W        W43084   4.777  39.299   4.866
71414W        W43085  21.711  20.652   3.541
71415W        W43086  30.075  36.347  13.140
71416W        W43087   5.229  41.972   4.543
71417W        W43088  36.843  17.329  11.008
71418W        W43089  40.933  36.540  14.986
71419W        W43090  42.213  29.429  13.721
71420W        W43091   0.783  30.094   3.913
71421W        W43092  36.541  44.861  10.679
71422W        W43093  14.475  35.556   2.742
71423W        W43094  40.978  42.900  13.433
71424W        W43095  22.542  42.795  13.579
71425W        W43096  34.914  20.941  12.028
71426W        W43097  27.793   2.715   2.682
71427W        W43098  20.279  37.754  12.594
71428W        W43099   4.801  11.093   4.749
71429W        W43100  40.889  17.731   2.934
71430W        W43101  42.168  44.836   1.238
71431W        W43102  40.591  21.673   3.576
71432W        W43103  12.087  16.676   3.676
71433W        W43104  40.157   0.915  11.194
71434W        W43105  10.377  24.912  10.271
71435W        W43106  42.898  41.955   5.039
71436W        W43107  27.640  35.459   4.111
71437W        W43108  23.496  22.303  14.453
71438W        W43109  20.270  24.034   5.228
71439W        W43110   8.453  29.547   2.435
71440W        W43111  22.091  43.334  11.480
71441W        W43112  22.274  39.826   2.460
71442W        W43113  15.881  33.466  13.414
71443W        W43114   1.817  13.349  12.362
71444W        W43115  38.859  14.934  13.611
71445W        W43116  44.949  44.841   1.761
71446W        W43117   9.767  11.530   1.735
71447W        W43118  43.728   4.048  10.657
71448W        W43119  14.332  42.906  11.209
71449W        W43120   3.672  35.976   1.459
71450W        W43121  10.649  26.459  13.325
71451W        W43122   9.959  13.960  11.439
71452W        W43123  14.776  26.245   3.996
71453W        W43124  20.717   5.873   1.696
71454W        W43125  33.403  28.706   2.824
71455W        W43126  41.928   3.766   4.919
71456W        W43127  36.314  17.544  13.398
71457W        W43128  26.599  34.644  14.768
71458W        W43129  41.825  27.246   0.875
71459W        W43130  15.586  38.306  10.963
71460W        W43131  32.945  39.457   4.470
71461W        W43132  29.025  40.173  12.249
71462W        W43133  13.335  19.141   4.682
71463W        W43134  29.871   7.156  11.697
71464W        W43135   6.378   2.197  12.683
71465W        W43136  10.256  27.939   0.999
71466W        W43137  10.323  27.106   2.920
71467W        W43138  16.626  44.311  13.248
71468W        W43139  40.810  30.482  13.554
71469W        W43140   0.156  43.771  12.287
71470W        W43141   3.016   9.898  14.942
71471W        W43142   2.910  29.085   0.379
71472W        W43143  24.008  18.559  12.422
71473W        W43144  29.198   9.652   1.288
71474W        W43145  31.157  33.757   3.249
71475W        W43146  34.973  15.007  11.979
71476W        W43147  26.181  33.217   1.000
71477W        W43148  23.642   6.114   0.038
71478W        W43149  22.761  20.647  13.967
71479W        W43150  17.311  17.798   4.247
71480W        W43151  24.422   3.462   0.495
71481W        W43152  43.458  14.567   4.332
71482W        W43153  38.664  39.266   3.889
71483W        W43154  13.507  37.408  13.409
71484W        W43155  42.514  24.789  13.451
71485W        W43156  39.798  38.450  12.476
71486W        W43157  26.654  41.089   3.748
71487W        W43158  18.305  20.512   1.415
71488W        W43159  34.494  24.821   1.573
71489W        W43160  23.278  12.911  13.052
71490W        W43161  44.866  22.745   5.609
71491W        W43162  14.158  13.506  11.113
71492W        W43163  41.295  27.012   0.950
71493W        W43164  17.104  25.939   1.922
71494W        W43165  11.316   3.822  13.898
71495W        W43166   6.182  17.875  11.259
71496W        W43167  38.073  32.584  11.223
71497W        W43168  17.666   6.654  13.538
71498W        W43169   0.317  26.172  14.754
71499W        W43170   2.220   6.464   2.223
71500W        W43171  12.287   1.695   2.768
71501W        W43172  14.266  32.899   0.085
71502W        W43173  22.902   2.411  11.576
71503W        W43174   3.790  10.377  10.197
71504W        W43175  12.134  33.013   4.638
71505W        W43176   2.921  11.151   1.226
71506W        W43177   5.762  28.130  13.207
71507W        W43178  15.635  28.820  14.215
71508W        W43179  39.366   8.946  13.505
71509W        W43180  23.103  15.725  12.690
71510W        W43181  14.823  12.104   4.188
71511W        W43182  14.817  41.948   4.457
71512W        W43183  44.413  15.791  11.428
71513W        W43184  25.702  15.352   3.614
71514W        W43185  31.422  10.277   2.190
71515W        W43186   0.726  43.453   0.820
71516W        W43187  44.636  29.423  11.837
71517W        W43188  36.563  39.311   0.973
71518W        W43189   4.250  20.744  12.845
71519W        W43190   0.229   8.904  14.428
71520W        W43191  32.466  38.405  11.977
71521W        W43192   1.210  15.790  13.540
71522W        W43193   4.713  23.250  14.406
71523W        W43194  13.025  24.610  10.839
71524W        W43195  13.182  35.557   4.653
71525W        W43196   0.995  21.481  10.482
71526W        W43197  31.306   2.697   1.693
71527W        W43198  33.173   0.088  13.865
71528W        W43199  43.064  28.925   3.323
71529W        W43200   8.331  23.448   2.833
71530W        W43201  23.761  38.480   1.787
71531W        W43202   6.948   9.878   0.897
71532W        W43203  14.248   0.338   3.137
71533W        W43204  33.281  28.588   4.779
71534W        W43205  18.151  35.834   3.627
71535W        W43206  39.676  42.369  14.708
71536W        W43207  17.561  33.427   4.727
71537W        W43208  41.492  42.569   0.796
71538W        W43209   1.185   8.898   2.671
71539W        W43210  32.022  38.376   2.592
71540W        W43211  32.490  43.409  11.497
71541W        W43212   3.778  23.073  12.845
71542W        W43213  18.065  24.734   5.672
71543W        W43214  44.850  10.454   3.544
71544W        W43215   7.976  31.427   3.149
71545W        W43216  15.156  15.263  14.260
71546W        W43217  24.520  21.108   1.128
71547W        W43218  13.697  31.152   4.316
71548W        W43219  21.182  42.419   2.382
71549W        W43220   6.198  13.131  10.407
71550W        W43221  26.631  26.736  12.329
71551W        W43222  16.309  40.023  11.011
71552W        W43223   3.883  15.679   2.901
71553W        W43224  34.634  39.942   4.911
71554W        W43225  43.560  23.386  14.360
71555W        W43226   9.891  30.830   4.099
71556W        W43227  43.796   7.960  12.060
71557W        W43228  23.518  29.086  10.550
71558W        W43229  26.682  34.548  13.282
71559W        W43230  36.377  17.757  12.354
71560W        W43231  32.141   5.527   2.399
71561W        W43232  30.099  31.081  11.912
71562W        W43233  19.449  29.390   2.807
71563W        W43234  24.133  16.806  11.945
71564W        W43235  43.879  27.420  13.385
71565W        W43236  44.822  13.132  14.812
71566W        W43237  43.016   0.354   4.742
71567W        W43238  41.008  37.048   3.736
71568W        W43239  30.493  31.072   2.340
71569W        W43240   6.279  37.097  11.705
71570W        W43241   8.803  16.995   3.683
71571W        W43242  41.189   0.457   1.637
71572W        W43243  22.242  23.118   3.083
71573W        W43244   2.272  33.656   4.037
71574W        W43245  41.588  24.063   2.717
71575W        W43246   1.701   9.457  11.103
71576W        W43247   2.870  32.972  10.602
71577W        W43248  12.567  12.132   2.445
71578W        W43249   1.996  27.766  12.127
71579W        W43250  26.911  34.073   4.150
71580W        W43251   0.556  34.527  13.827
71581W        W43252   9.686   7.375   1.435
71582W        W43253  37.346   7.821   4.652
71583W        W43254  31.881  20.114  13.928
71584W        W43255   9.033  33.218  11.238
71585W        W43256   7.838  12.351   1.184
71586W        W43257  34.326  10.690  12.926
71587W        W43258  21.163  10.286   3.285
71588W        W43259  33.448   1.758  12.600
71589W        W43260  19.147  33.801  12.533
71590W        W43261  42.544  26.193  13.433
71591W        W43262  12.238  22.157   2.867
71592W        W43263   5.889  42.028   4.326
71593W        W43264   0.486  35.864  13.402
71594W        W43265  43.811  29.100  11.517
71595W        W43266  31.051  26.322   0.866
71596W        W43267  11.677  36.454   4.201
71597W        W43268  29.381  29.513   2.833
71598W        W43269  29.548  25.225   3.860
71599W        W43270  28.256  16.489   2.184
71600W        W43271  31.995  10.131  10.077
71601W        W43272  39.741   0.849  14.813
71602W        W43273  38.049  43.667  13.613
71603W        W43274  35.702  36.067   5.049
71604W        W43275  12.819  38.508  14.994
71605W        W43276   5.897  22.663   0.007
71606W        W43277  37.539  29.652  11.559
71607W        W43278   9.301  31.903   2.713
71608W        W43279   1.431  19.337   2.727
71609W        W43280  16.808  39.298  11.824
71610W        W43281  36.572  43.831  10.781
71611W        W43282  15.713  29.993  13.722
71612W        W43283  15.133   9.336   4.967
71613W        W43284  16.027   9.402   3.555
71614W        W43285  37.273   5.701  13.750
71615W        W43286   6.373   9.720  10.975
71616W        W43287  34.487  37.520   3.674
71617W        W43288   6.833  23.216   2.330
71618W        W43289  10.766   9.171  11.184
71619W        W43290  33.862  16.480   0.411
71620W        W43291   8.895  42.634   4.180
71621W        W43292   6.749   2.686   2.482
71622W        W43293  17.506  34.615  11.406
71623W        W43294  13.812  35.562   1.462
71624W        W43295   0.536  24.713  14.773
71625W        W43296  10.224  28.901  14.429
71626W        W43297  41.912  20.089  13.692
71627W        W43298  44.738   2.251   1.937
71628W        W43299   5.380  25.107  12.850
71629W        W43300  37.893   4.039  11.147
71630W        W43301  29.228  27.681   4.890
71631W        W43302  32.064  13.611  14.045
71632W        W43303  30.234  42.371  13.212
71633W        W43304   9.695   5.379  14.146
71634W        W43305  40.395  38.272   3.354
71635W        W43306  44.827   7.851  10.472
71636W        W43307  43.815  38.993   1.333
71637W        W43308  14.968  11.432   1.319
71638W        W43309  18.889  19.081  14.859
71639W        W43310  32.110  12.714   1.556
71640W        W43311  13.198  19.593   0.999
71641W        W43312  12.782  18.028   0.279
71642W        W43313   1.620  21.681   4.578
71643W        W43314   0.496  40.419  11.111
71644W        W43315  14.588   2.900  11.580
71645W        W43316   7.947  33.870  11.659
71646W        W43317  31.440  38.960  13.296
71647W        W43318   9.564   4.027  11.523
71648W        W43319  32.829  43.009  10.587
71649W        W43320   8.897  20.221   0.208
71650W        W43321  30.981  20.021  13.810
71651W        W43322  20.037  21.129   2.817
71652W        W43323  44.335   8.158   3.521
71653W        W43324  38.301  11.241  13.548
71654W        W43325   3.226  44.560   1.338
71655W        W43326  36.952  35.921   0.431
71656W        W43327  10.860   1.477  14.010
71657W        W43328  23.302   0.245  10.587
71658W        W43329  14.611   6.967  14.145
71659W        W43330  13.233  30.193  10.992
71660W        W43331   2.777  18.468   0.396
71661W        W43332   1.172   0.840   1.327
71662W        W43333  38.310  20.149   2.923
71663W        W43334  19.845   6.988  11.634
71664W        W43335  15.556   8.578  12.382
71665W        W43336   2.479  13.443  11.298
71666W        W43337  41.410  28.941   4.137
71667W        W43338   6.822  14.104  14.796
71668W        W43339   1.484  42.916  13.917
71669W        W43340   8.184  43.564  11.638
71670W        W43341   6.299  28.093  10.559
71671W        W43342   5.006  19.588  13.805
71672W        W43343  34.487  20.191  11.105
71673W        W43344  15.683  22.357   4.632
71674W        W43345  26.803  30.506  12.366
71675W        W43346  40.092  12.318   4.757
71676W        W43347  30.200  28.212   2.336
71677W        W43348  19.689  28.996  11.095
71678W        W43349   6.967  32.594   3.325
71679W        W43350  21.965  17.013  14.863
71680W        W43351   6.754   0.206  11.826
71681W        W43352  16.512  27.056   3.104
71682W        W43353  26.127  34.132  12.826
71683W        W43354  24.767  36.646   0.382
71684W        W43355  24.166  14.762   2.249
71685W        W43356  34.224   4.704  12.570
71686W        W43357  44.937  42.027  10.709
71687W        W43358   2.822  39.154   1.950
71688W        W43359  25.870  44.733  11.861
71689W        W43360  33.596  24.621  13.497
71690W        W43361  32.405  40.535  14.869
71691W        W43362  34.466  15.646   4.743
71692W        W43363   3.350  25.435   1.377
71693W        W43364  18.134  35.649   4.109
71694W        W43365  28.621  22.110   1.032
71695W        W43366   1.850  14.876   1.355
71696W        W43367   3.295   0.201   2.624
71697W        W43368  17.348  33.628   4.308
71698W        W43369  14.200   2.806   3.620
71699W        W43370  16.681  22.190   2.092
71700W        W43371  12.326  41.014  14.988
71701W        W43372  10.737   1.162  13.597
71702W        W43373   7.145   1.660   1.392
71703W        W43374  27.989  20.105   4.488
71704W        W43375  21.189  42.277  14.398
71705W        W43376   0.413  35.366   2.279
71706W        W43377  22.032  44.927   4.013
71707W        W43378  20.517  42.676  13.470
71708W        W43379   0.526  22.618   3.982
71709W        W43380  15.579  18.243  13.838
71710W        W43381   8.094  21.518   2.622
71711W        W43382  20.304   8.115   2.174
71712W        W43383  14.800  21.678  14.713
71713W        W43384  41.507   9.118   1.160
71714W        W43385  20.049   0.158  12.424
71715W        W43386  24.177  41.510   0.550
71716W        W43387   2.023  32.810  11.589
71717W        W43388  17.910  13.216  10.325
71718W        W43389  34.949  35.921  12.800
71719W        W43390  27.097  10.914   0.266
71720W        W43391  41.332  12.205   2.927
71721W        W43392  14.735  20.801   1.230
71722W        W43393  11.691  14.579   3.848
71723W        W43394   2.174   6.857   2.860
71724W        W43395  31.433  29.311  14.350
71725W        W43396  37.439   3.449   3.119
71726W        W43397  41.479  33.013  13.111
71727W        W43398   0.905  16.767  14.337
71728W        W43399  10.746  11.703   1.287
71729W        W43400   7.577  21.535   2.597
71730W        W43401  11.614  43.261   4.227
71731W        W43402  30.425  29.420  12.593
71732W        W43403  32.210  43.360   3.345
71733W        W43404  41.756  37.890   1.821
71734W        W43405  33.132  35.920   4.305
71735W        W43406  40.895  27.506  10.873
71736W        W43407  38.984  36.861  12.411
71737W        W43408  41.071  19.696  10.617
71738W        W43409   5.280  18.177  14.964
71739W        W43410   5.896  44.439   0.395
71740W        W43411  31.830  31.640  13.331
71741W        W43412  35.533  33.518  10.000
71742W        W43413   7.698  38.872   0.456
71743W        W43414  23.300   8.699  12.701
71744W        W43415  13.681  34.864   2.125
71745W        W43416  20.634  21.914   0.961
71746W        W43417  44.234  30.207   3.893
71747W        W43418  10.778  10.173   4.773
71748W        W43419  32.003  14.018   2.713
71749W        W43420  37.485  11.759  11.132
71750W        W43421  17.051  19.693  13.095
71751W        W43422  41.143  26.734   3.946
71752W        W43423  14.105  26.613   3.262
71753W        W43424   1.878  35.673   2.816
71754W        W43425   3.528  22.335   1.666
71755W        W43426  35.202  41.030  11.507
71756W        W43427  41.632  26.745  10.713
71757W        W43428  16.710  21.603  11.148
71758W        W43429  28.276  18.398  12.108
71759W        W43430  41.796  31.649  13.832
71760W        W43431  18.946  16.685   1.627
71761W        W43432  36.874   3.405   4.661
71762W        W43433  10.758  13.320  13.358
71763W        W43434  31.597  38.517  13.501
71764W        W43435  35.785  26.133   0.663
71765W        W43436  33.102   5.001   1.908
71766W        W43437  34.002   3.628   4.702
71767W        W43438  21.016   8.999  10.367
71768W        W43439  22.059   9.071  13.293
71769W        W43440   2.410  21.481   4.328
71770W        W43441  11.215  11.176  13.073
71771W        W43442   9.195  29.502   3.098
71772W        W43443   2.777  16.165   1.263
71773W        W43444  23.971  28.488  12.220
71774W        W43445   8.824  35.537  13.981
71775W        W43446  39.276  27.227   2.778
71776W        W43447   0.053  29.769  13.351
71777W        W43448  42.768  23.574   1.934
71778W        W43449  27.037   2.473   4.509
71779W        W43450  16.157  18.104  12.999
71780W        W43451  30.634  17.506  12.502
71781W        W43452  40.249  21.202   3.709
71782W        W43453  37.944  41.522   5.061
71783W        W43454  33.384  15.163  12.964
71784W        W43455  11.231  15.110  11.335
71785W        W43456   0.228  17.067  11.692
71786W        W43457  39.070  43.087  12.520
71787W        W43458  28.901  10.227   3.641
71788W        W43459  21.017  10.164   0.031
71789W        W43460  42.777  31.594  12.111
71790W        W43461  33.908  12.310  10.567
71791W        W43462  21.456  34.119   3.661
71792W        W43463  41.787  13.187   3.809
71793W        W43464  44.458  13.900   4.508
71794W        W43465  26.655  40.849  12.120
71795W        W43466  23.636  31.691  12.049
71796W        W43467  18.859  30.506  14.526
71797W        W43468   5.198  34.645  12.457
71798W        W43469  40.427  38.754  13.575
71799W        W43470   0.738  17.991  11.651
71800W        W43471   9.159  17.945  12.463
71801W        W43472  37.882  28.194  11.877
71802W        W43473  30.476  14.103  11.103
71803W        W43474   3.568  27.885   4.397
71804W        W43475   6.308  14.826  12.933
71805W        W43476   8.700  44.689   3.255
71806W        W43477   0.198   8.827   1.741
71807W        W43478   6.155  20.526   2.866
71808W        W43479   3.913  37.069   3.589
71809W        W43480  11.226  43.888   0.624
71810W        W43481  42.830  29.173  10.644
71811W        W43482  26.494  27.762   1.285
71812W        W43483  14.606  24.975  11.604
71813W        W43484  17.444  43.542  13.547
71814W        W43485  30.992  36.630   3.307
71815W        W43486   4.238   6.600   3.335
71816W        W43487  38.991  34.261  10.257
71817W        W43488  43.937  30.633   3.718
71818W        W43489  23.571  24.987   2.632
71819W        W43490  26.174   8.838   1.004
71820W        W43491  23.613  41.460  13.471
71821W        W43492   9.230  32.708  14.963
71822W        W43493  31.900  30.318   2.111
71823W        W43494   9.963  35.649  13.915
71824W        W43495  30.369   3.569  10.156
71825W        W43496  17.337  32.027  10.221
71826W        W43497   4.149  12.163   3.727
71827W        W43498  30.322  24.609   2.411
71828W        W43499  37.436  26.235  10.681
71829W        W43500   7.278  44.383   3.350
71830W        W43501  10.258  43.074  10.648
71831W        W43502  16.539  25.862   4.800
71832W        W43503  43.016  10.254  12.384
71833W        W43504  11.636   6.514   1.187
71834W        W43505  12.259   2.738   0.927
71835W        W43506  42.277   9.639   4.177
71836W        W43507  13.148  44.811  12.306
71837W        W43508  41.780   9.570  12.850
71838W        W43509  14.655  12.839   0.033
71839W        W43510  22.981  39.589   4.205
71840W        W43511  15.947  19.791   2.337
71841W        W43512  41.882  40.786  12.398
71842W        W43513   2.301  35.134  11.716
71843W        W43514   9.290   9.404  14.446
71844W        W43515  30.131  14.689   4.245
71845W        W43516   8.172  27.942   2.622
71846W        W43517   8.244  21.653  12.902
71847W        W43518  42.484   8.904   2.092
71848W        W43519  34.867  30.839   0.873
71849W        W43520   2.391   3.956  10.551
71850W        W43521  16.700  28.201  14.586
71851W        W43522  22.170  37.129  12.459
71852W        W43523  39.444  17.826   2.848
71853W        W43524   8.743  31.389  11.592
71854W        W43525  19.823  20.107  11.979
71855W        W43526  42.911   5.724   0.524
71856W        W43527  32.426  38.367  12.862
71857W        W43528   4.993  41.435   1.896
71858W        W43529  25.661  44.194   0.434
71859W        W43530  17.527  26.540  11.988
71860W        W43531  25.777  22.185   2.662
71861W        W43532   7.323  30.304  14.855
71862W        W43533  28.196  22.447   1.778
71863W        W43534   8.403  31.059  13.496
71864W        W43535  36.859   8.605   4.663
71865W        W43536  44.182  38.577   1.754
71866W        W43537  35.097   8.852  10.597
71867W        W43538   8.947  11.295   4.634
71868W        W43539   5.635  36.323   1.178
71869W        W43540  20.793  19.798  12.639
71870W        W43541  34.518   2.641  10.861
71871W        W43542   0.943  14.172   0.771
71872W        W43543  41.509  18.991   0.423
71873W        W43544  35.818  29.452  12.039
71874W        W43545  43.797  21.158   0.249
71875W        W43546  43.486   6.625   0.400
71876W        W43547  15.628  14.278  12.007
71877W        W43548  19.118   1.702  10.974
71878W        W43549  26.971  14.404  14.445
71879W        W43550   6.664  26.468   3.686
71880W        W43551  30.553  12.188   4.605
71881W        W43552  40.585  16.116   3.741
71882W        W43553  30.778  20.647  11.090
71883W        W43554  29.682  16.685   3.085
71884W        W43555  16.226   1.300  11.506
71885W        W43556  23.275  16.140  10.977
71886W        W43557  18.293  43.308   4.615
71887W        W43558  38.300  38.534  12.414
71888W        W43559   7.254  24.471   4.281
71889W        W43560  10.258   7.852  11.138
71890W        W43561  42.570  24.534   4.407
71891W        W43562  27.064  26.467   1.371
71892W        W43563  21.671   3.920  10.467
71893W        W43564  32.508  35.326   2.742
71894W        W43565  44.351  29.989  14.367
71895W        W43566  16.257  43.017   1.264
71896W        W43567   5.876  29.101  10.673
71897W        W43568  12.860  34.023   2.286
71898W        W43569  44.940  33.884   1.406
71899W        W43570  15.153  16.288   4.477
71900W        W43571  21.106  28.530   3.260
71901W        W43572  31.416   0.753   0.682
71902W        W43573   4.736  28.429  14.317
71903W        W43574  29.639  41.948  11.690
71904W        W43575  12.595  40.803  14.425
71905W        W43576   7.113  10.186  10.586
71906W        W43577  39.933  20.360   1.325
71907W        W43578   7.785  44.359  13.076
71908W        W43579  28.142  11.871   2.589
71909W        W43580  14.977  17.347  12.371
71910W        W43581  40.078  40.333   4.130
71911W        W43582  22.967  24.277  13.255
71912W        W43583   3.447  43.994  13.907
71913W        W43584  10.250  13.870  14.445
71914W        W43585  41.334   2.921   0.808
71915W        W43586  34.704  31.020   3.187
71916W        W43587  39.981  41.296   1.122
71917W        W43588  11.755   8.760  11.612
71918W        W43589  38.782  29.089   2.473
71919W        W43590  15.070  14.277  11.992
71920W        W43591   1.239   7.714  12.328
71921W        W43592  14.805  11.322   2.294
71922W        W43593  25.891  39.231   2.167
71923W        W43594  10.250   9.964   3.201
71924W        W43595  11.828  11.920  11.872
71925W        W43596   5.662  33.655   2.632
71926W        W43597  31.424  43.431  12.420
71927W        W43598  18.527  15.430  10.188
71928W        W43599  38.337  34.344  12.411
71929W        W43600  13.153   6.543  13.543
71930W        W43601  39.091  11.640  13.766
71931W        W43602  36.905  41.430  10.556
71932W        W43603  20.245  31.886  13.067
71933W        W43604  18.237  29.643   3.247
71934W        W43605  26.590   8.980  14.391
71935W        W43606  42.398   0.523   0.442
71936W        W43607  17.289  35.593  11.115
71937W        W43608  39.321  24.598  14.082
71938W        W43609  35.093   1.714  13.573
71939W        W43610  41.017   5.265   3.794
71940W        W43611  29.608  16.722  13.535
71941W        W43612  41.899  35.814  12.651
71942W        W43613  34.817   0.336   1.750
71943W        W43614   2.121  26.505  13.361
71944W        W43615  34.141  35.622   0.946
71945W        W43616   3.197  23.163   1.641
71946W        W43617  32.572  31.158   3.628
71947W        W43618   1.399  16.276   0.300
71948W        W43619  32.872  19.033   0.233
71949W        W43620  42.289  25.253  13.527
71950W        W43621  30.584  27.191  12.859
71951W        W43622   9.288  35.422  13.754
71952W        W43623  15.288   9.686  10.526
71953W        W43624  11.127   6.219  12.487
71954W        W43625  32.564  10.655  12.406
71955W        W43626  11.675   6.602   2.340
71956W        W43627  32.341   0.575   3.728
71957W        W43628  23.316  30.452   2.792
71958W        W43629  13.784   3.221  14.438
71959W        W43630  21.187   9.342   3.694
71960W        W43631  19.073  35.805   3.642
71961W        W43632  14.108   3.411  11.026
71962W        W43633  30.627  16.362  14.897
71963W        W43634  18.063  23.015   3.777
71964W        W43635  19.832   9.886  14.412
71965W        W43636  26.593  18.890  10.719
71966W        W43637  38.868  40.551  12.671
71967W        W43638  19.028   5.035  10.761
71968W        W43639  34.533  26.281   0.373
71969W        W43640  23.243  33.523   4.902
71970W        W43641  13.658  23.467  14.405
71971W        W43642  17.615  37.561   4.132
71972W        W43643  14.886  41.318  10.765
71973W        W43644  12.297  17.605  11.126
71974W        W43645  11.234  32.856   2.775
71975W        W43646  31.148  12.359   0.471
71976W        W43647  35.320  20.310  13.242
71977W        W43648  18.214  14.029  11.175
71978W        W43649  37.886  35.909   2.736
71979W        W43650  33.602  43.849   2.711
71980W        W43651  29.495  15.447   1.447
71981W        W43652   1.765  24.504   5.001
71982W        W43653   3.215   3.712   0.463
71983W        W43654   7.164  11.357   0.668
71984W        W43655  29.634  16.551   0.716
71985W        W43656   9.934  44.799  13.911
71986W        W43657  26.973  32.183   2.661
71987W        W43658  19.737  20.232  13.040
71988W        W43659  14.261  11.815   0.932
71989W        W43660  27.554  13.891  12.945
71990W        W43661  38.991  31.728   1.149
71991W        W43662  15.141  38.322  14.560
71992W        W43663  21.630  10.061   1.234
71993W        W43664   9.596  40.596  12.721
71994W        W43665  17.181  26.321  11.688
71995W        W43666  11.145   0.137  10.777
71996W        W43667  41.709  20.758   3.210
71997W        W43668  28.505  17.056   1.936
71998W        W43669   3.888  20.045  11.136
71999W        W43670  41.531  16.529  13.020
72000W        W43671  23.023  34.315   0.385
72001W        W43672  27.404   8.673   3.672
72002W        W43673  37.009   0.813   1.943
72003W        W43674   4.971  12.743  12.857
72004W        W43675   9.981  36.175   3.968
72005W        W43676  34.440   2.326   2.851
72006W        W43677  30.136  39.026  14.966
72007W        W43678  13.665   9.160   4.492
72008W        W43679  38.448  43.508  13.308
72009W        W43680  12.580  29.050  11.690
72010W        W43681  12.545  14.200  13.983
72011W        W43682  28.673  29.261  10.767
72012W        W43683  23.705  19.599   4.820
72013W        W43684  28.880   0.560   1.462
72014W        W43685  27.406  44.458  13.558
72015W        W43686  37.391   7.392  13.959
72016W        W43687  21.669  38.635   2.712
72017W        W43688  44.809  38.530   1.360
72018W        W43689   8.612  22.591   1.339
72019W        W43690   8.942  30.387   2.370
72020W        W43691  37.929  31.181   4.836
72021W        W43692  31.444  34.585  14.396
72022W        W43693   2.789  21.617  14.085
72023W        W43694  15.296   9.727   2.186
72024W        W43695  20.615  27.407  14.859
72025W        W43696  40.050   7.899  14.120
72026W        W43697  44.339   3.434  13.912
72027W        W43698   2.499  26.239  13.169
72028W        W43699  19.754  24.131   3.194
72029W        W43700  31.091  27.643  13.457
72030W        W43701  22.620  42.032  10.143
72031W        W43702  43.634   5.208  12.533
72032W        W43703  37.525   7.987   1.758
72033W        W43704   5.278   3.518   1.314
72034W        W43705  43.490  20.109  11.041
72035W        W43706  40.385   5.307   2.889
72036W        W43707   8.875  23.958  14.827
72037W        W43708  37.492  27.250   4.892
72038W        W43709  22.408  25.267  11.204
72039W        W43710  38.285  31.229   1.720
72040W        W43711  18.704  32.040  10.791
72041W        W43712  27.942  21.225   4.172
72042W        W43713  19.527   2.676  14.286
72043W        W43714  42.801   7.632  11.474
72044W        W43715  44.560  14.428   3.683
72045W        W43716  11.783  19.398   4.238
72046W        W43717  28.419  32.278  13.452
72047W        W43718   6.352  27.139   3.127
72048W        W43719  21.733  19.089  13.994
72049W        W43720  19.296  43.503  11.061
72050W        W43721   4.399  35.427  12.455
72051W        W43722  35.277  18.183  11.113
72052W        W43723  20.838   9.154  11.254
72053W        W43724  32.866  33.951  13.474
72054W        W43725  17.778  14.086   4.234
72055W        W43726   4.882  44.483   1.278
72056W        W43727   1.208  18.175   4.810
72057W        W43728  12.601  13.293  14.129
72058W        W43729  11.281  19.105  14.299
72059W        W43730  43.447  35.362   0.449
72060W        W43731  36.736   8.698  10.727
72061W        W43732   0.883  14.747   4.851
72062W        W43733  33.072  25.180   2.400
72063W        W43734   0.939  15.813  14.574
72064W        W43735  32.083   8.688   0.471
72065W        W43736  23.433  30.668  10.579
72066W        W43737  12.417  19.273   2.239
72067W        W43738   7.431  31.180   0.147
72068W        W43739  11.948  15.979  10.708
72069W        W43740  13.325   2.042   2.455
72070W        W43741  25.923  42.580  14.501
72071W        W43742  13.614  34.831   3.784
72072W        W43743  12.370  44.428   0.931
72073W        W43744  20.081  24.760  14.299
72074W        W43745   7.970  30.160   4.156
72075W        W43746   2.009  25.560   4.584
72076W        W43747  24.689  19.538  13.812
72077W        W43748   0.704  34.696  13.306
72078W        W43749  10.646  43.005  12.577
72079W        W43750  41.537  18.653   3.815
72080W        W43751  32.422  36.306  13.793
72081W        W43752   1.331  21.319   1.050
72082W        W43753  32.646   4.802   1.810
72083W        W43754  32.599  31.525   3.984
72084W        W43755  42.476  39.343   4.608
72085W        W43756  38.925   1.220   3.491
72086W        W43757  15.150   7.505   9.772
72087W        W43758  18.131  14.362  12.127
72088W        W43759  23.920   5.652  13.798
72089W        W43760   8.903  38.369  14.875
72090W        W43761  27.823  14.797  10.636
72091W        W43762  35.962  28.255   1.680
72092W        W43763  14.087   9.763  12.433
72093W        W43764   8.737  36.945   4.149
72094W        W43765  39.417  29.990  11.995
72095W        W43766  40.441  14.656  14.050
72096W        W43767  18.228  23.526  14.299
72097W        W43768  32.186  41.481  11.628
72098W        W43769  40.320  17.990  14.949
72099W        W43770  37.983  24.059  12.424
72100W        W43771  24.794  33.206  11.472
72101W        W43772  19.757  42.326  13.853
72102W        W43773  38.508  12.930  14.550
72103W        W43774  32.010  29.689   3.155
72104W        W43775   0.438  29.951   0.844
72105W        W43776  37.498  44.367   4.095
72106W        W43777  13.376  16.269   2.234
72107W        W43778   2.696  31.146  13.276
72108W        W43779  19.731  35.905   2.731
72109W        W43780   4.751  33.190   0.842
72110W        W43781  12.288  36.172   3.700
72111W        W43782  19.647   5.131   3.801
72112W        W43783  40.796  14.705  14.427
72113W        W43784  44.854  19.550  10.662
72114W        W43785  28.624   1.479   0.812
72115W        W43786  32.008   4.659   4.705
72116W        W43787  21.198  20.067   4.214
72117W        W43788  18.129  20.830  13.599
72118W        W43789  11.809  38.900   2.497
72119W        W43790  30.213  27.284   4.311
72120W        W43791  42.554  12.411   0.518
72121W        W43792   4.438  14.477  12.843
72122W        W43793  42.535  41.453   1.430
72123W        W43794   0.026   2.555   0.843
72124W        W43795  25.168  20.769  10.596
72125W        W43796   8.757   6.094  13.053
72126W        W43797  21.759   2.294  13.921
72127W        W43798  14.167  37.548  13.953
72128W        W43799  18.194  22.753  12.773
72129W        W43800  18.044  11.781   3.158
72130W        W43801  35.810  38.431   2.275
72131W        W43802  25.620  31.939  14.566
72132W        W43803  19.569  40.907   4.580
72133W        W43804  39.233  19.681  13.967
72134W        W43805  41.368   8.813   2.756
72135W        W43806  24.441  34.321  13.118
72136W        W43807   0.832  25.180  13.537
72137W        W43808  32.144  34.916  14.242
72138W        W43809   0.009  20.131   4.604
72139W        W43810   6.755  40.267  13.908
72140W        W43811  34.023  35.862   0.394
72141W        W43812  43.145   3.056   0.218
72142W        W43813   2.415  15.247   1.538
72143W        W43814  34.154  23.521   3.202
72144W        W43815  34.498   9.215   0.921
72145W        W43816  32.678  37.319   3.879
72146W        W43817  31.407  15.698  12.937
72147W        W43818  22.200   4.609   0.840
72148W        W43819  33.971  37.253  13.095
72149W        W43820   9.132  34.164   3.743
72150W        W43821  39.387  33.248   2.066
72151W        W43822  19.552  23.803  10.756
72152W        W43823  11.140  39.379   2.698
72153W        W43824  30.064  23.488  14.783
72154W        W43825  15.553  28.785  11.138
72155W        W43826  33.957  40.384  11.103
72156W        W43827  35.558  29.497  11.602
72157W        W43828   1.485  28.415  13.190
72158W        W43829  35.889  19.266  13.332
72159W        W43830  11.856   6.264  14.028
72160W        W43831   4.321  33.344  11.547
72161W        W43832  25.074   6.171   3.771
72162W        W43833  34.836  37.025  10.258
72163W        W43834  35.890  28.065   2.159
72164W        W43835  18.631   3.248   4.364
72165W        W43836   7.417  11.905   2.810
72166W        W43837  20.702  22.970  14.497
72167W        W43838  32.521   7.403   0.356
72168W        W43839  35.501  22.721  12.016
72169W        W43840   3.508  27.507  13.596
72170W        W43841  37.075   3.683  13.688
72171W        W43842   0.791  28.960  11.060
72172W        W43843  22.996  28.199   1.869
72173W        W43844  32.485  16.541  11.677
72174W        W43845  23.796  25.274   0.456
72175W        W43846  42.180  12.230   1.933
72176W        W43847   1.239  14.361   4.915
72177W        W43848  27.943  31.630  10.657
72178W        W43849  34.334  15.215   0.920
72179W        W43850  40.393  25.138  11.664
72180W        W43851   0.261  14.721   0.132
72181W        W43852  28.399   2.331  12.426
72182W        W43853   0.934  37.508   2.669
72183W        W43854  22.078  13.421   3.650
72184W        W43855  16.950  12.455  13.841
72185W        W43856  36.410   8.773  11.175
72186W        W43857  33.146   5.421   4.667
72187W        W43858  12.140   5.489   1.805
72188W        W43859  40.910  10.714  11.259
72189W        W43860  41.990   4.829   4.469
72190W        W43861  42.938  10.621   2.202
72191W        W43862  37.639   5.904  14.045
72192W        W43863  39.800   5.374  10.656
72193W        W43864  28.967  13.852   3.892
72194W        W43865  11.070  19.271  10.776
72195W        W43866  23.679  18.841  14.352
72196W        W43867   0.372  19.139  12.388
72197W        W43868   2.052  12.298   2.280
72198W        W43869  23.483  34.971  12.370
72199W        W43870  17.010  21.717   2.923
72200W        W43871  27.312  14.828  14.283
72201W        W43872   2.220  29.728  12.998
72202W        W43873   6.848  18.780   1.917
72203W        W43874   3.889  44.524  12.583
72204W        W43875  31.067  28.495  12.238
72205W        W43876  22.984  40.929   2.232
72206W        W43877  25.184  22.203   3.865
72207W        W43878  28.246  14.830  10.317
72208W        W43879  15.278  27.236   1.719
72209W        W43880  14.350  16.842   3.253
72210W        W43881  31.808  39.014  10.703
72211W        W43882   6.857  36.183  13.029
72212W        W43883  44.043  42.248   2.947
72213W        W43884  34.601  12.173  14.868
72214W        W43885  16.319  14.270   4.409
72215W        W43886   2.695  27.988   0.451
72216W        W43887  19.758  37.432   0.012
72217W        W43888  31.894  24.504   4.651
72218W        W43889  32.005  14.531  14.358
72219W        W43890  34.181  28.623  12.138
72220W        W43891  44.986  14.481  10.782
72221W        W43892  30.487  14.290   4.162
72222W        W43893  35.637  21.434  14.735
72223W        W43894  20.365  33.894   0.391
72224W        W43895  43.012  28.025   3.146
72225W        W43896   7.759  18.932   1.609
72226W        W43897  30.008  12.235   0.472
72227W        W43898  38.436  29.979   4.959
72228W        W43899  23.660   8.727  11.840
72229W        W43900  28.869  34.929   4.942
72230W        W43901  20.574  12.212   3.984
72231W        W43902  31.420  15.057  12.404
72232W        W43903   7.182  16.878  14.331
72233W        W43904  29.902   6.518  12.031
72234W        W43905  11.655  14.110  10.580
72235W        W43906  41.526  28.604   0.693
72236W        W43907   1.039  14.312  13.398
72237W        W43908  12.233  31.875  10.468
72238W        W43909  16.836  38.508   0.347
72239W        W43910  26.930  33.558  12.102
72240W        W43911   1.184   1.748   4.631
72241W        W43912  15.749  20.558   4.227
72242W        W43913  41.412  24.759  13.815
72243W        W43914  20.922  44.540  11.232
72244W        W43915  17.487  30.445   1.542
72245W        W43916  39.651  17.562   0.460
72246W        W43917  29.927  21.937   2.716
72247W        W43918  16.310  28.417   3.211
72248W        W43919  20.226  23.515   5.546
72249W        W43920  16.160  42.292  11.800
72250W        W43921  42.504  26.497  10.726
72251W        W43922  14.333  20.796  10.934
72252W        W43923  41.533  37.479   2.786
72253W        W43924  38.447  19.193  11.168
72254W        W43925  44.280   0.754  11.619
72255W        W43926  35.486  24.286   2.507
72256W        W43927  31.933  21.103   3.308
72257W        W43928  11.260   7.188   4.769
72258W        W43929  26.571  26.936   3.492
72259W        W43930  26.247   0.988   0.078
72260W        W43931   2.822  33.854  10.631
72261W        W43932   4.670  23.489   1.834
72262W        W43933  20.665   3.288  12.092
72263W        W43934  20.021  11.658   9.812
72264W        W43935  25.134  44.112   0.431
72265W        W43936  31.659  18.477   2.136
72266W        W43937   9.185  35.221  12.473
72267W        W43938   8.720  11.692   2.294
72268W        W43939  32.811   4.891   2.326
72269W        W43940   5.922   3.731  11.976
72270W        W43941   0.510  16.135   0.463
72271W        W43942  16.377  15.785  14.611
72272W        W43943   0.733  12.138  12.528
72273W        W43944  39.822  25.015   1.801
72274W        W43945  24.394  34.365  10.818
72275W        W43946  38.262  42.038   4.594
72276W        W43947  40.595   7.972   0.386
72277W        W43948  42.637  29.440   4.162
72278W        W43949  12.094  14.963   1.762
72279W        W43950  41.016  26.308   3.149
72280W        W43951  43.401  40.933   4.558
72281W        W43952  43.524  13.787   2.674
72282W        W43953  36.238  29.338   4.300
72283W        W43954  10.160  18.199  11.179
72284W        W43955  13.298  10.674   1.251
72285W        W43956  27.470  43.462   4.278
72286W        W43957  24.174  25.371  10.153
72287W        W43958  19.171   7.717  14.850
72288W        W43959  20.828  32.149   0.405
72289W        W43960  10.161  16.267  12.482
72290W        W43961   9.122   3.003  11.102
72291W        W43962  30.954   8.770  10.757
72292W        W43963   5.381   3.786   2.936
72293W        W43964   9.460  21.526   0.327
72294W        W43965  19.212  14.305  14.873
72295W        W43966  30.442  28.465   3.588
72296W        W43967  31.632  33.962  11.991
72297W        W43968  26.479  39.522  14.349
72298W        W43969  13.814  31.002  14.970
72299W        W43970  43.496  21.305   9.583
72300W        W43971  26.033  37.033   0.787
72301W        W43972  13.331  36.663  13.838
72302W        W43973  41.832  36.915  11.756
72303W        W43974  19.084  20.951  10.519
72304W        W43975  31.573  40.811   4.144
72305W        W43976  40.452  23.594   2.317
72306W        W43977  31.491   8.903   4.756
72307W        W43978  12.926  31.069   3.174
72308W        W43979   5.174  41.876   3.713
72309W        W43980  29.024   1.163   0.778
72310W        W43981   7.556  41.374  12.359
72311W        W43982  38.321  26.362  10.587
72312W        W43983  25.934  24.109   3.061
72313W        W43984  32.567   6.126  11.977
72314W        W43985  10.862   6.381   2.815
72315W        W43986  21.408  25.761   1.870
72316W        W43987  32.385  19.613  12.803
72317W        W43988  29.452  41.287   1.761
72318W        W43989   8.204  21.049   1.422
72319W        W43990  23.229  11.465  12.939
72320W        W43991  14.285  23.984   3.970
72321W        W43992  32.000  30.213   3.252
72322W        W43993  35.385  10.526   3.580
72323W        W43994  35.033  10.377   2.309
72324W        W43995  41.823  43.390  11.476
72325W        W43996  16.203  39.293   4.381
72326W        W43997  36.434   4.080  10.676
72327W        W43998  28.574   2.804   0.197
72328W        W43999   1.406  34.942   1.271
72329W        W44000  32.855  43.657   2.218
72330W        W44001  14.607  19.328  13.993
72331W        W44002   3.852   7.768   4.157
72332W        W44003   2.109  40.298  12.832
72333W        W44004  13.715  16.734  13.469
72334W        W44005   5.035   5.875  11.678
72335W        W44006  16.021   5.483  11.975
72336W        W44007  32.345  13.819  13.341
72337W        W44008  10.644   1.863   2.416
72338W        W44009  44.564  15.171   2.223
72339W        W44010  13.247  11.622  14.380
72340W        W44011   2.681  34.038  12.439
72341W        W44012  33.673  26.854  14.982
72342W        W44013  26.484  29.890   0.358
72343W        W44014  30.791  27.181  13.738
72344W        W44015  26.788  24.635   1.998
72345W        W44016  26.240  30.009  11.145
72346W        W44017  25.328  18.155  13.907
72347W        W44018  23.439  34.337   0.693
72348W        W44019  23.618  39.357   5.010
72349W        W44020   9.740   5.691   3.311
72350W        W44021   2.733  22.450  14.000
72351W        W44022   2.600  21.798  10.224
72352W        W44023  10.262  18.366  10.286
72353W        W44024  16.061  31.540  12.501
72354W        W44025  39.003   0.151  10.067
72355W        W44026   0.218  10.322  14.372
72356W        W44027   0.060  15.762   2.769
72357W        W44028  18.680  19.715   1.656
72358W        W44029   6.157   3.809   3.260
72359W        W44030  30.077  28.630   4.536
72360W        W44031  11.585  38.381  14.674
72361W        W44032   3.892  26.799  13.307
72362W        W44033  33.872  18.059  13.504
72363W        W44034  43.482  25.479  12.444
72364W        W44035  20.037  25.487   9.740
72365W        W44036   2.051  24.115   2.195
72366W        W44037  44.366  30.239   2.337
72367W        W44038  22.141  28.639  14.935
72368W        W44039  29.547  20.610  11.153
72369W        W44040  26.457  11.766   1.726
72370W        W44041  41.242  38.030  13.400
72371W        W44042   7.656  43.880  12.355
72372W        W44043  42.013  14.167  13.400
72373W        W44044  20.797  18.764   3.919
72374W        W44045  27.415  10.591  13.315
72375W        W44046  40.827  14.079   2.427
72376W        W44047  31.021  44.133   4.667
72377W        W44048  32.756  11.332  14.318
72378W        W44049   9.587  19.676  12.071
72379W        W44050   9.138  13.085   0.437
72380W        W44051  13.200  27.570   4.751
72381W        W44052  17.815   2.442   3.688
72382W        W44053  30.691  40.666   4.136
72383W        W44054  26.637   8.654  14.788
72384W        W44055  28.079  13.673  10.084
72385W        W44056  31.437   3.707   3.668
72386W        W44057  44.614  18.100  14.445
72387W        W44058  38.867  32.064   1.597
72388W        W44059  28.951   9.675  13.379
72389W        W44060   6.463  21.724  12.995
72390W        W44061  14.549  31.384  11.625
72391W        W44062  20.069  23.162   0.236
72392W        W44063   5.976  34.044  14.859
72393W        W44064  21.595  32.697   1.898
72394W        W44065   6.651   6.190   0.981
72395W        W44066  30.912   8.359  11.077
72396W        W44067  26.616   9.897  12.965
72397W        W44068  34.870  10.256   4.311
72398W        W44069  37.129  20.877   1.468
72399W        W44070  23.560  33.635  12.085
72400W        W44071  40.379   2.929   2.936
72401W        W44072  33.133   1.308   1.500
72402W        W44073  12.845  11.707   3.217
72403W        W44074  30.020  30.389   4.743
72404W        W44075  18.254  40.637   0.638
72405W        W44076  43.278  17.409   1.027
72406W        W44077   8.630  29.872  11.617
72407W        W44078  17.580   5.008   1.423
72408W        W44079   4.600  39.956   3.133
72409W        W44080  38.635  38.571   3.258
72410W        W44081  43.863  43.036  14.523
72411W        W44082  15.759  10.106   2.383
72412W        W44083  41.929  18.155  11.015
72413W        W44084  41.451  44.461   4.450
72414W        W44085  38.642  23.712   3.091
72415W        W44086  30.753  15.113   0.314
72416W        W44087  43.825  19.576   0.064
72417W        W44088  28.007  23.961  11.550
72418W        W44089  30.006  44.292  11.001
72419W        W44090  29.470  38.404   3.298
72420W        W44091  37.873  43.674   1.290
72421W        W44092  10.521  22.603  12.890
72422W        W44093  42.869  11.143   0.293
72423W        W44094   9.848   5.718  12.540
72424W        W44095  19.587  39.088   0.396
72425W        W44096  18.272  35.306  12.038
72426W        W44097   2.452  31.201   2.751
72427W        W44098  23.402  43.419  12.962
72428W        W44099  17.433  31.351  11.104
72429W        W44100   2.338  17.078  11.590
72430W        W44101   5.729  33.412  10.562
72431W        W44102  42.953  36.214   2.949
72432W        W44103  44.536   4.910  12.026
72433W        W44104   4.679  14.197   0.353
72434W        W44105  32.324  36.590   3.295
72435W        W44106  28.436   6.036   1.699
72436W        W44107  12.279   4.140  11.607
72437W        W44108   1.780  13.768   2.255
72438W        W44109  39.875  25.571  14.766
72439W        W44110  24.040  11.269   2.828
72440W        W44111  37.323  43.284   0.168
72441W        W44112   1.254  13.871  12.778
72442W        W44113  18.741  16.801   0.225
72443W        W44114  23.061  21.095  12.541
72444W        W44115  28.284   6.858   4.640
72445W        W44116   5.247  10.530  13.992
72446W        W44117   0.522  43.969   4.662
72447W        W44118  42.491  29.463  11.474
72448W        W44119  43.049  36.389  11.066
72449W        W44120  13.221  17.707  12.890
72450W        W44121  19.418  10.666  12.902
72451W        W44122  12.417  30.006  11.094
72452W        W44123   3.882  11.299  11.780
72453W        W44124  18.180  40.081  10.739
72454W        W44125   6.721  33.926  13.079
72455W        W44126  33.925  40.500  14.837
72456W        W44127  12.832  44.765  10.988
72457W        W44128  16.276  44.073  14.043
72458W        W44129  23.521  22.010  13.466
72459W        W44130  29.332  10.316   5.241
72460W        W44131  28.626  27.490   1.742
72461W        W44132  43.959  15.013  12.457
72462W        W44133  41.901  22.495   4.176
72463W        W44134  27.867  36.597   1.481
72464W        W44135  18.407  29.641   0.907
72465W        W44136  32.183   4.161   1.690
72466W        W44137  10.291  25.595   4.644
72467W        W44138   3.764  11.420   2.435
72468W        W44139  14.257  13.818  13.844
72469W        W44140  19.187  23.626  11.104
72470W        W44141  17.124  14.726  14.609
72471W        W44142  32.592  31.852   2.593
72472W        W44143  32.739  36.283   4.693
72473W        W44144  32.608  13.296   0.871
72474W        W44145  39.417  33.682   1.757
72475W        W44146  23.570  24.287   0.424
72476W        W44147  41.972  27.146  12.857
72477W        W44148  27.481  17.191  11.240
72478W        W44149  37.087  25.127   3.488
72479W        W44150   2.389  39.830   0.032
72480W        W44151   8.414  15.440  12.091
72481W        W44152  26.692   5.754  13.448
72482W        W44153  35.033  20.437  11.176
72483W        W44154  36.908  35.456   0.921
72484W        W44155  17.646  35.362  13.567
72485W        W44156  32.434  20.307  14.946
72486W        W44157  22.644  28.219   1.434
72487W        W44158  18.561  14.424   0.030
72488W        W44159   8.419  12.134  13.409
72489W        W44160  20.766  43.938   2.707
72490W        W44161  40.006  23.421  14.642
72491W        W44162  28.934  13.986   2.913
72492W        W44163  23.133  33.918  14.214
72493W        W44164  40.440  28.588   1.667
72494W        W44165  33.091  17.032   3.662
72495W        W44166   3.821  25.498  10.665
72496W        W44167   1.396  40.640  11.044
72497W        W44168   2.664  39.883   1.382
72498W        W44169  22.248  34.424   4.590
72499W        W44170  24.870  19.807   4.864
72500W        W44171  28.120  20.685  14.099
72501W        W44172  20.767  36.347   0.280
72502W        W44173  40.293  10.888   2.827
72503W        W44174   0.354   7.051   2.161
72504W        W44175  43.841   2.813   1.860
72505W        W44176  31.144  29.197  14.769
72506W        W44177  24.706   0.683  13.910
72507W        W44178  36.952  44.841   0.791
72508W        W44179  19.115  12.211  12.367
72509W        W44180  27.407   7.246  10.592
72510W        W44181  20.361  30.583  12.699
72511W        W44182  24.945  34.016   4.669
72512W        W44183  16.793  38.545   1.225
72513W        W44184  43.688  18.075   3.245
72514W        W44185  11.916  19.227   2.272
72515W        W44186  32.132  32.033   3.370
72516W        W44187  14.001   8.359  11.862
72517W        W44188  24.898   6.667   2.736
72518W        W44189  18.197  26.019  12.102
72519W        W44190  23.581  28.125   0.907
72520W        W44191   9.943  28.872  12.127
72521W        W44192   9.672   2.425   3.611
72522W        W44193  14.760  25.494   1.639
72523W        W44194  13.622  44.231   3.630
72524W        W44195  34.896  41.481  14.227
72525W        W44196  25.524  40.995   4.661
72526W        W44197  26.729  22.963  11.097
72527W        W44198  44.105  43.684   1.783
72528W        W44199   2.445   8.654  12.017
72529W        W44200  21.571  30.091   4.742
72530W        W44201  34.280  23.542  12.341
72531W        W44202   4.353  14.075  14.704
72532W        W44203  15.257  29.111  12.283
72533W        W44204  19.727  39.825  14.731
72534W        W44205  36.815  38.564  12.845
72535W        W44206   6.645  21.129   2.796
72536W        W44207   1.162   1.646  13.052
72537W        W44208  32.182  15.974  12.970
72538W        W44209  29.558  24.751   3.092
72539W        W44210  33.804  41.788   0.281
72540W        W44211  42.829  20.266  11.664
72541W        W44212  38.911  10.794  14.794
72542W        W44213  25.458  24.223  10.707
72543W        W44214  30.138  39.375   3.553
72544W        W44215  22.540   2.534   2.895
72545W        W44216   2.530  37.288  12.922
72546W        W44217  21.981   7.180   1.016
72547W        W44218  34.427  26.388  11.680
72548W        W44219  38.494  39.629   1.631
72549W        W44220  23.300  12.659  14.441
72550W        W44221   7.141  41.862   1.672
72551W        W44222  18.265  33.695  12.553
72552W        W44223  24.898  34.100   1.125
72553W        W44224  39.496  16.769   1.860
72554W        W44225  42.342  20.542  11.236
72555W        W44226   4.572  23.965   2.683
72556W        W44227  11.742  14.350  14.376
72557W        W44228  21.999  17.808  12.066
72558W        W44229   4.339   0.933   3.357
72559W        W44230  42.646   5.799   4.575
72560W        W44231  22.043  21.331   3.817
72561W        W44232   2.869  44.117  13.356
72562W        W44233  16.314  31.421   0.897
72563W        W44234  31.928  20.766   2.544
72564W        W44235  30.979  26.492   2.409
72565W        W44236  42.863  34.853  11.584
72566W        W44237  17.836  11.838  10.600
72567W        W44238  14.790  37.056  13.250
72568W        W44239  12.776  15.331   2.832
72569W        W44240  27.966  16.066  11.101
72570W        W44241  39.470   9.701  10.682
72571W        W44242  36.907  29.207   0.276
72572W        W44243  22.641  39.364  14.297
72573W        W44244  17.978  25.607   0.320
72574W        W44245  29.588   3.142   0.950
72575W        W44246  27.360  26.888  11.946
72576W        W44247  28.380  29.910   3.786
72577W        W44248   2.169  32.673  12.975
72578W        W44249  30.128  13.854  12.108
72579W        W44250  20.155  33.432   0.450
72580W        W44251   2.775   4.752  13.438
72581W        W44252  34.911   6.596   3.655
72582W        W44253  11.950  17.655  13.452
72583W        W44254  13.613   1.820   4.612
72584W        W44255  44.493  33.602   9.855
72585W        W44256  34.875  14.659   4.168
72586W        W44257  29.774  37.113  12.876
72587W        W44258  15.405  10.554   4.006
72588W        W44259  11.737  11.615  14.365
72589W        W44260  15.793  30.575   2.268
72590W        W44261  11.850  20.929   0.975
72591W        W44262  20.577   2.780  11.981
72592W        W44263  17.114  39.944   0.823
72593W        W44264  17.050  33.395   3.510
72594W        W44265  14.100  33.455   4.951
72595W        W44266  27.554  30.753  14.685
72596W        W44267   2.863  10.228   3.741
72597W        W44268  35.591  44.308   2.197
72598W        W44269  32.649  25.483  10.750
72599W        W44270  36.361   5.908   0.003
72600W        W44271   6.480   2.299   2.671
72601W        W44272   1.311  24.656  14.777
72602W        W44273  12.136  18.481   3.410
72603W        W44274  12.847  20.230   0.408
72604W        W44275  35.541  23.853   3.757
72605W        W44276   0.499  33.129   0.772
72606W        W44277  11.302  32.422   3.714
72607W        W44278  35.255  27.028   0.001
72608W        W44279  22.549  26.131   0.259
72609W        W44280   6.212  13.343  10.870
72610W        W44281  18.651  34.848  13.866
72611W        W44282  43.252  33.962   4.908
72612W        W44283  37.257  12.270   0.308
72613W        W44284  33.408  28.198  13.250
72614W        W44285  22.616  18.472  13.820
72615W        W44286   5.916  25.157   4.394
72616W        W44287  39.863  23.131  11.210
72617W        W44288  22.625  24.737   2.689
72618W        W44289  43.534  10.807   0.486
72619W        W44290  41.490  37.640  11.154
72620W        W44291  14.541  33.569   4.690
72621W        W44292  40.419  25.216  14.268
72622W        W44293   4.452  20.724  11.983
72623W        W44294  32.533   4.543  14.920
72624W        W44295   9.590   4.739  11.641
72625W        W44296  15.848  11.813  12.297
72626W        W44297  44.011  18.592   2.353
72627W        W44298  39.623  13.551  12.059
72628W        W44299   9.773   7.117   4.141
72629W        W44300   4.651  29.757  13.811
72630W        W44301   9.927  19.293  13.198
72631W        W44302   5.715   5.222  11.229
72632W        W44303  23.750  15.118  14.543
72633W        W44304  19.440   9.888  12.387
72634W        W44305  37.488  26.589  14.867
72635W        W44306  35.547  30.921  11.244
72636W        W44307  28.385  39.243  13.874
72637W        W44308  42.022  43.293   3.097
72638W        W44309  41.463  33.478  12.881
72639W        W44310  20.011   1.835  12.813
72640W        W44311  43.935  35.185  11.776
72641W        W44312  27.241  35.294   3.665
72642W        W44313  10.919  31.643   3.875
72643W        W44314   2.860  20.142  12.608
72644W        W44315  21.716  22.067   4.143
72645W        W44316  39.062  38.467   1.995
72646W        W44317  19.208   1.452  14.746
72647W        W44318  42.568  34.593   3.822
72648W        W44319   1.005  24.150   2.369
72649W        W44320  10.059  16.591   4.678
72650W        W44321  42.559  26.205   2.224
72651W        W44322  27.713  30.699  10.664
72652W        W44323   6.289  19.534   4.177
72653W        W44324  28.592  20.156   3.247
72654W        W44325   5.458  42.267  12.485
72655W        W44326  20.064  18.627  14.537
72656W        W44327   0.344  30.424   1.846
72657W        W44328  18.134   2.803  11.639
72658W        W44329  40.130   3.152  11.558
72659W        W44330  40.815  38.454  11.809
72660W        W44331  25.828  32.053   4.640
72661W        W44332  11.817  16.911  11.942
72662W        W44333   8.923  31.092   3.287
72663W        W44334   7.181  28.753  14.711
72664W        W44335   2.653  25.198   0.359
72665W        W44336  39.386  28.980   3.181
72666W        W44337  18.473  24.510  10.533
72667W        W44338   9.277  10.932   3.935
72668W        W44339  40.861  18.500  11.667
72669W        W44340  42.530   9.464  13.387
72670W        W44341   9.381  31.393   1.866
72671W        W44342  21.297  14.198   2.644
72672W        W44343  35.933   9.826   2.301
72673W        W44344  16.351  29.076  11.543
72674W        W44345  36.152  24.684  14.918
72675W        W44346   2.447  12.809  10.128
72676W        W44347   4.412  43.407   3.261
72677W        W44348  32.184  31.850   2.896
72678W        W44349  40.149   5.275  14.481
72679W        W44350   9.892   9.827   1.182
72680W        W44351  16.619  37.901  11.123
72681W        W44352  10.864  17.292  12.977
72682W        W44353   4.979  43.828   4.871
72683W        W44354  19.378  11.686  14.905
72684W        W44355  29.128   3.016   4.014
72685W        W44356  29.196  30.983  12.402
72686W        W44357  22.499   7.652  11.332
72687W        W44358  22.517  11.553  12.391
72688W        W44359   9.184   0.521   1.898
72689W        W44360  15.165  18.229   4.772
72690W        W44361  26.634  10.685   0.356
72691W        W44362  37.419  29.634  14.852
72692W        W44363  30.848  12.609   2.194
72693W        W44364  35.303  44.975   4.190
72694W        W44365   7.899   2.296  10.345
72695W        W44366  27.748  30.191  10.795
72696W        W44367  34.671  31.028   0.306
72697W        W44368  36.424  10.581  11.612
72698W        W44369   4.228  41.048   1.976
72699W        W44370  36.163   1.832  12.517
72700W        W44371  41.873  14.086   0.792
72701W        W44372   9.409  31.086  14.989
72702W        W44373  28.556  21.223   3.190
72703W        W44374  12.763  43.445   2.649
72704W        W44375  10.993  41.320   4.085
72705W        W44376  37.107   7.668   0.227
72706W        W44377  33.664  34.731  13.956
72707W        W44378  30.122   4.958  13.970
72708W        W44379  38.667  42.470   1.780
72709W        W44380  31.458   5.432  14.999
72710W        W44381  11.746  10.672  13.490
72711W        W44382  35.805  26.453   1.456
72712W        W44383  39.641  22.452   4.320
72713W        W44384  16.488  22.032   0.929
72714W        W44385  41.809   5.794  14.889
72715W        W44386   1.320   2.724   4.551
72716W        W44387   4.242  18.090  12.464
72717W        W44388  36.984   0.940   2.433
72718W        W44389  21.069   0.007  13.427
72719W        W44390  25.552  19.284   1.939
72720W        W44391  28.401  10.308   4.530
72721W        W44392   8.878   3.791   1.175
72722W        W44393   9.707  30.360  13.508
72723W        W44394   2.535  20.270   3.139
72724W        W44395  12.583  20.709   4.178
72725W        W44396  23.390  28.620   1.020
72726W        W44397  41.399   8.887  14.749
72727W        W44398  43.924  13.761  14.544
72728W        W44399  10.954  18.476   5.047
72729W        W44400  23.560  33.838  13.942
72730W        W44401  26.622   3.817  12.900
72731W        W44402  19.212  10.763   3.937
72732W        W44403  32.546  19.600  11.953
72733W        W44404  31.059  37.755  14.396
72734W        W44405   7.594  35.347  11.663
72735W        W44406  32.373  34.528   0.444
72736W        W44407  10.138  36.941   2.893
72737W        W44408   4.494  32.963  13.618
72738W        W44409  29.427  27.877   0.405
72739W        W44410  10.241  39.526  14.789
72740W        W44411  37.989  43.511   2.884
72741W        W44412  38.249  38.601  11.153
72742W        W44413  42.153  32.887   0.902
72743W        W44414  13.211  35.087   0.791
72744W        W44415  10.833  39.879  11.834
72745W        W44416  16.746  10.190   4.527
72746W        W44417   6.418  25.122   4.076
72747W        W44418   1.286   6.880  12.998
72748W        W44419  41.335  36.481   4.545
72749W        W44420  23.073  27.037  12.097
72750W        W44421  36.442  24.388   1.663
72751W        W44422  44.228  12.915  10.688
72752W        W44423  17.829  22.822  14.525
72753W        W44424   0.802  31.112  10.643
72754W        W44425  23.512  21.111   4.147
72755W        W44426  16.977   1.300   0.817
72756W        W44427  13.807   5.687   4.476
72757W        W44428  43.033  11.603   5.073
72758W        W44429  18.627  25.589   2.268
72759W        W44430  21.664  13.608   3.364
72760ION    NA+44431  21.024  23.977   4.694
72761ION    NA+44432   3.201  43.245  14.726
72762ION    NA+44433   6.321  42.598  11.051
72763ION    NA+44434  18.752  20.275   1.265
72764ION    NA+44435  35.738  38.057   4.860
72765ION    NA+44436  19.843  34.397   1.972
72766ION    NA+44437   9.344  19.061  13.112
72767ION    NA+44438  16.333  20.613  13.561
72768ION    NA+44439  19.942  22.446  12.949
72769ION    NA+44440   4.693  33.747  11.975
72770ION    NA+44441  22.851  21.900   2.230
72771ION    NA+44442  38.267  26.458   1.090
72772ION    NA+44443   7.640  26.468   3.694
72773ION    NA+44444  35.378   5.706  14.311
72774ION    NA+44445   6.877   1.185   2.995
72775ION    NA+44446  37.354  24.058  14.395
72776ION    NA+44447  30.791  18.756   1.706
72777ION    NA+44448   4.764  18.538  14.951
72778ION    NA+44449   5.373  15.498  12.524
72779ION    NA+44450  35.453  10.683  10.799
72780ION    NA+44451  42.465  18.962  14.188
72781ION    NA+44452   1.717  37.818   0.160
72782ION    NA+44453  13.886  10.480  13.815
72783ION    NA+44454  39.951   2.427  13.590
72784ION    NA+44455  43.601   6.942  14.784
72785ION    NA+44456  10.181  30.624   0.943
72786ION    NA+44457   9.377  11.780  14.092
72787ION    NA+44458  23.667  16.040   4.661
72788ION    NA+44459  19.508  18.029   3.648
72789ION    NA+44460  20.306   7.377  10.205
72790ION    NA+44461   0.228  14.314   4.090
72791ION    NA+44462  24.050  14.732  11.917
72792ION    NA+44463  33.778  42.188  12.937
72793ION    NA+44464  29.712  40.646   2.138
72794ION    NA+44465  14.428   9.700   1.147
72795ION    NA+44466  13.830  35.604   4.673
72796ION    NA+44467  28.371   8.863   1.849
72797ION    NA+44468   2.675  41.506   0.567
72798ION    NA+44469  28.059  16.892   4.360
72799ION    NA+44470   9.154  37.964   3.445
72800ION    NA+44471  11.117  14.960   0.728
72801ION    NA+44472  12.728   1.912   4.548
72802ION    NA+44473  18.722  25.383  11.507
72803ION    NA+44474  26.999  20.045  11.384
72804ION    NA+44475  18.169  20.656   0.054
72805ION    NA+44476   7.607  29.789   1.873
72806ION    NA+44477  19.037  18.147  12.491
72807ION    NA+44478  15.079  38.553  12.628
72808ION    NA+44479   5.165  25.222   0.482
72809ION    NA+44480  27.974  18.643  12.459
72810ION    NA+44481  28.521   7.576   3.037
72811ION    NA+44482  41.062  29.177  13.128
72812ION    NA+44483  30.983  39.796   2.823
72813ION    NA+44484   8.600  38.790   3.340
72814ION    NA+44485  42.432  17.327  13.239
72815ION    NA+44486   5.923  30.591  10.735
72816ION    NA+44487  19.920  27.653  10.263
72817ION    NA+44488  24.911  14.646  11.649
72818ION    NA+44489   7.415  39.545   1.487
72819ION    NA+44490  21.677   5.646  11.137
72820ION    NA+44491  13.215  42.591   2.999
72821ION    NA+44492   9.851  32.473   0.195
72822ION    NA+44493   6.910  41.993   0.444
72823ION    NA+44494  37.091  29.643   1.636
72824ION    NA+44495   1.973   7.548  14.684
72825ION    NA+44496  37.280  41.913   2.736
72826ION    NA+44497   7.022  30.871   4.645
72827ION    NA+44498  28.957  34.372  11.581
72828ION    NA+44499  37.786  39.411  13.223
72829ION    NA+44500  29.853  22.849  14.790
72830ION    NA+44501  40.845  12.410  14.021
72831ION    NA+44502  28.423  44.225   3.026
72832ION    NA+44503  42.706  18.442   2.420
72833ION    NA+44504   4.224   1.436  10.645
72834ION    NA+44505  18.789  24.698  13.765
72835ION    NA+44506  30.294  24.880  11.120
72836ION    NA+44507  13.043  26.894   1.685
72837ION    NA+44508  31.475  18.202  11.158
72838ION    NA+44509   6.234   5.422   3.678
72839ION    NA+44510  31.688  11.336   2.844
72840ION    NA+44511  42.035  12.881  10.455
72841ION    NA+44512  13.628  43.961  14.365
72842ION    NA+44513  35.657   0.241  12.607
72843ION    NA+44514  16.129  32.926   0.538
72844ION    NA+44515  25.185  39.633  12.441
72845ION    NA+44516  14.756   0.468   4.658
72846ION    NA+44517  42.203  38.254   2.839
72847ION    NA+44518  12.710  36.523  12.134
72848ION    NA+44519  17.329  17.601  11.814
72849ION    NA+44520   8.432  33.341  13.232
72850ION    NA+44521  16.694  29.985   4.487
72851ION    NA+44522  11.184  13.794  11.350
72852ION    NA+44523   5.880  43.198   0.991
72853ION    NA+44524  43.000  19.990   4.570
72854ION    NA+44525  44.058   9.664  14.692
72855ION    NA+44526  30.174  25.138   3.166
72856ION    NA+44527  13.794  43.369   1.718
72857ION    NA+44528  40.443  34.832  11.562
72858ION    NA+44529  14.355  31.842   4.402
72859ION    NA+44530  35.171  31.243   0.710
72860ION    NA+44531   3.173  40.299  11.341
72861ION    NA+44532  34.790   0.546   0.006
72862ION    NA+44533  37.429  38.357  11.571
72863ION    NA+44534  37.608  38.556  14.951
72864ION    NA+44535  32.941   3.661   1.021
72865ION    NA+44536  32.620   2.394   3.759
72866ION    NA+44537  11.392  19.164   2.170
72867ION    NA+44538  27.506  17.210   1.272
72868ION    NA+44539  13.170   9.789   3.385
72869ION    NA+44540  42.952  12.754   4.581
72870ION    NA+44541  30.399   5.441   4.298
72871ION    NA+44542  20.317  22.274   3.605
72872ION    NA+44543   1.504  35.237  10.963
72873ION    NA+44544  18.047  25.841   1.655
72874ION    NA+44545  39.305   0.743   0.052
72875ION    NA+44546  26.160  40.636   1.929
72876ION    NA+44547  43.935  17.514  10.556
72877ION    NA+44548  37.251  21.949  11.837
72878ION    NA+44549  13.258  35.233   2.060
72879ION    NA+44550  31.611  35.942   1.443
72880ION    NA+44551   9.368   7.455  13.039
72881ION    NA+44552  33.633  21.857  10.339
72882ION    NA+44553  15.567  33.606  13.813
72883ION    NA+44554   3.842  44.208   4.036
72884ION    NA+44555  10.162  11.664  14.546
72885ION    NA+44556  29.481  33.928   3.139
72886ION    NA+44557  28.728  18.874  14.295
72887ION    NA+44558  12.784  15.684   0.185
72888ION    NA+44559  32.498  18.813   1.634
72889ION    NA+44560  11.196  25.481   2.884
72890ION    NA+44561  17.512  17.265  14.741
72891ION    NA+44562  38.500   6.816   2.654
72892ION    NA+44563   7.896  18.825  14.271
72893ION    NA+44564   3.294   4.641  13.438
72894ION    NA+44565  19.439   8.749  11.260
72895ION    NA+44566  34.016  41.087  10.974
72896ION    NA+44567  34.120  37.638   0.460
72897ION    NA+44568  29.248   3.786   2.001
72898ION    NA+44569  35.219  10.226   5.240
72899ION    NA+44570   8.786  25.269  12.338
72900ION    NA+44571  31.132  36.243  13.497
72901ION    NA+44572  15.636   3.373   2.748
72902ION    NA+44573  13.850   2.687  11.177
72903ION    NA+44574  26.060  28.645   1.823
72904ION    NA+44575   4.951  39.524  10.719
72905ION    NA+44576  36.930  37.576  13.828
72906ION    NA+44577  39.485  43.113   1.162
72907ION    NA+44578  20.775  11.303   2.477
72908ION    NA+44579   0.342  12.117   3.361
72909ION    NA+44580   4.339  27.413   5.080
72910ION    NA+44581  32.540  19.849   3.574
72911ION    NA+44582  44.637   9.958   0.924
72912ION    NA+44583   5.806  37.861  13.362
72913ION    NA+44584  44.903  14.593  14.018
72914ION    NA+44585  40.187  20.266   3.324
72915ION    NA+44586   4.111  37.093   4.454
72916ION    NA+44587   0.898  38.143   3.816
72917ION    NA+44588  29.980  42.405  11.014
72918ION    NA+44589  18.001   1.634   3.714
72919ION    NA+44590  17.377   8.437   0.529
72920ION    NA+44591  13.937  20.181  14.335
72921ION    NA+44592   0.896  10.280  13.752
72922ION    NA+44593  16.870   2.261  12.881
72923ION    NA+44594  23.215  33.398  14.565
72924ION    NA+44595  24.551  33.829  14.882
72925ION    NA+44596  33.837  36.902  12.699
72926ION    NA+44597  17.403  33.468  12.631
72927ION    NA+44598  17.044   8.588  13.815
72928ION    NA+44599   6.886   4.024   0.011
72929ION    NA+44600   5.754  42.204   1.324
72930ION    NA+44601  24.942  40.821  11.852
72931ION    NA+44602  18.636  28.731   0.881
72932ION    NA+44603   5.106  41.905  14.873
72933ION    NA+44604  40.770   4.831  11.307
72934ION    NA+44605  41.299  27.116   1.475
72935ION    NA+44606  33.992  13.718  12.324
72936ION    NA+44607  20.143  18.512  13.654
72937ION    NA+44608  26.386  18.860   4.416
72938ION    NA+44609   6.079   4.060   2.301
72939ION    NA+44610  29.029  21.143  11.610
72940ION    NA+44611  15.654  26.705   4.319
72941ION    NA+44612  25.403  31.526  12.520
72942ION    NA+44613  30.260  24.738  13.456
72943ION    NA+44614  15.601  43.399   3.886
72944ION    NA+44615  10.067  19.146  10.392
72945ION    NA+44616  34.788  20.318  13.116
72946ION    NA+44617  18.634  30.588   9.515
72947ION    NA+44618  11.357  19.503   4.535
72948ION    NA+44619  23.682  28.514  10.705
72949ION    NA+44620   9.055  27.172  12.058
72950ION    NA+44621  17.670  35.363   0.922
72951ION    NA+44622  21.058  39.544  13.919
72952ION    NA+44623  44.722  10.775  14.965
72953ION    NA+44624  42.457  16.456   0.258
72954ION    NA+44625  41.490  25.928  12.459
72955ION    NA+44626  10.333  13.033  14.873
72956ION    NA+44627  33.048  12.674  12.384
72957ION    NA+44628   5.639  32.903  13.050
72958ION    NA+44629  18.857  44.944  13.979
72959ION    NA+44630   3.267  44.671   5.201
72960ION    NA+44631  22.306  24.550   5.169
72961ION    NA+44632  29.531  28.423  14.480
72962ION    NA+44633  34.488  14.125   3.211
72963ION    NA+44634  39.983   0.799  13.822
72964ION    NA+44635  32.221  41.251   1.894
72965ION    NA+44636  19.288  12.398  11.392
72966ION    NA+44637  10.111  42.733  13.136
72967ION    NA+44638  44.954  26.858  11.163
72968ION    NA+44639   1.331  20.722   2.758
72969ION    NA+44640  32.135  19.329  12.441
72970ION    NA+44641  35.257   2.825   4.171
72971ION    NA+44642  17.334  28.451  13.210
72972ION    NA+44643  22.832  13.282   1.145
72973ION    NA+44644   7.255  30.820  14.751
72974ION    NA+44645  12.722  15.714  11.909
72975ION    NA+44646  14.558  11.247  11.239
72976ION    NA+44647   0.475  32.542  12.056
72977ION    NA+44648   2.496  24.533  12.059
72978ION    NA+44649  16.152  27.668  12.602
72979ION    NA+44650   2.530   7.743   2.652
72980ION    NA+44651  36.865   5.142  11.103
72981ION    NA+44652  34.916  17.855  13.411
72982ION    NA+44653   6.301  36.695  14.443
72983ION    NA+44654   1.798  28.503   3.434
72984ION    NA+44655  35.012  26.374   1.034
72985ION    NA+44656   4.663  40.240  12.926
72986ION    NA+44657  36.798   8.599  14.847
72987ION    NA+44658  18.807   5.626  12.412
72988ION    NA+44659  16.182  10.216  10.370
72989ION    NA+44660   6.368  31.413  11.091
72990ION    NA+44661  36.516  14.264  10.228
72991ION    NA+44662  11.406   4.262   0.929
72992ION    NA+44663  43.985   6.438  11.122
72993ION    NA+44664  12.905  32.140   4.709
72994ION    NA+44665  35.386   9.090  13.880
72995ION    NA+44666  34.348  33.068   3.733
72996ION    NA+44667  26.552  39.539   1.267
72997ION    NA+44668  29.655  23.733   3.212
72998ION    NA+44669  11.988  14.809   4.362
72999ION    NA+44670  44.204  37.305  12.010
73000ION    NA+44671   7.658   7.219  11.465
73001ION    NA+44672  13.256  18.264  12.023
73002ION    NA+44673  31.947  41.985  11.955
73003ION    NA+44674   9.455  23.616   4.375
73004ION    NA+44675  43.800  29.431   2.611
73005ION    NA+44676  14.155  40.045  11.346
73006ION    NA+44677  31.818  12.943   4.689
73007ION    NA+44678  14.641   5.006  10.220
73008ION    NA+44679  22.144  43.509  10.970
73009ION    NA+44680  34.001  38.796   3.773
73010ION    NA+44681  27.063  39.907  13.939
73011ION    NA+44682   2.181   3.020   0.240
73012ION    NA+44683  11.172  17.135  10.726
73013ION    NA+44684  11.413  38.971  12.403
73014ION    NA+44685   8.848   1.949  12.402
73015ION    NA+44686   2.818  39.153  14.009
73016ION    NA+44687   5.159   3.988  12.136
73017ION    NA+44688  27.256  20.197  12.992
73018ION    NA+44689  20.646  40.056   1.351
73019ION    NA+44690  16.792  38.983   2.833
73020ION    NA+44691  24.433  42.550   2.526
73021ION    NA+44692  31.099  39.326  13.428
73022ION    NA+44693  39.337  14.242  10.339
73023ION    NA+44694  28.230  38.358  14.473
73024ION    NA+44695  28.186  19.830   0.327
73025ION    NA+44696  15.157  23.246   1.673
73026ION    NA+44697  12.331  12.267  13.813
73027ION    NA+44698  41.103   5.634  11.091
73028ION    NA+44699  19.302  31.049   1.619
73029ION    NA+44700  28.655  23.878   4.851
73030ION    NA+44701   6.176  17.654  13.528
73031ION    NA+44702  28.640  44.585   9.614
73032ION    NA+44703  14.318  38.297   0.754
73033ION    NA+44704   8.757   9.161  12.789
73034ION    NA+44705  34.923   1.202  14.407
73035ION    NA+44706  11.934   7.343  13.124
73036ION    NA+44707  24.490   5.165   4.284
73037ION    NA+44708  18.653  27.743   3.738
73038ION    NA+44709   9.199   9.735   0.032
73039ION    NA+44710  17.983  31.583  13.170
73040ION    NA+44711   7.060  14.243  12.547
73041ION    NA+44712  20.759  16.971  12.007
73042ION    NA+44713  14.413  40.070   0.295
73043ION    NA+44714  14.834  11.817  12.521
73044ION    NA+44715  35.496  15.585  13.395
73045ION    NA+44716  20.699  36.837   0.172
73046ION    NA+44717  15.557  43.320   4.932
73047ION    NA+44718   6.647  16.335   5.042
73048ION    NA+44719  32.859   9.108  11.674
73049ION    NA+44720  20.548  22.470  12.148
73050ION    NA+44721  17.839   6.853   1.623
73051ION    NA+44722   2.773  30.225   5.009
73052ION    NA+44723  24.815   7.186   2.874
73053ION    NA+44724  23.940  22.133  13.775
73054ION    NA+44725  34.421   2.753  11.801
73055ION    NA+44726  42.034  34.181   1.774
73056ION    NA+44727   8.272  32.677   4.521
73057ION    NA+44728  37.340   5.470   2.409
73058ION    NA+44729  35.397  23.154   0.320
73059ION    NA+44730  33.424  28.474  14.104
73060ION    NA+44731  18.345   4.404   3.026
73061ION    NA+44732  31.562   6.295  13.171
73062ION    NA+44733  21.265  35.893   4.245
73063ION    NA+44734   8.291  20.211   0.262
73064ION    NA+44735  23.381   9.230  12.874
73065ION    NA+44736  30.945  25.542   2.893
73066ION    NA+44737  25.510  13.519  14.805
73067ION    NA+44738   2.313  29.820   0.773
73068ION    NA+44739  25.668   3.330   1.024
73069ION    NA+44740  31.821  10.327  12.101
73070ION    NA+44741  25.277  34.872   2.187
73071ION    NA+44742   8.804   3.581   3.866
73072ION    NA+44743  25.185  25.095   1.866
73073ION    NA+44744  34.022   4.436   1.879
73074ION    NA+44745  38.034  26.903   3.193
73075ION    NA+44746   8.411  19.357  12.903
73076ION    NA+44747  15.560   8.597   1.488
73077ION    NA+44748  10.161  31.619   0.844
73078ION    NA+44749  24.150  21.511   2.883
73079ION    NA+44750  26.091   5.084   2.810
73080ION    NA+44751   8.135  38.342   0.946
73081ION    NA+44752  10.945  35.111  13.177
73082ION    NA+44753  29.766  36.226   2.973
73083ION    NA+44754  37.552   6.414   2.695
73084ION    NA+44755  23.530  19.011  13.850
73085ION    NA+44756  29.237  32.820  13.823
73086ION    NA+44757  24.064   1.308   1.780
73087ION    NA+44758  26.189  21.045   1.836
73088ION    NA+44759  28.582  42.417  10.793
73089ION    NA+44760  35.927  17.971  12.073
73090ION    NA+44761  10.847   5.696   1.941
73091ION    NA+44762  34.861  10.934  12.103
73092ION    NA+44763  37.913  21.490   3.245
73093ION    NA+44764  42.141  30.666  12.824
73094ION    NA+44765  37.873   4.445  13.977
73095ION    NA+44766  30.845  34.191   3.219
73096ION    NA+44767   9.434  20.359  10.697
73097ION    NA+44768  16.637  21.887  14.937
73098ION    NA+44769  26.001  33.951   4.711
73099ION    NA+44770   8.942   9.386   4.198
73100ION    NA+44771  18.461  44.909   1.779
73101ION    NA+44772   2.491  11.789  14.540
73102ION    NA+44773  26.028   4.092   4.938
73103ION    NA+44774  31.601   7.999   0.487
73104ION    NA+44775  40.320  31.980   1.348
73105ION    NA+44776  29.409  38.942  12.820
73106ION    NA+44777  20.312  17.512  13.923
73107ION    NA+44778   7.562  24.791   0.337
73108ION    NA+44779  20.305  40.309  11.601
73109ION    NA+44780  20.486  22.657   1.750
73110ION    NA+44781  23.712  23.790   3.705
73111ION    NA+44782   5.312  43.339   3.629
73112ION    NA+44783  36.537   3.126  12.535
73113ION    NA+44784  15.296  26.087  11.205
73114ION    NA+44785  19.822  24.582  14.720
73115ION    NA+44786  23.522   5.237  12.969
73116ION    NA+44787   3.134  14.446   3.113
73117ION    NA+44788   3.978  21.092   1.997
73118ION    NA+44789  36.244   2.476   0.331
73119ION    NA+44790  26.197  21.085   0.837
73120ION    NA+44791  21.814  35.776  13.600
73121ION    NA+44792  19.702  40.365  14.775
73122ION    NA+44793  33.928  40.123   3.244
73123ION    NA+44794  29.626   9.407  13.525
73124ION    NA+44795  37.944   3.873   0.416
73125ION    NA+44796  11.901  26.155  13.373
73126ION    NA+44797  36.996  32.948  11.871
73127ION    NA+44798  22.399  31.493  11.637
73128ION    NA+44799  33.539   2.104   0.773
73129ION    NA+44800  33.535  12.080   1.724
73130ION    NA+44801   6.822  41.824   2.339
73131ION    NA+44802  18.902  22.159  14.011
73132ION    NA+44803  39.869  20.051  11.217
73133ION    NA+44804  30.838  37.996   2.343
73134ION    NA+44805  17.977  23.285   2.076
73135ION    NA+44806  41.893  38.773   2.178
73136ION    NA+44807   3.206  25.116  11.618
73137ION    NA+44808  19.640  32.161   0.592
73138ION    NA+44809  33.179   3.863   0.052
73139ION    NA+44810   7.741  40.801   3.103
73140ION    NA+44811  31.228  42.502  10.703
73141ION    NA+44812  23.048  36.786   2.836
73142ION    NA+44813  11.454   1.329  10.871
73143ION    NA+44814  43.461  30.408   3.680
73144ION    NA+44815  14.949  28.692  13.643
73145ION    NA+44816   2.736  22.042  13.455
73146ION    NA+44817  40.211  29.179  14.253
73147ION    NA+44818   6.232  22.489   4.634
73148ION    NA+44819  12.641  11.723   3.693
73149ION    NA+44820  26.739  27.415   2.494
73150ION    NA+44821  20.744  28.671   3.610
73151ION    NA+44822  39.557  11.145   4.173
73152ION    NA+44823  34.112  20.980  10.287
73153ION    NA+44824  14.364  13.024   4.645
73154ION    NA+44825   8.666  10.560   1.748
73155ION    NA+44826  18.479  42.814  12.059
73156ION    NA+44827  14.481  23.403  11.072
73157ION    NA+44828   4.566   6.928   2.358
73158ION    NA+44829  24.738  18.808   1.311
73159ION    NA+44830  16.772  24.252   1.166
73160ION    NA+44831  44.986  23.085   0.968
73161ION    NA+44832  18.669  32.865   0.871
73162ION    NA+44833  43.102  13.383  11.538
73163ION    NA+44834  32.247   6.764   3.050
73164ION    NA+44835  42.946   8.902  14.479
73165ION    NA+44836  22.245  11.283   4.337
73166ION    NA+44837  20.345  10.563  12.236
73167ION    NA+44838  40.172  14.366  10.862
73168ION    NA+44839  22.252  34.039  13.356
73169ION    NA+44840  13.192  20.388   3.787
73170ION    NA+44841  25.893  30.586   0.274
73171ION    NA+44842  19.555  37.938   3.687
73172ION    NA+44843  18.084  41.574   2.081
73173ION    NA+44844  17.361  18.652   0.238
73174ION    NA+44845  23.359  44.271   0.432
73175ION    NA+44846  38.441  35.478   2.673
73176ION    NA+44847  24.913  19.795   3.240
73177ION    NA+44848  36.964  23.262   1.349
73178ION    NA+44849  19.770  19.714   0.927
73179ION    NA+44850  32.417  37.278   1.946
73180ION    NA+44851  28.395  13.001   3.197
73181ION    NA+44852  43.802   1.076   4.125
73182ION    NA+44853  31.775  40.085   3.426
73183ION    NA+44854  18.486   0.060   2.647
73184ION    NA+44855   1.271  41.837   0.360
73185ION    NA+44856  31.773   3.164   0.857
73186ION    NA+44857  10.607   6.743   5.222
73187ION    NA+44858  39.945  10.784  10.965
73188ION    NA+44859  20.372   6.507  11.068
73189ION    NA+44860  23.097   5.090   4.079
73190ION    NA+44861  18.800  15.804  12.406
73191ION    NA+44862   6.810  23.491   1.896
73192ION    NA+44863  12.087  41.314  14.055
73193ION    NA+44864   7.818   7.543  12.398
73194ION    NA+44865  43.441  32.171   1.456
73195ION    NA+44866  24.166   9.127   2.874
73196ION    NA+44867  17.227  26.245   3.794
73197ION    NA+44868  27.713  25.122   2.910
73198ION    NA+44869  27.394  33.161   2.721
73199ION    NA+44870  44.374  40.060  14.762
73200ION    NA+44871  44.494  14.668   9.473
73201ION    NA+44872  41.957  36.162   0.014
73202ION    NA+44873   8.286   6.210   1.273
73203ION    NA+44874  21.970  34.928   2.693
73204ION    NA+44875   6.650  33.464   2.927
73205ION    NA+44876  26.729  17.010   3.619
73206ION    NA+44877  20.526  29.926  13.980
73207ION    NA+44878   5.181   9.745   4.372
73208ION    NA+44879   3.634  38.534  13.082
73209ION    NA+44880  20.522  13.056  11.679
73210ION    NA+44881  28.511  12.310  10.585
73211ION    NA+44882  25.983  17.499  10.384
73212ION    NA+44883  20.624  10.278   4.396
73213ION    NA+44884  31.181  26.982   2.798
73214ION    NA+44885  33.979   9.077  12.563
73215ION    NA+44886   3.070  18.970  10.785
73216ION    NA+44887  24.592  32.007   5.298
73217ION    NA+44888  16.083   3.023  13.518
73218ION    NA+44889  13.729  12.803  10.772
73219ION    NA+44890  28.111  34.299  12.109
73220ION    NA+44891  28.645  36.034   1.019
73221ION    NA+44892  27.491   9.341   4.388
73222ION    NA+44893  22.051  28.410   3.065
73223ION    NA+44894  28.133  17.543  11.904
73224ION    NA+44895   9.731  33.474  12.083
73225ION    NA+44896   6.306  40.474  14.104
73226ION    NA+44897  19.827  37.171   2.820
73227ION    NA+44898  44.136   6.935   4.023
73228ION    NA+44899  27.114  38.446  12.986
73229ION    NA+44900  34.193  17.363  11.651
73230ION    NA+44901  19.098  25.400   1.922
73231ION    NA+44902  36.877  25.903  14.520
73232ION    NA+44903   6.464  30.932  14.428
73233ION    NA+44904  16.982   7.263  14.415
73234ION    NA+44905  27.665  12.090  13.544
73235ION    NA+44906  37.676  38.485   3.099
73236ION    NA+44907   5.223  17.806   1.366
73237ION    NA+44908  32.499  19.468  14.510
73238ION    NA+44909  38.868  22.855   0.919
73239ION    NA+44910  15.186  40.850   0.351
73240ION    NA+44911  37.051  28.759   1.668
73241ION    NA+44912  23.461  40.416  14.010
73242ION    NA+44913   5.937  29.716  13.184
73243ION    NA+44914  21.935   7.739  14.405
73244ION    NA+44915  29.623   4.245  11.289
73245ION    NA+44916  36.284  11.793  12.972
73246ION    NA+44917  40.563  38.265  13.506
73247ION    NA+44918  28.641  26.497  14.127
73248ION    NA+44919  35.469  30.010   2.745
73249ION    NA+44920   9.401  11.094   1.285
73250ION    NA+44921  36.018  38.393  11.840
73251ION    NA+44922   1.075  13.980   4.503
73252ION    NA+44923   5.326  33.258   2.522
73253ION    NA+44924   5.514  31.111  13.347
73254ION    NA+44925  29.888  38.117  12.102
73255ION    NA+44926  26.628  43.121   4.683
73256ION    NA+44927  39.257  17.764  11.845
73257ION    NA+44928  14.716  29.512   3.229
73258ION    NA+44929  36.878  24.767  10.915
73259ION    NA+44930  21.213   3.207  14.847
73260ION    NA+44931   9.716  40.848  11.883
73261ION    NA+44932  36.561   9.622  11.372
73262ION    NA+44933  24.261  12.434   0.143
73263ION    NA+44934  35.018   0.020   1.330
73264ION    NA+44935   1.846   1.192   0.568
73265ION    NA+44936  20.304  31.504  11.259
73266ION    NA+44937  27.624  13.207   2.156
73267ION    NA+44938   4.282   4.100   2.228
73268ION    NA+44939  26.169  27.996   3.960
73269ION    NA+44940  24.859  33.540   3.925
73270ION    NA+44941  40.427  27.429  12.656
73271ION    NA+44942  33.471  39.051  10.105
73272ION    NA+44943  21.421   2.193  14.623
73273ION    NA+44944  26.456   7.074   4.146
73274ION    NA+44945  40.431  30.149  11.145
73275ION    NA+44946  15.793  20.977   3.005
73276ION    NA+44947  40.831   7.330   4.642
73277ION    NA+44948  12.523  37.491   0.152
73278ION    NA+44949  40.410  41.774   4.171
73279ION    NA+44950  11.203  42.324   2.440
73280ION    NA+44951  36.719   7.496   2.946
73281ION    NA+44952  21.745  28.480  13.012
73282ION    NA+44953  42.648  12.325  13.269
73283ION    NA+44954  15.104  32.872   0.364
73284ION    NA+44955  40.621   5.905  13.839
73285ION    NA+44956  26.539  11.439   0.716
73286ION    NA+44957  19.321  40.770  12.116
73287ION    NA+44958  37.726  43.505  14.907
73288ION    NA+44959   7.071  37.608  14.467
73289ION    NA+44960  18.803   4.825  13.011
73290ION    NA+44961  26.514  38.972  11.628
73291ION    NA+44962   5.486  44.706   0.208
73292ION    NA+44963  34.813   8.680  12.946
73293ION    NA+44964  17.571  18.641  11.177
73294ION    NA+44965  15.184  23.466  12.896
73295ION    NA+44966  11.855   8.127  10.212
73296ION    NA+44967  34.106  24.681  13.476
73297ION    NA+44968  28.886  30.376   1.248
73298ION    NA+44969  20.565  23.072   0.382
73299ION    NA+44970  19.547  44.202   1.846
73300ION    NA+44971  26.811   5.237   4.546
73301ION    NA+44972  42.384   8.870  11.576
73302ION    NA+44973  28.073  24.603  12.741
73303ION    NA+44974  23.667  18.506  13.147
73304ION    NA+44975  30.525  27.986   4.499
73305ION    NA+44976  41.788   4.589  13.411
73306ION    NA+44977  16.582  32.521  11.202
73307ION    NA+44978  29.086  10.081   1.003
73308ION    NA+44979  42.338  26.181   0.279
73309ION    NA+44980  17.756  21.346  11.173
73310ION    NA+44981  11.246   0.154   2.655
73311ION    NA+44982  37.543  10.053   4.338
73312ION    NA+44983   2.438  23.232  11.645
73313ION    NA+44984  22.754  23.088  11.445
73314ION    NA+44985   6.348  40.500   0.488
73315ION    NA+44986  13.327  23.107   4.487
73316ION    NA+44987  23.131  27.959   4.455
73317ION    NA+44988   1.997   2.051  13.305
73318ION    NA+44989  31.653  30.660   2.406
73319ION    NA+44990   8.313   9.266   0.367
73320ION    NA+44991  15.471  19.242   1.803
73321ION    NA+44992   5.491  37.411   2.728
73322ION    NA+44993  16.575  37.076   2.829
73323ION    NA+44994  37.360  12.008  12.596
73324ION    NA+44995   4.078  32.328  12.905
73325ION    NA+44996  44.413   0.279   2.305
73326ION    NA+44997  29.446  28.327   3.699
73327ION    NA+44998  16.034   1.993   2.173
73328ION    NA+44999  44.897   4.400   0.393
73329ION    NA+45000  43.554  42.517  14.882
73330ION    NA+45001  22.974  26.407   2.084
73331ION    NA+45002  37.034   1.810  12.063
73332ION    NA+45003   4.746  35.025  12.436
73333ION    NA+45004  18.003  33.102   1.781
73334ION    NA+45005   3.059  19.147  12.251
73335ION    NA+45006   5.940   4.042  14.461
73336ION    NA+45007   8.173  18.306   1.391
73337ION    NA+45008   8.718   3.063   4.620
73338ION    NA+45009  34.396  21.500  12.231
73339ION    NA+45010  15.856   8.880   5.070
73340ION    NA+45011  29.701  18.468   0.937
73341ION    NA+45012  25.024  16.234   1.681
73342ION    NA+45013  24.276   3.216  14.812
73343ION    NA+45014   0.144  42.948   5.240
73344ION    NA+45015  23.376   2.741   1.290
73345ION    NA+45016  13.068  23.584   0.420
73346ION    NA+45017  16.789   5.260  10.232
73347ION    NA+45018   0.281  38.383   1.175
73348ION    NA+45019  16.609  33.436   2.693
73349ION    NA+45020   8.571  19.477  11.510
73350ION    NA+45021  18.701   5.187   3.645
73351ION    NA+45022  20.358   0.547   1.206
73352ION    NA+45023  31.108  18.979  14.983
73353ION    NA+45024  39.633  36.047  13.914
73354ION    NA+45025   5.550  42.839   0.118
73355ION    NA+45026  36.396  24.592  14.411
73356ION    NA+45027  13.598  37.132  11.966
73357ION    NA+45028  41.938  18.070  13.297
73358ION    NA+45029  10.060  22.229  10.748
73359ION    NA+45030   6.148   1.261   0.246
73360ION    NA+45031  25.046   0.221   2.337
73361ION    NA+45032  12.403  27.972  10.764
73362ION    NA+45033  37.637  20.746  12.197
73363ION    NA+45034  12.784  10.817  11.955
73364ION    NA+45035  23.960  36.849   3.863
73365ION    NA+45036  36.754  39.247   3.829
73366ION    NA+45037  16.503  36.283   1.481
73367ION    NA+45038  31.902   4.597  12.832
73368ION    NA+45039  18.833  14.546  11.983
73369ION    NA+45040  31.370   0.332   3.729
73370ION    NA+45041  27.287  22.552  12.275
73371ION    NA+45042  35.508  40.741   0.678
73372ION    NA+45043  28.700  37.460   1.641
73373ION    NA+45044  34.779  36.091  13.254
73374ION    NA+45045   8.664   7.772  12.563
73375ION    NA+45046  29.371  40.368   0.792
73376ION    NA+45047  40.170  27.958   3.457
73377ION    NA+45048  23.845  41.519   4.295
73378ION    NA+45049  11.042  43.769  12.614
73379ION    NA+45050   1.035  29.067  13.905
73380ION    NA+45051  20.748  13.916  13.513
73381ION    NA+45052  15.866   3.486   3.723
73382ION    NA+45053  18.905  22.661   3.615
73383ION    NA+45054  35.261   4.339   2.834
73384ION    NA+45055  33.753  22.018   4.450
73385ION    NA+45056  14.403   0.058  14.875
73386ION    NA+45057  25.550  19.011   3.464
73387ION    NA+45058  35.936   6.265  13.333
73388ION    NA+45059   8.817  12.938  14.917
73389ION    NA+45060   3.369  11.357  14.930
73390ION    NA+45061  37.164  17.553   1.900
73391ION    NA+45062  21.036  40.875   1.943
73392ION    NA+45063  39.037  24.907  12.221
73393ION    NA+45064   6.677   3.333  12.300
73394ION    NA+45065   5.812   8.744   1.329
73395ION    NA+45066   9.517   1.127  11.132
73396ION    NA+45067  10.725  36.796  11.512
73397ION    NA+45068   4.422  30.836   4.440
73398ION    NA+45069   1.282  42.069   3.127
73399ION    NA+45070  14.246  35.079   2.094
73400ION    NA+45071  43.877   0.896   2.419
73401ION    NA+45072   1.856  40.505  12.424
73402ION    NA+45073  15.869  32.052   2.188
73403ION    NA+45074  25.427  24.047  11.195
73404ION    NA+45075  34.579  30.183   4.786
73405ION    NA+45076  22.730  41.465   0.221
73406ION    NA+45077  20.276  19.107   0.220
73407ION    NA+45078   5.222   2.383  14.835
73408ION    NA+45079  22.674  38.419  13.604
73409ION    NA+45080  21.052   1.037  14.882
73410ION    NA+45081  40.322  33.691  10.766
73411ION    NA+45082  20.752  22.274   2.653
73412ION    NA+45083  37.878  39.635  10.037
73413ION    NA+45084  19.613  21.521  12.452
73414ION    NA+45085  13.131  30.689  13.942
73415ION    NA+45086  26.080  32.405   0.722
73416ION    NA+45087  44.298  38.845   3.533
73417ION    NA+45088  12.215   6.236   0.420
73418ION    NA+45089   4.802  37.528   3.645
73419ION    NA+45090  11.781  38.479   4.270
73420ION    NA+45091   0.465   9.617   0.759
73421ION    NA+45092  32.890   4.746  12.867
73422ION    NA+45093  30.997  36.965   2.900
73423ION    NA+45094  42.631  21.417   2.818
73424ION    NA+45095  36.721  37.888   4.930
73425ION    NA+45096  22.315  17.205   4.327
73426ION    NA+45097  40.993  36.371  14.132
73427ION    NA+45098  15.187  32.125   1.024
73428ION    NA+45099  11.724  13.466  13.309
73429ION    NA+45100  11.024   1.612   0.748
73430ION    NA+45101  26.679  10.740  12.808
73431ION    NA+45102  34.223  15.986   2.309
73432ION    NA+45103  13.154   6.401  12.648
73433ION    NA+45104  33.201  18.310   3.689
73434ION    NA+45105   0.060   6.802  11.298
73435ION    NA+45106  25.005  38.040  11.576
73436ION    NA+45107  25.437   5.283   4.599
73437ION    NA+45108  28.148   9.930   2.443
73438ION    NA+45109  21.185   3.517  14.033
73439ION    NA+45110  44.336  35.930   3.610
73440ION    NA+45111  42.563  39.298  10.833
73441ION    NA+45112  13.356  40.408  13.395
73442ION    NA+45113  28.187   7.638  10.374
73443ION    NA+45114  32.709  30.582   2.266
73444ION    NA+45115  19.132  18.195   1.799
73445ION    NA+45116   8.090  36.418  14.099
73446ION    NA+45117   4.718   6.589   4.882
73447ION    NA+45118   7.019  31.259   1.584
73448ION    NA+45119  16.467  43.825  13.337
73449ION    NA+45120  24.034  33.920  14.152
73450ION    NA+45121  44.976  32.256  14.656
73451ION    NA+45122  19.789   1.440   2.820
73452ION    NA+45123  11.307  31.427   1.228
73453ION    NA+45124  22.545  24.282   3.717
73454ION    NA+45125  15.974  30.122  13.077
73455ION    NA+45126  35.257  35.038   4.481
73456ION    NA+45127  34.424  22.310  13.380
73457ION    NA+45128  40.034  23.292  14.137
73458ION    NA+45129  33.439  23.008  13.726
73459ION    NA+45130  22.962   5.005  11.984
73460ION    NA+45131   7.767  10.407  13.825
73461ION    NA+45132  31.427  19.360  14.115
73462ION    NA+45133  14.154  10.222  11.657
73463ION    NA+45134   6.027  21.916   2.287
73464ION    NA+45135  12.580  42.746   0.040
73465ION    NA+45136  25.389  20.424   0.215
73466ION    NA+45137  11.941  33.828   9.823
73467ION    NA+45138  14.649  31.301  10.980
73468ION    NA+45139  43.558  27.244  11.166
73469ION    NA+45140  27.952  38.020   3.732
73470ION    NA+45141  43.693  44.927  11.742
73471ION    NA+45142  43.984  12.749   1.409
73472ION    NA+45143  34.406  12.002   2.917
73473ION    NA+45144   2.198  23.593   5.502
73474ION    NA+45145  41.861  39.740   2.430
73475ION    NA+45146   7.464  32.979  13.524
73476ION    NA+45147   5.918  23.664  11.630
73477ION    NA+45148  13.630  14.883   1.349
73478ION    NA+45149   6.095  39.107  14.472
73479ION    NA+45150  23.674  27.344   5.006
73480ION    NA+45151  23.164  25.285   2.769
73481ION    NA+45152  20.593  26.893   5.310
73482ION    NA+45153  18.071   9.325  14.447
73483ION    NA+45154   5.883  20.154   3.858
73484ION    NA+45155   1.919  25.504  13.130
73485ION    NA+45156   8.628  36.972  13.583
73486ION    NA+45157  41.780  29.015   3.760
73487ION    NA+45158  42.101  13.439  13.999
73488ION    NA+45159  17.501  21.287   3.223
73489ION    NA+45160  29.402  10.197  14.803
73490ION    NA+45161  15.072  43.022   0.563
73491ION    NA+45162  37.879  40.350  12.861
73492ION    NA+45163  18.711  29.966   4.087
73493ION    NA+45164   6.720  29.399   1.020
73494ION    NA+45165  17.858  44.085  11.222
73495ION    NA+45166  41.068  32.524  12.055
73496ION    NA+45167   8.309  27.957  10.656
73497ION    NA+45168  44.297   3.219   0.650
73498ION    NA+45169  18.062  17.792  10.965
73499ION    NA+45170  30.723  19.030   3.085
73500ION    NA+45171  23.033  34.631  14.899
73501ION    NA+45172  18.578  21.797   1.192
73502ION    NA+45173  41.113  14.489  11.224
73503ION    NA+45174   3.469  14.301   0.670
73504ION    NA+45175  30.197  24.912   1.077
73505ION    NA+45176  41.809  13.346  11.991
73506ION    NA+45177  28.097  35.877  13.391
73507ION    NA+45178  11.012  39.884  12.318
73508ION    NA+45179  34.660  31.472   2.866
73509ION    NA+45180  22.044  42.903   4.527
73510ION    NA+45181  16.259   9.414   0.104
73511ION    NA+45182   7.412  39.329   0.510
73512ION    NA+45183  40.235  29.025   1.959
73513ION    NA+45184  16.964  29.991  13.022
73514ION    NA+45185  17.285  37.453  11.423
73515ION    NA+45186  38.265  28.227  11.055
73516ION    NA+45187  43.394   5.368  13.224
73517ION    NA+45188   6.372  41.243   1.661
73518ION    NA+45189  30.416  35.694   0.371
73519ION    NA+45190  15.883  13.406  14.861
73520ION    NA+45191  32.303  10.560  12.839
73521ION    NA+45192  41.360  15.971   2.957
73522ION    NA+45193  20.766  26.606  10.282
73523ION    NA+45194  31.305   8.387   5.117
73524ION    NA+45195   4.010   2.280   1.919
73525ION    NA+45196  43.196  43.524   4.604
73526ION    NA+45197  15.262  35.582  14.526
73527ION    NA+45198  35.551  43.520   4.492
73528ION    NA+45199  14.655  43.943   2.856
73529ION    NA+45200  32.977  13.404  12.904
73530ION    NA+45201  16.006  23.181   0.826
73531ION    NA+45202  21.345  15.052   3.130
73532ION    NA+45203  34.346  42.860  13.507
73533ION    NA+45204  36.345   2.089   2.160
73534ION    NA+45205  10.652  13.490  12.010
73535ION    NA+45206  30.745   9.477   2.767
73536ION    NA+45207   6.334   5.187   4.645
73537ION    NA+45208  16.708  22.467   0.771
73538ION    NA+45209  14.214  15.696  11.943
73539ION    NA+45210  25.162  37.674   2.699
73540ION    NA+45211  18.613   0.449   0.434
73541ION    NA+45212   5.731  44.478  11.609
73542ION    NA+45213  20.258  43.129   0.868
73543ION    NA+45214  14.593   4.782  11.194
73544ION    NA+45215  25.230  17.195   1.867
73545ION    NA+45216  20.378  36.508   2.965
73546ION    NA+45217  44.120  22.887   2.149
73547ION    NA+45218   1.509  11.559  14.839
73548ION    NA+45219  18.197  34.694  14.071
73549ION    NA+45220   3.698  35.005  12.189
73550ION    NA+45221  42.675  44.753  11.938
73551ION    NA+45222  14.912  37.850   0.472
73552ION    NA+45223  17.634  26.066   2.388
73553ION    NA+45224   1.703  12.206  11.345
73554ION    NA+45225  34.622  44.164   2.448
73555ION    NA+45226  24.636  19.151  10.922
73556ION    NA+45227   3.223   5.817  14.619
73557ION    NA+45228  11.052  33.946   0.421
73558ION    NA+45229   3.553  19.596   0.482
73559ION    NA+45230  42.498  21.355  10.221
73560ION    NA+45231   6.650  18.400   3.297
73561ION    NA+45232  15.818  42.445   0.827
73562ION    NA+45233  32.093  42.418   0.302
73563ION    NA+45234  11.690   1.814  10.029
73564ION    NA+45235  32.539  42.872   4.358
73565ION    NA+45236   3.359  42.516  12.733
73566ION    NA+45237  31.192  27.576   0.556
73567ION    NA+45238  27.446   5.029  12.106
73568ION    NA+45239  21.838  42.386  13.777
73569ION    NA+45240  33.591  33.496  13.395
73570ION    NA+45241   6.344  36.013  11.044
73571ION    NA+45242  28.499  26.381   0.489
73572ION    NA+45243  31.437  36.002   0.415
73573ION    NA+45244  24.634  21.250  11.945
73574ION    NA+45245  36.458  25.061   5.381
73575ION    NA+45246  30.922  35.146  11.363
73576ION    NA+45247  10.314  16.095   1.113
73577ION    NA+45248  35.283   5.834  11.693
73578ION    NA+45249  31.197  13.897  14.938
73579ION    NA+45250  39.496  12.979   0.213
73580ION    NA+45251  38.384  14.513   3.727
73581ION    NA+45252  37.358   9.921  12.609
73582ION    NA+45253  39.855   4.710   0.780
73583ION    NA+45254   9.744  22.249  14.854
73584ION    NA+45255  19.783  42.419  10.669
73585ION    NA+45256  14.085  34.690  13.093
73586ION    NA+45257   9.655  28.919   3.876
73587ION    NA+45258  13.052  36.209   1.677
73588ION    NA+45259  30.763  21.700  11.919
73589ION    NA+45260  35.594  31.136  13.845
73590ION    NA+45261  11.603  20.050  12.876
73591ION    NA+45262  30.775  23.169   1.789
73592ION    NA+45263  18.791   2.204   1.795
73593ION    NA+45264  18.660  41.518  12.056
73594ION    NA+45265  17.606  22.394   1.274
73595ION    NA+45266  39.599  38.971  14.469
73596ION    NA+45267   8.561  14.177  13.076
73597ION    NA+45268  16.811   5.674  13.937
73598ION    NA+45269  20.316  25.601  12.579
73599ION    NA+45270  16.823   9.400  10.304
73600ION    NA+45271  38.544  26.366   2.046
73601ION    NA+45272  17.433  17.572  12.716
73602ION    NA+45273   1.280  26.632  13.658
73603ION    NA+45274   4.335  42.418   2.152
73604ION    NA+45275   8.550   2.535   5.452
73605ION    NA+45276   6.664  34.095  12.536
73606ION    NA+45277  33.219  20.507   2.117
73607ION    NA+45278  30.141  25.871   4.247
73608ION    NA+45279  34.087   1.481   1.331
73609ION    NA+45280  33.410  36.791  10.702
73610ION    NA+45281  15.325  11.274   4.425
73611ION    NA+45282  35.845  34.515   2.044
73612ION    NA+45283   2.565  31.062   1.276
73613ION    NA+45284  34.593  33.996   5.097
73614ION    NA+45285  19.583  20.554   1.992
73615ION    NA+45286   7.686   0.639   2.778
73616ION    NA+45287   7.230  28.486   2.769
73617ION    NA+45288  27.168  36.545  13.875
73618ION    NA+45289  27.455   0.606  10.790
73619ION    NA+45290  25.458  27.621   4.378
73620ION    NA+45291  29.002  32.676   4.040
73621ION    NA+45292  33.899  28.750  11.011
73622ION    NA+45293  14.756  14.643   1.745
73623ION    NA+45294   8.339  18.697   5.294
73624ION    NA+45295   3.756  13.229  11.164
73625ION    NA+45296  10.416  26.205   3.009
73626ION    NA+45297  15.567  25.187   0.925
73627ION    NA+45298   2.169  27.083   1.424
73628ION    NA+45299   2.062  28.616   2.476
73629ION    NA+45300  33.662  22.994  14.701
73630ION    NA+45301  13.928  13.830  12.114
73631ION    NA+45302  44.464  23.321   4.656
73632ION    NA+45303   0.598  16.684  12.084
73633ION    NA+45304  39.578  34.342  14.369
73634ION    NA+45305  28.811   8.634  10.231
73635ION    NA+45306  24.424   8.211   1.327
73636ION    NA+45307   7.560  21.847  14.187
73637ION    NA+45308  17.488  20.976   4.646
73638ION    NA+45309  40.932  33.105   3.485
73639ION    NA+45310  11.321   3.074   4.773
73640ION    NA+45311  41.038  43.578   0.265
73641ION    NA+45312  14.337  23.713  12.378
73642ION    NA+45313  42.420  22.973   2.253
73643ION    NA+45314  21.742  15.667  10.395
73644ION    NA+45315  31.869  26.416   3.279
73645ION    NA+45316  36.978   4.239  12.987
73646ION    NA+45317   3.920  37.603  11.461
73647ION    NA+45318  35.872  32.459   3.261
73648ION    NA+45319   0.476  30.945  14.002
73649ION    NA+45320  24.503  23.559  12.698
73650ION    NA+45321   6.960  30.352  14.096
73651ION    NA+45322  21.304   1.424  13.994
73652ION    NA+45323  34.611  44.393   4.046
73653ION    NA+45324  37.481  34.504  13.224
73654ION    NA+45325  31.652  24.801   2.579
73655ION    NA+45326  26.177  11.586   4.694
73656ION    NA+45327  14.821  32.602  13.091
73657ION    NA+45328  42.342  31.843  12.032
73658ION    NA+45329  23.152  23.873   1.748
73659ION    NA+45330  26.999  32.677   4.626
73660ION    NA+45331  40.362  14.140  13.998
73661ION    NA+45332  34.596  32.464  12.501
73662ION    NA+45333  40.471  24.754  13.358
73663ION    NA+45334  23.776  22.618  11.660
73664ION    NA+45335  37.457  38.807  10.042
73665ION    NA+45336  27.946   9.217  12.078
73666ION    NA+45337   8.653  33.535   0.890
73667ION    NA+45338  27.199  29.989  12.251
73668ION    NA+45339   2.937  28.189  12.752
73669ION    NA+45340  13.415  10.930  11.338
73670ION    NA+45341   7.843  24.115   1.772
73671ION    NA+45342  29.137  15.416   2.951
73672ION    NA+45343  24.696  36.645  13.451
73673ION    NA+45344  35.012  22.502  14.166
73674ION    NA+45345  22.201   6.279  14.307
73675ION    NA+45346  10.553  44.105  14.625
73676ION    NA+45347  40.041  41.509  14.301
73677ION    NA+45348  18.789   3.900   3.608
73678ION    NA+45349  18.381   3.389   2.715
73679ION    NA+45350  14.039  38.059  13.797
73680ION    NA+45351  25.728  32.873  11.427
73681ION    NA+45352  27.857  27.226   0.333
73682ION    NA+45353  19.703  30.103  13.184
73683ION    NA+45354   7.826  25.453  13.958
73684ION    NA+45355  24.579  26.120   1.818
73685ION    NA+45356  14.254  20.279  12.098
73686ION    NA+45357  18.917  25.313   0.201
73687ION    NA+45358  38.819  38.476  11.537
73688ION    NA+45359  29.883  20.068   2.702
73689ION    NA+45360  42.831  12.163  12.002
73690ION    NA+45361  24.104  18.805   1.205
73691ION    NA+45362  21.076   2.386   1.629
73692ION    NA+45363  16.512  22.161  13.521
73693ION    NA+45364  27.266  36.223   2.756
73694ION    NA+45365  11.104  19.869   1.387
73695ION    NA+45366   3.477   8.715  12.006
73696ION    NA+45367   3.957  29.375   1.268
73697ION    NA+45368  24.946  10.855   2.293
73698ION    NA+45369  16.773  38.799  14.821
73699ION    NA+45370  13.004  13.671  11.768
73700ION    NA+45371   1.309  36.863   2.350
73701ION    NA+45372  39.877  30.098  10.428
73702ION    NA+45373  30.710   4.256   2.525
73703ION    NA+45374   6.173  31.124   2.873
73704ION    NA+45375  43.427  18.893   2.151
73705ION    NA+45376   1.835  20.255   4.203
73706ION    NA+45377   2.682   6.897  11.202
73707ION    NA+45378  21.650  43.193   3.778
73708ION    NA+45379  21.867  44.239   0.359
73709ION    NA+45380  42.533   4.333   1.953
73710ION    NA+45381   4.852  38.931  13.174
73711ION    NA+45382  14.584   8.385   3.625
73712ION    NA+45383  20.515  33.068   2.242
73713ION    NA+45384  13.093   7.344  12.108
73714ION    NA+45385  37.993  14.591   5.413
73715ION    NA+45386  30.916  23.697   2.883
73716ION    NA+45387  31.490  21.144  12.477
73717ION    NA+45388  37.249   1.718   0.222
73718ION    NA+45389  20.642   0.498   2.474
73719ION    NA+45390  23.135  15.781  14.918
73720ION    NA+45391  10.980  26.635  14.286
73721ION    NA+45392  44.459  30.222  10.970
73722ION    NA+45393   9.790  13.578   3.534
73723ION    NA+45394  38.354  33.523  12.839
73724ION    NA+45395  15.550   2.639   3.878
73725ION    NA+45396  23.171  41.008   5.607
73726ION    NA+45397   6.304  38.855  12.394
73727ION    NA+45398  32.318  33.913  13.424
73728ION    NA+45399  33.202  20.920   4.816
73729ION    NA+45400  18.557  27.713   0.518
73730ION    NA+45401  40.505  28.507   1.127
73731ION    NA+45402  17.972   9.111   3.823
73732ION    NA+45403  37.040  25.209   2.984
73733ION    NA+45404  15.125  24.051  11.526
73734ION    NA+45405  40.907  25.689  11.548
73735ION    NA+45406   8.775   4.606  13.899
73736ION    NA+45407  16.015  22.298   3.321
73737ION    NA+45408  13.574   0.271   3.741
73738ION    NA+45409  39.166  25.835   2.823
73739ION    NA+45410  44.251  33.857  11.243
73740ION    NA+45411  17.370  37.907   1.677
73741ION    NA+45412   9.739  34.854   4.568
73742ION    NA+45413  30.402  40.252   4.238
73743ION    NA+45414   2.059   9.833  11.015
73744ION    NA+45415  31.446  10.408   0.059
73745ION    NA+45416   1.896   9.292  12.386
73746ION    NA+45417  35.947  18.722  11.413
73747ION    NA+45418  23.202  20.077  12.738
73748ION    NA+45419  10.317  25.631  10.957
73749ION    NA+45420  25.716  38.371   0.889
73750ION    NA+45421  25.731  40.758  12.533
73751ION    NA+45422  36.080  20.968   4.713
73752ION    NA+45423   0.805  15.659  11.165
73753ION    NA+45424   3.940  26.783   1.372
73754ION    NA+45425   8.209  31.598  14.992
73755ION    NA+45426   8.857   2.056   4.769
73756ION    NA+45427  38.434  17.142  11.581
73757ION    NA+45428   0.775  16.852   1.679
73758ION    NA+45429  16.809  18.537   2.377
73759ION    NA+45430  26.181  25.094  12.109
73760ION    NA+45431  31.842  30.914  11.564
73761ION    NA+45432  35.637  11.046   3.478
73762ION    NA+45433  15.786  28.851   3.930
73763ION    NA+45434  25.092  15.221   2.258
73764ION    NA+45435   7.535  25.796   0.240
73765ION    NA+45436   4.250  23.839  10.734
73766ION    NA+45437  41.150   2.643   3.111
73767ION    NA+45438   0.826  14.881  14.410
73768ION    NA+45439   2.498  42.507  13.540
73769ION    NA+45440  23.945  25.750  12.859
73770ION    NA+45441  16.867  41.909  12.378
73771ION    NA+45442  30.861  42.575   1.417
73772ION    NA+45443  36.529  18.507   0.683
73773ION    NA+45444  11.923  26.498  14.755
73774ION    NA+45445  41.673  11.744   5.011
73775ION    NA+45446   0.833  14.949  10.434
73776ION    NA+45447  34.435  25.254   0.557
73777ION    NA+45448  19.284  30.060   3.273
73778ION    NA+45449   6.318  34.119   1.034
73779ION    NA+45450  43.376  14.825  11.297
73780ION    NA+45451  17.774  29.964   3.731
73781ION    NA+45452   6.870  25.516   4.886
73782ION    NA+45453   0.596  17.869  13.772
73783ION    NA+45454   5.959  28.976  11.683
73784ION    NA+45455  13.426  43.177   0.912
73785ION    NA+45456  40.477  41.351   1.305
73786ION    NA+45457  25.206  13.304   2.653
73787ION    NA+45458  11.811  27.093   2.949
73788ION    NA+45459  41.609  18.834  11.693
73789ION    NA+45460  35.487  11.420  11.493
73790ION    NA+45461  24.700  43.901   0.175
73791ION    NA+45462  22.687  37.617   2.832
73792ION    NA+45463   8.241  44.924   3.203
73793ION    NA+45464  28.163  35.135   0.259
73794ION    NA+45465  20.110   8.378   2.595
73795ION    NA+45466  26.012  36.615  13.282
73796ION    NA+45467  40.704   0.971  14.758
73797ION    NA+45468  18.291  21.901   3.236
73798ION    NA+45469  44.223  20.508   5.617
73799ION    NA+45470  22.562  33.378  11.120
73800ION    NA+45471  12.071  41.224   2.470
73801ION    NA+45472  27.299  37.618   5.411
73802ION    NA+45473  28.238  38.029   2.396
73803ION    NA+45474  20.301   9.602  11.962
73804ION    NA+45475   2.113   2.811  11.374
73805ION    NA+45476  36.693  18.639   2.593
73806ION    NA+45477  11.636   6.590   3.298
73807ION    NA+45478  22.007  31.490  12.569
73808ION    NA+45479  38.979  13.281   3.254
73809ION    NA+45480  43.164  19.671  10.080
73810ION    NA+45481  38.562  42.708   5.348
73811ION    NA+45482  26.006  39.935  13.970
73812ION    NA+45483  30.098  42.982   1.403
73813ION    NA+45484  16.998  22.191   3.173
73814ION    NA+45485  35.565  19.307  13.975
73815ION    NA+45486   7.157  33.485  12.125
73816ION    NA+45487  17.324  19.376   4.721
73817ION    NA+45488  34.122   7.233  12.449
73818ION    NA+45489  17.734  14.060  13.969
73819ION    NA+45490   9.737  40.442  10.272
73820ION    NA+45491  31.446   4.837   0.357
73821ION    NA+45492  37.822  12.647  12.144
73822ION    NA+45493  40.750  36.579   1.334
73823ION    NA+45494   0.040   0.040  14.970
73824ION    NA+45495  40.713  33.120   4.364
73825ION    NA+45496  30.215  39.802  11.179
73826ION    NA+45497  13.565  19.751  12.616
73827ION    NA+45498  41.744  26.464   4.224
73828ION    NA+45499  33.566   9.942  12.278
73829ION    NA+45500  14.361   6.547  13.440
73830ION    NA+45501  41.531  36.505   1.953
73831ION    NA+45502  19.548  13.896   3.327
73832ION    NA+45503  22.345  24.283  10.621
73833ION    NA+45504  22.937  13.357   4.260
73834ION    NA+45505  11.030  17.581   2.781
73835ION    NA+45506  34.617   4.725  13.383
73836ION    NA+45507   0.248  42.598   0.668
73837ION    NA+45508  41.243  44.205  10.926
73838ION    NA+45509   4.038   4.654   3.131
73839ION    NA+45510   9.813  25.672   1.378
73840ION    NA+45511   6.396  32.185  14.982
73841ION    NA+45512  40.628   3.076  14.459
73842ION    NA+45513   9.078  38.392  13.984
73843ION    NA+45514  38.547  16.671  12.456
73844ION    NA+45515  38.518  21.251  14.117
73845ION    NA+45516  18.048  32.351  13.527
73846ION    NA+45517  34.616  37.554  14.193
73847ION    NA+45518  38.944  20.003   1.201
73848ION    NA+45519  22.067  37.797   9.743
73849ION    NA+45520  39.109  13.758  12.542
73850ION    NA+45521  22.631  34.982   0.750
73851ION    NA+45522  21.408  18.894  13.604
73852ION    NA+45523  18.433  42.171   2.095
73853ION    NA+45524  44.897   0.968  14.774
73854ION    NA+45525  35.958  42.696   2.415
73855ION    NA+45526  40.362   7.671  11.199
73856ION    NA+45527  26.321  23.174  11.949
73857ION    NA+45528   0.168  13.264   2.984
73858ION    NA+45529  43.035  17.038   0.648
73859ION    NA+45530   6.684  32.999  12.898
73860ION    NA+45531   5.226   8.372  12.689
73861ION    NA+45532   7.885  12.827   1.366
73862ION    NA+45533  44.766  14.568   0.008
73863ION    NA+45534   9.126  40.705  11.089
73864ION    NA+45535  28.467  42.604   3.591
73865ION    NA+45536   2.531  36.548  11.889
73866ION    NA+45537  32.090   7.581   2.635
73867ION    NA+45538  21.480  37.939   4.099
73868ION    NA+45539  27.384  15.364  13.296
73869ION    NA+45540  38.587  18.279  10.681
73870ION    NA+45541  20.341  14.569  12.312
73871ION    NA+45542  17.567  13.675   3.107
73872ION    NA+45543  12.428  15.988  12.745
73873ION    NA+45544  31.900  37.019  12.549
73874ION    NA+45545  21.424  30.233   1.793
73875ION    NA+45546   8.438  10.264   3.187
73876ION    NA+45547  27.772  21.635   3.338
73877ION    NA+45548  26.376  25.812   0.516
73878ION    NA+45549   2.311  10.964  11.974
73879ION    NA+45550  17.264  27.062  14.850
73880ION    NA+45551   5.165  43.884   0.735
73881ION    NA+45552  44.035   3.723  13.369
73882ION    NA+45553  20.284  40.040   5.469
73883ION    NA+45554  42.695  17.997  12.081
73884ION    NA+45555  13.132  17.273  10.159
73885ION    NA+45556  23.091  21.788  13.279
73886ION    NA+45557   5.184  26.688  13.929
73887ION    NA+45558  14.214  32.715   2.302
73888ION    NA+45559   2.226  13.586   1.335
73889ION    NA+45560   4.312  30.422   1.847
73890ION    NA+45561  31.582  34.128   1.158
73891ION    NA+45562  17.769  10.196  10.545
73892ION    NA+45563   7.979  13.936  12.300
73893ION    NA+45564  29.562   1.818   1.873
73894ION    NA+45565  36.803   0.249   3.145
73895ION    NA+45566  31.307   5.414   5.333
73896ION    NA+45567  32.466  27.128   2.910
73897ION    NA+45568  42.595  43.501  12.625
73898ION    NA+45569  24.951  24.828   4.637
73899ION    NA+45570   2.128  38.353   0.900
73900ION    NA+45571   5.650  16.281  12.147
73901ION    NA+45572  28.702  37.346  11.475
73902ION    NA+45573   3.059  38.669   0.719
73903ION    NA+45574  28.143   6.698   0.453
73904ION    NA+45575  35.337  16.756   3.641
73905ION    NA+45576  35.545  18.148   2.286
73906ION    NA+45577  35.309  42.766  11.426
73907ION    NA+45578  20.790   9.949   3.386
73908ION    NA+45579  41.981  35.981   3.188
73909ION    NA+45580  17.542   4.931   3.307
73910ION    NA+45581  43.667  35.064   2.389
73911ION    NA+45582  11.247  34.971  14.120
73912ION    NA+45583  29.173  17.670  12.973
73913ION    NA+45584  17.836   1.796  14.763
73914ION    NA+45585  13.830  42.254  12.802
73915ION    NA+45586  24.130  39.812   1.300
73916ION    NA+45587   6.120  24.124   0.912
73917ION    NA+45588  39.260  33.379  11.613
73918ION    NA+45589   3.170  21.308   4.384
73919ION    NA+45590  30.024  27.026   3.483
73920ION    NA+45591   0.834  28.271   0.023
73921ION    NA+45592  36.106  39.857  11.338
73922ION    NA+45593   5.509  38.358   0.588
73923ION    NA+45594  27.582  26.499   4.191
73924ION    NA+45595   8.347   4.704   3.860
73925ION    NA+45596  28.077  43.526   3.527
73926ION    NA+45597  11.438  20.143  14.397
73927ION    NA+45598  14.546   9.849  13.356
73928ION    NA+45599  32.627   4.131   3.802
73929ION    NA+45600  41.900  39.230   1.417
73930ION    NA+45601  38.524  20.683  13.294
73931ION    NA+45602  25.941  26.769  11.713
73932ION    NA+45603  26.551  31.786   1.230
73933ION    NA+45604  37.748  38.588   5.073
73934ION    NA+45605  26.359   5.380   0.893
73935ION    NA+45606  16.740  35.261  13.275
73936ION    NA+45607  44.120  38.204   0.861
73937ION    NA+45608   6.329  17.143   4.548
73938ION    NA+45609  44.146  30.706  13.008
73939ION    NA+45610   7.997  38.467  11.146
73940ION    NA+45611  17.623  17.747   3.817
73941ION    NA+45612   3.583  35.986   4.723
73942ION    NA+45613  30.894  11.137   2.269
73943ION    NA+45614   3.973  23.461  13.795
73944ION    NA+45615  40.630   4.585   1.437
73945ION    NA+45616  13.726   2.662   0.065
73946ION    NA+45617  28.892  33.147  10.453
73947ION    NA+45618   9.154  35.665   4.579
73948ION    NA+45619  41.922  15.096   0.870
73949ION    NA+45620  26.736  17.940   3.986
73950ION    NA+45621  42.446  33.505   0.841
73951ION    NA+45622  22.325  20.976  12.881
73952ION    NA+45623  12.273  29.068   2.770
73953ION    NA+45624  16.548   7.310   4.316
73954ION    NA+45625  21.315  25.776   4.746
73955ION    NA+45626  10.498  26.061  10.072
73956ION    NA+45627  27.765   1.067  11.441
73957ION    NA+45628  26.169  15.776  11.163
73958ION    NA+45629   1.025  13.437   5.091
73959ION    NA+45630   5.254  37.388  11.589
73960ION    NA+45631  16.649  38.482   4.288
73961ION    NA+45632  22.012  14.132  13.433
73962ION    NA+45633  21.701  33.113  11.554
73963ION    NA+45634  15.494   5.748  11.250
73964ION    NA+45635   5.182  13.730  14.486
73965ION    NA+45636  31.617   4.494   5.094
73966ION    NA+45637  40.429  35.155   2.003
73967ION    NA+45638  37.682  16.491  11.487
73968ION    NA+45639  29.147   1.380   3.222
73969ION    NA+45640  28.741  20.829   4.356
73970ION    NA+45641  10.134  39.103   5.157
73971ION    NA+45642  22.674  24.902  13.868
73972ION    NA+45643  41.321   8.600   1.026
73973ION    NA+45644  17.188   4.017   1.945
73974ION    NA+45645  35.108  23.943  10.853
73975ION    NA+45646  22.252  33.417  12.304
73976ION    NA+45647   3.785  35.585  14.015
73977ION    NA+45648  43.990  42.896   1.031
73978ION    NA+45649  10.580   6.687   3.222
73979ION    NA+45650  17.013  36.379  14.915
73980ION    NA+45651  30.224  31.118   3.371
73981ION    NA+45652  27.830  28.248   3.579
73982ION    NA+45653   0.590  27.502   1.936
73983ION    NA+45654  16.654   6.944  12.384
73984ION    NA+45655   2.462  38.406  12.574
73985ION    NA+45656  44.285  41.736   1.357
73986ION    NA+45657  26.376   5.216  14.758
73987ION    NA+45658  23.935  43.503   2.604
73988ION    NA+45659  12.944  41.284  13.144
73989ION    NA+45660  34.998  20.132   1.988
73990ION    NA+45661  28.087  40.082   2.217
73991ION    NA+45662  14.142  29.893  10.884
73992ION    NA+45663  33.337  17.566  12.150
73993ION    NA+45664  35.566   3.787  14.791
73994ION    NA+45665  15.883  33.850  11.595
73995ION    NA+45666  34.981   4.713   5.025
73996ION    NA+45667   6.131  23.449   2.676
73997ION    NA+45668   6.930  34.056   2.097
73998ION    NA+45669   5.844   0.808  13.910
73999ION    NA+45670  14.034  37.385   4.560
74000ION    NA+45671   6.572  22.784   3.280
74001ION    NA+45672  31.613  35.587  13.318
74002ION    NA+45673  38.946  14.996   2.940
74003ION    NA+45674  19.241  14.199  10.736
74004ION    NA+45675  40.464  20.502   2.366
74005ION    NA+45676  18.855  43.888   3.765
74006ION    NA+45677  13.309   0.371  13.103
74007ION    NA+45678  24.943  25.082  14.753
74008ION    NA+45679  19.201   1.332  14.247
74009ION    NA+45680  41.618  33.438  13.382
74010ION    NA+45681  20.864  44.734  11.972
74011ION    NA+45682  20.267  35.776  12.507
74012ION    NA+45683  17.122  41.753  13.336
74013ION    NA+45684  20.632  14.563  14.140
74014ION    NA+45685  43.720  10.504  12.814
74015ION    NA+45686   7.961  30.576   0.298
74016ION    NA+45687  25.416   9.630  14.267
74017ION    NA+45688  37.374  32.123   3.608
74018ION    NA+45689  32.818  15.235   1.791
74019ION    NA+45690  25.215  11.856   2.208
74020ION    NA+45691   1.435  23.159   5.074
74021ION    NA+45692  14.592   1.764   1.996
74022ION    NA+45693  16.941  10.254  12.646
74023ION    NA+45694   7.180  17.582   1.262
74024ION    NA+45695  43.510  42.806  12.479
74025ION    NA+45696   3.074  37.497   3.512
74026ION    NA+45697   7.518  11.005  13.169
74027ION    NA+45698  16.224  40.184   4.095
74028ION    NA+45699  26.583  16.103   0.418
74029ION    NA+45700  11.680  37.488   0.401
74030ION    NA+45701  28.560  14.635  11.266
74031ION    NA+45702  15.306  18.256  12.468
74032ION    NA+45703  32.546  10.437   2.673
74033ION    NA+45704  18.920  17.353  11.493
74034ION    NA+45705  17.547   7.747   2.333
74035ION    NA+45706  12.437  14.354  11.556
74036ION    NA+45707  18.138  16.973  11.623
74037ION    NA+45708  36.510   6.400  14.925
74038ION    NA+45709  31.407   3.102   4.518
74039ION    NA+45710   3.203  27.307  11.238
74040ION    NA+45711   4.987  42.022  12.371
74041ION    NA+45712  22.602  18.345  12.527
74042ION    NA+45713  35.862  36.299  11.983
74043ION    NA+45714  29.746   7.382   3.770
74044ION    NA+45715  11.781  39.404   2.380
74045ION    NA+45716  12.460   7.025   2.568
74046ION    NA+45717  26.398  10.945   1.575
74047ION    NA+45718  24.137   8.312  12.499
74048ION    NA+45719  23.467   1.741  12.705
74049ION    NA+45720  11.519   9.127  10.849
74050ION    NA+45721   1.306  12.105  13.339
74051ION    NA+45722  38.360  14.065  13.129
74052ION    NA+45723  44.401  43.057  10.544
74053ION    NA+45724  15.273  35.386  12.554
74054ION    NA+45725  23.923  16.083  14.827
74055ION    NA+45726  39.801  23.032   1.929
74056ION    NA+45727  42.073  41.326  13.884
74057ION    NA+45728  36.650   5.694  12.926
74058ION    NA+45729  21.238  16.636  13.563
74059ION    NA+45730  11.228  10.243  11.548
74060ION    NA+45731   4.333  22.156   4.224
74061ION    NA+45732  32.369  13.586   1.462
74062ION    NA+45733  41.950  43.812   1.252
74063ION    NA+45734  33.100  12.599  14.949
74064ION    NA+45735   7.690  35.417   1.657
74065ION    NA+45736  36.284   2.186  11.073
74066ION    NA+45737   1.099  38.334   1.433
74067ION    NA+45738  16.056  15.020  11.413
74068ION    NA+45739  37.461   7.910  14.020
74069ION    NA+45740  41.611  29.804  11.234
74070ION    NA+45741  43.256  22.575   0.867
74071ION    NA+45742   5.867  26.701   0.509
74072ION    NA+45743  27.528  27.671  10.727
74073ION    NA+45744   3.965   6.097  14.193
74074ION    NA+45745   8.191  22.658   0.128
74075ION    NA+45746  16.772  14.196   4.201
74076ION    NA+45747   9.926   9.396  11.682
74077ION    NA+45748   6.127  44.938   2.372
74078ION    NA+45749  26.715  32.536   3.677
74079ION    NA+45750  31.798  27.985   4.875
74080ION    NA+45751  40.638  40.534  14.562
74081ION    NA+45752  23.504  13.038   0.393
74082ION    NA+45753  28.501   1.955   2.719
74083ION    NA+45754  26.875  14.624  11.595
74084ION    NA+45755  33.824  26.020   0.759
74085ION    NA+45756   1.256   4.044  13.111
74086ION    NA+45757  24.301   0.116  13.182
74087ION    NA+45758  28.199  42.883  11.590
74088ION    NA+45759   4.174  25.096   0.442
74089ION    NA+45760  29.084  18.275   1.700
74090ION    NA+45761   3.273  36.317  14.147
74091ION    NA+45762   5.260   7.330   1.291
74092ION    NA+45763   2.881   4.161  14.774
74093ION    NA+45764  27.509   7.882   2.269
74094ION    NA+45765  15.455  23.814   2.219
74095ION    NA+45766  38.740  23.537  11.767
74096ION    NA+45767  24.515   6.891   4.504
74097ION    NA+45768  31.873  11.105   0.677
74098ION    NA+45769  14.520  44.540  13.530
74099ION    NA+45770  43.396  37.349   2.863
74100ION    NA+45771  43.435  18.605   0.589
74101ION    NA+45772  11.389   4.192  13.023
74102ION    NA+45773  14.234  42.524  11.687
74103ION    NA+45774  29.853  23.356   1.450
74104ION    NA+45775   8.991  44.738  14.041
74105ION    NA+45776   7.739  24.236  10.779
74106ION    NA+45777  12.343  32.631  11.856
74107ION    NA+45778  12.428  34.933  11.543
74108ION    NA+45779  20.456  12.881  10.277
74109ION    NA+45780   3.894  15.760   2.383
74110ION    NA+45781  42.248  38.880  13.208
74111ION    NA+45782  14.896   4.189  11.980
74112ION    NA+45783  24.634   5.852   0.501
74113ION    NA+45784  43.792  13.599   0.898
74114ION    NA+45785  28.741  35.310   2.678
74115ION    NA+45786  14.862  20.514   3.192
74116ION    NA+45787  27.565  23.179  11.461
74117ION    NA+45788  28.540   0.222  12.116
74118ION    NA+45789  15.027  42.212   0.262
74119ION    NA+45790  11.026   8.786   1.546
74120ION    NA+45791  10.941  44.980   4.622
74121ION    NA+45792  14.033   6.896   5.148
74122ION    NA+45793  43.270  10.527  12.004
74123ION    NA+45794   9.309  22.083   0.739
74124ION    NA+45795   2.917  28.571   0.557
74125ION    NA+45796  24.407  42.688   3.705
74126ION    NA+45797   7.531  28.566  10.503
74127ION    NA+45798  14.859  39.308  11.684
74128ION    NA+45799  35.707  35.099  11.957
74129ION    NA+45800  16.707  25.092   1.983
74130ION    NA+45801  40.614  37.051   4.522
74131ION    NA+45802  25.036  35.766   4.245
74132ION    NA+45803  15.443   9.491  12.763
74133ION    NA+45804   6.934  34.071   0.248
74134ION    NA+45805  30.571   4.425  11.553
74135ION    NA+45806   1.340  19.732  14.476
74136ION    NA+45807  44.778  19.012  11.547
74137ION    NA+45808  19.674  34.249  13.405
74138ION    NA+45809  37.538  23.159   4.052
74139ION    NA+45810   5.995  38.026  11.353
74140ION    NA+45811  37.849  27.350  13.585
74141ION    NA+45812  29.146  29.804   4.622
74142ION    NA+45813  18.232  17.999  13.602
74143ION    NA+45814  32.533  20.390  10.741
74144ION    NA+45815   1.372  29.611   4.846
74145ION    NA+45816  25.217   1.044   0.999
74146ION    NA+45817  31.961  25.375  14.679
74147ION    NA+45818  42.285  34.794  13.735
74148ION    NA+45819   3.491  10.967   2.370
74149ION    NA+45820  32.047   3.836   0.168
74150ION    NA+45821  21.252  41.102   2.946
74151ION    NA+45822  29.332   3.955   4.225
74152ION    NA+45823  38.076  26.371   3.913
74153ION    NA+45824  23.135  32.598  13.887
74154ION    NA+45825  28.075  31.278   2.561
74155ION    NA+45826  42.065  12.269   3.256
74156ION    NA+45827  30.023  26.549  13.546
74157ION    NA+45828  43.054  42.527  14.016
74158ION    NA+45829  13.161  31.937   2.792
74159ION    NA+45830   5.899  10.192  14.936
74160ION    NA+45831  24.716  36.103   0.335
74161ION    NA+45832  19.246  32.042  12.895
74162ION    NA+45833  32.553  21.489   2.816
74163ION    NA+45834   1.963  29.639   2.284
74164ION    NA+45835  26.243  11.486  13.728
74165ION    NA+45836   0.189  15.106   3.670
74166ION    NA+45837  29.150  11.443  10.892
74167ION    NA+45838  33.933  34.429  14.286
74168ION    NA+45839  35.490  33.209  11.436
74169ION    NA+45840  23.047  17.222   1.835
74170ION    NA+45841  36.095   6.897  10.871
74171ION    NA+45842  12.170  31.605  13.841
74172ION    NA+45843   9.465  41.363   4.189
74173ION    NA+45844  14.811  28.526   0.720
74174ION    NA+45845  35.615  32.132   0.823
74175ION    NA+45846   7.319  18.112  14.453
74176ION    NA+45847  15.203  17.684   1.285
74177ION    NA+45848  12.590  36.113  11.193
74178ION    NA+45849  11.150  41.658   1.486
74179ION    NA+45850  12.696  41.876   2.488
74180ION    NA+45851  17.629  12.862   4.858
74181ION    NA+45852  31.368  13.906   3.813
74182ION    NA+45853  32.963  24.082   1.420
74183ION    NA+45854  33.499  12.190  10.831
74184ION    NA+45855  23.474  36.767   1.019
74185ION    NA+45856  40.447   6.725  14.588
74186ION    NA+45857  35.212   6.158   3.599
74187ION    NA+45858  35.514  19.142  12.929
74188ION    NA+45859  34.462  10.605  10.694
74189ION    NA+45860  15.529   1.429   0.368
74190ION    NA+45861  38.722  18.105  14.882
74191ION    NA+45862  24.820  11.993   4.515
74192ION    NA+45863  37.305  37.683  12.550
74193ION    NA+45864  36.447   9.201   2.024
74194ION    NA+45865  14.181  34.137  12.405
74195ION    NA+45866  26.750  17.228   2.643
74196ION    NA+45867  13.344  41.835   1.252
74197ION    NA+45868   4.328   3.898  14.850
74198ION    NA+45869  42.559  21.682   3.782
74199ION    NA+45870  31.139  35.571  13.954
74200ION    NA+45871  36.583   0.192  13.583
74201ION    NA+45872  24.565  38.910  11.828
74202ION    NA+45873  15.393  35.867  10.035
74203ION    NA+45874  27.303  32.451   0.314
74204ION    NA+45875  26.293   6.842  12.466
74205ION    NA+45876  38.938   5.370  12.177
74206ION    NA+45877  28.120   2.206  13.494
74207ION    NA+45878   0.394   8.656   0.421
74208ION    NA+45879  14.223  43.888  10.902
74209ION    NA+45880  35.261  22.545  13.199
74210ION    NA+45881  31.042  38.792   3.879
74211ION    NA+45882   4.562  27.402   1.116
74212ION    NA+45883   7.374  22.538   2.689
74213ION    NA+45884  41.396  16.602   0.369
74214ION    NA+45885  42.788   2.540   0.966
74215ION    NA+45886  34.885  17.143   0.084
74216ION    NA+45887   9.589  30.044  13.000
74217ION    NA+45888  41.836  30.569   4.514
74218ION    NA+45889   0.102  42.078   1.821
74219ION    NA+45890  22.985   2.933  14.865
74220ION    NA+45891  12.763  25.734   1.788
74221ION    NA+45892   7.683   0.963   0.066
74222ION    NA+45893  20.987  15.665   0.975
74223ION    NA+45894   3.869  36.614   2.320
74224ION    NA+45895   4.126  42.938  11.922
74225ION    NA+45896  19.139  39.815  12.358
74226ION    NA+45897  18.415   3.401  12.372
74227ION    NA+45898  38.695  14.238  14.379
74228ION    NA+45899  22.583  21.404  14.506
74229ION    NA+45900  15.495  27.976  11.914
74230ION    NA+45901   1.309  27.241  14.309
74231ION    NA+45902  34.086  37.837  10.586
74232ION    NA+45903  14.465   7.201   4.062
74233ION    NA+45904  34.569  23.249   1.780
74234ION    NA+45905  17.508  28.238  14.280
74235ION    NA+45906  14.564  19.276   4.223
74236ION    NA+45907  41.903   7.121  14.386
74237ION    NA+45908  36.843  29.898   0.690
74238ION    NA+45909   6.856  26.260   0.811
74239ION    NA+45910  32.770  17.603   4.251
74240ION    NA+45911  10.132  11.007   0.300
74241ION    NA+45912  33.626   7.249   0.647
74242ION    NA+45913  27.387  25.985   0.264
74243ION    NA+45914  38.046  19.517   2.320
74244ION    NA+45915  40.191  28.475   0.099
74245ION    NA+45916  43.161  31.661   5.002
74246ION    NA+45917  29.581   3.298  10.946
74247ION    NA+45918   1.495   5.774   1.474
74248ION    NA+45919  40.941  20.512  14.617
74249ION    NA+45920  12.652  38.629   2.721
74250ION    NA+45921  13.612   5.539  12.870
74251ION    NA+45922  41.083  28.298   3.075
74252ION    NA+45923  31.726   8.454  14.596
74253ION    NA+45924  11.387  13.383   4.190
74254ION    NA+45925  33.041  41.527  12.442
74255ION    NA+45926  23.053   6.579   4.090
74256ION    NA+45927  19.097  18.249  14.038
74257ION    NA+45928  22.168  15.074  13.136
74258ION    NA+45929  12.869  21.998   1.730
74259ION    NA+45930  27.462  23.926   2.323
74260ION    NA+45931  27.458   1.496  10.765
74261ION    NA+45932   4.263  11.513   0.881
74262ION    NA+45933   9.781  26.610   1.788
74263ION    NA+45934  30.717  40.687  13.765
74264ION    NA+45935  43.767  26.150   4.109
74265ION    NA+45936  30.477   6.952   4.301
74266ION    NA+45937  21.796  26.521  14.727
74267ION    NA+45938  13.749  21.639   3.792
74268ION    NA+45939  44.101  15.371  11.370
74269ION    NA+45940  14.188   2.036  12.465
74270ION    NA+45941  42.312  41.501   2.431
74271ION    NA+45942  24.009  44.450  14.679
74272ION    NA+45943  29.427  24.697  12.903
74273ION    NA+45944  43.789  35.960   0.707
74274ION    NA+45945  32.029  33.890  11.315
74275ION    NA+45946  26.748   6.166  14.954
74276ION    NA+45947  19.097  32.603   4.195
74277ION    NA+45948  36.575  30.474   1.843
74278ION    NA+45949  33.427  20.676  14.050
74279ION    NA+45950   4.568  44.982   4.808
74280ION    NA+45951  17.595   1.248  14.484
74281ION    NA+45952   7.543  31.821  11.882
74282ION    NA+45953  44.037   2.493   0.155
74283ION    NA+45954  21.719  19.906   4.597
74284ION    NA+45955  33.247  37.886  13.263
74285ION    NA+45956  31.043  44.240  14.409
74286ION    NA+45957   2.686   4.858  12.556
74287ION    NA+45958  42.548  32.109   5.414
74288ION    NA+45959  11.220   4.478  12.167
74289ION    NA+45960  16.542  12.225  14.397
74290ION    NA+45961  41.981  11.090   2.200
74291ION    NA+45962  35.558  15.345   2.844
74292ION    NA+45963   9.985  27.662  12.980
74293ION    NA+45964   6.167  22.617  11.456
74294ION    NA+45965  32.356  40.998  13.306
74295ION    NA+45966  43.850  36.882   3.728
74296ION    NA+45967  13.904  42.677  13.705
74297ION    NA+45968  25.863  37.561  11.759
74298ION    NA+45969  17.052   1.406  13.608
74299ION    NA+45970  14.707  20.801   2.247
74300ION    NA+45971  29.664  30.562  10.122
74301ION    NA+45972  19.751  26.360   4.199
74302ION    NA+45973  10.783  32.506   3.744
74303ION    NA+45974  38.707  10.633   4.045
74304ION    NA+45975  25.959   1.013   4.212
74305ION    NA+45976  22.865  25.942  11.634
74306ION    NA+45977   9.926  13.963  12.289
74307ION    NA+45978  30.651  39.839  13.993
74308ION    NA+45979  43.093  15.885  12.090
74309ION    NA+45980  24.835   9.455   4.638
74310ION    NA+45981  28.652  42.061  14.334
74311ION    NA+45982  24.476  12.631   2.776
74312ION    NA+45983   1.832  15.453   0.768
74313ION    NA+45984  34.865  18.140   0.000
74314ION    NA+45985  19.656  36.108  13.947
74315ION    NA+45986  17.919  36.272   0.325
74316ION    NA+45987  40.408  26.376   5.346
74317ION    NA+45988  23.210  13.021   3.231
74318ION    NA+45989   1.672  42.469  11.081
74319ION    NA+45990   3.331  23.236   2.142
74320ION    NA+45991  40.582  29.958   1.858
74321ION    NA+45992   9.448  37.792  13.275
74322ION    NA+45993  25.012  41.253  13.021
74323ION    NA+45994  33.089   6.489   3.956
74324ION    NA+45995  35.992  18.044  10.679
74325ION    NA+45996  19.872   8.160  12.920
74326ION    NA+45997  29.952  33.669   0.442
74327ION    NA+45998  39.400   9.830  13.794
74328ION    NA+45999  21.807  30.952  14.339
74329ION    NA+46000  20.707  19.955   2.627
74330ION    NA+46001  36.473   7.222   3.724
74331ION    NA+46002   2.435  44.077  12.105
74332ION    NA+46003  43.455  39.816   3.657
74333ION    NA+46004  11.210  25.409  13.295
74334ION    NA+46005  17.704  30.900   2.704
74335ION    NA+46006   7.432  27.486  10.951
74336ION    NA+46007  37.310   6.841   5.051
74337ION    NA+46008  17.527  16.552   2.287
74338ION    NA+46009  10.696   7.817  13.033
74339ION    NA+46010  26.676  35.939   0.060
74340ION    NA+46011  26.660   8.983  13.130
74341ION    NA+46012  43.052  43.365   0.049
74342ION    NA+46013   9.860  26.497  11.162
74343ION    NA+46014  27.802   6.597  14.519
74344ION    NA+46015  14.097  25.489   4.132
74345ION    NA+46016  11.182  24.063   3.715
74346ION    NA+46017  31.284  18.546   2.550
74347ION    NA+46018  23.770   4.416  12.011
74348ION    NA+46019  44.735   4.055   3.308
74349ION    NA+46020  28.932  14.463   2.728
74350ION    NA+46021   7.158   9.560   1.505
74351ION    NA+46022  28.991  35.379  14.538
74352ION    NA+46023  38.928   6.121  14.475
74353ION    NA+46024  19.575  30.197  14.990
74354ION    NA+46025  10.549  34.270  13.972
74355ION    NA+46026  32.233   4.178   4.730
74356ION    NA+46027  12.516  23.752   4.560
74357ION    NA+46028  15.065   2.107   0.651
74358ION    NA+46029  14.570  39.284  10.258
74359ION    NA+46030  25.095  25.778   3.531
74360ION    NA+46031  11.528  28.220   4.166
74361ION    NA+46032  12.207  23.439  12.077
74362ION    NA+46033  41.199  39.238   1.840
74363ION    NA+46034   4.538  35.743  14.570
74364ION    NA+46035  16.098  10.147  14.021
74365ION    NA+46036  26.805  15.452   4.323
74366ION    NA+46037  36.622  33.041   0.084
74367ION    NA+46038  28.214   9.328  11.030
74368ION    NA+46039   8.838   7.496  11.229
74369ION    NA+46040  28.379  18.591   0.202
74370ION    NA+46041  31.839  13.234   3.174
74371ION    NA+46042  25.728   2.680   3.701
74372ION    NA+46043  41.626  24.657   0.901
74373ION    NA+46044  32.599  24.791   2.210
74374ION    NA+46045  29.292   3.270  11.797
74375ION    NA+46046  44.931  10.322   2.213
74376ION    NA+46047  34.731  11.127   3.348
74377ION    NA+46048   8.796  10.679  12.180
74378ION    NA+46049  20.005  42.862  14.905
74379ION    NA+46050  36.160  29.503  13.942
74380ION    NA+46051  19.012  34.409   1.415
74381ION    NA+46052   7.107  32.596  10.861
74382ION    NA+46053   1.649  11.194   0.929
74383ION    NA+46054  31.713   2.126   2.333
74384ION    NA+46055  35.463   7.450  14.846
74385ION    NA+46056   8.056  12.134  14.386
74386ION    NA+46057  11.887  18.086  11.035
74387ION    NA+46058  39.326  17.177   1.315
74388ION    NA+46059  13.733  32.625   4.428
74389ION    NA+46060  17.413  15.352   2.374
74390ION    NA+46061  36.759  15.641   2.927
74391ION    NA+46062   4.538  21.199  12.804
74392ION    NA+46063  22.685  30.908  13.862
74393ION    NA+46064  12.363  27.629  13.976
74394ION    NA+46065  29.762  15.470   3.873
74395ION    NA+46066  34.066  36.646   0.878
74396ION    NA+46067   3.507  11.553   1.697
74397ION    NA+46068  16.362  26.898  13.498
74398ION    NA+46069   9.125   8.144   3.648
74399ION    NA+46070  32.850  35.911  10.645
74400ION    NA+46071  33.685  22.497   9.835
74401ION    NA+46072  30.219  41.962   4.631
74402ION    NA+46073  17.548   2.218   1.770
74403ION    NA+46074  44.942   5.854  14.992
74404ION    NA+46075  17.602  21.127  12.651
74405ION    NA+46076   0.090  27.782  14.816
74406ION    NA+46077  35.280   2.292   0.583
74407ION    NA+46078  42.315  35.574  13.289
74408ION    NA+46079  35.080  10.649  13.466
74409ION    NA+46080  26.482   8.480   1.922
74410ION    NA+46081  35.318   5.181   3.414
74411ION    NA+46082  30.001  10.882  12.471
74412ION    NA+46083  25.127   4.241  14.233
74413ION    NA+46084  38.843  35.773  12.986
74414ION    NA+46085  41.343  20.443   0.431
74415ION    NA+46086   6.260  11.156  12.468
74416ION    NA+46087  28.593  22.649  14.233
74417ION    NA+46088  30.074  12.348  14.395
74418ION    NA+46089   2.138   0.431   4.558
74419ION    NA+46090  31.610   7.774  14.681
74420ION    NA+46091  14.702  18.037  13.782
74421ION    NA+46092  12.269  30.165  14.417
74422ION    NA+46093  29.820  29.116   4.187
74423ION    NA+46094  41.913  29.412  12.002
74424ION    NA+46095   8.925   1.698  14.344
74425ION    NA+46096  25.192  12.825   0.918
74426ION    NA+46097  12.377  43.532   3.791
74427ION    NA+46098  33.346  37.015   0.290
74428ION    NA+46099  12.705  33.640  13.342
74429ION    NA+46100  18.184  14.600   3.165
74430ION    NA+46101  28.769   1.054  12.622
74431ION    NA+46102  11.029   5.807   0.745
74432ION    NA+46103  37.342  15.528   2.122
74433ION    NA+46104  32.978  22.632   2.114
74434ION    NA+46105  27.739  40.318  11.449
74435ION    NA+46106  42.794  29.437   2.320
74436ION    NA+46107   1.355  25.044   3.796
74437ION    NA+46108   2.679  10.960  13.571
74438ION    NA+46109  36.853   0.252  14.825
74439ION    NA+46110  26.049  39.745   2.371
74440ION    NA+46111  19.214  10.070   0.657
74441ION    NA+46112  32.234  36.538   2.437
74442ION    NA+46113  35.685  26.487  11.116
74443ION    NA+46114  21.398  27.135  14.290
74444ION    NA+46115  44.269   6.133   9.844
74445ION    NA+46116   8.980  11.998   4.638
74446ION    NA+46117  33.695  38.851   0.274
74447ION    NA+46118   7.816  42.101   3.857
74448ION    NA+46119  25.991  16.120   3.224
74449ION    NA+46120   4.652  10.257   2.636
74450ION    NA+46121  26.529  24.927  14.999
74451ION    NA+46122  41.012  15.753   1.183
74452ION    NA+46123  41.036  15.107   2.155
74453ION    NA+46124  44.472  41.467  12.545
74454ION    NA+46125  26.697  29.543   3.477
74455ION    NA+46126  24.509  32.413  13.330
74456ION    NA+46127  32.843  25.141  11.126
74457ION    NA+46128  12.674   9.836  14.383
74458ION    NA+46129  15.533  14.404   4.181
74459ION    NA+46130   9.420   7.145   2.358
74460ION    NA+46131  28.432  33.716  11.019
74461ION    NA+46132  32.077  12.343  12.621
74462ION    NA+46133   5.891  17.094  12.385
74463ION    NA+46134  19.750  23.260   0.930
74464ION    NA+46135  23.096  18.521   1.129
74465ION    NA+46136  17.695  20.515  11.865
74466ION    NA+46137  12.220  14.536   0.761
74467ION    NA+46138  21.941   2.658   4.354
74468ION    NA+46139   3.425   6.779   2.217
74469ION    NA+46140   8.832  27.900   0.303
74470ION    NA+46141  10.210  23.137  11.543
74471ION    NA+46142   4.372  29.915  13.399
74472ION    NA+46143   5.501  22.309  10.930
74473ION    NA+46144  18.628  26.172   2.398
74474ION    NA+46145  30.210  27.930  13.206
74475ION    NA+46146  31.080  32.682  10.894
74476ION    NA+46147  24.694  40.082   5.451
74477ION    NA+46148   0.406  26.941   0.255
74478ION    NA+46149   8.487  22.020   1.305
74479ION    NA+46150   9.617   9.291  13.623
74480ION    NA+46151  22.293  26.976  13.872
74481ION    NA+46152  33.533   3.783  12.674
74482ION    NA+46153  28.194  28.642   0.729
74483ION    NA+46154   5.902   9.048   4.223
74484ION    NA+46155  14.732  39.510   1.913
74485ION    NA+46156  31.825  23.291   0.059
74486ION    NA+46157   3.390  25.748   0.444
74487ION    NA+46158  27.048  19.603  13.638
74488ION    NA+46159  42.816  23.995  10.131
74489ION    NA+46160  36.492  26.707  14.518
74490ION    NA+46161  12.320  25.149  11.438
74491ION    NA+46162   3.122  44.873   4.233
74492ION    NA+46163   9.550  36.286   3.181
74493ION    NA+46164   6.179  41.528  10.729
74494ION    NA+46165   9.346  11.735  13.093
74495ION    NA+46166  11.999   8.738   1.771
74496ION    NA+46167  21.814  17.319  10.782
74497ION    NA+46168   4.500  24.899  13.125
74498ION    NA+46169  20.625  40.513  10.675
74499ION    NA+46170  22.558   4.806   5.156
74500ION    NA+46171  32.846   5.271  11.074
74501ION    NA+46172  26.922  44.977  14.289
74502ION    NA+46173  17.449  37.167   0.367
74503ION    NA+46174  30.017   4.520   3.765
74504ION    NA+46175  21.993  39.926  12.640
74505ION    NA+46176  19.702  26.666   1.234
74506ION    NA+46177   2.674  22.034   4.968
74507ION    NA+46178  43.740   0.162   2.743
74508ION    NA+46179  21.792  27.961   0.283
74509ION    NA+46180  34.099   9.762  14.420
74510ION    NA+46181   9.781   2.955  11.562
74511ION    NA+46182   2.309  31.471   3.201
74512ION    NA+46183  20.800   7.580  12.853
74513ION    NA+46184   1.989  33.723   0.951
74514ION    NA+46185  30.044  34.827  14.134
74515ION    NA+46186  31.978  38.072   3.307
74516ION    NA+46187   2.253   1.625  10.699
74517ION    NA+46188  43.890  26.579  12.981
74518ION    NA+46189  18.575  23.788   1.312
74519ION    NA+46190  38.506  34.050   2.349
74520ION    NA+46191  42.994  18.855  12.070
74521ION    NA+46192  23.276  44.138   4.544
74522ION    NA+46193  21.005  38.678   9.908
74523ION    NA+46194  42.796  11.343  11.430
74524ION    NA+46195  33.681  16.287  11.511
74525ION    NA+46196  11.198   5.478  12.152
74526ION    NA+46197  39.676   8.088   3.166
74527ION    NA+46198  25.327   1.899  10.693
74528ION    NA+46199  25.268  36.876   3.292
74529ION    NA+46200  19.702  37.513   0.539
74530ION    NA+46201   8.292  21.196  11.152
74531ION    NA+46202   6.467  44.007   0.963
74532ION    NA+46203  23.194  34.141  10.982
74533ION    NA+46204   3.362  37.595  14.703
74534ION    NA+46205  30.557  19.832   0.063
74535ION    NA+46206  16.966   0.770  10.626
74536ION    NA+46207   7.896   2.047   5.046
74537ION    NA+46208   6.424  33.939  11.083
74538ION    NA+46209  13.586  41.163   1.822
74539ION    NA+46210   4.596  14.834  12.090
74540ION    NA+46211   7.559  30.594   1.281
74541ION    NA+46212  33.575  24.744  12.627
74542ION    NA+46213  16.016  41.511   4.677
74543ION    NA+46214  13.014  18.818   1.740
74544ION    NA+46215  36.419  21.251   3.930
74545ION    NA+46216  17.492  42.977  12.049
74546ION    NA+46217  18.130  26.938  14.365
74547ION    NA+46218  38.907  26.993  13.553
74548ION    NA+46219  10.886  16.605   1.523
74549ION    NA+46220  18.415  33.695  11.569
74550ION    NA+46221  41.236   0.093  11.542
74551ION    NA+46222  21.521   1.691  11.190
74552ION    NA+46223  31.767   5.197   3.033
74553ION    NA+46224  34.752   3.873  11.005
74554ION    NA+46225  37.955  44.834  11.597
74555ION    NA+46226  26.311  34.690  10.325
74556ION    NA+46227   0.103  40.072  14.007
74557ION    NA+46228  21.311  18.467   2.079
74558ION    NA+46229   9.200  39.585   3.253
74559ION    NA+46230  20.168  10.802   1.461
74560ION    NA+46231  35.527  41.060  14.730
74561ION    NA+46232  23.711   2.248  14.811
74562ION    NA+46233  19.135  20.019  13.920
74563ION    NA+46234  39.932  36.310   4.203
74564ION    NA+46235  44.452  35.170  12.382
74565ION    NA+46236  17.642  23.111  10.611
74566ION    NA+46237  41.306  12.141  10.740
74567ION    NA+46238  24.511  42.968   4.666
74568ION    NA+46239  35.720  36.147  13.586
74569ION    NA+46240  20.467  26.975   2.607
74570ION    NA+46241   2.391  22.750   9.905
74571ION    NA+46242   6.803  16.974   0.703
74572ION    NA+46243  30.647  40.201   0.619
74573ION    NA+46244  29.486  31.027   2.703
74574ION    NA+46245   4.779   1.562   0.278
74575ION    NA+46246  14.847   7.336   2.753
74576ION    NA+46247  25.652  14.822   3.565
74577ION    NA+46248   1.555  13.806  12.370
74578ION    NA+46249  12.761  42.654   5.029
74579ION    NA+46250   0.134  24.440   2.898
74580ION    NA+46251  43.193   3.663  12.833
74581ION    NA+46252  25.993   7.721  14.436
74582ION    NA+46253  25.420  15.407  13.466
74583ION    NA+46254  44.461  40.983   2.677
74584ION    NA+46255   6.332   8.164  13.728
74585ION    NA+46256  30.458  35.134  12.126
74586ION    NA+46257  13.083  26.947  14.411
74587ION    NA+46258  43.980  31.524   4.236
74588ION    NA+46259  16.493   9.739  11.545
74589ION    NA+46260  22.010  34.521  10.756
74590ION    NA+46261  21.455  33.080   3.811
74591ION    NA+46262  25.929  32.235  13.711
74592ION    NA+46263  18.336  26.293  11.659
74593ION    CL-46264  26.993  15.660   4.705
74594ION    CL-46265  42.218  26.554   2.666
74595ION    CL-46266  42.484  30.941   3.056
74596ION    CL-46267  29.859  11.260  14.960
74597ION    CL-46268  14.658  38.567  12.476
74598ION    CL-46269  19.879  22.366   3.602
74599ION    CL-46270  11.580  37.354   3.660
74600ION    CL-46271   4.111  30.608  11.644
74601ION    CL-46272  39.684   0.934   4.219
74602ION    CL-46273  26.561  23.745  13.368
74603ION    CL-46274  34.644  16.608  13.388
74604ION    CL-46275   4.910  36.897   1.289
74605ION    CL-46276  17.634  16.719   0.806
74606ION    CL-46277  20.667   5.961  12.904
74607ION    CL-46278  10.775   8.694   3.199
74608ION    CL-46279  36.874   4.678   3.170
74609ION    CL-46280  14.908   7.159   4.019
74610ION    CL-46281  28.870  36.343   1.248
74611ION    CL-46282  30.806  20.971   1.342
74612ION    CL-46283  12.776  43.408   4.846
74613ION    CL-46284  40.326   5.940   1.884
74614ION    CL-46285  44.847   2.879  11.632
74615ION    CL-46286   3.062   4.155   0.182
74616ION    CL-46287  43.336   2.439   3.663
74617ION    CL-46288  28.937  10.884   3.110
74618ION    CL-46289  27.855  16.557   4.602
74619ION    CL-46290  14.630  30.620   0.241
74620ION    CL-46291  17.098  25.027   0.224
74621ION    CL-46292  21.398   1.633  11.616
74622ION    CL-46293  23.345  19.387  14.028
74623ION    CL-46294  41.523  41.798   3.564
74624ION    CL-46295   5.408   8.655  12.394
74625ION    CL-46296  31.905  41.298   4.624
74626ION    CL-46297  25.495  38.003  14.738
74627ION    CL-46298  44.556   1.175   0.029
74628ION    CL-46299  36.742  17.409   1.947
74629ION    CL-46300  26.152  43.151   2.337
74630ION    CL-46301  13.773  27.716   2.740
74631ION    CL-46302  16.558   7.224   4.762
74632ION    CL-46303   2.354  38.022   2.330
74633ION    CL-46304  13.576  32.217   1.348
74634ION    CL-46305  40.092  30.162  10.841
74635ION    CL-46306   7.991  10.051  13.998
74636ION    CL-46307   3.396  37.378   0.092
74637ION    CL-46308   7.878  18.762  12.171
74638ION    CL-46309  11.191  36.445  10.073
74639ION    CL-46310   4.869   5.748   0.701
74640ION    CL-46311  32.825  19.164  14.462
74641ION    CL-46312  28.937  39.245   0.168
74642ION    CL-46313  25.506  15.842  13.516
74643ION    CL-46314  36.707  21.116   1.723
74644ION    CL-46315  43.006  42.922  11.020
74645ION    CL-46316  36.986  26.211  12.191
74646ION    CL-46317  19.981  44.464  13.995
74647ION    CL-46318   1.607   2.246  14.903
74648ION    CL-46319   5.988  40.280  13.861
74649ION    CL-46320  29.489   7.474  11.580
74650ION    CL-46321  22.828  17.776  14.823
74651ION    CL-46322   1.362  37.616  12.057
74652ION    CL-46323  20.818  36.527   3.088
74653ION    CL-46324  27.721  34.149  14.820
74654ION    CL-46325  21.533  33.332  11.174
74655ION    CL-46326  20.652  31.598  11.537
74656ION    CL-46327  15.246  28.342  11.964
74657ION    CL-46328  27.138  19.930  13.340
74658ION    CL-46329  44.504  21.738  14.288
74659ION    CL-46330  11.320  19.836  12.605
74660ION    CL-46331   7.400  40.636  14.533
74661ION    CL-46332   2.940  35.757   2.869
74662ION    CL-46333  43.641  19.050   3.434
74663ION    CL-46334  27.189  32.683  14.938
74664ION    CL-46335   6.368  25.026  11.661
74665ION    CL-46336   6.002  32.371   3.280
74666ION    CL-46337  22.569  26.084   4.830
74667ION    CL-46338   0.670  33.960   2.258
74668ION    CL-46339  41.532  25.073   2.358
74669ION    CL-46340  42.138  18.675  10.437
74670ION    CL-46341   9.749  30.370   4.453
74671ION    CL-46342  44.841  22.000   1.884
74672ION    CL-46343  43.043  29.710  11.482
74673ION    CL-46344   9.991  33.244  11.798
74674ION    CL-46345  10.522  16.334   1.444
74675ION    CL-46346  30.995  31.588  14.448
74676ION    CL-46347  30.237  24.819   1.512
74677ION    CL-46348  16.695  35.092  12.862
74678ION    CL-46349  44.945  26.593   3.961
74679ION    CL-46350  10.956  44.107  12.908
74680ION    CL-46351   3.472   9.403  13.509
74681ION    CL-46352   1.189  26.982  13.935
74682ION    CL-46353   6.655   5.321   3.567
74683ION    CL-46354  18.587   4.230   3.372
74684ION    CL-46355  43.485  10.495  12.422
74685ION    CL-46356   6.345  38.000  11.075
74686ION    CL-46357   4.921  38.431  14.408
74687ION    CL-46358  33.069  16.086   0.242
74688ION    CL-46359   1.302   6.154   1.633
74689ION    CL-46360  15.611   4.630   3.264
74690ION    CL-46361  35.155   3.881  11.212
74691ION    CL-46362   5.581  37.923   0.515
74692ION    CL-46363  25.033  33.512  12.894
74693ION    CL-46364   7.601  44.484   1.930
74694ION    CL-46365  36.248  27.512  13.833
74695ION    CL-46366  36.068  23.627  12.096
74696ION    CL-46367   6.418  39.860  10.853
74697ION    CL-46368  33.439  43.546  12.581
74698ION    CL-46369   4.279   6.756  10.609
74699ION    CL-46370   3.948  44.177   2.191
74700ION    CL-46371  17.484   0.041   4.599
74701ION    CL-46372   5.674  29.867  14.503
74702ION    CL-46373  27.695  31.145  12.405
74703ION    CL-46374  32.813  31.948  10.513
74704ION    CL-46375  35.883  12.220   3.610
74705ION    CL-46376  34.372  14.477   3.468
74706ION    CL-46377  31.473  32.551  10.730
74707ION    CL-46378  33.260  37.983  12.824
74708ION    CL-46379  14.823  23.131   1.386
74709ION    CL-46380  33.021  18.180   0.651
74710ION    CL-46381  36.800  19.115   5.058
74711ION    CL-46382   7.380  44.408   4.229
74712ION    CL-46383  40.357  20.382   3.719
74713ION    CL-46384   4.482  29.435   3.221
74714ION    CL-46385   7.536   9.567   1.745
74715ION    CL-46386   4.694  29.805  11.518
74716ION    CL-46387  15.559  23.563  13.118
74717ION    CL-46388  21.598  34.203  11.661
74718ION    CL-46389  20.291   1.175  11.006
74719ION    CL-46390  23.800   6.708   1.530
74720ION    CL-46391  21.461  44.575   3.299
74721ION    CL-46392  18.013  41.777   2.784
74722ION    CL-46393  10.247  10.294  10.709
74723ION    CL-46394  43.384  23.877  14.281
74724ION    CL-46395   7.581  10.746  13.555
74725ION    CL-46396  20.834   9.504   3.356
74726ION    CL-46397  44.934  20.232   1.290
74727ION    CL-46398   5.588   4.102  12.074
74728ION    CL-46399  24.718  11.631  12.131
74729ION    CL-46400   3.983  24.001   4.537
74730ION    CL-46401  24.900  33.928   3.695
74731ION    CL-46402   8.351  36.710  13.836
74732ION    CL-46403  13.396  19.338  12.665
74733ION    CL-46404  35.071  40.774  11.942
74734ION    CL-46405  34.091  31.345   4.628
74735ION    CL-46406   2.738  38.038   5.119
74736ION    CL-46407   4.401  35.585  14.165
74737ION    CL-46408  30.971   3.741   0.002
74738ION    CL-46409   3.260  27.407  14.049
74739ION    CL-46410  37.965  20.495   4.418
74740ION    CL-46411   1.932   1.028   0.976
74741ION    CL-46412  13.480  10.116   3.303
74742ION    CL-46413  12.300   5.741  11.413
74743ION    CL-46414  16.049  43.925  13.204
74744ION    CL-46415  33.073  32.131   2.800
74745ION    CL-46416   6.002   7.437  12.601
74746ION    CL-46417  11.110   8.948  10.881
74747ION    CL-46418  10.681  37.886  12.440
74748ION    CL-46419  34.609   2.817  13.932
74749ION    CL-46420   4.908   7.597   1.221
74750ION    CL-46421  34.111  34.090  11.972
74751ION    CL-46422  43.739  14.552  12.608
74752ION    CL-46423  18.246   7.614  13.953
74753ION    CL-46424   4.779  38.885  12.734
74754ION    CL-46425  42.204  30.620   4.262
74755ION    CL-46426   5.907  41.251  14.936
74756ION    CL-46427  21.834  10.659   1.994
74757ION    CL-46428  18.563  17.237   0.428
74758ION    CL-46429  32.681  19.969  10.739
74759ION    CL-46430  10.401  29.965   3.170
74760ION    CL-46431  28.394  31.568   0.376
74761ION    CL-46432  32.273  36.890   2.146
74762ION    CL-46433  25.246  10.820   2.635
74763ION    CL-46434  13.232  24.510   4.352
74764ION    CL-46435   1.914  40.969   4.852
74765ION    CL-46436  17.268  40.311   3.237
74766ION    CL-46437  10.388   7.053   3.052
74767ION    CL-46438  31.384  13.694  10.757
74768ION    CL-46439  14.739   7.498   2.350
74769ION    CL-46440  19.121   9.090   0.985
74770ION    CL-46441   9.120  14.391   1.514
74771ION    CL-46442  25.124  12.242  11.101
74772ION    CL-46443  23.657  18.652  13.580
74773ION    CL-46444  30.680  15.127  12.463
74774ION    CL-46445   2.511  42.900   5.116
74775ION    CL-46446  33.680  43.896   1.248
74776ION    CL-46447  38.844  23.125  11.632
74777ION    CL-46448  23.496  15.952  14.675
74778ION    CL-46449   7.671  36.433   3.112
74779ION    CL-46450  32.281   0.394  10.518
74780ION    CL-46451   3.728  20.651  13.776
74781ION    CL-46452  27.108  36.018   3.121
74782ION    CL-46453  19.023   7.000  10.962
74783ION    CL-46454   9.510  20.308  10.242
74784ION    CL-46455  30.358  36.296   4.867
74785ION    CL-46456  15.110   5.763   0.733
74786ION    CL-46457   3.043  13.661  12.481
74787ION    CL-46458   9.143   4.513  14.135
74788ION    CL-46459  22.632  41.512  10.011
74789ION    CL-46460  32.192   5.212   2.892
74790ION    CL-46461  25.950  24.841  11.821
74791ION    CL-46462   6.497  28.192  14.876
74792ION    CL-46463  39.804  37.426   0.537
74793ION    CL-46464  37.079  43.418   3.689
74794ION    CL-46465  22.280  18.768   3.733
74795ION    CL-46466  12.091  17.089  14.007
74796ION    CL-46467  10.982  22.538   1.719
74797ION    CL-46468   2.566  35.026   4.824
74798ION    CL-46469   3.502  20.012   3.246
74799ION    CL-46470  16.737   5.581   9.927
74800ION    CL-46471  20.435   1.991  11.566
74801ION    CL-46472  12.846  38.070   3.813
74802ION    CL-46473  31.111   3.936   1.988
74803ION    CL-46474  29.309  36.928  13.031
74804ION    CL-46475  42.681  17.191   4.962
74805ION    CL-46476   6.461   0.982   0.092
74806ION    CL-46477   1.606  15.296   0.415
74807ION    CL-46478  25.408  32.879   4.874
74808ION    CL-46479  32.041  11.817  14.499
74809ION    CL-46480  26.566  16.688  12.649
74810ION    CL-46481   2.996  20.834  11.007
74811ION    CL-46482   1.388  15.796   2.381
74812ION    CL-46483   1.740  17.823  12.408
74813ION    CL-46484  30.011  35.163  12.198
74814ION    CL-46485  31.932  38.402   3.605
74815ION    CL-46486  31.299  35.812  13.589
74816ION    CL-46487  34.627  19.923  13.250
74817ION    CL-46488  30.569  25.323   3.028
74818ION    CL-46489  21.448   5.270   1.914
74819ION    CL-46490  36.570  31.886   1.768
74820ION    CL-46491  15.360  33.289  13.578
74821ION    CL-46492  29.034   5.768   0.710
74822ION    CL-46493  13.035  21.843   1.345
74823ION    CL-46494  33.404  36.814  12.596
74824ION    CL-46495  23.469  41.986  11.181
74825ION    CL-46496  30.433  26.584   0.470
74826ION    CL-46497  32.185  29.659  12.789
74827ION    CL-46498  36.201   0.006  13.720
74828ION    CL-46499  11.305   4.358  12.606
74829ION    CL-46500  14.311  25.470   2.792
74830ION    CL-46501  21.441  43.464  12.667
74831ION    CL-46502  32.006  22.700   4.076
74832ION    CL-46503  16.632  30.636   0.275
74833ION    CL-46504  41.556  14.504  11.283
74834ION    CL-46505  14.605  31.642   5.104
74835ION    CL-46506  38.172   4.971  11.284
74836ION    CL-46507   5.578  23.872  11.834
74837ION    CL-46508  24.389  19.102   1.403
74838ION    CL-46509   4.797  21.335  13.155
74839ION    CL-46510  23.181  14.840   2.173
74840ION    CL-46511  21.511  13.231  12.988
74841ION    CL-46512  33.428  42.761   1.060
74842ION    CL-46513  11.328  21.170  13.128
74843ION    CL-46514  28.011  19.706  14.934
74844ION    CL-46515  43.631  19.022  13.948
74845ION    CL-46516  42.079  39.304   1.003
74846ION    CL-46517  21.673  26.781  14.373
74847ION    CL-46518   7.861  41.956   0.877
74848ION    CL-46519  23.466  23.275   0.404
74849ION    CL-46520  20.619  42.963  13.889
74850ION    CL-46521   7.496   3.737   1.178
74851ION    CL-46522  14.767   2.273  10.965
74852ION    CL-46523   2.491   9.447   4.059
74853ION    CL-46524  38.155   2.339   2.531
74854ION    CL-46525   2.160  14.871   1.775
74855ION    CL-46526  30.980  15.135   0.788
74856ION    CL-46527  24.132  17.811   0.246
74857ION    CL-46528   7.787  42.294  11.609
74858ION    CL-46529   1.853  16.180  10.898
74859ION    CL-46530   5.206  31.973  14.304
74860ION    CL-46531  42.716  16.746   0.499
74861ION    CL-46532   4.989  34.068   1.391
74862ION    CL-46533  32.682  42.901  12.478
74863ION    CL-46534  24.771   0.810   4.081
74864ION    CL-46535  20.613   2.986  10.787
74865ION    CL-46536  21.048  19.081  13.395
74866ION    CL-46537  39.751  14.514  10.791
74867ION    CL-46538   8.399  27.494   1.955
74868ION    CL-46539   0.136  14.689   3.848
74869ION    CL-46540   3.401  39.288   4.164
74870ION    CL-46541  41.539  42.629  12.393
74871ION    CL-46542  19.941  14.747  12.225
74872ION    CL-46543   8.569  37.652  11.963
74873ION    CL-46544  11.130  42.302  13.900
74874ION    CL-46545  17.839   7.224   1.372
74875ION    CL-46546  15.204   7.811  11.055
74876ION    CL-46547  14.230  38.212  11.357
74877ION    CL-46548  32.821  26.987   3.142
74878ION    CL-46549  31.439  26.098   1.780
74879ION    CL-46550  35.855  29.015   1.209
74880ION    CL-46551   8.741   6.887   0.213
74881ION    CL-46552  36.420   2.496   4.816
74882ION    CL-46553  18.133  36.735  11.261
74883ION    CL-46554   5.877  22.450  11.144
74884ION    CL-46555  36.125  34.283   2.331
74885ION    CL-46556  39.061  26.407   9.942
74886ION    CL-46557   4.249   2.614   1.721
74887ION    CL-46558  12.957  21.852  12.829
74888ION    CL-46559  44.997  44.604   0.109
74889ION    CL-46560   3.666  37.148   4.433
74890ION    CL-46561  27.091  27.227   2.715
74891ION    CL-46562  43.728  27.538   2.612
74892ION    CL-46563  25.961  13.447  14.784
74893ION    CL-46564  43.939  26.475   3.853
74894ION    CL-46565  44.201  32.871   0.346
74895ION    CL-46566  12.065  26.511   0.181
74896ION    CL-46567  26.634  19.784   0.290
74897ION    CL-46568  16.177   6.309   0.483
74898ION    CL-46569  22.518  14.317  12.178
74899ION    CL-46570  38.132  26.246   2.170
74900ION    CL-46571  41.567  12.210   5.021
74901ION    CL-46572   4.352   7.407  11.371
74902ION    CL-46573   3.733   4.873  11.661
74903ION    CL-46574  25.649  35.015   2.447
74904ION    CL-46575   6.287  17.085  14.478
74905ION    CL-46576  15.471  41.315  14.244
74906ION    CL-46577   7.711  12.865   3.247
74907ION    CL-46578  44.098   2.065   0.019
74908ION    CL-46579  27.801  30.101   0.953
74909ION    CL-46580   9.479  15.503  13.959
74910ION    CL-46581  21.891   5.892   4.785
74911ION    CL-46582  15.384  23.398   2.051
74912ION    CL-46583   3.152  32.113   4.243
74913ION    CL-46584  33.803  14.755  14.460
74914ION    CL-46585  37.775  31.787  13.810
74915ION    CL-46586  31.948   8.338   4.115
74916ION    CL-46587  13.475  41.506   1.540
74917ION    CL-46588  22.463  15.146  13.465
74918ION    CL-46589  11.383  28.640   4.120
74919ION    CL-46590  22.346  20.277   0.098
74920ION    CL-46591  44.254  34.156   4.069
74921ION    CL-46592   4.263  16.774   2.815
74922ION    CL-46593  11.591  13.875  13.181
74923ION    CL-46594  38.104  23.721   1.781
74924ION    CL-46595  10.718  40.556   1.839
74925ION    CL-46596  26.878  43.354  13.842
74926ION    CL-46597  21.027  25.981   3.201
74927ION    CL-46598   8.204   7.778  12.461
74928ION    CL-46599  40.838  43.581  12.977
74929ION    CL-46600  41.058   5.786  13.846
74930ION    CL-46601  32.548   1.805   5.070
74931ION    CL-46602  20.675  41.053  14.598
74932ION    CL-46603  17.951  31.917  13.469
74933ION    CL-46604  19.927  15.605   2.655
74934ION    CL-46605  15.895   1.591  13.010
74935ION    CL-46606   2.847  19.056  13.597
74936ION    CL-46607   6.974  17.272   1.001
74937ION    CL-46608  40.472  12.558  13.823
74938ION    CL-46609   6.612  18.767  13.409
74939ION    CL-46610   4.778  10.359   3.063
74940ION    CL-46611   6.680  17.689  12.041
74941ION    CL-46612  27.164  22.667   2.019
74942ION    CL-46613  31.114  28.284   2.710
74943ION    CL-46614  25.004  35.874   0.081
74944ION    CL-46615  23.992  33.896  13.699
74945ION    CL-46616   7.609  30.710   0.042
74946ION    CL-46617  37.313  10.607   0.807
74947ION    CL-46618  29.370   3.264  11.350
74948ION    CL-46619  30.829  40.143   4.171
74949ION    CL-46620  26.088  41.068  13.893
74950ION    CL-46621  30.045  37.969   5.027
74951ION    CL-46622  18.377  33.261  11.658
74952ION    CL-46623  25.510  35.146  11.595
74953ION    CL-46624  12.628  35.123  13.417
74954ION    CL-46625  15.332  35.837   1.649
74955ION    CL-46626  39.310  14.166  12.567
74956ION    CL-46627  15.185   1.041  10.462
74957ION    CL-46628  20.777  39.281   3.268
74958ION    CL-46629   0.904   9.947  11.488
74959ION    CL-46630   7.214  16.805  13.007
74960ION    CL-46631  41.715  32.400   5.115
74961ION    CL-46632  10.290   3.361  13.888
74962ION    CL-46633  21.802   4.351  10.731
74963ION    CL-46634  17.164  10.969  14.360
74964ION    CL-46635  28.981   5.866   1.961
74965ION    CL-46636  18.294  43.109   2.164
74966ION    CL-46637  21.601  30.190   4.223
74967ION    CL-46638  34.414   0.694   3.226
74968ION    CL-46639  13.519  26.907  14.319
74969ION    CL-46640  37.812  38.926  14.803
74970ION    CL-46641  31.571   0.720  12.654
74971ION    CL-46642  13.246   7.157  14.412
74972ION    CL-46643  32.275  27.842  12.548
74973ION    CL-46644   0.698  43.351  11.683
74974ION    CL-46645   2.472  23.134   0.627
74975ION    CL-46646  25.547   8.696  10.772
74976ION    CL-46647  17.563   4.854   0.377
74977ION    CL-46648  23.186  16.883  13.533
74978ION    CL-46649  22.897   9.392  14.833
74979ION    CL-46650  25.058  17.950   2.870
74980ION    CL-46651  24.157  27.352  14.882
74981ION    CL-46652  18.410  44.929  13.974
74982ION    CL-46653  37.593  12.340  12.391
74983ION    CL-46654  29.764  37.345  14.365
74984ION    CL-46655  24.467  14.691  11.738
74985ION    CL-46656   3.971   9.152   4.260
74986ION    CL-46657   4.906  12.317   2.285
74987ION    CL-46658  17.963  37.470   5.085
74988ION    CL-46659   1.993  12.556  11.298
74989ION    CL-46660   2.262  21.121  11.637
74990ION    CL-46661  24.615  10.913   1.986
74991ION    CL-46662  17.166  43.271  12.126
74992ION    CL-46663   6.640  12.372  10.431
74993ION    CL-46664  43.771  30.088   3.691
74994ION    CL-46665   0.249   6.188  14.934
74995ION    CL-46666  31.985  22.976   3.113
74996ION    CL-46667  26.238   9.259   9.850
74997ION    CL-46668  30.697  44.525  14.402
74998ION    CL-46669  14.154  34.488  12.690
74999ION    CL-46670  42.609   5.947  14.548
75000ION    CL-46671  11.643   0.044   2.857
75001ION    CL-46672  27.191   2.492   0.455
75002ION    CL-46673  17.440   1.673  14.550
75003ION    CL-46674  20.947  36.764   0.539
75004ION    CL-46675  10.256  42.768  14.868
75005ION    CL-46676  15.226  17.121  14.920
75006ION    CL-46677  20.049   2.922  14.180
75007ION    CL-46678  32.756  43.904  10.583
75008ION    CL-46679  13.895   2.050   3.200
75009ION    CL-46680  11.633  33.900   1.870
75010ION    CL-46681   3.918  44.443  10.681
75011ION    CL-46682   1.031  21.147  11.106
75012ION    CL-46683  21.006  30.211   1.607
75013ION    CL-46684  22.985   7.789  14.700
75014ION    CL-46685  22.541  30.648  10.557
75015ION    CL-46686  25.001  21.237  11.696
75016ION    CL-46687  38.795  35.519  11.218
75017ION    CL-46688  37.068  41.858   2.345
75018ION    CL-46689  42.193   4.840  11.324
75019ION    CL-46690  42.565  30.042   5.075
75020ION    CL-46691  44.189   6.974   1.593
75021ION    CL-46692  16.687  42.779  14.036
75022ION    CL-46693  41.416  26.404   4.555
75023ION    CL-46694  27.540  36.648   0.759
75024ION    CL-46695  40.547  17.789   3.336
75025ION    CL-46696  25.096  20.686   0.004
75026ION    CL-46697  15.428  36.113   3.440
75027ION    CL-46698   6.265  11.356  10.645
75028ION    CL-46699   6.224  17.898  13.898
75029ION    CL-46700  28.697  23.649   0.152
75030ION    CL-46701  28.554  23.596   4.496
75031ION    CL-46702  44.008  38.633   0.805
75032ION    CL-46703  33.574   8.449  13.506
75033ION    CL-46704  32.516  42.319   3.194
75034ION    CL-46705  34.242  11.893   0.238
75035ION    CL-46706  21.773   7.679   0.995
75036ION    CL-46707  15.325  22.629  10.444
75037ION    CL-46708   2.953  28.585   3.104
75038ION    CL-46709  15.243   1.692   0.608
75039ION    CL-46710  18.415   0.072   2.199
75040ION    CL-46711  43.796  38.509   2.199
75041ION    CL-46712  20.225  11.152   1.189
75042ION    CL-46713  17.964  12.825   4.555
75043ION    CL-46714  18.619   3.421   2.337
75044ION    CL-46715  31.466   4.640  12.929
75045ION    CL-46716  16.599   2.893  11.602
75046ION    CL-46717  43.270  35.396   4.117
75047ION    CL-46718  36.178   9.752  11.179
75048ION    CL-46719  23.425  16.026  12.972
75049ION    CL-46720  19.040  23.540   3.098
75050ION    CL-46721  44.385  42.819   1.230
75051ION    CL-46722  32.189   7.180   2.828
75052ION    CL-46723  13.198  26.737   3.389
75053ION    CL-46724   9.229   8.733   1.674
75054ION    CL-46725  24.013   0.431  13.375
75055ION    CL-46726  44.431   8.371  12.503
75056ION    CL-46727  10.968   4.835  13.753
75057ION    CL-46728  31.658  33.157   3.692
75058ION    CL-46729  23.319  24.239   1.956
75059ION    CL-46730  25.063  13.573  14.889
75060ION    CL-46731  10.679  18.468  11.901
75061ION    CL-46732  33.354  14.577   2.681
75062ION    CL-46733   7.322   9.668   2.899
75063ION    CL-46734  39.839  18.832   4.928
75064ION    CL-46735  12.251  40.042  13.527
75065ION    CL-46736  12.607  15.825   0.580
75066ION    CL-46737  32.489  36.086  10.842
75067ION    CL-46738  40.863  33.113   3.935
75068ION    CL-46739  13.129  10.782  11.657
75069ION    CL-46740   6.375  44.043  10.664
75070ION    CL-46741  19.984  36.757   2.925
75071ION    CL-46742  44.223  40.038  11.927
75072ION    CL-46743   4.556  27.541   3.793
75073ION    CL-46744  16.485  25.197   3.321
75074ION    CL-46745   7.728   5.843   3.181
75075ION    CL-46746   1.492  35.039  11.373
75076ION    CL-46747   3.406   3.939   3.720
75077ION    CL-46748  12.229  29.608  12.662
75078ION    CL-46749  32.857  29.327   4.783
75079ION    CL-46750  22.020  20.509   3.103
75080ION    CL-46751  29.608  20.417   2.650
75081ION    CL-46752  13.608   0.042  13.073
75082ION    CL-46753   7.947   1.240   0.312
75083ION    CL-46754  17.048  28.294  12.906
75084ION    CL-46755  22.216   2.740  12.216
75085ION    CL-46756  20.057  34.598  14.828
75086ION    CL-46757  28.103  31.310   3.005
75087ION    CL-46758  21.209  11.047  12.089
75088ION    CL-46759  22.449  13.493   1.044
75089ION    CL-46760  31.522  27.554   0.859
75090ION    CL-46761  31.577   3.188  11.116
75091ION    CL-46762  18.784  42.275   2.386
75092ION    CL-46763  16.107   5.095   2.283
75093ION    CL-46764  28.168  30.496  14.203
75094ION    CL-46765   6.247  21.571   2.110
75095ION    CL-46766  22.226   6.642   1.869
75096ION    CL-46767  42.140  38.483   2.452
75097ION    CL-46768  18.081  10.768   4.699
75098ION    CL-46769  21.696  18.580  13.769
75099ION    CL-46770  14.118  37.643   4.942
75100ION    CL-46771  20.372  24.745   2.611
75101ION    CL-46772  21.264  23.656   1.480
75102ION    CL-46773  13.589  26.735  11.614
75103ION    CL-46774   8.801  36.522   1.854
75104ION    CL-46775  38.083  27.957   0.163
75105ION    CL-46776  39.459  33.561   0.174
75106ION    CL-46777  12.706   2.189   0.394
75107ION    CL-46778   7.076  17.810  14.696
75108ION    CL-46779  32.085  10.466  12.445
75109ION    CL-46780  14.928  35.703  14.252
75110ION    CL-46781  14.297  18.507   1.833
75111ION    CL-46782  39.463  43.516   0.973
75112ION    CL-46783  39.815  18.869   2.153
75113ION    CL-46784   6.997  38.351  11.747
75114ION    CL-46785  14.950  21.963  11.089
75115ION    CL-46786   6.431  36.494   1.476
75116ION    CL-46787   8.430  21.957  11.987
75117ION    CL-46788  19.150  35.864  12.897
75118ION    CL-46789  19.063  12.702   3.629
75119ION    CL-46790  25.868   4.727   2.963
75120ION    CL-46791   7.514  11.161  12.737
75121ION    CL-46792  36.338  35.644   4.897
75122ION    CL-46793   7.907   6.021   1.129
75123ION    CL-46794   1.891   7.961   1.844
75124ION    CL-46795   7.222  24.417  11.638
75125ION    CL-46796  43.945  14.038   1.820
75126ION    CL-46797  34.582  17.584  11.651
75127ION    CL-46798  41.578  44.365   3.114
75128ION    CL-46799  35.923  26.925  12.323
75129ION    CL-46800  30.547   6.357  12.715
75130ION    CL-46801  26.579  22.468   3.648
75131ION    CL-46802   7.746  44.159   0.090
75132ION    CL-46803   3.828  11.666  13.854
75133ION    CL-46804  26.354  32.141   0.998
75134ION    CL-46805  27.734  15.986   1.491
75135ION    CL-46806  43.990   8.594   2.229
75136ION    CL-46807   6.085  18.706   2.196
75137ION    CL-46808   9.353  16.734   3.871
75138ION    CL-46809  26.436   1.891   1.735
75139ION    CL-46810  15.891  19.211   1.645
75140ION    CL-46811  40.834  40.135  14.522
75141ION    CL-46812  40.168   4.380   4.812
75142ION    CL-46813  19.818  22.231  11.347
75143ION    CL-46814   1.308  30.606  13.125
75144ION    CL-46815  22.739   2.795  13.486
75145ION    CL-46816   0.231   1.166  14.503
75146ION    CL-46817   7.919  24.858   3.861
75147ION    CL-46818  14.474  39.084   4.149
75148ION    CL-46819  27.425  42.724  14.393
75149ION    CL-46820  41.950  31.177   0.989
75150ION    CL-46821   1.886   3.358   0.344
75151ION    CL-46822  24.290   1.128   2.134
75152ION    CL-46823  29.133  11.425   1.371
75153ION    CL-46824   5.906  43.230   4.876
75154ION    CL-46825  28.268  23.181  12.786
75155ION    CL-46826  23.336   2.747   3.650
75156ION    CL-46827  14.532  28.603  13.784
75157ION    CL-46828  38.862   5.454   2.637
75158ION    CL-46829   4.052   3.045  13.934
75159ION    CL-46830  28.513   4.723   4.254
75160ION    CL-46831  33.803  28.371   3.716
75161ION    CL-46832  27.336  32.202   0.695
75162ION    CL-46833  20.094  25.496  12.952
75163ION    CL-46834  16.985  39.384  13.541
75164ION    CL-46835   4.616  42.068   2.161
75165ION    CL-46836  40.470  20.116  12.879
75166ION    CL-46837  42.072  34.554  14.072
75167ION    CL-46838  24.548  23.272  10.324
75168ION    CL-46839  31.382  14.105   0.289
75169ION    CL-46840   5.336  14.361  11.036
75170ION    CL-46841  18.140  40.386  11.708
75171ION    CL-46842   9.684  35.949  13.359
75172ION    CL-46843  31.959  32.337   1.407
75173ION    CL-46844  42.669  24.763  14.700
75174ION    CL-46845  36.619  23.529   1.442
75175ION    CL-46846   9.643  13.253   3.264
75176ION    CL-46847   6.890  30.736  14.394
75177ION    CL-46848  39.028  20.430   1.335
75178ION    CL-46849  30.777  35.103  11.791
75179ION    CL-46850   4.373  18.331   0.018
75180ION    CL-46851  26.938   5.663   4.666
75181ION    CL-46852  34.038  25.236  10.688
75182ION    CL-46853  21.832   2.223  14.449
75183ION    CL-46854  38.088  37.389  11.047
75184ION    CL-46855  38.288  24.500   4.917
75185ION    CL-46856  44.638  36.707   5.064
75186ION    CL-46857  16.394  36.224   1.918
75187ION    CL-46858  22.180  44.762   2.612
75188ION    CL-46859  44.446   2.682   2.274
75189ION    CL-46860  39.494  40.942  12.098
75190ION    CL-46861   2.522   4.652   1.847
75191ION    CL-46862  29.495  35.028   4.139
75192ION    CL-46863  26.163  16.647  14.336
75193ION    CL-46864  27.956   7.641  14.402
75194ION    CL-46865  34.623  18.387   3.252
75195ION    CL-46866  34.664  34.508   2.486
75196ION    CL-46867  42.013   2.922  14.205
75197ION    CL-46868   6.886   3.394   1.893
75198ION    CL-46869   2.446  12.648  13.396
75199ION    CL-46870   4.469   9.974   2.333
75200ION    CL-46871   3.668  41.136   5.102
75201ION    CL-46872   7.396  10.592   0.900
75202ION    CL-46873  37.447  13.038   4.147
75203ION    CL-46874  36.208   6.473  10.965
75204ION    CL-46875  29.503  23.106  10.991
75205ION    CL-46876  41.654  39.118   1.851
75206ION    CL-46877  26.765  15.939   0.793
75207ION    CL-46878  33.198  28.198  12.702
75208ION    CL-46879   1.465  11.830  11.449
75209ION    CL-46880   4.523  32.300  12.944
75210ION    CL-46881  31.593  23.673   0.096
75211ION    CL-46882   9.392  15.240   2.159
75212ION    CL-46883  16.588  36.352   1.039
75213ION    CL-46884  42.384  32.713   2.305
75214ION    CL-46885  37.927  40.649   3.614
75215ION    CL-46886   5.027  33.449  11.891
75216ION    CL-46887  25.228  25.375  14.933
75217ION    CL-46888  39.295  15.612  13.936
75218ION    CL-46889  20.253  27.027   3.011
75219ION    CL-46890  22.846  37.193   2.844
75220ION    CL-46891  17.501  17.791   1.359
75221ION    CL-46892  36.053  21.229   2.473
75222ION    CL-46893   0.347  17.784  13.411
75223ION    CL-46894  10.029  25.981   2.980
75224ION    CL-46895   8.900  27.027  11.665
75225ION    CL-46896  44.646  23.270  11.155
75226ION    CL-46897  12.069  37.515   0.169
75227ION    CL-46898  43.115  18.556   2.249
75228ION    CL-46899  44.929  18.478  14.712
75229ION    CL-46900  38.929  13.343  12.604
75230ION    CL-46901   3.861  11.877  10.638
75231ION    CL-46902  34.124  31.184  11.911
75232ION    CL-46903  30.273  23.004  14.767
75233ION    CL-46904  11.693   8.376  13.512
75234ION    CL-46905  13.860   2.590  14.633
75235ION    CL-46906  20.732  14.251  13.822
75236ION    CL-46907  31.857  23.289  12.489
75237ION    CL-46908  28.945   0.049  12.044
75238ION    CL-46909  34.024  33.541  13.302
75239ION    CL-46910  43.064  12.391  13.119
75240ION    CL-46911  44.440  43.359  12.982
75241ION    CL-46912  15.238  20.752   1.089
75242ION    CL-46913  13.745  13.851  14.295
75243ION    CL-46914   1.315  17.710   0.739
75244ION    CL-46915  20.783  26.689  13.283
75245ION    CL-46916  23.066   7.755   0.696
75246ION    CL-46917  22.386  22.154   3.429
75247ION    CL-46918  36.730  26.328  14.609
75248ION    CL-46919  31.147  11.284   3.697
75249ION    CL-46920  11.129   6.983   0.366
75250ION    CL-46921   3.463  34.667  12.359
75251ION    CL-46922  39.853  20.487  11.121
75252ION    CL-46923  37.338   2.029  14.917
75253ION    CL-46924   2.716  28.474   4.678
75254ION    CL-46925   4.460  34.002  12.277
75255ION    CL-46926  31.422  28.268  14.223
75256ION    CL-46927   3.077  40.310  11.777
75257ION    CL-46928   8.110  27.032   4.811
75258ION    CL-46929  20.893  35.857   4.499
75259ION    CL-46930   9.889  31.540   2.128
75260ION    CL-46931  15.554  41.489   4.716
75261ION    CL-46932  17.362  17.555  12.266
75262ION    CL-46933  16.178  28.883   4.142
75263ION    CL-46934  21.861  19.240  11.989
75264ION    CL-46935   3.240  43.767  13.460
75265ION    CL-46936   9.959  18.017   3.603
75266ION    CL-46937  27.066  14.806  11.195
75267ION    CL-46938  24.706  13.732   5.157
75268ION    CL-46939  17.628  14.297  10.829
75269ION    CL-46940  24.123  38.438   3.163
75270ION    CL-46941  16.220   6.818  10.167
75271ION    CL-46942   1.211  11.281   0.949
75272ION    CL-46943  33.071  22.803   4.775
75273ION    CL-46944  33.253  22.708   1.766
75274ION    CL-46945  37.728  35.611  14.117
75275ION    CL-46946   2.971   5.857  14.998
75276ION    CL-46947  26.241  35.758   9.808
75277ION    CL-46948  32.322  10.094   4.037
75278ION    CL-46949  42.225  40.189   1.445
75279ION    CL-46950   3.024   0.110   1.325
75280ION    CL-46951  38.645  38.265  11.183
75281ION    CL-46952  35.227  33.492  11.214
75282ION    CL-46953  39.223  13.616   3.062
75283ION    CL-46954  21.423  13.852   4.301
75284ION    CL-46955   7.820  36.146  14.349
75285ION    CL-46956  16.268  10.902   1.283
75286ION    CL-46957  19.956   0.735   1.142
75287ION    CL-46958  21.723  32.653  11.535
75288ION    CL-46959   6.001  41.163  10.917
75289ION    CL-46960  43.341  15.546  12.249
75290ION    CL-46961  16.395  35.034   4.089
75291ION    CL-46962  31.225  22.692  11.994
75292ION    CL-46963  21.315  24.571   2.896
75293ION    CL-46964  24.731  28.158   3.416
75294ION    CL-46965  35.261  24.163   3.461
75295ION    CL-46966  22.990   7.781  11.461
75296ION    CL-46967   1.122  24.178   0.429
75297ION    CL-46968  42.080  26.547   3.927
75298ION    CL-46969  15.828  34.292  11.634
75299ION    CL-46970  40.416  17.540  13.174
75300ION    CL-46971  32.867  13.515  13.336
75301ION    CL-46972   7.828  11.972  14.036
75302ION    CL-46973  12.383  24.101  13.291
75303ION    CL-46974  17.726  15.085   2.201
75304ION    CL-46975  23.300  22.338   4.558
75305ION    CL-46976  21.629  18.027   4.787
75306ION    CL-46977  27.831  41.518  10.967
75307ION    CL-46978   9.352  27.696  11.076
75308ION    CL-46979  17.108  25.814   3.801
75309ION    CL-46980  41.649  19.529   9.864
75310ION    CL-46981  26.255  44.846  10.312
75311ION    CL-46982  19.875  15.712  13.839
75312ION    CL-46983  20.235  27.224   5.237
75313ION    CL-46984   4.365  30.683   4.027
75314ION    CL-46985   2.176   8.758  11.564
75315ION    CL-46986  30.759  34.856   4.222
75316ION    CL-46987  40.173   5.955  13.794
75317ION    CL-46988   8.717  26.076   4.268
75318ION    CL-46989  20.234  42.736   2.278
75319ION    CL-46990  41.955   5.333  12.196
75320ION    CL-46991  12.308  41.636   2.490
75321ION    CL-46992  13.288  34.319   0.885
75322ION    CL-46993   0.086  23.092  10.232
75323ION    CL-46994  30.487  30.146  13.314
75324ION    CL-46995  38.895  25.322  12.127
75325ION    CL-46996  40.870  32.289  11.732
75326ION    CL-46997  44.419  14.627   0.281
75327ION    CL-46998  28.254  12.578   3.196
75328ION    CL-46999  17.677  37.677   1.441
75329ION    CL-47000   0.640   6.761   4.930
75330ION    CL-47001  35.848  34.993  14.719
75331ION    CL-47002  33.792  44.529  10.513
75332ION    CL-47003  23.861  22.002  14.197
75333ION    CL-47004  28.984   7.862   1.196
75334ION    CL-47005  19.938  42.604   4.670
75335ION    CL-47006  32.573   0.955  14.780
75336ION    CL-47007  35.450   0.582  12.812
75337ION    CL-47008   1.716  35.497  10.653
75338ION    CL-47009  32.850  27.183  10.818
75339ION    CL-47010  20.516  44.281   3.157
75340ION    CL-47011  42.027  15.347   1.227
75341ION    CL-47012   5.475   3.193   1.709
75342ION    CL-47013   4.528  41.519  10.628
75343ION    CL-47014  22.422  34.416  13.183
75344ION    CL-47015  34.827   0.824  14.645
75345ION    CL-47016   4.980  42.030  12.818
75346ION    CL-47017  24.431  30.199   4.219
75347ION    CL-47018  42.542   1.847  12.912
75348ION    CL-47019  43.899  12.411   5.082
75349ION    CL-47020  17.171  16.598   2.016
75350ION    CL-47021  22.050  36.100  13.799
75351ION    CL-47022  14.266  38.503   1.157
75352ION    CL-47023  38.326   0.454  12.616
75353ION    CL-47024   9.573   7.162  13.323
75354ION    CL-47025  17.956   1.354  14.738
75355ION    CL-47026  15.574  28.091   5.088
75356ION    CL-47027  27.047  14.275  11.874
75357ION    CL-47028  30.836  39.479  13.763
75358ION    CL-47029   6.444  22.398   5.048
75359ION    CL-47030  24.233  33.797  14.558
75360ION    CL-47031  10.913  37.042  12.925
75361ION    CL-47032  24.164   0.200  12.413
75362ION    CL-47033  32.034  15.269  11.171
75363ION    CL-47034  40.506  24.419  14.747
75364ION    CL-47035  19.329  14.917   0.000
75365ION    CL-47036   9.172  28.006   0.020
75366ION    CL-47037  22.279  23.937  10.335
75367ION    CL-47038  20.198  33.937   5.029
75368ION    CL-47039  17.347  16.855  14.857
75369ION    CL-47040  33.880  39.844  11.141
75370ION    CL-47041  26.601   2.162  10.653
75371ION    CL-47042  40.020  35.539   3.215
75372ION    CL-47043  17.675  42.870   3.570
75373ION    CL-47044   7.397  35.112  12.102
75374ION    CL-47045  25.103  33.623  10.533
75375ION    CL-47046  12.445  44.230   2.635
75376ION    CL-47047  26.682   9.092  12.699
75377ION    CL-47048   0.097  13.528   2.628
75378ION    CL-47049  17.612  32.049  14.554
75379ION    CL-47050  12.892   1.539   1.316
75380ION    CL-47051  26.008  43.090  13.426
75381ION    CL-47052  10.135  12.329   4.113
75382ION    CL-47053   4.238  27.103   1.240
75383ION    CL-47054  42.754  37.131   9.922
75384ION    CL-47055  17.082  10.544   4.614
75385ION    CL-47056  16.649   0.549  11.960
75386ION    CL-47057   8.853  18.648  10.645
75387ION    CL-47058   4.286  38.888   0.426
75388ION    CL-47059  26.060  41.918  12.527
75389ION    CL-47060  25.095  31.941   4.213
75390ION    CL-47061  10.372   1.564  13.884
75391ION    CL-47062  40.720  14.516  14.892
75392ION    CL-47063  13.865  39.433  14.375
75393ION    CL-47064   3.786  28.034   3.047
75394ION    CL-47065   9.212  43.259   2.122
75395ION    CL-47066  11.090   2.000   0.961
75396ION    CL-47067  32.154  25.080  12.756
75397ION    CL-47068  31.826  33.828  10.916
75398ION    CL-47069  28.256  28.136   3.509
75399ION    CL-47070  31.152   4.706  14.373
75400ION    CL-47071  13.415  29.683  10.958
75401ION    CL-47072  25.732   7.358  14.412
75402ION    CL-47073  32.279  19.157   1.449
75403ION    CL-47074  10.360  41.397  13.227
75404ION    CL-47075   3.302  28.832   0.133
75405ION    CL-47076  28.914  32.656  14.088
75406ION    CL-47077  23.002  40.937  12.025
75407ION    CL-47078  40.600  24.233  11.205
75408ION    CL-47079  28.237  43.852   3.248
75409ION    CL-47080  37.759  24.160   0.726
75410ION    CL-47081  28.152  17.157   0.421
75411ION    CL-47082   3.319  30.187  11.200
75412ION    CL-47083  32.565  20.119   0.445
75413ION    CL-47084  30.936  38.068  14.989
75414ION    CL-47085  34.985  26.417   0.589
75415ION    CL-47086  35.693   1.081  10.416
75416ION    CL-47087  26.350   7.286  10.198
75417ION    CL-47088   7.557  16.771   2.405
75418ION    CL-47089   0.210  24.669   0.196
75419ION    CL-47090  20.348  23.507  10.327
75420ION    CL-47091  43.104  10.601  11.586
75421ION    CL-47092  13.996  37.299  11.840
75422ION    CL-47093  42.787  15.178  13.029
75423ION    CL-47094   8.802  25.716  12.379
75424ION    CL-47095  13.338  23.649   2.658
75425ION    CL-47096   0.466  35.720  14.623
75426ION    CL-47097  29.119   6.574  14.531
75427ION    CL-47098  33.391  33.524  11.570
75428ION    CL-47099  31.829   8.060  14.400
75429ION    CL-47100  35.953  25.620   0.832
75430ION    CL-47101  25.039  19.069  10.746
75431ION    CL-47102  17.969  25.942   2.097
75432ION    CL-47103  25.590  31.546   0.496
75433ION    CL-47104  43.805  42.525   2.381
75434ION    CL-47105  43.753  15.083  11.370
75435ION    CL-47106  32.384  12.252   1.437
75436ION    CL-47107  15.384  41.358   3.365
75437ION    CL-47108   3.643  40.401   2.178
75438ION    CL-47109  37.880  19.770   3.661
75439ION    CL-47110  30.440  11.419   5.158
75440ION    CL-47111  42.341   1.360   2.773
75441ION    CL-47112   5.834  18.602  12.292
75442ION    CL-47113  13.006  17.361   3.063
75443ION    CL-47114   5.928  15.757  10.884
75444ION    CL-47115  33.667  40.811  11.000
75445ION    CL-47116  31.799  24.755   2.999
75446ION    CL-47117  32.744  17.598  14.004
75447ION    CL-47118  12.334   4.239   2.400
75448ION    CL-47119  23.352   0.008   3.726
75449ION    CL-47120   0.254  24.698  11.045
75450ION    CL-47121  40.496  14.294   4.710
75451ION    CL-47122  33.094  12.769  14.524
75452ION    CL-47123  36.487  12.143  14.795
75453ION    CL-47124   9.781  20.487  14.338
75454ION    CL-47125   1.801   5.478   1.315
75455ION    CL-47126  14.804  37.704   0.888
75456ION    CL-47127   7.316  20.306  13.644
75457ION    CL-47128  24.895  35.995   4.626
75458ION    CL-47129  13.666  44.687   1.517
75459ION    CL-47130  12.727  16.339  14.186
75460ION    CL-47131  25.575  33.030   2.787
75461ION    CL-47132  25.090  31.838  12.598
75462ION    CL-47133  30.520  27.690   4.166
75463ION    CL-47134   1.937  15.249  13.362
75464ION    CL-47135   0.253  35.909   0.581
75465ION    CL-47136   9.575  41.516   1.546
75466ION    CL-47137  34.240  33.088  11.022
75467ION    CL-47138  20.990  29.972  12.526
75468ION    CL-47139  32.243   6.418   3.349
75469ION    CL-47140  13.316  39.790   1.895
75470ION    CL-47141  43.163   3.260  12.638
75471ION    CL-47142  19.530   4.953   2.323
75472ION    CL-47143   9.070  22.015  12.753
75473ION    CL-47144   3.082  28.500   0.993
75474ION    CL-47145  22.809  22.345   2.240
75475ION    CL-47146  24.304  44.649  13.226
75476ION    CL-47147  22.149  17.227  14.015
75477ION    CL-47148  22.221  28.029   3.228
75478ION    CL-47149  21.967   5.311  11.196
75479ION    CL-47150  18.546  14.849   3.252
75480ION    CL-47151   0.734  14.649   0.908
75481ION    CL-47152  23.291  25.814  11.582
75482ION    CL-47153  39.520  24.289  14.854
75483ION    CL-47154  38.838   9.193   3.523
75484ION    CL-47155  30.545  40.290  13.939
75485ION    CL-47156   7.179  28.041   2.747
75486ION    CL-47157  31.016  40.119   0.860
75487ION    CL-47158  16.795  29.220   2.988
75488ION    CL-47159  41.968   6.682  14.329
75489ION    CL-47160   2.486   9.807   0.839
75490ION    CL-47161  10.153   1.635   2.405
75491ION    CL-47162   8.639   3.798  11.478
75492ION    CL-47163   8.601  33.200  12.844
75493ION    CL-47164  17.775  19.022  11.028
75494ION    CL-47165   5.162  24.128   3.994
75495ION    CL-47166  17.767  13.507   1.390
75496ION    CL-47167  36.097  27.995   4.976
75497ION    CL-47168  35.148  36.887   4.528
75498ION    CL-47169  30.080  33.861   0.058
75499ION    CL-47170   4.188  22.297  12.463
75500ION    CL-47171  25.837  32.504   0.354
75501ION    CL-47172  15.679  23.239   3.752
75502ION    CL-47173  15.454   2.198   3.893
75503ION    CL-47174  37.645  29.648  13.712
75504ION    CL-47175  12.845   9.465   3.393
75505ION    CL-47176  14.329   7.833   1.259
75506ION    CL-47177  33.746  11.994  11.148
75507ION    CL-47178  28.561   4.875   2.340
75508ION    CL-47179  22.924  34.969   4.025
75509ION    CL-47180  21.185  11.220   2.638
75510ION    CL-47181  33.032  12.500   0.388
75511ION    CL-47182  29.200  12.873   4.141
75512ION    CL-47183  35.119  24.499   1.361
75513ION    CL-47184  41.417   1.287   5.056
75514ION    CL-47185  38.760  44.726   9.923
75515ION    CL-47186  32.204  42.783   4.078
75516ION    CL-47187  44.543  44.057   3.699
75517ION    CL-47188  40.455  41.058   0.968
75518ION    CL-47189  30.742  41.197   3.181
75519ION    CL-47190  29.932  38.346   0.781
75520ION    CL-47191  28.323  17.205   4.158
75521ION    CL-47192   7.743  40.454   0.878
75522ION    CL-47193  24.212  29.015  12.013
75523ION    CL-47194  34.123  15.992   0.480
75524ION    CL-47195  13.611  44.157  13.964
75525ION    CL-47196   5.178  16.361   0.348
75526ION    CL-47197  26.011  30.539   1.917
75527ION    CL-47198  16.624  10.493   3.687
75528ION    CL-47199  18.761   9.415   2.625
75529ION    CL-47200  23.414   9.663  12.990
75530ION    CL-47201  18.585  17.061  11.597
75531ION    CL-47202  14.576  27.034  12.932
75532ION    CL-47203  43.304  14.813   5.274
75533ION    CL-47204  13.556   0.692   3.887
75534ION    CL-47205  39.951  15.818   4.412
75535ION    CL-47206   2.673  12.423   3.843
75536ION    CL-47207  37.841   2.372   4.604
75537ION    CL-47208  40.977   5.232  11.261
75538ION    CL-47209  43.998  27.287  11.087
75539ION    CL-47210  31.175  40.796  11.014
75540ION    CL-47211  35.450  36.443   2.131
75541ION    CL-47212  23.084  26.834   2.002
75542ION    CL-47213  19.896  19.661   4.090
75543ION    CL-47214  14.657  21.485   0.686
75544ION    CL-47215  19.183  35.524   1.136
75545ION    CL-47216   8.280  27.591   3.944
75546ION    CL-47217   8.441  17.636   4.830
75547ION    CL-47218  40.915  21.244  12.750
75548ION    CL-47219  18.441   1.677   3.650
75549ION    CL-47220  13.850  41.106  14.802
75550ION    CL-47221  18.886  38.632  11.929
75551ION    CL-47222  33.468  24.495  14.828
75552ION    CL-47223  33.584  31.636  13.967
75553ION    CL-47224  33.002  17.344   4.541
75554ION    CL-47225   2.705  29.693  14.667
75555ION    CL-47226  44.678  13.102   5.526
75556ION    CL-47227   7.247   8.733   4.304
75557ION    CL-47228  34.122  33.451   3.771
75558ION    CL-47229   8.642  31.526  13.585
75559ION    CL-47230  33.833  28.593  14.241
75560ION    CL-47231  26.997  39.043   2.845
75561ION    CL-47232  40.981  30.816   0.213
75562ION    CL-47233   0.260  22.330  13.528
75563ION    CL-47234  40.763  23.215   3.094
75564ION    CL-47235  31.004  41.017  13.636
75565ION    CL-47236  24.448  18.518   1.105
75566ION    CL-47237   9.094   7.696  12.740
75567ION    CL-47238   8.052  21.916   1.268
75568ION    CL-47239  19.970   8.854   1.663
75569ION    CL-47240  31.955  32.307   0.407
75570ION    CL-47241   6.427  12.273   2.081
75571ION    CL-47242   4.288  10.363  12.455
75572ION    CL-47243   3.006  44.269   1.867
75573ION    CL-47244   4.789  42.846  13.950
75574ION    CL-47245  28.247  24.883  12.440
75575ION    CL-47246  14.060  23.497   3.357
75576ION    CL-47247  41.381  40.020   5.252
75577ION    CL-47248  19.228  35.340  11.145
75578ION    CL-47249   3.252   9.823  14.476
75579ION    CL-47250  41.205  42.488   4.252
75580ION    CL-47251  17.460  13.911  14.289
75581ION    CL-47252  39.329   6.559   3.266
75582ION    CL-47253  22.162  41.982   2.735
75583ION    CL-47254   2.883  30.954  14.742
75584ION    CL-47255  31.898   0.418  13.883
75585ION    CL-47256   6.393   8.036  13.300
75586ION    CL-47257  40.728  11.677   0.548
75587ION    CL-47258  36.930   4.410   0.861
75588ION    CL-47259  27.728  14.149   3.621
75589ION    CL-47260  16.648  14.572  14.838
75590ION    CL-47261  25.089  22.170  10.609
75591ION    CL-47262  21.065  21.593   0.724
75592ION    CL-47263   6.246   8.314  14.144
75593ION    CL-47264   7.260  30.096  13.871
75594ION    CL-47265  24.273  30.179   1.862
75595ION    CL-47266  34.873   2.373   2.596
75596ION    CL-47267  19.951   6.653  11.111
75597ION    CL-47268  31.315   2.304   2.429
75598ION    CL-47269   6.308  42.691  12.879
75599ION    CL-47270   8.578  18.422   1.234
75600ION    CL-47271  16.462  19.440   0.056
75601ION    CL-47272  33.646  35.417  11.631
75602ION    CL-47273  14.666  31.689  10.761
75603ION    CL-47274   6.901  31.091   4.266
75604ION    CL-47275  43.933   9.558  10.965
75605ION    CL-47276  15.606  18.505   0.291
75606ION    CL-47277  42.811  16.325   9.873
75607ION    CL-47278  44.878  15.582   4.869
75608ION    CL-47279  32.115  41.058   1.505
75609ION    CL-47280  34.151  23.377   1.875
75610ION    CL-47281  39.163  13.158  14.980
75611ION    CL-47282  31.531   2.807   4.202
75612ION    CL-47283   9.772  11.717  14.312
75613ION    CL-47284   3.570   7.020   0.788
75614ION    CL-47285   0.672  31.113   0.499
75615ION    CL-47286  18.514   6.354   3.327
75616ION    CL-47287  44.651   5.512   0.087
75617ION    CL-47288  25.421   8.743   2.071
75618ION    CL-47289  11.877   2.060   2.722
75619ION    CL-47290  43.234  14.409  11.197
75620ION    CL-47291  38.510  10.786  13.414
75621ION    CL-47292  27.077  15.143   1.311
75622ION    CL-47293  24.025  25.638   3.691
75623ION    CL-47294  41.966  21.545  13.696
75624ION    CL-47295   8.536  10.359  12.009
75625ION    CL-47296   8.807  14.851   3.008
75626ION    CL-47297   1.419  22.129  12.415
75627ION    CL-47298  21.665  13.088  11.983
75628ION    CL-47299  17.459  19.734   4.994
75629ION    CL-47300   0.098  23.905  13.819
75630ION    CL-47301   3.144  19.294  12.672
75631ION    CL-47302   5.048   6.700  11.245
75632ION    CL-47303   3.608   5.860  14.357
75633ION    CL-47304  44.762  33.964  12.175
75634ION    CL-47305   2.181  30.982  10.731
75635ION    CL-47306   2.199  32.405  11.949
75636ION    CL-47307  37.133  29.203   1.729
75637ION    CL-47308  19.636  41.945  12.049
75638ION    CL-47309  29.903  36.276   2.549
75639ION    CL-47310  27.537   3.528   0.029
75640ION    CL-47311  38.735  12.914   3.356
75641ION    CL-47312  19.650  14.034  14.659
75642ION    CL-47313  35.138  35.920   3.258
75643ION    CL-47314  31.409  22.510  12.960
75644ION    CL-47315   2.489   2.689   0.162
75645ION    CL-47316  31.398  11.094  13.897
75646ION    CL-47317   6.482  36.714   2.450
75647ION    CL-47318  26.295  27.470   2.384
75648ION    CL-47319  33.820  25.423  14.706
75649ION    CL-47320  25.115  14.966   1.228
75650ION    CL-47321  43.840  32.300   1.308
75651ION    CL-47322  37.770  33.385  14.508
75652ION    CL-47323  35.689  27.891  12.435
75653ION    CL-47324  20.082  27.174  14.884
75654ION    CL-47325  35.051   0.903  11.576
75655ION    CL-47326  12.968  15.491  14.816
75656ION    CL-47327  27.485  37.491   1.431
75657ION    CL-47328  22.665  24.846   5.197
75658ION    CL-47329  15.909  20.290  12.542
75659ION    CL-47330  26.199  24.512   4.446
75660ION    CL-47331  15.400  40.518   2.822
75661ION    CL-47332  16.690  18.280  10.700
75662ION    CL-47333  12.347  42.305  10.578
75663ION    CL-47334  40.393  20.697  10.207
75664ION    CL-47335   5.154  25.404  10.637
75665ION    CL-47336  16.129  35.816   2.792
75666ION    CL-47337   2.505  35.981   4.129
75667ION    CL-47338  10.368  43.762  14.848
75668ION    CL-47339  38.041  38.337   5.310
75669ION    CL-47340   1.298  19.205   4.475
75670ION    CL-47341  17.564   8.972  11.146
75671ION    CL-47342   3.979  31.400  10.903
75672ION    CL-47343  36.110   1.849   1.865
75673ION    CL-47344  17.855  31.287   2.540
75674ION    CL-47345  23.538  40.272  12.544
75675ION    CL-47346  39.222  18.303  13.352
75676ION    CL-47347  25.489  16.682   0.803
75677ION    CL-47348  42.877  18.415  12.094
75678ION    CL-47349  41.981  32.136  13.819
75679ION    CL-47350   6.185  36.423  10.959
75680ION    CL-47351  40.044  33.418  14.315
75681ION    CL-47352  43.173  38.955   2.939
75682ION    CL-47353  28.387  43.215  11.822
75683ION    CL-47354  13.178   5.081  11.190
75684ION    CL-47355  25.242  34.423   2.044
75685ION    CL-47356  40.281  11.317  13.461
75686ION    CL-47357  12.221  13.252   1.736
75687ION    CL-47358  26.497  14.791  11.799
75688ION    CL-47359  17.386  10.257  12.694
75689ION    CL-47360  28.652  33.407  10.766
75690ION    CL-47361  23.305  17.572   3.177
75691ION    CL-47362  44.846  12.788  10.005
75692ION    CL-47363  10.211  15.184  11.625
75693ION    CL-47364  21.559  43.526   1.836
75694ION    CL-47365  40.097  44.397   4.096
75695ION    CL-47366  33.109  13.072  12.598
75696ION    CL-47367  35.105   6.409   1.839
75697ION    CL-47368   8.917  20.304   4.170
75698ION    CL-47369   1.445   4.543   1.459
75699ION    CL-47370  22.944  15.592   0.291
75700ION    CL-47371  30.678  28.921   3.451
75701ION    CL-47372   1.654  33.874   2.412
75702ION    CL-47373  21.716  30.407   2.099
75703ION    CL-47374  13.582  29.938  11.981
75704ION    CL-47375  24.290  28.943  14.436
75705ION    CL-47376  33.607  19.074  13.429
75706ION    CL-47377  10.993  15.008  13.811
75707ION    CL-47378  32.739   4.272  14.068
75708ION    CL-47379  27.329   4.953  10.708
75709ION    CL-47380  11.874  17.841   0.722
75710ION    CL-47381   0.402  44.027   1.377
75711ION    CL-47382  30.957  21.240  14.522
75712ION    CL-47383  21.022  14.274  11.573
75713ION    CL-47384   7.970  19.255  14.396
75714ION    CL-47385   5.009  33.160   2.822
75715ION    CL-47386  33.006  24.509   1.292
75716ION    CL-47387  12.377  43.959   3.661
75717ION    CL-47388  38.204   4.725  12.960
75718ION    CL-47389  11.155  28.130   0.722
75719ION    CL-47390   8.749   3.279   4.206
75720ION    CL-47391  12.319  32.620   3.780
75721ION    CL-47392   1.363  42.785  11.195
75722ION    CL-47393  43.477  40.467   4.855
75723ION    CL-47394  32.725  34.657  10.993
75724ION    CL-47395  38.065  26.714   3.610
75725ION    CL-47396  27.231  16.544  11.405
75726ION    CL-47397  39.974   2.737  11.943
75727ION    CL-47398  34.486  21.391  12.656
75728ION    CL-47399  33.812  15.855   2.431
75729ION    CL-47400  17.061   3.945   0.444
75730ION    CL-47401  25.802  27.807   4.148
75731ION    CL-47402   3.779   7.753   3.293
75732ION    CL-47403   6.025  15.809   4.308
75733ION    CL-47404  10.333  44.768   1.678
75734ION    CL-47405  41.117  20.468   0.037
75735ION    CL-47406  26.738   4.318   2.689
75736ION    CL-47407  14.361  13.353   4.969
75737ION    CL-47408   3.456  35.903  14.088
75738ION    CL-47409   6.149  35.809   2.187
75739ION    CL-47410  34.886  11.572   5.123
75740ION    CL-47411  23.548  35.591   3.266
75741ION    CL-47412  21.779   2.284   4.554
75742ION    CL-47413  17.125   1.285   1.315
75743ION    CL-47414  42.177  17.698  13.190
75744ION    CL-47415  23.071   2.671   1.608
75745ION    CL-47416   5.517   3.915  14.397
75746ION    CL-47417   4.235   7.842  12.891
75747ION    CL-47418  28.398  37.997   3.770
75748ION    CL-47419  10.022  29.419  11.139
75749ION    CL-47420  32.146  40.171   3.664
75750ION    CL-47421   0.492  16.321  14.132
75751ION    CL-47422  12.596  13.796   2.885
75752ION    CL-47423  39.374  30.922  12.450
75753ION    CL-47424   8.293  32.165   0.706
75754ION    CL-47425  39.175  30.956  11.470
75755ION    CL-47426  23.347  29.184  11.417
75756ION    CL-47427  16.933   9.650  11.527
75757ION    CL-47428   8.303   0.190  13.116
75758ION    CL-47429  21.113  22.524   2.724
75759ION    CL-47430  35.740   8.161   2.187
75760ION    CL-47431  31.845  26.470  12.785
75761ION    CL-47432  37.295   8.113  11.990
75762ION    CL-47433  32.455   7.165  12.157
75763ION    CL-47434  10.800  33.482   9.973
75764ION    CL-47435  21.909  43.129   4.157
75765ION    CL-47436  32.580  39.211   3.705
75766ION    CL-47437   0.549  44.002  10.715
75767ION    CL-47438   5.831  25.837  11.265
75768ION    CL-47439   9.900  24.989   2.805
75769ION    CL-47440  32.495  22.238   4.970
75770ION    CL-47441  39.126   4.584   9.899
75771ION    CL-47442   0.267  11.885  12.175
75772ION    CL-47443   8.637  25.745  11.064
75773ION    CL-47444  43.485  32.355   2.645
75774ION    CL-47445  39.575   4.406  11.997
75775ION    CL-47446  12.814  15.524  11.507
75776ION    CL-47447   3.337  10.505   9.916
75777ION    CL-47448   5.484  32.673  13.403
75778ION    CL-47449  34.736  23.746  11.001
75779ION    CL-47450  28.967  40.372  13.139
75780ION    CL-47451   9.081  27.306  13.507
75781ION    CL-47452  37.006  22.182  11.535
75782ION    CL-47453   1.835  35.138   2.797
75783ION    CL-47454   6.671  19.809   0.646
75784ION    CL-47455  16.598   7.145  11.989
75785ION    CL-47456  37.374   2.946   3.931
75786ION    CL-47457  44.059  29.442   2.246
75787ION    CL-47458  20.075  15.394   3.779
75788ION    CL-47459   7.698  43.178   1.166
75789ION    CL-47460  13.826  12.378   2.302
75790ION    CL-47461   2.919  32.675   2.415
75791ION    CL-47462   2.844  33.021   3.960
75792ION    CL-47463  33.112  44.417   2.125
75793ION    CL-47464   6.627  11.028  12.245
75794ION    CL-47465  31.902  15.385  14.032
75795ION    CL-47466  22.103  31.164  11.569
75796ION    CL-47467  41.948   8.253   2.075
75797ION    CL-47468  34.842  36.680   9.879
75798ION    CL-47469  41.581   7.043  11.935
75799ION    CL-47470  34.349   3.910  10.797
75800ION    CL-47471  38.008  25.018  12.475
75801ION    CL-47472   0.943  18.975  11.287
75802ION    CL-47473  24.303  16.173   0.064
75803ION    CL-47474   8.694  36.803   0.900
75804ION    CL-47475  16.587  38.666   3.071
75805ION    CL-47476   1.028  20.564   2.470
75806ION    CL-47477  10.373  15.843   3.386
75807ION    CL-47478  15.107   0.923  12.806
75808ION    CL-47479   8.295  43.912   1.492
75809ION    CL-47480  11.738  37.427  13.964
75810ION    CL-47481   4.890  13.116   3.730
75811ION    CL-47482  29.154  20.824   1.699
75812ION    CL-47483   7.877  21.310   3.380
75813ION    CL-47484  19.817  19.678   5.079
75814ION    CL-47485   0.864  19.671  12.044
75815ION    CL-47486  44.055  43.895  14.428
75816ION    CL-47487  12.665  19.318   0.316
75817ION    CL-47488  27.485  29.598   5.136
75818ION    CL-47489  17.483  11.447   4.104
75819ION    CL-47490   9.412  42.098   2.756
75820ION    CL-47491  10.745  21.617  11.992
75821ION    CL-47492  23.370   1.865  13.123
75822ION    CL-47493   6.318  29.887  13.349
75823ION    CL-47494  40.517  23.484   4.367
75824ION    CL-47495  31.423  21.515  10.833
75825ION    CL-47496  30.131   5.725  13.460
75826ION    CL-47497   8.119  19.271  10.375
75827ION    CL-47498  20.356  43.672   5.185
75828ION    CL-47499  10.979  13.567  11.686
75829ION    CL-47500  42.377   0.309   1.323
75830ION    CL-47501  17.850  41.175   2.002
75831ION    CL-47502   8.789  34.162  12.122
75832ION    CL-47503   4.337  14.558  12.328
75833ION    CL-47504   8.902  36.957  10.372
75834ION    CL-47505  18.232   6.781  12.012
75835ION    CL-47506  42.122  29.148  12.310
75836ION    CL-47507  17.946   6.508   5.125
75837ION    CL-47508   7.127  32.951  11.129
75838ION    CL-47509  12.554  19.036  11.172
75839ION    CL-47510  12.875   9.452  11.874
75840ION    CL-47511  17.790   9.671  14.465
75841ION    CL-47512  36.616  36.675   0.669
75842ION    CL-47513  24.464   6.259   0.587
75843ION    CL-47514  11.752  38.119   3.040
75844ION    CL-47515  11.552  32.838  14.404
75845ION    CL-47516  19.946   2.318  13.389
75846ION    CL-47517  43.544  43.300   4.429
75847ION    CL-47518  44.776  21.806   5.387
75848ION    CL-47519  14.280   6.537   5.018
75849ION    CL-47520  40.738   7.748  11.428
75850ION    CL-47521   2.560   6.448   1.816
75851ION    CL-47522   3.231  37.831   3.763
75852ION    CL-47523  16.164   4.861  14.212
75853ION    CL-47524  36.595  25.097  13.196
75854ION    CL-47525  35.438  34.418   1.859
75855ION    CL-47526  10.796  28.197   2.486
75856ION    CL-47527  42.560  39.222  11.273
75857ION    CL-47528  19.689  43.809   2.001
75858ION    CL-47529  26.151   1.462  12.811
75859ION    CL-47530  11.208  10.484  11.923
75860ION    CL-47531  18.785   9.956   0.614
75861ION    CL-47532  36.011  39.709  10.921
75862ION    CL-47533  26.189  11.584   0.480
75863ION    CL-47534  18.841  22.356  10.835
75864ION    CL-47535  43.283  24.659   1.124
75865ION    CL-47536   9.400  30.371  11.205
75866ION    CL-47537  15.643  16.751   0.952
75867ION    CL-47538  38.779  11.224  14.458
75868ION    CL-47539   0.066   9.829   0.831
75869ION    CL-47540   4.253   6.390   1.157
75870ION    CL-47541  34.348  26.677   2.409
75871ION    CL-47542  27.042   4.346  14.735
75872ION    CL-47543  34.852  22.475  13.384
75873ION    CL-47544  17.232  42.489   2.750
75874ION    CL-47545  25.483   6.226   2.374
75875ION    CL-47546   7.732  41.306  11.446
75876ION    CL-47547   1.451  42.404  14.382
75877ION    CL-47548   9.698  34.314   1.908
75878ION    CL-47549   8.462  27.684   0.454
75879ION    CL-47550  36.919  16.488  13.033
75880ION    CL-47551  29.769   8.987  13.418
75881ION    CL-47552  10.108   4.531   1.047
75882ION    CL-47553   8.188   7.755   0.336
75883ION    CL-47554  41.502  18.642   0.801
75884ION    CL-47555   1.947  37.394   3.385
75885ION    CL-47556  12.332  20.736   3.374
75886ION    CL-47557   0.290  24.849   2.816
75887ION    CL-47558  14.271  37.065  13.047
75888ION    CL-47559  44.025   0.456   2.518
75889ION    CL-47560  21.231  27.343  12.106
75890ION    CL-47561   4.246  12.540  12.085
75891ION    CL-47562   1.265  42.024   3.571
75892ION    CL-47563  19.597  16.684  10.512
75893ION    CL-47564  43.013  23.679  10.395
75894ION    CL-47565  26.705  31.428   1.466
75895ION    CL-47566  41.964  22.200  14.472
75896ION    CL-47567  29.569  30.270   2.298
75897ION    CL-47568   5.455  15.877  12.285
75898ION    CL-47569  10.728  43.416   4.312
75899ION    CL-47570  35.867  31.121  14.198
75900ION    CL-47571  15.175   7.181  12.373
75901ION    CL-47572  37.652   9.710   1.660
75902ION    CL-47573  15.883   9.412  12.798
75903ION    CL-47574  35.310  19.187   3.132
75904ION    CL-47575  22.734  26.383   0.801
75905ION    CL-47576  32.089   0.714   1.273
75906ION    CL-47577  12.590  22.151   3.254
75907ION    CL-47578  39.387  36.159  14.271
75908ION    CL-47579  18.647  25.008   3.197
75909ION    CL-47580  18.450   3.482  13.617
75910ION    CL-47581  42.049  21.415  10.183
75911ION    CL-47582  24.297  43.116   3.785
75912ION    CL-47583  14.839  44.327  13.756
75913ION    CL-47584  27.249  22.129  12.141
75914ION    CL-47585   1.369  30.658  11.218
75915ION    CL-47586  19.340   3.930   0.119
75916ION    CL-47587  31.764  30.673  11.195
75917ION    CL-47588  21.510  12.863  14.976
75918ION    CL-47589  17.032   8.935  13.518
75919ION    CL-47590   8.657  40.537  14.196
75920ION    CL-47591  28.008   5.408   9.587
75921ION    CL-47592   0.170  10.955  12.820
75922ION    CL-47593  17.330  18.376  11.463
75923ION    CL-47594  12.571  15.867  12.329
75924ION    CL-47595  20.015  24.586   4.120
75925ION    CL-47596  20.808  38.287  14.803
75926ION    CL-47597   6.892   3.715  12.213
75927ION    CL-47598   1.431  27.468  14.689
75928ION    CL-47599  11.790  43.083  11.605
75929ION    CL-47600  33.828   7.533   0.365
75930ION    CL-47601  42.097  32.546   1.302
75931ION    CL-47602  16.111  28.508   2.716
75932ION    CL-47603  27.265   4.348   3.663
75933ION    CL-47604  32.786  29.979  12.036
75934ION    CL-47605   7.230   0.761  12.083
75935ION    CL-47606  20.677  20.025  14.505
75936ION    CL-47607  38.095   5.716  12.883
75937ION    CL-47608  22.135  20.160   1.069
75938ION    CL-47609  21.866  25.700   2.138
75939ION    CL-47610  44.686  15.696  12.470
75940ION    CL-47611  36.215  24.651  14.006
75941ION    CL-47612  13.452   8.853   0.816
75942ION    CL-47613  38.589  32.418  14.339
75943ION    CL-47614   3.802  31.979  11.699
75944ION    CL-47615  32.181  34.147  11.659
75945ION    CL-47616  24.949  35.144   1.986
75946ION    CL-47617  13.397  40.119  13.732
75947ION    CL-47618  11.138  20.313   1.375
75948ION    CL-47619  31.896  16.724  14.869
75949ION    CL-47620  20.571  29.515  11.245
75950ION    CL-47621  37.659  21.945  12.046
75951ION    CL-47622  16.841  25.018   2.404
75952ION    CL-47623  24.199  39.998   9.783
75953ION    CL-47624  26.427  43.887  12.991
75954ION    CL-47625  17.021  35.470  10.689
75955ION    CL-47626  15.588  38.464   3.278
75956ION    CL-47627  12.917  20.275   1.458
75957ION    CL-47628  13.249   0.852   0.291
75958ION    CL-47629  44.375   7.834  14.252
75959ION    CL-47630   2.047   2.451  13.112
75960ION    CL-47631   3.189  28.504  12.560
75961ION    CL-47632  12.401  20.220  10.680
75962ION    CL-47633  38.768  19.677   0.937
75963ION    CL-47634  44.980  13.354   0.482
75964ION    CL-47635  37.379  36.588   5.320
75965ION    CL-47636   0.644  38.327   1.446
75966ION    CL-47637  37.664  39.447  13.652
75967ION    CL-47638  25.651  37.925   0.819
75968ION    CL-47639   3.473  30.342  14.216
75969ION    CL-47640  38.704  31.478  14.016
75970ION    CL-47641  28.497   7.163   3.201
75971ION    CL-47642  10.641   1.812  11.684
75972ION    CL-47643  13.067  27.717   0.373
75973ION    CL-47644  14.844  19.572   4.421
75974ION    CL-47645  36.466  15.894   5.071
75975ION    CL-47646   1.887   1.514   4.577
75976ION    CL-47647  42.915  39.607   4.543
75977ION    CL-47648   4.377  27.864   4.914
75978ION    CL-47649  24.971   0.382  13.094
75979ION    CL-47650  32.784  20.588   2.052
75980ION    CL-47651  21.544  22.168  12.501
75981ION    CL-47652   1.033  23.420  14.782
75982ION    CL-47653  31.028  32.898   1.268
75983ION    CL-47654  44.492  22.880   2.396
75984ION    CL-47655  36.023   7.162   3.775
75985ION    CL-47656  35.876  42.261   2.478
75986ION    CL-47657  30.986  30.676   0.940
75987ION    CL-47658  41.417  43.513  14.165
75988ION    CL-47659  31.937  34.452   3.644
75989ION    CL-47660  14.831  29.796  13.083
75990ION    CL-47661   3.731  41.508  12.425
75991ION    CL-47662  28.115  13.926   1.173
75992ION    CL-47663  12.348   3.338  12.762
75993ION    CL-47664  23.627  20.772   1.207
75994ION    CL-47665  31.638  43.379   1.964
75995ION    CL-47666  11.238  42.410   2.893
75996ION    CL-47667  32.515  40.303   0.336
75997ION    CL-47668  26.329  26.971  11.621
75998ION    CL-47669  21.589   5.134  14.815
75999ION    CL-47670  40.993  23.439  10.742
76000ION    CL-47671  24.511  42.148   2.705
76001ION    CL-47672  41.957   3.598  11.895
76002ION    CL-47673   6.439  20.879  14.046
76003ION    CL-47674  24.723   9.745  11.416
76004ION    CL-47675  24.786  33.146   4.138
76005ION    CL-47676  40.789  38.063  14.716
76006ION    CL-47677  35.171  11.045   3.433
76007ION    CL-47678  33.333  30.835  14.510
76008ION    CL-47679  40.337  37.689  10.671
76009ION    CL-47680  32.911  39.123  14.289
76010ION    CL-47681   1.822  21.647   3.606
76011ION    CL-47682  18.941  12.750  13.374
76012ION    CL-47683  33.514   6.593   3.868
76013ION    CL-47684  40.060   8.781  12.219
76014ION    CL-47685   7.387  13.328  14.557
76015ION    CL-47686   2.872  19.147  11.837
76016ION    CL-47687  34.587  11.232   1.238
76017ION    CL-47688  41.012   0.481  11.533
76018ION    CL-47689  17.355   8.817   0.280
76019ION    CL-47690  25.717  23.178   4.120
76020ION    CL-47691   1.473   9.161  12.452
76021ION    CL-47692  39.992  19.059   0.486
76022ION    CL-47693  20.336  10.426  12.661
76023ION    CL-47694  43.738  20.573  10.954
76024ION    CL-47695  18.021  42.149   1.857
76025ION    CL-47696  21.931  33.322  11.998
76026ION    CL-47697  13.685  30.384  14.795
76027ION    CL-47698   9.133  23.530   4.688
76028ION    CL-47699  10.854  44.968   2.508
76029ION    CL-47700   8.647  35.711   2.446
76030ION    CL-47701  19.157   8.616  11.588
76031ION    CL-47702  44.967  29.552   0.216
76032ION    CL-47703  35.459   5.350  14.054
76033ION    CL-47704   9.637   5.390   3.737
76034ION    CL-47705   9.178  38.968  11.000
76035ION    CL-47706  28.880  10.605  13.505
76036ION    CL-47707  17.247  12.643   5.018
76037ION    CL-47708  20.069  24.650   0.743
76038ION    CL-47709   4.717   1.283   4.648
76039ION    CL-47710  29.281  25.219   1.909
76040ION    CL-47711  42.984  40.259   2.364
76041ION    CL-47712  23.540  27.544   3.036
76042ION    CL-47713  37.948  26.022   4.919
76043ION    CL-47714  41.573  16.727  11.196
76044ION    CL-47715  38.153   7.977  12.506
76045ION    CL-47716  33.876  11.015   0.548
76046ION    CL-47717  43.229   5.168  12.859
76047ION    CL-47718  22.239  12.059  11.057
76048ION    CL-47719   9.481   6.244  11.590
76049ION    CL-47720  43.447  19.348   2.122
76050ION    CL-47721  32.603  12.204   3.420
76051ION    CL-47722  44.059  38.464   3.462
76052ION    CL-47723   9.082  16.146  13.305
76053ION    CL-47724  39.847  17.870   2.166
76054ION    CL-47725  32.838  44.951   4.856
76055ION    CL-47726  12.423  44.294   4.885
76056ION    CL-47727  41.419  27.543  13.400
76057ION    CL-47728  23.724   7.890   5.146
76058ION    CL-47729   5.777  11.653   4.073
76059ION    CL-47730  11.370  35.138   3.148
76060ION    CL-47731  34.051  32.725   0.909
76061ION    CL-47732  34.825  37.185  14.053
76062ION    CL-47733  40.134  38.321  13.404
76063ION    CL-47734  34.538  27.638  12.226
76064ION    CL-47735  25.042  15.958   1.331
76065ION    CL-47736  14.082  22.103  11.566
76066ION    CL-47737  32.127   9.215  12.911
76067ION    CL-47738   4.833  24.273   0.312
76068ION    CL-47739  18.265  10.934   3.519
76069ION    CL-47740  12.421   4.355  14.339
76070ION    CL-47741   5.714  20.563  10.274
76071ION    CL-47742  36.000  39.712  12.101
76072ION    CL-47743  32.024   9.454   3.328
76073ION    CL-47744  34.045  16.325  14.144
76074ION    CL-47745   2.137  41.186  11.689
76075ION    CL-47746  15.203  42.595   0.454
76076ION    CL-47747  30.025  34.592   2.165
76077ION    CL-47748  18.577  40.620   0.221
76078ION    CL-47749  12.855  30.936  12.946
76079ION    CL-47750  40.657  11.186  12.504
76080ION    CL-47751  24.931  43.641  14.891
76081ION    CL-47752  17.951  23.325   2.521
76082ION    CL-47753  27.980  10.312   2.602
76083ION    CL-47754  12.196   7.514  13.447
76084ION    CL-47755  26.685  42.283   1.272
76085ION    CL-47756  40.726   3.385  14.770
76086ION    CL-47757  24.766  27.803   2.136
76087ION    CL-47758  24.229  34.746   1.089
76088ION    CL-47759  23.467  30.161  10.517
76089ION    CL-47760  14.520   1.451   1.685
76090ION    CL-47761  42.569  43.678   3.771
76091ION    CL-47762  31.564   8.085   0.034
76092ION    CL-47763   4.390  11.926   0.766
76093ION    CL-47764  18.555  20.667  12.807
76094ION    CL-47765  21.680   1.729   0.897
76095ION    CL-47766   2.027  42.259  10.884
76096ION    CL-47767  25.768  38.816   0.973
76097ION    CL-47768  27.084  33.938  11.425
76098ION    CL-47769  38.262  38.895   1.200
76099ION    CL-47770   0.410   9.614   4.305
76100ION    CL-47771  41.998  13.783  14.267
76101ION    CL-47772  30.480  20.259   0.169
76102ION    CL-47773   2.705  40.820   3.768
76103ION    CL-47774  23.971  33.095   0.372
76104ION    CL-47775   7.258  14.484   2.888
76105ION    CL-47776  40.038   9.184   0.917
76106ION    CL-47777  44.447  13.554  13.478
76107ION    CL-47778  32.452  14.014   1.360
76108ION    CL-47779  19.108  19.739   2.827
76109ION    CL-47780  36.222   1.777  10.903
76110ION    CL-47781  28.152  28.182  13.304
76111ION    CL-47782   0.570   6.191   3.278
76112ION    CL-47783  37.075   4.413   4.951
76113ION    CL-47784  27.173   8.682  11.504
76114ION    CL-47785  24.002  35.830   9.917
76115ION    CL-47786  11.872  40.815   2.527
76116ION    CL-47787   7.626  18.432  14.287
76117ION    CL-47788  32.404  44.571   2.867
76118ION    CL-47789  12.644  44.386  13.780
76119ION    CL-47790  32.692  22.582  11.282
76120ION    CL-47791   1.715  19.147  12.016
76121ION    CL-47792  21.760  39.968  14.958
76122ION    CL-47793   2.311  29.925  10.639
76123ION    CL-47794  20.215  38.688   5.053
76124ION    CL-47795   0.987   4.057   2.852
76125ION    CL-47796  39.381  40.532   0.379
76126ION    CL-47797   5.276  36.413   4.278
76127ION    CL-47798  42.576   0.347   4.304
76128ION    CL-47799  20.129  32.883  12.110
76129ION    CL-47800  29.319   9.671  13.735
76130ION    CL-47801   2.514  41.425   0.156
76131ION    CL-47802  28.725  44.534   2.873
76132ION    CL-47803  21.236  37.518  11.671
76133ION    CL-47804  43.086  15.384   1.345
76134ION    CL-47805   3.869   9.386   1.751
76135ION    CL-47806  36.222  28.483  13.528
76136ION    CL-47807  19.015  16.555  14.378
76137ION    CL-47808   4.438   0.448   3.218
76138ION    CL-47809  34.199  22.023   4.413
76139ION    CL-47810  10.780   9.902  12.613
76140ION    CL-47811  10.133  42.831  12.701
76141ION    CL-47812  19.756  32.335   0.198
76142ION    CL-47813  21.215  43.172   3.644
76143ION    CL-47814  13.184   3.276   2.926
76144ION    CL-47815  22.655  28.864   2.237
76145ION    CL-47816  41.280  28.543  10.788
76146ION    CL-47817   1.156  30.430  14.843
76147ION    CL-47818  37.487  17.996  13.557
76148ION    CL-47819  11.214  43.618  12.224
76149ION    CL-47820  31.777   1.599   0.762
76150ION    CL-47821  36.128   3.850   1.812
76151ION    CL-47822  15.089  14.731   1.459
76152ION    CL-47823   2.904  26.051   2.836
76153ION    CL-47824   6.657  15.094   4.624
76154ION    CL-47825  27.986  36.992   3.243
76155ION    CL-47826  19.951  31.248  11.117
76156ION    CL-47827  16.773  38.223   3.948
76157ION    CL-47828   9.253   8.247  14.237
76158ION    CL-47829  35.365  22.628  14.407
76159ION    CL-47830  12.710  13.998  11.641
76160ION    CL-47831   4.693  28.954  12.043
76161ION    CL-47832  32.447  20.129  12.977
76162ION    CL-47833  13.415   2.912   0.297
76163ION    CL-47834   7.820   3.021  14.939
76164ION    CL-47835  13.870  35.726   4.242
76165ION    CL-47836  37.841  11.726   1.209
76166ION    CL-47837  20.662  26.959   2.197
76167ION    CL-47838  20.879  12.326   3.050
76168ION    CL-47839  22.820  33.194  10.804
76169ION    CL-47840  33.948  41.425   0.930
76170ION    CL-47841  16.517  16.703   0.469
76171ION    CL-47842  13.667  18.393  10.467
76172ION    CL-47843  37.827  15.558  13.884
76173ION    CL-47844  27.324   0.176  10.740
76174ION    CL-47845  39.518  21.352   1.887
76175ION    CL-47846   1.343  33.606   3.477
76176ION    CL-47847  26.688   4.387  11.533
76177ION    CL-47848  32.714   0.903  10.008
76178ION    CL-47849  38.619  24.566   0.419
76179ION    CL-47850  13.984   9.674   1.102
76180ION    CL-47851  35.055  10.087  14.456
76181ION    CL-47852  42.411  26.533   1.289
76182ION    CL-47853  19.914  19.784  10.747
76183ION    CL-47854   7.285  30.910   1.463
76184ION    CL-47855  34.019  33.870   1.801
76185ION    CL-47856  44.922  20.080  11.982
76186ION    CL-47857  27.157  29.919  12.691
76187ION    CL-47858  21.484  39.584  13.791
76188ION    CL-47859   6.496  16.625   9.771
76189ION    CL-47860  38.234   8.503   4.580
76190ION    CL-47861  12.219  44.543  14.755
76191ION    CL-47862  40.729   7.715   4.894
76192ION    CL-47863  39.379   0.021   2.758
76193ION    CL-47864  39.148  33.051   4.119
76194ION    CL-47865  27.027  20.625   4.548
76195ION    CL-47866  42.238  29.612   0.288
76196ION    CL-47867  33.757  28.498  11.364
76197ION    CL-47868   2.451  23.621  10.200
76198ION    CL-47869   3.736  14.036   0.425
76199ION    CL-47870  24.823  11.582   4.330
76200ION    CL-47871  10.608  22.619   5.039
76201ION    CL-47872  44.429  28.159   4.879
76202ION    CL-47873  34.672   7.767   0.848
76203ION    CL-47874  28.291  20.788   2.220
76204ION    CL-47875  37.331  37.258  12.691
76205ION    CL-47876  12.971  27.726   3.338
76206ION    CL-47877  40.524  24.093   2.679
76207ION    CL-47878  10.183  15.634  13.005
76208ION    CL-47879  29.965  43.446  12.978
76209ION    CL-47880   3.336  43.489   4.918
76210ION    CL-47881  39.327   8.718  12.994
76211ION    CL-47882  43.807   8.428   4.111
76212ION    CL-47883  19.661  23.514   4.692
76213ION    CL-47884  11.195  42.182   2.000
76214ION    CL-47885  17.713  38.619  11.583
76215ION    CL-47886  31.294  34.425   9.728
76216ION    CL-47887   2.259  19.214   0.900
76217ION    CL-47888  39.751   6.943   0.370
76218ION    CL-47889  42.766  37.962  11.405
76219ION    CL-47890  40.584   0.986   0.189
76220ION    CL-47891   7.829  35.064   1.423
76221ION    CL-47892   9.156  29.146  13.865
76222ION    CL-47893  15.659   3.086   3.804
76223ION    CL-47894  31.010  18.810   2.806
76224ION    CL-47895  12.588   7.444   2.476
76225ION    CL-47896  39.306   1.129  14.828
76226ION    CL-47897   7.581  23.324  12.519
76227ION    CL-47898  32.073   1.905  13.554
76228ION    CL-47899  21.307   3.432  14.464
76229ION    CL-47900   7.522  31.375  11.887
76230ION    CL-47901  11.342  34.726   4.685
76231ION    CL-47902  23.227  43.520  11.593
76232ION    CL-47903  38.873  11.795   2.115
76233ION    CL-47904  36.089  11.096   3.482
76234ION    CL-47905  17.296   2.665   3.208
76235ION    CL-47906  11.303  17.558  12.951
76236ION    CL-47907  28.401   9.448   3.354
76237ION    CL-47908   5.877  16.693  12.172
76238ION    CL-47909  37.661  39.215   9.967
76239ION    CL-47910  35.879  15.788  13.289
76240ION    CL-47911  27.863  29.062   9.798
76241ION    CL-47912  41.574   2.081  11.589
76242ION    CL-47913  25.048  36.563   5.110
76243ION    CL-47914  19.187  13.649   3.242
76244ION    CL-47915   3.957   1.898   2.163
76245ION    CL-47916  37.335  43.231  10.971
76246ION    CL-47917  43.959   3.219   4.121
76247ION    CL-47918   7.406   0.637  14.909
76248ION    CL-47919  26.215   4.857  14.968
76249ION    CL-47920  23.152  16.742  11.587
76250ION    CL-47921  40.120  15.999  12.961
76251ION    CL-47922  37.456  42.445   0.158
76252ION    CL-47923  26.999  25.757  14.052
76253ION    CL-47924   5.255  34.007  13.577
76254ION    CL-47925  24.127  10.430   9.784
76255ION    CL-47926  25.135  25.378   3.332
76256ION    CL-47927  30.651  38.610   3.764
76257ION    CL-47928  19.287  41.209   0.775
76258ION    CL-47929  41.697  29.585  11.624
76259ION    CL-47930   7.683  43.281   2.553
76260ION    CL-47931  36.751   7.372   3.383
76261ION    CL-47932  26.675  15.153   4.006
76262ION    CL-47933  34.936  30.867   4.760
76263ION    CL-47934  24.327  27.103  10.910
76264ION    CL-47935  24.105  30.527   9.929
76265ION    CL-47936  29.284  39.929   0.810
76266ION    CL-47937  41.678  44.099  10.955
76267ION    CL-47938  32.093  20.139   1.415
76268ION    CL-47939  20.432  40.259   3.730
76269ION    CL-47940   6.719  29.418  10.538
76270ION    CL-47941   8.794  43.262  10.724
76271ION    CL-47942   3.477  43.119   0.056
76272ION    CL-47943  15.844  28.933  12.504
76273ION    CL-47944  24.649  27.400   1.158
76274ION    CL-47945   2.582  10.611   1.459
76275ION    CL-47946  38.040  26.250   0.769
76276ION    CL-47947  11.109  31.453  10.968
76277ION    CL-47948   0.422   5.909  13.365
76278ION    CL-47949  18.338  23.074  13.527
76279ION    CL-47950  28.658  32.466   3.845
76280ION    CL-47951   7.003  11.651   0.265
76281ION    CL-47952   1.701  13.828   2.770
76282ION    CL-47953  27.067  29.460   0.728
76283ION    CL-47954  40.549  32.340   1.477
76284ION    CL-47955  35.614  31.964  12.804
76285ION    CL-47956  19.521   9.779  13.448
76286ION    CL-47957   5.773   3.912   2.604
76287ION    CL-47958  31.017  15.728   2.452
76288ION    CL-47959  17.274  39.557  11.930
76289ION    CL-47960   1.747  25.209  11.320
76290ION    CL-47961   7.949  44.790  14.342
76291ION    CL-47962  44.962   0.486  14.862
76292ION    CL-47963   3.667  14.067   2.285
76293ION    CL-47964   8.779  34.947  10.794
76294ION    CL-47965  17.458   8.112   0.840
76295ION    CL-47966   0.269  33.594   3.098
76296ION    CL-47967   3.275  21.409   3.960
76297ION    CL-47968  44.570  30.819  13.088
76298ION    CL-47969   3.767  34.014  13.053
76299ION    CL-47970   7.846  16.018   4.625
76300ION    CL-47971  42.483   5.224   4.818
76301ION    CL-47972  17.789  17.621  14.684
76302ION    CL-47973  37.386  20.468   2.772
76303ION    CL-47974   2.358  15.238   4.816
76304ION    CL-47975  10.828  15.275  10.843
76305ION    CL-47976  32.482   7.862  12.960
76306ION    CL-47977  41.761  11.921   0.692
76307ION    CL-47978  26.652  11.586  13.877
76308ION    CL-47979   5.677  16.379  13.436
76309ION    CL-47980  44.370  39.294   3.564
76310ION    CL-47981  31.843  25.187  13.701
76311ION    CL-47982  28.950  20.698   4.744
76312ION    CL-47983  18.508   8.664   0.320
76313ION    CL-47984   1.482   4.224  13.451
76314ION    CL-47985  19.822   1.247  10.125
76315ION    CL-47986   3.571  11.219   2.000
76316ION    CL-47987  12.947  17.206  10.576
76317ION    CL-47988  16.158  30.033   2.761
76318ION    CL-47989   7.052  33.646   1.966
76319ION    CL-47990  40.414   0.273   2.530
76320ION    CL-47991   3.397  12.552  14.024
76321ION    CL-47992  34.006  28.935  10.590
76322ION    CL-47993  17.068   6.758   9.869
76323ION    CL-47994  36.652  24.557  11.234
76324ION    CL-47995  35.210  33.582   1.005
76325ION    CL-47996  16.336  24.580  13.531
76326ION    CL-47997  30.713  17.129   0.350
76327ION    CL-47998  18.118   9.305   0.981
76328ION    CL-47999  23.866   1.540   1.435
76329ION    CL-48000  10.021  44.314  13.296
76330ION    CL-48001  43.122  28.918  12.149
76331ION    CL-48002  16.325  10.803   0.137
76332ION    CL-48003  20.674  17.257   4.968
76333ION    CL-48004  14.659   6.700   0.725
76334ION    CL-48005  41.871  18.660  12.010
76335ION    CL-48006  23.696  43.503   2.985
76336ION    CL-48007   8.024   6.976   2.460
76337ION    CL-48008  27.264  30.591   4.096
76338ION    CL-48009  41.320   0.461   3.071
76339ION    CL-48010  17.641   7.592  13.126
76340ION    CL-48011   6.303   6.061   4.141
76341ION    CL-48012  13.631  43.317   1.294
76342ION    CL-48013   0.463  28.026  14.917
76343ION    CL-48014  27.571   1.107  11.009
76344ION    CL-48015  14.526  38.095   0.389
76345ION    CL-48016  24.025  36.443   1.950
76346ION    CL-48017  44.126   2.889   0.389
76347ION    CL-48018   9.985  41.778  14.422
76348ION    CL-48019  41.419  27.139   2.941
76349ION    CL-48020   2.274  25.414   2.329
76350ION    CL-48021  38.249   8.196   1.430
76351ION    CL-48022  39.393  15.526   1.469
76352ION    CL-48023  16.286   8.990   0.246
76353ION    CL-48024  28.772  36.474   3.596
76354ION    CL-48025  26.211  43.848  11.517
76355ION    CL-48026   1.953  18.760  14.820
76356ION    CL-48027  42.936  34.611  13.696
76357ION    CL-48028  30.454  42.741   1.549
76358ION    CL-48029  29.114  34.026   3.369
76359ION    CL-48030  12.461  20.762  12.795
76360ION    CL-48031  41.697   6.885  13.356
76361ION    CL-48032  42.211  35.141  13.393
76362ION    CL-48033  21.162  10.808   1.261
76363ION    CL-48034   6.711  34.162  11.340
76364ION    CL-48035   0.292  16.031  13.191
76365ION    CL-48036  13.047  41.350  12.711
76366ION    CL-48037  36.298  29.696  13.561
76367ION    CL-48038  35.886  31.060   2.918
76368ION    CL-48039  44.286  25.074   5.132
76369ION    CL-48040   6.977  33.870  12.294
76370ION    CL-48041  39.363  18.780   4.049
76371ION    CL-48042   2.936  34.346  11.572
76372ION    CL-48043  23.240   7.374   2.481
76373ION    CL-48044  19.760  24.523  11.006
76374ION    CL-48045   2.494  28.462   0.400
76375ION    CL-48046  23.387   7.749   3.804
76376ION    CL-48047  31.798   4.142  13.758
76377ION    CL-48048  37.306  32.762  11.608
76378ION    CL-48049  12.903  20.308   4.117
76379ION    CL-48050  33.129  33.640   2.773
76380ION    CL-48051  38.891  41.570  14.763
76381ION    CL-48052  43.832  18.043  13.914
76382ION    CL-48053   5.203  37.092  14.538
76383ION    CL-48054   4.316  21.086  12.419
76384ION    CL-48055  31.184  29.865   3.247
76385ION    CL-48056  10.417  17.522  14.362
76386ION    CL-48057  28.116  15.402   5.059
76387ION    CL-48058  21.212  41.598   4.731
76388ION    CL-48059  30.121  29.258   2.262
76389ION    CL-48060  16.592  37.827   0.220
76390ION    CL-48061   8.101   4.914  10.647
76391ION    CL-48062  27.535  17.019   1.676
76392ION    CL-48063  38.109  11.787   3.214
76393ION    CL-48064  17.145   8.246  14.101
76394ION    CL-48065   5.536   0.138   0.104
76395ION    CL-48066  40.671  39.607  10.594
76396ION    CL-48067  10.863  27.654  14.851
76397ION    CL-48068  44.349  23.947   9.765
76398ION    CL-48069  10.006  44.140  10.938
76399ION    CL-48070   3.991  15.169  14.697
76400ION    CL-48071   9.202  37.631   3.735
76401ION    CL-48072  27.933  33.531   3.711
76402ION    CL-48073  33.859   1.412  11.851
76403ION    CL-48074  32.848  25.144   4.785
76404ION    CL-48075  22.941   9.080   4.530
76405ION    CL-48076   9.364   3.114  11.572
76406ION    CL-48077  40.269  42.887   2.485
76407ION    CL-48078   6.473  12.814  12.878
76408ION    CL-48079  43.931  35.583   0.515
76409ION    CL-48080  18.506  41.729   1.931
76410ION    CL-48081  17.564  18.766  14.852
76411ION    CL-48082   1.979   7.967  14.511
76412ION    CL-48083  21.041  36.793  10.962
76413ION    CL-48084   3.431  19.932   0.749
76414ION    CL-48085   1.648   9.089   4.461
76415ION    CL-48086  10.305  13.703  12.252
76416ION    CL-48087  40.809  25.010   1.661
76417ION    CL-48088   5.666  17.743  14.908
76418ION    CL-48089   7.888   5.328   0.407
76419ION    CL-48090  15.603   3.211   4.816
76420ION    CL-48091  36.238  21.027   4.281
76421ION    CL-48092  20.013  13.344   0.877
76422ION    CL-48093  25.370  26.947  11.338
76423ION    CL-48094  39.737   8.303   3.552
76424ION    CL-48095   6.318   4.240   1.952
76425ION    CL-48096  33.670   8.628   2.703
  45.00000  45.00000  15.00000
